<?xml version="1.0" encoding="UTF-8"?>

<!-- generated on 2021-10-26 13:25:18 by Eclipse SUMO sumo Version 1.10.0
<configuration xmlns:xsi="http://www.w3.org/2001/XMLSchema-instance" xsi:noNamespaceSchemaLocation="http://sumo.dlr.de/xsd/sumoConfiguration.xsd">

    <input>
        <net-file value="/Users/behradkoohy/sumo-scratchpad/RESCO/environments/ingolstadt21/ingolstadt21.net.xml"/>
        <route-files value="/Users/behradkoohy/sumo-scratchpad/RESCO/environments/ingolstadt21/ingolstadt21.rou.xml"/>
    </input>

    <output>
        <tripinfo-output value="/Users/behradkoohy/sumo-scratchpad/RESCO/logs/IDQN-tr0-ingolstadt21-21-drq_norm-wait_norm/tripinfo_96.xml"/>
        <tripinfo-output.write-unfinished value="true"/>
    </output>

    <time>
        <begin value="57600"/>
        <end value="61200"/>
    </time>

    <processing>
        <time-to-teleport value="-1"/>
    </processing>

    <report>
        <no-warnings value="true"/>
        <no-step-log value="true"/>
    </report>

    <emissions>
        <device.emissions.probability value="1"/>
    </emissions>

    <traci_server>
        <remote-port value="58936"/>
    </traci_server>

    <random_number>
        <random value="true"/>
    </random_number>

</configuration>
-->

<tripinfos xmlns:xsi="http://www.w3.org/2001/XMLSchema-instance" xsi:noNamespaceSchemaLocation="http://sumo.dlr.de/xsd/tripinfo_file.xsd">
    <tripinfo id="h15454c2:3" depart="57612.00" departLane="24608844_1" departPos="5.10" departSpeed="0.00" departDelay="0.50" arrival="57654.00" arrivalLane="32978638#0_1" arrivalPos="49.29" arrivalSpeed="13.15" duration="42.00" routeLength="354.79" waitingTime="0.00" waitingCount="0" stopTime="0.00" timeLoss="7.66" rerouteNo="1" devices="tripinfo_h15454c2:3 routing_h15454c2:3 emissions_h15454c2:3" vType="default_016" speedFactor="1.00" vaporized="">
        <emissions CO_abs="2201.018893" CO2_abs="117718.681000" HC_abs="12.773558" PMx_abs="2.083618" NOx_abs="48.544570" fuel_abs="50.602513" electricity_abs="0"/>
    </tripinfo>
    <tripinfo id="carIn60260:1" depart="57606.00" departLane="315358254#0_1" departPos="5.10" departSpeed="0.00" departDelay="0.90" arrival="57684.00" arrivalLane="399835085#1_1" arrivalPos="212.23" arrivalSpeed="7.61" duration="78.00" routeLength="430.98" waitingTime="19.00" waitingCount="1" stopTime="0.00" timeLoss="31.02" rerouteNo="1" devices="tripinfo_carIn60260:1 routing_carIn60260:1 emissions_carIn60260:1" vType="default_016" speedFactor="0.98" vaporized="">
        <emissions CO_abs="5006.643669" CO2_abs="167963.209080" HC_abs="26.679453" PMx_abs="3.055200" NOx_abs="69.965536" fuel_abs="72.202063" electricity_abs="0"/>
    </tripinfo>
    <tripinfo id="carIn53971:1" depart="57640.00" departLane="272042143_1" departPos="5.10" departSpeed="0.00" departDelay="0.80" arrival="57690.00" arrivalLane="24634414#1_1" arrivalPos="162.19" arrivalSpeed="9.25" duration="50.00" routeLength="493.04" waitingTime="0.00" waitingCount="0" stopTime="0.00" timeLoss="9.01" rerouteNo="1" devices="tripinfo_carIn53971:1 routing_carIn53971:1 emissions_carIn53971:1" vType="default_016" speedFactor="1.11" vaporized="">
        <emissions CO_abs="2412.197250" CO2_abs="146498.833103" HC_abs="14.410072" PMx_abs="2.596194" NOx_abs="60.027008" fuel_abs="62.973695" electricity_abs="0"/>
    </tripinfo>
    <tripinfo id="h3688c1:1" depart="57625.00" departLane="201201950#1_1" departPos="5.10" departSpeed="0.00" departDelay="0.00" arrival="57720.00" arrivalLane="32978638#0_1" arrivalPos="49.29" arrivalSpeed="13.14" duration="95.00" routeLength="1089.75" waitingTime="0.00" waitingCount="0" stopTime="0.00" timeLoss="14.99" rerouteNo="1" devices="tripinfo_h3688c1:1 routing_h3688c1:1 emissions_h3688c1:1" vType="default_016" speedFactor="1.00" vaporized="">
        <emissions CO_abs="3603.777712" CO2_abs="270171.442373" HC_abs="22.723576" PMx_abs="4.439757" NOx_abs="107.515000" fuel_abs="116.135266" electricity_abs="0"/>
    </tripinfo>
    <tripinfo id="h7800c1:5" depart="57696.00" departLane="-447569998#1_1" departPos="5.10" departSpeed="0.00" departDelay="0.00" arrival="57720.00" arrivalLane="-447569998#1_1" arrivalPos="180.76" arrivalSpeed="8.03" duration="24.00" routeLength="175.66" waitingTime="0.00" waitingCount="0" stopTime="0.00" timeLoss="3.16" rerouteNo="1" devices="tripinfo_h7800c1:5 routing_h7800c1:5 emissions_h7800c1:5" vType="default_016" speedFactor="1.02" vaporized="">
        <emissions CO_abs="1105.434505" CO2_abs="49171.316694" HC_abs="6.162341" PMx_abs="0.805666" NOx_abs="20.009946" fuel_abs="21.137008" electricity_abs="0"/>
    </tripinfo>
    <tripinfo id="carIn80064:1" depart="57603.00" departLane="128361109#1_1" departPos="5.10" departSpeed="0.00" departDelay="0.40" arrival="57724.00" arrivalLane="-315358254#1_1" arrivalPos="137.16" arrivalSpeed="13.09" duration="121.00" routeLength="1587.97" waitingTime="5.00" waitingCount="1" stopTime="0.00" timeLoss="29.17" rerouteNo="1" devices="tripinfo_carIn80064:1 routing_carIn80064:1 emissions_carIn80064:1" vType="default_016" speedFactor="0.98" vaporized="">
        <emissions CO_abs="6359.972898" CO2_abs="434250.441194" HC_abs="39.345326" PMx_abs="8.283739" NOx_abs="178.411164" fuel_abs="186.664804" electricity_abs="0"/>
    </tripinfo>
    <tripinfo id="h12244c1:3" depart="57612.00" departLane="315358244_1" departPos="5.10" departSpeed="0.00" departDelay="0.40" arrival="57727.00" arrivalLane="386687235_1" arrivalPos="80.84" arrivalSpeed="15.05" duration="115.00" routeLength="1186.14" waitingTime="19.00" waitingCount="1" stopTime="0.00" timeLoss="35.52" rerouteNo="1" devices="tripinfo_h12244c1:3 routing_h12244c1:3 emissions_h12244c1:3" vType="default_016" speedFactor="1.09" vaporized="">
        <emissions CO_abs="5373.886326" CO2_abs="291224.360810" HC_abs="31.263028" PMx_abs="5.132678" NOx_abs="117.442248" fuel_abs="125.185833" electricity_abs="0"/>
    </tripinfo>
    <tripinfo id="h7181c1:1" depart="57660.00" departLane="315358254#0_1" departPos="5.10" departSpeed="0.00" departDelay="0.10" arrival="57730.00" arrivalLane="306240162#0_0" arrivalPos="220.43" arrivalSpeed="15.85" duration="70.00" routeLength="932.35" waitingTime="7.00" waitingCount="1" stopTime="0.00" timeLoss="19.61" rerouteNo="1" devices="tripinfo_h7181c1:1 routing_h7181c1:1 emissions_h7181c1:1" vType="default_016" speedFactor="1.02" vaporized="">
        <emissions CO_abs="4329.514174" CO2_abs="256311.556399" HC_abs="25.880725" PMx_abs="5.228808" NOx_abs="107.230792" fuel_abs="110.176851" electricity_abs="0"/>
    </tripinfo>
    <tripinfo id="carIn22761:1" depart="57616.00" departLane="-306240162#1_0" departPos="5.10" departSpeed="0.00" departDelay="2.10" arrival="57742.00" arrivalLane="399835085#1_1" arrivalPos="212.23" arrivalSpeed="6.93" duration="126.00" routeLength="1093.26" waitingTime="15.00" waitingCount="1" stopTime="0.00" timeLoss="32.58" rerouteNo="1" devices="tripinfo_carIn22761:1 routing_carIn22761:1 emissions_carIn22761:1" vType="default_016" speedFactor="0.83" vaporized="">
        <emissions CO_abs="6181.484264" CO2_abs="282493.555304" HC_abs="34.744795" PMx_abs="5.080526" NOx_abs="115.700561" fuel_abs="121.433368" electricity_abs="0"/>
    </tripinfo>
    <tripinfo id="h4538c1:1" depart="57701.00" departLane="-10427692#1_1" departPos="5.10" departSpeed="0.00" departDelay="0.00" arrival="57747.00" arrivalLane="-128361102#1_1" arrivalPos="274.68" arrivalSpeed="12.87" duration="46.00" routeLength="440.74" waitingTime="4.00" waitingCount="1" stopTime="0.00" timeLoss="12.66" rerouteNo="1" devices="tripinfo_h4538c1:1 routing_h4538c1:1 emissions_h4538c1:1" vType="default_016" speedFactor="0.96" vaporized="">
        <emissions CO_abs="1942.880053" CO2_abs="118530.358010" HC_abs="11.620796" PMx_abs="2.039916" NOx_abs="48.070874" fuel_abs="50.951321" electricity_abs="0"/>
    </tripinfo>
    <tripinfo id="carIn30817:1" depart="57681.00" departLane="315358244_1" departPos="5.10" departSpeed="0.00" departDelay="0.20" arrival="57749.00" arrivalLane="447569997#1_1" arrivalPos="180.93" arrivalSpeed="8.31" duration="68.00" routeLength="718.04" waitingTime="0.00" waitingCount="0" stopTime="0.00" timeLoss="7.51" rerouteNo="1" devices="tripinfo_carIn30817:1 routing_carIn30817:1 emissions_carIn30817:1" vType="default_016" speedFactor="1.02" vaporized="">
        <emissions CO_abs="2345.961405" CO2_abs="158695.427066" HC_abs="14.354854" PMx_abs="2.508865" NOx_abs="62.737023" fuel_abs="68.216769" electricity_abs="0"/>
    </tripinfo>
    <tripinfo id="h3568c1:3" depart="57656.00" departLane="266565295#5_1" departPos="5.10" departSpeed="0.00" departDelay="0.80" arrival="57750.00" arrivalLane="-24634415_1" arrivalPos="62.03" arrivalSpeed="11.50" duration="94.00" routeLength="807.40" waitingTime="4.00" waitingCount="1" stopTime="0.00" timeLoss="20.36" rerouteNo="1" devices="tripinfo_h3568c1:3 routing_h3568c1:3 emissions_h3568c1:3" vType="default_016" speedFactor="0.88" vaporized="">
        <emissions CO_abs="4092.671696" CO2_abs="230278.958218" HC_abs="24.008903" PMx_abs="3.979105" NOx_abs="94.123770" fuel_abs="98.987625" electricity_abs="0"/>
    </tripinfo>
    <tripinfo id="S5R_frequency1.2" depart="57612.00" departLane="315358250#0_1" departPos="12.10" departSpeed="0.00" departDelay="0.40" arrival="57751.00" arrivalLane="386687235_1" arrivalPos="80.84" arrivalSpeed="13.69" duration="139.00" routeLength="1115.62" waitingTime="25.00" waitingCount="3" stopTime="0.00" timeLoss="57.31" rerouteNo="1" devices="tripinfo_S5R_frequency1.2 routing_S5R_frequency1.2 emissions_S5R_frequency1.2" vType="bus" speedFactor="1.00" vaporized="">
        <emissions CO_abs="2662.037712" CO2_abs="1481143.350299" HC_abs="577.035020" PMx_abs="281.445047" NOx_abs="11993.292365" fuel_abs="631.633454" electricity_abs="0"/>
    </tripinfo>
    <tripinfo id="h317c2:1" depart="57707.00" departLane="-32978638#0_1" departPos="5.10" departSpeed="0.00" departDelay="0.10" arrival="57756.00" arrivalLane="-266565295#5_1" arrivalPos="172.76" arrivalSpeed="12.64" duration="49.00" routeLength="370.53" waitingTime="11.00" waitingCount="1" stopTime="0.00" timeLoss="19.73" rerouteNo="1" devices="tripinfo_h317c2:1 routing_h317c2:1 emissions_h317c2:1" vType="default_016" speedFactor="0.95" vaporized="">
        <emissions CO_abs="2720.135759" CO2_abs="130171.929200" HC_abs="15.448456" PMx_abs="2.429388" NOx_abs="54.183683" fuel_abs="55.955748" electricity_abs="0"/>
    </tripinfo>
    <tripinfo id="carIn121703:1" depart="57647.00" departLane="386687232#0_1" departPos="5.10" departSpeed="0.00" departDelay="0.30" arrival="57757.00" arrivalLane="-315358244_1" arrivalPos="33.95" arrivalSpeed="12.83" duration="110.00" routeLength="1157.39" waitingTime="8.00" waitingCount="1" stopTime="0.00" timeLoss="22.43" rerouteNo="1" devices="tripinfo_carIn121703:1 routing_carIn121703:1 emissions_carIn121703:1" vType="default_016" speedFactor="0.96" vaporized="">
        <emissions CO_abs="4075.548369" CO2_abs="273626.655245" HC_abs="24.950748" PMx_abs="4.539300" NOx_abs="109.247639" fuel_abs="117.620807" electricity_abs="0"/>
    </tripinfo>
    <tripinfo id="h3326c1:2" depart="57656.00" departLane="22716069#0_1" departPos="5.10" departSpeed="0.00" departDelay="0.00" arrival="57759.00" arrivalLane="24634517#13_1" arrivalPos="111.62" arrivalSpeed="14.72" duration="103.00" routeLength="1312.81" waitingTime="0.00" waitingCount="0" stopTime="0.00" timeLoss="16.08" rerouteNo="1" devices="tripinfo_h3326c1:2 routing_h3326c1:2 emissions_h3326c1:2" vType="default_016" speedFactor="1.12" vaporized="">
        <emissions CO_abs="4155.107516" CO2_abs="318673.759908" HC_abs="26.326018" PMx_abs="5.538127" NOx_abs="128.154242" fuel_abs="136.983859" electricity_abs="0"/>
    </tripinfo>
    <tripinfo id="h3154c1:1" depart="57658.00" departLane="24634507_1" departPos="5.10" departSpeed="0.00" departDelay="0.00" arrival="57767.00" arrivalLane="-266565295#5_1" arrivalPos="172.76" arrivalSpeed="13.03" duration="109.00" routeLength="1206.22" waitingTime="0.00" waitingCount="0" stopTime="0.00" timeLoss="17.46" rerouteNo="1" devices="tripinfo_h3154c1:1 routing_h3154c1:1 emissions_h3154c1:1" vType="default_016" speedFactor="0.98" vaporized="">
        <emissions CO_abs="4187.153134" CO2_abs="302114.492433" HC_abs="26.125891" PMx_abs="5.036486" NOx_abs="120.953819" fuel_abs="129.866228" electricity_abs="0"/>
    </tripinfo>
    <tripinfo id="carIn48184:1" depart="57613.00" departLane="-306240162#1_0" departPos="5.10" departSpeed="0.00" departDelay="0.70" arrival="57770.00" arrivalLane="386687235_2" arrivalPos="80.84" arrivalSpeed="16.21" duration="157.00" routeLength="2257.41" waitingTime="12.00" waitingCount="1" stopTime="0.00" timeLoss="33.57" rerouteNo="1" devices="tripinfo_carIn48184:1 routing_carIn48184:1 emissions_carIn48184:1" vType="default_016" speedFactor="1.20" vaporized="">
        <emissions CO_abs="7650.454356" CO2_abs="548728.120538" HC_abs="47.578441" PMx_abs="10.337833" NOx_abs="221.954805" fuel_abs="235.873695" electricity_abs="0"/>
    </tripinfo>
    <tripinfo id="carIn27009:1" depart="57673.00" departLane="-447569998#1_1" departPos="5.10" departSpeed="0.00" departDelay="0.50" arrival="57771.00" arrivalLane="-26677539_1" arrivalPos="152.75" arrivalSpeed="7.38" duration="98.00" routeLength="699.63" waitingTime="0.00" waitingCount="0" stopTime="0.00" timeLoss="11.20" rerouteNo="1" devices="tripinfo_carIn27009:1 routing_carIn27009:1 emissions_carIn27009:1" vType="default_015" speedFactor="0.96" vaporized="">
        <emissions CO_abs="3883.383521" CO2_abs="178073.170835" HC_abs="21.757328" PMx_abs="2.832694" NOx_abs="71.959990" fuel_abs="76.547375" electricity_abs="0"/>
    </tripinfo>
    <tripinfo id="h5979c1:5" depart="57669.00" departLane="399835085#1_1" departPos="5.10" departSpeed="0.00" departDelay="0.00" arrival="57778.00" arrivalLane="-315358254#1_1" arrivalPos="137.16" arrivalSpeed="11.18" duration="109.00" routeLength="659.33" waitingTime="14.00" waitingCount="1" stopTime="0.00" timeLoss="27.83" rerouteNo="1" devices="tripinfo_h5979c1:5 routing_h5979c1:5 emissions_h5979c1:5" vType="default_016" speedFactor="0.90" vaporized="">
        <emissions CO_abs="5499.789105" CO2_abs="197513.619765" HC_abs="29.604001" PMx_abs="3.531528" NOx_abs="82.142198" fuel_abs="84.904583" electricity_abs="0"/>
    </tripinfo>
    <tripinfo id="h330c1:1" depart="57736.00" departLane="-32978638#0_1" departPos="5.10" departSpeed="0.00" departDelay="0.20" arrival="57783.00" arrivalLane="-266565295#5_1" arrivalPos="172.76" arrivalSpeed="15.23" duration="47.00" routeLength="370.53" waitingTime="13.00" waitingCount="1" stopTime="0.00" timeLoss="22.43" rerouteNo="1" devices="tripinfo_h330c1:1 routing_h330c1:1 emissions_h330c1:1" vType="default_016" speedFactor="1.15" vaporized="">
        <emissions CO_abs="3346.829773" CO2_abs="149179.334338" HC_abs="18.768430" PMx_abs="2.975554" NOx_abs="63.053816" fuel_abs="64.126207" electricity_abs="0"/>
    </tripinfo>
    <tripinfo id="carIn28951:1" depart="57606.00" departLane="10425609#0_1" departPos="5.10" departSpeed="0.00" departDelay="0.20" arrival="57784.00" arrivalLane="-128361102#1_1" arrivalPos="274.68" arrivalSpeed="14.62" duration="178.00" routeLength="2113.04" waitingTime="7.00" waitingCount="2" stopTime="0.00" timeLoss="35.14" rerouteNo="1" devices="tripinfo_carIn28951:1 routing_carIn28951:1 emissions_carIn28951:1" vType="default_016" speedFactor="1.09" vaporized="">
        <emissions CO_abs="6962.607401" CO2_abs="489909.878717" HC_abs="43.119319" PMx_abs="8.564971" NOx_abs="197.508650" fuel_abs="210.591154" electricity_abs="0"/>
    </tripinfo>
    <tripinfo id="carIn107084:1" depart="57601.00" departLane="124812856#0_1" departPos="5.10" departSpeed="0.00" departDelay="0.70" arrival="57786.00" arrivalLane="-128361102#1_1" arrivalPos="274.68" arrivalSpeed="15.93" duration="185.00" routeLength="2232.46" waitingTime="7.00" waitingCount="3" stopTime="0.00" timeLoss="46.09" rerouteNo="1" devices="tripinfo_carIn107084:1 routing_carIn107084:1 emissions_carIn107084:1" vType="default_016" speedFactor="1.18" vaporized="">
        <emissions CO_abs="7990.379826" CO2_abs="582288.783668" HC_abs="50.096936" PMx_abs="10.557985" NOx_abs="236.901734" fuel_abs="250.300086" electricity_abs="0"/>
    </tripinfo>
    <tripinfo id="carIn129809:1" depart="57729.00" departLane="-447569998#1_1" departPos="5.10" departSpeed="0.00" departDelay="1.00" arrival="57793.00" arrivalLane="-315358244_1" arrivalPos="33.95" arrivalSpeed="14.73" duration="64.00" routeLength="706.49" waitingTime="0.00" waitingCount="0" stopTime="0.00" timeLoss="7.59" rerouteNo="1" devices="tripinfo_carIn129809:1 routing_carIn129809:1 emissions_carIn129809:1" vType="default_015" speedFactor="1.07" vaporized="">
        <emissions CO_abs="2306.146259" CO2_abs="160124.210397" HC_abs="14.225117" PMx_abs="2.678507" NOx_abs="64.058089" fuel_abs="68.830686" electricity_abs="0"/>
    </tripinfo>
    <tripinfo id="carIn12365:1" depart="57713.00" departLane="315358244_1" departPos="5.10" departSpeed="0.00" departDelay="0.50" arrival="57798.00" arrivalLane="447569997#1_1" arrivalPos="180.93" arrivalSpeed="6.56" duration="85.00" routeLength="718.04" waitingTime="1.00" waitingCount="1" stopTime="0.00" timeLoss="13.01" rerouteNo="1" devices="tripinfo_carIn12365:1 routing_carIn12365:1 emissions_carIn12365:1" vType="default_016" speedFactor="0.85" vaporized="">
        <emissions CO_abs="3247.025407" CO2_abs="168525.157201" HC_abs="18.646417" PMx_abs="2.587143" NOx_abs="66.822580" fuel_abs="72.442867" electricity_abs="0"/>
    </tripinfo>
    <tripinfo id="carIn107282:1" depart="57749.00" departLane="-447569998#1_1" departPos="5.10" departSpeed="0.00" departDelay="0.00" arrival="57799.00" arrivalLane="315358242#0_1" arrivalPos="165.37" arrivalSpeed="12.97" duration="50.00" routeLength="448.50" waitingTime="0.00" waitingCount="0" stopTime="0.00" timeLoss="5.37" rerouteNo="1" devices="tripinfo_carIn107282:1 routing_carIn107282:1 emissions_carIn107282:1" vType="default_016" speedFactor="0.94" vaporized="">
        <emissions CO_abs="1939.019463" CO2_abs="108948.163488" HC_abs="11.334697" PMx_abs="1.688870" NOx_abs="43.225195" fuel_abs="46.832720" electricity_abs="0"/>
    </tripinfo>
    <tripinfo id="carIn82220:1" depart="57619.00" departLane="-306240162#1_0" departPos="5.10" departSpeed="0.00" departDelay="3.50" arrival="57802.00" arrivalLane="386687235_1" arrivalPos="80.84" arrivalSpeed="12.16" duration="183.00" routeLength="2257.41" waitingTime="0.00" waitingCount="0" stopTime="0.00" timeLoss="21.86" rerouteNo="1" devices="tripinfo_carIn82220:1 routing_carIn82220:1 emissions_carIn82220:1" vType="default_016" speedFactor="0.92" vaporized="">
        <emissions CO_abs="5238.334727" CO2_abs="442692.042330" HC_abs="34.162581" PMx_abs="7.137145" NOx_abs="174.266531" fuel_abs="190.294306" electricity_abs="0"/>
    </tripinfo>
    <tripinfo id="carIn462:1" depart="57622.00" departLane="-306240162#1_0" departPos="5.10" departSpeed="0.00" departDelay="4.80" arrival="57803.00" arrivalLane="386687235_1" arrivalPos="80.84" arrivalSpeed="12.02" duration="181.00" routeLength="2257.41" waitingTime="0.00" waitingCount="0" stopTime="0.00" timeLoss="21.62" rerouteNo="1" devices="tripinfo_carIn462:1 routing_carIn462:1 emissions_carIn462:1" vType="default_016" speedFactor="0.93" vaporized="">
        <emissions CO_abs="5412.108545" CO2_abs="448489.024336" HC_abs="35.143335" PMx_abs="7.469269" NOx_abs="177.709707" fuel_abs="192.785946" electricity_abs="0"/>
    </tripinfo>
    <tripinfo id="carIn116184:1" depart="57627.00" departLane="-306240162#1_0" departPos="5.10" departSpeed="0.00" departDelay="0.10" arrival="57804.00" arrivalLane="386687235_2" arrivalPos="80.84" arrivalSpeed="13.12" duration="177.00" routeLength="2257.41" waitingTime="0.00" waitingCount="0" stopTime="0.00" timeLoss="33.21" rerouteNo="1" devices="tripinfo_carIn116184:1 routing_carIn116184:1 emissions_carIn116184:1" vType="default_016" speedFactor="1.03" vaporized="">
        <emissions CO_abs="6576.239081" CO2_abs="516972.630668" HC_abs="42.117636" PMx_abs="9.111583" NOx_abs="208.111173" fuel_abs="222.223590" electricity_abs="0"/>
    </tripinfo>
    <tripinfo id="carIn86816:1" depart="57617.00" departLane="128361102#0_1" departPos="5.10" departSpeed="0.00" departDelay="0.80" arrival="57806.00" arrivalLane="201956811#0_1" arrivalPos="40.40" arrivalSpeed="12.19" duration="189.00" routeLength="2067.33" waitingTime="2.00" waitingCount="1" stopTime="0.00" timeLoss="24.25" rerouteNo="1" devices="tripinfo_carIn86816:1 routing_carIn86816:1 emissions_carIn86816:1" vType="default_016" speedFactor="0.92" vaporized="">
        <emissions CO_abs="5401.773332" CO2_abs="405479.825802" HC_abs="34.030194" PMx_abs="6.447426" NOx_abs="160.354307" fuel_abs="174.298897" electricity_abs="0"/>
    </tripinfo>
    <tripinfo id="carIn77943:1" depart="57608.00" departLane="124812856#0_1" departPos="5.10" departSpeed="0.00" departDelay="2.50" arrival="57807.00" arrivalLane="-128361102#1_1" arrivalPos="274.68" arrivalSpeed="13.29" duration="199.00" routeLength="2250.49" waitingTime="5.00" waitingCount="1" stopTime="0.00" timeLoss="34.76" rerouteNo="1" devices="tripinfo_carIn77943:1 routing_carIn77943:1 emissions_carIn77943:1" vType="default_016" speedFactor="1.00" vaporized="">
        <emissions CO_abs="6737.159239" CO2_abs="494236.168904" HC_abs="42.223674" PMx_abs="8.273707" NOx_abs="197.569317" fuel_abs="212.451103" electricity_abs="0"/>
    </tripinfo>
    <tripinfo id="carIn101568:1" depart="57638.00" departLane="-306240162#1_0" departPos="5.10" departSpeed="0.00" departDelay="0.50" arrival="57807.00" arrivalLane="386687235_1" arrivalPos="80.84" arrivalSpeed="14.77" duration="169.00" routeLength="2257.41" waitingTime="0.00" waitingCount="0" stopTime="0.00" timeLoss="29.65" rerouteNo="1" devices="tripinfo_carIn101568:1 routing_carIn101568:1 emissions_carIn101568:1" vType="default_016" speedFactor="1.07" vaporized="">
        <emissions CO_abs="5855.903642" CO2_abs="482505.137417" HC_abs="37.958586" PMx_abs="8.433036" NOx_abs="193.013894" fuel_abs="207.407477" electricity_abs="0"/>
    </tripinfo>
    <tripinfo id="carIn12858:1" depart="57661.00" departLane="128361109#1_1" departPos="5.10" departSpeed="0.00" departDelay="0.90" arrival="57810.00" arrivalLane="399835085#1_1" arrivalPos="212.23" arrivalSpeed="8.91" duration="149.00" routeLength="1738.12" waitingTime="16.00" waitingCount="2" stopTime="0.00" timeLoss="47.08" rerouteNo="1" devices="tripinfo_carIn12858:1 routing_carIn12858:1 emissions_carIn12858:1" vType="default_016" speedFactor="1.13" vaporized="">
        <emissions CO_abs="9617.465551" CO2_abs="544997.896238" HC_abs="56.876899" PMx_abs="10.914048" NOx_abs="227.344364" fuel_abs="234.270772" electricity_abs="0"/>
    </tripinfo>
    <tripinfo id="carIn81046:1" depart="57611.00" departLane="124812856#0_1" departPos="5.10" departSpeed="0.00" departDelay="2.50" arrival="57811.00" arrivalLane="-128361102#1_1" arrivalPos="274.68" arrivalSpeed="12.16" duration="200.00" routeLength="2250.49" waitingTime="0.00" waitingCount="0" stopTime="0.00" timeLoss="24.14" rerouteNo="1" devices="tripinfo_carIn81046:1 routing_carIn81046:1 emissions_carIn81046:1" vType="default_016" speedFactor="0.94" vaporized="">
        <emissions CO_abs="5675.634532" CO2_abs="440773.323593" HC_abs="36.105299" PMx_abs="7.000724" NOx_abs="174.062968" fuel_abs="189.469967" electricity_abs="0"/>
    </tripinfo>
    <tripinfo id="carIn77438:1" depart="57614.00" departLane="124812856#0_1" departPos="5.10" departSpeed="0.00" departDelay="1.10" arrival="57813.00" arrivalLane="-128361102#1_1" arrivalPos="274.68" arrivalSpeed="12.69" duration="199.00" routeLength="2250.49" waitingTime="0.00" waitingCount="0" stopTime="0.00" timeLoss="30.77" rerouteNo="1" devices="tripinfo_carIn77438:1 routing_carIn77438:1 emissions_carIn77438:1" vType="default_016" speedFactor="0.98" vaporized="">
        <emissions CO_abs="7024.790124" CO2_abs="510182.742978" HC_abs="43.991692" PMx_abs="8.871928" NOx_abs="206.943505" fuel_abs="219.305328" electricity_abs="0"/>
    </tripinfo>
    <tripinfo id="h645c1:1" depart="57622.00" departLane="266565295#5_1" departPos="5.10" departSpeed="0.00" departDelay="0.40" arrival="57813.00" arrivalLane="-315358244_1" arrivalPos="33.95" arrivalSpeed="14.29" duration="191.00" routeLength="1910.83" waitingTime="28.00" waitingCount="3" stopTime="0.00" timeLoss="57.40" rerouteNo="1" devices="tripinfo_h645c1:1 routing_h645c1:1 emissions_h645c1:1" vType="default_016" speedFactor="1.04" vaporized="">
        <emissions CO_abs="8634.720329" CO2_abs="477450.737137" HC_abs="50.417786" PMx_abs="8.429282" NOx_abs="193.497281" fuel_abs="205.236917" electricity_abs="0"/>
    </tripinfo>
    <tripinfo id="carIn31257:1" depart="57630.00" departLane="-306240162#1_0" departPos="5.10" departSpeed="0.00" departDelay="1.60" arrival="57813.00" arrivalLane="386687235_1" arrivalPos="80.84" arrivalSpeed="11.33" duration="183.00" routeLength="2257.41" waitingTime="0.00" waitingCount="0" stopTime="0.00" timeLoss="17.88" rerouteNo="1" devices="tripinfo_carIn31257:1 routing_carIn31257:1 emissions_carIn31257:1" vType="default_016" speedFactor="0.90" vaporized="">
        <emissions CO_abs="5048.195205" CO2_abs="431097.134636" HC_abs="32.987446" PMx_abs="6.855866" NOx_abs="168.716402" fuel_abs="185.310285" electricity_abs="0"/>
    </tripinfo>
    <tripinfo id="carIn50326:1" depart="57651.00" departLane="128361102#0_1" departPos="5.10" departSpeed="0.00" departDelay="0.30" arrival="57813.00" arrivalLane="18809673#0_1" arrivalPos="473.56" arrivalSpeed="12.79" duration="162.00" routeLength="1591.07" waitingTime="11.00" waitingCount="1" stopTime="0.00" timeLoss="29.18" rerouteNo="1" devices="tripinfo_carIn50326:1 routing_carIn50326:1 emissions_carIn50326:1" vType="default_016" speedFactor="0.98" vaporized="">
        <emissions CO_abs="5647.337927" CO2_abs="364519.174784" HC_abs="34.193537" PMx_abs="6.004011" NOx_abs="145.754599" fuel_abs="156.691948" electricity_abs="0"/>
    </tripinfo>
    <tripinfo id="h11737c1:1" depart="57665.00" departLane="272042143_1" departPos="5.10" departSpeed="0.00" departDelay="1.50" arrival="57817.00" arrivalLane="-315358254#1_1" arrivalPos="137.16" arrivalSpeed="13.07" duration="152.00" routeLength="1596.88" waitingTime="15.00" waitingCount="2" stopTime="0.00" timeLoss="35.55" rerouteNo="1" devices="tripinfo_h11737c1:1 routing_h11737c1:1 emissions_h11737c1:1" vType="default_016" speedFactor="1.00" vaporized="">
        <emissions CO_abs="5398.260100" CO2_abs="355394.659573" HC_abs="32.793322" PMx_abs="5.712119" NOx_abs="140.085070" fuel_abs="152.769921" electricity_abs="0"/>
    </tripinfo>
    <tripinfo id="randUni10474:1" depart="57605.00" departLane="124812856#0_1" departPos="5.10" departSpeed="0.00" departDelay="0.20" arrival="57819.00" arrivalLane="306240162#0_0" arrivalPos="220.43" arrivalSpeed="17.41" duration="214.00" routeLength="3049.32" waitingTime="2.00" waitingCount="1" stopTime="0.00" timeLoss="36.20" rerouteNo="1" devices="tripinfo_randUni10474:1 routing_randUni10474:1 emissions_randUni10474:1" vType="random_016" speedFactor="1.12" vaporized="">
        <emissions CO_abs="10814.101724" CO2_abs="809944.763148" HC_abs="68.436516" PMx_abs="15.319855" NOx_abs="329.293546" fuel_abs="348.158491" electricity_abs="0"/>
    </tripinfo>
    <tripinfo id="carIn126288:1" depart="57674.00" departLane="272042143_1" departPos="5.10" departSpeed="0.00" departDelay="0.00" arrival="57819.00" arrivalLane="-315358254#1_1" arrivalPos="137.16" arrivalSpeed="13.66" duration="145.00" routeLength="1596.88" waitingTime="10.00" waitingCount="2" stopTime="0.00" timeLoss="36.40" rerouteNo="1" devices="tripinfo_carIn126288:1 routing_carIn126288:1 emissions_carIn126288:1" vType="default_016" speedFactor="1.07" vaporized="">
        <emissions CO_abs="5384.334629" CO2_abs="373606.093640" HC_abs="33.290673" PMx_abs="6.538167" NOx_abs="151.161456" fuel_abs="160.597183" electricity_abs="0"/>
    </tripinfo>
    <tripinfo id="h3864c1:3" depart="57678.00" departLane="24693977#1_1" departPos="5.10" departSpeed="0.00" departDelay="0.00" arrival="57820.00" arrivalLane="201956820_1" arrivalPos="48.33" arrivalSpeed="14.53" duration="142.00" routeLength="1574.85" waitingTime="1.00" waitingCount="1" stopTime="0.00" timeLoss="24.12" rerouteNo="1" devices="tripinfo_h3864c1:3 routing_h3864c1:3 emissions_h3864c1:3" vType="default_016" speedFactor="1.09" vaporized="">
        <emissions CO_abs="5861.152239" CO2_abs="395181.001213" HC_abs="35.957786" PMx_abs="7.128361" NOx_abs="161.935948" fuel_abs="169.871048" electricity_abs="0"/>
    </tripinfo>
    <tripinfo id="carIn102915:1" depart="57643.00" departLane="128361102#0_1" departPos="5.10" departSpeed="0.00" departDelay="0.40" arrival="57821.00" arrivalLane="201956811#0_1" arrivalPos="40.40" arrivalSpeed="14.23" duration="178.00" routeLength="2067.33" waitingTime="10.00" waitingCount="2" stopTime="0.00" timeLoss="42.58" rerouteNo="1" devices="tripinfo_carIn102915:1 routing_carIn102915:1 emissions_carIn102915:1" vType="default_016" speedFactor="1.11" vaporized="">
        <emissions CO_abs="7101.253419" CO2_abs="476585.470137" HC_abs="43.368448" PMx_abs="8.372131" NOx_abs="192.238914" fuel_abs="204.863787" electricity_abs="0"/>
    </tripinfo>
    <tripinfo id="carIn12152:1" depart="57647.00" departLane="24599188#0.94_1" departPos="5.10" departSpeed="0.00" departDelay="0.50" arrival="57821.00" arrivalLane="-315358254#1_1" arrivalPos="137.16" arrivalSpeed="13.97" duration="174.00" routeLength="2034.31" waitingTime="3.00" waitingCount="1" stopTime="0.00" timeLoss="27.54" rerouteNo="1" devices="tripinfo_carIn12152:1 routing_carIn12152:1 emissions_carIn12152:1" vType="default_016" speedFactor="1.08" vaporized="">
        <emissions CO_abs="5998.503929" CO2_abs="449789.047230" HC_abs="37.742504" PMx_abs="7.531125" NOx_abs="179.130236" fuel_abs="193.345113" electricity_abs="0"/>
    </tripinfo>