<?xml version="1.0" encoding="UTF-8"?>

<!-- generated on 2021-10-26 10:58:49 by Eclipse SUMO sumo Version 1.10.0
<configuration xmlns:xsi="http://www.w3.org/2001/XMLSchema-instance" xsi:noNamespaceSchemaLocation="http://sumo.dlr.de/xsd/sumoConfiguration.xsd">

    <input>
        <net-file value="/Users/behradkoohy/sumo-scratchpad/RESCO/environments/ingolstadt21/ingolstadt21.net.xml"/>
        <route-files value="/Users/behradkoohy/sumo-scratchpad/RESCO/environments/ingolstadt21/ingolstadt21.rou.xml"/>
    </input>

    <output>
        <tripinfo-output value="/Users/behradkoohy/sumo-scratchpad/RESCO/logs/IDQN-tr0-ingolstadt21-21-drq_norm-wait_norm/tripinfo_3.xml"/>
        <tripinfo-output.write-unfinished value="true"/>
    </output>

    <time>
        <begin value="57600"/>
        <end value="61200"/>
    </time>

    <processing>
        <time-to-teleport value="-1"/>
    </processing>

    <report>
        <no-warnings value="true"/>
        <no-step-log value="true"/>
    </report>

    <emissions>
        <device.emissions.probability value="1"/>
    </emissions>

    <traci_server>
        <remote-port value="56615"/>
    </traci_server>

    <random_number>
        <random value="true"/>
    </random_number>

</configuration>
-->

<tripinfos xmlns:xsi="http://www.w3.org/2001/XMLSchema-instance" xsi:noNamespaceSchemaLocation="http://sumo.dlr.de/xsd/tripinfo_file.xsd">
    <tripinfo id="h15454c2:3" depart="57612.00" departLane="24608844_1" departPos="5.10" departSpeed="0.00" departDelay="0.50" arrival="57667.00" arrivalLane="32978638#0_1" arrivalPos="49.29" arrivalSpeed="13.96" duration="55.00" routeLength="354.79" waitingTime="10.00" waitingCount="1" stopTime="0.00" timeLoss="21.36" rerouteNo="1" devices="tripinfo_h15454c2:3 routing_h15454c2:3 emissions_h15454c2:3" vType="default_016" speedFactor="1.02" vaporized="">
        <emissions CO_abs="3219.937955" CO2_abs="137706.668780" HC_abs="17.900087" PMx_abs="2.644547" NOx_abs="58.157864" fuel_abs="59.194775" electricity_abs="0"/>
    </tripinfo>
    <tripinfo id="carIn53971:1" depart="57640.00" departLane="272042143_1" departPos="5.10" departSpeed="0.00" departDelay="0.80" arrival="57699.00" arrivalLane="24634414#1_1" arrivalPos="162.19" arrivalSpeed="6.47" duration="59.00" routeLength="493.04" waitingTime="0.00" waitingCount="0" stopTime="0.00" timeLoss="9.61" rerouteNo="1" devices="tripinfo_carIn53971:1 routing_carIn53971:1 emissions_carIn53971:1" vType="default_016" speedFactor="0.93" vaporized="">
        <emissions CO_abs="2792.270256" CO2_abs="141514.652012" HC_abs="16.011365" PMx_abs="2.481042" NOx_abs="58.305463" fuel_abs="60.831593" electricity_abs="0"/>
    </tripinfo>
    <tripinfo id="h3688c1:1" depart="57625.00" departLane="201201950#1_1" departPos="5.10" departSpeed="0.00" departDelay="0.00" arrival="57710.00" arrivalLane="32978638#0_1" arrivalPos="49.29" arrivalSpeed="14.86" duration="85.00" routeLength="1089.75" waitingTime="0.00" waitingCount="0" stopTime="0.00" timeLoss="11.00" rerouteNo="1" devices="tripinfo_h3688c1:1 routing_h3688c1:1 emissions_h3688c1:1" vType="default_016" speedFactor="1.09" vaporized="">
        <emissions CO_abs="3411.080540" CO2_abs="271502.439004" HC_abs="21.862208" PMx_abs="4.720489" NOx_abs="109.086174" fuel_abs="116.706880" electricity_abs="0"/>
    </tripinfo>
    <tripinfo id="carIn60260:1" depart="57606.00" departLane="315358254#0_1" departPos="5.10" departSpeed="0.00" departDelay="0.90" arrival="57732.00" arrivalLane="399835085#1_1" arrivalPos="212.23" arrivalSpeed="7.89" duration="126.00" routeLength="430.98" waitingTime="71.00" waitingCount="1" stopTime="0.00" timeLoss="80.51" rerouteNo="1" devices="tripinfo_carIn60260:1 routing_carIn60260:1 emissions_carIn60260:1" vType="default_016" speedFactor="1.01" vaporized="">
        <emissions CO_abs="13325.466970" CO2_abs="295566.114886" HC_abs="67.577054" PMx_abs="6.417094" NOx_abs="129.433424" fuel_abs="127.056826" electricity_abs="0"/>
    </tripinfo>
    <tripinfo id="carIn121703:1" depart="57647.00" departLane="386687232#0_1" departPos="5.10" departSpeed="0.00" departDelay="0.30" arrival="57742.00" arrivalLane="-315358244_1" arrivalPos="33.95" arrivalSpeed="16.11" duration="95.00" routeLength="1157.39" waitingTime="8.00" waitingCount="1" stopTime="0.00" timeLoss="23.11" rerouteNo="1" devices="tripinfo_carIn121703:1 routing_carIn121703:1 emissions_carIn121703:1" vType="default_016" speedFactor="1.17" vaporized="">
        <emissions CO_abs="4281.909513" CO2_abs="280242.672904" HC_abs="25.906509" PMx_abs="5.089330" NOx_abs="113.706249" fuel_abs="120.464242" electricity_abs="0"/>
    </tripinfo>
    <tripinfo id="h3568c1:3" depart="57656.00" departLane="266565295#5_1" departPos="5.10" departSpeed="0.00" departDelay="0.80" arrival="57742.00" arrivalLane="-24634415_1" arrivalPos="62.03" arrivalSpeed="15.59" duration="86.00" routeLength="807.40" waitingTime="12.00" waitingCount="1" stopTime="0.00" timeLoss="33.60" rerouteNo="1" devices="tripinfo_h3568c1:3 routing_h3568c1:3 emissions_h3568c1:3" vType="default_016" speedFactor="1.23" vaporized="">
        <emissions CO_abs="5660.574403" CO2_abs="286494.110367" HC_abs="32.433533" PMx_abs="5.679098" NOx_abs="120.968407" fuel_abs="123.151679" electricity_abs="0"/>
    </tripinfo>
    <tripinfo id="h7800c1:5" depart="57696.00" departLane="-447569998#1_1" departPos="5.10" departSpeed="0.00" departDelay="0.00" arrival="57745.00" arrivalLane="-447569998#1_2" arrivalPos="180.76" arrivalSpeed="3.91" duration="49.00" routeLength="175.66" waitingTime="19.00" waitingCount="1" stopTime="0.00" timeLoss="25.52" rerouteNo="1" devices="tripinfo_h7800c1:5 routing_h7800c1:5 emissions_h7800c1:5" vType="default_016" speedFactor="0.91" vaporized="">
        <emissions CO_abs="3630.568101" CO2_abs="90624.097120" HC_abs="18.621093" PMx_abs="1.776658" NOx_abs="38.669103" fuel_abs="38.957018" electricity_abs="0"/>
    </tripinfo>
    <tripinfo id="h4538c1:1" depart="57701.00" departLane="-10427692#1_1" departPos="5.10" departSpeed="0.00" departDelay="0.00" arrival="57758.00" arrivalLane="-128361102#1_1" arrivalPos="274.68" arrivalSpeed="12.51" duration="57.00" routeLength="440.74" waitingTime="14.00" waitingCount="1" stopTime="0.00" timeLoss="23.22" rerouteNo="1" devices="tripinfo_h4538c1:1 routing_h4538c1:1 emissions_h4538c1:1" vType="default_016" speedFactor="0.94" vaporized="">
        <emissions CO_abs="3136.228043" CO2_abs="131048.395265" HC_abs="17.355086" PMx_abs="2.462969" NOx_abs="54.647805" fuel_abs="56.332821" electricity_abs="0"/>
    </tripinfo>
    <tripinfo id="S5R_frequency1.2" depart="57612.00" departLane="315358250#0_1" departPos="12.10" departSpeed="0.00" departDelay="0.40" arrival="57759.00" arrivalLane="386687235_1" arrivalPos="80.84" arrivalSpeed="13.76" duration="147.00" routeLength="1115.62" waitingTime="43.00" waitingCount="2" stopTime="0.00" timeLoss="65.39" rerouteNo="1" devices="tripinfo_S5R_frequency1.2 routing_S5R_frequency1.2 emissions_S5R_frequency1.2" vType="bus" speedFactor="1.00" vaporized="">
        <emissions CO_abs="2799.922778" CO2_abs="1483565.635266" HC_abs="614.860171" PMx_abs="294.567735" NOx_abs="12235.103984" fuel_abs="632.642340" electricity_abs="0"/>
    </tripinfo>
    <tripinfo id="h3326c1:2" depart="57656.00" departLane="22716069#0_1" departPos="5.10" departSpeed="0.00" departDelay="0.00" arrival="57763.00" arrivalLane="24634517#13_1" arrivalPos="111.62" arrivalSpeed="14.59" duration="107.00" routeLength="1312.81" waitingTime="0.00" waitingCount="0" stopTime="0.00" timeLoss="14.49" rerouteNo="1" devices="tripinfo_h3326c1:2 routing_h3326c1:2 emissions_h3326c1:2" vType="default_016" speedFactor="1.06" vaporized="">
        <emissions CO_abs="4119.886119" CO2_abs="327376.607802" HC_abs="26.407565" PMx_abs="5.661550" NOx_abs="131.736732" fuel_abs="140.724728" electricity_abs="0"/>
    </tripinfo>
    <tripinfo id="h3154c1:1" depart="57658.00" departLane="24634507_1" departPos="5.10" departSpeed="0.00" departDelay="0.00" arrival="57766.00" arrivalLane="-266565295#5_1" arrivalPos="172.76" arrivalSpeed="14.03" duration="108.00" routeLength="1206.22" waitingTime="8.00" waitingCount="1" stopTime="0.00" timeLoss="26.48" rerouteNo="1" devices="tripinfo_h3154c1:1 routing_h3154c1:1 emissions_h3154c1:1" vType="default_016" speedFactor="1.10" vaporized="">
        <emissions CO_abs="5138.702652" CO2_abs="328189.790526" HC_abs="31.137873" PMx_abs="6.078406" NOx_abs="135.077858" fuel_abs="141.074490" electricity_abs="0"/>
    </tripinfo>
    <tripinfo id="h5979c1:5" depart="57669.00" departLane="399835085#1_1" departPos="5.10" departSpeed="0.00" departDelay="0.00" arrival="57771.00" arrivalLane="-315358254#1_1" arrivalPos="137.16" arrivalSpeed="11.02" duration="102.00" routeLength="659.33" waitingTime="0.00" waitingCount="0" stopTime="0.00" timeLoss="13.90" rerouteNo="1" devices="tripinfo_h5979c1:5 routing_h5979c1:5 emissions_h5979c1:5" vType="default_016" speedFactor="0.83" vaporized="">
        <emissions CO_abs="4113.519109" CO2_abs="172581.683708" HC_abs="22.677865" PMx_abs="2.791767" NOx_abs="70.040353" fuel_abs="74.187007" electricity_abs="0"/>
    </tripinfo>
    <tripinfo id="h7181c1:1" depart="57660.00" departLane="315358254#0_1" departPos="5.10" departSpeed="0.00" departDelay="0.10" arrival="57773.00" arrivalLane="306240162#0_0" arrivalPos="220.43" arrivalSpeed="13.89" duration="113.00" routeLength="932.35" waitingTime="28.00" waitingCount="3" stopTime="0.00" timeLoss="52.38" rerouteNo="1" devices="tripinfo_h7181c1:1 routing_h7181c1:1 emissions_h7181c1:1" vType="default_016" speedFactor="0.85" vaporized="">
        <emissions CO_abs="7234.067058" CO2_abs="325151.808991" HC_abs="40.546388" PMx_abs="6.309538" NOx_abs="135.773910" fuel_abs="139.769970" electricity_abs="0"/>
    </tripinfo>
    <tripinfo id="h317c2:1" depart="57707.00" departLane="-32978638#0_1" departPos="5.10" departSpeed="0.00" departDelay="0.10" arrival="57773.00" arrivalLane="-266565295#5_1" arrivalPos="172.76" arrivalSpeed="14.48" duration="66.00" routeLength="370.53" waitingTime="31.00" waitingCount="1" stopTime="0.00" timeLoss="40.47" rerouteNo="1" devices="tripinfo_h317c2:1 routing_h317c2:1 emissions_h317c2:1" vType="default_016" speedFactor="1.07" vaporized="">
        <emissions CO_abs="6525.187964" CO2_abs="191816.745497" HC_abs="34.253134" PMx_abs="4.124882" NOx_abs="83.363817" fuel_abs="82.455730" electricity_abs="0"/>
    </tripinfo>
    <tripinfo id="h330c1:1" depart="57736.00" departLane="-32978638#0_1" departPos="5.10" departSpeed="0.00" departDelay="0.20" arrival="57776.00" arrivalLane="-266565295#5_1" arrivalPos="172.76" arrivalSpeed="13.83" duration="40.00" routeLength="370.53" waitingTime="4.00" waitingCount="1" stopTime="0.00" timeLoss="13.66" rerouteNo="1" devices="tripinfo_h330c1:1 routing_h330c1:1 emissions_h330c1:1" vType="default_016" speedFactor="1.04" vaporized="">
        <emissions CO_abs="2154.103488" CO2_abs="124966.258196" HC_abs="12.736176" PMx_abs="2.304188" NOx_abs="51.696845" fuel_abs="53.717698" electricity_abs="0"/>
    </tripinfo>
    <tripinfo id="h12244c1:3" depart="57612.00" departLane="315358244_1" departPos="5.10" departSpeed="0.00" departDelay="0.40" arrival="57778.00" arrivalLane="386687235_1" arrivalPos="80.84" arrivalSpeed="11.83" duration="166.00" routeLength="1186.14" waitingTime="42.00" waitingCount="2" stopTime="0.00" timeLoss="68.80" rerouteNo="1" devices="tripinfo_h12244c1:3 routing_h12244c1:3 emissions_h12244c1:3" vType="default_016" speedFactor="0.89" vaporized="">
        <emissions CO_abs="10241.584900" CO2_abs="377558.324822" HC_abs="55.436389" PMx_abs="6.995962" NOx_abs="156.773696" fuel_abs="162.299440" electricity_abs="0"/>
    </tripinfo>
    <tripinfo id="h9563c2:5" depart="57631.00" departLane="315358244_1" departPos="5.10" departSpeed="0.00" departDelay="0.70" arrival="57780.00" arrivalLane="386687235_1" arrivalPos="80.84" arrivalSpeed="13.50" duration="149.00" routeLength="1186.14" waitingTime="29.00" waitingCount="4" stopTime="0.00" timeLoss="62.90" rerouteNo="1" devices="tripinfo_h9563c2:5 routing_h9563c2:5 emissions_h9563c2:5" vType="default_016" speedFactor="1.01" vaporized="">
        <emissions CO_abs="7389.086550" CO2_abs="357550.451855" HC_abs="42.016775" PMx_abs="6.490873" NOx_abs="146.915780" fuel_abs="153.697034" electricity_abs="0"/>
    </tripinfo>
    <tripinfo id="carIn30817:1" depart="57681.00" departLane="315358244_1" departPos="5.10" departSpeed="0.00" departDelay="0.20" arrival="57782.00" arrivalLane="447569997#1_1" arrivalPos="180.93" arrivalSpeed="8.03" duration="101.00" routeLength="718.04" waitingTime="20.00" waitingCount="2" stopTime="0.00" timeLoss="36.87" rerouteNo="1" devices="tripinfo_carIn30817:1 routing_carIn30817:1 emissions_carIn30817:1" vType="default_016" speedFactor="0.97" vaporized="">
        <emissions CO_abs="5825.967636" CO2_abs="249272.880148" HC_abs="32.351014" PMx_abs="4.556503" NOx_abs="103.431263" fuel_abs="107.153165" electricity_abs="0"/>
    </tripinfo>
    <tripinfo id="carIn107282:1" depart="57749.00" departLane="-447569998#1_1" departPos="5.10" departSpeed="0.00" departDelay="0.00" arrival="57789.00" arrivalLane="315358242#0_1" arrivalPos="165.37" arrivalSpeed="16.13" duration="40.00" routeLength="448.50" waitingTime="0.00" waitingCount="0" stopTime="0.00" timeLoss="4.32" rerouteNo="1" devices="tripinfo_carIn107282:1 routing_carIn107282:1 emissions_carIn107282:1" vType="default_016" speedFactor="1.17" vaporized="">
        <emissions CO_abs="1543.854225" CO2_abs="104691.838014" HC_abs="9.481533" PMx_abs="1.794645" NOx_abs="42.168592" fuel_abs="45.002598" electricity_abs="0"/>
    </tripinfo>
    <tripinfo id="carIn28951:1" depart="57606.00" departLane="10425609#0_1" departPos="5.10" departSpeed="0.00" departDelay="0.20" arrival="57798.00" arrivalLane="-128361102#1_1" arrivalPos="274.68" arrivalSpeed="12.34" duration="192.00" routeLength="2113.04" waitingTime="5.00" waitingCount="1" stopTime="0.00" timeLoss="29.25" rerouteNo="1" devices="tripinfo_carIn28951:1 routing_carIn28951:1 emissions_carIn28951:1" vType="default_016" speedFactor="0.95" vaporized="">
        <emissions CO_abs="5946.172734" CO2_abs="455529.307540" HC_abs="37.685694" PMx_abs="7.311928" NOx_abs="180.312916" fuel_abs="195.812903" electricity_abs="0"/>
    </tripinfo>
    <tripinfo id="carIn107084:1" depart="57601.00" departLane="124812856#0_1" departPos="5.10" departSpeed="0.00" departDelay="0.70" arrival="57800.00" arrivalLane="-128361102#1_1" arrivalPos="274.68" arrivalSpeed="13.63" duration="199.00" routeLength="2250.49" waitingTime="0.00" waitingCount="0" stopTime="0.00" timeLoss="43.10" rerouteNo="1" devices="tripinfo_carIn107084:1 routing_carIn107084:1 emissions_carIn107084:1" vType="default_016" speedFactor="1.06" vaporized="">
        <emissions CO_abs="8176.964139" CO2_abs="576398.587651" HC_abs="50.798420" PMx_abs="10.204944" NOx_abs="234.786034" fuel_abs="247.768577" electricity_abs="0"/>
    </tripinfo>
    <tripinfo id="carIn118591:1" depart="57689.00" departLane="315358244_1" departPos="5.10" departSpeed="0.00" departDelay="0.20" arrival="57816.00" arrivalLane="386687235_1" arrivalPos="80.84" arrivalSpeed="14.55" duration="127.00" routeLength="1186.14" waitingTime="26.00" waitingCount="2" stopTime="0.00" timeLoss="49.89" rerouteNo="1" devices="tripinfo_carIn118591:1 routing_carIn118591:1 emissions_carIn118591:1" vType="default_016" speedFactor="1.13" vaporized="">
        <emissions CO_abs="7163.699478" CO2_abs="354464.219378" HC_abs="40.855277" PMx_abs="6.570741" NOx_abs="145.648084" fuel_abs="152.370108" electricity_abs="0"/>
    </tripinfo>
    <tripinfo id="carIn129809:1" depart="57729.00" departLane="-447569998#1_1" departPos="5.10" departSpeed="0.00" departDelay="1.00" arrival="57817.00" arrivalLane="-315358244_1" arrivalPos="33.95" arrivalSpeed="10.44" duration="88.00" routeLength="706.49" waitingTime="3.00" waitingCount="1" stopTime="0.00" timeLoss="14.12" rerouteNo="1" devices="tripinfo_carIn129809:1 routing_carIn129809:1 emissions_carIn129809:1" vType="default_015" speedFactor="0.82" vaporized="">
        <emissions CO_abs="2915.641064" CO2_abs="151577.973432" HC_abs="16.748720" PMx_abs="2.326693" NOx_abs="60.137723" fuel_abs="65.157879" electricity_abs="0"/>
    </tripinfo>
    <tripinfo id="carIn27009:1" depart="57673.00" departLane="-447569998#1_1" departPos="5.10" departSpeed="0.00" departDelay="0.50" arrival="57820.00" arrivalLane="-26677539_1" arrivalPos="152.75" arrivalSpeed="7.34" duration="147.00" routeLength="699.63" waitingTime="40.00" waitingCount="1" stopTime="0.00" timeLoss="56.69" rerouteNo="1" devices="tripinfo_carIn27009:1 routing_carIn27009:1 emissions_carIn27009:1" vType="default_015" speedFactor="0.93" vaporized="">
        <emissions CO_abs="10815.086583" CO2_abs="298219.790977" HC_abs="56.131624" PMx_abs="5.723459" NOx_abs="126.527558" fuel_abs="128.196394" electricity_abs="0"/>
    </tripinfo>
    <tripinfo id="carIn12365:1" depart="57713.00" departLane="315358244_1" departPos="5.10" departSpeed="0.00" departDelay="0.50" arrival="57831.00" arrivalLane="447569997#1_1" arrivalPos="180.93" arrivalSpeed="8.55" duration="118.00" routeLength="718.04" waitingTime="42.00" waitingCount="2" stopTime="0.00" timeLoss="61.87" rerouteNo="1" devices="tripinfo_carIn12365:1 routing_carIn12365:1 emissions_carIn12365:1" vType="default_016" speedFactor="1.11" vaporized="">
        <emissions CO_abs="8526.515145" CO2_abs="270171.584896" HC_abs="45.077313" PMx_abs="5.322683" NOx_abs="114.250753" fuel_abs="116.138071" electricity_abs="0"/>
    </tripinfo>
    <tripinfo id="carIn22761:1" depart="57616.00" departLane="-306240162#1_0" departPos="5.10" departSpeed="0.00" departDelay="2.10" arrival="57836.00" arrivalLane="399835085#1_1" arrivalPos="212.23" arrivalSpeed="6.89" duration="220.00" routeLength="1093.26" waitingTime="114.00" waitingCount="2" stopTime="0.00" timeLoss="140.02" rerouteNo="1" devices="tripinfo_carIn22761:1 routing_carIn22761:1 emissions_carIn22761:1" vType="default_016" speedFactor="0.97" vaporized="">
        <emissions CO_abs="22622.628688" CO2_abs="607137.261590" HC_abs="117.236709" PMx_abs="13.139949" NOx_abs="262.968690" fuel_abs="260.990085" electricity_abs="0"/>
    </tripinfo>
    <tripinfo id="carIn81860:1" depart="57712.00" departLane="128361102#0_1" departPos="5.10" departSpeed="0.00" departDelay="0.60" arrival="57836.00" arrivalLane="-24634517#17_1" arrivalPos="6.43" arrivalSpeed="8.25" duration="124.00" routeLength="1229.64" waitingTime="13.00" waitingCount="2" stopTime="0.00" timeLoss="38.75" rerouteNo="1" devices="tripinfo_carIn81860:1 routing_carIn81860:1 emissions_carIn81860:1" vType="default_016" speedFactor="1.06" vaporized="">
        <emissions CO_abs="4570.126257" CO2_abs="292992.233713" HC_abs="27.508687" PMx_abs="4.975227" NOx_abs="117.384252" fuel_abs="125.945275" electricity_abs="0"/>
    </tripinfo>
    <tripinfo id="h5938c1:1" depart="57740.00" departLane="-26677542#0_1" departPos="5.10" departSpeed="0.00" departDelay="0.00" arrival="57837.00" arrivalLane="447569997#1_1" arrivalPos="180.93" arrivalSpeed="8.90" duration="97.00" routeLength="1093.64" waitingTime="0.00" waitingCount="0" stopTime="0.00" timeLoss="9.67" rerouteNo="1" devices="tripinfo_h5938c1:1 routing_h5938c1:1 emissions_h5938c1:1" vType="default_016" speedFactor="1.12" vaporized="">
        <emissions CO_abs="2978.273315" CO2_abs="216411.424525" HC_abs="18.491019" PMx_abs="3.552080" NOx_abs="86.003128" fuel_abs="93.026181" electricity_abs="0"/>
    </tripinfo>
    <tripinfo id="carIn82278:1" depart="57702.00" departLane="-306240162#1_0" departPos="5.10" departSpeed="0.00" departDelay="0.70" arrival="57838.00" arrivalLane="399835085#1_1" arrivalPos="212.23" arrivalSpeed="7.66" duration="136.00" routeLength="1093.26" waitingTime="23.00" waitingCount="2" stopTime="0.00" timeLoss="59.96" rerouteNo="1" devices="tripinfo_carIn82278:1 routing_carIn82278:1 emissions_carIn82278:1" vType="default_016" speedFactor="1.02" vaporized="">
        <emissions CO_abs="8272.987009" CO2_abs="382596.890597" HC_abs="46.719837" PMx_abs="7.621700" NOx_abs="161.716513" fuel_abs="164.462785" electricity_abs="0"/>
    </tripinfo>
    <tripinfo id="carIn12858:1" depart="57661.00" departLane="128361109#1_1" departPos="5.10" departSpeed="0.00" departDelay="0.90" arrival="57843.00" arrivalLane="399835085#1_1" arrivalPos="212.23" arrivalSpeed="6.78" duration="182.00" routeLength="1738.12" waitingTime="25.00" waitingCount="1" stopTime="0.00" timeLoss="54.36" rerouteNo="1" devices="tripinfo_carIn12858:1 routing_carIn12858:1 emissions_carIn12858:1" vType="default_016" speedFactor="0.90" vaporized="">
        <emissions CO_abs="10334.609319" CO2_abs="506479.069496" HC_abs="59.030014" PMx_abs="9.717781" NOx_abs="210.295378" fuel_abs="217.714866" electricity_abs="0"/>
    </tripinfo>
    <tripinfo id="randUni31145:1" depart="57814.00" departLane="10425609#0_1" departPos="5.10" departSpeed="0.00" departDelay="0.30" arrival="57843.00" arrivalLane="201956810_1" arrivalPos="71.65" arrivalSpeed="14.27" duration="29.00" routeLength="255.78" waitingTime="0.00" waitingCount="0" stopTime="0.00" timeLoss="10.23" rerouteNo="1" devices="tripinfo_randUni31145:1 routing_randUni31145:1 emissions_randUni31145:1" vType="random_016" speedFactor="1.05" vaporized="">
        <emissions CO_abs="2185.205267" CO2_abs="116265.481160" HC_abs="12.699931" PMx_abs="2.235192" NOx_abs="49.000872" fuel_abs="49.977589" electricity_abs="0"/>
    </tripinfo>
    <tripinfo id="carIn50326:1" depart="57651.00" departLane="128361102#0_1" departPos="5.10" departSpeed="0.00" departDelay="0.30" arrival="57847.00" arrivalLane="18809673#0_1" arrivalPos="473.56" arrivalSpeed="12.12" duration="196.00" routeLength="1591.07" waitingTime="22.00" waitingCount="2" stopTime="0.00" timeLoss="51.09" rerouteNo="1" devices="tripinfo_carIn50326:1 routing_carIn50326:1 emissions_carIn50326:1" vType="default_016" speedFactor="0.90" vaporized="">
        <emissions CO_abs="8230.586144" CO2_abs="385850.961674" HC_abs="46.429248" PMx_abs="6.588462" NOx_abs="156.823341" fuel_abs="165.863082" electricity_abs="0"/>
    </tripinfo>
    <tripinfo id="h11737c1:1" depart="57665.00" departLane="272042143_1" departPos="5.10" departSpeed="0.00" departDelay="1.50" arrival="57847.00" arrivalLane="-315358254#1_1" arrivalPos="137.16" arrivalSpeed="12.36" duration="182.00" routeLength="1596.88" waitingTime="39.00" waitingCount="1" stopTime="0.00" timeLoss="57.01" rerouteNo="1" devices="tripinfo_h11737c1:1 routing_h11737c1:1 emissions_h11737c1:1" vType="default_016" speedFactor="0.94" vaporized="">
        <emissions CO_abs="9853.567402" CO2_abs="424756.391528" HC_abs="54.737798" PMx_abs="7.339829" NOx_abs="171.661731" fuel_abs="182.587795" electricity_abs="0"/>
    </tripinfo>
    <tripinfo id="randUni2407:1" depart="57820.00" departLane="10425609#0_1" departPos="5.10" departSpeed="0.00" departDelay="0.80" arrival="57847.00" arrivalLane="201956810_1" arrivalPos="71.65" arrivalSpeed="13.24" duration="27.00" routeLength="255.78" waitingTime="0.00" waitingCount="0" stopTime="0.00" timeLoss="6.54" rerouteNo="1" devices="tripinfo_randUni2407:1 routing_randUni2407:1 emissions_randUni2407:1" vType="random_016" speedFactor="0.98" vaporized="">
        <emissions CO_abs="1576.181233" CO2_abs="90919.836485" HC_abs="9.309683" PMx_abs="1.617553" NOx_abs="37.397238" fuel_abs="39.082668" electricity_abs="0"/>
    </tripinfo>
    <tripinfo id="carIn86816:1" depart="57617.00" departLane="128361102#0_1" departPos="5.10" departSpeed="0.00" departDelay="0.80" arrival="57851.00" arrivalLane="201956811#0_1" arrivalPos="40.40" arrivalSpeed="12.43" duration="234.00" routeLength="2067.33" waitingTime="40.00" waitingCount="3" stopTime="0.00" timeLoss="71.51" rerouteNo="1" devices="tripinfo_carIn86816:1 routing_carIn86816:1 emissions_carIn86816:1" vType="default_016" speedFactor="0.93" vaporized="">
        <emissions CO_abs="11421.697184" CO2_abs="534939.988606" HC_abs="64.504699" PMx_abs="9.505322" NOx_abs="218.838958" fuel_abs="229.950493" electricity_abs="0"/>
    </tripinfo>
    <tripinfo id="h645c1:1" depart="57622.00" departLane="266565295#5_1" departPos="5.10" departSpeed="0.00" departDelay="0.40" arrival="57853.00" arrivalLane="-315358244_2" arrivalPos="33.95" arrivalSpeed="13.31" duration="231.00" routeLength="1910.83" waitingTime="61.00" waitingCount="4" stopTime="0.00" timeLoss="98.95" rerouteNo="1" devices="tripinfo_h645c1:1 routing_h645c1:1 emissions_h645c1:1" vType="default_016" speedFactor="1.05" vaporized="">
        <emissions CO_abs="14409.779380" CO2_abs="596484.227487" HC_abs="79.555770" PMx_abs="11.251554" NOx_abs="247.112268" fuel_abs="256.406573" electricity_abs="0"/>
    </tripinfo>
    <tripinfo id="carIn102915:1" depart="57643.00" departLane="128361102#0_1" departPos="5.10" departSpeed="0.00" departDelay="0.40" arrival="57853.00" arrivalLane="201956811#0_1" arrivalPos="40.40" arrivalSpeed="12.28" duration="210.00" routeLength="2067.33" waitingTime="12.00" waitingCount="3" stopTime="0.00" timeLoss="45.82" rerouteNo="1" devices="tripinfo_carIn102915:1 routing_carIn102915:1 emissions_carIn102915:1" vType="default_016" speedFactor="0.92" vaporized="">
        <emissions CO_abs="7158.699584" CO2_abs="462898.601734" HC_abs="43.369083" PMx_abs="7.571643" NOx_abs="185.042524" fuel_abs="198.981300" electricity_abs="0"/>
    </tripinfo>
    <tripinfo id="randUni15030:1" depart="57735.00" departLane="386687232#0_1" departPos="5.10" departSpeed="0.00" departDelay="0.10" arrival="57853.00" arrivalLane="26677539_1" arrivalPos="151.98" arrivalSpeed="8.46" duration="118.00" routeLength="919.89" waitingTime="25.00" waitingCount="1" stopTime="0.00" timeLoss="40.27" rerouteNo="1" devices="tripinfo_randUni15030:1 routing_randUni15030:1 emissions_randUni15030:1" vType="random_016" speedFactor="1.07" vaporized="">
        <emissions CO_abs="6523.400162" CO2_abs="275483.404757" HC_abs="36.033826" PMx_abs="4.883623" NOx_abs="112.528763" fuel_abs="118.420469" electricity_abs="0"/>
    </tripinfo>
    <tripinfo id="carIn8642:1" depart="57774.00" departLane="-447569998#1_1" departPos="5.10" departSpeed="0.00" departDelay="0.90" arrival="57853.00" arrivalLane="-315358244_1" arrivalPos="33.95" arrivalSpeed="15.40" duration="79.00" routeLength="706.49" waitingTime="13.00" waitingCount="1" stopTime="0.00" timeLoss="24.01" rerouteNo="1" devices="tripinfo_carIn8642:1 routing_carIn8642:1 emissions_carIn8642:1" vType="default_016" speedFactor="1.11" vaporized="">
        <emissions CO_abs="4357.412987" CO2_abs="213692.070910" HC_abs="24.741547" PMx_abs="3.897294" NOx_abs="87.766857" fuel_abs="91.857828" electricity_abs="0"/>
    </tripinfo>
    <tripinfo id="carIn12775:1" depart="57676.00" departLane="10425609#0_1" departPos="5.10" departSpeed="0.00" departDelay="0.60" arrival="57854.00" arrivalLane="18809673#0_1" arrivalPos="473.56" arrivalSpeed="13.44" duration="178.00" routeLength="1959.45" waitingTime="9.00" waitingCount="1" stopTime="0.00" timeLoss="32.00" rerouteNo="1" devices="tripinfo_carIn12775:1 routing_carIn12775:1 emissions_carIn12775:1" vType="default_016" speedFactor="1.00" vaporized="">
        <emissions CO_abs="5400.968986" CO2_abs="395500.301613" HC_abs="33.723167" PMx_abs="6.262714" NOx_abs="155.653971" fuel_abs="170.009315" electricity_abs="0"/>
    </tripinfo>
    <tripinfo id="carIn126288:1" depart="57674.00" departLane="272042143_1" departPos="5.10" departSpeed="0.00" departDelay="0.00" arrival="57855.00" arrivalLane="-315358254#1_1" arrivalPos="137.16" arrivalSpeed="11.31" duration="181.00" routeLength="1596.88" waitingTime="29.00" waitingCount="1" stopTime="0.00" timeLoss="48.35" rerouteNo="1" devices="tripinfo_carIn126288:1 routing_carIn126288:1 emissions_carIn126288:1" vType="default_016" speedFactor="0.88" vaporized="">
        <emissions CO_abs="7898.487574" CO2_abs="369161.567695" HC_abs="44.524327" PMx_abs="6.218524" NOx_abs="148.724249" fuel_abs="158.689157" electricity_abs="0"/>
    </tripinfo>
    <tripinfo id="carIn77943:1" depart="57608.00" departLane="124812856#0_1" departPos="5.10" departSpeed="0.00" departDelay="2.50" arrival="57856.00" arrivalLane="-128361102#1_1" arrivalPos="274.68" arrivalSpeed="13.06" duration="248.00" routeLength="2250.49" waitingTime="45.00" waitingCount="2" stopTime="0.00" timeLoss="81.48" rerouteNo="1" devices="tripinfo_carIn77943:1 routing_carIn77943:1 emissions_carIn77943:1" vType="default_016" speedFactor="0.98" vaporized="">
        <emissions CO_abs="12709.251590" CO2_abs="596278.935350" HC_abs="71.811459" PMx_abs="10.687297" NOx_abs="243.871168" fuel_abs="256.317695" electricity_abs="0"/>
    </tripinfo>
    <tripinfo id="carIn12152:1" depart="57647.00" departLane="24599188#0.94_1" departPos="5.10" departSpeed="0.00" departDelay="0.50" arrival="57857.00" arrivalLane="-315358254#1_1" arrivalPos="137.16" arrivalSpeed="13.56" duration="210.00" routeLength="2034.31" waitingTime="20.00" waitingCount="2" stopTime="0.00" timeLoss="48.21" rerouteNo="1" devices="tripinfo_carIn12152:1 routing_carIn12152:1 emissions_carIn12152:1" vType="default_016" speedFactor="0.98" vaporized="">
        <emissions CO_abs="8300.088958" CO2_abs="478394.112743" HC_abs="48.942727" PMx_abs="8.163806" NOx_abs="193.171133" fuel_abs="205.642467" electricity_abs="0"/>
    </tripinfo>
    <tripinfo id="carIn81046:1" depart="57611.00" departLane="124812856#0_1" departPos="5.10" departSpeed="0.00" departDelay="2.50" arrival="57858.00" arrivalLane="-128361102#1_1" arrivalPos="274.68" arrivalSpeed="12.63" duration="247.00" routeLength="2250.49" waitingTime="44.00" waitingCount="2" stopTime="0.00" timeLoss="82.57" rerouteNo="1" devices="tripinfo_carIn81046:1 routing_carIn81046:1 emissions_carIn81046:1" vType="default_016" speedFactor="1.00" vaporized="">
        <emissions CO_abs="12426.395501" CO2_abs="601738.574223" HC_abs="70.673595" PMx_abs="10.858977" NOx_abs="246.583202" fuel_abs="258.664131" electricity_abs="0"/>