<?xml version="1.0" encoding="UTF-8"?>

<!-- generated on 2021-10-26 11:17:22 by Eclipse SUMO sumo Version 1.10.0
<configuration xmlns:xsi="http://www.w3.org/2001/XMLSchema-instance" xsi:noNamespaceSchemaLocation="http://sumo.dlr.de/xsd/sumoConfiguration.xsd">

    <input>
        <net-file value="/Users/behradkoohy/sumo-scratchpad/RESCO/environments/ingolstadt21/ingolstadt21.net.xml"/>
        <route-files value="/Users/behradkoohy/sumo-scratchpad/RESCO/environments/ingolstadt21/ingolstadt21.rou.xml"/>
    </input>

    <output>
        <tripinfo-output value="/Users/behradkoohy/sumo-scratchpad/RESCO/logs/IDQN-tr0-ingolstadt21-21-drq_norm-wait_norm/tripinfo_15.xml"/>
        <tripinfo-output.write-unfinished value="true"/>
    </output>

    <time>
        <begin value="57600"/>
        <end value="61200"/>
    </time>

    <processing>
        <time-to-teleport value="-1"/>
    </processing>

    <report>
        <no-warnings value="true"/>
        <no-step-log value="true"/>
    </report>

    <emissions>
        <device.emissions.probability value="1"/>
    </emissions>

    <traci_server>
        <remote-port value="56966"/>
    </traci_server>

    <random_number>
        <random value="true"/>
    </random_number>

</configuration>
-->

<tripinfos xmlns:xsi="http://www.w3.org/2001/XMLSchema-instance" xsi:noNamespaceSchemaLocation="http://sumo.dlr.de/xsd/tripinfo_file.xsd">
    <tripinfo id="h15454c2:3" depart="57612.00" departLane="24608844_1" departPos="5.10" departSpeed="0.00" departDelay="0.50" arrival="57653.00" arrivalLane="32978638#0_1" arrivalPos="49.29" arrivalSpeed="12.00" duration="41.00" routeLength="354.79" waitingTime="0.00" waitingCount="0" stopTime="0.00" timeLoss="5.04" rerouteNo="1" devices="tripinfo_h15454c2:3 routing_h15454c2:3 emissions_h15454c2:3" vType="default_016" speedFactor="0.95" vaporized="">
        <emissions CO_abs="1764.952361" CO2_abs="93296.375926" HC_abs="10.194067" PMx_abs="1.534214" NOx_abs="37.707076" fuel_abs="40.104547" electricity_abs="0"/>
    </tripinfo>
    <tripinfo id="carIn60260:1" depart="57606.00" departLane="315358254#0_1" departPos="5.10" departSpeed="0.00" departDelay="0.90" arrival="57656.00" arrivalLane="399835085#1_1" arrivalPos="212.23" arrivalSpeed="8.08" duration="50.00" routeLength="430.98" waitingTime="0.00" waitingCount="0" stopTime="0.00" timeLoss="7.12" rerouteNo="1" devices="tripinfo_carIn60260:1 routing_carIn60260:1 emissions_carIn60260:1" vType="default_016" speedFactor="1.08" vaporized="">
        <emissions CO_abs="1998.688009" CO2_abs="105209.937474" HC_abs="11.539189" PMx_abs="1.767241" NOx_abs="42.866744" fuel_abs="45.225671" electricity_abs="0"/>
    </tripinfo>
    <tripinfo id="carIn53971:1" depart="57640.00" departLane="272042143_1" departPos="5.10" departSpeed="0.00" departDelay="0.80" arrival="57700.00" arrivalLane="24634414#1_1" arrivalPos="162.19" arrivalSpeed="6.33" duration="60.00" routeLength="493.04" waitingTime="0.00" waitingCount="0" stopTime="0.00" timeLoss="9.27" rerouteNo="1" devices="tripinfo_carIn53971:1 routing_carIn53971:1 emissions_carIn53971:1" vType="default_016" speedFactor="0.91" vaporized="">
        <emissions CO_abs="2524.254656" CO2_abs="131448.198863" HC_abs="14.538850" PMx_abs="2.199625" NOx_abs="53.445085" fuel_abs="56.504524" electricity_abs="0"/>
    </tripinfo>
    <tripinfo id="h7800c1:5" depart="57696.00" departLane="-447569998#1_1" departPos="5.10" departSpeed="0.00" departDelay="0.00" arrival="57723.00" arrivalLane="-447569998#1_1" arrivalPos="180.76" arrivalSpeed="7.16" duration="27.00" routeLength="175.66" waitingTime="0.00" waitingCount="0" stopTime="0.00" timeLoss="3.60" rerouteNo="1" devices="tripinfo_h7800c1:5 routing_h7800c1:5 emissions_h7800c1:5" vType="default_016" speedFactor="0.92" vaporized="">
        <emissions CO_abs="1410.056881" CO2_abs="57377.746535" HC_abs="7.728240" PMx_abs="0.913489" NOx_abs="23.228024" fuel_abs="24.664800" electricity_abs="0"/>
    </tripinfo>
    <tripinfo id="h12244c1:3" depart="57612.00" departLane="315358244_1" departPos="5.10" departSpeed="0.00" departDelay="0.40" arrival="57732.00" arrivalLane="386687235_1" arrivalPos="80.84" arrivalSpeed="16.08" duration="120.00" routeLength="1186.14" waitingTime="23.00" waitingCount="2" stopTime="0.00" timeLoss="46.41" rerouteNo="1" devices="tripinfo_h12244c1:3 routing_h12244c1:3 emissions_h12244c1:3" vType="default_016" speedFactor="1.17" vaporized="">
        <emissions CO_abs="6562.908699" CO2_abs="324920.048089" HC_abs="37.385866" PMx_abs="6.055592" NOx_abs="133.308232" fuel_abs="139.670219" electricity_abs="0"/>
    </tripinfo>
    <tripinfo id="S5R_frequency1.2" depart="57624.00" departLane="315358250#0_1" departPos="12.10" departSpeed="0.00" departDelay="12.40" arrival="57738.00" arrivalLane="386687235_1" arrivalPos="80.84" arrivalSpeed="13.69" duration="114.00" routeLength="1115.62" waitingTime="8.00" waitingCount="2" stopTime="0.00" timeLoss="32.64" rerouteNo="1" devices="tripinfo_S5R_frequency1.2 routing_S5R_frequency1.2 emissions_S5R_frequency1.2" vType="bus" speedFactor="1.00" vaporized="">
        <emissions CO_abs="2208.248415" CO2_abs="1326709.658757" HC_abs="469.698139" PMx_abs="235.485207" NOx_abs="10447.684228" fuel_abs="565.808610" electricity_abs="0"/>
    </tripinfo>
    <tripinfo id="h3568c1:3" depart="57656.00" departLane="266565295#5_1" departPos="5.10" departSpeed="0.00" departDelay="0.80" arrival="57738.00" arrivalLane="-24634415_1" arrivalPos="62.03" arrivalSpeed="14.64" duration="82.00" routeLength="807.40" waitingTime="2.00" waitingCount="1" stopTime="0.00" timeLoss="21.37" rerouteNo="1" devices="tripinfo_h3568c1:3 routing_h3568c1:3 emissions_h3568c1:3" vType="default_016" speedFactor="1.08" vaporized="">
        <emissions CO_abs="4229.619859" CO2_abs="261642.516382" HC_abs="25.366117" PMx_abs="4.822821" NOx_abs="108.159890" fuel_abs="112.468792" electricity_abs="0"/>
    </tripinfo>
    <tripinfo id="h317c2:1" depart="57707.00" departLane="-32978638#0_1" departPos="5.10" departSpeed="0.00" departDelay="0.10" arrival="57743.00" arrivalLane="-266565295#5_1" arrivalPos="172.76" arrivalSpeed="14.20" duration="36.00" routeLength="370.53" waitingTime="0.00" waitingCount="0" stopTime="0.00" timeLoss="10.04" rerouteNo="1" devices="tripinfo_h317c2:1 routing_h317c2:1 emissions_h317c2:1" vType="default_016" speedFactor="1.06" vaporized="">
        <emissions CO_abs="2099.330393" CO2_abs="125961.833820" HC_abs="12.547596" PMx_abs="2.383277" NOx_abs="52.478428" fuel_abs="54.145506" electricity_abs="0"/>
    </tripinfo>
    <tripinfo id="h9563c2:5" depart="57631.00" departLane="315358244_1" departPos="5.10" departSpeed="0.00" departDelay="0.70" arrival="57747.00" arrivalLane="386687235_1" arrivalPos="80.84" arrivalSpeed="12.87" duration="116.00" routeLength="1186.14" waitingTime="12.00" waitingCount="2" stopTime="0.00" timeLoss="29.75" rerouteNo="1" devices="tripinfo_h9563c2:5 routing_h9563c2:5 emissions_h9563c2:5" vType="default_016" speedFactor="1.00" vaporized="">
        <emissions CO_abs="4333.650616" CO2_abs="279610.214129" HC_abs="26.300409" PMx_abs="4.876931" NOx_abs="113.356717" fuel_abs="120.192653" electricity_abs="0"/>
    </tripinfo>
    <tripinfo id="h3688c1:1" depart="57625.00" departLane="201201950#1_1" departPos="5.10" departSpeed="0.00" departDelay="0.00" arrival="57750.00" arrivalLane="32978638#0_1" arrivalPos="49.29" arrivalSpeed="12.80" duration="125.00" routeLength="1089.75" waitingTime="31.00" waitingCount="1" stopTime="0.00" timeLoss="44.99" rerouteNo="1" devices="tripinfo_h3688c1:1 routing_h3688c1:1 emissions_h3688c1:1" vType="default_016" speedFactor="0.99" vaporized="">
        <emissions CO_abs="8241.779687" CO2_abs="331555.408112" HC_abs="45.313732" PMx_abs="6.395110" NOx_abs="138.788124" fuel_abs="142.523377" electricity_abs="0"/>
    </tripinfo>
    <tripinfo id="carIn30817:1" depart="57681.00" departLane="315358244_1" departPos="5.10" departSpeed="0.00" departDelay="0.20" arrival="57754.00" arrivalLane="447569997#1_1" arrivalPos="180.93" arrivalSpeed="6.60" duration="73.00" routeLength="718.04" waitingTime="0.00" waitingCount="0" stopTime="0.00" timeLoss="7.23" rerouteNo="1" devices="tripinfo_carIn30817:1 routing_carIn30817:1 emissions_carIn30817:1" vType="default_016" speedFactor="0.94" vaporized="">
        <emissions CO_abs="1943.220400" CO2_abs="138034.918366" HC_abs="12.007564" PMx_abs="1.935825" NOx_abs="52.885247" fuel_abs="59.335953" electricity_abs="0"/>
    </tripinfo>
    <tripinfo id="carIn27009:1" depart="57673.00" departLane="-447569998#1_1" departPos="5.10" departSpeed="0.00" departDelay="0.50" arrival="57758.00" arrivalLane="-26677539_1" arrivalPos="152.75" arrivalSpeed="8.62" duration="85.00" routeLength="699.63" waitingTime="0.00" waitingCount="0" stopTime="0.00" timeLoss="9.84" rerouteNo="1" devices="tripinfo_carIn27009:1 routing_carIn27009:1 emissions_carIn27009:1" vType="default_015" speedFactor="1.12" vaporized="">
        <emissions CO_abs="3319.190307" CO2_abs="178655.614453" HC_abs="19.216144" PMx_abs="2.798541" NOx_abs="71.565887" fuel_abs="76.797356" electricity_abs="0"/>
    </tripinfo>
    <tripinfo id="carIn80064:1" depart="57603.00" departLane="128361109#1_1" departPos="5.10" departSpeed="0.00" departDelay="0.40" arrival="57773.00" arrivalLane="-315358254#1_1" arrivalPos="137.16" arrivalSpeed="14.23" duration="170.00" routeLength="1587.97" waitingTime="58.00" waitingCount="2" stopTime="0.00" timeLoss="83.34" rerouteNo="1" devices="tripinfo_carIn80064:1 routing_carIn80064:1 emissions_carIn80064:1" vType="default_016" speedFactor="1.03" vaporized="">
        <emissions CO_abs="15252.135453" CO2_abs="588646.793482" HC_abs="83.490174" PMx_abs="12.339720" NOx_abs="249.810339" fuel_abs="253.036764" electricity_abs="0"/>
    </tripinfo>
    <tripinfo id="h330c1:1" depart="57736.00" departLane="-32978638#0_1" departPos="5.10" departSpeed="0.00" departDelay="0.20" arrival="57774.00" arrivalLane="-266565295#5_1" arrivalPos="172.76" arrivalSpeed="11.71" duration="38.00" routeLength="370.53" waitingTime="0.00" waitingCount="0" stopTime="0.00" timeLoss="5.74" rerouteNo="1" devices="tripinfo_h330c1:1 routing_h330c1:1 emissions_h330c1:1" vType="default_016" speedFactor="0.85" vaporized="">
        <emissions CO_abs="1760.871790" CO2_abs="108782.573431" HC_abs="10.544417" PMx_abs="1.780855" NOx_abs="43.696265" fuel_abs="46.761252" electricity_abs="0"/>
    </tripinfo>
    <tripinfo id="h3326c1:2" depart="57656.00" departLane="22716069#0_1" departPos="5.10" departSpeed="0.00" departDelay="0.00" arrival="57775.00" arrivalLane="24634517#13_1" arrivalPos="111.62" arrivalSpeed="12.70" duration="119.00" routeLength="1312.81" waitingTime="0.00" waitingCount="0" stopTime="0.00" timeLoss="16.10" rerouteNo="1" devices="tripinfo_h3326c1:2 routing_h3326c1:2 emissions_h3326c1:2" vType="default_016" speedFactor="0.95" vaporized="">
        <emissions CO_abs="4413.830072" CO2_abs="302883.010817" HC_abs="27.211303" PMx_abs="5.248381" NOx_abs="123.001338" fuel_abs="130.196416" electricity_abs="0"/>
    </tripinfo>
    <tripinfo id="carIn121703:1" depart="57647.00" departLane="386687232#0_1" departPos="5.10" departSpeed="0.00" departDelay="0.30" arrival="57779.00" arrivalLane="-315358244_1" arrivalPos="33.95" arrivalSpeed="11.59" duration="132.00" routeLength="1157.39" waitingTime="22.00" waitingCount="1" stopTime="0.00" timeLoss="39.27" rerouteNo="1" devices="tripinfo_carIn121703:1 routing_carIn121703:1 emissions_carIn121703:1" vType="default_016" speedFactor="0.91" vaporized="">
        <emissions CO_abs="6494.899062" CO2_abs="304707.091520" HC_abs="36.646937" PMx_abs="5.153908" NOx_abs="122.673871" fuel_abs="130.982488" electricity_abs="0"/>
    </tripinfo>
    <tripinfo id="h7181c1:1" depart="57660.00" departLane="315358254#0_1" departPos="5.10" departSpeed="0.00" departDelay="0.10" arrival="57781.00" arrivalLane="306240162#0_0" arrivalPos="220.43" arrivalSpeed="16.74" duration="121.00" routeLength="932.35" waitingTime="52.00" waitingCount="2" stopTime="0.00" timeLoss="72.42" rerouteNo="1" devices="tripinfo_h7181c1:1 routing_h7181c1:1 emissions_h7181c1:1" vType="default_016" speedFactor="1.07" vaporized="">
        <emissions CO_abs="11134.849789" CO2_abs="391845.841070" HC_abs="59.975351" PMx_abs="8.368853" NOx_abs="167.522825" fuel_abs="168.440121" electricity_abs="0"/>
    </tripinfo>
    <tripinfo id="carIn22761:1" depart="57616.00" departLane="-306240162#1_0" departPos="5.10" departSpeed="0.00" departDelay="2.10" arrival="57785.00" arrivalLane="399835085#1_1" arrivalPos="212.23" arrivalSpeed="4.03" duration="169.00" routeLength="1093.26" waitingTime="59.00" waitingCount="3" stopTime="0.00" timeLoss="93.25" rerouteNo="1" devices="tripinfo_carIn22761:1 routing_carIn22761:1 emissions_carIn22761:1" vType="default_016" speedFactor="1.03" vaporized="">
        <emissions CO_abs="13447.669124" CO2_abs="478880.087144" HC_abs="72.497876" PMx_abs="9.826070" NOx_abs="203.002071" fuel_abs="205.853334" electricity_abs="0"/>
    </tripinfo>
    <tripinfo id="h4538c1:1" depart="57701.00" departLane="-10427692#1_1" departPos="5.10" departSpeed="0.00" departDelay="0.00" arrival="57785.00" arrivalLane="-128361102#1_1" arrivalPos="274.68" arrivalSpeed="13.97" duration="84.00" routeLength="440.74" waitingTime="43.00" waitingCount="1" stopTime="0.00" timeLoss="52.88" rerouteNo="1" devices="tripinfo_h4538c1:1 routing_h4538c1:1 emissions_h4538c1:1" vType="default_016" speedFactor="1.03" vaporized="">
        <emissions CO_abs="7717.474253" CO2_abs="216694.181743" HC_abs="40.209709" PMx_abs="4.486540" NOx_abs="92.742905" fuel_abs="93.150313" electricity_abs="0"/>
    </tripinfo>
    <tripinfo id="h5979c1:5" depart="57669.00" departLane="399835085#1_1" departPos="5.10" departSpeed="0.00" departDelay="0.00" arrival="57788.00" arrivalLane="-315358254#1_1" arrivalPos="137.16" arrivalSpeed="12.18" duration="119.00" routeLength="659.33" waitingTime="28.00" waitingCount="1" stopTime="0.00" timeLoss="42.20" rerouteNo="1" devices="tripinfo_h5979c1:5 routing_h5979c1:5 emissions_h5979c1:5" vType="default_016" speedFactor="0.95" vaporized="">
        <emissions CO_abs="7971.891300" CO2_abs="245892.607895" HC_abs="41.992320" PMx_abs="4.632087" NOx_abs="103.554173" fuel_abs="105.701739" electricity_abs="0"/>
    </tripinfo>
    <tripinfo id="h16072c2:3" depart="57663.00" departLane="315358254#0_1" departPos="5.10" departSpeed="0.00" departDelay="2.50" arrival="57804.00" arrivalLane="386687235_1" arrivalPos="80.84" arrivalSpeed="13.67" duration="141.00" routeLength="1611.92" waitingTime="10.00" waitingCount="2" stopTime="0.00" timeLoss="30.93" rerouteNo="1" devices="tripinfo_h16072c2:3 routing_h16072c2:3 emissions_h16072c2:3" vType="default_016" speedFactor="1.06" vaporized="">
        <emissions CO_abs="4544.617794" CO2_abs="345387.596683" HC_abs="28.650891" PMx_abs="5.672340" NOx_abs="136.298061" fuel_abs="148.467551" electricity_abs="0"/>
    </tripinfo>
    <tripinfo id="h645c1:1" depart="57622.00" departLane="266565295#5_1" departPos="5.10" departSpeed="0.00" departDelay="0.40" arrival="57814.00" arrivalLane="-315358244_1" arrivalPos="33.95" arrivalSpeed="13.59" duration="192.00" routeLength="1910.83" waitingTime="32.00" waitingCount="3" stopTime="0.00" timeLoss="59.70" rerouteNo="1" devices="tripinfo_h645c1:1 routing_h645c1:1 emissions_h645c1:1" vType="default_016" speedFactor="1.05" vaporized="">
        <emissions CO_abs="8233.812405" CO2_abs="449520.655311" HC_abs="47.956148" PMx_abs="7.932633" NOx_abs="181.898618" fuel_abs="193.231019" electricity_abs="0"/>
    </tripinfo>
    <tripinfo id="carIn107282:1" depart="57749.00" departLane="-447569998#1_1" departPos="5.10" departSpeed="0.00" departDelay="0.00" arrival="57817.00" arrivalLane="315358242#0_1" arrivalPos="165.37" arrivalSpeed="12.94" duration="68.00" routeLength="448.50" waitingTime="16.00" waitingCount="1" stopTime="0.00" timeLoss="24.63" rerouteNo="1" devices="tripinfo_carIn107282:1 routing_carIn107282:1 emissions_carIn107282:1" vType="default_016" speedFactor="0.98" vaporized="">
        <emissions CO_abs="4060.058345" CO2_abs="140357.670137" HC_abs="21.757635" PMx_abs="2.659429" NOx_abs="59.012836" fuel_abs="60.335063" electricity_abs="0"/>
    </tripinfo>
    <tripinfo id="carIn118591:1" depart="57689.00" departLane="315358244_1" departPos="5.10" departSpeed="0.00" departDelay="0.20" arrival="57822.00" arrivalLane="386687235_1" arrivalPos="80.84" arrivalSpeed="14.01" duration="133.00" routeLength="1186.14" waitingTime="36.00" waitingCount="3" stopTime="0.00" timeLoss="53.02" rerouteNo="1" devices="tripinfo_carIn118591:1 routing_carIn118591:1 emissions_carIn118591:1" vType="default_016" speedFactor="1.08" vaporized="">
        <emissions CO_abs="6936.535256" CO2_abs="296817.765010" HC_abs="38.507612" PMx_abs="5.580265" NOx_abs="122.576522" fuel_abs="127.590864" electricity_abs="0"/>
    </tripinfo>
    <tripinfo id="carIn12365:1" depart="57713.00" departLane="315358244_1" departPos="5.10" departSpeed="0.00" departDelay="0.50" arrival="57828.00" arrivalLane="447569997#1_1" arrivalPos="180.93" arrivalSpeed="8.63" duration="115.00" routeLength="718.04" waitingTime="44.00" waitingCount="2" stopTime="0.00" timeLoss="59.01" rerouteNo="1" devices="tripinfo_carIn12365:1 routing_carIn12365:1 emissions_carIn12365:1" vType="default_016" speedFactor="1.09" vaporized="">
        <emissions CO_abs="9062.426389" CO2_abs="279940.931239" HC_abs="47.835966" PMx_abs="5.650250" NOx_abs="119.229440" fuel_abs="120.337603" electricity_abs="0"/>
    </tripinfo>
    <tripinfo id="carIn12152:1" depart="57647.00" departLane="24599188#0.94_1" departPos="5.10" departSpeed="0.00" departDelay="0.50" arrival="57830.00" arrivalLane="-315358254#1_1" arrivalPos="137.16" arrivalSpeed="11.92" duration="183.00" routeLength="2034.31" waitingTime="0.00" waitingCount="0" stopTime="0.00" timeLoss="15.03" rerouteNo="1" devices="tripinfo_carIn12152:1 routing_carIn12152:1 emissions_carIn12152:1" vType="default_016" speedFactor="0.94" vaporized="">
        <emissions CO_abs="4582.037976" CO2_abs="367185.197459" HC_abs="29.344134" PMx_abs="5.472979" NOx_abs="142.479240" fuel_abs="157.837961" electricity_abs="0"/>
    </tripinfo>
    <tripinfo id="carIn81860:1" depart="57712.00" departLane="128361102#0_1" departPos="5.10" departSpeed="0.00" departDelay="0.60" arrival="57830.00" arrivalLane="-24634517#17_1" arrivalPos="6.43" arrivalSpeed="8.92" duration="118.00" routeLength="1229.64" waitingTime="9.00" waitingCount="1" stopTime="0.00" timeLoss="37.80" rerouteNo="1" devices="tripinfo_carIn81860:1 routing_carIn81860:1 emissions_carIn81860:1" vType="default_016" speedFactor="1.12" vaporized="">
        <emissions CO_abs="5361.881559" CO2_abs="319923.263282" HC_abs="31.861282" PMx_abs="5.759454" NOx_abs="130.477414" fuel_abs="137.521628" electricity_abs="0"/>
    </tripinfo>
    <tripinfo id="carIn28951:1" depart="57606.00" departLane="10425609#0_1" departPos="5.10" departSpeed="0.00" departDelay="0.20" arrival="57837.00" arrivalLane="-128361102#1_1" arrivalPos="274.68" arrivalSpeed="12.62" duration="231.00" routeLength="2113.04" waitingTime="41.00" waitingCount="3" stopTime="0.00" timeLoss="74.35" rerouteNo="1" devices="tripinfo_carIn28951:1 routing_carIn28951:1 emissions_carIn28951:1" vType="default_016" speedFactor="0.99" vaporized="">
        <emissions CO_abs="11982.347037" CO2_abs="579144.900363" HC_abs="68.116980" PMx_abs="10.488522" NOx_abs="237.456667" fuel_abs="248.951956" electricity_abs="0"/>
    </tripinfo>
    <tripinfo id="carIn12858:1" depart="57661.00" departLane="128361109#1_1" departPos="5.10" departSpeed="0.00" departDelay="0.90" arrival="57837.00" arrivalLane="399835085#1_1" arrivalPos="212.23" arrivalSpeed="6.98" duration="176.00" routeLength="1738.12" waitingTime="30.00" waitingCount="1" stopTime="0.00" timeLoss="56.94" rerouteNo="1" devices="tripinfo_carIn12858:1 routing_carIn12858:1 emissions_carIn12858:1" vType="default_016" speedFactor="0.97" vaporized="">
        <emissions CO_abs="11556.790867" CO2_abs="544054.644718" HC_abs="65.597645" PMx_abs="10.845461" NOx_abs="227.814390" fuel_abs="233.866935" electricity_abs="0"/>
    </tripinfo>
    <tripinfo id="carIn107842:1" depart="57623.00" departLane="124812856#0_1" departPos="5.10" departSpeed="0.00" departDelay="1.90" arrival="57839.00" arrivalLane="-128361102#1_1" arrivalPos="274.68" arrivalSpeed="12.65" duration="216.00" routeLength="2250.49" waitingTime="20.00" waitingCount="2" stopTime="0.00" timeLoss="50.89" rerouteNo="1" devices="tripinfo_carIn107842:1 routing_carIn107842:1 emissions_carIn107842:1" vType="default_016" speedFactor="1.00" vaporized="">
        <emissions CO_abs="8832.356065" CO2_abs="552751.991652" HC_abs="53.161796" PMx_abs="9.503283" NOx_abs="222.838998" fuel_abs="237.605271" electricity_abs="0"/>
    </tripinfo>
    <tripinfo id="carIn107084:1" depart="57601.00" departLane="124812856#0_1" departPos="5.10" departSpeed="0.00" departDelay="0.70" arrival="57841.00" arrivalLane="-128361102#1_1" arrivalPos="274.68" arrivalSpeed="12.40" duration="240.00" routeLength="2250.49" waitingTime="27.00" waitingCount="3" stopTime="0.00" timeLoss="71.92" rerouteNo="1" devices="tripinfo_carIn107084:1 routing_carIn107084:1 emissions_carIn107084:1" vType="default_016" speedFactor="0.98" vaporized="">
        <emissions CO_abs="9771.921389" CO2_abs="555906.505274" HC_abs="57.457352" PMx_abs="9.424066" NOx_abs="223.864648" fuel_abs="238.962168" electricity_abs="0"/>
    </tripinfo>
    <tripinfo id="carIn129809:1" depart="57729.00" departLane="-447569998#1_1" departPos="5.10" departSpeed="0.00" departDelay="1.00" arrival="57843.00" arrivalLane="-315358244_1" arrivalPos="33.95" arrivalSpeed="11.91" duration="114.00" routeLength="706.49" waitingTime="36.00" waitingCount="1" stopTime="0.00" timeLoss="45.37" rerouteNo="1" devices="tripinfo_carIn129809:1 routing_carIn129809:1 emissions_carIn129809:1" vType="default_015" speedFactor="0.88" vaporized="">
        <emissions CO_abs="8012.089680" CO2_abs="236763.415416" HC_abs="41.983505" PMx_abs="4.560881" NOx_abs="99.677408" fuel_abs="101.777582" electricity_abs="0"/>
    </tripinfo>
    <tripinfo id="h3154c1:1" depart="57658.00" departLane="24634507_1" departPos="5.10" departSpeed="0.00" departDelay="0.00" arrival="57846.00" arrivalLane="-266565295#5_1" arrivalPos="172.76" arrivalSpeed="13.20" duration="188.00" routeLength="1206.22" waitingTime="75.00" waitingCount="2" stopTime="0.00" timeLoss="99.32" rerouteNo="1" devices="tripinfo_h3154c1:1 routing_h3154c1:1 emissions_h3154c1:1" vType="default_016" speedFactor="1.00" vaporized="">
        <emissions CO_abs="15932.696525" CO2_abs="506909.238536" HC_abs="84.446948" PMx_abs="10.342261" NOx_abs="216.401833" fuel_abs="217.903416" electricity_abs="0"/>
    </tripinfo>
    <tripinfo id="carIn50326:1" depart="57651.00" departLane="128361102#0_1" departPos="5.10" departSpeed="0.00" departDelay="0.30" arrival="57850.00" arrivalLane="18809673#0_1" arrivalPos="473.56" arrivalSpeed="13.68" duration="199.00" routeLength="1591.07" waitingTime="49.00" waitingCount="3" stopTime="0.00" timeLoss="77.25" rerouteNo="1" devices="tripinfo_carIn50326:1 routing_carIn50326:1 emissions_carIn50326:1" vType="default_016" speedFactor="1.07" vaporized="">
        <emissions CO_abs="10815.756638" CO2_abs="466546.336055" HC_abs="60.093831" PMx_abs="8.465686" NOx_abs="191.380413" fuel_abs="200.551159" electricity_abs="0"/>
    </tripinfo>
    <tripinfo id="randUni15030:1" depart="57735.00" departLane="386687232#0_1" departPos="5.10" departSpeed="0.00" departDelay="0.10" arrival="57850.00" arrivalLane="26677539_1" arrivalPos="151.98" arrivalSpeed="9.18" duration="115.00" routeLength="919.89" waitingTime="26.00" waitingCount="1" stopTime="0.00" timeLoss="39.85" rerouteNo="1" devices="tripinfo_randUni15030:1 routing_randUni15030:1 emissions_randUni15030:1" vType="random_016" speedFactor="1.12" vaporized="">
        <emissions CO_abs="6950.937675" CO2_abs="272412.842650" HC_abs="37.958640" PMx_abs="5.057398" NOx_abs="112.817403" fuel_abs="117.100621" electricity_abs="0"/>
    </tripinfo>
    <tripinfo id="carIn8642:1" depart="57774.00" departLane="-447569998#1_1" departPos="5.10" departSpeed="0.00" departDelay="0.90" arrival="57851.00" arrivalLane="-315358244_1" arrivalPos="33.95" arrivalSpeed="14.40" duration="77.00" routeLength="706.49" waitingTime="10.00" waitingCount="1" stopTime="0.00" timeLoss="23.62" rerouteNo="1" devices="tripinfo_carIn8642:1 routing_carIn8642:1 emissions_carIn8642:1" vType="default_016" speedFactor="1.13" vaporized="">
        <emissions CO_abs="4004.316983" CO2_abs="197682.809646" HC_abs="22.726925" PMx_abs="3.438355" NOx_abs="79.880574" fuel_abs="84.976330" electricity_abs="0"/>
    </tripinfo>
    <tripinfo id="randUni31145:1" depart="57814.00" departLane="10425609#0_1" departPos="5.10" departSpeed="0.00" departDelay="0.30" arrival="57851.00" arrivalLane="201956810_1" arrivalPos="71.65" arrivalSpeed="13.80" duration="37.00" routeLength="255.78" waitingTime="10.00" waitingCount="1" stopTime="0.00" timeLoss="18.65" rerouteNo="1" devices="tripinfo_randUni31145:1 routing_randUni31145:1 emissions_randUni31145:1" vType="random_016" speedFactor="1.07" vaporized="">
        <emissions CO_abs="3192.226443" CO2_abs="129778.125559" HC_abs="17.606059" PMx_abs="2.595274" NOx_abs="55.240161" fuel_abs="55.786603" electricity_abs="0"/>
    </tripinfo>
    <tripinfo id="randUni2407:1" depart="57820.00" departLane="10425609#0_1" departPos="5.10" departSpeed="0.00" departDelay="0.80" arrival="57854.00" arrivalLane="201956810_1" arrivalPos="71.65" arrivalSpeed="12.32" duration="34.00" routeLength="255.78" waitingTime="5.00" waitingCount="1" stopTime="0.00" timeLoss="12.87" rerouteNo="1" devices="tripinfo_randUni2407:1 routing_randUni2407:1 emissions_randUni2407:1" vType="random_016" speedFactor="0.94" vaporized="">
        <emissions CO_abs="1979.922611" CO2_abs="97630.568322" HC_abs="11.311383" PMx_abs="1.829340" NOx_abs="40.964448" fuel_abs="41.967416" electricity_abs="0"/>
    </tripinfo>
    <tripinfo id="h17549c1:1" depart="57680.00" departLane="-447569998#1_1" departPos="5.10" departSpeed="0.00" departDelay="0.00" arrival="57857.00" arrivalLane="-315358254#1_1" arrivalPos="137.16" arrivalSpeed="12.92" duration="177.00" routeLength="1746.60" waitingTime="10.00" waitingCount="3" stopTime="0.00" timeLoss="34.53" rerouteNo="1" devices="tripinfo_h17549c1:1 routing_h17549c1:1 emissions_h17549c1:1" vType="default_016" speedFactor="0.96" vaporized="">
        <emissions CO_abs="5990.536956" CO2_abs="398662.151444" HC_abs="36.543857" PMx_abs="6.406027" NOx_abs="158.247913" fuel_abs="171.368725" electricity_abs="0"/>
    </tripinfo>
    <tripinfo id="carIn3969:1" depart="57629.00" departLane="124812856#0_1" departPos="5.10" departSpeed="0.00" departDelay="5.30" arrival="57858.00" arrivalLane="-128361102#1_1" arrivalPos="274.68" arrivalSpeed="12.51" duration="229.00" routeLength="2250.49" waitingTime="18.00" waitingCount="2" stopTime="0.00" timeLoss="57.33" rerouteNo="1" devices="tripinfo_carIn3969:1 routing_carIn3969:1 emissions_carIn3969:1" vType="default_016" speedFactor="0.96" vaporized="">
        <emissions CO_abs="8602.207482" CO2_abs="521626.324676" HC_abs="51.349862" PMx_abs="8.811682" NOx_abs="209.920124" fuel_abs="224.226035" electricity_abs="0"/>
    </tripinfo>
    <tripinfo id="carIn77943:1" depart="57608.00" departLane="124812856#0_1" departPos="5.10" departSpeed="0.00" departDelay="2.50" arrival="57859.00" arrivalLane="-128361102#1_1" arrivalPos="274.68" arrivalSpeed="14.05" duration="251.00" routeLength="2232.46" waitingTime="17.00" waitingCount="2" stopTime="0.00" timeLoss="117.16" rerouteNo="1" devices="tripinfo_carIn77943:1 routing_carIn77943:1 emissions_carIn77943:1" vType="default_016" speedFactor="1.22" vaporized="">
        <emissions CO_abs="11061.670932" CO2_abs="617542.480133" HC_abs="64.827798" PMx_abs="10.986834" NOx_abs="253.959305" fuel_abs="265.456214" electricity_abs="0"/>
    </tripinfo>
    <tripinfo id="carIn81046:1" depart="57611.00" departLane="124812856#0_1" departPos="5.10" departSpeed="0.00" departDelay="2.50" arrival="57861.00" arrivalLane="-128361102#1_1" arrivalPos="274.68" arrivalSpeed="15.36" duration="250.00" routeLength="2250.49" waitingTime="38.00" waitingCount="4" stopTime="0.00" timeLoss="104.55" rerouteNo="1" devices="tripinfo_carIn81046:1 routing_carIn81046:1 emissions_carIn81046:1" vType="default_016" speedFactor="1.13" vaporized="">
        <emissions CO_abs="12913.024880" CO2_abs="671962.211190" HC_abs="74.552914" PMx_abs="12.527585" NOx_abs="278.177882" fuel_abs="288.849079" electricity_abs="0"/>
    </tripinfo>
    <tripinfo id="h5216c1:1" depart="57664.00" departLane="224892339#0_1" departPos="5.10" departSpeed="0.00" departDelay="0.00" arrival="57863.00" arrivalLane="386687235_1" arrivalPos="80.84" arrivalSpeed="15.46" duration="199.00" routeLength="1823.78" waitingTime="46.00" waitingCount="3" stopTime="0.00" timeLoss="84.79" rerouteNo="1" devices="tripinfo_h5216c1:1 routing_h5216c1:1 emissions_h5216c1:1" vType="default_016" speedFactor="1.12" vaporized="">
        <emissions CO_abs="12706.440722" CO2_abs="598897.253879" HC_abs="72.009378" PMx_abs="11.681212" NOx_abs="250.215435" fuel_abs="257.441793" electricity_abs="0"/>
    </tripinfo>
    <tripinfo id="h9953c2:3" depart="57682.00" departLane="-54169231#2_1" departPos="5.10" departSpeed="0.00" departDelay="0.00" arrival="57865.00" arrivalLane="386687235_1" arrivalPos="80.84" arrivalSpeed="13.30" duration="183.00" routeLength="1535.60" waitingTime="32.00" waitingCount="2" stopTime="0.00" timeLoss="61.16" rerouteNo="1" devices="tripinfo_h9953c2:3 routing_h9953c2:3 emissions_h9953c2:3" vType="default_016" speedFactor="1.03" vaporized="">
        <emissions CO_abs="9672.038650" CO2_abs="458872.607538" HC_abs="54.718853" PMx_abs="8.236165" NOx_abs="188.219944" fuel_abs="197.251758" electricity_abs="0"/>
    </tripinfo>