<?xml version="1.0" encoding="UTF-8"?>

<!-- generated on 2021-10-26 11:07:35 by Eclipse SUMO sumo Version 1.10.0
<configuration xmlns:xsi="http://www.w3.org/2001/XMLSchema-instance" xsi:noNamespaceSchemaLocation="http://sumo.dlr.de/xsd/sumoConfiguration.xsd">

    <input>
        <net-file value="/Users/behradkoohy/sumo-scratchpad/RESCO/environments/ingolstadt21/ingolstadt21.net.xml"/>
        <route-files value="/Users/behradkoohy/sumo-scratchpad/RESCO/environments/ingolstadt21/ingolstadt21.rou.xml"/>
    </input>

    <output>
        <tripinfo-output value="/Users/behradkoohy/sumo-scratchpad/RESCO/logs/IDQN-tr0-ingolstadt21-21-drq_norm-wait_norm/tripinfo_9.xml"/>
        <tripinfo-output.write-unfinished value="true"/>
    </output>

    <time>
        <begin value="57600"/>
        <end value="61200"/>
    </time>

    <processing>
        <time-to-teleport value="-1"/>
    </processing>

    <report>
        <no-warnings value="true"/>
        <no-step-log value="true"/>
    </report>

    <emissions>
        <device.emissions.probability value="1"/>
    </emissions>

    <traci_server>
        <remote-port value="56759"/>
    </traci_server>

    <random_number>
        <random value="true"/>
    </random_number>

</configuration>
-->

<tripinfos xmlns:xsi="http://www.w3.org/2001/XMLSchema-instance" xsi:noNamespaceSchemaLocation="http://sumo.dlr.de/xsd/tripinfo_file.xsd">
    <tripinfo id="h15454c2:3" depart="57612.00" departLane="24608844_1" departPos="5.10" departSpeed="0.00" departDelay="0.50" arrival="57668.00" arrivalLane="32978638#0_1" arrivalPos="49.29" arrivalSpeed="12.27" duration="56.00" routeLength="354.79" waitingTime="11.00" waitingCount="1" stopTime="0.00" timeLoss="20.52" rerouteNo="1" devices="tripinfo_h15454c2:3 routing_h15454c2:3 emissions_h15454c2:3" vType="default_016" speedFactor="0.98" vaporized="">
        <emissions CO_abs="3485.931217" CO2_abs="141278.650849" HC_abs="19.163383" PMx_abs="2.577281" NOx_abs="58.795305" fuel_abs="60.730595" electricity_abs="0"/>
    </tripinfo>
    <tripinfo id="carIn60260:1" depart="57606.00" departLane="315358254#0_1" departPos="5.10" departSpeed="0.00" departDelay="0.90" arrival="57689.00" arrivalLane="399835085#1_1" arrivalPos="212.23" arrivalSpeed="7.18" duration="83.00" routeLength="430.98" waitingTime="30.00" waitingCount="1" stopTime="0.00" timeLoss="43.54" rerouteNo="1" devices="tripinfo_carIn60260:1 routing_carIn60260:1 emissions_carIn60260:1" vType="default_016" speedFactor="1.16" vaporized="">
        <emissions CO_abs="6777.842737" CO2_abs="203791.552714" HC_abs="35.637412" PMx_abs="4.134251" NOx_abs="87.395669" fuel_abs="87.603509" electricity_abs="0"/>
    </tripinfo>
    <tripinfo id="carIn53971:1" depart="57640.00" departLane="272042143_1" departPos="5.10" departSpeed="0.00" departDelay="0.80" arrival="57692.00" arrivalLane="24634414#1_1" arrivalPos="162.19" arrivalSpeed="7.86" duration="52.00" routeLength="493.04" waitingTime="0.00" waitingCount="0" stopTime="0.00" timeLoss="7.63" rerouteNo="1" devices="tripinfo_carIn53971:1 routing_carIn53971:1 emissions_carIn53971:1" vType="default_016" speedFactor="1.04" vaporized="">
        <emissions CO_abs="2370.125091" CO2_abs="146255.480996" HC_abs="14.181387" PMx_abs="2.469064" NOx_abs="59.125921" fuel_abs="62.869242" electricity_abs="0"/>
    </tripinfo>
    <tripinfo id="h3688c1:1" depart="57625.00" departLane="201201950#1_1" departPos="5.10" departSpeed="0.00" departDelay="0.00" arrival="57724.00" arrivalLane="32978638#0_1" arrivalPos="49.29" arrivalSpeed="13.24" duration="99.00" routeLength="1089.75" waitingTime="8.00" waitingCount="1" stopTime="0.00" timeLoss="21.31" rerouteNo="1" devices="tripinfo_h3688c1:1 routing_h3688c1:1 emissions_h3688c1:1" vType="default_016" speedFactor="1.02" vaporized="">
        <emissions CO_abs="3902.218419" CO2_abs="275038.174337" HC_abs="24.156662" PMx_abs="4.703697" NOx_abs="110.463207" fuel_abs="118.227192" electricity_abs="0"/>
    </tripinfo>
    <tripinfo id="h7800c1:5" depart="57696.00" departLane="-447569998#1_1" departPos="5.10" departSpeed="0.00" departDelay="0.00" arrival="57725.00" arrivalLane="-447569998#1_2" arrivalPos="180.76" arrivalSpeed="6.60" duration="29.00" routeLength="175.66" waitingTime="0.00" waitingCount="0" stopTime="0.00" timeLoss="3.25" rerouteNo="1" devices="tripinfo_h7800c1:5 routing_h7800c1:5 emissions_h7800c1:5" vType="default_016" speedFactor="0.85" vaporized="">
        <emissions CO_abs="1387.131101" CO2_abs="53369.053145" HC_abs="7.532032" PMx_abs="0.861688" NOx_abs="21.714016" fuel_abs="22.941638" electricity_abs="0"/>
    </tripinfo>
    <tripinfo id="S5R_frequency1.2" depart="57634.00" departLane="315358250#0_1" departPos="12.10" departSpeed="0.00" departDelay="22.40" arrival="57729.00" arrivalLane="386687235_1" arrivalPos="80.84" arrivalSpeed="13.60" duration="95.00" routeLength="1115.62" waitingTime="0.00" waitingCount="0" stopTime="0.00" timeLoss="13.52" rerouteNo="1" devices="tripinfo_S5R_frequency1.2 routing_S5R_frequency1.2 emissions_S5R_frequency1.2" vType="bus" speedFactor="1.00" vaporized="">
        <emissions CO_abs="1956.344428" CO2_abs="1264789.689260" HC_abs="403.541477" PMx_abs="210.179561" NOx_abs="9716.276136" fuel_abs="539.424844" electricity_abs="0"/>
    </tripinfo>
    <tripinfo id="h3568c1:3" depart="57656.00" departLane="266565295#5_1" departPos="5.10" departSpeed="0.00" departDelay="0.80" arrival="57735.00" arrivalLane="-24634415_1" arrivalPos="62.03" arrivalSpeed="12.56" duration="79.00" routeLength="807.40" waitingTime="0.00" waitingCount="0" stopTime="0.00" timeLoss="13.71" rerouteNo="1" devices="tripinfo_h3568c1:3 routing_h3568c1:3 emissions_h3568c1:3" vType="default_016" speedFactor="0.99" vaporized="">
        <emissions CO_abs="3424.037114" CO2_abs="214999.259686" HC_abs="20.612240" PMx_abs="3.708595" NOx_abs="87.322197" fuel_abs="92.419221" electricity_abs="0"/>
    </tripinfo>
    <tripinfo id="h317c2:1" depart="57707.00" departLane="-32978638#0_1" departPos="5.10" departSpeed="0.00" departDelay="0.10" arrival="57741.00" arrivalLane="-266565295#5_1" arrivalPos="172.76" arrivalSpeed="13.33" duration="34.00" routeLength="370.53" waitingTime="0.00" waitingCount="0" stopTime="0.00" timeLoss="5.96" rerouteNo="1" devices="tripinfo_h317c2:1 routing_h317c2:1 emissions_h317c2:1" vType="default_016" speedFactor="0.98" vaporized="">
        <emissions CO_abs="1648.888362" CO2_abs="105436.713320" HC_abs="9.988756" PMx_abs="1.868806" NOx_abs="43.099030" fuel_abs="45.322752" electricity_abs="0"/>
    </tripinfo>
    <tripinfo id="h3326c1:2" depart="57656.00" departLane="22716069#0_1" departPos="5.10" departSpeed="0.00" departDelay="0.00" arrival="57752.00" arrivalLane="24634517#13_1" arrivalPos="111.62" arrivalSpeed="15.84" duration="96.00" routeLength="1312.81" waitingTime="0.00" waitingCount="0" stopTime="0.00" timeLoss="15.03" rerouteNo="1" devices="tripinfo_h3326c1:2 routing_h3326c1:2 emissions_h3326c1:2" vType="default_016" speedFactor="1.20" vaporized="">
        <emissions CO_abs="4387.339278" CO2_abs="343043.695719" HC_abs="27.954867" PMx_abs="6.267185" NOx_abs="139.435740" fuel_abs="147.458924" electricity_abs="0"/>
    </tripinfo>
    <tripinfo id="h9563c2:5" depart="57631.00" departLane="315358244_1" departPos="5.10" departSpeed="0.00" departDelay="0.70" arrival="57753.00" arrivalLane="386687235_1" arrivalPos="80.84" arrivalSpeed="13.65" duration="122.00" routeLength="1186.14" waitingTime="10.00" waitingCount="2" stopTime="0.00" timeLoss="34.41" rerouteNo="1" devices="tripinfo_h9563c2:5 routing_h9563c2:5 emissions_h9563c2:5" vType="default_016" speedFactor="0.99" vaporized="">
        <emissions CO_abs="4520.852233" CO2_abs="286008.972195" HC_abs="27.259884" PMx_abs="4.802029" NOx_abs="114.896979" fuel_abs="122.943554" electricity_abs="0"/>
    </tripinfo>
    <tripinfo id="h4538c1:1" depart="57701.00" departLane="-10427692#1_1" departPos="5.10" departSpeed="0.00" departDelay="0.00" arrival="57754.00" arrivalLane="-128361102#1_1" arrivalPos="274.68" arrivalSpeed="14.20" duration="53.00" routeLength="440.74" waitingTime="14.00" waitingCount="1" stopTime="0.00" timeLoss="23.16" rerouteNo="1" devices="tripinfo_h4538c1:1 routing_h4538c1:1 emissions_h4538c1:1" vType="default_016" speedFactor="1.05" vaporized="">
        <emissions CO_abs="3284.744934" CO2_abs="145500.113424" HC_abs="18.278688" PMx_abs="2.700942" NOx_abs="60.038496" fuel_abs="62.544984" electricity_abs="0"/>
    </tripinfo>
    <tripinfo id="h12244c1:3" depart="57612.00" departLane="315358244_1" departPos="5.10" departSpeed="0.00" departDelay="0.40" arrival="57757.00" arrivalLane="386687235_1" arrivalPos="80.84" arrivalSpeed="10.75" duration="145.00" routeLength="1186.14" waitingTime="14.00" waitingCount="3" stopTime="0.00" timeLoss="38.79" rerouteNo="1" devices="tripinfo_h12244c1:3 routing_h12244c1:3 emissions_h12244c1:3" vType="default_016" speedFactor="0.81" vaporized="">
        <emissions CO_abs="5715.246176" CO2_abs="289425.602845" HC_abs="32.728827" PMx_abs="4.827509" NOx_abs="117.012816" fuel_abs="124.413150" electricity_abs="0"/>
    </tripinfo>
    <tripinfo id="h5979c1:5" depart="57669.00" departLane="399835085#1_1" departPos="5.10" departSpeed="0.00" departDelay="0.00" arrival="57769.00" arrivalLane="-315358254#1_1" arrivalPos="137.16" arrivalSpeed="12.66" duration="100.00" routeLength="659.33" waitingTime="7.00" waitingCount="1" stopTime="0.00" timeLoss="20.52" rerouteNo="1" devices="tripinfo_h5979c1:5 routing_h5979c1:5 emissions_h5979c1:5" vType="default_016" speedFactor="0.92" vaporized="">
        <emissions CO_abs="4180.152745" CO2_abs="184380.864427" HC_abs="23.286379" PMx_abs="3.124313" NOx_abs="75.655062" fuel_abs="79.258683" electricity_abs="0"/>
    </tripinfo>
    <tripinfo id="carIn27009:1" depart="57673.00" departLane="-447569998#1_1" departPos="5.10" departSpeed="0.00" departDelay="0.50" arrival="57773.00" arrivalLane="-26677539_1" arrivalPos="152.75" arrivalSpeed="7.38" duration="100.00" routeLength="699.63" waitingTime="3.00" waitingCount="1" stopTime="0.00" timeLoss="16.76" rerouteNo="1" devices="tripinfo_carIn27009:1 routing_carIn27009:1 emissions_carIn27009:1" vType="default_015" speedFactor="1.01" vaporized="">
        <emissions CO_abs="4077.090653" CO2_abs="187842.791968" HC_abs="22.883555" PMx_abs="3.088221" NOx_abs="76.505632" fuel_abs="80.746826" electricity_abs="0"/>
    </tripinfo>
    <tripinfo id="carIn30817:1" depart="57681.00" departLane="315358244_1" departPos="5.10" departSpeed="0.00" departDelay="0.20" arrival="57775.00" arrivalLane="447569997#1_1" arrivalPos="180.93" arrivalSpeed="6.85" duration="94.00" routeLength="718.04" waitingTime="10.00" waitingCount="1" stopTime="0.00" timeLoss="21.42" rerouteNo="1" devices="tripinfo_carIn30817:1 routing_carIn30817:1 emissions_carIn30817:1" vType="default_016" speedFactor="0.85" vaporized="">
        <emissions CO_abs="3742.351036" CO2_abs="178136.251911" HC_abs="21.161873" PMx_abs="2.998192" NOx_abs="72.439414" fuel_abs="76.574181" electricity_abs="0"/>
    </tripinfo>
    <tripinfo id="h330c1:1" depart="57736.00" departLane="-32978638#0_1" departPos="5.10" departSpeed="0.00" departDelay="0.20" arrival="57776.00" arrivalLane="-266565295#5_1" arrivalPos="172.76" arrivalSpeed="12.80" duration="40.00" routeLength="370.53" waitingTime="2.00" waitingCount="1" stopTime="0.00" timeLoss="11.60" rerouteNo="1" devices="tripinfo_h330c1:1 routing_h330c1:1 emissions_h330c1:1" vType="default_016" speedFactor="0.99" vaporized="">
        <emissions CO_abs="1923.628909" CO2_abs="117501.799707" HC_abs="11.513255" PMx_abs="2.047634" NOx_abs="47.870097" fuel_abs="50.509139" electricity_abs="0"/>
    </tripinfo>
    <tripinfo id="carIn22761:1" depart="57616.00" departLane="-306240162#1_0" departPos="5.10" departSpeed="0.00" departDelay="2.10" arrival="57784.00" arrivalLane="399835085#1_1" arrivalPos="212.23" arrivalSpeed="5.67" duration="168.00" routeLength="1093.26" waitingTime="65.00" waitingCount="1" stopTime="0.00" timeLoss="94.50" rerouteNo="1" devices="tripinfo_carIn22761:1 routing_carIn22761:1 emissions_carIn22761:1" vType="default_016" speedFactor="1.07" vaporized="">
        <emissions CO_abs="16720.932209" CO2_abs="543962.296901" HC_abs="89.072375" PMx_abs="11.571773" NOx_abs="233.832303" fuel_abs="233.830406" electricity_abs="0"/>
    </tripinfo>
    <tripinfo id="h11737c1:1" depart="57665.00" departLane="272042143_1" departPos="5.10" departSpeed="0.00" departDelay="1.50" arrival="57792.00" arrivalLane="-315358254#1_1" arrivalPos="137.16" arrivalSpeed="14.58" duration="127.00" routeLength="1596.88" waitingTime="5.00" waitingCount="1" stopTime="0.00" timeLoss="24.47" rerouteNo="1" devices="tripinfo_h11737c1:1 routing_h11737c1:1 emissions_h11737c1:1" vType="default_016" speedFactor="1.14" vaporized="">
        <emissions CO_abs="4207.929480" CO2_abs="334991.763426" HC_abs="26.850068" PMx_abs="5.764870" NOx_abs="133.605264" fuel_abs="143.998261" electricity_abs="0"/>
    </tripinfo>
    <tripinfo id="carIn107282:1" depart="57749.00" departLane="-447569998#1_1" departPos="5.10" departSpeed="0.00" departDelay="0.00" arrival="57793.00" arrivalLane="315358242#0_1" arrivalPos="165.37" arrivalSpeed="15.34" duration="44.00" routeLength="448.50" waitingTime="0.00" waitingCount="0" stopTime="0.00" timeLoss="5.86" rerouteNo="1" devices="tripinfo_carIn107282:1 routing_carIn107282:1 emissions_carIn107282:1" vType="default_016" speedFactor="1.11" vaporized="">
        <emissions CO_abs="2055.213535" CO2_abs="127434.295253" HC_abs="12.340367" PMx_abs="2.183004" NOx_abs="51.575489" fuel_abs="54.778748" electricity_abs="0"/>
    </tripinfo>
    <tripinfo id="h3154c1:1" depart="57658.00" departLane="24634507_1" departPos="5.10" departSpeed="0.00" departDelay="0.00" arrival="57800.00" arrivalLane="-266565295#5_1" arrivalPos="172.76" arrivalSpeed="11.63" duration="142.00" routeLength="1206.22" waitingTime="17.00" waitingCount="2" stopTime="0.00" timeLoss="39.13" rerouteNo="1" devices="tripinfo_h3154c1:1 routing_h3154c1:1 emissions_h3154c1:1" vType="default_016" speedFactor="0.87" vaporized="">
        <emissions CO_abs="6130.563931" CO2_abs="321210.933764" HC_abs="35.387641" PMx_abs="5.461307" NOx_abs="130.210242" fuel_abs="138.076159" electricity_abs="0"/>
    </tripinfo>
    <tripinfo id="carIn121703:1" depart="57647.00" departLane="386687232#0_1" departPos="5.10" departSpeed="0.00" departDelay="0.30" arrival="57803.00" arrivalLane="-315358244_1" arrivalPos="33.95" arrivalSpeed="12.57" duration="156.00" routeLength="1157.39" waitingTime="48.00" waitingCount="3" stopTime="0.00" timeLoss="69.95" rerouteNo="1" devices="tripinfo_carIn121703:1 routing_carIn121703:1 emissions_carIn121703:1" vType="default_016" speedFactor="0.98" vaporized="">
        <emissions CO_abs="9951.144347" CO2_abs="384120.552238" HC_abs="54.328273" PMx_abs="7.318740" NOx_abs="160.250128" fuel_abs="165.119667" electricity_abs="0"/>
    </tripinfo>
    <tripinfo id="carIn80064:1" depart="57603.00" departLane="128361109#1_1" departPos="5.10" departSpeed="0.00" departDelay="0.40" arrival="57806.00" arrivalLane="-315358254#1_1" arrivalPos="137.16" arrivalSpeed="14.97" duration="203.00" routeLength="1587.97" waitingTime="74.00" waitingCount="4" stopTime="0.00" timeLoss="120.84" rerouteNo="1" devices="tripinfo_carIn80064:1 routing_carIn80064:1 emissions_carIn80064:1" vType="default_016" speedFactor="1.08" vaporized="">
        <emissions CO_abs="18149.714016" CO2_abs="695354.124774" HC_abs="99.231100" PMx_abs="14.693492" NOx_abs="296.078440" fuel_abs="298.906078" electricity_abs="0"/>
    </tripinfo>
    <tripinfo id="h7181c1:1" depart="57660.00" departLane="315358254#0_1" departPos="5.10" departSpeed="0.00" departDelay="0.10" arrival="57812.00" arrivalLane="306240162#0_0" arrivalPos="220.43" arrivalSpeed="14.25" duration="152.00" routeLength="932.35" waitingTime="79.00" waitingCount="2" stopTime="0.00" timeLoss="95.56" rerouteNo="1" devices="tripinfo_h7181c1:1 routing_h7181c1:1 emissions_h7181c1:1" vType="default_016" speedFactor="0.92" vaporized="">
        <emissions CO_abs="15094.303715" CO2_abs="428494.269051" HC_abs="78.839738" PMx_abs="9.277538" NOx_abs="185.191415" fuel_abs="184.196124" electricity_abs="0"/>
    </tripinfo>
    <tripinfo id="carIn82278:1" depart="57702.00" departLane="-306240162#1_0" departPos="5.10" departSpeed="0.00" departDelay="0.70" arrival="57813.00" arrivalLane="399835085#1_1" arrivalPos="212.23" arrivalSpeed="7.50" duration="111.00" routeLength="1093.26" waitingTime="2.00" waitingCount="1" stopTime="0.00" timeLoss="29.65" rerouteNo="1" devices="tripinfo_carIn82278:1 routing_carIn82278:1 emissions_carIn82278:1" vType="default_016" speedFactor="0.96" vaporized="">
        <emissions CO_abs="5684.060065" CO2_abs="332294.873567" HC_abs="33.760863" PMx_abs="6.221985" NOx_abs="137.130206" fuel_abs="142.839411" electricity_abs="0"/>
    </tripinfo>
    <tripinfo id="carIn118591:1" depart="57689.00" departLane="315358244_1" departPos="5.10" departSpeed="0.00" departDelay="0.20" arrival="57824.00" arrivalLane="386687235_1" arrivalPos="80.84" arrivalSpeed="12.75" duration="135.00" routeLength="1186.14" waitingTime="19.00" waitingCount="4" stopTime="0.00" timeLoss="46.73" rerouteNo="1" devices="tripinfo_carIn118591:1 routing_carIn118591:1 emissions_carIn118591:1" vType="default_016" speedFactor="0.98" vaporized="">
        <emissions CO_abs="5956.117985" CO2_abs="317092.231389" HC_abs="34.511923" PMx_abs="5.425138" NOx_abs="128.084138" fuel_abs="136.305623" electricity_abs="0"/>
    </tripinfo>
    <tripinfo id="carIn129809:1" depart="57729.00" departLane="-447569998#1_1" departPos="5.10" departSpeed="0.00" departDelay="1.00" arrival="57826.00" arrivalLane="-315358244_1" arrivalPos="33.95" arrivalSpeed="11.72" duration="97.00" routeLength="706.49" waitingTime="19.00" waitingCount="1" stopTime="0.00" timeLoss="28.82" rerouteNo="1" devices="tripinfo_carIn129809:1 routing_carIn129809:1 emissions_carIn129809:1" vType="default_015" speedFactor="0.88" vaporized="">
        <emissions CO_abs="5166.412263" CO2_abs="191623.617089" HC_abs="27.950367" PMx_abs="3.343215" NOx_abs="78.412768" fuel_abs="82.372725" electricity_abs="0"/>
    </tripinfo>
    <tripinfo id="carIn126288:1" depart="57674.00" departLane="272042143_1" departPos="5.10" departSpeed="0.00" departDelay="0.00" arrival="57827.00" arrivalLane="-315358254#1_1" arrivalPos="137.16" arrivalSpeed="14.39" duration="153.00" routeLength="1596.88" waitingTime="24.00" waitingCount="1" stopTime="0.00" timeLoss="40.84" rerouteNo="1" devices="tripinfo_carIn126288:1 routing_carIn126288:1 emissions_carIn126288:1" vType="default_016" speedFactor="1.04" vaporized="">
        <emissions CO_abs="7170.577977" CO2_abs="384686.341962" HC_abs="41.654291" PMx_abs="6.837910" NOx_abs="156.013830" fuel_abs="165.361367" electricity_abs="0"/>
    </tripinfo>
    <tripinfo id="h17549c1:1" depart="57680.00" departLane="-447569998#1_1" departPos="5.10" departSpeed="0.00" departDelay="0.00" arrival="57829.00" arrivalLane="-315358254#1_1" arrivalPos="137.16" arrivalSpeed="14.21" duration="149.00" routeLength="1746.60" waitingTime="0.00" waitingCount="0" stopTime="0.00" timeLoss="18.58" rerouteNo="1" devices="tripinfo_h17549c1:1 routing_h17549c1:1 emissions_h17549c1:1" vType="default_016" speedFactor="1.05" vaporized="">
        <emissions CO_abs="4733.800985" CO2_abs="364181.789637" HC_abs="30.020306" PMx_abs="5.807778" NOx_abs="143.162356" fuel_abs="156.546559" electricity_abs="0"/>
    </tripinfo>
    <tripinfo id="carIn12152:1" depart="57647.00" departLane="24599188#0.94_1" departPos="5.10" departSpeed="0.00" departDelay="0.50" arrival="57830.00" arrivalLane="-315358254#1_1" arrivalPos="137.16" arrivalSpeed="14.96" duration="183.00" routeLength="2034.31" waitingTime="10.00" waitingCount="2" stopTime="0.00" timeLoss="38.51" rerouteNo="1" devices="tripinfo_carIn12152:1 routing_carIn12152:1 emissions_carIn12152:1" vType="default_016" speedFactor="1.09" vaporized="">
        <emissions CO_abs="7021.484183" CO2_abs="481897.181313" HC_abs="43.170459" PMx_abs="8.204013" NOx_abs="192.783735" fuel_abs="207.147336" electricity_abs="0"/>
    </tripinfo>
    <tripinfo id="randUni31145:1" depart="57814.00" departLane="10425609#0_1" departPos="5.10" departSpeed="0.00" departDelay="0.30" arrival="57841.00" arrivalLane="201956810_1" arrivalPos="71.65" arrivalSpeed="13.12" duration="27.00" routeLength="255.78" waitingTime="0.00" waitingCount="0" stopTime="0.00" timeLoss="5.48" rerouteNo="1" devices="tripinfo_randUni31145:1 routing_randUni31145:1 emissions_randUni31145:1" vType="random_016" speedFactor="0.96" vaporized="">
        <emissions CO_abs="1563.692880" CO2_abs="96123.579050" HC_abs="9.371511" PMx_abs="1.720214" NOx_abs="39.556803" fuel_abs="41.319441" electricity_abs="0"/>
    </tripinfo>
    <tripinfo id="h3864c1:3" depart="57678.00" departLane="24693977#1_1" departPos="5.10" departSpeed="0.00" departDelay="0.00" arrival="57844.00" arrivalLane="201956820_2" arrivalPos="48.33" arrivalSpeed="12.48" duration="166.00" routeLength="1574.85" waitingTime="7.00" waitingCount="1" stopTime="0.00" timeLoss="28.73" rerouteNo="1" devices="tripinfo_h3864c1:3 routing_h3864c1:3 emissions_h3864c1:3" vType="default_016" speedFactor="0.94" vaporized="">
        <emissions CO_abs="6148.381599" CO2_abs="379867.401878" HC_abs="36.844315" PMx_abs="6.331275" NOx_abs="153.038523" fuel_abs="163.289571" electricity_abs="0"/>
    </tripinfo>
    <tripinfo id="50R_frequency3.17" depart="57674.00" departLane="-18809673#6_1" departPos="12.10" departSpeed="0.00" departDelay="0.70" arrival="57858.00" arrivalLane="201956811#0_1" arrivalPos="40.40" arrivalSpeed="13.78" duration="184.00" routeLength="1954.47" waitingTime="14.00" waitingCount="1" stopTime="0.00" timeLoss="38.98" rerouteNo="1" devices="tripinfo_50R_frequency3.17 routing_50R_frequency3.17 emissions_50R_frequency3.17" vType="bus" speedFactor="1.00" vaporized="">
        <emissions CO_abs="3482.817259" CO2_abs="2137221.619920" HC_abs="735.868820" PMx_abs="372.270727" NOx_abs="16706.667448" fuel_abs="911.484995" electricity_abs="0"/>
    </tripinfo>
    <tripinfo id="randUni2407:1" depart="57820.00" departLane="10425609#0_1" departPos="5.10" departSpeed="0.00" departDelay="0.80" arrival="57862.00" arrivalLane="201956810_1" arrivalPos="71.65" arrivalSpeed="12.35" duration="42.00" routeLength="255.78" waitingTime="6.00" waitingCount="2" stopTime="0.00" timeLoss="20.30" rerouteNo="1" devices="tripinfo_randUni2407:1 routing_randUni2407:1 emissions_randUni2407:1" vType="random_016" speedFactor="0.90" vaporized="">
        <emissions CO_abs="2515.266006" CO2_abs="114916.232643" HC_abs="14.155695" PMx_abs="2.188981" NOx_abs="48.520780" fuel_abs="49.397917" electricity_abs="0"/>
    </tripinfo>
    <tripinfo id="carIn48184:1" depart="57613.00" departLane="-306240162#1_0" departPos="5.10" departSpeed="0.00" departDelay="0.70" arrival="57863.00" arrivalLane="386687235_2" arrivalPos="80.84" arrivalSpeed="15.24" duration="250.00" routeLength="2257.41" waitingTime="75.00" waitingCount="4" stopTime="0.00" timeLoss="116.81" rerouteNo="1" devices="tripinfo_carIn48184:1 routing_carIn48184:1 emissions_carIn48184:1" vType="default_016" speedFactor="1.12" vaporized="">
        <emissions CO_abs="18969.333376" CO2_abs="784638.326539" HC_abs="104.986032" PMx_abs="15.834510" NOx_abs="329.852231" fuel_abs="337.285719" electricity_abs="0"/>
    </tripinfo>
    <tripinfo id="h9953c2:3" depart="57682.00" departLane="-54169231#2_1" departPos="5.10" departSpeed="0.00" departDelay="0.00" arrival="57863.00" arrivalLane="386687235_1" arrivalPos="80.84" arrivalSpeed="15.64" duration="181.00" routeLength="1535.60" waitingTime="41.00" waitingCount="2" stopTime="0.00" timeLoss="68.78" rerouteNo="1" devices="tripinfo_h9953c2:3 routing_h9953c2:3 emissions_h9953c2:3" vType="default_016" speedFactor="1.13" vaporized="">
        <emissions CO_abs="11349.638742" CO2_abs="512688.210363" HC_abs="63.675151" PMx_abs="9.673734" NOx_abs="212.676600" fuel_abs="220.384834" electricity_abs="0"/>
    </tripinfo>
    <tripinfo id="carIn8642:1" depart="57774.00" departLane="-447569998#1_1" departPos="5.10" departSpeed="0.00" departDelay="0.90" arrival="57863.00" arrivalLane="-315358244_1" arrivalPos="33.95" arrivalSpeed="14.61" duration="89.00" routeLength="706.49" waitingTime="24.00" waitingCount="1" stopTime="0.00" timeLoss="35.18" rerouteNo="1" devices="tripinfo_carIn8642:1 routing_carIn8642:1 emissions_carIn8642:1" vType="default_016" speedFactor="1.14" vaporized="">
        <emissions CO_abs="6340.370961" CO2_abs="242010.538178" HC_abs="34.457371" PMx_abs="4.661694" NOx_abs="101.161789" fuel_abs="104.031639" electricity_abs="0"/>
    </tripinfo>
    <tripinfo id="carIn82220:1" depart="57619.00" departLane="-306240162#1_0" departPos="5.10" departSpeed="0.00" departDelay="3.50" arrival="57865.00" arrivalLane="386687235_1" arrivalPos="80.84" arrivalSpeed="13.84" duration="246.00" routeLength="2257.41" waitingTime="62.00" waitingCount="2" stopTime="0.00" timeLoss="101.10" rerouteNo="1" devices="tripinfo_carIn82220:1 routing_carIn82220:1 emissions_carIn82220:1" vType="default_016" speedFactor="1.02" vaporized="">
        <emissions CO_abs="16575.144177" CO2_abs="708365.697993" HC_abs="92.194405" PMx_abs="13.858344" NOx_abs="295.615740" fuel_abs="304.499190" electricity_abs="0"/>
    </tripinfo>
    <tripinfo id="carIn12858:1" depart="57661.00" departLane="128361109#1_1" departPos="5.10" departSpeed="0.00" departDelay="0.90" arrival="57868.00" arrivalLane="399835085#1_1" arrivalPos="212.23" arrivalSpeed="8.76" duration="207.00" routeLength="1738.12" waitingTime="72.00" waitingCount="3" stopTime="0.00" timeLoss="108.19" rerouteNo="1" devices="tripinfo_carIn12858:1 routing_carIn12858:1 emissions_carIn12858:1" vType="default_016" speedFactor="1.16" vaporized="">
        <emissions CO_abs="18675.528425" CO2_abs="700062.836708" HC_abs="101.765501" PMx_abs="14.880870" NOx_abs="299.466938" fuel_abs="300.930305" electricity_abs="0"/>
    </tripinfo>
    <tripinfo id="carIn73855:1" depart="57743.00" departLane="386687232#0_1" departPos="5.10" departSpeed="0.00" departDelay="0.50" arrival="57872.00" arrivalLane="-315358244_2" arrivalPos="33.95" arrivalSpeed="15.19" duration="129.00" routeLength="1157.39" waitingTime="33.00" waitingCount="2" stopTime="0.00" timeLoss="52.63" rerouteNo="1" devices="tripinfo_carIn73855:1 routing_carIn73855:1 emissions_carIn73855:1" vType="default_016" speedFactor="1.10" vaporized="">
        <emissions CO_abs="7686.302051" CO2_abs="328742.516043" HC_abs="42.581204" PMx_abs="6.098838" NOx_abs="134.927625" fuel_abs="141.314267" electricity_abs="0"/>
    </tripinfo>
    <tripinfo id="carIn81860:1" depart="57712.00" departLane="128361102#0_1" departPos="5.10" departSpeed="0.00" departDelay="0.60" arrival="57875.00" arrivalLane="-24634517#17_1" arrivalPos="6.43" arrivalSpeed="7.44" duration="163.00" routeLength="1229.64" waitingTime="54.00" waitingCount="1" stopTime="0.00" timeLoss="75.58" rerouteNo="1" devices="tripinfo_carIn81860:1 routing_carIn81860:1 emissions_carIn81860:1" vType="default_016" speedFactor="1.04" vaporized="">
        <emissions CO_abs="12463.096611" CO2_abs="429218.036854" HC_abs="66.713610" PMx_abs="8.276404" NOx_abs="179.081733" fuel_abs="184.506505" electricity_abs="0"/>
    </tripinfo>
    <tripinfo id="randUni15030:1" depart="57735.00" departLane="386687232#0_1" departPos="5.10" departSpeed="0.00" departDelay="0.10" arrival="57880.00" arrivalLane="26677539_1" arrivalPos="151.98" arrivalSpeed="6.67" duration="145.00" routeLength="919.89" waitingTime="34.00" waitingCount="1" stopTime="0.00" timeLoss="50.85" rerouteNo="1" devices="tripinfo_randUni15030:1 routing_randUni15030:1 emissions_randUni15030:1" vType="random_016" speedFactor="0.89" vaporized="">
        <emissions CO_abs="8843.181442" CO2_abs="287889.769055" HC_abs="46.938083" PMx_abs="5.325814" NOx_abs="119.954597" fuel_abs="123.754837" electricity_abs="0"/>
    </tripinfo>
    <tripinfo id="h645c1:1" depart="57622.00" departLane="266565295#5_1" departPos="5.10" departSpeed="0.00" departDelay="0.40" arrival="57884.00" arrivalLane="-315358244_1" arrivalPos="33.95" arrivalSpeed="10.46" duration="262.00" routeLength="1910.83" waitingTime="60.00" waitingCount="5" stopTime="0.00" timeLoss="94.37" rerouteNo="1" devices="tripinfo_h645c1:1 routing_h645c1:1 emissions_h645c1:1" vType="default_016" speedFactor="0.83" vaporized="">
        <emissions CO_abs="13971.037190" CO2_abs="547504.077964" HC_abs="76.302433" PMx_abs="9.616129" NOx_abs="224.092637" fuel_abs="235.353357" electricity_abs="0"/>
    </tripinfo>
    <tripinfo id="carIn126378:1" depart="57746.00" departLane="386687232#0_1" departPos="5.10" departSpeed="0.00" departDelay="1.80" arrival="57886.00" arrivalLane="-315358244_1" arrivalPos="33.95" arrivalSpeed="11.60" duration="140.00" routeLength="1157.39" waitingTime="27.00" waitingCount="1" stopTime="0.00" timeLoss="42.37" rerouteNo="1" devices="tripinfo_carIn126378:1 routing_carIn126378:1 emissions_carIn126378:1" vType="default_016" speedFactor="0.87" vaporized="">
        <emissions CO_abs="7579.024414" CO2_abs="308851.652880" HC_abs="41.666323" PMx_abs="5.333653" NOx_abs="125.320003" fuel_abs="132.764740" electricity_abs="0"/>
    </tripinfo>
    <tripinfo id="carIn70533:1" depart="57812.00" departLane="-447569998#1_1" departPos="5.10" departSpeed="0.00" departDelay="0.10" arrival="57887.00" arrivalLane="-315358244_1" arrivalPos="33.95" arrivalSpeed="13.84" duration="75.00" routeLength="706.49" waitingTime="8.00" waitingCount="1" stopTime="0.00" timeLoss="22.66" rerouteNo="1" devices="tripinfo_carIn70533:1 routing_carIn70533:1 emissions_carIn70533:1" vType="default_016" speedFactor="1.16" vaporized="">
        <emissions CO_abs="3173.480199" CO2_abs="187702.132420" HC_abs="18.795375" PMx_abs="3.337031" NOx_abs="76.740817" fuel_abs="80.685333" electricity_abs="0"/>
    </tripinfo>