<?xml version="1.0" encoding="UTF-8"?>

<!-- generated on 2021-10-26 11:09:07 by Eclipse SUMO sumo Version 1.10.0
<configuration xmlns:xsi="http://www.w3.org/2001/XMLSchema-instance" xsi:noNamespaceSchemaLocation="http://sumo.dlr.de/xsd/sumoConfiguration.xsd">

    <input>
        <net-file value="/Users/behradkoohy/sumo-scratchpad/RESCO/environments/ingolstadt21/ingolstadt21.net.xml"/>
        <route-files value="/Users/behradkoohy/sumo-scratchpad/RESCO/environments/ingolstadt21/ingolstadt21.rou.xml"/>
    </input>

    <output>
        <tripinfo-output value="/Users/behradkoohy/sumo-scratchpad/RESCO/logs/IDQN-tr0-ingolstadt21-21-drq_norm-wait_norm/tripinfo_10.xml"/>
        <tripinfo-output.write-unfinished value="true"/>
    </output>

    <time>
        <begin value="57600"/>
        <end value="61200"/>
    </time>

    <processing>
        <time-to-teleport value="-1"/>
    </processing>

    <report>
        <no-warnings value="true"/>
        <no-step-log value="true"/>
    </report>

    <emissions>
        <device.emissions.probability value="1"/>
    </emissions>

    <traci_server>
        <remote-port value="56778"/>
    </traci_server>

    <random_number>
        <random value="true"/>
    </random_number>

</configuration>
-->

<tripinfos xmlns:xsi="http://www.w3.org/2001/XMLSchema-instance" xsi:noNamespaceSchemaLocation="http://sumo.dlr.de/xsd/tripinfo_file.xsd">
    <tripinfo id="carIn60260:1" depart="57606.00" departLane="315358254#0_1" departPos="5.10" departSpeed="0.00" departDelay="0.90" arrival="57660.00" arrivalLane="399835085#1_1" arrivalPos="212.23" arrivalSpeed="8.28" duration="54.00" routeLength="430.98" waitingTime="0.00" waitingCount="0" stopTime="0.00" timeLoss="7.76" rerouteNo="1" devices="tripinfo_carIn60260:1 routing_carIn60260:1 emissions_carIn60260:1" vType="default_016" speedFactor="1.00" vaporized="">
        <emissions CO_abs="2250.271055" CO2_abs="110301.432041" HC_abs="12.779316" PMx_abs="1.760449" NOx_abs="44.404284" fuel_abs="47.414575" electricity_abs="0"/>
    </tripinfo>
    <tripinfo id="h15454c2:3" depart="57612.00" departLane="24608844_1" departPos="5.10" departSpeed="0.00" departDelay="0.50" arrival="57668.00" arrivalLane="32978638#0_1" arrivalPos="49.29" arrivalSpeed="11.87" duration="56.00" routeLength="354.79" waitingTime="8.00" waitingCount="1" stopTime="0.00" timeLoss="19.16" rerouteNo="1" devices="tripinfo_h15454c2:3 routing_h15454c2:3 emissions_h15454c2:3" vType="default_016" speedFactor="0.92" vaporized="">
        <emissions CO_abs="3213.065364" CO2_abs="133486.459522" HC_abs="17.722070" PMx_abs="2.336540" NOx_abs="54.967859" fuel_abs="57.381090" electricity_abs="0"/>
    </tripinfo>
    <tripinfo id="carIn53971:1" depart="57640.00" departLane="272042143_1" departPos="5.10" departSpeed="0.00" departDelay="0.80" arrival="57693.00" arrivalLane="24634414#1_1" arrivalPos="162.19" arrivalSpeed="7.93" duration="53.00" routeLength="493.04" waitingTime="0.00" waitingCount="0" stopTime="0.00" timeLoss="8.34" rerouteNo="1" devices="tripinfo_carIn53971:1 routing_carIn53971:1 emissions_carIn53971:1" vType="default_016" speedFactor="1.02" vaporized="">
        <emissions CO_abs="2365.761189" CO2_abs="135143.927178" HC_abs="13.927803" PMx_abs="2.344184" NOx_abs="55.271091" fuel_abs="58.092875" electricity_abs="0"/>
    </tripinfo>
    <tripinfo id="carIn22761:1" depart="57616.00" departLane="-306240162#1_0" departPos="5.10" departSpeed="0.00" departDelay="2.10" arrival="57709.00" arrivalLane="399835085#1_1" arrivalPos="212.23" arrivalSpeed="8.44" duration="93.00" routeLength="1093.26" waitingTime="0.00" waitingCount="0" stopTime="0.00" timeLoss="22.51" rerouteNo="1" devices="tripinfo_carIn22761:1 routing_carIn22761:1 emissions_carIn22761:1" vType="default_016" speedFactor="1.10" vaporized="">
        <emissions CO_abs="5689.544041" CO2_abs="357943.894929" HC_abs="34.461462" PMx_abs="6.945176" NOx_abs="148.881201" fuel_abs="153.864133" electricity_abs="0"/>
    </tripinfo>
    <tripinfo id="h7800c1:5" depart="57696.00" departLane="-447569998#1_1" departPos="5.10" departSpeed="0.00" departDelay="0.00" arrival="57721.00" arrivalLane="-447569998#1_2" arrivalPos="180.76" arrivalSpeed="8.04" duration="25.00" routeLength="175.66" waitingTime="0.00" waitingCount="0" stopTime="0.00" timeLoss="3.13" rerouteNo="1" devices="tripinfo_h7800c1:5 routing_h7800c1:5 emissions_h7800c1:5" vType="default_016" speedFactor="0.97" vaporized="">
        <emissions CO_abs="1253.684047" CO2_abs="53597.054970" HC_abs="6.927559" PMx_abs="0.828472" NOx_abs="21.512847" fuel_abs="23.039592" electricity_abs="0"/>
    </tripinfo>
    <tripinfo id="h317c2:1" depart="57707.00" departLane="-32978638#0_1" departPos="5.10" departSpeed="0.00" departDelay="0.10" arrival="57745.00" arrivalLane="-266565295#5_1" arrivalPos="172.76" arrivalSpeed="11.26" duration="38.00" routeLength="370.53" waitingTime="0.00" waitingCount="0" stopTime="0.00" timeLoss="4.98" rerouteNo="1" devices="tripinfo_h317c2:1 routing_h317c2:1 emissions_h317c2:1" vType="default_016" speedFactor="0.84" vaporized="">
        <emissions CO_abs="1500.392395" CO2_abs="90308.509031" HC_abs="8.933364" PMx_abs="1.509364" NOx_abs="36.523298" fuel_abs="38.819976" electricity_abs="0"/>
    </tripinfo>
    <tripinfo id="carIn80064:1" depart="57603.00" departLane="128361109#1_1" departPos="5.10" departSpeed="0.00" departDelay="0.40" arrival="57746.00" arrivalLane="-315358254#1_1" arrivalPos="137.16" arrivalSpeed="14.88" duration="143.00" routeLength="1587.97" waitingTime="23.00" waitingCount="3" stopTime="0.00" timeLoss="61.98" rerouteNo="1" devices="tripinfo_carIn80064:1 routing_carIn80064:1 emissions_carIn80064:1" vType="default_016" speedFactor="1.10" vaporized="">
        <emissions CO_abs="10150.427643" CO2_abs="549629.484956" HC_abs="59.382407" PMx_abs="11.270742" NOx_abs="231.056305" fuel_abs="236.261651" electricity_abs="0"/>
    </tripinfo>
    <tripinfo id="h7181c1:1" depart="57660.00" departLane="315358254#0_1" departPos="5.10" departSpeed="0.00" departDelay="0.10" arrival="57750.00" arrivalLane="306240162#0_0" arrivalPos="220.43" arrivalSpeed="17.61" duration="90.00" routeLength="932.35" waitingTime="23.00" waitingCount="2" stopTime="0.00" timeLoss="42.70" rerouteNo="1" devices="tripinfo_h7181c1:1 routing_h7181c1:1 emissions_h7181c1:1" vType="default_016" speedFactor="1.09" vaporized="">
        <emissions CO_abs="6841.671437" CO2_abs="331932.470737" HC_abs="39.099261" PMx_abs="6.964567" NOx_abs="140.770535" fuel_abs="142.683580" electricity_abs="0"/>
    </tripinfo>
    <tripinfo id="h3688c1:1" depart="57625.00" departLane="201201950#1_1" departPos="5.10" departSpeed="0.00" departDelay="0.00" arrival="57752.00" arrivalLane="32978638#0_1" arrivalPos="49.29" arrivalSpeed="12.43" duration="127.00" routeLength="1089.75" waitingTime="26.00" waitingCount="1" stopTime="0.00" timeLoss="43.55" rerouteNo="1" devices="tripinfo_h3688c1:1 routing_h3688c1:1 emissions_h3688c1:1" vType="default_016" speedFactor="0.96" vaporized="">
        <emissions CO_abs="6959.192704" CO2_abs="319750.222020" HC_abs="39.151813" PMx_abs="5.639110" NOx_abs="130.126673" fuel_abs="137.448762" electricity_abs="0"/>
    </tripinfo>
    <tripinfo id="carIn30817:1" depart="57681.00" departLane="315358244_1" departPos="5.10" departSpeed="0.00" departDelay="0.20" arrival="57754.00" arrivalLane="447569997#1_1" arrivalPos="180.93" arrivalSpeed="6.80" duration="73.00" routeLength="718.04" waitingTime="0.00" waitingCount="0" stopTime="0.00" timeLoss="7.32" rerouteNo="1" devices="tripinfo_carIn30817:1 routing_carIn30817:1 emissions_carIn30817:1" vType="default_016" speedFactor="0.94" vaporized="">
        <emissions CO_abs="2199.143641" CO2_abs="141269.630480" HC_abs="13.273107" PMx_abs="2.175022" NOx_abs="55.694408" fuel_abs="60.726283" electricity_abs="0"/>
    </tripinfo>
    <tripinfo id="h3326c1:2" depart="57656.00" departLane="22716069#0_1" departPos="5.10" departSpeed="0.00" departDelay="0.00" arrival="57766.00" arrivalLane="24634517#13_1" arrivalPos="111.62" arrivalSpeed="13.65" duration="110.00" routeLength="1312.81" waitingTime="0.00" waitingCount="0" stopTime="0.00" timeLoss="15.56" rerouteNo="1" devices="tripinfo_h3326c1:2 routing_h3326c1:2 emissions_h3326c1:2" vType="default_016" speedFactor="1.02" vaporized="">
        <emissions CO_abs="4114.502953" CO2_abs="312730.414479" HC_abs="26.010878" PMx_abs="5.311858" NOx_abs="125.531602" fuel_abs="134.429245" electricity_abs="0"/>
    </tripinfo>
    <tripinfo id="h3154c1:1" depart="57658.00" departLane="24634507_1" departPos="5.10" departSpeed="0.00" departDelay="0.00" arrival="57769.00" arrivalLane="-266565295#5_1" arrivalPos="172.76" arrivalSpeed="14.41" duration="111.00" routeLength="1206.22" waitingTime="4.00" waitingCount="1" stopTime="0.00" timeLoss="26.88" rerouteNo="1" devices="tripinfo_h3154c1:1 routing_h3154c1:1 emissions_h3154c1:1" vType="default_016" speedFactor="1.06" vaporized="">
        <emissions CO_abs="5055.909879" CO2_abs="325149.917266" HC_abs="30.629903" PMx_abs="5.970690" NOx_abs="133.947077" fuel_abs="139.767774" electricity_abs="0"/>
    </tripinfo>
    <tripinfo id="carIn27009:1" depart="57673.00" departLane="-447569998#1_1" departPos="5.10" departSpeed="0.00" departDelay="0.50" arrival="57771.00" arrivalLane="-26677539_1" arrivalPos="152.75" arrivalSpeed="7.84" duration="98.00" routeLength="699.63" waitingTime="3.00" waitingCount="1" stopTime="0.00" timeLoss="17.87" rerouteNo="1" devices="tripinfo_carIn27009:1 routing_carIn27009:1 emissions_carIn27009:1" vType="default_015" speedFactor="1.05" vaporized="">
        <emissions CO_abs="3939.191585" CO2_abs="188471.117279" HC_abs="22.282803" PMx_abs="3.135101" NOx_abs="76.928979" fuel_abs="81.016742" electricity_abs="0"/>
    </tripinfo>
    <tripinfo id="h3568c1:3" depart="57656.00" departLane="266565295#5_1" departPos="5.10" departSpeed="0.00" departDelay="0.80" arrival="57774.00" arrivalLane="-24634415_1" arrivalPos="62.03" arrivalSpeed="13.16" duration="118.00" routeLength="807.40" waitingTime="30.00" waitingCount="2" stopTime="0.00" timeLoss="55.04" rerouteNo="1" devices="tripinfo_h3568c1:3 routing_h3568c1:3 emissions_h3568c1:3" vType="default_016" speedFactor="1.02" vaporized="">
        <emissions CO_abs="8257.124551" CO2_abs="324748.884838" HC_abs="45.217469" PMx_abs="6.443326" NOx_abs="137.984672" fuel_abs="139.597292" electricity_abs="0"/>
    </tripinfo>
    <tripinfo id="h5979c1:5" depart="57669.00" departLane="399835085#1_1" departPos="5.10" departSpeed="0.00" departDelay="0.00" arrival="57777.00" arrivalLane="-315358254#1_1" arrivalPos="137.16" arrivalSpeed="14.13" duration="108.00" routeLength="659.33" waitingTime="21.00" waitingCount="1" stopTime="0.00" timeLoss="41.82" rerouteNo="1" devices="tripinfo_h5979c1:5 routing_h5979c1:5 emissions_h5979c1:5" vType="default_016" speedFactor="1.11" vaporized="">
        <emissions CO_abs="6702.041472" CO2_abs="235986.604450" HC_abs="36.005721" PMx_abs="4.419520" NOx_abs="99.150694" fuel_abs="101.442685" electricity_abs="0"/>
    </tripinfo>
    <tripinfo id="h4538c1:1" depart="57701.00" departLane="-10427692#1_1" departPos="5.10" departSpeed="0.00" departDelay="0.00" arrival="57791.00" arrivalLane="-128361102#1_1" arrivalPos="274.68" arrivalSpeed="11.72" duration="90.00" routeLength="440.74" waitingTime="42.00" waitingCount="1" stopTime="0.00" timeLoss="52.76" rerouteNo="1" devices="tripinfo_h4538c1:1 routing_h4538c1:1 emissions_h4538c1:1" vType="default_016" speedFactor="0.85" vaporized="">
        <emissions CO_abs="7904.772545" CO2_abs="208431.846732" HC_abs="40.857246" PMx_abs="4.250878" NOx_abs="89.196015" fuel_abs="89.599056" electricity_abs="0"/>
    </tripinfo>
    <tripinfo id="h16072c2:3" depart="57663.00" departLane="315358254#0_1" departPos="5.10" departSpeed="0.00" departDelay="2.50" arrival="57795.00" arrivalLane="386687235_1" arrivalPos="80.84" arrivalSpeed="14.49" duration="132.00" routeLength="1611.92" waitingTime="7.00" waitingCount="2" stopTime="0.00" timeLoss="25.97" rerouteNo="1" devices="tripinfo_h16072c2:3 routing_h16072c2:3 emissions_h16072c2:3" vType="default_016" speedFactor="1.11" vaporized="">
        <emissions CO_abs="4033.002811" CO2_abs="330523.989221" HC_abs="26.021649" PMx_abs="5.524639" NOx_abs="130.597757" fuel_abs="142.077945" electricity_abs="0"/>
    </tripinfo>
    <tripinfo id="h330c1:1" depart="57736.00" departLane="-32978638#0_1" departPos="5.10" departSpeed="0.00" departDelay="0.20" arrival="57797.00" arrivalLane="-266565295#5_1" arrivalPos="172.76" arrivalSpeed="11.52" duration="61.00" routeLength="370.53" waitingTime="22.00" waitingCount="1" stopTime="0.00" timeLoss="30.05" rerouteNo="1" devices="tripinfo_h330c1:1 routing_h330c1:1 emissions_h330c1:1" vType="default_016" speedFactor="0.88" vaporized="">
        <emissions CO_abs="4597.611422" CO2_abs="151842.071736" HC_abs="24.491382" PMx_abs="2.987797" NOx_abs="64.336155" fuel_abs="65.271852" electricity_abs="0"/>
    </tripinfo>
    <tripinfo id="carIn107084:1" depart="57601.00" departLane="124812856#0_1" departPos="5.10" departSpeed="0.00" departDelay="0.70" arrival="57807.00" arrivalLane="-128361102#1_1" arrivalPos="274.68" arrivalSpeed="12.42" duration="206.00" routeLength="2250.49" waitingTime="5.00" waitingCount="1" stopTime="0.00" timeLoss="34.65" rerouteNo="1" devices="tripinfo_carIn107084:1 routing_carIn107084:1 emissions_carIn107084:1" vType="default_016" speedFactor="0.96" vaporized="">
        <emissions CO_abs="6853.370874" CO2_abs="492328.831547" HC_abs="42.686433" PMx_abs="8.036491" NOx_abs="195.890897" fuel_abs="211.631617" electricity_abs="0"/>
    </tripinfo>
    <tripinfo id="h11737c1:1" depart="57665.00" departLane="272042143_1" departPos="5.10" departSpeed="0.00" departDelay="1.50" arrival="57807.00" arrivalLane="-315358254#1_1" arrivalPos="137.16" arrivalSpeed="13.55" duration="142.00" routeLength="1596.88" waitingTime="3.00" waitingCount="2" stopTime="0.00" timeLoss="24.27" rerouteNo="1" devices="tripinfo_h11737c1:1 routing_h11737c1:1 emissions_h11737c1:1" vType="default_016" speedFactor="0.99" vaporized="">
        <emissions CO_abs="4738.978266" CO2_abs="357361.473698" HC_abs="29.900754" PMx_abs="5.803095" NOx_abs="141.470814" fuel_abs="153.614678" electricity_abs="0"/>
    </tripinfo>
    <tripinfo id="carIn81860:1" depart="57712.00" departLane="128361102#0_1" departPos="5.10" departSpeed="0.00" departDelay="0.60" arrival="57808.00" arrivalLane="-24634517#17_1" arrivalPos="6.43" arrivalSpeed="6.80" duration="96.00" routeLength="1229.64" waitingTime="0.00" waitingCount="0" stopTime="0.00" timeLoss="14.35" rerouteNo="1" devices="tripinfo_carIn81860:1 routing_carIn81860:1 emissions_carIn81860:1" vType="default_016" speedFactor="1.11" vaporized="">
        <emissions CO_abs="3377.264252" CO2_abs="276156.851841" HC_abs="21.603242" PMx_abs="4.590273" NOx_abs="109.208868" fuel_abs="118.707855" electricity_abs="0"/>
    </tripinfo>
    <tripinfo id="carIn126288:1" depart="57674.00" departLane="272042143_1" departPos="5.10" departSpeed="0.00" departDelay="0.00" arrival="57809.00" arrivalLane="-315358254#1_1" arrivalPos="137.16" arrivalSpeed="14.61" duration="135.00" routeLength="1596.88" waitingTime="0.00" waitingCount="0" stopTime="0.00" timeLoss="26.55" rerouteNo="1" devices="tripinfo_carIn126288:1 routing_carIn126288:1 emissions_carIn126288:1" vType="default_016" speedFactor="1.07" vaporized="">
        <emissions CO_abs="5080.068392" CO2_abs="373858.057075" HC_abs="31.837574" PMx_abs="6.316625" NOx_abs="149.473486" fuel_abs="160.705599" electricity_abs="0"/>
    </tripinfo>
    <tripinfo id="carIn12365:1" depart="57713.00" departLane="315358244_1" departPos="5.10" departSpeed="0.00" departDelay="0.50" arrival="57809.00" arrivalLane="447569997#1_1" arrivalPos="180.93" arrivalSpeed="7.27" duration="96.00" routeLength="718.04" waitingTime="18.00" waitingCount="1" stopTime="0.00" timeLoss="31.29" rerouteNo="1" devices="tripinfo_carIn12365:1 routing_carIn12365:1 emissions_carIn12365:1" vType="default_016" speedFactor="0.95" vaporized="">
        <emissions CO_abs="5084.067260" CO2_abs="217245.500728" HC_abs="28.215013" PMx_abs="3.911476" NOx_abs="89.622495" fuel_abs="93.385894" electricity_abs="0"/>
    </tripinfo>
    <tripinfo id="carIn82220:1" depart="57619.00" departLane="-306240162#1_0" departPos="5.10" departSpeed="0.00" departDelay="3.50" arrival="57813.00" arrivalLane="386687235_2" arrivalPos="80.84" arrivalSpeed="15.73" duration="194.00" routeLength="2257.41" waitingTime="24.00" waitingCount="2" stopTime="0.00" timeLoss="67.11" rerouteNo="1" devices="tripinfo_carIn82220:1 routing_carIn82220:1 emissions_carIn82220:1" vType="default_016" speedFactor="1.18" vaporized="">
        <emissions CO_abs="10545.980067" CO2_abs="640245.628653" HC_abs="63.141509" PMx_abs="12.252572" NOx_abs="263.714117" fuel_abs="275.213771" electricity_abs="0"/>
    </tripinfo>
    <tripinfo id="carIn48184:1" depart="57613.00" departLane="-306240162#1_0" departPos="5.10" departSpeed="0.00" departDelay="0.70" arrival="57814.00" arrivalLane="386687235_1" arrivalPos="80.84" arrivalSpeed="13.54" duration="201.00" routeLength="2257.41" waitingTime="28.00" waitingCount="2" stopTime="0.00" timeLoss="61.09" rerouteNo="1" devices="tripinfo_carIn48184:1 routing_carIn48184:1 emissions_carIn48184:1" vType="default_016" speedFactor="1.06" vaporized="">
        <emissions CO_abs="10265.731206" CO2_abs="606652.060812" HC_abs="61.086249" PMx_abs="11.223239" NOx_abs="247.571103" fuel_abs="260.774179" electricity_abs="0"/>
    </tripinfo>
    <tripinfo id="carIn107282:1" depart="57749.00" departLane="-447569998#1_1" departPos="5.10" departSpeed="0.00" departDelay="0.00" arrival="57814.00" arrivalLane="315358242#0_1" arrivalPos="165.37" arrivalSpeed="13.87" duration="65.00" routeLength="448.50" waitingTime="18.00" waitingCount="1" stopTime="0.00" timeLoss="26.38" rerouteNo="1" devices="tripinfo_carIn107282:1 routing_carIn107282:1 emissions_carIn107282:1" vType="default_016" speedFactor="1.08" vaporized="">
        <emissions CO_abs="3889.516889" CO2_abs="151390.384421" HC_abs="21.178199" PMx_abs="2.812010" NOx_abs="62.718722" fuel_abs="65.077370" electricity_abs="0"/>
    </tripinfo>
    <tripinfo id="carIn462:1" depart="57622.00" departLane="-306240162#1_0" departPos="5.10" departSpeed="0.00" departDelay="4.80" arrival="57825.00" arrivalLane="386687235_1" arrivalPos="80.84" arrivalSpeed="12.31" duration="203.00" routeLength="2257.41" waitingTime="12.00" waitingCount="2" stopTime="0.00" timeLoss="45.51" rerouteNo="1" devices="tripinfo_carIn462:1 routing_carIn462:1 emissions_carIn462:1" vType="default_016" speedFactor="0.94" vaporized="">
        <emissions CO_abs="7891.612193" CO2_abs="544384.164103" HC_abs="48.735878" PMx_abs="9.483067" NOx_abs="219.466487" fuel_abs="234.007490" electricity_abs="0"/>
    </tripinfo>
    <tripinfo id="h645c1:1" depart="57622.00" departLane="266565295#5_1" departPos="5.10" departSpeed="0.00" departDelay="0.40" arrival="57833.00" arrivalLane="-315358244_2" arrivalPos="33.95" arrivalSpeed="12.87" duration="211.00" routeLength="1910.83" waitingTime="36.00" waitingCount="3" stopTime="0.00" timeLoss="67.54" rerouteNo="1" devices="tripinfo_h645c1:1 routing_h645c1:1 emissions_h645c1:1" vType="default_016" speedFactor="0.97" vaporized="">
        <emissions CO_abs="9669.280581" CO2_abs="491505.384737" HC_abs="55.497997" PMx_abs="8.598965" NOx_abs="199.499389" fuel_abs="211.279167" electricity_abs="0"/>
    </tripinfo>
    <tripinfo id="carIn129809:1" depart="57728.00" departLane="-447569998#1_1" departPos="5.10" departSpeed="0.00" departDelay="0.00" arrival="57833.00" arrivalLane="-315358244_1" arrivalPos="33.95" arrivalSpeed="13.72" duration="105.00" routeLength="706.49" waitingTime="36.00" waitingCount="1" stopTime="0.00" timeLoss="46.63" rerouteNo="1" devices="tripinfo_carIn129809:1 routing_carIn129809:1 emissions_carIn129809:1" vType="default_015" speedFactor="1.04" vaporized="">
        <emissions CO_abs="8043.936873" CO2_abs="270005.326274" HC_abs="42.812177" PMx_abs="5.118862" NOx_abs="112.379832" fuel_abs="116.066543" electricity_abs="0"/>
    </tripinfo>
    <tripinfo id="carIn121703:1" depart="57647.00" departLane="386687232#0_1" departPos="5.10" departSpeed="0.00" departDelay="0.30" arrival="57835.00" arrivalLane="-315358244_1" arrivalPos="33.95" arrivalSpeed="13.87" duration="188.00" routeLength="1157.39" waitingTime="80.00" waitingCount="3" stopTime="0.00" timeLoss="104.16" rerouteNo="1" devices="tripinfo_carIn121703:1 routing_carIn121703:1 emissions_carIn121703:1" vType="default_016" speedFactor="1.00" vaporized="">
        <emissions CO_abs="14933.741866" CO2_abs="462011.012578" HC_abs="78.790116" PMx_abs="9.192308" NOx_abs="195.152096" fuel_abs="198.603931" electricity_abs="0"/>
    </tripinfo>
    <tripinfo id="h17600c1:1" depart="57662.00" departLane="272042143_1" departPos="5.10" departSpeed="0.00" departDelay="0.30" arrival="57836.00" arrivalLane="201238729#3_1" arrivalPos="431.02" arrivalSpeed="13.11" duration="174.00" routeLength="2100.26" waitingTime="5.00" waitingCount="1" stopTime="0.00" timeLoss="22.07" rerouteNo="1" devices="tripinfo_h17600c1:1 routing_h17600c1:1 emissions_h17600c1:1" vType="default_016" speedFactor="1.00" vaporized="">
        <emissions CO_abs="4343.623360" CO2_abs="393099.576838" HC_abs="28.831247" PMx_abs="5.940216" NOx_abs="151.761258" fuel_abs="168.977013" electricity_abs="0"/>
    </tripinfo>
    <tripinfo id="randUni15030:1" depart="57735.00" departLane="386687232#0_1" departPos="5.10" departSpeed="0.00" departDelay="0.10" arrival="57837.00" arrivalLane="26677539_1" arrivalPos="151.98" arrivalSpeed="9.33" duration="102.00" routeLength="919.89" waitingTime="15.00" waitingCount="1" stopTime="0.00" timeLoss="30.99" rerouteNo="1" devices="tripinfo_randUni15030:1 routing_randUni15030:1 emissions_randUni15030:1" vType="random_016" speedFactor="1.17" vaporized="">
        <emissions CO_abs="5646.534523" CO2_abs="270504.229411" HC_abs="32.045535" PMx_abs="4.933618" NOx_abs="111.173255" fuel_abs="116.279274" electricity_abs="0"/>
    </tripinfo>
    <tripinfo id="carIn12152:1" depart="57647.00" departLane="24599188#0.94_1" departPos="5.10" departSpeed="0.00" departDelay="0.50" arrival="57847.00" arrivalLane="-315358254#1_1" arrivalPos="137.16" arrivalSpeed="13.18" duration="200.00" routeLength="2034.31" waitingTime="17.00" waitingCount="1" stopTime="0.00" timeLoss="35.67" rerouteNo="1" devices="tripinfo_carIn12152:1 routing_carIn12152:1 emissions_carIn12152:1" vType="default_016" speedFactor="0.96" vaporized="">
        <emissions CO_abs="7462.272644" CO2_abs="437493.108359" HC_abs="44.137329" PMx_abs="7.105441" NOx_abs="173.763484" fuel_abs="188.061267" electricity_abs="0"/>
    </tripinfo>
    <tripinfo id="h17549c1:1" depart="57680.00" departLane="-447569998#1_1" departPos="5.10" departSpeed="0.00" departDelay="0.00" arrival="57849.00" arrivalLane="-315358254#1_1" arrivalPos="137.16" arrivalSpeed="14.03" duration="169.00" routeLength="1746.60" waitingTime="15.00" waitingCount="2" stopTime="0.00" timeLoss="40.77" rerouteNo="1" devices="tripinfo_h17549c1:1 routing_h17549c1:1 emissions_h17549c1:1" vType="default_016" speedFactor="1.07" vaporized="">
        <emissions CO_abs="6899.924960" CO2_abs="422797.406572" HC_abs="41.163942" PMx_abs="7.262637" NOx_abs="170.070280" fuel_abs="181.743297" electricity_abs="0"/>
    </tripinfo>
    <tripinfo id="S5R_frequency1.2" depart="57615.00" departLane="315358250#0_1" departPos="12.10" departSpeed="0.00" departDelay="3.40" arrival="57850.00" arrivalLane="386687235_1" arrivalPos="80.84" arrivalSpeed="13.52" duration="235.00" routeLength="1115.62" waitingTime="124.00" waitingCount="2" stopTime="0.00" timeLoss="153.46" rerouteNo="1" devices="tripinfo_S5R_frequency1.2 routing_S5R_frequency1.2 emissions_S5R_frequency1.2" vType="bus" speedFactor="1.00" vaporized="">
        <emissions CO_abs="4689.747479" CO2_abs="2054918.391650" HC_abs="1051.457313" PMx_abs="483.400476" NOx_abs="18327.667757" fuel_abs="876.114222" electricity_abs="0"/>
    </tripinfo>
    <tripinfo id="carIn77943:1" depart="57608.00" departLane="124812856#0_1" departPos="5.10" departSpeed="0.00" departDelay="2.50" arrival="57851.00" arrivalLane="-128361102#1_1" arrivalPos="274.68" arrivalSpeed="11.32" duration="243.00" routeLength="2250.49" waitingTime="24.00" waitingCount="2" stopTime="0.00" timeLoss="51.00" rerouteNo="1" devices="tripinfo_carIn77943:1 routing_carIn77943:1 emissions_carIn77943:1" vType="default_016" speedFactor="0.85" vaporized="">
        <emissions CO_abs="9033.458502" CO2_abs="498641.917053" HC_abs="52.646486" PMx_abs="7.905687" NOx_abs="197.862651" fuel_abs="214.347398" electricity_abs="0"/>
    </tripinfo>
    <tripinfo id="carIn81046:1" depart="57611.00" departLane="124812856#0_1" departPos="5.10" departSpeed="0.00" departDelay="2.50" arrival="57853.00" arrivalLane="-128361102#1_1" arrivalPos="274.68" arrivalSpeed="14.61" duration="242.00" routeLength="2250.49" waitingTime="22.00" waitingCount="2" stopTime="0.00" timeLoss="93.44" rerouteNo="1" devices="tripinfo_carIn81046:1 routing_carIn81046:1 emissions_carIn81046:1" vType="default_016" speedFactor="1.11" vaporized="">
        <emissions CO_abs="9771.147668" CO2_abs="569796.703920" HC_abs="57.821297" PMx_abs="9.879613" NOx_abs="232.034362" fuel_abs="244.932350" electricity_abs="0"/>
    </tripinfo>
    <tripinfo id="carIn86816:1" depart="57617.00" departLane="128361102#0_1" departPos="5.10" departSpeed="0.00" departDelay="0.80" arrival="57853.00" arrivalLane="201956811#0_1" arrivalPos="40.40" arrivalSpeed="13.24" duration="236.00" routeLength="2067.33" waitingTime="60.00" waitingCount="2" stopTime="0.00" timeLoss="86.86" rerouteNo="1" devices="tripinfo_carIn86816:1 routing_carIn86816:1 emissions_carIn86816:1" vType="default_016" speedFactor="1.02" vaporized="">
        <emissions CO_abs="13579.674655" CO2_abs="571004.657928" HC_abs="75.172467" PMx_abs="10.627229" NOx_abs="235.716971" fuel_abs="245.453875" electricity_abs="0"/>
    </tripinfo>
    <tripinfo id="carIn77438:1" depart="57614.00" departLane="124812856#0_1" departPos="5.10" departSpeed="0.00" departDelay="1.10" arrival="57855.00" arrivalLane="-128361102#1_1" arrivalPos="274.68" arrivalSpeed="12.64" duration="241.00" routeLength="2250.49" waitingTime="21.00" waitingCount="2" stopTime="0.00" timeLoss="73.73" rerouteNo="1" devices="tripinfo_carIn77438:1 routing_carIn77438:1 emissions_carIn77438:1" vType="default_016" speedFactor="0.98" vaporized="">
        <emissions CO_abs="10659.627001" CO2_abs="615406.111077" HC_abs="63.011584" PMx_abs="11.134664" NOx_abs="253.797969" fuel_abs="264.537333" electricity_abs="0"/>
    </tripinfo>
    <tripinfo id="carIn102915:1" depart="57643.00" departLane="128361102#0_1" departPos="5.10" departSpeed="0.00" departDelay="0.40" arrival="57855.00" arrivalLane="201956811#0_1" arrivalPos="40.40" arrivalSpeed="15.22" duration="212.00" routeLength="2067.33" waitingTime="36.00" waitingCount="2" stopTime="0.00" timeLoss="80.44" rerouteNo="1" devices="tripinfo_carIn102915:1 routing_carIn102915:1 emissions_carIn102915:1" vType="default_016" speedFactor="1.15" vaporized="">
        <emissions CO_abs="11657.662573" CO2_abs="595310.274314" HC_abs="66.987160" PMx_abs="10.898929" NOx_abs="243.870402" fuel_abs="255.900165" electricity_abs="0"/>
    </tripinfo>
    <tripinfo id="carIn50326:1" depart="57651.00" departLane="128361102#0_1" departPos="5.10" departSpeed="0.00" departDelay="0.30" arrival="57855.00" arrivalLane="18809673#0_1" arrivalPos="473.56" arrivalSpeed="11.99" duration="204.00" routeLength="1591.07" waitingTime="40.00" waitingCount="3" stopTime="0.00" timeLoss="67.59" rerouteNo="1" devices="tripinfo_carIn50326:1 routing_carIn50326:1 emissions_carIn50326:1" vType="default_016" speedFactor="0.95" vaporized="">
        <emissions CO_abs="10125.378289" CO2_abs="426310.549859" HC_abs="56.009590" PMx_abs="7.514693" NOx_abs="174.428004" fuel_abs="183.255724" electricity_abs="0"/>
    </tripinfo>
    <tripinfo id="h5938c1:1" depart="57740.00" departLane="-26677542#0_1" departPos="5.10" departSpeed="0.00" departDelay="0.00" arrival="57856.00" arrivalLane="447569997#1_1" arrivalPos="180.93" arrivalSpeed="7.91" duration="116.00" routeLength="1093.64" waitingTime="1.00" waitingCount="1" stopTime="0.00" timeLoss="15.83" rerouteNo="1" devices="tripinfo_h5938c1:1 routing_h5938c1:1 emissions_h5938c1:1" vType="default_016" speedFactor="0.97" vaporized="">
        <emissions CO_abs="4023.372258" CO2_abs="246292.931060" HC_abs="24.009459" PMx_abs="3.937172" NOx_abs="98.084690" fuel_abs="105.871621" electricity_abs="0"/>
    </tripinfo>
    <tripinfo id="carIn12858:1" depart="57661.00" departLane="128361109#1_1" departPos="5.10" departSpeed="0.00" departDelay="0.90" arrival="57858.00" arrivalLane="399835085#1_1" arrivalPos="212.23" arrivalSpeed="9.32" duration="197.00" routeLength="1738.12" waitingTime="65.00" waitingCount="2" stopTime="0.00" timeLoss="98.93" rerouteNo="1" devices="tripinfo_carIn12858:1 routing_carIn12858:1 emissions_carIn12858:1" vType="default_016" speedFactor="1.18" vaporized="">
        <emissions CO_abs="17613.688301" CO2_abs="676156.255622" HC_abs="96.416503" PMx_abs="14.429221" NOx_abs="288.959178" fuel_abs="290.653400" electricity_abs="0"/>
    </tripinfo>
    <tripinfo id="carIn8642:1" depart="57774.00" departLane="-447569998#1_1" departPos="5.10" departSpeed="0.00" departDelay="0.90" arrival="57864.00" arrivalLane="-315358244_1" arrivalPos="33.95" arrivalSpeed="12.45" duration="90.00" routeLength="706.49" waitingTime="9.00" waitingCount="2" stopTime="0.00" timeLoss="23.92" rerouteNo="1" devices="tripinfo_carIn8642:1 routing_carIn8642:1 emissions_carIn8642:1" vType="default_016" speedFactor="0.92" vaporized="">
        <emissions CO_abs="3644.579850" CO2_abs="194821.282754" HC_abs="21.110787" PMx_abs="3.214091" NOx_abs="78.346333" fuel_abs="83.746222" electricity_abs="0"/>
    </tripinfo>