<?xml version="1.0" encoding="UTF-8"?>

<!-- generated on 2021-10-26 12:45:30 by Eclipse SUMO sumo Version 1.10.0
<configuration xmlns:xsi="http://www.w3.org/2001/XMLSchema-instance" xsi:noNamespaceSchemaLocation="http://sumo.dlr.de/xsd/sumoConfiguration.xsd">

    <input>
        <net-file value="/Users/behradkoohy/sumo-scratchpad/RESCO/environments/ingolstadt21/ingolstadt21.net.xml"/>
        <route-files value="/Users/behradkoohy/sumo-scratchpad/RESCO/environments/ingolstadt21/ingolstadt21.rou.xml"/>
    </input>

    <output>
        <tripinfo-output value="/Users/behradkoohy/sumo-scratchpad/RESCO/logs/IDQN-tr0-ingolstadt21-21-drq_norm-wait_norm/tripinfo_67.xml"/>
        <tripinfo-output.write-unfinished value="true"/>
    </output>

    <time>
        <begin value="57600"/>
        <end value="61200"/>
    </time>

    <processing>
        <time-to-teleport value="-1"/>
    </processing>

    <report>
        <no-warnings value="true"/>
        <no-step-log value="true"/>
    </report>

    <emissions>
        <device.emissions.probability value="1"/>
    </emissions>

    <traci_server>
        <remote-port value="58423"/>
    </traci_server>

    <random_number>
        <random value="true"/>
    </random_number>

</configuration>
-->

<tripinfos xmlns:xsi="http://www.w3.org/2001/XMLSchema-instance" xsi:noNamespaceSchemaLocation="http://sumo.dlr.de/xsd/tripinfo_file.xsd">
    <tripinfo id="carIn60260:1" depart="57606.00" departLane="315358254#0_1" departPos="5.10" departSpeed="0.00" departDelay="0.90" arrival="57652.00" arrivalLane="399835085#1_1" arrivalPos="212.23" arrivalSpeed="9.06" duration="46.00" routeLength="430.98" waitingTime="0.00" waitingCount="0" stopTime="0.00" timeLoss="6.35" rerouteNo="1" devices="tripinfo_carIn60260:1 routing_carIn60260:1 emissions_carIn60260:1" vType="default_016" speedFactor="1.18" vaporized="">
        <emissions CO_abs="1964.732835" CO2_abs="116022.835539" HC_abs="11.639763" PMx_abs="1.986106" NOx_abs="47.198166" fuel_abs="49.873485" electricity_abs="0"/>
    </tripinfo>
    <tripinfo id="h15454c2:3" depart="57612.00" departLane="24608844_1" departPos="5.10" departSpeed="0.00" departDelay="0.50" arrival="57657.00" arrivalLane="32978638#0_1" arrivalPos="49.29" arrivalSpeed="13.97" duration="45.00" routeLength="354.79" waitingTime="2.00" waitingCount="1" stopTime="0.00" timeLoss="13.47" rerouteNo="1" devices="tripinfo_h15454c2:3 routing_h15454c2:3 emissions_h15454c2:3" vType="default_016" speedFactor="1.10" vaporized="">
        <emissions CO_abs="2452.214320" CO2_abs="123455.375921" HC_abs="14.064717" PMx_abs="2.275226" NOx_abs="51.472825" fuel_abs="53.068475" electricity_abs="0"/>
    </tripinfo>
    <tripinfo id="carIn53971:1" depart="57640.00" departLane="272042143_1" departPos="5.10" departSpeed="0.00" departDelay="0.80" arrival="57695.00" arrivalLane="24634414#1_1" arrivalPos="162.19" arrivalSpeed="7.68" duration="55.00" routeLength="493.04" waitingTime="0.00" waitingCount="0" stopTime="0.00" timeLoss="8.54" rerouteNo="1" devices="tripinfo_carIn53971:1 routing_carIn53971:1 emissions_carIn53971:1" vType="default_016" speedFactor="1.00" vaporized="">
        <emissions CO_abs="2388.198340" CO2_abs="137803.664693" HC_abs="14.072999" PMx_abs="2.369532" NOx_abs="56.162602" fuel_abs="59.236202" electricity_abs="0"/>
    </tripinfo>
    <tripinfo id="h12244c1:3" depart="57612.00" departLane="315358244_1" departPos="5.10" departSpeed="0.00" departDelay="0.40" arrival="57702.00" arrivalLane="386687235_1" arrivalPos="80.84" arrivalSpeed="14.78" duration="90.00" routeLength="1186.14" waitingTime="0.00" waitingCount="0" stopTime="0.00" timeLoss="10.41" rerouteNo="1" devices="tripinfo_h12244c1:3 routing_h12244c1:3 emissions_h12244c1:3" vType="default_016" speedFactor="1.08" vaporized="">
        <emissions CO_abs="3047.491525" CO2_abs="263349.847157" HC_abs="19.806020" PMx_abs="4.376918" NOx_abs="104.069771" fuel_abs="113.202537" electricity_abs="0"/>
    </tripinfo>
    <tripinfo id="S5R_frequency1.2" depart="57615.00" departLane="315358250#0_1" departPos="12.10" departSpeed="0.00" departDelay="3.40" arrival="57709.00" arrivalLane="386687235_1" arrivalPos="80.84" arrivalSpeed="13.38" duration="94.00" routeLength="1115.62" waitingTime="0.00" waitingCount="0" stopTime="0.00" timeLoss="11.78" rerouteNo="1" devices="tripinfo_S5R_frequency1.2 routing_S5R_frequency1.2 emissions_S5R_frequency1.2" vType="bus" speedFactor="1.00" vaporized="">
        <emissions CO_abs="1956.275049" CO2_abs="1253857.077991" HC_abs="410.274823" PMx_abs="210.317968" NOx_abs="9653.403302" fuel_abs="534.765001" electricity_abs="0"/>
    </tripinfo>
    <tripinfo id="h3688c1:1" depart="57625.00" departLane="201201950#1_1" departPos="5.10" departSpeed="0.00" departDelay="0.00" arrival="57720.00" arrivalLane="32978638#0_1" arrivalPos="49.29" arrivalSpeed="14.34" duration="95.00" routeLength="1089.75" waitingTime="6.00" waitingCount="1" stopTime="0.00" timeLoss="22.67" rerouteNo="1" devices="tripinfo_h3688c1:1 routing_h3688c1:1 emissions_h3688c1:1" vType="default_016" speedFactor="1.11" vaporized="">
        <emissions CO_abs="3933.146788" CO2_abs="278625.232205" HC_abs="24.332125" PMx_abs="5.003917" NOx_abs="113.306901" fuel_abs="119.768729" electricity_abs="0"/>
    </tripinfo>
    <tripinfo id="h9563c2:5" depart="57631.00" departLane="315358244_1" departPos="5.10" departSpeed="0.00" departDelay="0.70" arrival="57723.00" arrivalLane="386687235_1" arrivalPos="80.84" arrivalSpeed="13.85" duration="92.00" routeLength="1186.14" waitingTime="0.00" waitingCount="0" stopTime="0.00" timeLoss="7.75" rerouteNo="1" devices="tripinfo_h9563c2:5 routing_h9563c2:5 emissions_h9563c2:5" vType="default_016" speedFactor="1.03" vaporized="">
        <emissions CO_abs="2445.380034" CO2_abs="214549.686399" HC_abs="16.135588" PMx_abs="3.492381" NOx_abs="84.516764" fuel_abs="92.225584" electricity_abs="0"/>
    </tripinfo>
    <tripinfo id="h7800c1:5" depart="57696.00" departLane="-447569998#1_1" departPos="5.10" departSpeed="0.00" departDelay="0.00" arrival="57725.00" arrivalLane="-447569998#1_1" arrivalPos="180.76" arrivalSpeed="6.93" duration="29.00" routeLength="175.66" waitingTime="0.00" waitingCount="0" stopTime="0.00" timeLoss="3.41" rerouteNo="1" devices="tripinfo_h7800c1:5 routing_h7800c1:5 emissions_h7800c1:5" vType="default_016" speedFactor="0.83" vaporized="">
        <emissions CO_abs="1518.053801" CO2_abs="56363.713597" HC_abs="8.190353" PMx_abs="0.887578" NOx_abs="22.793619" fuel_abs="24.229025" electricity_abs="0"/>
    </tripinfo>
    <tripinfo id="carIn22761:1" depart="57616.00" departLane="-306240162#1_0" departPos="5.10" departSpeed="0.00" departDelay="2.10" arrival="57727.00" arrivalLane="399835085#1_1" arrivalPos="212.23" arrivalSpeed="6.70" duration="111.00" routeLength="1093.26" waitingTime="8.00" waitingCount="1" stopTime="0.00" timeLoss="25.77" rerouteNo="1" devices="tripinfo_carIn22761:1 routing_carIn22761:1 emissions_carIn22761:1" vType="default_016" speedFactor="0.91" vaporized="">
        <emissions CO_abs="4758.895315" CO2_abs="281456.650261" HC_abs="28.222304" PMx_abs="5.164922" NOx_abs="115.244799" fuel_abs="120.986341" electricity_abs="0"/>
    </tripinfo>
    <tripinfo id="h3568c1:3" depart="57656.00" departLane="266565295#5_1" departPos="5.10" departSpeed="0.00" departDelay="0.80" arrival="57747.00" arrivalLane="-24634415_1" arrivalPos="62.03" arrivalSpeed="12.48" duration="91.00" routeLength="807.40" waitingTime="6.00" waitingCount="1" stopTime="0.00" timeLoss="24.38" rerouteNo="1" devices="tripinfo_h3568c1:3 routing_h3568c1:3 emissions_h3568c1:3" vType="default_016" speedFactor="0.97" vaporized="">
        <emissions CO_abs="4117.168885" CO2_abs="235687.991457" HC_abs="24.286557" PMx_abs="4.250361" NOx_abs="97.257932" fuel_abs="101.312440" electricity_abs="0"/>
    </tripinfo>
    <tripinfo id="carIn30817:1" depart="57681.00" departLane="315358244_1" departPos="5.10" departSpeed="0.00" departDelay="0.20" arrival="57747.00" arrivalLane="447569997#1_1" arrivalPos="180.93" arrivalSpeed="9.10" duration="66.00" routeLength="718.04" waitingTime="0.00" waitingCount="0" stopTime="0.00" timeLoss="10.11" rerouteNo="1" devices="tripinfo_carIn30817:1 routing_carIn30817:1 emissions_carIn30817:1" vType="default_016" speedFactor="1.11" vaporized="">
        <emissions CO_abs="2387.462710" CO2_abs="163194.482785" HC_abs="14.590622" PMx_abs="2.658274" NOx_abs="64.664276" fuel_abs="70.150613" electricity_abs="0"/>
    </tripinfo>
    <tripinfo id="carIn80064:1" depart="57603.00" departLane="128361109#1_1" departPos="5.10" departSpeed="0.00" departDelay="0.40" arrival="57751.00" arrivalLane="-315358254#1_1" arrivalPos="137.16" arrivalSpeed="12.04" duration="148.00" routeLength="1587.97" waitingTime="21.00" waitingCount="2" stopTime="0.00" timeLoss="49.77" rerouteNo="1" devices="tripinfo_carIn80064:1 routing_carIn80064:1 emissions_carIn80064:1" vType="default_016" speedFactor="0.91" vaporized="">
        <emissions CO_abs="8189.379546" CO2_abs="461071.317342" HC_abs="48.158966" PMx_abs="8.803387" NOx_abs="190.144037" fuel_abs="198.195025" electricity_abs="0"/>
    </tripinfo>
    <tripinfo id="h7181c1:1" depart="57660.00" departLane="315358254#0_1" departPos="5.10" departSpeed="0.00" departDelay="0.10" arrival="57751.00" arrivalLane="306240162#0_0" arrivalPos="220.43" arrivalSpeed="16.86" duration="91.00" routeLength="932.35" waitingTime="18.00" waitingCount="2" stopTime="0.00" timeLoss="40.00" rerouteNo="1" devices="tripinfo_h7181c1:1 routing_h7181c1:1 emissions_h7181c1:1" vType="default_016" speedFactor="1.02" vaporized="">
        <emissions CO_abs="6869.933932" CO2_abs="347994.657605" HC_abs="39.594625" PMx_abs="7.105906" NOx_abs="146.707428" fuel_abs="149.588030" electricity_abs="0"/>
    </tripinfo>
    <tripinfo id="h4538c1:1" depart="57701.00" departLane="-10427692#1_1" departPos="5.10" departSpeed="0.00" departDelay="0.00" arrival="57753.00" arrivalLane="-128361102#1_1" arrivalPos="274.68" arrivalSpeed="15.45" duration="52.00" routeLength="440.74" waitingTime="12.00" waitingCount="1" stopTime="0.00" timeLoss="23.88" rerouteNo="1" devices="tripinfo_h4538c1:1 routing_h4538c1:1 emissions_h4538c1:1" vType="default_016" speedFactor="1.15" vaporized="">
        <emissions CO_abs="3039.546393" CO2_abs="141769.878099" HC_abs="17.179155" PMx_abs="2.706075" NOx_abs="58.899222" fuel_abs="60.941270" electricity_abs="0"/>
    </tripinfo>
    <tripinfo id="h3326c1:2" depart="57656.00" departLane="22716069#0_1" departPos="5.10" departSpeed="0.00" departDelay="0.00" arrival="57759.00" arrivalLane="24634517#13_1" arrivalPos="111.62" arrivalSpeed="15.30" duration="103.00" routeLength="1312.81" waitingTime="0.00" waitingCount="0" stopTime="0.00" timeLoss="13.62" rerouteNo="1" devices="tripinfo_h3326c1:2 routing_h3326c1:2 emissions_h3326c1:2" vType="default_016" speedFactor="1.10" vaporized="">
        <emissions CO_abs="4066.832259" CO2_abs="327977.498967" HC_abs="26.086133" PMx_abs="5.637956" NOx_abs="131.183997" fuel_abs="140.983066" electricity_abs="0"/>
    </tripinfo>
    <tripinfo id="carIn107084:1" depart="57601.00" departLane="124812856#0_1" departPos="5.10" departSpeed="0.00" departDelay="0.70" arrival="57760.00" arrivalLane="-128361102#1_1" arrivalPos="274.68" arrivalSpeed="16.09" duration="159.00" routeLength="2232.46" waitingTime="0.00" waitingCount="0" stopTime="0.00" timeLoss="21.06" rerouteNo="1" devices="tripinfo_carIn107084:1 routing_carIn107084:1 emissions_carIn107084:1" vType="default_016" speedFactor="1.18" vaporized="">
        <emissions CO_abs="5881.648633" CO2_abs="499903.617046" HC_abs="38.294980" PMx_abs="8.756296" NOx_abs="199.909694" fuel_abs="214.886102" electricity_abs="0"/>
    </tripinfo>
    <tripinfo id="carIn27009:1" depart="57673.00" departLane="-447569998#1_1" departPos="5.10" departSpeed="0.00" departDelay="0.50" arrival="57763.00" arrivalLane="-26677539_1" arrivalPos="152.75" arrivalSpeed="8.36" duration="90.00" routeLength="699.63" waitingTime="0.00" waitingCount="0" stopTime="0.00" timeLoss="11.38" rerouteNo="1" devices="tripinfo_carIn27009:1 routing_carIn27009:1 emissions_carIn27009:1" vType="default_015" speedFactor="1.07" vaporized="">
        <emissions CO_abs="3665.358618" CO2_abs="185966.861083" HC_abs="20.955726" PMx_abs="2.934062" NOx_abs="74.775153" fuel_abs="79.940320" electricity_abs="0"/>
    </tripinfo>
    <tripinfo id="carIn121703:1" depart="57647.00" departLane="386687232#0_1" departPos="5.10" departSpeed="0.00" departDelay="0.30" arrival="57765.00" arrivalLane="-315358244_1" arrivalPos="33.95" arrivalSpeed="12.06" duration="118.00" routeLength="1157.39" waitingTime="13.00" waitingCount="1" stopTime="0.00" timeLoss="25.50" rerouteNo="1" devices="tripinfo_carIn121703:1 routing_carIn121703:1 emissions_carIn121703:1" vType="default_016" speedFactor="0.92" vaporized="">
        <emissions CO_abs="4519.861919" CO2_abs="251350.610957" HC_abs="26.421264" PMx_abs="4.138847" NOx_abs="100.320998" fuel_abs="108.045949" electricity_abs="0"/>
    </tripinfo>
    <tripinfo id="h317c2:1" depart="57707.00" departLane="-32978638#0_1" departPos="5.10" departSpeed="0.00" departDelay="0.10" arrival="57765.00" arrivalLane="-266565295#5_1" arrivalPos="172.76" arrivalSpeed="12.91" duration="58.00" routeLength="370.53" waitingTime="21.00" waitingCount="1" stopTime="0.00" timeLoss="30.47" rerouteNo="1" devices="tripinfo_h317c2:1 routing_h317c2:1 emissions_h317c2:1" vType="default_016" speedFactor="1.02" vaporized="">
        <emissions CO_abs="4389.413711" CO2_abs="159616.524481" HC_abs="23.703158" PMx_abs="3.161832" NOx_abs="67.531975" fuel_abs="68.613435" electricity_abs="0"/>
    </tripinfo>
    <tripinfo id="h5979c1:5" depart="57669.00" departLane="399835085#1_1" departPos="5.10" departSpeed="0.00" departDelay="0.00" arrival="57767.00" arrivalLane="-315358254#1_1" arrivalPos="137.16" arrivalSpeed="15.73" duration="98.00" routeLength="659.33" waitingTime="12.00" waitingCount="1" stopTime="0.00" timeLoss="33.19" rerouteNo="1" devices="tripinfo_h5979c1:5 routing_h5979c1:5 emissions_h5979c1:5" vType="default_016" speedFactor="1.14" vaporized="">
        <emissions CO_abs="5409.199967" CO2_abs="221085.807424" HC_abs="29.697837" PMx_abs="4.027356" NOx_abs="91.941655" fuel_abs="95.036770" electricity_abs="0"/>
    </tripinfo>
    <tripinfo id="h330c1:1" depart="57736.00" departLane="-32978638#0_1" departPos="5.10" departSpeed="0.00" departDelay="0.20" arrival="57769.00" arrivalLane="-266565295#5_1" arrivalPos="172.76" arrivalSpeed="13.87" duration="33.00" routeLength="370.53" waitingTime="0.00" waitingCount="0" stopTime="0.00" timeLoss="5.93" rerouteNo="1" devices="tripinfo_h330c1:1 routing_h330c1:1 emissions_h330c1:1" vType="default_016" speedFactor="1.04" vaporized="">
        <emissions CO_abs="1632.229558" CO2_abs="114477.551507" HC_abs="10.083086" PMx_abs="1.946295" NOx_abs="45.993229" fuel_abs="49.209036" electricity_abs="0"/>
    </tripinfo>
    <tripinfo id="h3154c1:1" depart="57658.00" departLane="24634507_1" departPos="5.10" departSpeed="0.00" departDelay="0.00" arrival="57777.00" arrivalLane="-266565295#5_1" arrivalPos="172.76" arrivalSpeed="13.52" duration="119.00" routeLength="1206.22" waitingTime="12.00" waitingCount="1" stopTime="0.00" timeLoss="29.80" rerouteNo="1" devices="tripinfo_h3154c1:1 routing_h3154c1:1 emissions_h3154c1:1" vType="default_016" speedFactor="0.99" vaporized="">
        <emissions CO_abs="4785.871965" CO2_abs="296415.751973" HC_abs="28.762452" PMx_abs="5.241260" NOx_abs="120.732044" fuel_abs="127.416691" electricity_abs="0"/>
    </tripinfo>
    <tripinfo id="carIn86816:1" depart="57617.00" departLane="128361102#0_1" departPos="5.10" departSpeed="0.00" departDelay="0.80" arrival="57784.00" arrivalLane="201956811#0_1" arrivalPos="40.40" arrivalSpeed="13.70" duration="167.00" routeLength="2067.33" waitingTime="0.00" waitingCount="0" stopTime="0.00" timeLoss="20.46" rerouteNo="1" devices="tripinfo_carIn86816:1 routing_carIn86816:1 emissions_carIn86816:1" vType="default_016" speedFactor="1.03" vaporized="">
        <emissions CO_abs="5118.016765" CO2_abs="420452.921211" HC_abs="33.133770" PMx_abs="7.033831" NOx_abs="167.472896" fuel_abs="180.734362" electricity_abs="0"/>
    </tripinfo>
    <tripinfo id="carIn118591:1" depart="57689.00" departLane="315358244_1" departPos="5.10" departSpeed="0.00" departDelay="0.20" arrival="57785.00" arrivalLane="386687235_1" arrivalPos="80.84" arrivalSpeed="15.04" duration="96.00" routeLength="1186.14" waitingTime="9.00" waitingCount="1" stopTime="0.00" timeLoss="22.66" rerouteNo="1" devices="tripinfo_carIn118591:1 routing_carIn118591:1 emissions_carIn118591:1" vType="default_016" speedFactor="1.18" vaporized="">
        <emissions CO_abs="3465.580086" CO2_abs="259311.850778" HC_abs="21.681792" PMx_abs="4.471165" NOx_abs="103.202879" fuel_abs="111.466971" electricity_abs="0"/>
    </tripinfo>
    <tripinfo id="carIn12365:1" depart="57713.00" departLane="315358244_1" departPos="5.10" departSpeed="0.00" departDelay="0.50" arrival="57794.00" arrivalLane="447569997#1_1" arrivalPos="180.93" arrivalSpeed="6.96" duration="81.00" routeLength="718.04" waitingTime="0.00" waitingCount="0" stopTime="0.00" timeLoss="10.91" rerouteNo="1" devices="tripinfo_carIn12365:1 routing_carIn12365:1 emissions_carIn12365:1" vType="default_016" speedFactor="0.88" vaporized="">
        <emissions CO_abs="3066.317960" CO2_abs="168853.709060" HC_abs="17.875342" PMx_abs="2.793733" NOx_abs="68.278952" fuel_abs="72.583630" electricity_abs="0"/>
    </tripinfo>
    <tripinfo id="carIn28951:1" depart="57606.00" departLane="10425609#0_1" departPos="5.10" departSpeed="0.00" departDelay="0.20" arrival="57796.00" arrivalLane="-128361102#1_1" arrivalPos="274.68" arrivalSpeed="14.37" duration="190.00" routeLength="2113.04" waitingTime="17.00" waitingCount="2" stopTime="0.00" timeLoss="43.31" rerouteNo="1" devices="tripinfo_carIn28951:1 routing_carIn28951:1 emissions_carIn28951:1" vType="default_016" speedFactor="1.06" vaporized="">
        <emissions CO_abs="7069.890188" CO2_abs="500306.216405" HC_abs="43.828918" PMx_abs="8.556787" NOx_abs="200.439353" fuel_abs="215.060353" electricity_abs="0"/>
    </tripinfo>
    <tripinfo id="h11737c1:1" depart="57665.00" departLane="272042143_1" departPos="5.10" departSpeed="0.00" departDelay="1.50" arrival="57807.00" arrivalLane="-315358254#1_1" arrivalPos="137.16" arrivalSpeed="13.07" duration="142.00" routeLength="1596.88" waitingTime="3.00" waitingCount="2" stopTime="0.00" timeLoss="23.20" rerouteNo="1" devices="tripinfo_h11737c1:1 routing_h11737c1:1 emissions_h11737c1:1" vType="default_016" speedFactor="0.98" vaporized="">
        <emissions CO_abs="4563.822438" CO2_abs="352129.322858" HC_abs="28.979387" PMx_abs="5.645270" NOx_abs="138.905062" fuel_abs="151.365622" electricity_abs="0"/>
    </tripinfo>
    <tripinfo id="carIn50326:1" depart="57651.00" departLane="128361102#0_1" departPos="5.10" departSpeed="0.00" departDelay="0.30" arrival="57810.00" arrivalLane="18809673#0_1" arrivalPos="473.56" arrivalSpeed="12.63" duration="159.00" routeLength="1591.07" waitingTime="0.00" waitingCount="0" stopTime="0.00" timeLoss="18.46" rerouteNo="1" devices="tripinfo_carIn50326:1 routing_carIn50326:1 emissions_carIn50326:1" vType="default_016" speedFactor="0.92" vaporized="">
        <emissions CO_abs="5302.752715" CO2_abs="353087.817231" HC_abs="32.299987" PMx_abs="5.436402" NOx_abs="139.092917" fuel_abs="151.778475" electricity_abs="0"/>
    </tripinfo>
    <tripinfo id="carIn12858:1" depart="57661.00" departLane="128361109#1_1" departPos="5.10" departSpeed="0.00" departDelay="0.90" arrival="57811.00" arrivalLane="399835085#1_1" arrivalPos="212.23" arrivalSpeed="9.10" duration="150.00" routeLength="1738.12" waitingTime="14.00" waitingCount="1" stopTime="0.00" timeLoss="45.01" rerouteNo="1" devices="tripinfo_carIn12858:1 routing_carIn12858:1 emissions_carIn12858:1" vType="default_016" speedFactor="1.10" vaporized="">
        <emissions CO_abs="9194.159052" CO2_abs="531443.179862" HC_abs="54.575806" PMx_abs="10.548007" NOx_abs="220.941927" fuel_abs="228.444186" electricity_abs="0"/>
    </tripinfo>
    <tripinfo id="carIn107282:1" depart="57749.00" departLane="-447569998#1_1" departPos="5.10" departSpeed="0.00" departDelay="0.00" arrival="57811.00" arrivalLane="315358242#0_1" arrivalPos="165.37" arrivalSpeed="10.01" duration="62.00" routeLength="448.50" waitingTime="1.00" waitingCount="1" stopTime="0.00" timeLoss="10.23" rerouteNo="1" devices="tripinfo_carIn107282:1 routing_carIn107282:1 emissions_carIn107282:1" vType="default_016" speedFactor="0.81" vaporized="">
        <emissions CO_abs="2626.451738" CO2_abs="117158.090836" HC_abs="14.640709" PMx_abs="1.863677" NOx_abs="47.161475" fuel_abs="50.362211" electricity_abs="0"/>
    </tripinfo>
    <tripinfo id="h17549c1:1" depart="57680.00" departLane="-447569998#1_1" departPos="5.10" departSpeed="0.00" departDelay="0.00" arrival="57812.00" arrivalLane="-315358254#1_1" arrivalPos="137.16" arrivalSpeed="15.78" duration="132.00" routeLength="1746.60" waitingTime="0.00" waitingCount="0" stopTime="0.00" timeLoss="13.45" rerouteNo="1" devices="tripinfo_h17549c1:1 routing_h17549c1:1 emissions_h17549c1:1" vType="default_016" speedFactor="1.16" vaporized="">
        <emissions CO_abs="4363.256764" CO2_abs="374680.858532" HC_abs="28.324168" PMx_abs="6.260230" NOx_abs="148.047166" fuel_abs="161.058850" electricity_abs="0"/>
    </tripinfo>
    <tripinfo id="carIn129809:1" depart="57729.00" departLane="-447569998#1_1" departPos="5.10" departSpeed="0.00" departDelay="1.00" arrival="57814.00" arrivalLane="-315358244_1" arrivalPos="33.95" arrivalSpeed="12.43" duration="85.00" routeLength="706.49" waitingTime="5.00" waitingCount="1" stopTime="0.00" timeLoss="18.70" rerouteNo="1" devices="tripinfo_carIn129809:1 routing_carIn129809:1 emissions_carIn129809:1" vType="default_015" speedFactor="0.91" vaporized="">
        <emissions CO_abs="3170.379415" CO2_abs="182603.230178" HC_abs="18.665693" PMx_abs="2.966832" NOx_abs="73.227432" fuel_abs="78.493998" electricity_abs="0"/>
    </tripinfo>
    <tripinfo id="carIn82278:1" depart="57702.00" departLane="-306240162#1_0" departPos="5.10" departSpeed="0.00" departDelay="0.70" arrival="57824.00" arrivalLane="399835085#1_1" arrivalPos="212.23" arrivalSpeed="7.19" duration="122.00" routeLength="1093.26" waitingTime="19.00" waitingCount="1" stopTime="0.00" timeLoss="39.43" rerouteNo="1" devices="tripinfo_carIn82278:1 routing_carIn82278:1 emissions_carIn82278:1" vType="default_016" speedFactor="0.95" vaporized="">
        <emissions CO_abs="7256.889533" CO2_abs="344572.792227" HC_abs="41.168538" PMx_abs="6.511727" NOx_abs="142.422232" fuel_abs="148.118253" electricity_abs="0"/>
    </tripinfo>
    <tripinfo id="h20540c1:1" depart="57634.00" departLane="10425609#0_1" departPos="5.10" departSpeed="0.00" departDelay="0.50" arrival="57825.00" arrivalLane="-128361102#1_1" arrivalPos="274.68" arrivalSpeed="13.43" duration="191.00" routeLength="2113.04" waitingTime="14.00" waitingCount="2" stopTime="0.00" timeLoss="38.15" rerouteNo="1" devices="tripinfo_h20540c1:1 routing_h20540c1:1 emissions_h20540c1:1" vType="default_016" speedFactor="1.01" vaporized="">
        <emissions CO_abs="6367.567000" CO2_abs="464414.471992" HC_abs="39.802708" PMx_abs="7.679881" NOx_abs="184.591582" fuel_abs="199.632241" electricity_abs="0"/>
    </tripinfo>
    <tripinfo id="h17600c1:1" depart="57662.00" departLane="272042143_1" departPos="5.10" departSpeed="0.00" departDelay="0.30" arrival="57827.00" arrivalLane="201238729#3_1" arrivalPos="431.02" arrivalSpeed="14.60" duration="165.00" routeLength="2100.26" waitingTime="9.00" waitingCount="1" stopTime="0.00" timeLoss="26.27" rerouteNo="1" devices="tripinfo_h17600c1:1 routing_h17600c1:1 emissions_h17600c1:1" vType="default_016" speedFactor="1.10" vaporized="">
        <emissions CO_abs="5065.280020" CO2_abs="417919.285940" HC_abs="32.671208" PMx_abs="6.837625" NOx_abs="163.864438" fuel_abs="179.645616" electricity_abs="0"/>
    </tripinfo>
    <tripinfo id="carIn126288:1" depart="57674.00" departLane="272042143_1" departPos="5.10" departSpeed="0.00" departDelay="0.00" arrival="57827.00" arrivalLane="-315358254#1_1" arrivalPos="137.16" arrivalSpeed="12.27" duration="153.00" routeLength="1596.88" waitingTime="7.00" waitingCount="1" stopTime="0.00" timeLoss="26.91" rerouteNo="1" devices="tripinfo_carIn126288:1 routing_carIn126288:1 emissions_carIn126288:1" vType="default_016" speedFactor="0.93" vaporized="">
        <emissions CO_abs="4649.001564" CO2_abs="336628.227600" HC_abs="28.993028" PMx_abs="5.331124" NOx_abs="132.971871" fuel_abs="144.702636" electricity_abs="0"/>
    </tripinfo>
    <tripinfo id="carIn12152:1" depart="57647.00" departLane="24599188#0.94_1" departPos="5.10" departSpeed="0.00" departDelay="0.50" arrival="57829.00" arrivalLane="-315358254#1_1" arrivalPos="137.16" arrivalSpeed="15.66" duration="182.00" routeLength="2034.31" waitingTime="12.00" waitingCount="2" stopTime="0.00" timeLoss="44.90" rerouteNo="1" devices="tripinfo_carIn12152:1 routing_carIn12152:1 emissions_carIn12152:1" vType="default_016" speedFactor="1.16" vaporized="">
        <emissions CO_abs="7565.090676" CO2_abs="507711.321767" HC_abs="46.063422" PMx_abs="8.869219" NOx_abs="204.848611" fuel_abs="218.243478" electricity_abs="0"/>
    </tripinfo>
    <tripinfo id="carIn81860:1" depart="57712.00" departLane="128361102#0_1" departPos="5.10" departSpeed="0.00" departDelay="0.60" arrival="57829.00" arrivalLane="-24634517#17_1" arrivalPos="6.43" arrivalSpeed="5.92" duration="117.00" routeLength="1229.64" waitingTime="3.00" waitingCount="1" stopTime="0.00" timeLoss="21.95" rerouteNo="1" devices="tripinfo_carIn81860:1 routing_carIn81860:1 emissions_carIn81860:1" vType="default_016" speedFactor="0.94" vaporized="">
        <emissions CO_abs="3599.245872" CO2_abs="272865.638399" HC_abs="22.714924" PMx_abs="4.198567" NOx_abs="106.831803" fuel_abs="117.293780" electricity_abs="0"/>
    </tripinfo>
    <tripinfo id="carIn48184:1" depart="57613.00" departLane="-306240162#1_0" departPos="5.10" departSpeed="0.00" departDelay="0.70" arrival="57833.00" arrivalLane="386687235_1" arrivalPos="80.84" arrivalSpeed="14.37" duration="220.00" routeLength="2257.41" waitingTime="26.00" waitingCount="4" stopTime="0.00" timeLoss="78.12" rerouteNo="1" devices="tripinfo_carIn48184:1 routing_carIn48184:1 emissions_carIn48184:1" vType="default_016" speedFactor="1.05" vaporized="">
        <emissions CO_abs="10587.278992" CO2_abs="648058.560145" HC_abs="63.479900" PMx_abs="12.044274" NOx_abs="266.038197" fuel_abs="278.572545" electricity_abs="0"/>
    </tripinfo>
    <tripinfo id="h16072c2:3" depart="57663.00" departLane="315358254#0_1" departPos="5.10" departSpeed="0.00" departDelay="2.50" arrival="57836.00" arrivalLane="386687235_1" arrivalPos="80.84" arrivalSpeed="10.83" duration="173.00" routeLength="1611.92" waitingTime="9.00" waitingCount="2" stopTime="0.00" timeLoss="30.33" rerouteNo="1" devices="tripinfo_h16072c2:3 routing_h16072c2:3 emissions_h16072c2:3" vType="default_016" speedFactor="0.82" vaporized="">
        <emissions CO_abs="5274.568927" CO2_abs="344377.975961" HC_abs="31.963815" PMx_abs="5.310527" NOx_abs="136.055756" fuel_abs="148.034498" electricity_abs="0"/>
    </tripinfo>
    <tripinfo id="h8343c1:5" depart="57679.00" departLane="315358254#0_1" departPos="5.10" departSpeed="0.00" departDelay="0.60" arrival="57842.00" arrivalLane="-24634510#5_1" arrivalPos="236.88" arrivalSpeed="13.68" duration="163.00" routeLength="2056.84" waitingTime="5.00" waitingCount="1" stopTime="0.00" timeLoss="36.78" rerouteNo="1" devices="tripinfo_h8343c1:5 routing_h8343c1:5 emissions_h8343c1:5" vType="default_016" speedFactor="0.99" vaporized="">
        <emissions CO_abs="8108.683012" CO2_abs="556812.197005" HC_abs="50.177224" PMx_abs="10.535117" NOx_abs="228.831093" fuel_abs="239.348631" electricity_abs="0"/>
    </tripinfo>
    <tripinfo id="carIn46110:1" depart="57684.00" departLane="315358244_1" departPos="5.10" departSpeed="0.00" departDelay="1.20" arrival="57842.00" arrivalLane="32978638#0_1" arrivalPos="49.29" arrivalSpeed="13.29" duration="158.00" routeLength="1764.04" waitingTime="6.00" waitingCount="2" stopTime="0.00" timeLoss="27.26" rerouteNo="1" devices="tripinfo_carIn46110:1 routing_carIn46110:1 emissions_carIn46110:1" vType="default_016" speedFactor="0.98" vaporized="">
        <emissions CO_abs="5021.649607" CO2_abs="382971.928661" HC_abs="31.790061" PMx_abs="6.296078" NOx_abs="152.228508" fuel_abs="164.623356" electricity_abs="0"/>
    </tripinfo>
    <tripinfo id="50R_frequency3.17" depart="57674.00" departLane="-18809673#6_1" departPos="12.10" departSpeed="0.00" departDelay="0.70" arrival="57843.00" arrivalLane="201956811#0_1" arrivalPos="40.40" arrivalSpeed="10.72" duration="169.00" routeLength="1954.47" waitingTime="1.00" waitingCount="1" stopTime="0.00" timeLoss="24.20" rerouteNo="1" devices="tripinfo_50R_frequency3.17 routing_50R_frequency3.17 emissions_50R_frequency3.17" vType="bus" speedFactor="1.00" vaporized="">
        <emissions CO_abs="3067.827239" CO2_abs="1931906.856994" HC_abs="650.973518" PMx_abs="329.397963" NOx_abs="14957.987577" fuel_abs="823.945065" electricity_abs="0"/>
    </tripinfo>
    <tripinfo id="carIn73855:1" depart="57743.00" departLane="386687232#0_1" departPos="5.10" departSpeed="0.00" departDelay="0.50" arrival="57843.00" arrivalLane="-315358244_1" arrivalPos="33.95" arrivalSpeed="14.14" duration="100.00" routeLength="1157.39" waitingTime="4.00" waitingCount="2" stopTime="0.00" timeLoss="20.29" rerouteNo="1" devices="tripinfo_carIn73855:1 routing_carIn73855:1 emissions_carIn73855:1" vType="default_016" speedFactor="1.06" vaporized="">
        <emissions CO_abs="4147.534153" CO2_abs="288953.336021" HC_abs="25.616991" PMx_abs="5.061439" NOx_abs="116.814476" fuel_abs="124.208586" electricity_abs="0"/>
    </tripinfo>