<?xml version="1.0" encoding="UTF-8"?>

<!-- generated on 2021-10-26 12:02:25 by Eclipse SUMO sumo Version 1.10.0
<configuration xmlns:xsi="http://www.w3.org/2001/XMLSchema-instance" xsi:noNamespaceSchemaLocation="http://sumo.dlr.de/xsd/sumoConfiguration.xsd">

    <input>
        <net-file value="/Users/behradkoohy/sumo-scratchpad/RESCO/environments/ingolstadt21/ingolstadt21.net.xml"/>
        <route-files value="/Users/behradkoohy/sumo-scratchpad/RESCO/environments/ingolstadt21/ingolstadt21.rou.xml"/>
    </input>

    <output>
        <tripinfo-output value="/Users/behradkoohy/sumo-scratchpad/RESCO/logs/IDQN-tr0-ingolstadt21-21-drq_norm-wait_norm/tripinfo_44.xml"/>
        <tripinfo-output.write-unfinished value="true"/>
    </output>

    <time>
        <begin value="57600"/>
        <end value="61200"/>
    </time>

    <processing>
        <time-to-teleport value="-1"/>
    </processing>

    <report>
        <no-warnings value="true"/>
        <no-step-log value="true"/>
    </report>

    <emissions>
        <device.emissions.probability value="1"/>
    </emissions>

    <traci_server>
        <remote-port value="57914"/>
    </traci_server>

    <random_number>
        <random value="true"/>
    </random_number>

</configuration>
-->

<tripinfos xmlns:xsi="http://www.w3.org/2001/XMLSchema-instance" xsi:noNamespaceSchemaLocation="http://sumo.dlr.de/xsd/tripinfo_file.xsd">
    <tripinfo id="h15454c2:3" depart="57612.00" departLane="24608844_1" departPos="5.10" departSpeed="0.00" departDelay="0.50" arrival="57655.00" arrivalLane="32978638#0_1" arrivalPos="49.29" arrivalSpeed="12.54" duration="43.00" routeLength="354.79" waitingTime="0.00" waitingCount="0" stopTime="0.00" timeLoss="6.87" rerouteNo="1" devices="tripinfo_h15454c2:3 routing_h15454c2:3 emissions_h15454c2:3" vType="default_016" speedFactor="0.95" vaporized="">
        <emissions CO_abs="2118.353193" CO2_abs="109293.969647" HC_abs="12.194564" PMx_abs="1.922648" NOx_abs="45.066925" fuel_abs="46.981144" electricity_abs="0"/>
    </tripinfo>
    <tripinfo id="carIn60260:1" depart="57606.00" departLane="315358254#0_1" departPos="5.10" departSpeed="0.00" departDelay="0.90" arrival="57657.00" arrivalLane="399835085#1_1" arrivalPos="212.23" arrivalSpeed="9.10" duration="51.00" routeLength="430.98" waitingTime="0.00" waitingCount="0" stopTime="0.00" timeLoss="11.63" rerouteNo="1" devices="tripinfo_carIn60260:1 routing_carIn60260:1 emissions_carIn60260:1" vType="default_016" speedFactor="1.18" vaporized="">
        <emissions CO_abs="2368.204759" CO2_abs="128968.612750" HC_abs="13.795769" PMx_abs="2.255942" NOx_abs="52.887705" fuel_abs="55.438422" electricity_abs="0"/>
    </tripinfo>
    <tripinfo id="carIn53971:1" depart="57640.00" departLane="272042143_1" departPos="5.10" departSpeed="0.00" departDelay="0.80" arrival="57692.00" arrivalLane="24634414#1_1" arrivalPos="162.19" arrivalSpeed="7.89" duration="52.00" routeLength="493.04" waitingTime="0.00" waitingCount="0" stopTime="0.00" timeLoss="8.02" rerouteNo="1" devices="tripinfo_carIn53971:1 routing_carIn53971:1 emissions_carIn53971:1" vType="default_016" speedFactor="1.05" vaporized="">
        <emissions CO_abs="2159.395886" CO2_abs="129881.156369" HC_abs="12.859356" PMx_abs="2.183778" NOx_abs="52.481563" fuel_abs="55.830652" electricity_abs="0"/>
    </tripinfo>
    <tripinfo id="h7800c1:5" depart="57696.00" departLane="-447569998#1_1" departPos="5.10" departSpeed="0.00" departDelay="0.00" arrival="57726.00" arrivalLane="-447569998#1_1" arrivalPos="180.76" arrivalSpeed="5.54" duration="30.00" routeLength="175.66" waitingTime="0.00" waitingCount="0" stopTime="0.00" timeLoss="3.42" rerouteNo="1" devices="tripinfo_h7800c1:5 routing_h7800c1:5 emissions_h7800c1:5" vType="default_016" speedFactor="0.80" vaporized="">
        <emissions CO_abs="1290.864199" CO2_abs="46909.911147" HC_abs="6.947641" PMx_abs="0.775981" NOx_abs="19.225677" fuel_abs="20.165092" electricity_abs="0"/>
    </tripinfo>
    <tripinfo id="carIn80064:1" depart="57603.00" departLane="128361109#1_1" departPos="5.10" departSpeed="0.00" departDelay="0.40" arrival="57727.00" arrivalLane="-315358254#1_1" arrivalPos="137.16" arrivalSpeed="13.01" duration="124.00" routeLength="1587.97" waitingTime="6.00" waitingCount="1" stopTime="0.00" timeLoss="29.34" rerouteNo="1" devices="tripinfo_carIn80064:1 routing_carIn80064:1 emissions_carIn80064:1" vType="default_016" speedFactor="0.95" vaporized="">
        <emissions CO_abs="5986.890551" CO2_abs="418201.255834" HC_abs="37.267415" PMx_abs="8.007351" NOx_abs="172.432391" fuel_abs="179.765771" electricity_abs="0"/>
    </tripinfo>
    <tripinfo id="h3568c1:3" depart="57656.00" departLane="266565295#5_1" departPos="5.10" departSpeed="0.00" departDelay="0.80" arrival="57736.00" arrivalLane="-24634415_1" arrivalPos="62.03" arrivalSpeed="12.90" duration="80.00" routeLength="807.40" waitingTime="0.00" waitingCount="0" stopTime="0.00" timeLoss="13.05" rerouteNo="1" devices="tripinfo_h3568c1:3 routing_h3568c1:3 emissions_h3568c1:3" vType="default_016" speedFactor="0.97" vaporized="">
        <emissions CO_abs="3185.659002" CO2_abs="209683.976293" HC_abs="19.413770" PMx_abs="3.571972" NOx_abs="84.741339" fuel_abs="90.134355" electricity_abs="0"/>
    </tripinfo>
    <tripinfo id="carIn22761:1" depart="57616.00" departLane="-306240162#1_0" departPos="5.10" departSpeed="0.00" departDelay="2.10" arrival="57737.00" arrivalLane="399835085#1_1" arrivalPos="212.23" arrivalSpeed="6.97" duration="121.00" routeLength="1093.26" waitingTime="16.00" waitingCount="2" stopTime="0.00" timeLoss="37.72" rerouteNo="1" devices="tripinfo_carIn22761:1 routing_carIn22761:1 emissions_carIn22761:1" vType="default_016" speedFactor="0.93" vaporized="">
        <emissions CO_abs="6642.997280" CO2_abs="320204.444545" HC_abs="37.838654" PMx_abs="6.276708" NOx_abs="134.498269" fuel_abs="137.642759" electricity_abs="0"/>
    </tripinfo>
    <tripinfo id="h12244c1:3" depart="57612.00" departLane="315358244_1" departPos="5.10" departSpeed="0.00" departDelay="0.40" arrival="57739.00" arrivalLane="386687235_1" arrivalPos="80.84" arrivalSpeed="13.33" duration="127.00" routeLength="1186.14" waitingTime="22.00" waitingCount="2" stopTime="0.00" timeLoss="43.50" rerouteNo="1" devices="tripinfo_h12244c1:3 routing_h12244c1:3 emissions_h12244c1:3" vType="default_016" speedFactor="1.04" vaporized="">
        <emissions CO_abs="6464.594296" CO2_abs="304295.749038" HC_abs="36.571780" PMx_abs="5.611756" NOx_abs="125.439598" fuel_abs="130.804942" electricity_abs="0"/>
    </tripinfo>
    <tripinfo id="h4538c1:1" depart="57701.00" departLane="-10427692#1_1" departPos="5.10" departSpeed="0.00" departDelay="0.00" arrival="57739.00" arrivalLane="-128361102#1_1" arrivalPos="274.68" arrivalSpeed="13.15" duration="38.00" routeLength="440.74" waitingTime="0.00" waitingCount="0" stopTime="0.00" timeLoss="6.45" rerouteNo="1" devices="tripinfo_h4538c1:1 routing_h4538c1:1 emissions_h4538c1:1" vType="default_016" speedFactor="1.00" vaporized="">
        <emissions CO_abs="1527.497599" CO2_abs="108686.209088" HC_abs="9.477343" PMx_abs="1.798061" NOx_abs="43.340549" fuel_abs="46.719644" electricity_abs="0"/>
    </tripinfo>
    <tripinfo id="h7181c1:1" depart="57660.00" departLane="315358254#0_1" departPos="5.10" departSpeed="0.00" departDelay="0.10" arrival="57740.00" arrivalLane="306240162#0_0" arrivalPos="220.43" arrivalSpeed="16.59" duration="80.00" routeLength="932.35" waitingTime="11.00" waitingCount="2" stopTime="0.00" timeLoss="28.53" rerouteNo="1" devices="tripinfo_h7181c1:1 routing_h7181c1:1 emissions_h7181c1:1" vType="default_016" speedFactor="1.00" vaporized="">
        <emissions CO_abs="5041.905228" CO2_abs="309525.124444" HC_abs="30.386293" PMx_abs="6.145895" NOx_abs="129.141723" fuel_abs="133.051003" electricity_abs="0"/>
    </tripinfo>
    <tripinfo id="h3688c1:1" depart="57625.00" departLane="201201950#1_1" departPos="5.10" departSpeed="0.00" departDelay="0.00" arrival="57744.00" arrivalLane="32978638#0_1" arrivalPos="49.29" arrivalSpeed="12.09" duration="119.00" routeLength="1089.75" waitingTime="13.00" waitingCount="1" stopTime="0.00" timeLoss="27.66" rerouteNo="1" devices="tripinfo_h3688c1:1 routing_h3688c1:1 emissions_h3688c1:1" vType="default_016" speedFactor="0.88" vaporized="">
        <emissions CO_abs="4571.742514" CO2_abs="247832.719732" HC_abs="26.587907" PMx_abs="4.206101" NOx_abs="100.287608" fuel_abs="106.533592" electricity_abs="0"/>
    </tripinfo>
    <tripinfo id="S5R_frequency1.2" depart="57616.00" departLane="315358250#0_1" departPos="12.10" departSpeed="0.00" departDelay="4.40" arrival="57746.00" arrivalLane="386687235_1" arrivalPos="80.84" arrivalSpeed="13.89" duration="130.00" routeLength="1115.62" waitingTime="16.00" waitingCount="2" stopTime="0.00" timeLoss="48.71" rerouteNo="1" devices="tripinfo_S5R_frequency1.2 routing_S5R_frequency1.2 emissions_S5R_frequency1.2" vType="bus" speedFactor="1.00" vaporized="">
        <emissions CO_abs="2679.301917" CO2_abs="1606447.420580" HC_abs="555.997907" PMx_abs="284.737852" NOx_abs="12677.309802" fuel_abs="685.093763" electricity_abs="0"/>
    </tripinfo>
    <tripinfo id="carIn30817:1" depart="57681.00" departLane="315358244_1" departPos="5.10" departSpeed="0.00" departDelay="0.20" arrival="57746.00" arrivalLane="447569997#1_1" arrivalPos="180.93" arrivalSpeed="9.93" duration="65.00" routeLength="718.04" waitingTime="0.00" waitingCount="0" stopTime="0.00" timeLoss="13.50" rerouteNo="1" devices="tripinfo_carIn30817:1 routing_carIn30817:1 emissions_carIn30817:1" vType="default_016" speedFactor="1.20" vaporized="">
        <emissions CO_abs="3075.231373" CO2_abs="187443.959573" HC_abs="18.364285" PMx_abs="3.349380" NOx_abs="76.500120" fuel_abs="80.574277" electricity_abs="0"/>
    </tripinfo>
    <tripinfo id="h317c2:1" depart="57707.00" departLane="-32978638#0_1" departPos="5.10" departSpeed="0.00" departDelay="0.10" arrival="57747.00" arrivalLane="-266565295#5_1" arrivalPos="172.76" arrivalSpeed="11.70" duration="40.00" routeLength="370.53" waitingTime="1.00" waitingCount="1" stopTime="0.00" timeLoss="9.37" rerouteNo="1" devices="tripinfo_h317c2:1 routing_h317c2:1 emissions_h317c2:1" vType="default_016" speedFactor="0.90" vaporized="">
        <emissions CO_abs="1854.827008" CO2_abs="108410.964925" HC_abs="10.973662" PMx_abs="1.839542" NOx_abs="43.925037" fuel_abs="46.601503" electricity_abs="0"/>
    </tripinfo>
    <tripinfo id="h9563c2:5" depart="57631.00" departLane="315358244_1" departPos="5.10" departSpeed="0.00" departDelay="0.70" arrival="57754.00" arrivalLane="386687235_1" arrivalPos="80.84" arrivalSpeed="15.76" duration="123.00" routeLength="1186.14" waitingTime="12.00" waitingCount="2" stopTime="0.00" timeLoss="48.38" rerouteNo="1" devices="tripinfo_h9563c2:5 routing_h9563c2:5 emissions_h9563c2:5" vType="default_016" speedFactor="1.17" vaporized="">
        <emissions CO_abs="6162.855898" CO2_abs="332421.208766" HC_abs="35.884395" PMx_abs="6.038413" NOx_abs="136.008370" fuel_abs="142.894404" electricity_abs="0"/>
    </tripinfo>
    <tripinfo id="carIn121703:1" depart="57647.00" departLane="386687232#0_1" departPos="5.10" departSpeed="0.00" departDelay="0.30" arrival="57763.00" arrivalLane="-315358244_1" arrivalPos="33.95" arrivalSpeed="13.35" duration="116.00" routeLength="1157.39" waitingTime="15.00" waitingCount="2" stopTime="0.00" timeLoss="33.45" rerouteNo="1" devices="tripinfo_carIn121703:1 routing_carIn121703:1 emissions_carIn121703:1" vType="default_016" speedFactor="1.02" vaporized="">
        <emissions CO_abs="5000.801380" CO2_abs="279836.835399" HC_abs="29.304952" PMx_abs="4.943152" NOx_abs="113.607639" fuel_abs="120.290560" electricity_abs="0"/>
    </tripinfo>
    <tripinfo id="h3326c1:2" depart="57656.00" departLane="22716069#0_1" departPos="5.10" departSpeed="0.00" departDelay="0.00" arrival="57766.00" arrivalLane="24634517#13_1" arrivalPos="111.62" arrivalSpeed="14.62" duration="110.00" routeLength="1312.81" waitingTime="0.00" waitingCount="0" stopTime="0.00" timeLoss="18.24" rerouteNo="1" devices="tripinfo_h3326c1:2 routing_h3326c1:2 emissions_h3326c1:2" vType="default_016" speedFactor="1.07" vaporized="">
        <emissions CO_abs="4376.815521" CO2_abs="313661.533570" HC_abs="27.332057" PMx_abs="5.628881" NOx_abs="127.923349" fuel_abs="134.829249" electricity_abs="0"/>
    </tripinfo>
    <tripinfo id="carIn107084:1" depart="57601.00" departLane="124812856#0_1" departPos="5.10" departSpeed="0.00" departDelay="0.70" arrival="57768.00" arrivalLane="-128361102#1_1" arrivalPos="274.68" arrivalSpeed="15.10" duration="167.00" routeLength="2250.49" waitingTime="0.00" waitingCount="0" stopTime="0.00" timeLoss="21.60" rerouteNo="1" devices="tripinfo_carIn107084:1 routing_carIn107084:1 emissions_carIn107084:1" vType="default_016" speedFactor="1.14" vaporized="">
        <emissions CO_abs="5979.633630" CO2_abs="489526.094274" HC_abs="38.675335" PMx_abs="8.628003" NOx_abs="196.837555" fuel_abs="210.425336" electricity_abs="0"/>
    </tripinfo>
    <tripinfo id="carIn27009:1" depart="57673.00" departLane="-447569998#1_1" departPos="5.10" departSpeed="0.00" departDelay="0.50" arrival="57768.00" arrivalLane="-26677539_1" arrivalPos="152.75" arrivalSpeed="7.41" duration="95.00" routeLength="699.63" waitingTime="0.00" waitingCount="0" stopTime="0.00" timeLoss="9.55" rerouteNo="1" devices="tripinfo_carIn27009:1 routing_carIn27009:1 emissions_carIn27009:1" vType="default_015" speedFactor="0.99" vaporized="">
        <emissions CO_abs="3693.370598" CO2_abs="177747.805269" HC_abs="20.881241" PMx_abs="2.773148" NOx_abs="71.379527" fuel_abs="76.407448" electricity_abs="0"/>
    </tripinfo>
    <tripinfo id="h3154c1:1" depart="57658.00" departLane="24634507_1" departPos="5.10" departSpeed="0.00" departDelay="0.00" arrival="57772.00" arrivalLane="-266565295#5_1" arrivalPos="172.76" arrivalSpeed="13.65" duration="114.00" routeLength="1206.22" waitingTime="8.00" waitingCount="1" stopTime="0.00" timeLoss="23.33" rerouteNo="1" devices="tripinfo_h3154c1:1 routing_h3154c1:1 emissions_h3154c1:1" vType="default_016" speedFactor="0.98" vaporized="">
        <emissions CO_abs="4513.327126" CO2_abs="296006.615441" HC_abs="27.463442" PMx_abs="4.981268" NOx_abs="118.606133" fuel_abs="127.241011" electricity_abs="0"/>
    </tripinfo>
    <tripinfo id="carIn86816:1" depart="57617.00" departLane="128361102#0_1" departPos="5.10" departSpeed="0.00" departDelay="0.80" arrival="57782.00" arrivalLane="201956811#0_1" arrivalPos="40.40" arrivalSpeed="15.48" duration="165.00" routeLength="2067.33" waitingTime="7.00" waitingCount="1" stopTime="0.00" timeLoss="32.58" rerouteNo="1" devices="tripinfo_carIn86816:1 routing_carIn86816:1 emissions_carIn86816:1" vType="default_016" speedFactor="1.14" vaporized="">
        <emissions CO_abs="6137.542056" CO2_abs="464583.586462" HC_abs="38.781729" PMx_abs="8.097089" NOx_abs="186.059230" fuel_abs="199.704221" electricity_abs="0"/>
    </tripinfo>
    <tripinfo id="carIn12858:1" depart="57661.00" departLane="128361109#1_1" departPos="5.10" departSpeed="0.00" departDelay="0.90" arrival="57784.00" arrivalLane="399835085#1_1" arrivalPos="212.23" arrivalSpeed="9.06" duration="123.00" routeLength="1738.12" waitingTime="0.00" waitingCount="0" stopTime="0.00" timeLoss="25.12" rerouteNo="1" devices="tripinfo_carIn12858:1 routing_carIn12858:1 emissions_carIn12858:1" vType="default_016" speedFactor="1.19" vaporized="">
        <emissions CO_abs="7674.245309" CO2_abs="514165.992037" HC_abs="47.346079" PMx_abs="10.441818" NOx_abs="214.076675" fuel_abs="221.016199" electricity_abs="0"/>
    </tripinfo>
    <tripinfo id="h645c1:1" depart="57622.00" departLane="266565295#5_1" departPos="5.10" departSpeed="0.00" departDelay="0.40" arrival="57793.00" arrivalLane="-315358244_1" arrivalPos="33.95" arrivalSpeed="11.12" duration="171.00" routeLength="1910.83" waitingTime="0.00" waitingCount="0" stopTime="0.00" timeLoss="12.87" rerouteNo="1" devices="tripinfo_h645c1:1 routing_h645c1:1 emissions_h645c1:1" vType="default_016" speedFactor="0.88" vaporized="">
        <emissions CO_abs="3691.098956" CO2_abs="330277.665333" HC_abs="24.382633" PMx_abs="4.532630" NOx_abs="125.487431" fuel_abs="141.973161" electricity_abs="0"/>
    </tripinfo>
    <tripinfo id="carIn118591:1" depart="57689.00" departLane="315358244_1" departPos="5.10" departSpeed="0.00" departDelay="0.20" arrival="57796.00" arrivalLane="386687235_1" arrivalPos="80.84" arrivalSpeed="14.58" duration="107.00" routeLength="1186.14" waitingTime="15.00" waitingCount="1" stopTime="0.00" timeLoss="27.60" rerouteNo="1" devices="tripinfo_carIn118591:1 routing_carIn118591:1 emissions_carIn118591:1" vType="default_016" speedFactor="1.09" vaporized="">
        <emissions CO_abs="4516.533149" CO2_abs="281430.957092" HC_abs="26.968396" PMx_abs="4.757842" NOx_abs="111.691112" fuel_abs="120.975789" electricity_abs="0"/>
    </tripinfo>
    <tripinfo id="carIn12365:1" depart="57713.00" departLane="315358244_1" departPos="5.10" departSpeed="0.00" departDelay="0.50" arrival="57796.00" arrivalLane="447569997#1_1" arrivalPos="180.93" arrivalSpeed="7.12" duration="83.00" routeLength="718.04" waitingTime="6.00" waitingCount="2" stopTime="0.00" timeLoss="20.45" rerouteNo="1" devices="tripinfo_carIn12365:1 routing_carIn12365:1 emissions_carIn12365:1" vType="default_016" speedFactor="0.99" vaporized="">
        <emissions CO_abs="2847.857525" CO2_abs="166335.046102" HC_abs="16.823256" PMx_abs="2.695235" NOx_abs="66.448563" fuel_abs="71.500940" electricity_abs="0"/>
    </tripinfo>
    <tripinfo id="carIn129809:1" depart="57729.00" departLane="-447569998#1_1" departPos="5.10" departSpeed="0.00" departDelay="1.00" arrival="57798.00" arrivalLane="-315358244_1" arrivalPos="33.95" arrivalSpeed="13.32" duration="69.00" routeLength="706.49" waitingTime="0.00" waitingCount="0" stopTime="0.00" timeLoss="8.44" rerouteNo="1" devices="tripinfo_carIn129809:1 routing_carIn129809:1 emissions_carIn129809:1" vType="default_015" speedFactor="1.00" vaporized="">
        <emissions CO_abs="2417.743896" CO2_abs="156078.171703" HC_abs="14.626957" PMx_abs="2.546439" NOx_abs="62.294379" fuel_abs="67.091681" electricity_abs="0"/>
    </tripinfo>
    <tripinfo id="h330c1:1" depart="57736.00" departLane="-32978638#0_1" departPos="5.10" departSpeed="0.00" departDelay="0.20" arrival="57804.00" arrivalLane="-266565295#5_1" arrivalPos="172.76" arrivalSpeed="14.19" duration="68.00" routeLength="370.53" waitingTime="31.00" waitingCount="1" stopTime="0.00" timeLoss="41.98" rerouteNo="1" devices="tripinfo_h330c1:1 routing_h330c1:1 emissions_h330c1:1" vType="default_016" speedFactor="1.05" vaporized="">
        <emissions CO_abs="6176.992381" CO2_abs="191975.731191" HC_abs="32.652906" PMx_abs="4.026907" NOx_abs="82.680568" fuel_abs="82.523933" electricity_abs="0"/>
    </tripinfo>
    <tripinfo id="h11737c1:1" depart="57665.00" departLane="272042143_1" departPos="5.10" departSpeed="0.00" departDelay="1.50" arrival="57807.00" arrivalLane="-315358254#1_1" arrivalPos="137.16" arrivalSpeed="13.15" duration="142.00" routeLength="1596.88" waitingTime="2.00" waitingCount="1" stopTime="0.00" timeLoss="21.88" rerouteNo="1" devices="tripinfo_h11737c1:1 routing_h11737c1:1 emissions_h11737c1:1" vType="default_016" speedFactor="0.97" vaporized="">
        <emissions CO_abs="4341.365790" CO2_abs="340674.394376" HC_abs="27.696803" PMx_abs="5.373931" NOx_abs="134.023112" fuel_abs="146.441681" electricity_abs="0"/>
    </tripinfo>
    <tripinfo id="carIn126288:1" depart="57674.00" departLane="272042143_1" departPos="5.10" departSpeed="0.00" departDelay="0.00" arrival="57809.00" arrivalLane="-315358254#1_1" arrivalPos="137.16" arrivalSpeed="13.86" duration="135.00" routeLength="1596.88" waitingTime="1.00" waitingCount="1" stopTime="0.00" timeLoss="27.45" rerouteNo="1" devices="tripinfo_carIn126288:1 routing_carIn126288:1 emissions_carIn126288:1" vType="default_016" speedFactor="1.08" vaporized="">
        <emissions CO_abs="5035.504656" CO2_abs="371232.654526" HC_abs="31.626751" PMx_abs="6.526282" NOx_abs="150.453631" fuel_abs="159.576616" electricity_abs="0"/>
    </tripinfo>
    <tripinfo id="carIn28951:1" depart="57606.00" departLane="10425609#0_1" departPos="5.10" departSpeed="0.00" departDelay="0.20" arrival="57812.00" arrivalLane="-128361102#1_1" arrivalPos="274.68" arrivalSpeed="15.10" duration="206.00" routeLength="2095.01" waitingTime="40.00" waitingCount="3" stopTime="0.00" timeLoss="74.20" rerouteNo="1" devices="tripinfo_carIn28951:1 routing_carIn28951:1 emissions_carIn28951:1" vType="default_016" speedFactor="1.17" vaporized="">
        <emissions CO_abs="11179.364182" CO2_abs="587424.874105" HC_abs="64.452084" PMx_abs="10.991599" NOx_abs="240.948658" fuel_abs="252.509987" electricity_abs="0"/>
    </tripinfo>
    <tripinfo id="h2831c1:1" depart="57600.00" departLane="201089423#0_1" departPos="5.10" departSpeed="0.00" departDelay="0.00" arrival="57813.00" arrivalLane="-315358244_1" arrivalPos="33.95" arrivalSpeed="14.47" duration="213.00" routeLength="2672.18" waitingTime="10.00" waitingCount="2" stopTime="0.00" timeLoss="37.52" rerouteNo="1" devices="tripinfo_h2831c1:1 routing_h2831c1:1 emissions_h2831c1:1" vType="default_016" speedFactor="1.11" vaporized="">
        <emissions CO_abs="6145.712243" CO2_abs="530160.331367" HC_abs="39.703019" PMx_abs="8.408451" NOx_abs="205.581335" fuel_abs="227.893382" electricity_abs="0"/>
    </tripinfo>
    <tripinfo id="carIn77943:1" depart="57608.00" departLane="124812856#0_1" departPos="5.10" departSpeed="0.00" departDelay="2.50" arrival="57814.00" arrivalLane="-128361102#1_1" arrivalPos="274.68" arrivalSpeed="15.80" duration="206.00" routeLength="2232.46" waitingTime="25.00" waitingCount="2" stopTime="0.00" timeLoss="68.54" rerouteNo="1" devices="tripinfo_carIn77943:1 routing_carIn77943:1 emissions_carIn77943:1" vType="default_016" speedFactor="1.19" vaporized="">
        <emissions CO_abs="10160.273387" CO2_abs="604555.953361" HC_abs="60.394948" PMx_abs="11.242806" NOx_abs="248.120135" fuel_abs="259.872865" electricity_abs="0"/>
    </tripinfo>
    <tripinfo id="h5979c1:5" depart="57669.00" departLane="399835085#1_1" departPos="5.10" departSpeed="0.00" departDelay="0.00" arrival="57814.00" arrivalLane="-315358254#1_1" arrivalPos="137.16" arrivalSpeed="11.53" duration="145.00" routeLength="659.33" waitingTime="38.00" waitingCount="3" stopTime="0.00" timeLoss="62.70" rerouteNo="1" devices="tripinfo_h5979c1:5 routing_h5979c1:5 emissions_h5979c1:5" vType="default_016" speedFactor="0.89" vaporized="">
        <emissions CO_abs="9659.127173" CO2_abs="273184.849724" HC_abs="50.294049" PMx_abs="5.210324" NOx_abs="115.510018" fuel_abs="117.434426" electricity_abs="0"/>
    </tripinfo>
    <tripinfo id="carIn107282:1" depart="57749.00" departLane="-447569998#1_1" departPos="5.10" departSpeed="0.00" departDelay="0.00" arrival="57815.00" arrivalLane="315358242#0_1" arrivalPos="165.37" arrivalSpeed="12.85" duration="66.00" routeLength="448.50" waitingTime="18.00" waitingCount="1" stopTime="0.00" timeLoss="24.55" rerouteNo="1" devices="tripinfo_carIn107282:1 routing_carIn107282:1 emissions_carIn107282:1" vType="default_016" speedFactor="1.02" vaporized="">
        <emissions CO_abs="4256.121546" CO2_abs="159059.220205" HC_abs="23.053701" PMx_abs="2.857050" NOx_abs="65.399774" fuel_abs="68.374222" electricity_abs="0"/>
    </tripinfo>
    <tripinfo id="carIn102915:1" depart="57643.00" departLane="128361102#0_1" departPos="5.10" departSpeed="0.00" departDelay="0.40" arrival="57818.00" arrivalLane="201956811#0_1" arrivalPos="40.40" arrivalSpeed="12.84" duration="175.00" routeLength="2067.33" waitingTime="0.00" waitingCount="0" stopTime="0.00" timeLoss="15.86" rerouteNo="1" devices="tripinfo_carIn102915:1 routing_carIn102915:1 emissions_carIn102915:1" vType="default_016" speedFactor="0.95" vaporized="">
        <emissions CO_abs="4921.601970" CO2_abs="409638.861666" HC_abs="31.960474" PMx_abs="6.521025" NOx_abs="161.447138" fuel_abs="176.086285" electricity_abs="0"/>
    </tripinfo>
    <tripinfo id="h16072c2:3" depart="57663.00" departLane="315358254#0_1" departPos="5.10" departSpeed="0.00" departDelay="2.50" arrival="57823.00" arrivalLane="386687235_2" arrivalPos="80.84" arrivalSpeed="13.36" duration="160.00" routeLength="1611.92" waitingTime="27.00" waitingCount="2" stopTime="0.00" timeLoss="48.13" rerouteNo="1" devices="tripinfo_h16072c2:3 routing_h16072c2:3 emissions_h16072c2:3" vType="default_016" speedFactor="1.05" vaporized="">
        <emissions CO_abs="7188.360560" CO2_abs="383369.936513" HC_abs="41.668582" PMx_abs="6.742428" NOx_abs="155.005760" fuel_abs="164.795640" electricity_abs="0"/>
    </tripinfo>
    <tripinfo id="carIn48184:1" depart="57613.00" departLane="-306240162#1_0" departPos="5.10" departSpeed="0.00" departDelay="0.70" arrival="57824.00" arrivalLane="386687235_1" arrivalPos="80.84" arrivalSpeed="13.18" duration="211.00" routeLength="2257.41" waitingTime="27.00" waitingCount="3" stopTime="0.00" timeLoss="58.26" rerouteNo="1" devices="tripinfo_carIn48184:1 routing_carIn48184:1 emissions_carIn48184:1" vType="default_016" speedFactor="0.97" vaporized="">
        <emissions CO_abs="9881.143678" CO2_abs="556275.186215" HC_abs="58.079680" PMx_abs="9.952613" NOx_abs="225.171130" fuel_abs="239.120167" electricity_abs="0"/>
    </tripinfo>
    <tripinfo id="randUni15030:1" depart="57735.00" departLane="386687232#0_1" departPos="5.10" departSpeed="0.00" departDelay="0.10" arrival="57824.00" arrivalLane="26677539_1" arrivalPos="151.98" arrivalSpeed="8.55" duration="89.00" routeLength="919.89" waitingTime="0.00" waitingCount="0" stopTime="0.00" timeLoss="10.62" rerouteNo="1" devices="tripinfo_randUni15030:1 routing_randUni15030:1 emissions_randUni15030:1" vType="random_016" speedFactor="1.07" vaporized="">
        <emissions CO_abs="3211.726100" CO2_abs="210905.599153" HC_abs="19.543706" PMx_abs="3.603033" NOx_abs="85.308624" fuel_abs="90.659466" electricity_abs="0"/>
    </tripinfo>
    <tripinfo id="carIn82220:1" depart="57619.00" departLane="-306240162#1_0" departPos="5.10" departSpeed="0.00" departDelay="3.50" arrival="57826.00" arrivalLane="386687235_1" arrivalPos="80.84" arrivalSpeed="12.77" duration="207.00" routeLength="2257.41" waitingTime="20.00" waitingCount="2" stopTime="0.00" timeLoss="53.16" rerouteNo="1" devices="tripinfo_carIn82220:1 routing_carIn82220:1 emissions_carIn82220:1" vType="default_016" speedFactor="0.97" vaporized="">
        <emissions CO_abs="8859.768952" CO2_abs="546802.906180" HC_abs="53.192891" PMx_abs="9.855312" NOx_abs="222.596040" fuel_abs="235.047487" electricity_abs="0"/>
    </tripinfo>
    <tripinfo id="carIn462:1" depart="57622.00" departLane="-306240162#1_0" departPos="5.10" departSpeed="0.00" departDelay="4.80" arrival="57828.00" arrivalLane="386687235_1" arrivalPos="80.84" arrivalSpeed="14.41" duration="206.00" routeLength="2257.41" waitingTime="18.00" waitingCount="3" stopTime="0.00" timeLoss="63.15" rerouteNo="1" devices="tripinfo_carIn462:1 routing_carIn462:1 emissions_carIn462:1" vType="default_016" speedFactor="1.04" vaporized="">
        <emissions CO_abs="9849.335591" CO2_abs="618070.660280" HC_abs="59.495985" PMx_abs="11.581098" NOx_abs="254.268183" fuel_abs="265.681696" electricity_abs="0"/>
    </tripinfo>
    <tripinfo id="carIn46110:1" depart="57684.00" departLane="315358244_1" departPos="5.10" departSpeed="0.00" departDelay="1.20" arrival="57832.00" arrivalLane="32978638#0_1" arrivalPos="49.29" arrivalSpeed="17.39" duration="148.00" routeLength="1764.04" waitingTime="30.00" waitingCount="1" stopTime="0.00" timeLoss="49.71" rerouteNo="1" devices="tripinfo_carIn46110:1 routing_carIn46110:1 emissions_carIn46110:1" vType="default_016" speedFactor="1.31" vaporized="">
        <emissions CO_abs="9454.489449" CO2_abs="480817.056604" HC_abs="54.340252" PMx_abs="9.345887" NOx_abs="197.979166" fuel_abs="206.683542" electricity_abs="0"/>
    </tripinfo>
    <tripinfo id="randUni33724:1" depart="57646.00" departLane="128361102#0_1" departPos="5.10" departSpeed="0.00" departDelay="1.20" arrival="57836.00" arrivalLane="201956811#0_1" arrivalPos="40.40" arrivalSpeed="13.63" duration="190.00" routeLength="2067.33" waitingTime="8.00" waitingCount="1" stopTime="0.00" timeLoss="39.72" rerouteNo="1" devices="tripinfo_randUni33724:1 routing_randUni33724:1 emissions_randUni33724:1" vType="random_016" speedFactor="1.01" vaporized="">
        <emissions CO_abs="7081.313316" CO2_abs="503952.243016" HC_abs="44.060654" PMx_abs="8.527572" NOx_abs="202.379278" fuel_abs="216.627643" electricity_abs="0"/>
    </tripinfo>
    <tripinfo id="carIn50326:1" depart="57651.00" departLane="128361102#0_1" departPos="5.10" departSpeed="0.00" departDelay="0.30" arrival="57837.00" arrivalLane="18809673#0_1" arrivalPos="473.56" arrivalSpeed="11.65" duration="186.00" routeLength="1591.07" waitingTime="16.00" waitingCount="2" stopTime="0.00" timeLoss="39.75" rerouteNo="1" devices="tripinfo_carIn50326:1 routing_carIn50326:1 emissions_carIn50326:1" vType="default_016" speedFactor="0.89" vaporized="">
        <emissions CO_abs="7394.058218" CO2_abs="378178.329307" HC_abs="42.406512" PMx_abs="6.152963" NOx_abs="151.568661" fuel_abs="162.564807" electricity_abs="0"/>
    </tripinfo>
    <tripinfo id="carIn12775:1" depart="57676.00" departLane="10425609#0_1" departPos="5.10" departSpeed="0.00" departDelay="0.60" arrival="57839.00" arrivalLane="18809673#0_1" arrivalPos="473.56" arrivalSpeed="15.15" duration="163.00" routeLength="1959.45" waitingTime="3.00" waitingCount="1" stopTime="0.00" timeLoss="40.06" rerouteNo="1" devices="tripinfo_carIn12775:1 routing_carIn12775:1 emissions_carIn12775:1" vType="default_016" speedFactor="1.18" vaporized="">
        <emissions CO_abs="6516.977762" CO2_abs="465492.454635" HC_abs="40.442882" PMx_abs="8.154540" NOx_abs="187.536338" fuel_abs="200.095053" electricity_abs="0"/>
    </tripinfo>