<?xml version="1.0" encoding="UTF-8"?>

<!-- generated on 2021-10-26 12:26:52 by Eclipse SUMO sumo Version 1.10.0
<configuration xmlns:xsi="http://www.w3.org/2001/XMLSchema-instance" xsi:noNamespaceSchemaLocation="http://sumo.dlr.de/xsd/sumoConfiguration.xsd">

    <input>
        <net-file value="/Users/behradkoohy/sumo-scratchpad/RESCO/environments/ingolstadt21/ingolstadt21.net.xml"/>
        <route-files value="/Users/behradkoohy/sumo-scratchpad/RESCO/environments/ingolstadt21/ingolstadt21.rou.xml"/>
    </input>

    <output>
        <tripinfo-output value="/Users/behradkoohy/sumo-scratchpad/RESCO/logs/IDQN-tr0-ingolstadt21-21-drq_norm-wait_norm/tripinfo_62.xml"/>
        <tripinfo-output.write-unfinished value="true"/>
    </output>

    <time>
        <begin value="57600"/>
        <end value="61200"/>
    </time>

    <processing>
        <time-to-teleport value="-1"/>
    </processing>

    <report>
        <no-warnings value="true"/>
        <no-step-log value="true"/>
    </report>

    <emissions>
        <device.emissions.probability value="1"/>
    </emissions>

    <traci_server>
        <remote-port value="58260"/>
    </traci_server>

    <random_number>
        <random value="true"/>
    </random_number>

</configuration>
-->

<tripinfos xmlns:xsi="http://www.w3.org/2001/XMLSchema-instance" xsi:noNamespaceSchemaLocation="http://sumo.dlr.de/xsd/tripinfo_file.xsd">
    <tripinfo id="h15454c2:3" depart="57612.00" departLane="24608844_1" departPos="5.10" departSpeed="0.00" departDelay="0.50" arrival="57651.00" arrivalLane="32978638#0_1" arrivalPos="49.29" arrivalSpeed="15.55" duration="39.00" routeLength="354.79" waitingTime="0.00" waitingCount="0" stopTime="0.00" timeLoss="8.71" rerouteNo="1" devices="tripinfo_h15454c2:3 routing_h15454c2:3 emissions_h15454c2:3" vType="default_016" speedFactor="1.14" vaporized="">
        <emissions CO_abs="2213.369855" CO2_abs="128558.063626" HC_abs="13.028657" PMx_abs="2.240632" NOx_abs="52.497131" fuel_abs="55.261837" electricity_abs="0"/>
    </tripinfo>
    <tripinfo id="carIn60260:1" depart="57606.00" departLane="315358254#0_1" departPos="5.10" departSpeed="0.00" departDelay="0.90" arrival="57685.00" arrivalLane="399835085#1_1" arrivalPos="212.23" arrivalSpeed="6.53" duration="79.00" routeLength="430.98" waitingTime="21.00" waitingCount="1" stopTime="0.00" timeLoss="42.06" rerouteNo="1" devices="tripinfo_carIn60260:1 routing_carIn60260:1 emissions_carIn60260:1" vType="default_016" speedFactor="1.26" vaporized="">
        <emissions CO_abs="5991.139986" CO2_abs="197704.733820" HC_abs="31.861817" PMx_abs="3.883542" NOx_abs="83.929853" fuel_abs="84.986668" electricity_abs="0"/>
    </tripinfo>
    <tripinfo id="carIn53971:1" depart="57640.00" departLane="272042143_1" departPos="5.10" departSpeed="0.00" departDelay="0.80" arrival="57695.00" arrivalLane="24634414#1_1" arrivalPos="162.19" arrivalSpeed="7.99" duration="55.00" routeLength="493.04" waitingTime="0.00" waitingCount="0" stopTime="0.00" timeLoss="8.07" rerouteNo="1" devices="tripinfo_carIn53971:1 routing_carIn53971:1 emissions_carIn53971:1" vType="default_016" speedFactor="0.97" vaporized="">
        <emissions CO_abs="2271.047928" CO2_abs="132395.943603" HC_abs="13.415751" PMx_abs="2.190838" NOx_abs="53.381361" fuel_abs="56.911759" electricity_abs="0"/>
    </tripinfo>
    <tripinfo id="h7800c1:5" depart="57696.00" departLane="-447569998#1_1" departPos="5.10" departSpeed="0.00" departDelay="0.00" arrival="57719.00" arrivalLane="-447569998#1_1" arrivalPos="180.76" arrivalSpeed="7.93" duration="23.00" routeLength="175.66" waitingTime="0.00" waitingCount="0" stopTime="0.00" timeLoss="3.07" rerouteNo="1" devices="tripinfo_h7800c1:5 routing_h7800c1:5 emissions_h7800c1:5" vType="default_016" speedFactor="1.09" vaporized="">
        <emissions CO_abs="1005.039196" CO2_abs="47093.990277" HC_abs="5.666391" PMx_abs="0.807643" NOx_abs="19.377785" fuel_abs="20.243940" electricity_abs="0"/>
    </tripinfo>
    <tripinfo id="h3688c1:1" depart="57625.00" departLane="201201950#1_1" departPos="5.10" departSpeed="0.00" departDelay="0.00" arrival="57721.00" arrivalLane="32978638#0_1" arrivalPos="49.29" arrivalSpeed="13.62" duration="96.00" routeLength="1089.75" waitingTime="1.00" waitingCount="1" stopTime="0.00" timeLoss="15.07" rerouteNo="1" devices="tripinfo_h3688c1:1 routing_h3688c1:1 emissions_h3688c1:1" vType="default_016" speedFactor="0.98" vaporized="">
        <emissions CO_abs="3228.313823" CO2_abs="250438.441588" HC_abs="20.517305" PMx_abs="4.002145" NOx_abs="98.786886" fuel_abs="107.652973" electricity_abs="0"/>
    </tripinfo>
    <tripinfo id="carIn22761:1" depart="57616.00" departLane="-306240162#1_0" departPos="5.10" departSpeed="0.00" departDelay="2.10" arrival="57724.00" arrivalLane="399835085#1_1" arrivalPos="212.23" arrivalSpeed="7.61" duration="108.00" routeLength="1093.26" waitingTime="7.00" waitingCount="1" stopTime="0.00" timeLoss="30.73" rerouteNo="1" devices="tripinfo_carIn22761:1 routing_carIn22761:1 emissions_carIn22761:1" vType="default_016" speedFactor="1.01" vaporized="">
        <emissions CO_abs="5451.654826" CO2_abs="328513.266285" HC_abs="32.544229" PMx_abs="6.080789" NOx_abs="134.868972" fuel_abs="141.213836" electricity_abs="0"/>
    </tripinfo>
    <tripinfo id="h12244c1:3" depart="57612.00" departLane="315358244_1" departPos="5.10" departSpeed="0.00" departDelay="0.40" arrival="57727.00" arrivalLane="386687235_1" arrivalPos="80.84" arrivalSpeed="13.13" duration="115.00" routeLength="1186.14" waitingTime="14.00" waitingCount="1" stopTime="0.00" timeLoss="26.91" rerouteNo="1" devices="tripinfo_h12244c1:3 routing_h12244c1:3 emissions_h12244c1:3" vType="default_016" speedFactor="0.99" vaporized="">
        <emissions CO_abs="3892.124482" CO2_abs="245802.821657" HC_abs="23.386030" PMx_abs="3.897402" NOx_abs="96.482571" fuel_abs="105.661005" electricity_abs="0"/>
    </tripinfo>
    <tripinfo id="h7181c1:1" depart="57660.00" departLane="315358254#0_1" departPos="5.10" departSpeed="0.00" departDelay="0.10" arrival="57731.00" arrivalLane="306240162#0_0" arrivalPos="220.43" arrivalSpeed="16.75" duration="71.00" routeLength="932.35" waitingTime="8.00" waitingCount="1" stopTime="0.00" timeLoss="21.13" rerouteNo="1" devices="tripinfo_h7181c1:1 routing_h7181c1:1 emissions_h7181c1:1" vType="default_016" speedFactor="1.05" vaporized="">
        <emissions CO_abs="3903.943932" CO2_abs="261337.301678" HC_abs="24.070860" PMx_abs="5.132532" NOx_abs="107.148213" fuel_abs="112.337157" electricity_abs="0"/>
    </tripinfo>
    <tripinfo id="carIn121703:1" depart="57647.00" departLane="386687232#0_1" departPos="5.10" departSpeed="0.00" departDelay="0.30" arrival="57746.00" arrivalLane="-315358244_1" arrivalPos="33.95" arrivalSpeed="12.62" duration="99.00" routeLength="1157.39" waitingTime="0.00" waitingCount="0" stopTime="0.00" timeLoss="9.17" rerouteNo="1" devices="tripinfo_carIn121703:1 routing_carIn121703:1 emissions_carIn121703:1" vType="default_016" speedFactor="0.95" vaporized="">
        <emissions CO_abs="2427.357496" CO2_abs="213888.747630" HC_abs="15.999241" PMx_abs="3.134636" NOx_abs="82.340636" fuel_abs="91.941969" electricity_abs="0"/>
    </tripinfo>
    <tripinfo id="h4538c1:1" depart="57701.00" departLane="-10427692#1_1" departPos="5.10" departSpeed="0.00" departDelay="0.00" arrival="57746.00" arrivalLane="-128361102#1_1" arrivalPos="274.68" arrivalSpeed="13.49" duration="45.00" routeLength="440.74" waitingTime="3.00" waitingCount="1" stopTime="0.00" timeLoss="13.33" rerouteNo="1" devices="tripinfo_h4538c1:1 routing_h4538c1:1 emissions_h4538c1:1" vType="default_016" speedFactor="0.99" vaporized="">
        <emissions CO_abs="1851.606701" CO2_abs="124327.066499" HC_abs="11.309417" PMx_abs="1.996616" NOx_abs="49.168387" fuel_abs="53.443178" electricity_abs="0"/>
    </tripinfo>
    <tripinfo id="S5R_frequency1.2" depart="57615.00" departLane="315358250#0_1" departPos="12.10" departSpeed="0.00" departDelay="3.40" arrival="57747.00" arrivalLane="386687235_1" arrivalPos="80.84" arrivalSpeed="13.64" duration="132.00" routeLength="1115.62" waitingTime="22.00" waitingCount="2" stopTime="0.00" timeLoss="50.17" rerouteNo="1" devices="tripinfo_S5R_frequency1.2 routing_S5R_frequency1.2 emissions_S5R_frequency1.2" vType="bus" speedFactor="1.00" vaporized="">
        <emissions CO_abs="2485.951066" CO2_abs="1450658.283025" HC_abs="527.440281" PMx_abs="263.879019" NOx_abs="11549.837692" fuel_abs="618.650533" electricity_abs="0"/>
    </tripinfo>
    <tripinfo id="h317c2:1" depart="57707.00" departLane="-32978638#0_1" departPos="5.10" departSpeed="0.00" departDelay="0.10" arrival="57753.00" arrivalLane="-266565295#5_1" arrivalPos="172.76" arrivalSpeed="15.13" duration="46.00" routeLength="370.53" waitingTime="13.00" waitingCount="1" stopTime="0.00" timeLoss="21.64" rerouteNo="1" devices="tripinfo_h317c2:1 routing_h317c2:1 emissions_h317c2:1" vType="default_016" speedFactor="1.14" vaporized="">
        <emissions CO_abs="3183.324732" CO2_abs="149293.226870" HC_abs="18.026997" PMx_abs="2.928683" NOx_abs="62.797535" fuel_abs="64.175098" electricity_abs="0"/>
    </tripinfo>
    <tripinfo id="h3568c1:3" depart="57656.00" departLane="266565295#5_1" departPos="5.10" departSpeed="0.00" departDelay="0.80" arrival="57757.00" arrivalLane="-24634415_1" arrivalPos="62.03" arrivalSpeed="11.56" duration="101.00" routeLength="807.40" waitingTime="11.00" waitingCount="1" stopTime="0.00" timeLoss="27.62" rerouteNo="1" devices="tripinfo_h3568c1:3 routing_h3568c1:3 emissions_h3568c1:3" vType="default_016" speedFactor="0.87" vaporized="">
        <emissions CO_abs="5646.287589" CO2_abs="252281.527848" HC_abs="31.579115" PMx_abs="4.451860" NOx_abs="103.704439" fuel_abs="108.446495" electricity_abs="0"/>
    </tripinfo>
    <tripinfo id="carIn30817:1" depart="57681.00" departLane="315358244_1" departPos="5.10" departSpeed="0.00" departDelay="0.20" arrival="57762.00" arrivalLane="447569997#1_1" arrivalPos="180.93" arrivalSpeed="5.99" duration="81.00" routeLength="718.04" waitingTime="0.00" waitingCount="0" stopTime="0.00" timeLoss="9.13" rerouteNo="1" devices="tripinfo_carIn30817:1 routing_carIn30817:1 emissions_carIn30817:1" vType="default_016" speedFactor="0.86" vaporized="">
        <emissions CO_abs="2464.877326" CO2_abs="140423.361813" HC_abs="14.442205" PMx_abs="2.117084" NOx_abs="55.348445" fuel_abs="60.362784" electricity_abs="0"/>
    </tripinfo>
    <tripinfo id="carIn80064:1" depart="57603.00" departLane="128361109#1_1" departPos="5.10" departSpeed="0.00" departDelay="0.40" arrival="57768.00" arrivalLane="-315358254#1_1" arrivalPos="137.16" arrivalSpeed="14.73" duration="165.00" routeLength="1587.97" waitingTime="41.00" waitingCount="3" stopTime="0.00" timeLoss="82.95" rerouteNo="1" devices="tripinfo_carIn80064:1 routing_carIn80064:1 emissions_carIn80064:1" vType="default_016" speedFactor="1.08" vaporized="">
        <emissions CO_abs="12442.053700" CO2_abs="584627.336537" HC_abs="70.592396" PMx_abs="11.866851" NOx_abs="245.202626" fuel_abs="251.307269" electricity_abs="0"/>
    </tripinfo>
    <tripinfo id="carIn12365:1" depart="57713.00" departLane="315358244_1" departPos="5.10" departSpeed="0.00" departDelay="0.50" arrival="57774.00" arrivalLane="447569997#1_1" arrivalPos="180.93" arrivalSpeed="9.13" duration="61.00" routeLength="718.04" waitingTime="0.00" waitingCount="0" stopTime="0.00" timeLoss="8.01" rerouteNo="1" devices="tripinfo_carIn12365:1 routing_carIn12365:1 emissions_carIn12365:1" vType="default_016" speedFactor="1.17" vaporized="">
        <emissions CO_abs="2078.091817" CO2_abs="148909.617933" HC_abs="12.772998" PMx_abs="2.491383" NOx_abs="59.300263" fuel_abs="64.009944" electricity_abs="0"/>
    </tripinfo>
    <tripinfo id="h3154c1:1" depart="57658.00" departLane="24634507_1" departPos="5.10" departSpeed="0.00" departDelay="0.00" arrival="57776.00" arrivalLane="-266565295#5_1" arrivalPos="172.76" arrivalSpeed="13.00" duration="118.00" routeLength="1206.22" waitingTime="7.00" waitingCount="1" stopTime="0.00" timeLoss="26.55" rerouteNo="1" devices="tripinfo_h3154c1:1 routing_h3154c1:1 emissions_h3154c1:1" vType="default_016" speedFactor="0.97" vaporized="">
        <emissions CO_abs="4303.656337" CO2_abs="291850.850534" HC_abs="26.425816" PMx_abs="4.924794" NOx_abs="117.508929" fuel_abs="125.454426" electricity_abs="0"/>
    </tripinfo>
    <tripinfo id="carIn86816:1" depart="57617.00" departLane="128361102#0_1" departPos="5.10" departSpeed="0.00" departDelay="0.80" arrival="57778.00" arrivalLane="201956811#0_1" arrivalPos="40.40" arrivalSpeed="13.52" duration="161.00" routeLength="2067.33" waitingTime="0.00" waitingCount="0" stopTime="0.00" timeLoss="19.09" rerouteNo="1" devices="tripinfo_carIn86816:1 routing_carIn86816:1 emissions_carIn86816:1" vType="default_016" speedFactor="1.06" vaporized="">
        <emissions CO_abs="4633.107050" CO2_abs="417972.755108" HC_abs="30.704999" PMx_abs="6.614978" NOx_abs="163.042161" fuel_abs="179.668516" electricity_abs="0"/>
    </tripinfo>
    <tripinfo id="h3326c1:2" depart="57656.00" departLane="22716069#0_1" departPos="5.10" departSpeed="0.00" departDelay="0.00" arrival="57783.00" arrivalLane="24634517#13_1" arrivalPos="111.62" arrivalSpeed="11.13" duration="127.00" routeLength="1312.81" waitingTime="0.00" waitingCount="0" stopTime="0.00" timeLoss="17.43" rerouteNo="1" devices="tripinfo_h3326c1:2 routing_h3326c1:2 emissions_h3326c1:2" vType="default_016" speedFactor="0.89" vaporized="">
        <emissions CO_abs="4224.838835" CO2_abs="297686.259182" HC_abs="26.153401" PMx_abs="4.755564" NOx_abs="118.357685" fuel_abs="127.963067" electricity_abs="0"/>
    </tripinfo>
    <tripinfo id="h330c1:1" depart="57736.00" departLane="-32978638#0_1" departPos="5.10" departSpeed="0.00" departDelay="0.20" arrival="57787.00" arrivalLane="-266565295#5_1" arrivalPos="172.76" arrivalSpeed="11.53" duration="51.00" routeLength="370.53" waitingTime="11.00" waitingCount="1" stopTime="0.00" timeLoss="20.38" rerouteNo="1" devices="tripinfo_h330c1:1 routing_h330c1:1 emissions_h330c1:1" vType="default_016" speedFactor="0.89" vaporized="">
        <emissions CO_abs="3235.349552" CO2_abs="132906.437060" HC_abs="17.844844" PMx_abs="2.489072" NOx_abs="55.485181" fuel_abs="57.131572" electricity_abs="0"/>
    </tripinfo>
    <tripinfo id="carIn27009:1" depart="57673.00" departLane="-447569998#1_1" departPos="5.10" departSpeed="0.00" departDelay="0.50" arrival="57793.00" arrivalLane="-26677539_1" arrivalPos="152.75" arrivalSpeed="6.24" duration="120.00" routeLength="699.63" waitingTime="9.00" waitingCount="1" stopTime="0.00" timeLoss="25.53" rerouteNo="1" devices="tripinfo_carIn27009:1 routing_carIn27009:1 emissions_carIn27009:1" vType="default_015" speedFactor="0.89" vaporized="">
        <emissions CO_abs="5241.119896" CO2_abs="194503.980969" HC_abs="28.310231" PMx_abs="3.234906" NOx_abs="79.647792" fuel_abs="83.611026" electricity_abs="0"/>
    </tripinfo>
    <tripinfo id="h9563c2:5" depart="57631.00" departLane="315358244_1" departPos="5.10" departSpeed="0.00" departDelay="0.70" arrival="57799.00" arrivalLane="386687235_1" arrivalPos="80.84" arrivalSpeed="11.29" duration="168.00" routeLength="1186.14" waitingTime="40.00" waitingCount="4" stopTime="0.00" timeLoss="70.50" rerouteNo="1" devices="tripinfo_h9563c2:5 routing_h9563c2:5 emissions_h9563c2:5" vType="default_016" speedFactor="0.88" vaporized="">
        <emissions CO_abs="9301.998478" CO2_abs="366672.752479" HC_abs="50.899231" PMx_abs="6.672845" NOx_abs="151.554077" fuel_abs="157.619729" electricity_abs="0"/>
    </tripinfo>
    <tripinfo id="carIn48184:1" depart="57613.00" departLane="-306240162#1_0" departPos="5.10" departSpeed="0.00" departDelay="0.70" arrival="57803.00" arrivalLane="386687235_1" arrivalPos="80.84" arrivalSpeed="15.07" duration="190.00" routeLength="2257.41" waitingTime="17.00" waitingCount="3" stopTime="0.00" timeLoss="58.43" rerouteNo="1" devices="tripinfo_carIn48184:1 routing_carIn48184:1 emissions_carIn48184:1" vType="default_016" speedFactor="1.13" vaporized="">
        <emissions CO_abs="9974.529604" CO2_abs="638041.837934" HC_abs="60.451985" PMx_abs="12.106718" NOx_abs="262.141123" fuel_abs="274.266151" electricity_abs="0"/>
    </tripinfo>
    <tripinfo id="carIn50326:1" depart="57651.00" departLane="128361102#0_1" departPos="5.10" departSpeed="0.00" departDelay="0.30" arrival="57803.00" arrivalLane="18809673#0_1" arrivalPos="473.56" arrivalSpeed="12.87" duration="152.00" routeLength="1591.07" waitingTime="0.00" waitingCount="0" stopTime="0.00" timeLoss="17.80" rerouteNo="1" devices="tripinfo_carIn50326:1 routing_carIn50326:1 emissions_carIn50326:1" vType="default_016" speedFactor="0.97" vaporized="">
        <emissions CO_abs="4724.718903" CO2_abs="332029.462095" HC_abs="29.212533" PMx_abs="5.214827" NOx_abs="131.093997" fuel_abs="142.725978" electricity_abs="0"/>
    </tripinfo>
    <tripinfo id="h5979c1:5" depart="57669.00" departLane="399835085#1_1" departPos="5.10" departSpeed="0.00" departDelay="0.00" arrival="57803.00" arrivalLane="-315358254#1_1" arrivalPos="137.16" arrivalSpeed="12.18" duration="134.00" routeLength="659.33" waitingTime="34.00" waitingCount="1" stopTime="0.00" timeLoss="51.43" rerouteNo="1" devices="tripinfo_h5979c1:5 routing_h5979c1:5 emissions_h5979c1:5" vType="default_016" speedFactor="0.88" vaporized="">
        <emissions CO_abs="8702.920210" CO2_abs="246530.544535" HC_abs="45.327440" PMx_abs="4.716532" NOx_abs="104.332436" fuel_abs="105.976461" electricity_abs="0"/>
    </tripinfo>
    <tripinfo id="carIn107282:1" depart="57749.00" departLane="-447569998#1_1" departPos="5.10" departSpeed="0.00" departDelay="0.00" arrival="57803.00" arrivalLane="315358242#0_1" arrivalPos="165.37" arrivalSpeed="15.40" duration="54.00" routeLength="448.50" waitingTime="8.00" waitingCount="1" stopTime="0.00" timeLoss="17.70" rerouteNo="1" devices="tripinfo_carIn107282:1 routing_carIn107282:1 emissions_carIn107282:1" vType="default_016" speedFactor="1.16" vaporized="">
        <emissions CO_abs="2439.166674" CO2_abs="128343.917810" HC_abs="14.100948" PMx_abs="2.343087" NOx_abs="53.087251" fuel_abs="55.169826" electricity_abs="0"/>
    </tripinfo>
    <tripinfo id="carIn118591:1" depart="57689.00" departLane="315358244_1" departPos="5.10" departSpeed="0.00" departDelay="0.20" arrival="57813.00" arrivalLane="386687235_1" arrivalPos="80.84" arrivalSpeed="13.82" duration="124.00" routeLength="1186.14" waitingTime="15.00" waitingCount="4" stopTime="0.00" timeLoss="39.69" rerouteNo="1" devices="tripinfo_carIn118591:1 routing_carIn118591:1 emissions_carIn118591:1" vType="default_016" speedFactor="1.03" vaporized="">
        <emissions CO_abs="4983.155017" CO2_abs="272125.606683" HC_abs="29.054548" PMx_abs="4.782728" NOx_abs="110.299440" fuel_abs="116.975959" electricity_abs="0"/>
    </tripinfo>
    <tripinfo id="carIn129809:1" depart="57729.00" departLane="-447569998#1_1" departPos="5.10" departSpeed="0.00" departDelay="1.00" arrival="57814.00" arrivalLane="-315358244_1" arrivalPos="33.95" arrivalSpeed="11.41" duration="85.00" routeLength="706.49" waitingTime="5.00" waitingCount="1" stopTime="0.00" timeLoss="15.41" rerouteNo="1" devices="tripinfo_carIn129809:1 routing_carIn129809:1 emissions_carIn129809:1" vType="default_015" speedFactor="0.87" vaporized="">
        <emissions CO_abs="2773.643938" CO2_abs="149301.976387" HC_abs="16.065735" PMx_abs="2.351005" NOx_abs="59.531402" fuel_abs="64.179344" electricity_abs="0"/>
    </tripinfo>
    <tripinfo id="carIn81860:1" depart="57712.00" departLane="128361102#0_1" departPos="5.10" departSpeed="0.00" departDelay="0.60" arrival="57816.00" arrivalLane="-24634517#17_1" arrivalPos="6.43" arrivalSpeed="8.09" duration="104.00" routeLength="1229.64" waitingTime="0.00" waitingCount="0" stopTime="0.00" timeLoss="18.71" rerouteNo="1" devices="tripinfo_carIn81860:1 routing_carIn81860:1 emissions_carIn81860:1" vType="default_016" speedFactor="1.06" vaporized="">
        <emissions CO_abs="3842.802375" CO2_abs="282990.330512" HC_abs="24.065027" PMx_abs="4.780520" NOx_abs="113.140182" fuel_abs="121.645442" electricity_abs="0"/>
    </tripinfo>
    <tripinfo id="h11737c1:1" depart="57665.00" departLane="272042143_1" departPos="5.10" departSpeed="0.00" departDelay="1.50" arrival="57818.00" arrivalLane="-315358254#1_1" arrivalPos="137.16" arrivalSpeed="11.74" duration="153.00" routeLength="1596.88" waitingTime="9.00" waitingCount="1" stopTime="0.00" timeLoss="27.66" rerouteNo="1" devices="tripinfo_h11737c1:1 routing_h11737c1:1 emissions_h11737c1:1" vType="default_016" speedFactor="0.93" vaporized="">
        <emissions CO_abs="4879.204324" CO2_abs="339422.493774" HC_abs="30.104553" PMx_abs="5.388540" NOx_abs="134.049759" fuel_abs="145.903932" electricity_abs="0"/>
    </tripinfo>
    <tripinfo id="carIn102915:1" depart="57643.00" departLane="128361102#0_1" departPos="5.10" departSpeed="0.00" departDelay="0.40" arrival="57819.00" arrivalLane="201956811#0_1" arrivalPos="40.40" arrivalSpeed="13.16" duration="176.00" routeLength="2067.33" waitingTime="2.00" waitingCount="1" stopTime="0.00" timeLoss="24.23" rerouteNo="1" devices="tripinfo_carIn102915:1 routing_carIn102915:1 emissions_carIn102915:1" vType="default_016" speedFactor="1.00" vaporized="">
        <emissions CO_abs="5207.975360" CO2_abs="425431.079338" HC_abs="33.626948" PMx_abs="6.866316" NOx_abs="167.985805" fuel_abs="182.874651" electricity_abs="0"/>
    </tripinfo>
    <tripinfo id="randUni33724:1" depart="57646.00" departLane="128361102#0_1" departPos="5.10" departSpeed="0.00" departDelay="1.20" arrival="57822.00" arrivalLane="201956811#0_1" arrivalPos="40.40" arrivalSpeed="13.17" duration="176.00" routeLength="2067.33" waitingTime="1.00" waitingCount="1" stopTime="0.00" timeLoss="27.49" rerouteNo="1" devices="tripinfo_randUni33724:1 routing_randUni33724:1 emissions_randUni33724:1" vType="random_016" speedFactor="1.02" vaporized="">
        <emissions CO_abs="5681.518886" CO2_abs="448519.169175" HC_abs="36.325552" PMx_abs="7.369360" NOx_abs="177.955067" fuel_abs="192.799195" electricity_abs="0"/>
    </tripinfo>
    <tripinfo id="h17600c1:1" depart="57662.00" departLane="272042143_1" departPos="5.10" departSpeed="0.00" departDelay="0.30" arrival="57831.00" arrivalLane="201238729#3_1" arrivalPos="431.02" arrivalSpeed="15.64" duration="169.00" routeLength="2100.26" waitingTime="18.00" waitingCount="1" stopTime="0.00" timeLoss="37.13" rerouteNo="1" devices="tripinfo_h17600c1:1 routing_h17600c1:1 emissions_h17600c1:1" vType="default_016" speedFactor="1.15" vaporized="">
        <emissions CO_abs="6975.448428" CO2_abs="456370.162666" HC_abs="42.169747" PMx_abs="7.882219" NOx_abs="181.191227" fuel_abs="196.174625" electricity_abs="0"/>
    </tripinfo>
    <tripinfo id="carIn28951:1" depart="57606.00" departLane="10425609#0_1" departPos="5.10" departSpeed="0.00" departDelay="0.20" arrival="57832.00" arrivalLane="-128361102#1_1" arrivalPos="274.68" arrivalSpeed="11.20" duration="226.00" routeLength="2113.04" waitingTime="10.00" waitingCount="2" stopTime="0.00" timeLoss="40.19" rerouteNo="1" devices="tripinfo_carIn28951:1 routing_carIn28951:1 emissions_carIn28951:1" vType="default_016" speedFactor="0.84" vaporized="">
        <emissions CO_abs="7431.057036" CO2_abs="464357.814833" HC_abs="44.598470" PMx_abs="7.467768" NOx_abs="185.625205" fuel_abs="199.608880" electricity_abs="0"/>
    </tripinfo>
    <tripinfo id="carIn77943:1" depart="57607.00" departLane="124812856#0_1" departPos="5.10" departSpeed="0.00" departDelay="1.50" arrival="57834.00" arrivalLane="-128361102#1_1" arrivalPos="274.68" arrivalSpeed="13.27" duration="227.00" routeLength="2250.49" waitingTime="7.00" waitingCount="2" stopTime="0.00" timeLoss="72.77" rerouteNo="1" devices="tripinfo_carIn77943:1 routing_carIn77943:1 emissions_carIn77943:1" vType="default_016" speedFactor="1.06" vaporized="">
        <emissions CO_abs="9200.138004" CO2_abs="616950.630484" HC_abs="56.335702" PMx_abs="10.639977" NOx_abs="250.508227" fuel_abs="265.200838" electricity_abs="0"/>
    </tripinfo>
    <tripinfo id="carIn82220:1" depart="57619.00" departLane="-306240162#1_0" departPos="5.10" departSpeed="0.00" departDelay="3.50" arrival="57834.00" arrivalLane="386687235_1" arrivalPos="80.84" arrivalSpeed="11.47" duration="215.00" routeLength="2257.41" waitingTime="16.00" waitingCount="3" stopTime="0.00" timeLoss="43.99" rerouteNo="1" devices="tripinfo_carIn82220:1 routing_carIn82220:1 emissions_carIn82220:1" vType="default_016" speedFactor="0.87" vaporized="">
        <emissions CO_abs="6861.562309" CO2_abs="475420.608675" HC_abs="42.279778" PMx_abs="7.830878" NOx_abs="188.829336" fuel_abs="204.363648" electricity_abs="0"/>
    </tripinfo>
    <tripinfo id="carIn7949:1" depart="57676.00" departLane="128361109#1_1" departPos="5.10" departSpeed="0.00" departDelay="2.10" arrival="57834.00" arrivalLane="386687235_2" arrivalPos="80.84" arrivalSpeed="14.00" duration="158.00" routeLength="2088.57" waitingTime="5.00" waitingCount="1" stopTime="0.00" timeLoss="20.15" rerouteNo="1" devices="tripinfo_carIn7949:1 routing_carIn7949:1 emissions_carIn7949:1" vType="default_016" speedFactor="1.10" vaporized="">
        <emissions CO_abs="3665.688429" CO2_abs="349820.389562" HC_abs="24.677546" PMx_abs="5.504787" NOx_abs="135.336641" fuel_abs="150.372694" electricity_abs="0"/>
    </tripinfo>
    <tripinfo id="carIn107084:1" depart="57601.00" departLane="124812856#0_1" departPos="5.10" departSpeed="0.00" departDelay="0.70" arrival="57836.00" arrivalLane="-128361102#1_1" arrivalPos="274.68" arrivalSpeed="12.32" duration="235.00" routeLength="2250.49" waitingTime="9.00" waitingCount="3" stopTime="0.00" timeLoss="54.55" rerouteNo="1" devices="tripinfo_carIn107084:1 routing_carIn107084:1 emissions_carIn107084:1" vType="default_016" speedFactor="0.91" vaporized="">
        <emissions CO_abs="8561.783109" CO2_abs="552568.050754" HC_abs="51.889714" PMx_abs="9.317126" NOx_abs="223.235365" fuel_abs="237.526084" electricity_abs="0"/>
    </tripinfo>
    <tripinfo id="carIn462:1" depart="57622.00" departLane="-306240162#1_0" departPos="5.10" departSpeed="0.00" departDelay="4.80" arrival="57836.00" arrivalLane="386687235_2" arrivalPos="80.84" arrivalSpeed="13.40" duration="214.00" routeLength="2257.41" waitingTime="30.00" waitingCount="3" stopTime="0.00" timeLoss="69.89" rerouteNo="1" devices="tripinfo_carIn462:1 routing_carIn462:1 emissions_carIn462:1" vType="default_016" speedFactor="1.04" vaporized="">
        <emissions CO_abs="10059.443606" CO2_abs="579786.699380" HC_abs="59.483915" PMx_abs="10.670139" NOx_abs="236.561951" fuel_abs="249.226156" electricity_abs="0"/>
    </tripinfo>
    <tripinfo id="h16072c2:3" depart="57663.00" departLane="315358254#0_1" departPos="5.10" departSpeed="0.00" departDelay="2.50" arrival="57836.00" arrivalLane="386687235_1" arrivalPos="80.84" arrivalSpeed="11.98" duration="173.00" routeLength="1611.92" waitingTime="14.00" waitingCount="3" stopTime="0.00" timeLoss="38.23" rerouteNo="1" devices="tripinfo_h16072c2:3 routing_h16072c2:3 emissions_h16072c2:3" vType="default_016" speedFactor="0.87" vaporized="">
        <emissions CO_abs="5474.014990" CO2_abs="346340.573346" HC_abs="32.934523" PMx_abs="5.425901" NOx_abs="136.983378" fuel_abs="148.878198" electricity_abs="0"/>
    </tripinfo>
    <tripinfo id="50R_frequency3.17" depart="57674.00" departLane="-18809673#6_1" departPos="12.10" departSpeed="0.00" departDelay="0.70" arrival="57836.00" arrivalLane="201956811#0_1" arrivalPos="40.40" arrivalSpeed="13.32" duration="162.00" routeLength="1954.47" waitingTime="0.00" waitingCount="0" stopTime="0.00" timeLoss="16.74" rerouteNo="1" devices="tripinfo_50R_frequency3.17 routing_50R_frequency3.17 emissions_50R_frequency3.17" vType="bus" speedFactor="1.00" vaporized="">
        <emissions CO_abs="3036.055238" CO2_abs="1922289.547512" HC_abs="653.532784" PMx_abs="326.859564" NOx_abs="14843.218767" fuel_abs="819.857273" electricity_abs="0"/>
    </tripinfo>
    <tripinfo id="randUni15030:1" depart="57735.00" departLane="386687232#0_1" departPos="5.10" departSpeed="0.00" departDelay="0.10" arrival="57836.00" arrivalLane="26677539_1" arrivalPos="151.98" arrivalSpeed="7.54" duration="101.00" routeLength="919.89" waitingTime="0.00" waitingCount="0" stopTime="0.00" timeLoss="11.72" rerouteNo="1" devices="tripinfo_randUni15030:1 routing_randUni15030:1 emissions_randUni15030:1" vType="random_016" speedFactor="0.94" vaporized="">
        <emissions CO_abs="3931.697995" CO2_abs="225002.398434" HC_abs="23.095613" PMx_abs="3.573230" NOx_abs="89.835718" fuel_abs="96.719878" electricity_abs="0"/>
    </tripinfo>
    <tripinfo id="h20540c1:1" depart="57634.00" departLane="10425609#0_1" departPos="5.10" departSpeed="0.00" departDelay="0.50" arrival="57837.00" arrivalLane="-128361102#1_1" arrivalPos="274.68" arrivalSpeed="14.18" duration="203.00" routeLength="2113.04" waitingTime="1.00" waitingCount="1" stopTime="0.00" timeLoss="60.44" rerouteNo="1" devices="tripinfo_h20540c1:1 routing_h20540c1:1 emissions_h20540c1:1" vType="default_016" speedFactor="1.09" vaporized="">
        <emissions CO_abs="8030.860662" CO2_abs="532378.195454" HC_abs="49.056337" PMx_abs="9.300849" NOx_abs="217.012179" fuel_abs="228.846635" electricity_abs="0"/>
    </tripinfo>
    <tripinfo id="h5216c1:1" depart="57664.00" departLane="224892339#0_1" departPos="5.10" departSpeed="0.00" departDelay="0.00" arrival="57838.00" arrivalLane="386687235_1" arrivalPos="80.84" arrivalSpeed="12.85" duration="174.00" routeLength="1823.78" waitingTime="13.00" waitingCount="2" stopTime="0.00" timeLoss="36.90" rerouteNo="1" devices="tripinfo_h5216c1:1 routing_h5216c1:1 emissions_h5216c1:1" vType="default_016" speedFactor="0.93" vaporized="">
        <emissions CO_abs="5795.635108" CO2_abs="424159.647021" HC_abs="36.278458" PMx_abs="7.004123" NOx_abs="168.810870" fuel_abs="182.328358" electricity_abs="0"/>
    </tripinfo>