<?xml version="1.0" encoding="UTF-8"?>

<!-- generated on 2021-10-26 12:03:47 by Eclipse SUMO sumo Version 1.10.0
<configuration xmlns:xsi="http://www.w3.org/2001/XMLSchema-instance" xsi:noNamespaceSchemaLocation="http://sumo.dlr.de/xsd/sumoConfiguration.xsd">

    <input>
        <net-file value="/Users/behradkoohy/sumo-scratchpad/RESCO/environments/ingolstadt21/ingolstadt21.net.xml"/>
        <route-files value="/Users/behradkoohy/sumo-scratchpad/RESCO/environments/ingolstadt21/ingolstadt21.rou.xml"/>
    </input>

    <output>
        <tripinfo-output value="/Users/behradkoohy/sumo-scratchpad/RESCO/logs/IDQN-tr0-ingolstadt21-21-drq_norm-wait_norm/tripinfo_45.xml"/>
        <tripinfo-output.write-unfinished value="true"/>
    </output>

    <time>
        <begin value="57600"/>
        <end value="61200"/>
    </time>

    <processing>
        <time-to-teleport value="-1"/>
    </processing>

    <report>
        <no-warnings value="true"/>
        <no-step-log value="true"/>
    </report>

    <emissions>
        <device.emissions.probability value="1"/>
    </emissions>

    <traci_server>
        <remote-port value="57928"/>
    </traci_server>

    <random_number>
        <random value="true"/>
    </random_number>

</configuration>
-->

<tripinfos xmlns:xsi="http://www.w3.org/2001/XMLSchema-instance" xsi:noNamespaceSchemaLocation="http://sumo.dlr.de/xsd/tripinfo_file.xsd">
    <tripinfo id="h15454c2:3" depart="57612.00" departLane="24608844_1" departPos="5.10" departSpeed="0.00" departDelay="0.50" arrival="57652.00" arrivalLane="32978638#0_1" arrivalPos="49.29" arrivalSpeed="13.12" duration="40.00" routeLength="354.79" waitingTime="0.00" waitingCount="0" stopTime="0.00" timeLoss="5.10" rerouteNo="1" devices="tripinfo_h15454c2:3 routing_h15454c2:3 emissions_h15454c2:3" vType="default_016" speedFactor="0.98" vaporized="">
        <emissions CO_abs="1630.904707" CO2_abs="89779.760076" HC_abs="9.522892" PMx_abs="1.569998" NOx_abs="36.864138" fuel_abs="38.592690" electricity_abs="0"/>
    </tripinfo>
    <tripinfo id="carIn60260:1" depart="57606.00" departLane="315358254#0_1" departPos="5.10" departSpeed="0.00" departDelay="0.90" arrival="57663.00" arrivalLane="399835085#1_1" arrivalPos="212.23" arrivalSpeed="7.13" duration="57.00" routeLength="430.98" waitingTime="0.00" waitingCount="0" stopTime="0.00" timeLoss="7.11" rerouteNo="1" devices="tripinfo_carIn60260:1 routing_carIn60260:1 emissions_carIn60260:1" vType="default_016" speedFactor="0.93" vaporized="">
        <emissions CO_abs="2133.413142" CO2_abs="103241.737590" HC_abs="12.092113" PMx_abs="1.691409" NOx_abs="41.882304" fuel_abs="44.379821" electricity_abs="0"/>
    </tripinfo>
    <tripinfo id="carIn53971:1" depart="57640.00" departLane="272042143_1" departPos="5.10" departSpeed="0.00" departDelay="0.80" arrival="57701.00" arrivalLane="24634414#1_1" arrivalPos="162.19" arrivalSpeed="7.19" duration="61.00" routeLength="493.04" waitingTime="0.00" waitingCount="0" stopTime="0.00" timeLoss="9.49" rerouteNo="1" devices="tripinfo_carIn53971:1 routing_carIn53971:1 emissions_carIn53971:1" vType="default_016" speedFactor="0.90" vaporized="">
        <emissions CO_abs="2771.241012" CO2_abs="142883.896062" HC_abs="15.933893" PMx_abs="2.428554" NOx_abs="58.396842" fuel_abs="61.420250" electricity_abs="0"/>
    </tripinfo>
    <tripinfo id="carIn22761:1" depart="57616.00" departLane="-306240162#1_0" departPos="5.10" departSpeed="0.00" departDelay="2.10" arrival="57709.00" arrivalLane="399835085#1_1" arrivalPos="212.23" arrivalSpeed="9.20" duration="93.00" routeLength="1093.26" waitingTime="4.00" waitingCount="1" stopTime="0.00" timeLoss="23.94" rerouteNo="1" devices="tripinfo_carIn22761:1 routing_carIn22761:1 emissions_carIn22761:1" vType="default_016" speedFactor="1.12" vaporized="">
        <emissions CO_abs="4779.359381" CO2_abs="305559.861280" HC_abs="28.965956" PMx_abs="5.748778" NOx_abs="124.842949" fuel_abs="131.346877" electricity_abs="0"/>
    </tripinfo>
    <tripinfo id="h3688c1:1" depart="57625.00" departLane="201201950#1_1" departPos="5.10" departSpeed="0.00" departDelay="0.00" arrival="57720.00" arrivalLane="32978638#0_1" arrivalPos="49.29" arrivalSpeed="13.48" duration="95.00" routeLength="1089.75" waitingTime="3.00" waitingCount="1" stopTime="0.00" timeLoss="18.77" rerouteNo="1" devices="tripinfo_h3688c1:1 routing_h3688c1:1 emissions_h3688c1:1" vType="default_016" speedFactor="1.05" vaporized="">
        <emissions CO_abs="3694.333768" CO2_abs="271274.149242" HC_abs="23.156070" PMx_abs="4.707799" NOx_abs="109.486143" fuel_abs="116.608955" electricity_abs="0"/>
    </tripinfo>
    <tripinfo id="h7800c1:5" depart="57696.00" departLane="-447569998#1_1" departPos="5.10" departSpeed="0.00" departDelay="0.00" arrival="57721.00" arrivalLane="-447569998#1_2" arrivalPos="180.76" arrivalSpeed="7.76" duration="25.00" routeLength="175.66" waitingTime="0.00" waitingCount="0" stopTime="0.00" timeLoss="3.77" rerouteNo="1" devices="tripinfo_h7800c1:5 routing_h7800c1:5 emissions_h7800c1:5" vType="default_016" speedFactor="1.03" vaporized="">
        <emissions CO_abs="1158.956416" CO2_abs="49710.606587" HC_abs="6.420570" PMx_abs="0.832381" NOx_abs="20.347951" fuel_abs="21.368838" electricity_abs="0"/>
    </tripinfo>
    <tripinfo id="h12244c1:3" depart="57612.00" departLane="315358244_1" departPos="5.10" departSpeed="0.00" departDelay="0.40" arrival="57727.00" arrivalLane="386687235_1" arrivalPos="80.84" arrivalSpeed="12.01" duration="115.00" routeLength="1186.14" waitingTime="4.00" waitingCount="2" stopTime="0.00" timeLoss="21.09" rerouteNo="1" devices="tripinfo_h12244c1:3 routing_h12244c1:3 emissions_h12244c1:3" vType="default_016" speedFactor="0.92" vaporized="">
        <emissions CO_abs="3855.859094" CO2_abs="264653.650964" HC_abs="23.698457" PMx_abs="4.173265" NOx_abs="104.462338" fuel_abs="113.763920" electricity_abs="0"/>
    </tripinfo>
    <tripinfo id="h3568c1:3" depart="57656.00" departLane="266565295#5_1" departPos="5.10" departSpeed="0.00" departDelay="0.80" arrival="57728.00" arrivalLane="-24634415_1" arrivalPos="62.03" arrivalSpeed="15.53" duration="72.00" routeLength="807.40" waitingTime="0.00" waitingCount="0" stopTime="0.00" timeLoss="14.49" rerouteNo="1" devices="tripinfo_h3568c1:3 routing_h3568c1:3 emissions_h3568c1:3" vType="default_016" speedFactor="1.13" vaporized="">
        <emissions CO_abs="3198.268372" CO2_abs="215572.146277" HC_abs="19.577558" PMx_abs="3.852555" NOx_abs="87.873283" fuel_abs="92.665120" electricity_abs="0"/>
    </tripinfo>
    <tripinfo id="carIn80064:1" depart="57603.00" departLane="128361109#1_1" departPos="5.10" departSpeed="0.00" departDelay="0.40" arrival="57737.00" arrivalLane="-315358254#1_1" arrivalPos="137.16" arrivalSpeed="11.61" duration="134.00" routeLength="1587.97" waitingTime="9.00" waitingCount="1" stopTime="0.00" timeLoss="29.27" rerouteNo="1" devices="tripinfo_carIn80064:1 routing_carIn80064:1 emissions_carIn80064:1" vType="default_016" speedFactor="0.85" vaporized="">
        <emissions CO_abs="6058.828553" CO2_abs="402105.508130" HC_abs="37.153236" PMx_abs="7.495202" NOx_abs="165.009469" fuel_abs="172.847454" electricity_abs="0"/>
    </tripinfo>
    <tripinfo id="h7181c1:1" depart="57660.00" departLane="315358254#0_1" departPos="5.10" departSpeed="0.00" departDelay="0.10" arrival="57752.00" arrivalLane="306240162#0_0" arrivalPos="220.43" arrivalSpeed="15.43" duration="92.00" routeLength="932.35" waitingTime="16.00" waitingCount="2" stopTime="0.00" timeLoss="36.20" rerouteNo="1" devices="tripinfo_h7181c1:1 routing_h7181c1:1 emissions_h7181c1:1" vType="default_016" speedFactor="0.93" vaporized="">
        <emissions CO_abs="5724.635833" CO2_abs="306295.534528" HC_abs="33.374413" PMx_abs="6.014233" NOx_abs="127.728663" fuel_abs="131.663441" electricity_abs="0"/>
    </tripinfo>
    <tripinfo id="h5979c1:5" depart="57669.00" departLane="399835085#1_1" departPos="5.10" departSpeed="0.00" departDelay="0.00" arrival="57763.00" arrivalLane="-315358254#1_1" arrivalPos="137.16" arrivalSpeed="12.49" duration="94.00" routeLength="659.33" waitingTime="1.00" waitingCount="1" stopTime="0.00" timeLoss="14.75" rerouteNo="1" devices="tripinfo_h5979c1:5 routing_h5979c1:5 emissions_h5979c1:5" vType="default_016" speedFactor="0.93" vaporized="">
        <emissions CO_abs="4170.047650" CO2_abs="188703.831919" HC_abs="23.320209" PMx_abs="3.067340" NOx_abs="76.457123" fuel_abs="81.117091" electricity_abs="0"/>
    </tripinfo>
    <tripinfo id="carIn121703:1" depart="57647.00" departLane="386687232#0_1" departPos="5.10" departSpeed="0.00" departDelay="0.30" arrival="57764.00" arrivalLane="-315358244_1" arrivalPos="33.95" arrivalSpeed="13.39" duration="117.00" routeLength="1157.39" waitingTime="19.00" waitingCount="2" stopTime="0.00" timeLoss="36.33" rerouteNo="1" devices="tripinfo_carIn121703:1 routing_carIn121703:1 emissions_carIn121703:1" vType="default_016" speedFactor="1.04" vaporized="">
        <emissions CO_abs="4900.216724" CO2_abs="275262.300223" HC_abs="28.666387" PMx_abs="4.820335" NOx_abs="111.351855" fuel_abs="118.324200" electricity_abs="0"/>
    </tripinfo>
    <tripinfo id="h317c2:1" depart="57707.00" departLane="-32978638#0_1" departPos="5.10" departSpeed="0.00" departDelay="0.10" arrival="57765.00" arrivalLane="-266565295#5_1" arrivalPos="172.76" arrivalSpeed="13.59" duration="58.00" routeLength="370.53" waitingTime="21.00" waitingCount="1" stopTime="0.00" timeLoss="30.94" rerouteNo="1" devices="tripinfo_h317c2:1 routing_h317c2:1 emissions_h317c2:1" vType="default_016" speedFactor="1.01" vaporized="">
        <emissions CO_abs="4520.128907" CO2_abs="153634.342837" HC_abs="24.197145" PMx_abs="3.078582" NOx_abs="65.331079" fuel_abs="66.042105" electricity_abs="0"/>
    </tripinfo>
    <tripinfo id="h3326c1:2" depart="57656.00" departLane="22716069#0_1" departPos="5.10" departSpeed="0.00" departDelay="0.00" arrival="57766.00" arrivalLane="24634517#13_1" arrivalPos="111.62" arrivalSpeed="14.01" duration="110.00" routeLength="1312.81" waitingTime="0.00" waitingCount="0" stopTime="0.00" timeLoss="15.27" rerouteNo="1" devices="tripinfo_h3326c1:2 routing_h3326c1:2 emissions_h3326c1:2" vType="default_016" speedFactor="1.03" vaporized="">
        <emissions CO_abs="4087.088716" CO2_abs="307186.479276" HC_abs="25.832339" PMx_abs="5.372634" NOx_abs="124.391855" fuel_abs="132.045950" electricity_abs="0"/>
    </tripinfo>
    <tripinfo id="h330c1:1" depart="57736.00" departLane="-32978638#0_1" departPos="5.10" departSpeed="0.00" departDelay="0.20" arrival="57772.00" arrivalLane="-266565295#5_1" arrivalPos="172.76" arrivalSpeed="11.92" duration="36.00" routeLength="370.53" waitingTime="0.00" waitingCount="0" stopTime="0.00" timeLoss="5.64" rerouteNo="1" devices="tripinfo_h330c1:1 routing_h330c1:1 emissions_h330c1:1" vType="default_016" speedFactor="0.92" vaporized="">
        <emissions CO_abs="1592.121641" CO2_abs="100463.381730" HC_abs="9.597659" PMx_abs="1.710601" NOx_abs="40.709155" fuel_abs="43.185044" electricity_abs="0"/>
    </tripinfo>
    <tripinfo id="carIn27009:1" depart="57673.00" departLane="-447569998#1_1" departPos="5.10" departSpeed="0.00" departDelay="0.50" arrival="57773.00" arrivalLane="-26677539_1" arrivalPos="152.75" arrivalSpeed="7.56" duration="100.00" routeLength="699.63" waitingTime="2.00" waitingCount="1" stopTime="0.00" timeLoss="17.21" rerouteNo="1" devices="tripinfo_carIn27009:1 routing_carIn27009:1 emissions_carIn27009:1" vType="default_015" speedFactor="1.02" vaporized="">
        <emissions CO_abs="3954.511604" CO2_abs="185567.204257" HC_abs="22.259897" PMx_abs="2.969966" NOx_abs="75.044535" fuel_abs="79.768695" electricity_abs="0"/>
    </tripinfo>
    <tripinfo id="carIn30817:1" depart="57681.00" departLane="315358244_1" departPos="5.10" departSpeed="0.00" departDelay="0.20" arrival="57773.00" arrivalLane="447569997#1_1" arrivalPos="180.93" arrivalSpeed="7.30" duration="92.00" routeLength="718.04" waitingTime="11.00" waitingCount="1" stopTime="0.00" timeLoss="26.09" rerouteNo="1" devices="tripinfo_carIn30817:1 routing_carIn30817:1 emissions_carIn30817:1" vType="default_016" speedFactor="0.93" vaporized="">
        <emissions CO_abs="5049.136754" CO2_abs="210763.077880" HC_abs="27.880419" PMx_abs="3.693592" NOx_abs="86.381846" fuel_abs="90.599583" electricity_abs="0"/>
    </tripinfo>
    <tripinfo id="S5R_frequency1.2" depart="57624.00" departLane="315358250#0_1" departPos="12.10" departSpeed="0.00" departDelay="12.40" arrival="57774.00" arrivalLane="386687235_1" arrivalPos="80.84" arrivalSpeed="13.10" duration="150.00" routeLength="1115.62" waitingTime="39.00" waitingCount="3" stopTime="0.00" timeLoss="68.38" rerouteNo="1" devices="tripinfo_S5R_frequency1.2 routing_S5R_frequency1.2 emissions_S5R_frequency1.2" vType="bus" speedFactor="1.00" vaporized="">
        <emissions CO_abs="2843.984515" CO2_abs="1492067.568186" HC_abs="620.328861" PMx_abs="298.539989" NOx_abs="12359.026383" fuel_abs="636.256672" electricity_abs="0"/>
    </tripinfo>
    <tripinfo id="h3154c1:1" depart="57658.00" departLane="24634507_1" departPos="5.10" departSpeed="0.00" departDelay="0.00" arrival="57788.00" arrivalLane="-266565295#5_1" arrivalPos="172.76" arrivalSpeed="13.02" duration="130.00" routeLength="1206.22" waitingTime="16.00" waitingCount="2" stopTime="0.00" timeLoss="37.29" rerouteNo="1" devices="tripinfo_h3154c1:1 routing_h3154c1:1 emissions_h3154c1:1" vType="default_016" speedFactor="0.97" vaporized="">
        <emissions CO_abs="5702.336947" CO2_abs="323401.864128" HC_abs="33.552127" PMx_abs="5.791724" NOx_abs="132.631357" fuel_abs="139.017140" electricity_abs="0"/>
    </tripinfo>
    <tripinfo id="h4538c1:1" depart="57701.00" departLane="-10427692#1_1" departPos="5.10" departSpeed="0.00" departDelay="0.00" arrival="57788.00" arrivalLane="-128361102#1_1" arrivalPos="274.68" arrivalSpeed="12.72" duration="87.00" routeLength="440.74" waitingTime="42.00" waitingCount="1" stopTime="0.00" timeLoss="52.98" rerouteNo="1" devices="tripinfo_h4538c1:1 routing_h4538c1:1 emissions_h4538c1:1" vType="default_016" speedFactor="0.94" vaporized="">
        <emissions CO_abs="7926.064960" CO2_abs="211128.062091" HC_abs="41.025026" PMx_abs="4.319306" NOx_abs="90.247960" fuel_abs="90.758014" electricity_abs="0"/>
    </tripinfo>
    <tripinfo id="h9563c2:5" depart="57631.00" departLane="315358244_1" departPos="5.10" departSpeed="0.00" departDelay="0.70" arrival="57794.00" arrivalLane="386687235_1" arrivalPos="80.84" arrivalSpeed="12.75" duration="163.00" routeLength="1186.14" waitingTime="47.00" waitingCount="2" stopTime="0.00" timeLoss="70.20" rerouteNo="1" devices="tripinfo_h9563c2:5 routing_h9563c2:5 emissions_h9563c2:5" vType="default_016" speedFactor="0.93" vaporized="">
        <emissions CO_abs="10338.278358" CO2_abs="376617.991479" HC_abs="55.846907" PMx_abs="6.917053" NOx_abs="155.473252" fuel_abs="161.895475" electricity_abs="0"/>
    </tripinfo>
    <tripinfo id="carIn126288:1" depart="57674.00" departLane="272042143_1" departPos="5.10" departSpeed="0.00" departDelay="0.00" arrival="57795.00" arrivalLane="-315358254#1_1" arrivalPos="137.16" arrivalSpeed="17.01" duration="121.00" routeLength="1596.88" waitingTime="10.00" waitingCount="1" stopTime="0.00" timeLoss="26.90" rerouteNo="1" devices="tripinfo_carIn126288:1 routing_carIn126288:1 emissions_carIn126288:1" vType="default_016" speedFactor="1.25" vaporized="">
        <emissions CO_abs="5045.500333" CO2_abs="370646.191605" HC_abs="31.288201" PMx_abs="6.661226" NOx_abs="148.652204" fuel_abs="159.324493" electricity_abs="0"/>
    </tripinfo>
    <tripinfo id="carIn86816:1" depart="57617.00" departLane="128361102#0_1" departPos="5.10" departSpeed="0.00" departDelay="0.80" arrival="57801.00" arrivalLane="201956811#0_1" arrivalPos="40.40" arrivalSpeed="14.04" duration="184.00" routeLength="2067.33" waitingTime="13.00" waitingCount="2" stopTime="0.00" timeLoss="41.27" rerouteNo="1" devices="tripinfo_carIn86816:1 routing_carIn86816:1 emissions_carIn86816:1" vType="default_016" speedFactor="1.06" vaporized="">
        <emissions CO_abs="7422.885182" CO2_abs="504216.208073" HC_abs="45.502983" PMx_abs="8.558324" NOx_abs="201.630225" fuel_abs="216.741442" electricity_abs="0"/>
    </tripinfo>
    <tripinfo id="carIn12858:1" depart="57661.00" departLane="128361109#1_1" departPos="5.10" departSpeed="0.00" departDelay="0.90" arrival="57803.00" arrivalLane="399835085#1_1" arrivalPos="212.23" arrivalSpeed="7.64" duration="142.00" routeLength="1738.12" waitingTime="2.00" waitingCount="1" stopTime="0.00" timeLoss="29.40" rerouteNo="1" devices="tripinfo_carIn12858:1 routing_carIn12858:1 emissions_carIn12858:1" vType="default_016" speedFactor="1.03" vaporized="">
        <emissions CO_abs="7334.659886" CO2_abs="486118.423628" HC_abs="44.996286" PMx_abs="9.274172" NOx_abs="199.786512" fuel_abs="208.960698" electricity_abs="0"/>
    </tripinfo>
    <tripinfo id="carIn12365:1" depart="57713.00" departLane="315358244_1" departPos="5.10" departSpeed="0.00" departDelay="0.50" arrival="57803.00" arrivalLane="447569997#1_1" arrivalPos="180.93" arrivalSpeed="6.74" duration="90.00" routeLength="718.04" waitingTime="8.00" waitingCount="1" stopTime="0.00" timeLoss="21.55" rerouteNo="1" devices="tripinfo_carIn12365:1 routing_carIn12365:1 emissions_carIn12365:1" vType="default_016" speedFactor="0.90" vaporized="">
        <emissions CO_abs="3777.918253" CO2_abs="188650.635247" HC_abs="21.565868" PMx_abs="3.120898" NOx_abs="76.126586" fuel_abs="81.093875" electricity_abs="0"/>
    </tripinfo>
    <tripinfo id="carIn107282:1" depart="57749.00" departLane="-447569998#1_1" departPos="5.10" departSpeed="0.00" departDelay="0.00" arrival="57809.00" arrivalLane="315358242#0_1" arrivalPos="165.37" arrivalSpeed="11.42" duration="60.00" routeLength="448.50" waitingTime="3.00" waitingCount="1" stopTime="0.00" timeLoss="11.36" rerouteNo="1" devices="tripinfo_carIn107282:1 routing_carIn107282:1 emissions_carIn107282:1" vType="default_016" speedFactor="0.86" vaporized="">
        <emissions CO_abs="2626.557583" CO2_abs="128602.195263" HC_abs="14.916880" PMx_abs="2.063607" NOx_abs="51.718733" fuel_abs="55.281406" electricity_abs="0"/>
    </tripinfo>
    <tripinfo id="carIn118591:1" depart="57689.00" departLane="315358244_1" departPos="5.10" departSpeed="0.00" departDelay="0.20" arrival="57813.00" arrivalLane="386687235_1" arrivalPos="80.84" arrivalSpeed="12.03" duration="124.00" routeLength="1186.14" waitingTime="18.00" waitingCount="2" stopTime="0.00" timeLoss="33.85" rerouteNo="1" devices="tripinfo_carIn118591:1 routing_carIn118591:1 emissions_carIn118591:1" vType="default_016" speedFactor="0.96" vaporized="">
        <emissions CO_abs="5146.258274" CO2_abs="283847.250390" HC_abs="30.034495" PMx_abs="4.701462" NOx_abs="113.345883" fuel_abs="122.015010" electricity_abs="0"/>
    </tripinfo>
    <tripinfo id="h645c1:1" depart="57622.00" departLane="266565295#5_1" departPos="5.10" departSpeed="0.00" departDelay="0.40" arrival="57814.00" arrivalLane="-315358244_2" arrivalPos="33.95" arrivalSpeed="12.68" duration="192.00" routeLength="1910.83" waitingTime="19.00" waitingCount="2" stopTime="0.00" timeLoss="47.25" rerouteNo="1" devices="tripinfo_h645c1:1 routing_h645c1:1 emissions_h645c1:1" vType="default_016" speedFactor="0.96" vaporized="">
        <emissions CO_abs="7298.210676" CO2_abs="431445.205636" HC_abs="43.306687" PMx_abs="7.327337" NOx_abs="173.585925" fuel_abs="185.460950" electricity_abs="0"/>
    </tripinfo>
    <tripinfo id="carIn129809:1" depart="57729.00" departLane="-447569998#1_1" departPos="5.10" departSpeed="0.00" departDelay="1.00" arrival="57814.00" arrivalLane="-315358244_1" arrivalPos="33.95" arrivalSpeed="11.64" duration="85.00" routeLength="706.49" waitingTime="0.00" waitingCount="0" stopTime="0.00" timeLoss="13.66" rerouteNo="1" devices="tripinfo_carIn129809:1 routing_carIn129809:1 emissions_carIn129809:1" vType="default_015" speedFactor="0.84" vaporized="">
        <emissions CO_abs="3165.111446" CO2_abs="169203.332099" HC_abs="18.308953" PMx_abs="2.685768" NOx_abs="67.657032" fuel_abs="72.734175" electricity_abs="0"/>
    </tripinfo>
    <tripinfo id="carIn28951:1" depart="57606.00" departLane="10425609#0_1" departPos="5.10" departSpeed="0.00" departDelay="0.20" arrival="57815.00" arrivalLane="-128361102#1_1" arrivalPos="274.68" arrivalSpeed="14.29" duration="209.00" routeLength="2113.04" waitingTime="31.00" waitingCount="2" stopTime="0.00" timeLoss="58.19" rerouteNo="1" devices="tripinfo_carIn28951:1 routing_carIn28951:1 emissions_carIn28951:1" vType="default_016" speedFactor="1.03" vaporized="">
        <emissions CO_abs="9708.879408" CO2_abs="523185.327096" HC_abs="56.427964" PMx_abs="9.418105" NOx_abs="213.535990" fuel_abs="224.896288" electricity_abs="0"/>
    </tripinfo>
    <tripinfo id="carIn77943:1" depart="57608.00" departLane="124812856#0_1" departPos="5.10" departSpeed="0.00" departDelay="2.50" arrival="57818.00" arrivalLane="-128361102#1_1" arrivalPos="274.68" arrivalSpeed="12.79" duration="210.00" routeLength="2250.49" waitingTime="10.00" waitingCount="1" stopTime="0.00" timeLoss="44.31" rerouteNo="1" devices="tripinfo_carIn77943:1 routing_carIn77943:1 emissions_carIn77943:1" vType="default_016" speedFactor="0.99" vaporized="">
        <emissions CO_abs="7912.562198" CO2_abs="518205.540457" HC_abs="48.184192" PMx_abs="8.907804" NOx_abs="209.342979" fuel_abs="222.754822" electricity_abs="0"/>
    </tripinfo>
    <tripinfo id="carIn50326:1" depart="57651.00" departLane="128361102#0_1" departPos="5.10" departSpeed="0.00" departDelay="0.30" arrival="57822.00" arrivalLane="18809673#0_1" arrivalPos="473.56" arrivalSpeed="12.87" duration="171.00" routeLength="1591.07" waitingTime="17.00" waitingCount="1" stopTime="0.00" timeLoss="42.26" rerouteNo="1" devices="tripinfo_carIn50326:1 routing_carIn50326:1 emissions_carIn50326:1" vType="default_016" speedFactor="1.01" vaporized="">
        <emissions CO_abs="7335.295472" CO2_abs="396623.545077" HC_abs="42.635082" PMx_abs="6.760359" NOx_abs="160.093576" fuel_abs="170.492978" electricity_abs="0"/>
    </tripinfo>
    <tripinfo id="carIn107084:1" depart="57601.00" departLane="124812856#0_1" departPos="5.10" departSpeed="0.00" departDelay="0.70" arrival="57828.00" arrivalLane="-128361102#1_1" arrivalPos="274.68" arrivalSpeed="10.94" duration="227.00" routeLength="2232.46" waitingTime="2.00" waitingCount="1" stopTime="0.00" timeLoss="26.25" rerouteNo="1" devices="tripinfo_carIn107084:1 routing_carIn107084:1 emissions_carIn107084:1" vType="default_016" speedFactor="0.81" vaporized="">
        <emissions CO_abs="6571.660120" CO2_abs="468548.988227" HC_abs="40.688501" PMx_abs="6.872713" NOx_abs="182.647090" fuel_abs="201.410756" electricity_abs="0"/>
    </tripinfo>
    <tripinfo id="h11737c1:1" depart="57665.00" departLane="272042143_1" departPos="5.10" departSpeed="0.00" departDelay="1.50" arrival="57828.00" arrivalLane="-315358254#1_1" arrivalPos="137.16" arrivalSpeed="11.32" duration="163.00" routeLength="1596.88" waitingTime="15.00" waitingCount="1" stopTime="0.00" timeLoss="31.64" rerouteNo="1" devices="tripinfo_h11737c1:1 routing_h11737c1:1 emissions_h11737c1:1" vType="default_016" speedFactor="0.89" vaporized="">
        <emissions CO_abs="5539.456559" CO2_abs="343229.695674" HC_abs="33.166249" PMx_abs="5.396680" NOx_abs="135.520785" fuel_abs="147.541059" electricity_abs="0"/>
    </tripinfo>
    <tripinfo id="50R_frequency3.17" depart="57674.00" departLane="-18809673#6_1" departPos="12.10" departSpeed="0.00" departDelay="0.70" arrival="57835.00" arrivalLane="201956811#0_1" arrivalPos="40.40" arrivalSpeed="13.42" duration="161.00" routeLength="1954.47" waitingTime="0.00" waitingCount="0" stopTime="0.00" timeLoss="16.33" rerouteNo="1" devices="tripinfo_50R_frequency3.17 routing_50R_frequency3.17 emissions_50R_frequency3.17" vType="bus" speedFactor="1.00" vaporized="">
        <emissions CO_abs="3017.411474" CO2_abs="1923499.063632" HC_abs="641.433393" PMx_abs="324.676704" NOx_abs="14826.834219" fuel_abs="820.369619" electricity_abs="0"/>
    </tripinfo>
    <tripinfo id="h8343c1:5" depart="57679.00" departLane="315358254#0_1" departPos="5.10" departSpeed="0.00" departDelay="0.60" arrival="57838.00" arrivalLane="-24634510#5_1" arrivalPos="236.88" arrivalSpeed="15.52" duration="159.00" routeLength="2056.84" waitingTime="13.00" waitingCount="3" stopTime="0.00" timeLoss="52.61" rerouteNo="1" devices="tripinfo_h8343c1:5 routing_h8343c1:5 emissions_h8343c1:5" vType="default_016" speedFactor="1.18" vaporized="">
        <emissions CO_abs="9788.254759" CO2_abs="635619.730781" HC_abs="59.701747" PMx_abs="12.519380" NOx_abs="263.071844" fuel_abs="273.224283" electricity_abs="0"/>
    </tripinfo>
    <tripinfo id="carIn81860:1" depart="57712.00" departLane="128361102#0_1" departPos="5.10" departSpeed="0.00" departDelay="0.60" arrival="57839.00" arrivalLane="-24634517#17_1" arrivalPos="6.43" arrivalSpeed="6.97" duration="127.00" routeLength="1229.64" waitingTime="4.00" waitingCount="1" stopTime="0.00" timeLoss="20.42" rerouteNo="1" devices="tripinfo_carIn81860:1 routing_carIn81860:1 emissions_carIn81860:1" vType="default_016" speedFactor="0.84" vaporized="">
        <emissions CO_abs="3856.711877" CO2_abs="257283.611528" HC_abs="23.508146" PMx_abs="4.000061" NOx_abs="101.772802" fuel_abs="110.595956" electricity_abs="0"/>
    </tripinfo>
    <tripinfo id="randUni15030:1" depart="57735.00" departLane="386687232#0_1" departPos="5.10" departSpeed="0.00" departDelay="0.10" arrival="57839.00" arrivalLane="26677539_1" arrivalPos="151.98" arrivalSpeed="8.21" duration="104.00" routeLength="919.89" waitingTime="8.00" waitingCount="2" stopTime="0.00" timeLoss="27.34" rerouteNo="1" devices="tripinfo_randUni15030:1 routing_randUni15030:1 emissions_randUni15030:1" vType="random_016" speedFactor="1.09" vaporized="">
        <emissions CO_abs="3981.251064" CO2_abs="231687.907340" HC_abs="23.475122" PMx_abs="3.927707" NOx_abs="93.448077" fuel_abs="99.593342" electricity_abs="0"/>
    </tripinfo>
    <tripinfo id="carIn48184:1" depart="57613.00" departLane="-306240162#1_0" departPos="5.10" departSpeed="0.00" departDelay="0.70" arrival="57843.00" arrivalLane="386687235_1" arrivalPos="80.84" arrivalSpeed="13.11" duration="230.00" routeLength="2257.41" waitingTime="50.00" waitingCount="3" stopTime="0.00" timeLoss="84.22" rerouteNo="1" devices="tripinfo_carIn48184:1 routing_carIn48184:1 emissions_carIn48184:1" vType="default_016" speedFactor="1.01" vaporized="">
        <emissions CO_abs="13021.689562" CO2_abs="633657.938542" HC_abs="74.209277" PMx_abs="12.006789" NOx_abs="260.685261" fuel_abs="272.384367" electricity_abs="0"/>
    </tripinfo>
    <tripinfo id="carIn82220:1" depart="57619.00" departLane="-306240162#1_0" departPos="5.10" departSpeed="0.00" departDelay="3.50" arrival="57843.00" arrivalLane="386687235_2" arrivalPos="80.84" arrivalSpeed="13.34" duration="224.00" routeLength="2257.41" waitingTime="47.00" waitingCount="3" stopTime="0.00" timeLoss="80.45" rerouteNo="1" devices="tripinfo_carIn82220:1 routing_carIn82220:1 emissions_carIn82220:1" vType="default_016" speedFactor="1.03" vaporized="">
        <emissions CO_abs="11764.853470" CO2_abs="586872.630936" HC_abs="67.366896" PMx_abs="10.963619" NOx_abs="240.409043" fuel_abs="252.273211" electricity_abs="0"/>
    </tripinfo>
    <tripinfo id="carIn81046:1" depart="57611.00" departLane="124812856#0_1" departPos="5.10" departSpeed="0.00" departDelay="2.50" arrival="57846.00" arrivalLane="-128361102#1_1" arrivalPos="274.68" arrivalSpeed="13.69" duration="235.00" routeLength="2250.49" waitingTime="29.00" waitingCount="3" stopTime="0.00" timeLoss="73.26" rerouteNo="1" devices="tripinfo_carIn81046:1 routing_carIn81046:1 emissions_carIn81046:1" vType="default_016" speedFactor="1.01" vaporized="">
        <emissions CO_abs="9973.443056" CO2_abs="567248.603032" HC_abs="58.672723" PMx_abs="9.871789" NOx_abs="229.774934" fuel_abs="243.837326" electricity_abs="0"/>
    </tripinfo>
    <tripinfo id="carIn77438:1" depart="57614.00" departLane="124812856#0_1" departPos="5.10" departSpeed="0.00" departDelay="1.10" arrival="57848.00" arrivalLane="-128361102#1_1" arrivalPos="274.68" arrivalSpeed="13.72" duration="234.00" routeLength="2250.49" waitingTime="25.00" waitingCount="3" stopTime="0.00" timeLoss="76.91" rerouteNo="1" devices="tripinfo_carIn77438:1 routing_carIn77438:1 emissions_carIn77438:1" vType="default_016" speedFactor="1.05" vaporized="">
        <emissions CO_abs="9601.616430" CO2_abs="599186.083921" HC_abs="57.726998" PMx_abs="10.554456" NOx_abs="243.489414" fuel_abs="257.564964" electricity_abs="0"/>
    </tripinfo>
    <tripinfo id="carIn46110:1" depart="57684.00" departLane="315358244_1" departPos="5.10" departSpeed="0.00" departDelay="1.20" arrival="57850.00" arrivalLane="32978638#0_1" arrivalPos="49.29" arrivalSpeed="13.38" duration="166.00" routeLength="1764.04" waitingTime="14.00" waitingCount="2" stopTime="0.00" timeLoss="40.87" rerouteNo="1" devices="tripinfo_carIn46110:1 routing_carIn46110:1 emissions_carIn46110:1" vType="default_016" speedFactor="1.02" vaporized="">
        <emissions CO_abs="5479.013546" CO2_abs="401004.684815" HC_abs="34.267831" PMx_abs="6.529298" NOx_abs="158.472221" fuel_abs="172.375208" electricity_abs="0"/>
    </tripinfo>
    <tripinfo id="h19804c1:3" depart="57617.00" departLane="124812856#0_1" departPos="5.10" departSpeed="0.00" departDelay="1.50" arrival="57853.00" arrivalLane="-128361102#1_1" arrivalPos="274.68" arrivalSpeed="12.34" duration="236.00" routeLength="2250.49" waitingTime="13.00" waitingCount="2" stopTime="0.00" timeLoss="57.82" rerouteNo="1" devices="tripinfo_h19804c1:3 routing_h19804c1:3 emissions_h19804c1:3" vType="default_016" speedFactor="0.92" vaporized="">
        <emissions CO_abs="8104.880448" CO2_abs="531397.635137" HC_abs="49.270665" PMx_abs="8.665179" NOx_abs="212.194002" fuel_abs="228.426202" electricity_abs="0"/>
    </tripinfo>