<?xml version="1.0" encoding="UTF-8"?>

<!-- generated on 2021-10-26 12:10:16 by Eclipse SUMO sumo Version 1.10.0
<configuration xmlns:xsi="http://www.w3.org/2001/XMLSchema-instance" xsi:noNamespaceSchemaLocation="http://sumo.dlr.de/xsd/sumoConfiguration.xsd">

    <input>
        <net-file value="/Users/behradkoohy/sumo-scratchpad/RESCO/environments/ingolstadt21/ingolstadt21.net.xml"/>
        <route-files value="/Users/behradkoohy/sumo-scratchpad/RESCO/environments/ingolstadt21/ingolstadt21.rou.xml"/>
    </input>

    <output>
        <tripinfo-output value="/Users/behradkoohy/sumo-scratchpad/RESCO/logs/IDQN-tr0-ingolstadt21-21-drq_norm-wait_norm/tripinfo_50.xml"/>
        <tripinfo-output.write-unfinished value="true"/>
    </output>

    <time>
        <begin value="57600"/>
        <end value="61200"/>
    </time>

    <processing>
        <time-to-teleport value="-1"/>
    </processing>

    <report>
        <no-warnings value="true"/>
        <no-step-log value="true"/>
    </report>

    <emissions>
        <device.emissions.probability value="1"/>
    </emissions>

    <traci_server>
        <remote-port value="58002"/>
    </traci_server>

    <random_number>
        <random value="true"/>
    </random_number>

</configuration>
-->

<tripinfos xmlns:xsi="http://www.w3.org/2001/XMLSchema-instance" xsi:noNamespaceSchemaLocation="http://sumo.dlr.de/xsd/tripinfo_file.xsd">
    <tripinfo id="h15454c2:3" depart="57612.00" departLane="24608844_1" departPos="5.10" departSpeed="0.00" departDelay="0.50" arrival="57667.00" arrivalLane="32978638#0_1" arrivalPos="49.29" arrivalSpeed="15.20" duration="55.00" routeLength="354.79" waitingTime="14.00" waitingCount="1" stopTime="0.00" timeLoss="24.44" rerouteNo="1" devices="tripinfo_h15454c2:3 routing_h15454c2:3 emissions_h15454c2:3" vType="default_016" speedFactor="1.14" vaporized="">
        <emissions CO_abs="4001.558131" CO2_abs="159232.827443" HC_abs="21.923123" PMx_abs="3.100536" NOx_abs="67.273957" fuel_abs="68.448230" electricity_abs="0"/>
    </tripinfo>
    <tripinfo id="carIn60260:1" depart="57606.00" departLane="315358254#0_1" departPos="5.10" departSpeed="0.00" departDelay="0.90" arrival="57673.00" arrivalLane="399835085#1_1" arrivalPos="212.23" arrivalSpeed="7.31" duration="67.00" routeLength="430.98" waitingTime="11.00" waitingCount="1" stopTime="0.00" timeLoss="20.90" rerouteNo="1" devices="tripinfo_carIn60260:1 routing_carIn60260:1 emissions_carIn60260:1" vType="default_016" speedFactor="0.99" vaporized="">
        <emissions CO_abs="3495.234136" CO2_abs="137979.102043" HC_abs="19.100548" PMx_abs="2.397636" NOx_abs="56.817842" fuel_abs="59.312481" electricity_abs="0"/>
    </tripinfo>
    <tripinfo id="carIn53971:1" depart="57640.00" departLane="272042143_1" departPos="5.10" departSpeed="0.00" departDelay="0.80" arrival="57699.00" arrivalLane="24634414#1_1" arrivalPos="162.19" arrivalSpeed="6.99" duration="59.00" routeLength="493.04" waitingTime="0.00" waitingCount="0" stopTime="0.00" timeLoss="9.27" rerouteNo="1" devices="tripinfo_carIn53971:1 routing_carIn53971:1 emissions_carIn53971:1" vType="default_016" speedFactor="0.92" vaporized="">
        <emissions CO_abs="2383.605826" CO2_abs="124687.581101" HC_abs="13.751154" PMx_abs="2.131554" NOx_abs="50.966565" fuel_abs="53.598319" electricity_abs="0"/>
    </tripinfo>
    <tripinfo id="h7800c1:5" depart="57696.00" departLane="-447569998#1_1" departPos="5.10" departSpeed="0.00" departDelay="0.00" arrival="57722.00" arrivalLane="-447569998#1_1" arrivalPos="180.76" arrivalSpeed="7.43" duration="26.00" routeLength="175.66" waitingTime="0.00" waitingCount="0" stopTime="0.00" timeLoss="2.99" rerouteNo="1" devices="tripinfo_h7800c1:5 routing_h7800c1:5 emissions_h7800c1:5" vType="default_016" speedFactor="0.95" vaporized="">
        <emissions CO_abs="1228.285408" CO2_abs="52869.349868" HC_abs="6.793416" PMx_abs="0.806146" NOx_abs="21.153112" fuel_abs="22.726785" electricity_abs="0"/>
    </tripinfo>
    <tripinfo id="S5R_frequency1.2" depart="57612.00" departLane="315358250#0_1" departPos="12.10" departSpeed="0.00" departDelay="0.40" arrival="57729.00" arrivalLane="386687235_1" arrivalPos="80.84" arrivalSpeed="13.80" duration="117.00" routeLength="1115.62" waitingTime="13.00" waitingCount="2" stopTime="0.00" timeLoss="35.58" rerouteNo="1" devices="tripinfo_S5R_frequency1.2 routing_S5R_frequency1.2 emissions_S5R_frequency1.2" vType="bus" speedFactor="1.00" vaporized="">
        <emissions CO_abs="2164.141402" CO2_abs="1285279.779202" HC_abs="468.334050" PMx_abs="230.902248" NOx_abs="10154.791980" fuel_abs="548.142120" electricity_abs="0"/>
    </tripinfo>
    <tripinfo id="h12244c1:3" depart="57612.00" departLane="315358244_1" departPos="5.10" departSpeed="0.00" departDelay="0.40" arrival="57733.00" arrivalLane="386687235_1" arrivalPos="80.84" arrivalSpeed="11.44" duration="121.00" routeLength="1186.14" waitingTime="0.00" waitingCount="0" stopTime="0.00" timeLoss="22.92" rerouteNo="1" devices="tripinfo_h12244c1:3 routing_h12244c1:3 emissions_h12244c1:3" vType="default_016" speedFactor="0.88" vaporized="">
        <emissions CO_abs="4488.573087" CO2_abs="268726.760229" HC_abs="26.654998" PMx_abs="4.276285" NOx_abs="106.914663" fuel_abs="115.515155" electricity_abs="0"/>
    </tripinfo>
    <tripinfo id="h4538c1:1" depart="57701.00" departLane="-10427692#1_1" departPos="5.10" departSpeed="0.00" departDelay="0.00" arrival="57738.00" arrivalLane="-128361102#1_1" arrivalPos="274.68" arrivalSpeed="14.67" duration="37.00" routeLength="440.74" waitingTime="0.00" waitingCount="0" stopTime="0.00" timeLoss="7.37" rerouteNo="1" devices="tripinfo_h4538c1:1 routing_h4538c1:1 emissions_h4538c1:1" vType="default_016" speedFactor="1.10" vaporized="">
        <emissions CO_abs="1615.244338" CO2_abs="114864.871540" HC_abs="10.000662" PMx_abs="1.956299" NOx_abs="45.959592" fuel_abs="49.375522" electricity_abs="0"/>
    </tripinfo>
    <tripinfo id="h3688c1:1" depart="57625.00" departLane="201201950#1_1" departPos="5.10" departSpeed="0.00" departDelay="0.00" arrival="57743.00" arrivalLane="32978638#0_1" arrivalPos="49.29" arrivalSpeed="12.64" duration="118.00" routeLength="1089.75" waitingTime="15.00" waitingCount="1" stopTime="0.00" timeLoss="31.57" rerouteNo="1" devices="tripinfo_h3688c1:1 routing_h3688c1:1 emissions_h3688c1:1" vType="default_016" speedFactor="0.92" vaporized="">
        <emissions CO_abs="5457.322476" CO2_abs="277301.317422" HC_abs="31.339545" PMx_abs="4.925820" NOx_abs="113.558051" fuel_abs="119.200954" electricity_abs="0"/>
    </tripinfo>
    <tripinfo id="h317c2:1" depart="57707.00" departLane="-32978638#0_1" departPos="5.10" departSpeed="0.00" departDelay="0.10" arrival="57745.00" arrivalLane="-266565295#5_1" arrivalPos="172.76" arrivalSpeed="12.86" duration="38.00" routeLength="370.53" waitingTime="0.00" waitingCount="0" stopTime="0.00" timeLoss="10.29" rerouteNo="1" devices="tripinfo_h317c2:1 routing_h317c2:1 emissions_h317c2:1" vType="default_016" speedFactor="0.98" vaporized="">
        <emissions CO_abs="1998.262117" CO2_abs="118889.629547" HC_abs="11.865915" PMx_abs="2.062669" NOx_abs="48.323512" fuel_abs="51.105770" electricity_abs="0"/>
    </tripinfo>
    <tripinfo id="carIn121703:1" depart="57647.00" departLane="386687232#0_1" departPos="5.10" departSpeed="0.00" departDelay="0.30" arrival="57749.00" arrivalLane="-315358244_1" arrivalPos="33.95" arrivalSpeed="11.73" duration="102.00" routeLength="1157.39" waitingTime="0.00" waitingCount="0" stopTime="0.00" timeLoss="9.98" rerouteNo="1" devices="tripinfo_carIn121703:1 routing_carIn121703:1 emissions_carIn121703:1" vType="default_016" speedFactor="0.92" vaporized="">
        <emissions CO_abs="2748.047387" CO2_abs="228853.233783" HC_abs="17.789673" PMx_abs="3.310534" NOx_abs="88.012775" fuel_abs="98.374761" electricity_abs="0"/>
    </tripinfo>
    <tripinfo id="h7181c1:1" depart="57660.00" departLane="315358254#0_1" departPos="5.10" departSpeed="0.00" departDelay="0.10" arrival="57749.00" arrivalLane="306240162#0_0" arrivalPos="220.43" arrivalSpeed="17.76" duration="89.00" routeLength="932.35" waitingTime="23.00" waitingCount="2" stopTime="0.00" timeLoss="42.27" rerouteNo="1" devices="tripinfo_h7181c1:1 routing_h7181c1:1 emissions_h7181c1:1" vType="default_016" speedFactor="1.10" vaporized="">
        <emissions CO_abs="7444.928388" CO2_abs="342201.842657" HC_abs="42.137163" PMx_abs="7.232645" NOx_abs="144.969937" fuel_abs="147.098258" electricity_abs="0"/>
    </tripinfo>
    <tripinfo id="carIn27009:1" depart="57673.00" departLane="-447569998#1_1" departPos="5.10" departSpeed="0.00" departDelay="0.50" arrival="57757.00" arrivalLane="-26677539_1" arrivalPos="152.75" arrivalSpeed="8.45" duration="84.00" routeLength="699.63" waitingTime="0.00" waitingCount="0" stopTime="0.00" timeLoss="9.79" rerouteNo="1" devices="tripinfo_carIn27009:1 routing_carIn27009:1 emissions_carIn27009:1" vType="default_015" speedFactor="1.13" vaporized="">
        <emissions CO_abs="3265.069482" CO2_abs="176389.292956" HC_abs="18.934203" PMx_abs="2.846352" NOx_abs="71.190092" fuel_abs="75.823012" electricity_abs="0"/>
    </tripinfo>
    <tripinfo id="carIn30817:1" depart="57681.00" departLane="315358244_1" departPos="5.10" departSpeed="0.00" departDelay="0.20" arrival="57760.00" arrivalLane="447569997#1_1" arrivalPos="180.93" arrivalSpeed="7.97" duration="79.00" routeLength="718.04" waitingTime="7.00" waitingCount="1" stopTime="0.00" timeLoss="19.53" rerouteNo="1" devices="tripinfo_carIn30817:1 routing_carIn30817:1 emissions_carIn30817:1" vType="default_016" speedFactor="1.04" vaporized="">
        <emissions CO_abs="3140.484663" CO2_abs="176890.795933" HC_abs="18.406193" PMx_abs="2.972394" NOx_abs="71.025938" fuel_abs="76.038409" electricity_abs="0"/>
    </tripinfo>
    <tripinfo id="carIn22761:1" depart="57616.00" departLane="-306240162#1_0" departPos="5.10" departSpeed="0.00" departDelay="2.10" arrival="57766.00" arrivalLane="399835085#1_1" arrivalPos="212.23" arrivalSpeed="7.24" duration="150.00" routeLength="1093.26" waitingTime="40.00" waitingCount="3" stopTime="0.00" timeLoss="68.66" rerouteNo="1" devices="tripinfo_carIn22761:1 routing_carIn22761:1 emissions_carIn22761:1" vType="default_016" speedFactor="0.96" vaporized="">
        <emissions CO_abs="9278.068604" CO2_abs="383782.452674" HC_abs="51.287586" PMx_abs="7.511968" NOx_abs="161.329044" fuel_abs="164.973458" electricity_abs="0"/>
    </tripinfo>
    <tripinfo id="carIn107084:1" depart="57601.00" departLane="124812856#0_1" departPos="5.10" departSpeed="0.00" departDelay="0.70" arrival="57767.00" arrivalLane="-128361102#1_1" arrivalPos="274.68" arrivalSpeed="14.61" duration="166.00" routeLength="2250.49" waitingTime="0.00" waitingCount="0" stopTime="0.00" timeLoss="17.89" rerouteNo="1" devices="tripinfo_carIn107084:1 routing_carIn107084:1 emissions_carIn107084:1" vType="default_016" speedFactor="1.11" vaporized="">
        <emissions CO_abs="4670.640535" CO2_abs="428214.417398" HC_abs="31.262660" PMx_abs="7.114897" NOx_abs="168.761439" fuel_abs="184.070447" electricity_abs="0"/>
    </tripinfo>
    <tripinfo id="h3154c1:1" depart="57658.00" departLane="24634507_1" departPos="5.10" departSpeed="0.00" departDelay="0.00" arrival="57767.00" arrivalLane="-266565295#5_1" arrivalPos="172.76" arrivalSpeed="12.81" duration="109.00" routeLength="1206.22" waitingTime="2.00" waitingCount="1" stopTime="0.00" timeLoss="20.79" rerouteNo="1" devices="tripinfo_h3154c1:1 routing_h3154c1:1 emissions_h3154c1:1" vType="default_016" speedFactor="1.01" vaporized="">
        <emissions CO_abs="4312.541288" CO2_abs="302685.616302" HC_abs="26.709198" PMx_abs="5.191519" NOx_abs="122.168609" fuel_abs="130.111598" electricity_abs="0"/>
    </tripinfo>
    <tripinfo id="h3568c1:3" depart="57656.00" departLane="266565295#5_1" departPos="5.10" departSpeed="0.00" departDelay="0.80" arrival="57768.00" arrivalLane="-24634415_1" arrivalPos="62.03" arrivalSpeed="12.69" duration="112.00" routeLength="807.40" waitingTime="23.00" waitingCount="2" stopTime="0.00" timeLoss="44.89" rerouteNo="1" devices="tripinfo_h3568c1:3 routing_h3568c1:3 emissions_h3568c1:3" vType="default_016" speedFactor="0.97" vaporized="">
        <emissions CO_abs="7545.805894" CO2_abs="305109.271931" HC_abs="41.538342" PMx_abs="5.976676" NOx_abs="129.262879" fuel_abs="131.154893" electricity_abs="0"/>
    </tripinfo>
    <tripinfo id="h3326c1:2" depart="57656.00" departLane="22716069#0_1" departPos="5.10" departSpeed="0.00" departDelay="0.00" arrival="57772.00" arrivalLane="24634517#13_1" arrivalPos="111.62" arrivalSpeed="12.91" duration="116.00" routeLength="1312.81" waitingTime="0.00" waitingCount="0" stopTime="0.00" timeLoss="15.74" rerouteNo="1" devices="tripinfo_h3326c1:2 routing_h3326c1:2 emissions_h3326c1:2" vType="default_016" speedFactor="0.97" vaporized="">
        <emissions CO_abs="3793.358768" CO2_abs="281294.323609" HC_abs="23.850328" PMx_abs="4.642336" NOx_abs="112.281296" fuel_abs="120.916506" electricity_abs="0"/>
    </tripinfo>
    <tripinfo id="h9563c2:5" depart="57631.00" departLane="315358244_1" departPos="5.10" departSpeed="0.00" departDelay="0.70" arrival="57776.00" arrivalLane="386687235_1" arrivalPos="80.84" arrivalSpeed="15.30" duration="145.00" routeLength="1186.14" waitingTime="39.00" waitingCount="1" stopTime="0.00" timeLoss="67.07" rerouteNo="1" devices="tripinfo_h9563c2:5 routing_h9563c2:5 emissions_h9563c2:5" vType="default_016" speedFactor="1.12" vaporized="">
        <emissions CO_abs="10185.596330" CO2_abs="383201.010174" HC_abs="55.168832" PMx_abs="7.252016" NOx_abs="158.523338" fuel_abs="164.724753" electricity_abs="0"/>
    </tripinfo>
    <tripinfo id="carIn118591:1" depart="57689.00" departLane="315358244_1" departPos="5.10" departSpeed="0.00" departDelay="0.20" arrival="57778.00" arrivalLane="386687235_1" arrivalPos="80.84" arrivalSpeed="17.07" duration="89.00" routeLength="1186.14" waitingTime="7.00" waitingCount="1" stopTime="0.00" timeLoss="19.54" rerouteNo="1" devices="tripinfo_carIn118591:1 routing_carIn118591:1 emissions_carIn118591:1" vType="default_016" speedFactor="1.24" vaporized="">
        <emissions CO_abs="4267.804169" CO2_abs="302511.025403" HC_abs="26.453260" PMx_abs="5.609709" NOx_abs="122.778508" fuel_abs="130.036051" electricity_abs="0"/>
    </tripinfo>
    <tripinfo id="carIn80064:1" depart="57603.00" departLane="128361109#1_1" departPos="5.10" departSpeed="0.00" departDelay="0.40" arrival="57781.00" arrivalLane="-315358254#1_1" arrivalPos="137.16" arrivalSpeed="11.19" duration="178.00" routeLength="1587.97" waitingTime="40.00" waitingCount="2" stopTime="0.00" timeLoss="72.02" rerouteNo="1" devices="tripinfo_carIn80064:1 routing_carIn80064:1 emissions_carIn80064:1" vType="default_016" speedFactor="0.84" vaporized="">
        <emissions CO_abs="11716.564881" CO2_abs="503465.812168" HC_abs="65.166560" PMx_abs="9.796873" NOx_abs="210.287786" fuel_abs="216.420565" electricity_abs="0"/>
    </tripinfo>
    <tripinfo id="h11737c1:1" depart="57665.00" departLane="272042143_1" departPos="5.10" departSpeed="0.00" departDelay="1.50" arrival="57784.00" arrivalLane="-315358254#1_1" arrivalPos="137.16" arrivalSpeed="15.64" duration="119.00" routeLength="1596.88" waitingTime="0.00" waitingCount="0" stopTime="0.00" timeLoss="16.20" rerouteNo="1" devices="tripinfo_h11737c1:1 routing_h11737c1:1 emissions_h11737c1:1" vType="default_016" speedFactor="1.13" vaporized="">
        <emissions CO_abs="4195.408008" CO2_abs="362837.850139" HC_abs="27.445506" PMx_abs="6.123527" NOx_abs="143.724792" fuel_abs="155.967972" electricity_abs="0"/>
    </tripinfo>
    <tripinfo id="h330c1:1" depart="57736.00" departLane="-32978638#0_1" departPos="5.10" departSpeed="0.00" departDelay="0.20" arrival="57794.00" arrivalLane="-266565295#5_1" arrivalPos="172.76" arrivalSpeed="14.40" duration="58.00" routeLength="370.53" waitingTime="22.00" waitingCount="1" stopTime="0.00" timeLoss="32.63" rerouteNo="1" devices="tripinfo_h330c1:1 routing_h330c1:1 emissions_h330c1:1" vType="default_016" speedFactor="1.09" vaporized="">
        <emissions CO_abs="4981.289484" CO2_abs="166932.565762" HC_abs="26.629715" PMx_abs="3.452560" NOx_abs="71.601825" fuel_abs="71.758456" electricity_abs="0"/>
    </tripinfo>
    <tripinfo id="carIn28951:1" depart="57606.00" departLane="10425609#0_1" departPos="5.10" departSpeed="0.00" departDelay="0.20" arrival="57796.00" arrivalLane="-128361102#1_1" arrivalPos="274.68" arrivalSpeed="13.80" duration="190.00" routeLength="2113.04" waitingTime="9.00" waitingCount="2" stopTime="0.00" timeLoss="37.11" rerouteNo="1" devices="tripinfo_carIn28951:1 routing_carIn28951:1 emissions_carIn28951:1" vType="default_016" speedFactor="1.01" vaporized="">
        <emissions CO_abs="6228.025778" CO2_abs="471909.969707" HC_abs="39.396512" PMx_abs="7.856279" NOx_abs="188.173689" fuel_abs="202.853933" electricity_abs="0"/>
    </tripinfo>
    <tripinfo id="carIn129809:1" depart="57729.00" departLane="-447569998#1_1" departPos="5.10" departSpeed="0.00" departDelay="1.00" arrival="57799.00" arrivalLane="-315358244_1" arrivalPos="33.95" arrivalSpeed="12.06" duration="70.00" routeLength="706.49" waitingTime="0.00" waitingCount="0" stopTime="0.00" timeLoss="6.30" rerouteNo="1" devices="tripinfo_carIn129809:1 routing_carIn129809:1 emissions_carIn129809:1" vType="default_015" speedFactor="0.95" vaporized="">
        <emissions CO_abs="2241.213640" CO2_abs="145695.805111" HC_abs="13.575646" PMx_abs="2.279880" NOx_abs="57.613687" fuel_abs="62.628850" electricity_abs="0"/>
    </tripinfo>
    <tripinfo id="carIn77943:1" depart="57608.00" departLane="124812856#0_1" departPos="5.10" departSpeed="0.00" departDelay="2.50" arrival="57800.00" arrivalLane="-128361102#1_1" arrivalPos="274.68" arrivalSpeed="13.87" duration="192.00" routeLength="2250.49" waitingTime="5.00" waitingCount="1" stopTime="0.00" timeLoss="29.61" rerouteNo="1" devices="tripinfo_carIn77943:1 routing_carIn77943:1 emissions_carIn77943:1" vType="default_016" speedFactor="1.01" vaporized="">
        <emissions CO_abs="5678.979168" CO2_abs="471431.980563" HC_abs="36.857740" PMx_abs="7.557949" NOx_abs="185.569901" fuel_abs="202.648502" electricity_abs="0"/>
    </tripinfo>
    <tripinfo id="carIn50326:1" depart="57651.00" departLane="128361102#0_1" departPos="5.10" departSpeed="0.00" departDelay="0.30" arrival="57801.00" arrivalLane="18809673#0_1" arrivalPos="473.56" arrivalSpeed="13.12" duration="150.00" routeLength="1591.07" waitingTime="4.00" waitingCount="1" stopTime="0.00" timeLoss="24.11" rerouteNo="1" devices="tripinfo_carIn50326:1 routing_carIn50326:1 emissions_carIn50326:1" vType="default_016" speedFactor="1.03" vaporized="">
        <emissions CO_abs="4587.198795" CO2_abs="334694.574413" HC_abs="28.586172" PMx_abs="5.389158" NOx_abs="132.443181" fuel_abs="143.871288" electricity_abs="0"/>
    </tripinfo>
    <tripinfo id="carIn81046:1" depart="57611.00" departLane="124812856#0_1" departPos="5.10" departSpeed="0.00" departDelay="2.50" arrival="57802.00" arrivalLane="-128361102#1_1" arrivalPos="274.68" arrivalSpeed="14.05" duration="191.00" routeLength="2250.49" waitingTime="4.00" waitingCount="1" stopTime="0.00" timeLoss="34.19" rerouteNo="1" devices="tripinfo_carIn81046:1 routing_carIn81046:1 emissions_carIn81046:1" vType="default_016" speedFactor="1.05" vaporized="">
        <emissions CO_abs="6567.536924" CO2_abs="514266.859439" HC_abs="41.925073" PMx_abs="8.683020" NOx_abs="205.628296" fuel_abs="221.060992" electricity_abs="0"/>
    </tripinfo>
    <tripinfo id="carIn77438:1" depart="57614.00" departLane="124812856#0_1" departPos="5.10" departSpeed="0.00" departDelay="1.10" arrival="57803.00" arrivalLane="-128361102#1_1" arrivalPos="274.68" arrivalSpeed="13.87" duration="189.00" routeLength="2250.49" waitingTime="3.00" waitingCount="1" stopTime="0.00" timeLoss="38.46" rerouteNo="1" devices="tripinfo_carIn77438:1 routing_carIn77438:1 emissions_carIn77438:1" vType="default_016" speedFactor="1.09" vaporized="">
        <emissions CO_abs="6687.033044" CO2_abs="505123.696979" HC_abs="42.215643" PMx_abs="8.741815" NOx_abs="203.452182" fuel_abs="217.130595" electricity_abs="0"/>
    </tripinfo>
    <tripinfo id="h19804c1:3" depart="57617.00" departLane="124812856#0_1" departPos="5.10" departSpeed="0.00" departDelay="1.50" arrival="57805.00" arrivalLane="-128361102#1_1" arrivalPos="274.68" arrivalSpeed="14.83" duration="188.00" routeLength="2250.49" waitingTime="2.00" waitingCount="1" stopTime="0.00" timeLoss="43.94" rerouteNo="1" devices="tripinfo_h19804c1:3 routing_h19804c1:3 emissions_h19804c1:3" vType="default_016" speedFactor="1.14" vaporized="">
        <emissions CO_abs="7584.489321" CO2_abs="551383.235168" HC_abs="47.507729" PMx_abs="9.870494" NOx_abs="224.623721" fuel_abs="237.015262" electricity_abs="0"/>
    </tripinfo>
    <tripinfo id="carIn12365:1" depart="57713.00" departLane="315358244_1" departPos="5.10" departSpeed="0.00" departDelay="0.50" arrival="57805.00" arrivalLane="447569997#1_1" arrivalPos="180.93" arrivalSpeed="7.65" duration="92.00" routeLength="718.04" waitingTime="17.00" waitingCount="1" stopTime="0.00" timeLoss="31.18" rerouteNo="1" devices="tripinfo_carIn12365:1 routing_carIn12365:1 emissions_carIn12365:1" vType="default_016" speedFactor="1.01" vaporized="">
        <emissions CO_abs="4799.631831" CO2_abs="205395.417175" HC_abs="26.618872" PMx_abs="3.701309" NOx_abs="84.574150" fuel_abs="88.291979" electricity_abs="0"/>
    </tripinfo>
    <tripinfo id="carIn107282:1" depart="57749.00" departLane="-447569998#1_1" departPos="5.10" departSpeed="0.00" departDelay="0.00" arrival="57808.00" arrivalLane="315358242#0_1" arrivalPos="165.37" arrivalSpeed="10.98" duration="59.00" routeLength="448.50" waitingTime="2.00" waitingCount="1" stopTime="0.00" timeLoss="11.03" rerouteNo="1" devices="tripinfo_carIn107282:1 routing_carIn107282:1 emissions_carIn107282:1" vType="default_016" speedFactor="0.87" vaporized="">
        <emissions CO_abs="2286.888194" CO2_abs="112962.978998" HC_abs="13.014777" PMx_abs="1.829845" NOx_abs="45.525445" fuel_abs="48.558634" electricity_abs="0"/>
    </tripinfo>
    <tripinfo id="carIn126288:1" depart="57674.00" departLane="272042143_1" departPos="5.10" departSpeed="0.00" departDelay="0.00" arrival="57816.00" arrivalLane="-315358254#1_1" arrivalPos="137.16" arrivalSpeed="15.45" duration="142.00" routeLength="1596.88" waitingTime="15.00" waitingCount="2" stopTime="0.00" timeLoss="37.83" rerouteNo="1" devices="tripinfo_carIn126288:1 routing_carIn126288:1 emissions_carIn126288:1" vType="default_016" speedFactor="1.12" vaporized="">
        <emissions CO_abs="5453.977480" CO2_abs="381080.296278" HC_abs="33.638891" PMx_abs="6.599655" NOx_abs="152.641517" fuel_abs="163.810180" electricity_abs="0"/>
    </tripinfo>
    <tripinfo id="h15382c1:3" depart="57626.00" departLane="124812856#0_1" departPos="5.10" departSpeed="0.00" departDelay="3.80" arrival="57821.00" arrivalLane="-128361102#1_1" arrivalPos="274.68" arrivalSpeed="13.09" duration="195.00" routeLength="2250.49" waitingTime="0.00" waitingCount="0" stopTime="0.00" timeLoss="24.49" rerouteNo="1" devices="tripinfo_h15382c1:3 routing_h15382c1:3 emissions_h15382c1:3" vType="default_016" speedFactor="0.96" vaporized="">
        <emissions CO_abs="5442.293761" CO2_abs="456602.351551" HC_abs="35.395074" PMx_abs="7.088973" NOx_abs="178.804194" fuel_abs="196.274124" electricity_abs="0"/>
    </tripinfo>
    <tripinfo id="h5979c1:5" depart="57669.00" departLane="399835085#1_1" departPos="5.10" departSpeed="0.00" departDelay="0.00" arrival="57821.00" arrivalLane="-315358254#1_1" arrivalPos="137.16" arrivalSpeed="12.22" duration="152.00" routeLength="659.33" waitingTime="49.00" waitingCount="3" stopTime="0.00" timeLoss="72.84" rerouteNo="1" devices="tripinfo_h5979c1:5 routing_h5979c1:5 emissions_h5979c1:5" vType="default_016" speedFactor="0.92" vaporized="">
        <emissions CO_abs="11230.064719" CO2_abs="299478.428998" HC_abs="58.077399" PMx_abs="5.922050" NOx_abs="127.873744" fuel_abs="128.737530" electricity_abs="0"/>
    </tripinfo>
    <tripinfo id="carIn86816:1" depart="57617.00" departLane="128361102#0_1" departPos="5.10" departSpeed="0.00" departDelay="0.80" arrival="57826.00" arrivalLane="201956811#0_1" arrivalPos="40.40" arrivalSpeed="12.07" duration="209.00" routeLength="2067.33" waitingTime="22.00" waitingCount="2" stopTime="0.00" timeLoss="50.45" rerouteNo="1" devices="tripinfo_carIn86816:1 routing_carIn86816:1 emissions_carIn86816:1" vType="default_016" speedFactor="0.96" vaporized="">
        <emissions CO_abs="8142.434460" CO2_abs="485325.547047" HC_abs="48.380075" PMx_abs="8.092636" NOx_abs="194.335758" fuel_abs="208.622110" electricity_abs="0"/>
    </tripinfo>
    <tripinfo id="carIn126378:1" depart="57746.00" departLane="386687232#0_1" departPos="5.10" departSpeed="0.00" departDelay="1.80" arrival="57827.00" arrivalLane="-315358244_1" arrivalPos="33.95" arrivalSpeed="16.07" duration="81.00" routeLength="1157.39" waitingTime="0.00" waitingCount="0" stopTime="0.00" timeLoss="10.66" rerouteNo="1" devices="tripinfo_carIn126378:1 routing_carIn126378:1 emissions_carIn126378:1" vType="default_016" speedFactor="1.20" vaporized="">
        <emissions CO_abs="3212.444029" CO2_abs="261442.937647" HC_abs="20.631935" PMx_abs="4.728318" NOx_abs="105.539091" fuel_abs="112.382450" electricity_abs="0"/>
    </tripinfo>
    <tripinfo id="carIn102915:1" depart="57643.00" departLane="128361102#0_1" departPos="5.10" departSpeed="0.00" departDelay="0.40" arrival="57828.00" arrivalLane="201956811#0_1" arrivalPos="40.40" arrivalSpeed="13.78" duration="185.00" routeLength="2067.33" waitingTime="1.00" waitingCount="1" stopTime="0.00" timeLoss="39.50" rerouteNo="1" devices="tripinfo_carIn102915:1 routing_carIn102915:1 emissions_carIn102915:1" vType="default_016" speedFactor="1.04" vaporized="">
        <emissions CO_abs="6854.260167" CO2_abs="493275.200107" HC_abs="42.704186" PMx_abs="8.415730" NOx_abs="198.603764" fuel_abs="212.037842" electricity_abs="0"/>
    </tripinfo>
    <tripinfo id="randUni33724:1" depart="57646.00" departLane="128361102#0_1" departPos="5.10" departSpeed="0.00" departDelay="1.20" arrival="57829.00" arrivalLane="201956811#0_1" arrivalPos="40.40" arrivalSpeed="14.81" duration="183.00" routeLength="2067.33" waitingTime="1.00" waitingCount="1" stopTime="0.00" timeLoss="49.45" rerouteNo="1" devices="tripinfo_randUni33724:1 routing_randUni33724:1 emissions_randUni33724:1" vType="random_016" speedFactor="1.14" vaporized="">
        <emissions CO_abs="7235.231841" CO2_abs="507124.681596" HC_abs="44.878873" PMx_abs="8.920137" NOx_abs="206.059425" fuel_abs="217.990890" electricity_abs="0"/>
    </tripinfo>
    <tripinfo id="carIn100288:1" depart="57664.00" departLane="128361102#0_1" departPos="5.10" departSpeed="0.00" departDelay="0.60" arrival="57831.00" arrivalLane="201956811#0_1" arrivalPos="40.40" arrivalSpeed="14.24" duration="167.00" routeLength="2067.33" waitingTime="0.00" waitingCount="0" stopTime="0.00" timeLoss="27.15" rerouteNo="1" devices="tripinfo_carIn100288:1 routing_carIn100288:1 emissions_carIn100288:1" vType="default_016" speedFactor="1.08" vaporized="">
        <emissions CO_abs="5530.082653" CO2_abs="443513.372661" HC_abs="35.358098" PMx_abs="7.309820" NOx_abs="175.437434" fuel_abs="190.647344" electricity_abs="0"/>
    </tripinfo>
    <tripinfo id="carIn48184:1" depart="57613.00" departLane="-306240162#1_0" departPos="5.10" departSpeed="0.00" departDelay="0.70" arrival="57834.00" arrivalLane="386687235_1" arrivalPos="80.84" arrivalSpeed="14.47" duration="221.00" routeLength="2257.41" waitingTime="39.00" waitingCount="3" stopTime="0.00" timeLoss="82.72" rerouteNo="1" devices="tripinfo_carIn48184:1 routing_carIn48184:1 emissions_carIn48184:1" vType="default_016" speedFactor="1.08" vaporized="">
        <emissions CO_abs="12533.634373" CO2_abs="651385.548434" HC_abs="72.359686" PMx_abs="12.351961" NOx_abs="268.369553" fuel_abs="280.003971" electricity_abs="0"/>
    </tripinfo>
    <tripinfo id="h16072c2:3" depart="57663.00" departLane="315358254#0_1" departPos="5.10" departSpeed="0.00" departDelay="2.50" arrival="57835.00" arrivalLane="386687235_1" arrivalPos="80.84" arrivalSpeed="11.07" duration="172.00" routeLength="1611.92" waitingTime="12.00" waitingCount="1" stopTime="0.00" timeLoss="34.12" rerouteNo="1" devices="tripinfo_h16072c2:3 routing_h16072c2:3 emissions_h16072c2:3" vType="default_016" speedFactor="0.86" vaporized="">
        <emissions CO_abs="6351.458042" CO2_abs="367770.523397" HC_abs="37.419368" PMx_abs="5.826501" NOx_abs="146.021488" fuel_abs="158.090438" electricity_abs="0"/>
    </tripinfo>
    <tripinfo id="50R_frequency3.17" depart="57674.00" departLane="-18809673#6_1" departPos="12.10" departSpeed="0.00" departDelay="0.70" arrival="57835.00" arrivalLane="201956811#0_1" arrivalPos="40.40" arrivalSpeed="13.80" duration="161.00" routeLength="1954.47" waitingTime="0.00" waitingCount="0" stopTime="0.00" timeLoss="15.65" rerouteNo="1" devices="tripinfo_50R_frequency3.17 routing_50R_frequency3.17 emissions_50R_frequency3.17" vType="bus" speedFactor="1.00" vaporized="">
        <emissions CO_abs="2956.670210" CO2_abs="1887315.774912" HC_abs="632.492520" PMx_abs="318.463388" NOx_abs="14536.059604" fuel_abs="804.942681" electricity_abs="0"/>
    </tripinfo>
    <tripinfo id="h5216c1:1" depart="57664.00" departLane="224892339#0_1" departPos="5.10" departSpeed="0.00" departDelay="0.00" arrival="57837.00" arrivalLane="386687235_1" arrivalPos="80.84" arrivalSpeed="12.23" duration="173.00" routeLength="1823.78" waitingTime="9.00" waitingCount="2" stopTime="0.00" timeLoss="37.07" rerouteNo="1" devices="tripinfo_h5216c1:1 routing_h5216c1:1 emissions_h5216c1:1" vType="default_016" speedFactor="0.94" vaporized="">
        <emissions CO_abs="6640.280091" CO2_abs="440770.884988" HC_abs="40.554454" PMx_abs="7.435767" NOx_abs="176.869227" fuel_abs="189.469080" electricity_abs="0"/>