<?xml version="1.0" encoding="UTF-8"?>

<!-- generated on 2021-10-26 11:40:46 by Eclipse SUMO sumo Version 1.10.0
<configuration xmlns:xsi="http://www.w3.org/2001/XMLSchema-instance" xsi:noNamespaceSchemaLocation="http://sumo.dlr.de/xsd/sumoConfiguration.xsd">

    <input>
        <net-file value="/Users/behradkoohy/sumo-scratchpad/RESCO/environments/ingolstadt21/ingolstadt21.net.xml"/>
        <route-files value="/Users/behradkoohy/sumo-scratchpad/RESCO/environments/ingolstadt21/ingolstadt21.rou.xml"/>
    </input>

    <output>
        <tripinfo-output value="/Users/behradkoohy/sumo-scratchpad/RESCO/logs/IDQN-tr0-ingolstadt21-21-drq_norm-wait_norm/tripinfo_29.xml"/>
        <tripinfo-output.write-unfinished value="true"/>
    </output>

    <time>
        <begin value="57600"/>
        <end value="61200"/>
    </time>

    <processing>
        <time-to-teleport value="-1"/>
    </processing>

    <report>
        <no-warnings value="true"/>
        <no-step-log value="true"/>
    </report>

    <emissions>
        <device.emissions.probability value="1"/>
    </emissions>

    <traci_server>
        <remote-port value="57438"/>
    </traci_server>

    <random_number>
        <random value="true"/>
    </random_number>

</configuration>
-->

<tripinfos xmlns:xsi="http://www.w3.org/2001/XMLSchema-instance" xsi:noNamespaceSchemaLocation="http://sumo.dlr.de/xsd/tripinfo_file.xsd">
    <tripinfo id="h15454c2:3" depart="57612.00" departLane="24608844_1" departPos="5.10" departSpeed="0.00" departDelay="0.50" arrival="57661.00" arrivalLane="32978638#0_1" arrivalPos="49.29" arrivalSpeed="12.48" duration="49.00" routeLength="354.79" waitingTime="2.00" waitingCount="1" stopTime="0.00" timeLoss="12.66" rerouteNo="1" devices="tripinfo_h15454c2:3 routing_h15454c2:3 emissions_h15454c2:3" vType="default_016" speedFactor="0.95" vaporized="">
        <emissions CO_abs="2462.498571" CO2_abs="118325.839379" HC_abs="13.975991" PMx_abs="2.132291" NOx_abs="49.176994" fuel_abs="50.863648" electricity_abs="0"/>
    </tripinfo>
    <tripinfo id="carIn60260:1" depart="57606.00" departLane="315358254#0_1" departPos="5.10" departSpeed="0.00" departDelay="0.90" arrival="57674.00" arrivalLane="399835085#1_1" arrivalPos="212.23" arrivalSpeed="5.63" duration="68.00" routeLength="430.98" waitingTime="11.00" waitingCount="1" stopTime="0.00" timeLoss="24.31" rerouteNo="1" devices="tripinfo_carIn60260:1 routing_carIn60260:1 emissions_carIn60260:1" vType="default_016" speedFactor="1.05" vaporized="">
        <emissions CO_abs="3734.187239" CO2_abs="142797.179048" HC_abs="20.320826" PMx_abs="2.604551" NOx_abs="59.545109" fuel_abs="61.383524" electricity_abs="0"/>
    </tripinfo>
    <tripinfo id="carIn53971:1" depart="57640.00" departLane="272042143_1" departPos="5.10" departSpeed="0.00" departDelay="0.80" arrival="57702.00" arrivalLane="24634414#1_1" arrivalPos="162.19" arrivalSpeed="6.67" duration="62.00" routeLength="493.04" waitingTime="0.00" waitingCount="0" stopTime="0.00" timeLoss="9.03" rerouteNo="1" devices="tripinfo_carIn53971:1 routing_carIn53971:1 emissions_carIn53971:1" vType="default_016" speedFactor="0.87" vaporized="">
        <emissions CO_abs="2710.170894" CO2_abs="135221.936767" HC_abs="15.460444" PMx_abs="2.220153" NOx_abs="54.749699" fuel_abs="58.126866" electricity_abs="0"/>
    </tripinfo>
    <tripinfo id="h7800c1:5" depart="57696.00" departLane="-447569998#1_1" departPos="5.10" departSpeed="0.00" departDelay="0.00" arrival="57725.00" arrivalLane="-447569998#1_2" arrivalPos="180.76" arrivalSpeed="3.58" duration="29.00" routeLength="175.66" waitingTime="0.00" waitingCount="0" stopTime="0.00" timeLoss="7.49" rerouteNo="1" devices="tripinfo_h7800c1:5 routing_h7800c1:5 emissions_h7800c1:5" vType="default_016" speedFactor="0.99" vaporized="">
        <emissions CO_abs="1371.651703" CO2_abs="52718.275004" HC_abs="7.460317" PMx_abs="0.918600" NOx_abs="21.843068" fuel_abs="22.661792" electricity_abs="0"/>
    </tripinfo>
    <tripinfo id="h12244c1:3" depart="57612.00" departLane="315358244_1" departPos="5.10" departSpeed="0.00" departDelay="0.40" arrival="57733.00" arrivalLane="386687235_1" arrivalPos="80.84" arrivalSpeed="14.94" duration="121.00" routeLength="1186.14" waitingTime="15.00" waitingCount="3" stopTime="0.00" timeLoss="41.76" rerouteNo="1" devices="tripinfo_h12244c1:3 routing_h12244c1:3 emissions_h12244c1:3" vType="default_016" speedFactor="1.10" vaporized="">
        <emissions CO_abs="5030.445174" CO2_abs="319525.969594" HC_abs="30.277403" PMx_abs="5.416740" NOx_abs="127.621566" fuel_abs="137.351134" electricity_abs="0"/>
    </tripinfo>
    <tripinfo id="h9563c2:5" depart="57631.00" departLane="315358244_1" departPos="5.10" departSpeed="0.00" departDelay="0.70" arrival="57736.00" arrivalLane="386687235_1" arrivalPos="80.84" arrivalSpeed="13.95" duration="105.00" routeLength="1186.14" waitingTime="1.00" waitingCount="1" stopTime="0.00" timeLoss="20.32" rerouteNo="1" devices="tripinfo_h9563c2:5 routing_h9563c2:5 emissions_h9563c2:5" vType="default_016" speedFactor="1.03" vaporized="">
        <emissions CO_abs="3682.076699" CO2_abs="276471.671554" HC_abs="23.133861" PMx_abs="4.458854" NOx_abs="109.013435" fuel_abs="118.843624" electricity_abs="0"/>
    </tripinfo>
    <tripinfo id="carIn22761:1" depart="57616.00" departLane="-306240162#1_0" departPos="5.10" departSpeed="0.00" departDelay="2.10" arrival="57741.00" arrivalLane="399835085#1_1" arrivalPos="212.23" arrivalSpeed="8.62" duration="125.00" routeLength="1093.26" waitingTime="17.00" waitingCount="2" stopTime="0.00" timeLoss="53.17" rerouteNo="1" devices="tripinfo_carIn22761:1 routing_carIn22761:1 emissions_carIn22761:1" vType="default_016" speedFactor="1.08" vaporized="">
        <emissions CO_abs="6790.144393" CO2_abs="348473.651681" HC_abs="39.128090" PMx_abs="6.508117" NOx_abs="143.937451" fuel_abs="149.794685" electricity_abs="0"/>
    </tripinfo>
    <tripinfo id="h3568c1:3" depart="57656.00" departLane="266565295#5_1" departPos="5.10" departSpeed="0.00" departDelay="0.80" arrival="57744.00" arrivalLane="-24634415_1" arrivalPos="62.03" arrivalSpeed="12.16" duration="88.00" routeLength="807.40" waitingTime="0.00" waitingCount="0" stopTime="0.00" timeLoss="14.30" rerouteNo="1" devices="tripinfo_h3568c1:3 routing_h3568c1:3 emissions_h3568c1:3" vType="default_016" speedFactor="0.88" vaporized="">
        <emissions CO_abs="3305.963428" CO2_abs="191877.658646" HC_abs="19.504642" PMx_abs="3.155184" NOx_abs="77.275291" fuel_abs="82.480625" electricity_abs="0"/>
    </tripinfo>
    <tripinfo id="h3688c1:1" depart="57625.00" departLane="201201950#1_1" departPos="5.10" departSpeed="0.00" departDelay="0.00" arrival="57745.00" arrivalLane="32978638#0_1" arrivalPos="49.29" arrivalSpeed="11.14" duration="120.00" routeLength="1089.75" waitingTime="12.00" waitingCount="1" stopTime="0.00" timeLoss="29.00" rerouteNo="1" devices="tripinfo_h3688c1:1 routing_h3688c1:1 emissions_h3688c1:1" vType="default_016" speedFactor="0.88" vaporized="">
        <emissions CO_abs="4533.929958" CO2_abs="260208.177805" HC_abs="26.665435" PMx_abs="4.161039" NOx_abs="103.472642" fuel_abs="111.853497" electricity_abs="0"/>
    </tripinfo>
    <tripinfo id="h4538c1:1" depart="57701.00" departLane="-10427692#1_1" departPos="5.10" departSpeed="0.00" departDelay="0.00" arrival="57747.00" arrivalLane="-128361102#1_1" arrivalPos="274.68" arrivalSpeed="12.59" duration="46.00" routeLength="440.74" waitingTime="3.00" waitingCount="1" stopTime="0.00" timeLoss="13.62" rerouteNo="1" devices="tripinfo_h4538c1:1 routing_h4538c1:1 emissions_h4538c1:1" vType="default_016" speedFactor="0.99" vaporized="">
        <emissions CO_abs="1844.808248" CO2_abs="119735.495966" HC_abs="11.182050" PMx_abs="2.005095" NOx_abs="48.009807" fuel_abs="51.469361" electricity_abs="0"/>
    </tripinfo>
    <tripinfo id="h317c2:1" depart="57707.00" departLane="-32978638#0_1" departPos="5.10" departSpeed="0.00" departDelay="0.10" arrival="57755.00" arrivalLane="-266565295#5_1" arrivalPos="172.76" arrivalSpeed="14.02" duration="48.00" routeLength="370.53" waitingTime="10.00" waitingCount="1" stopTime="0.00" timeLoss="21.19" rerouteNo="1" devices="tripinfo_h317c2:1 routing_h317c2:1 emissions_h317c2:1" vType="default_016" speedFactor="1.05" vaporized="">
        <emissions CO_abs="3069.810257" CO2_abs="134481.839848" HC_abs="17.149981" PMx_abs="2.587296" NOx_abs="56.419580" fuel_abs="57.808517" electricity_abs="0"/>
    </tripinfo>
    <tripinfo id="carIn80064:1" depart="57603.00" departLane="128361109#1_1" departPos="5.10" departSpeed="0.00" departDelay="0.40" arrival="57757.00" arrivalLane="-315358254#1_1" arrivalPos="137.16" arrivalSpeed="13.71" duration="154.00" routeLength="1587.97" waitingTime="32.00" waitingCount="2" stopTime="0.00" timeLoss="67.56" rerouteNo="1" devices="tripinfo_carIn80064:1 routing_carIn80064:1 emissions_carIn80064:1" vType="default_016" speedFactor="1.03" vaporized="">
        <emissions CO_abs="10930.754723" CO2_abs="526993.711507" HC_abs="62.381702" PMx_abs="10.627072" NOx_abs="220.782721" fuel_abs="226.532794" electricity_abs="0"/>
    </tripinfo>
    <tripinfo id="S5R_frequency1.2" depart="57612.00" departLane="315358250#0_1" departPos="12.10" departSpeed="0.00" departDelay="0.40" arrival="57757.00" arrivalLane="386687235_1" arrivalPos="80.84" arrivalSpeed="13.34" duration="145.00" routeLength="1115.62" waitingTime="25.00" waitingCount="3" stopTime="0.00" timeLoss="63.75" rerouteNo="1" devices="tripinfo_S5R_frequency1.2 routing_S5R_frequency1.2 emissions_S5R_frequency1.2" vType="bus" speedFactor="1.00" vaporized="">
        <emissions CO_abs="2849.350921" CO2_abs="1601529.013001" HC_abs="605.322221" PMx_abs="300.884533" NOx_abs="12932.884303" fuel_abs="682.965962" electricity_abs="0"/>
    </tripinfo>
    <tripinfo id="carIn121703:1" depart="57647.00" departLane="386687232#0_1" departPos="5.10" departSpeed="0.00" departDelay="0.30" arrival="57759.00" arrivalLane="-315358244_1" arrivalPos="33.95" arrivalSpeed="12.34" duration="112.00" routeLength="1157.39" waitingTime="5.00" waitingCount="1" stopTime="0.00" timeLoss="21.07" rerouteNo="1" devices="tripinfo_carIn121703:1 routing_carIn121703:1 emissions_carIn121703:1" vType="default_016" speedFactor="0.93" vaporized="">
        <emissions CO_abs="3709.153570" CO2_abs="245030.449949" HC_abs="22.593403" PMx_abs="3.983541" NOx_abs="97.526538" fuel_abs="105.328631" electricity_abs="0"/>
    </tripinfo>
    <tripinfo id="h3326c1:2" depart="57656.00" departLane="22716069#0_1" departPos="5.10" departSpeed="0.00" departDelay="0.00" arrival="57761.00" arrivalLane="24634517#13_1" arrivalPos="111.62" arrivalSpeed="14.95" duration="105.00" routeLength="1312.81" waitingTime="0.00" waitingCount="0" stopTime="0.00" timeLoss="16.25" rerouteNo="1" devices="tripinfo_h3326c1:2 routing_h3326c1:2 emissions_h3326c1:2" vType="default_016" speedFactor="1.09" vaporized="">
        <emissions CO_abs="4294.981491" CO2_abs="338482.338042" HC_abs="27.383541" PMx_abs="5.838174" NOx_abs="135.804486" fuel_abs="145.498660" electricity_abs="0"/>
    </tripinfo>
    <tripinfo id="h7181c1:1" depart="57660.00" departLane="315358254#0_1" departPos="5.10" departSpeed="0.00" departDelay="0.10" arrival="57762.00" arrivalLane="306240162#0_0" arrivalPos="220.43" arrivalSpeed="14.73" duration="102.00" routeLength="932.35" waitingTime="28.00" waitingCount="2" stopTime="0.00" timeLoss="47.45" rerouteNo="1" devices="tripinfo_h7181c1:1 routing_h7181c1:1 emissions_h7181c1:1" vType="default_016" speedFactor="0.95" vaporized="">
        <emissions CO_abs="6835.344729" CO2_abs="310540.337617" HC_abs="38.487822" PMx_abs="6.215209" NOx_abs="130.197791" fuel_abs="133.488803" electricity_abs="0"/>
    </tripinfo>
    <tripinfo id="carIn30817:1" depart="57681.00" departLane="315358244_1" departPos="5.10" departSpeed="0.00" departDelay="0.20" arrival="57767.00" arrivalLane="447569997#1_1" arrivalPos="180.93" arrivalSpeed="9.31" duration="86.00" routeLength="718.04" waitingTime="21.00" waitingCount="1" stopTime="0.00" timeLoss="32.06" rerouteNo="1" devices="tripinfo_carIn30817:1 routing_carIn30817:1 emissions_carIn30817:1" vType="default_016" speedFactor="1.16" vaporized="">
        <emissions CO_abs="5495.555156" CO2_abs="232894.887267" HC_abs="30.430013" PMx_abs="4.241214" NOx_abs="95.415130" fuel_abs="100.113051" electricity_abs="0"/>
    </tripinfo>
    <tripinfo id="h3154c1:1" depart="57658.00" departLane="24634507_1" departPos="5.10" departSpeed="0.00" departDelay="0.00" arrival="57776.00" arrivalLane="-266565295#5_1" arrivalPos="172.76" arrivalSpeed="15.93" duration="118.00" routeLength="1206.22" waitingTime="21.00" waitingCount="1" stopTime="0.00" timeLoss="42.22" rerouteNo="1" devices="tripinfo_h3154c1:1 routing_h3154c1:1 emissions_h3154c1:1" vType="default_016" speedFactor="1.18" vaporized="">
        <emissions CO_abs="7571.494291" CO2_abs="377291.277179" HC_abs="43.349048" PMx_abs="7.208647" NOx_abs="156.171720" fuel_abs="162.182218" electricity_abs="0"/>
    </tripinfo>
    <tripinfo id="h330c1:1" depart="57736.00" departLane="-32978638#0_1" departPos="5.10" departSpeed="0.00" departDelay="0.20" arrival="57783.00" arrivalLane="-266565295#5_1" arrivalPos="172.76" arrivalSpeed="14.75" duration="47.00" routeLength="370.53" waitingTime="12.00" waitingCount="1" stopTime="0.00" timeLoss="23.25" rerouteNo="1" devices="tripinfo_h330c1:1 routing_h330c1:1 emissions_h330c1:1" vType="default_016" speedFactor="1.15" vaporized="">
        <emissions CO_abs="3409.637693" CO2_abs="153484.985602" HC_abs="19.180602" PMx_abs="3.113590" NOx_abs="65.352838" fuel_abs="65.976913" electricity_abs="0"/>
    </tripinfo>
    <tripinfo id="carIn50326:1" depart="57651.00" departLane="128361102#0_1" departPos="5.10" departSpeed="0.00" departDelay="0.30" arrival="57790.00" arrivalLane="18809673#0_1" arrivalPos="473.56" arrivalSpeed="15.50" duration="139.00" routeLength="1591.07" waitingTime="1.00" waitingCount="1" stopTime="0.00" timeLoss="24.76" rerouteNo="1" devices="tripinfo_carIn50326:1 routing_carIn50326:1 emissions_carIn50326:1" vType="default_016" speedFactor="1.14" vaporized="">
        <emissions CO_abs="5254.091302" CO2_abs="364640.610491" HC_abs="32.328265" PMx_abs="6.208197" NOx_abs="146.169974" fuel_abs="156.743572" electricity_abs="0"/>
    </tripinfo>
    <tripinfo id="carIn28951:1" depart="57606.00" departLane="10425609#0_1" departPos="5.10" departSpeed="0.00" departDelay="0.20" arrival="57795.00" arrivalLane="-128361102#1_1" arrivalPos="274.68" arrivalSpeed="12.53" duration="189.00" routeLength="2113.04" waitingTime="3.00" waitingCount="1" stopTime="0.00" timeLoss="30.63" rerouteNo="1" devices="tripinfo_carIn28951:1 routing_carIn28951:1 emissions_carIn28951:1" vType="default_016" speedFactor="0.98" vaporized="">
        <emissions CO_abs="5744.344035" CO2_abs="437553.013499" HC_abs="36.381848" PMx_abs="7.144103" NOx_abs="173.896074" fuel_abs="188.085504" electricity_abs="0"/>
    </tripinfo>
    <tripinfo id="carIn12365:1" depart="57713.00" departLane="315358244_1" departPos="5.10" departSpeed="0.00" departDelay="0.50" arrival="57799.00" arrivalLane="447569997#1_1" arrivalPos="180.93" arrivalSpeed="8.37" duration="86.00" routeLength="718.04" waitingTime="9.00" waitingCount="2" stopTime="0.00" timeLoss="29.15" rerouteNo="1" devices="tripinfo_carIn12365:1 routing_carIn12365:1 emissions_carIn12365:1" vType="default_016" speedFactor="1.09" vaporized="">
        <emissions CO_abs="3815.879786" CO2_abs="198694.911238" HC_abs="21.932222" PMx_abs="3.458116" NOx_abs="80.803879" fuel_abs="85.411168" electricity_abs="0"/>
    </tripinfo>
    <tripinfo id="carIn27009:1" depart="57673.00" departLane="-447569998#1_1" departPos="5.10" departSpeed="0.00" departDelay="0.50" arrival="57802.00" arrivalLane="-26677539_1" arrivalPos="152.75" arrivalSpeed="6.67" duration="129.00" routeLength="699.63" waitingTime="18.00" waitingCount="1" stopTime="0.00" timeLoss="34.96" rerouteNo="1" devices="tripinfo_carIn27009:1 routing_carIn27009:1 emissions_carIn27009:1" vType="default_015" speedFactor="0.89" vaporized="">
        <emissions CO_abs="6681.928154" CO2_abs="223887.814029" HC_abs="35.571829" PMx_abs="3.967943" NOx_abs="93.119052" fuel_abs="96.242390" electricity_abs="0"/>
    </tripinfo>
    <tripinfo id="carIn118591:1" depart="57689.00" departLane="315358244_1" departPos="5.10" departSpeed="0.00" departDelay="0.20" arrival="57802.00" arrivalLane="386687235_1" arrivalPos="80.84" arrivalSpeed="13.23" duration="113.00" routeLength="1186.14" waitingTime="14.00" waitingCount="1" stopTime="0.00" timeLoss="27.43" rerouteNo="1" devices="tripinfo_carIn118591:1 routing_carIn118591:1 emissions_carIn118591:1" vType="default_016" speedFactor="1.01" vaporized="">
        <emissions CO_abs="4807.836025" CO2_abs="267771.654049" HC_abs="28.093665" PMx_abs="4.537831" NOx_abs="107.246593" fuel_abs="115.104558" electricity_abs="0"/>
    </tripinfo>
    <tripinfo id="carIn107282:1" depart="57749.00" departLane="-447569998#1_1" departPos="5.10" departSpeed="0.00" departDelay="0.00" arrival="57805.00" arrivalLane="315358242#0_1" arrivalPos="165.37" arrivalSpeed="13.96" duration="56.00" routeLength="448.50" waitingTime="8.00" waitingCount="1" stopTime="0.00" timeLoss="16.17" rerouteNo="1" devices="tripinfo_carIn107282:1 routing_carIn107282:1 emissions_carIn107282:1" vType="default_016" speedFactor="1.05" vaporized="">
        <emissions CO_abs="3296.867400" CO2_abs="151492.605106" HC_abs="18.546215" PMx_abs="2.775643" NOx_abs="62.774695" fuel_abs="65.120844" electricity_abs="0"/>
    </tripinfo>
    <tripinfo id="h645c1:1" depart="57622.00" departLane="266565295#5_1" departPos="5.10" departSpeed="0.00" departDelay="0.40" arrival="57813.00" arrivalLane="-315358244_1" arrivalPos="33.95" arrivalSpeed="14.76" duration="191.00" routeLength="1910.83" waitingTime="36.00" waitingCount="4" stopTime="0.00" timeLoss="71.01" rerouteNo="1" devices="tripinfo_h645c1:1 routing_h645c1:1 emissions_h645c1:1" vType="default_016" speedFactor="1.15" vaporized="">
        <emissions CO_abs="8746.219965" CO2_abs="492741.016906" HC_abs="51.107522" PMx_abs="8.943344" NOx_abs="200.297440" fuel_abs="211.809136" electricity_abs="0"/>
    </tripinfo>
    <tripinfo id="h19804c1:3" depart="57617.00" departLane="124812856#0_1" departPos="5.10" departSpeed="0.00" departDelay="1.50" arrival="57814.00" arrivalLane="-128361102#1_1" arrivalPos="274.68" arrivalSpeed="13.07" duration="197.00" routeLength="2250.49" waitingTime="6.00" waitingCount="1" stopTime="0.00" timeLoss="35.28" rerouteNo="1" devices="tripinfo_h19804c1:3 routing_h19804c1:3 emissions_h19804c1:3" vType="default_016" speedFactor="1.01" vaporized="">
        <emissions CO_abs="5986.986218" CO2_abs="468659.411753" HC_abs="38.232785" PMx_abs="7.865323" NOx_abs="187.223114" fuel_abs="201.456396" electricity_abs="0"/>
    </tripinfo>
    <tripinfo id="carIn129809:1" depart="57729.00" departLane="-447569998#1_1" departPos="5.10" departSpeed="0.00" departDelay="1.00" arrival="57814.00" arrivalLane="-315358244_2" arrivalPos="33.95" arrivalSpeed="11.50" duration="85.00" routeLength="706.49" waitingTime="7.00" waitingCount="1" stopTime="0.00" timeLoss="19.39" rerouteNo="1" devices="tripinfo_carIn129809:1 routing_carIn129809:1 emissions_carIn129809:1" vType="default_015" speedFactor="0.92" vaporized="">
        <emissions CO_abs="3706.918067" CO2_abs="191897.587072" HC_abs="21.329050" PMx_abs="3.205163" NOx_abs="77.546227" fuel_abs="82.489464" electricity_abs="0"/>
    </tripinfo>
    <tripinfo id="h16072c2:3" depart="57663.00" departLane="315358254#0_1" departPos="5.10" departSpeed="0.00" departDelay="2.50" arrival="57824.00" arrivalLane="386687235_1" arrivalPos="80.84" arrivalSpeed="12.27" duration="161.00" routeLength="1611.92" waitingTime="17.00" waitingCount="2" stopTime="0.00" timeLoss="37.64" rerouteNo="1" devices="tripinfo_h16072c2:3 routing_h16072c2:3 emissions_h16072c2:3" vType="default_016" speedFactor="0.95" vaporized="">
        <emissions CO_abs="5512.735936" CO2_abs="354756.439977" HC_abs="33.334515" PMx_abs="5.681062" NOx_abs="140.179343" fuel_abs="152.495674" electricity_abs="0"/>
    </tripinfo>
    <tripinfo id="carIn81860:1" depart="57712.00" departLane="128361102#0_1" departPos="5.10" departSpeed="0.00" departDelay="0.60" arrival="57828.00" arrivalLane="-24634517#17_1" arrivalPos="6.43" arrivalSpeed="6.76" duration="116.00" routeLength="1229.64" waitingTime="5.00" waitingCount="1" stopTime="0.00" timeLoss="23.63" rerouteNo="1" devices="tripinfo_carIn81860:1 routing_carIn81860:1 emissions_carIn81860:1" vType="default_016" speedFactor="0.97" vaporized="">
        <emissions CO_abs="3854.430269" CO2_abs="271096.816289" HC_abs="23.872035" PMx_abs="4.451393" NOx_abs="108.092266" fuel_abs="116.533230" electricity_abs="0"/>
    </tripinfo>
    <tripinfo id="carIn82278:1" depart="57702.00" departLane="-306240162#1_0" departPos="5.10" departSpeed="0.00" departDelay="0.70" arrival="57833.00" arrivalLane="399835085#1_1" arrivalPos="212.23" arrivalSpeed="8.52" duration="131.00" routeLength="1093.26" waitingTime="27.00" waitingCount="3" stopTime="0.00" timeLoss="56.55" rerouteNo="1" devices="tripinfo_carIn82278:1 routing_carIn82278:1 emissions_carIn82278:1" vType="default_016" speedFactor="1.05" vaporized="">
        <emissions CO_abs="8622.433007" CO2_abs="402763.072689" HC_abs="48.834985" PMx_abs="8.048446" NOx_abs="169.904028" fuel_abs="173.131349" electricity_abs="0"/>
    </tripinfo>
    <tripinfo id="carIn12858:1" depart="57661.00" departLane="128361109#1_1" departPos="5.10" departSpeed="0.00" departDelay="0.90" arrival="57835.00" arrivalLane="399835085#1_1" arrivalPos="212.23" arrivalSpeed="7.35" duration="174.00" routeLength="1738.12" waitingTime="26.00" waitingCount="3" stopTime="0.00" timeLoss="63.27" rerouteNo="1" devices="tripinfo_carIn12858:1 routing_carIn12858:1 emissions_carIn12858:1" vType="default_016" speedFactor="1.04" vaporized="">
        <emissions CO_abs="9822.853814" CO2_abs="527664.834599" HC_abs="57.302848" PMx_abs="10.384564" NOx_abs="220.214000" fuel_abs="226.820625" electricity_abs="0"/>
    </tripinfo>
    <tripinfo id="h6541c1:3" depart="57727.00" departLane="201950247#3_1" departPos="5.10" departSpeed="0.00" departDelay="0.00" arrival="57837.00" arrivalLane="32978638#0_1" arrivalPos="49.29" arrivalSpeed="15.04" duration="110.00" routeLength="1176.17" waitingTime="0.00" waitingCount="0" stopTime="0.00" timeLoss="17.40" rerouteNo="1" devices="tripinfo_h6541c1:3 routing_h6541c1:3 emissions_h6541c1:3" vType="default_016" speedFactor="1.11" vaporized="">
        <emissions CO_abs="4536.106102" CO2_abs="302656.945710" HC_abs="27.704866" PMx_abs="5.288931" NOx_abs="122.871763" fuel_abs="130.099301" electricity_abs="0"/>
    </tripinfo>
    <tripinfo id="h11737c1:1" depart="57665.00" departLane="272042143_1" departPos="5.10" departSpeed="0.00" departDelay="1.50" arrival="57838.00" arrivalLane="-315358254#1_1" arrivalPos="137.16" arrivalSpeed="12.56" duration="173.00" routeLength="1596.88" waitingTime="28.00" waitingCount="2" stopTime="0.00" timeLoss="48.89" rerouteNo="1" devices="tripinfo_h11737c1:1 routing_h11737c1:1 emissions_h11737c1:1" vType="default_016" speedFactor="0.94" vaporized="">
        <emissions CO_abs="8386.076765" CO2_abs="412367.864954" HC_abs="47.767483" PMx_abs="6.972404" NOx_abs="165.738705" fuel_abs="177.261620" electricity_abs="0"/>
    </tripinfo>
    <tripinfo id="carIn126288:1" depart="57674.00" departLane="272042143_1" departPos="5.10" departSpeed="0.00" departDelay="0.00" arrival="57840.00" arrivalLane="-315358254#1_1" arrivalPos="137.16" arrivalSpeed="12.41" duration="166.00" routeLength="1596.88" waitingTime="20.00" waitingCount="1" stopTime="0.00" timeLoss="38.23" rerouteNo="1" devices="tripinfo_carIn126288:1 routing_carIn126288:1 emissions_carIn126288:1" vType="default_016" speedFactor="0.91" vaporized="">
        <emissions CO_abs="6449.133510" CO2_abs="344532.718171" HC_abs="37.368445" PMx_abs="5.701467" NOx_abs="137.728915" fuel_abs="148.101519" electricity_abs="0"/>
    </tripinfo>
    <tripinfo id="h5979c1:5" depart="57669.00" departLane="399835085#1_1" departPos="5.10" departSpeed="0.00" departDelay="0.00" arrival="57842.00" arrivalLane="-315358254#1_1" arrivalPos="137.16" arrivalSpeed="13.79" duration="173.00" routeLength="659.33" waitingTime="86.00" waitingCount="1" stopTime="0.00" timeLoss="99.91" rerouteNo="1" devices="tripinfo_h5979c1:5 routing_h5979c1:5 emissions_h5979c1:5" vType="default_016" speedFactor="1.00" vaporized="">
        <emissions CO_abs="17118.481867" CO2_abs="399376.169881" HC_abs="87.252241" PMx_abs="8.438859" NOx_abs="173.523875" fuel_abs="171.681876" electricity_abs="0"/>
    </tripinfo>
    <tripinfo id="carIn82220:1" depart="57619.00" departLane="-306240162#1_0" departPos="5.10" departSpeed="0.00" departDelay="3.50" arrival="57851.00" arrivalLane="386687235_2" arrivalPos="80.84" arrivalSpeed="15.71" duration="232.00" routeLength="2257.41" waitingTime="19.00" waitingCount="4" stopTime="0.00" timeLoss="102.33" rerouteNo="1" devices="tripinfo_carIn82220:1 routing_carIn82220:1 emissions_carIn82220:1" vType="default_016" speedFactor="1.15" vaporized="">
        <emissions CO_abs="10606.930783" CO2_abs="605780.980809" HC_abs="62.490317" PMx_abs="11.152132" NOx_abs="249.735829" fuel_abs="260.399816" electricity_abs="0"/>
    </tripinfo>
    <tripinfo id="randUni10474:1" depart="57605.00" departLane="124812856#0_1" departPos="5.10" departSpeed="0.00" departDelay="0.20" arrival="57854.00" arrivalLane="306240162#0_0" arrivalPos="220.43" arrivalSpeed="16.45" duration="249.00" routeLength="3049.32" waitingTime="16.00" waitingCount="1" stopTime="0.00" timeLoss="52.21" rerouteNo="1" devices="tripinfo_randUni10474:1 routing_randUni10474:1 emissions_randUni10474:1" vType="random_016" speedFactor="1.00" vaporized="">
        <emissions CO_abs="11477.422390" CO2_abs="765565.683744" HC_abs="70.340295" PMx_abs="13.980455" NOx_abs="310.044961" fuel_abs="329.083586" electricity_abs="0"/>
    </tripinfo>
    <tripinfo id="carIn85747:1" depart="57673.00" departLane="128361109#1_1" departPos="5.10" departSpeed="0.00" departDelay="0.70" arrival="57854.00" arrivalLane="386687235_1" arrivalPos="80.84" arrivalSpeed="12.71" duration="181.00" routeLength="2088.57" waitingTime="5.00" waitingCount="1" stopTime="0.00" timeLoss="23.17" rerouteNo="1" devices="tripinfo_carIn85747:1 routing_carIn85747:1 emissions_carIn85747:1" vType="default_016" speedFactor="0.95" vaporized="">
        <emissions CO_abs="4850.977166" CO2_abs="413523.550051" HC_abs="31.706137" PMx_abs="6.373855" NOx_abs="161.308432" fuel_abs="177.756400" electricity_abs="0"/>
    </tripinfo>
    <tripinfo id="h5170c2:1" depart="57631.00" departLane="201201953#4_1" departPos="5.10" departSpeed="0.00" departDelay="0.00" arrival="57855.00" arrivalLane="-266565295#5_1" arrivalPos="172.76" arrivalSpeed="16.32" duration="224.00" routeLength="3097.92" waitingTime="1.00" waitingCount="1" stopTime="0.00" timeLoss="31.56" rerouteNo="1" devices="tripinfo_h5170c2:1 routing_h5170c2:1 emissions_h5170c2:1" vType="default_016" speedFactor="1.19" vaporized="">
        <emissions CO_abs="7340.897943" CO2_abs="646700.566740" HC_abs="48.304332" PMx_abs="11.043115" NOx_abs="255.921672" fuel_abs="277.987813" electricity_abs="0"/>
    </tripinfo>
    <tripinfo id="carIn107084:1" depart="57601.00" departLane="124812856#0_1" departPos="5.10" departSpeed="0.00" departDelay="0.70" arrival="57858.00" arrivalLane="-128361102#1_1" arrivalPos="274.68" arrivalSpeed="12.06" duration="257.00" routeLength="2250.49" waitingTime="44.00" waitingCount="3" stopTime="0.00" timeLoss="82.48" rerouteNo="1" devices="tripinfo_carIn107084:1 routing_carIn107084:1 emissions_carIn107084:1" vType="default_016" speedFactor="0.94" vaporized="">
        <emissions CO_abs="12571.041466" CO2_abs="573781.032056" HC_abs="70.634615" PMx_abs="10.172811" NOx_abs="234.368122" fuel_abs="246.647122" electricity_abs="0"/>
    </tripinfo>
    <tripinfo id="carIn86816:1" depart="57617.00" departLane="128361102#0_1" departPos="5.10" departSpeed="0.00" departDelay="0.80" arrival="57862.00" arrivalLane="201956811#0_1" arrivalPos="40.40" arrivalSpeed="15.45" duration="245.00" routeLength="2067.33" waitingTime="85.00" waitingCount="3" stopTime="0.00" timeLoss="120.32" rerouteNo="1" devices="tripinfo_carIn86816:1 routing_carIn86816:1 emissions_carIn86816:1" vType="default_016" speedFactor="1.21" vaporized="">
        <emissions CO_abs="18572.412503" CO2_abs="699854.745959" HC_abs="100.984446" PMx_abs="13.956102" NOx_abs="293.595289" fuel_abs="300.842135" electricity_abs="0"/>
    </tripinfo>
    <tripinfo id="h17600c1:1" depart="57662.00" departLane="272042143_1" departPos="5.10" departSpeed="0.00" departDelay="0.30" arrival="57862.00" arrivalLane="201238729#3_1" arrivalPos="431.02" arrivalSpeed="12.87" duration="200.00" routeLength="2100.26" waitingTime="24.00" waitingCount="2" stopTime="0.00" timeLoss="48.87" rerouteNo="1" devices="tripinfo_h17600c1:1 routing_h17600c1:1 emissions_h17600c1:1" vType="default_016" speedFactor="1.01" vaporized="">
        <emissions CO_abs="7531.089093" CO2_abs="452100.384293" HC_abs="44.824720" PMx_abs="7.463747" NOx_abs="179.328336" fuel_abs="194.340131" electricity_abs="0"/>
    </tripinfo>
    <tripinfo id="carIn12775:1" depart="57676.00" departLane="10425609#0_1" departPos="5.10" departSpeed="0.00" departDelay="0.60" arrival="57862.00" arrivalLane="18809673#0_1" arrivalPos="473.56" arrivalSpeed="12.60" duration="186.00" routeLength="1959.45" waitingTime="0.00" waitingCount="0" stopTime="0.00" timeLoss="37.31" rerouteNo="1" devices="tripinfo_carIn12775:1 routing_carIn12775:1 emissions_carIn12775:1" vType="default_016" speedFactor="0.98" vaporized="">
        <emissions CO_abs="6226.455405" CO2_abs="420483.068765" HC_abs="38.101114" PMx_abs="6.712798" NOx_abs="166.315810" fuel_abs="180.748671" electricity_abs="0"/>
    </tripinfo>