<?xml version="1.0" encoding="UTF-8"?>

<!-- generated on 2021-10-26 12:58:54 by Eclipse SUMO sumo Version 1.10.0
<configuration xmlns:xsi="http://www.w3.org/2001/XMLSchema-instance" xsi:noNamespaceSchemaLocation="http://sumo.dlr.de/xsd/sumoConfiguration.xsd">

    <input>
        <net-file value="/Users/behradkoohy/sumo-scratchpad/RESCO/environments/ingolstadt21/ingolstadt21.net.xml"/>
        <route-files value="/Users/behradkoohy/sumo-scratchpad/RESCO/environments/ingolstadt21/ingolstadt21.rou.xml"/>
    </input>

    <output>
        <tripinfo-output value="/Users/behradkoohy/sumo-scratchpad/RESCO/logs/IDQN-tr0-ingolstadt21-21-drq_norm-wait_norm/tripinfo_76.xml"/>
        <tripinfo-output.write-unfinished value="true"/>
    </output>

    <time>
        <begin value="57600"/>
        <end value="61200"/>
    </time>

    <processing>
        <time-to-teleport value="-1"/>
    </processing>

    <report>
        <no-warnings value="true"/>
        <no-step-log value="true"/>
    </report>

    <emissions>
        <device.emissions.probability value="1"/>
    </emissions>

    <traci_server>
        <remote-port value="58647"/>
    </traci_server>

    <random_number>
        <random value="true"/>
    </random_number>

</configuration>
-->

<tripinfos xmlns:xsi="http://www.w3.org/2001/XMLSchema-instance" xsi:noNamespaceSchemaLocation="http://sumo.dlr.de/xsd/tripinfo_file.xsd">
    <tripinfo id="h15454c2:3" depart="57612.00" departLane="24608844_1" departPos="5.10" departSpeed="0.00" departDelay="0.50" arrival="57651.00" arrivalLane="32978638#0_1" arrivalPos="49.29" arrivalSpeed="13.53" duration="39.00" routeLength="354.79" waitingTime="0.00" waitingCount="0" stopTime="0.00" timeLoss="6.48" rerouteNo="1" devices="tripinfo_h15454c2:3 routing_h15454c2:3 emissions_h15454c2:3" vType="default_016" speedFactor="1.06" vaporized="">
        <emissions CO_abs="2097.995994" CO2_abs="116394.759444" HC_abs="12.291933" PMx_abs="2.138061" NOx_abs="48.434878" fuel_abs="50.033234" electricity_abs="0"/>
    </tripinfo>
    <tripinfo id="carIn60260:1" depart="57606.00" departLane="315358254#0_1" departPos="5.10" departSpeed="0.00" departDelay="0.90" arrival="57675.00" arrivalLane="399835085#1_1" arrivalPos="212.23" arrivalSpeed="7.09" duration="69.00" routeLength="430.98" waitingTime="10.00" waitingCount="1" stopTime="0.00" timeLoss="20.46" rerouteNo="1" devices="tripinfo_carIn60260:1 routing_carIn60260:1 emissions_carIn60260:1" vType="default_016" speedFactor="0.95" vaporized="">
        <emissions CO_abs="3392.730002" CO2_abs="133416.184156" HC_abs="18.527495" PMx_abs="2.312948" NOx_abs="54.873012" fuel_abs="57.351062" electricity_abs="0"/>
    </tripinfo>
    <tripinfo id="carIn53971:1" depart="57640.00" departLane="272042143_1" departPos="5.10" departSpeed="0.00" departDelay="0.80" arrival="57695.00" arrivalLane="24634414#1_1" arrivalPos="162.19" arrivalSpeed="7.29" duration="55.00" routeLength="493.04" waitingTime="0.00" waitingCount="0" stopTime="0.00" timeLoss="8.94" rerouteNo="1" devices="tripinfo_carIn53971:1 routing_carIn53971:1 emissions_carIn53971:1" vType="default_016" speedFactor="1.00" vaporized="">
        <emissions CO_abs="2494.199970" CO2_abs="139153.119693" HC_abs="14.593720" PMx_abs="2.353586" NOx_abs="56.541964" fuel_abs="59.816403" electricity_abs="0"/>
    </tripinfo>
    <tripinfo id="h3688c1:1" depart="57625.00" departLane="201201950#1_1" departPos="5.10" departSpeed="0.00" departDelay="0.00" arrival="57718.00" arrivalLane="32978638#0_1" arrivalPos="49.29" arrivalSpeed="15.55" duration="93.00" routeLength="1089.75" waitingTime="7.00" waitingCount="1" stopTime="0.00" timeLoss="25.43" rerouteNo="1" devices="tripinfo_h3688c1:1 routing_h3688c1:1 emissions_h3688c1:1" vType="default_016" speedFactor="1.18" vaporized="">
        <emissions CO_abs="4671.295600" CO2_abs="301091.936963" HC_abs="28.431660" PMx_abs="5.662752" NOx_abs="124.000674" fuel_abs="129.426192" electricity_abs="0"/>
    </tripinfo>
    <tripinfo id="h7800c1:5" depart="57696.00" departLane="-447569998#1_1" departPos="5.10" departSpeed="0.00" departDelay="0.00" arrival="57721.00" arrivalLane="-447569998#1_1" arrivalPos="180.76" arrivalSpeed="7.86" duration="25.00" routeLength="175.66" waitingTime="0.00" waitingCount="0" stopTime="0.00" timeLoss="3.75" rerouteNo="1" devices="tripinfo_h7800c1:5 routing_h7800c1:5 emissions_h7800c1:5" vType="default_016" speedFactor="1.02" vaporized="">
        <emissions CO_abs="1197.221769" CO2_abs="51167.568868" HC_abs="6.631298" PMx_abs="0.872976" NOx_abs="21.049991" fuel_abs="21.995113" electricity_abs="0"/>
    </tripinfo>
    <tripinfo id="carIn80064:1" depart="57603.00" departLane="128361109#1_1" departPos="5.10" departSpeed="0.00" departDelay="0.40" arrival="57725.00" arrivalLane="-315358254#1_1" arrivalPos="137.16" arrivalSpeed="11.71" duration="122.00" routeLength="1587.97" waitingTime="2.00" waitingCount="1" stopTime="0.00" timeLoss="26.02" rerouteNo="1" devices="tripinfo_carIn80064:1 routing_carIn80064:1 emissions_carIn80064:1" vType="default_016" speedFactor="0.93" vaporized="">
        <emissions CO_abs="5984.986023" CO2_abs="437807.098667" HC_abs="37.549029" PMx_abs="8.062921" NOx_abs="177.768556" fuel_abs="188.193727" electricity_abs="0"/>
    </tripinfo>
    <tripinfo id="h7181c1:1" depart="57660.00" departLane="315358254#0_1" departPos="5.10" departSpeed="0.00" departDelay="0.10" arrival="57731.00" arrivalLane="306240162#0_0" arrivalPos="220.43" arrivalSpeed="16.37" duration="71.00" routeLength="932.35" waitingTime="8.00" waitingCount="1" stopTime="0.00" timeLoss="19.97" rerouteNo="1" devices="tripinfo_h7181c1:1 routing_h7181c1:1 emissions_h7181c1:1" vType="default_016" speedFactor="1.02" vaporized="">
        <emissions CO_abs="4058.911957" CO2_abs="273433.652777" HC_abs="25.028722" PMx_abs="5.347398" NOx_abs="112.146664" fuel_abs="117.536822" electricity_abs="0"/>
    </tripinfo>
    <tripinfo id="carIn22761:1" depart="57616.00" departLane="-306240162#1_0" departPos="5.10" departSpeed="0.00" departDelay="2.10" arrival="57740.00" arrivalLane="399835085#1_1" arrivalPos="212.23" arrivalSpeed="6.21" duration="124.00" routeLength="1093.26" waitingTime="14.00" waitingCount="1" stopTime="0.00" timeLoss="35.05" rerouteNo="1" devices="tripinfo_carIn22761:1 routing_carIn22761:1 emissions_carIn22761:1" vType="default_016" speedFactor="0.87" vaporized="">
        <emissions CO_abs="6312.044649" CO2_abs="317188.342051" HC_abs="36.112969" PMx_abs="5.792676" NOx_abs="130.248481" fuel_abs="136.346690" electricity_abs="0"/>
    </tripinfo>
    <tripinfo id="h5979c1:5" depart="57669.00" departLane="399835085#1_1" departPos="5.10" departSpeed="0.00" departDelay="0.00" arrival="57752.00" arrivalLane="-315358254#1_1" arrivalPos="137.16" arrivalSpeed="13.66" duration="83.00" routeLength="659.33" waitingTime="0.00" waitingCount="0" stopTime="0.00" timeLoss="10.46" rerouteNo="1" devices="tripinfo_h5979c1:5 routing_h5979c1:5 emissions_h5979c1:5" vType="default_016" speedFactor="1.01" vaporized="">
        <emissions CO_abs="3410.257649" CO2_abs="175506.795390" HC_abs="19.586984" PMx_abs="2.946209" NOx_abs="71.531410" fuel_abs="75.443627" electricity_abs="0"/>
    </tripinfo>
    <tripinfo id="h317c2:1" depart="57707.00" departLane="-32978638#0_1" departPos="5.10" departSpeed="0.00" departDelay="0.10" arrival="57754.00" arrivalLane="-266565295#5_1" arrivalPos="172.76" arrivalSpeed="13.14" duration="47.00" routeLength="370.53" waitingTime="10.00" waitingCount="1" stopTime="0.00" timeLoss="20.19" rerouteNo="1" devices="tripinfo_h317c2:1 routing_h317c2:1 emissions_h317c2:1" vType="default_016" speedFactor="1.01" vaporized="">
        <emissions CO_abs="2950.686537" CO2_abs="127343.556608" HC_abs="16.442441" PMx_abs="2.477789" NOx_abs="53.656972" fuel_abs="54.740036" electricity_abs="0"/>
    </tripinfo>
    <tripinfo id="h3568c1:3" depart="57656.00" departLane="266565295#5_1" departPos="5.10" departSpeed="0.00" departDelay="0.80" arrival="57757.00" arrivalLane="-24634415_1" arrivalPos="62.03" arrivalSpeed="13.13" duration="101.00" routeLength="807.40" waitingTime="18.00" waitingCount="1" stopTime="0.00" timeLoss="33.92" rerouteNo="1" devices="tripinfo_h3568c1:3 routing_h3568c1:3 emissions_h3568c1:3" vType="default_016" speedFactor="0.96" vaporized="">
        <emissions CO_abs="5936.400636" CO2_abs="269728.416305" HC_abs="33.366074" PMx_abs="5.045773" NOx_abs="112.493960" fuel_abs="115.945768" electricity_abs="0"/>
    </tripinfo>
    <tripinfo id="carIn30817:1" depart="57681.00" departLane="315358244_1" departPos="5.10" departSpeed="0.00" departDelay="0.20" arrival="57758.00" arrivalLane="447569997#1_1" arrivalPos="180.93" arrivalSpeed="6.26" duration="77.00" routeLength="718.04" waitingTime="0.00" waitingCount="0" stopTime="0.00" timeLoss="8.29" rerouteNo="1" devices="tripinfo_carIn30817:1 routing_carIn30817:1 emissions_carIn30817:1" vType="default_016" speedFactor="0.90" vaporized="">
        <emissions CO_abs="2603.695652" CO2_abs="156050.663069" HC_abs="15.455724" PMx_abs="2.442522" NOx_abs="61.971488" fuel_abs="67.080139" electricity_abs="0"/>
    </tripinfo>
    <tripinfo id="h4538c1:1" depart="57701.00" departLane="-10427692#1_1" departPos="5.10" departSpeed="0.00" departDelay="0.00" arrival="57759.00" arrivalLane="-128361102#1_1" arrivalPos="274.68" arrivalSpeed="11.92" duration="58.00" routeLength="440.74" waitingTime="13.00" waitingCount="1" stopTime="0.00" timeLoss="22.98" rerouteNo="1" devices="tripinfo_h4538c1:1 routing_h4538c1:1 emissions_h4538c1:1" vType="default_016" speedFactor="0.91" vaporized="">
        <emissions CO_abs="3293.809543" CO2_abs="135910.941737" HC_abs="18.174827" PMx_abs="2.499315" NOx_abs="56.319643" fuel_abs="58.423168" electricity_abs="0"/>
    </tripinfo>
    <tripinfo id="S5R_frequency1.2" depart="57612.00" departLane="315358250#0_1" departPos="12.10" departSpeed="0.00" departDelay="0.40" arrival="57762.00" arrivalLane="386687235_1" arrivalPos="80.84" arrivalSpeed="13.37" duration="150.00" routeLength="1115.62" waitingTime="46.00" waitingCount="2" stopTime="0.00" timeLoss="68.01" rerouteNo="1" devices="tripinfo_S5R_frequency1.2 routing_S5R_frequency1.2 emissions_S5R_frequency1.2" vType="bus" speedFactor="1.00" vaporized="">
        <emissions CO_abs="2931.679263" CO2_abs="1504055.142477" HC_abs="646.743950" PMx_abs="307.314053" NOx_abs="12561.856734" fuel_abs="641.360507" electricity_abs="0"/>
    </tripinfo>
    <tripinfo id="h3154c1:1" depart="57658.00" departLane="24634507_1" departPos="5.10" departSpeed="0.00" departDelay="0.00" arrival="57765.00" arrivalLane="-266565295#5_1" arrivalPos="172.76" arrivalSpeed="15.43" duration="107.00" routeLength="1206.22" waitingTime="4.00" waitingCount="2" stopTime="0.00" timeLoss="27.13" rerouteNo="1" devices="tripinfo_h3154c1:1 routing_h3154c1:1 emissions_h3154c1:1" vType="default_016" speedFactor="1.12" vaporized="">
        <emissions CO_abs="5146.006900" CO2_abs="348262.388282" HC_abs="31.580179" PMx_abs="6.315433" NOx_abs="142.183535" fuel_abs="149.702788" electricity_abs="0"/>
    </tripinfo>
    <tripinfo id="carIn121703:1" depart="57647.00" departLane="386687232#0_1" departPos="5.10" departSpeed="0.00" departDelay="0.30" arrival="57768.00" arrivalLane="-315358244_1" arrivalPos="33.95" arrivalSpeed="12.58" duration="121.00" routeLength="1157.39" waitingTime="13.00" waitingCount="2" stopTime="0.00" timeLoss="31.31" rerouteNo="1" devices="tripinfo_carIn121703:1 routing_carIn121703:1 emissions_carIn121703:1" vType="default_016" speedFactor="0.94" vaporized="">
        <emissions CO_abs="5125.087784" CO2_abs="277991.637784" HC_abs="29.842612" PMx_abs="4.854329" NOx_abs="112.947372" fuel_abs="119.497564" electricity_abs="0"/>
    </tripinfo>
    <tripinfo id="h3326c1:2" depart="57656.00" departLane="22716069#0_1" departPos="5.10" departSpeed="0.00" departDelay="0.00" arrival="57768.00" arrivalLane="24634517#13_1" arrivalPos="111.62" arrivalSpeed="14.51" duration="112.00" routeLength="1312.81" waitingTime="3.00" waitingCount="1" stopTime="0.00" timeLoss="20.86" rerouteNo="1" devices="tripinfo_h3326c1:2 routing_h3326c1:2 emissions_h3326c1:2" vType="default_016" speedFactor="1.06" vaporized="">
        <emissions CO_abs="4444.743989" CO2_abs="331556.351686" HC_abs="28.018908" PMx_abs="5.735672" NOx_abs="133.484019" fuel_abs="142.521648" electricity_abs="0"/>
    </tripinfo>
    <tripinfo id="h9563c2:5" depart="57631.00" departLane="315358244_1" departPos="5.10" departSpeed="0.00" departDelay="0.70" arrival="57773.00" arrivalLane="386687235_1" arrivalPos="80.84" arrivalSpeed="15.96" duration="142.00" routeLength="1186.14" waitingTime="49.00" waitingCount="3" stopTime="0.00" timeLoss="70.17" rerouteNo="1" devices="tripinfo_h9563c2:5 routing_h9563c2:5 emissions_h9563c2:5" vType="default_016" speedFactor="1.22" vaporized="">
        <emissions CO_abs="10227.116327" CO2_abs="362241.822071" HC_abs="55.036541" PMx_abs="7.237844" NOx_abs="151.574980" fuel_abs="155.715152" electricity_abs="0"/>
    </tripinfo>
    <tripinfo id="carIn28951:1" depart="57606.00" departLane="10425609#0_1" departPos="5.10" departSpeed="0.00" departDelay="0.20" arrival="57780.00" arrivalLane="-128361102#1_1" arrivalPos="274.68" arrivalSpeed="13.28" duration="174.00" routeLength="2113.04" waitingTime="0.00" waitingCount="0" stopTime="0.00" timeLoss="18.57" rerouteNo="1" devices="tripinfo_carIn28951:1 routing_carIn28951:1 emissions_carIn28951:1" vType="default_016" speedFactor="1.00" vaporized="">
        <emissions CO_abs="4946.577242" CO2_abs="416770.089310" HC_abs="32.256189" PMx_abs="6.722721" NOx_abs="164.508548" fuel_abs="179.151540" electricity_abs="0"/>
    </tripinfo>
    <tripinfo id="carIn12365:1" depart="57713.00" departLane="315358244_1" departPos="5.10" departSpeed="0.00" departDelay="0.50" arrival="57783.00" arrivalLane="447569997#1_1" arrivalPos="180.93" arrivalSpeed="7.68" duration="70.00" routeLength="718.04" waitingTime="0.00" waitingCount="0" stopTime="0.00" timeLoss="8.51" rerouteNo="1" devices="tripinfo_carIn12365:1 routing_carIn12365:1 emissions_carIn12365:1" vType="default_016" speedFactor="1.01" vaporized="">
        <emissions CO_abs="2294.844327" CO2_abs="152382.641079" HC_abs="13.981943" PMx_abs="2.401924" NOx_abs="60.202066" fuel_abs="65.503205" electricity_abs="0"/>
    </tripinfo>
    <tripinfo id="carIn50326:1" depart="57651.00" departLane="128361102#0_1" departPos="5.10" departSpeed="0.00" departDelay="0.30" arrival="57784.00" arrivalLane="18809673#0_1" arrivalPos="473.56" arrivalSpeed="14.94" duration="133.00" routeLength="1591.07" waitingTime="0.00" waitingCount="0" stopTime="0.00" timeLoss="15.06" rerouteNo="1" devices="tripinfo_carIn50326:1 routing_carIn50326:1 emissions_carIn50326:1" vType="default_016" speedFactor="1.10" vaporized="">
        <emissions CO_abs="4386.990791" CO2_abs="340474.263384" HC_abs="27.870464" PMx_abs="5.577124" NOx_abs="134.868866" fuel_abs="146.355407" electricity_abs="0"/>
    </tripinfo>
    <tripinfo id="carIn27009:1" depart="57673.00" departLane="-447569998#1_1" departPos="5.10" departSpeed="0.00" departDelay="0.50" arrival="57784.00" arrivalLane="-26677539_1" arrivalPos="152.75" arrivalSpeed="7.33" duration="111.00" routeLength="699.63" waitingTime="13.00" waitingCount="1" stopTime="0.00" timeLoss="27.44" rerouteNo="1" devices="tripinfo_carIn27009:1 routing_carIn27009:1 emissions_carIn27009:1" vType="default_015" speedFactor="1.00" vaporized="">
        <emissions CO_abs="5978.411865" CO2_abs="227736.093048" HC_abs="32.467239" PMx_abs="3.949186" NOx_abs="94.014368" fuel_abs="97.896093" electricity_abs="0"/>
    </tripinfo>
    <tripinfo id="h330c1:1" depart="57736.00" departLane="-32978638#0_1" departPos="5.10" departSpeed="0.00" departDelay="0.20" arrival="57784.00" arrivalLane="-266565295#5_1" arrivalPos="172.76" arrivalSpeed="14.99" duration="48.00" routeLength="370.53" waitingTime="14.00" waitingCount="1" stopTime="0.00" timeLoss="22.27" rerouteNo="1" devices="tripinfo_h330c1:1 routing_h330c1:1 emissions_h330c1:1" vType="default_016" speedFactor="1.09" vaporized="">
        <emissions CO_abs="3259.016521" CO2_abs="149466.753933" HC_abs="18.331904" PMx_abs="2.882990" NOx_abs="62.473380" fuel_abs="64.249829" electricity_abs="0"/>
    </tripinfo>
    <tripinfo id="h12244c1:3" depart="57612.00" departLane="315358244_1" departPos="5.10" departSpeed="0.00" departDelay="0.40" arrival="57798.00" arrivalLane="386687235_1" arrivalPos="80.84" arrivalSpeed="11.06" duration="186.00" routeLength="1186.14" waitingTime="72.00" waitingCount="1" stopTime="0.00" timeLoss="86.82" rerouteNo="1" devices="tripinfo_h12244c1:3 routing_h12244c1:3 emissions_h12244c1:3" vType="default_016" speedFactor="0.87" vaporized="">
        <emissions CO_abs="14388.997191" CO2_abs="416639.827692" HC_abs="75.224505" PMx_abs="8.159434" NOx_abs="175.738798" fuel_abs="179.101226" electricity_abs="0"/>
    </tripinfo>
    <tripinfo id="carIn86816:1" depart="57617.00" departLane="128361102#0_1" departPos="5.10" departSpeed="0.00" departDelay="0.80" arrival="57798.00" arrivalLane="201956811#0_1" arrivalPos="40.40" arrivalSpeed="14.68" duration="181.00" routeLength="2067.33" waitingTime="16.00" waitingCount="1" stopTime="0.00" timeLoss="42.07" rerouteNo="1" devices="tripinfo_carIn86816:1 routing_carIn86816:1 emissions_carIn86816:1" vType="default_016" speedFactor="1.09" vaporized="">
        <emissions CO_abs="7676.541397" CO2_abs="494278.928375" HC_abs="46.444600" PMx_abs="8.795480" NOx_abs="200.198254" fuel_abs="212.469542" electricity_abs="0"/>
    </tripinfo>
    <tripinfo id="carIn118591:1" depart="57689.00" departLane="315358244_1" departPos="5.10" departSpeed="0.00" departDelay="0.20" arrival="57800.00" arrivalLane="386687235_1" arrivalPos="80.84" arrivalSpeed="15.72" duration="111.00" routeLength="1186.14" waitingTime="20.00" waitingCount="1" stopTime="0.00" timeLoss="37.79" rerouteNo="1" devices="tripinfo_carIn118591:1 routing_carIn118591:1 emissions_carIn118591:1" vType="default_016" speedFactor="1.18" vaporized="">
        <emissions CO_abs="5834.858194" CO2_abs="296408.141421" HC_abs="33.499775" PMx_abs="5.492458" NOx_abs="121.067436" fuel_abs="127.414053" electricity_abs="0"/>
    </tripinfo>
    <tripinfo id="carIn107084:1" depart="57601.00" departLane="124812856#0_1" departPos="5.10" departSpeed="0.00" departDelay="0.70" arrival="57806.00" arrivalLane="-128361102#1_1" arrivalPos="274.68" arrivalSpeed="13.12" duration="205.00" routeLength="2250.49" waitingTime="13.00" waitingCount="2" stopTime="0.00" timeLoss="42.86" rerouteNo="1" devices="tripinfo_carIn107084:1 routing_carIn107084:1 emissions_carIn107084:1" vType="default_016" speedFactor="1.01" vaporized="">
        <emissions CO_abs="7663.475927" CO2_abs="523089.918035" HC_abs="47.045830" PMx_abs="8.988834" NOx_abs="210.569616" fuel_abs="224.854188" electricity_abs="0"/>
    </tripinfo>
    <tripinfo id="carIn77943:1" depart="57608.00" departLane="124812856#0_1" departPos="5.10" departSpeed="0.00" departDelay="2.50" arrival="57808.00" arrivalLane="-128361102#1_1" arrivalPos="274.68" arrivalSpeed="13.24" duration="200.00" routeLength="2250.49" waitingTime="0.00" waitingCount="0" stopTime="0.00" timeLoss="34.74" rerouteNo="1" devices="tripinfo_carIn77943:1 routing_carIn77943:1 emissions_carIn77943:1" vType="default_016" speedFactor="0.99" vaporized="">
        <emissions CO_abs="6652.288172" CO2_abs="490852.735388" HC_abs="41.755667" PMx_abs="8.161880" NOx_abs="196.318755" fuel_abs="210.996714" electricity_abs="0"/>
    </tripinfo>
    <tripinfo id="carIn81046:1" depart="57611.00" departLane="124812856#0_1" departPos="5.10" departSpeed="0.00" departDelay="2.50" arrival="57810.00" arrivalLane="-128361102#1_1" arrivalPos="274.68" arrivalSpeed="13.85" duration="199.00" routeLength="2250.49" waitingTime="0.00" waitingCount="0" stopTime="0.00" timeLoss="36.24" rerouteNo="1" devices="tripinfo_carIn81046:1 routing_carIn81046:1 emissions_carIn81046:1" vType="default_016" speedFactor="1.01" vaporized="">
        <emissions CO_abs="7002.986839" CO2_abs="510244.647736" HC_abs="43.856456" PMx_abs="8.699859" NOx_abs="205.446393" fuel_abs="219.332223" electricity_abs="0"/>
    </tripinfo>
    <tripinfo id="carIn102915:1" depart="57643.00" departLane="128361102#0_1" departPos="5.10" departSpeed="0.00" departDelay="0.40" arrival="57811.00" arrivalLane="201956811#0_1" arrivalPos="40.40" arrivalSpeed="13.27" duration="168.00" routeLength="2067.33" waitingTime="0.00" waitingCount="0" stopTime="0.00" timeLoss="16.64" rerouteNo="1" devices="tripinfo_carIn102915:1 routing_carIn102915:1 emissions_carIn102915:1" vType="default_016" speedFactor="1.00" vaporized="">
        <emissions CO_abs="5026.799457" CO2_abs="423560.399862" HC_abs="32.759673" PMx_abs="6.817011" NOx_abs="166.949800" fuel_abs="182.070437" electricity_abs="0"/>
    </tripinfo>
    <tripinfo id="carIn77438:1" depart="57614.00" departLane="124812856#0_1" departPos="5.10" departSpeed="0.00" departDelay="1.10" arrival="57813.00" arrivalLane="-128361102#1_1" arrivalPos="274.68" arrivalSpeed="12.62" duration="199.00" routeLength="2250.49" waitingTime="0.00" waitingCount="0" stopTime="0.00" timeLoss="26.41" rerouteNo="1" devices="tripinfo_carIn77438:1 routing_carIn77438:1 emissions_carIn77438:1" vType="default_016" speedFactor="0.95" vaporized="">
        <emissions CO_abs="5857.745004" CO2_abs="464222.493084" HC_abs="37.496539" PMx_abs="7.424447" NOx_abs="183.640388" fuel_abs="199.549602" electricity_abs="0"/>
    </tripinfo>
    <tripinfo id="carIn129809:1" depart="57729.00" departLane="-447569998#1_1" departPos="5.10" departSpeed="0.00" departDelay="1.00" arrival="57813.00" arrivalLane="-315358244_1" arrivalPos="33.95" arrivalSpeed="15.75" duration="84.00" routeLength="706.49" waitingTime="10.00" waitingCount="2" stopTime="0.00" timeLoss="30.87" rerouteNo="1" devices="tripinfo_carIn129809:1 routing_carIn129809:1 emissions_carIn129809:1" vType="default_015" speedFactor="1.15" vaporized="">
        <emissions CO_abs="3626.266997" CO2_abs="214792.757280" HC_abs="21.437247" PMx_abs="3.811597" NOx_abs="87.486645" fuel_abs="92.330491" electricity_abs="0"/>
    </tripinfo>
    <tripinfo id="carIn48184:1" depart="57613.00" departLane="-306240162#1_0" departPos="5.10" departSpeed="0.00" departDelay="0.70" arrival="57814.00" arrivalLane="386687235_1" arrivalPos="80.84" arrivalSpeed="12.28" duration="201.00" routeLength="2257.41" waitingTime="9.00" waitingCount="2" stopTime="0.00" timeLoss="44.95" rerouteNo="1" devices="tripinfo_carIn48184:1 routing_carIn48184:1 emissions_carIn48184:1" vType="default_016" speedFactor="0.95" vaporized="">
        <emissions CO_abs="7934.316008" CO2_abs="558158.214843" HC_abs="49.229566" PMx_abs="9.816708" NOx_abs="225.469859" fuel_abs="239.928095" electricity_abs="0"/>
    </tripinfo>
    <tripinfo id="carIn82220:1" depart="57619.00" departLane="-306240162#1_0" departPos="5.10" departSpeed="0.00" departDelay="3.50" arrival="57815.00" arrivalLane="386687235_1" arrivalPos="80.84" arrivalSpeed="13.10" duration="196.00" routeLength="2257.41" waitingTime="11.00" waitingCount="1" stopTime="0.00" timeLoss="52.72" rerouteNo="1" devices="tripinfo_carIn82220:1 routing_carIn82220:1 emissions_carIn82220:1" vType="default_016" speedFactor="1.03" vaporized="">
        <emissions CO_abs="8252.296935" CO2_abs="565849.806625" HC_abs="50.898551" PMx_abs="10.104902" NOx_abs="229.614292" fuel_abs="243.234321" electricity_abs="0"/>
    </tripinfo>
    <tripinfo id="randUni33724:1" depart="57646.00" departLane="128361102#0_1" departPos="5.10" departSpeed="0.00" departDelay="1.20" arrival="57815.00" arrivalLane="201956811#0_1" arrivalPos="40.40" arrivalSpeed="13.73" duration="169.00" routeLength="2067.33" waitingTime="0.00" waitingCount="0" stopTime="0.00" timeLoss="23.31" rerouteNo="1" devices="tripinfo_randUni33724:1 routing_randUni33724:1 emissions_randUni33724:1" vType="random_016" speedFactor="1.04" vaporized="">
        <emissions CO_abs="5538.171330" CO2_abs="461452.895954" HC_abs="36.003908" PMx_abs="7.600966" NOx_abs="182.974264" fuel_abs="198.358585" electricity_abs="0"/>
    </tripinfo>
    <tripinfo id="carIn82278:1" depart="57702.00" departLane="-306240162#1_0" departPos="5.10" departSpeed="0.00" departDelay="0.70" arrival="57815.00" arrivalLane="399835085#1_1" arrivalPos="212.23" arrivalSpeed="7.37" duration="113.00" routeLength="1093.26" waitingTime="4.00" waitingCount="1" stopTime="0.00" timeLoss="34.38" rerouteNo="1" devices="tripinfo_carIn82278:1 routing_carIn82278:1 emissions_carIn82278:1" vType="default_016" speedFactor="0.99" vaporized="">
        <emissions CO_abs="6175.023207" CO2_abs="339515.236461" HC_abs="36.175491" PMx_abs="6.493928" NOx_abs="141.557654" fuel_abs="145.943184" electricity_abs="0"/>
    </tripinfo>
    <tripinfo id="carIn116184:1" depart="57627.00" departLane="-306240162#1_0" departPos="5.10" departSpeed="0.00" departDelay="0.10" arrival="57817.00" arrivalLane="386687235_2" arrivalPos="80.84" arrivalSpeed="14.33" duration="190.00" routeLength="2257.41" waitingTime="12.00" waitingCount="1" stopTime="0.00" timeLoss="52.97" rerouteNo="1" devices="tripinfo_carIn116184:1 routing_carIn116184:1 emissions_carIn116184:1" vType="default_016" speedFactor="1.08" vaporized="">
        <emissions CO_abs="7638.792268" CO2_abs="528781.861878" HC_abs="47.189068" PMx_abs="9.441786" NOx_abs="213.886479" fuel_abs="227.300417" electricity_abs="0"/>
    </tripinfo>
    <tripinfo id="carIn12858:1" depart="57661.00" departLane="128361109#1_1" departPos="5.10" departSpeed="0.00" departDelay="0.90" arrival="57817.00" arrivalLane="399835085#1_1" arrivalPos="212.23" arrivalSpeed="7.50" duration="156.00" routeLength="1738.12" waitingTime="6.00" waitingCount="2" stopTime="0.00" timeLoss="45.78" rerouteNo="1" devices="tripinfo_carIn12858:1 routing_carIn12858:1 emissions_carIn12858:1" vType="default_016" speedFactor="1.05" vaporized="">
        <emissions CO_abs="8502.516912" CO2_abs="505635.818594" HC_abs="50.760694" PMx_abs="9.832873" NOx_abs="210.161808" fuel_abs="217.350699" electricity_abs="0"/>
    </tripinfo>
    <tripinfo id="h17600c1:1" depart="57662.00" departLane="272042143_1" departPos="5.10" departSpeed="0.00" departDelay="0.30" arrival="57817.00" arrivalLane="201238729#3_1" arrivalPos="431.02" arrivalSpeed="13.71" duration="155.00" routeLength="2100.26" waitingTime="0.00" waitingCount="0" stopTime="0.00" timeLoss="13.18" rerouteNo="1" devices="tripinfo_h17600c1:1 routing_h17600c1:1 emissions_h17600c1:1" vType="default_016" speedFactor="1.07" vaporized="">
        <emissions CO_abs="4108.246727" CO2_abs="394469.407212" HC_abs="27.765318" PMx_abs="6.356418" NOx_abs="154.109474" fuel_abs="169.565081" electricity_abs="0"/>
    </tripinfo>
    <tripinfo id="h19804c1:3" depart="57617.00" departLane="124812856#0_1" departPos="5.10" departSpeed="0.00" departDelay="1.50" arrival="57821.00" arrivalLane="-128361102#1_1" arrivalPos="274.68" arrivalSpeed="12.63" duration="204.00" routeLength="2250.49" waitingTime="0.00" waitingCount="0" stopTime="0.00" timeLoss="25.77" rerouteNo="1" devices="tripinfo_h19804c1:3 routing_h19804c1:3 emissions_h19804c1:3" vType="default_016" speedFactor="0.92" vaporized="">
        <emissions CO_abs="6082.424224" CO2_abs="477883.895535" HC_abs="38.805306" PMx_abs="7.503597" NOx_abs="188.431614" fuel_abs="205.422289" electricity_abs="0"/>
    </tripinfo>
    <tripinfo id="carIn107842:1" depart="57623.00" departLane="124812856#0_1" departPos="5.10" departSpeed="0.00" departDelay="1.90" arrival="57823.00" arrivalLane="-128361102#1_1" arrivalPos="274.68" arrivalSpeed="13.00" duration="200.00" routeLength="2250.49" waitingTime="0.00" waitingCount="0" stopTime="0.00" timeLoss="35.24" rerouteNo="1" devices="tripinfo_carIn107842:1 routing_carIn107842:1 emissions_carIn107842:1" vType="default_016" speedFactor="1.00" vaporized="">
        <emissions CO_abs="6763.433711" CO2_abs="502329.488117" HC_abs="42.572205" PMx_abs="8.457516" NOx_abs="201.821637" fuel_abs="215.929864" electricity_abs="0"/>
    </tripinfo>
    <tripinfo id="carIn107282:1" depart="57749.00" departLane="-447569998#1_1" departPos="5.10" departSpeed="0.00" departDelay="0.00" arrival="57826.00" arrivalLane="315358242#0_1" arrivalPos="165.37" arrivalSpeed="12.50" duration="77.00" routeLength="448.50" waitingTime="26.00" waitingCount="1" stopTime="0.00" timeLoss="34.06" rerouteNo="1" devices="tripinfo_carIn107282:1 routing_carIn107282:1 emissions_carIn107282:1" vType="default_016" speedFactor="0.98" vaporized="">
        <emissions CO_abs="5473.520212" CO2_abs="164242.533251" HC_abs="28.753952" PMx_abs="3.239284" NOx_abs="69.799769" fuel_abs="70.602797" electricity_abs="0"/>
    </tripinfo>
    <tripinfo id="randUni15030:1" depart="57735.00" departLane="386687232#0_1" departPos="5.10" departSpeed="0.00" departDelay="0.10" arrival="57827.00" arrivalLane="26677539_1" arrivalPos="151.98" arrivalSpeed="8.34" duration="92.00" routeLength="919.89" waitingTime="0.00" waitingCount="0" stopTime="0.00" timeLoss="11.14" rerouteNo="1" devices="tripinfo_randUni15030:1 routing_randUni15030:1 emissions_randUni15030:1" vType="random_016" speedFactor="1.04" vaporized="">
        <emissions CO_abs="3461.451771" CO2_abs="216120.741075" HC_abs="20.766952" PMx_abs="3.629454" NOx_abs="87.200494" fuel_abs="92.901456" electricity_abs="0"/>
    </tripinfo>
    <tripinfo id="h11737c1:1" depart="57665.00" departLane="272042143_1" departPos="5.10" departSpeed="0.00" departDelay="1.50" arrival="57828.00" arrivalLane="-315358254#1_1" arrivalPos="137.16" arrivalSpeed="12.40" duration="163.00" routeLength="1596.88" waitingTime="16.00" waitingCount="2" stopTime="0.00" timeLoss="36.29" rerouteNo="1" devices="tripinfo_h11737c1:1 routing_h11737c1:1 emissions_h11737c1:1" vType="default_016" speedFactor="0.92" vaporized="">
        <emissions CO_abs="5151.620578" CO2_abs="330312.401306" HC_abs="31.125017" PMx_abs="5.277932" NOx_abs="130.838258" fuel_abs="141.988149" electricity_abs="0"/>