<?xml version="1.0" encoding="UTF-8"?>

<!-- generated on 2021-10-26 12:20:33 by Eclipse SUMO sumo Version 1.10.0
<configuration xmlns:xsi="http://www.w3.org/2001/XMLSchema-instance" xsi:noNamespaceSchemaLocation="http://sumo.dlr.de/xsd/sumoConfiguration.xsd">

    <input>
        <net-file value="/Users/behradkoohy/sumo-scratchpad/RESCO/environments/ingolstadt21/ingolstadt21.net.xml"/>
        <route-files value="/Users/behradkoohy/sumo-scratchpad/RESCO/environments/ingolstadt21/ingolstadt21.rou.xml"/>
    </input>

    <output>
        <tripinfo-output value="/Users/behradkoohy/sumo-scratchpad/RESCO/logs/IDQN-tr0-ingolstadt21-21-drq_norm-wait_norm/tripinfo_57.xml"/>
        <tripinfo-output.write-unfinished value="true"/>
    </output>

    <time>
        <begin value="57600"/>
        <end value="61200"/>
    </time>

    <processing>
        <time-to-teleport value="-1"/>
    </processing>

    <report>
        <no-warnings value="true"/>
        <no-step-log value="true"/>
    </report>

    <emissions>
        <device.emissions.probability value="1"/>
    </emissions>

    <traci_server>
        <remote-port value="58180"/>
    </traci_server>

    <random_number>
        <random value="true"/>
    </random_number>

</configuration>
-->

<tripinfos xmlns:xsi="http://www.w3.org/2001/XMLSchema-instance" xsi:noNamespaceSchemaLocation="http://sumo.dlr.de/xsd/tripinfo_file.xsd">
    <tripinfo id="h15454c2:3" depart="57612.00" departLane="24608844_1" departPos="5.10" departSpeed="0.00" departDelay="0.50" arrival="57652.00" arrivalLane="32978638#0_1" arrivalPos="49.29" arrivalSpeed="13.10" duration="40.00" routeLength="354.79" waitingTime="0.00" waitingCount="0" stopTime="0.00" timeLoss="5.27" rerouteNo="1" devices="tripinfo_h15454c2:3 routing_h15454c2:3 emissions_h15454c2:3" vType="default_016" speedFactor="0.98" vaporized="">
        <emissions CO_abs="1880.533269" CO2_abs="105957.385145" HC_abs="11.034021" PMx_abs="1.826343" NOx_abs="43.306713" fuel_abs="45.546803" electricity_abs="0"/>
    </tripinfo>
    <tripinfo id="carIn60260:1" depart="57606.00" departLane="315358254#0_1" departPos="5.10" departSpeed="0.00" departDelay="0.90" arrival="57688.00" arrivalLane="399835085#1_1" arrivalPos="212.23" arrivalSpeed="6.09" duration="82.00" routeLength="430.98" waitingTime="9.00" waitingCount="1" stopTime="0.00" timeLoss="19.49" rerouteNo="1" devices="tripinfo_carIn60260:1 routing_carIn60260:1 emissions_carIn60260:1" vType="default_016" speedFactor="0.73" vaporized="">
        <emissions CO_abs="3787.543935" CO2_abs="132944.333716" HC_abs="20.287862" PMx_abs="2.261078" NOx_abs="54.770885" fuel_abs="57.148605" electricity_abs="0"/>
    </tripinfo>
    <tripinfo id="carIn53971:1" depart="57640.00" departLane="272042143_1" departPos="5.10" departSpeed="0.00" departDelay="0.80" arrival="57692.00" arrivalLane="24634414#1_1" arrivalPos="162.19" arrivalSpeed="8.65" duration="52.00" routeLength="493.04" waitingTime="0.00" waitingCount="0" stopTime="0.00" timeLoss="8.82" rerouteNo="1" devices="tripinfo_carIn53971:1 routing_carIn53971:1 emissions_carIn53971:1" vType="default_016" speedFactor="1.07" vaporized="">
        <emissions CO_abs="2485.841260" CO2_abs="152471.261709" HC_abs="14.886388" PMx_abs="2.629521" NOx_abs="62.039802" fuel_abs="65.541080" electricity_abs="0"/>
    </tripinfo>
    <tripinfo id="h3688c1:1" depart="57625.00" departLane="201201950#1_1" departPos="5.10" departSpeed="0.00" departDelay="0.00" arrival="57721.00" arrivalLane="32978638#0_1" arrivalPos="49.29" arrivalSpeed="13.61" duration="96.00" routeLength="1089.75" waitingTime="1.00" waitingCount="1" stopTime="0.00" timeLoss="16.86" rerouteNo="1" devices="tripinfo_h3688c1:1 routing_h3688c1:1 emissions_h3688c1:1" vType="default_016" speedFactor="1.01" vaporized="">
        <emissions CO_abs="3502.324942" CO2_abs="256100.964208" HC_abs="21.937771" PMx_abs="4.376041" NOx_abs="102.992677" fuel_abs="110.086777" electricity_abs="0"/>
    </tripinfo>
    <tripinfo id="h7800c1:5" depart="57696.00" departLane="-447569998#1_1" departPos="5.10" departSpeed="0.00" departDelay="0.00" arrival="57722.00" arrivalLane="-447569998#1_1" arrivalPos="180.76" arrivalSpeed="6.96" duration="26.00" routeLength="175.66" waitingTime="0.00" waitingCount="0" stopTime="0.00" timeLoss="3.27" rerouteNo="1" devices="tripinfo_h7800c1:5 routing_h7800c1:5 emissions_h7800c1:5" vType="default_016" speedFactor="0.95" vaporized="">
        <emissions CO_abs="1139.169058" CO2_abs="47786.785624" HC_abs="6.282388" PMx_abs="0.786695" NOx_abs="19.504509" fuel_abs="20.541894" electricity_abs="0"/>
    </tripinfo>
    <tripinfo id="h3568c1:3" depart="57656.00" departLane="266565295#5_1" departPos="5.10" departSpeed="0.00" departDelay="0.80" arrival="57726.00" arrivalLane="-24634415_1" arrivalPos="62.03" arrivalSpeed="14.91" duration="70.00" routeLength="807.40" waitingTime="0.00" waitingCount="0" stopTime="0.00" timeLoss="12.42" rerouteNo="1" devices="tripinfo_h3568c1:3 routing_h3568c1:3 emissions_h3568c1:3" vType="default_016" speedFactor="1.13" vaporized="">
        <emissions CO_abs="3131.209343" CO2_abs="217540.048969" HC_abs="19.223496" PMx_abs="3.835112" NOx_abs="88.211905" fuel_abs="93.511030" electricity_abs="0"/>
    </tripinfo>
    <tripinfo id="h12244c1:3" depart="57612.00" departLane="315358244_1" departPos="5.10" departSpeed="0.00" departDelay="0.40" arrival="57737.00" arrivalLane="386687235_1" arrivalPos="80.84" arrivalSpeed="14.59" duration="125.00" routeLength="1186.14" waitingTime="26.00" waitingCount="3" stopTime="0.00" timeLoss="46.07" rerouteNo="1" devices="tripinfo_h12244c1:3 routing_h12244c1:3 emissions_h12244c1:3" vType="default_016" speedFactor="1.10" vaporized="">
        <emissions CO_abs="6155.863152" CO2_abs="300346.600625" HC_abs="34.989846" PMx_abs="5.332212" NOx_abs="121.387138" fuel_abs="129.107580" electricity_abs="0"/>
    </tripinfo>
    <tripinfo id="S5R_frequency1.2" depart="57615.00" departLane="315358250#0_1" departPos="12.10" departSpeed="0.00" departDelay="3.40" arrival="57741.00" arrivalLane="386687235_1" arrivalPos="80.84" arrivalSpeed="13.55" duration="126.00" routeLength="1115.62" waitingTime="19.00" waitingCount="2" stopTime="0.00" timeLoss="44.55" rerouteNo="1" devices="tripinfo_S5R_frequency1.2 routing_S5R_frequency1.2 emissions_S5R_frequency1.2" vType="bus" speedFactor="1.00" vaporized="">
        <emissions CO_abs="2308.406699" CO2_abs="1310403.106485" HC_abs="492.853622" PMx_abs="244.261599" NOx_abs="10538.831469" fuel_abs="558.824713" electricity_abs="0"/>
    </tripinfo>
    <tripinfo id="h317c2:1" depart="57707.00" departLane="-32978638#0_1" departPos="5.10" departSpeed="0.00" departDelay="0.10" arrival="57741.00" arrivalLane="-266565295#5_1" arrivalPos="172.76" arrivalSpeed="13.47" duration="34.00" routeLength="370.53" waitingTime="0.00" waitingCount="0" stopTime="0.00" timeLoss="6.12" rerouteNo="1" devices="tripinfo_h317c2:1 routing_h317c2:1 emissions_h317c2:1" vType="default_016" speedFactor="0.99" vaporized="">
        <emissions CO_abs="1678.336861" CO2_abs="103200.437462" HC_abs="10.054251" PMx_abs="1.866162" NOx_abs="42.452617" fuel_abs="44.361464" electricity_abs="0"/>
    </tripinfo>
    <tripinfo id="carIn22761:1" depart="57616.00" departLane="-306240162#1_0" departPos="5.10" departSpeed="0.00" departDelay="2.10" arrival="57746.00" arrivalLane="399835085#1_1" arrivalPos="212.23" arrivalSpeed="6.77" duration="130.00" routeLength="1093.26" waitingTime="24.00" waitingCount="2" stopTime="0.00" timeLoss="48.10" rerouteNo="1" devices="tripinfo_carIn22761:1 routing_carIn22761:1 emissions_carIn22761:1" vType="default_016" speedFactor="0.96" vaporized="">
        <emissions CO_abs="8178.489899" CO2_abs="376914.599182" HC_abs="46.119410" PMx_abs="7.322318" NOx_abs="157.433551" fuel_abs="162.020578" electricity_abs="0"/>
    </tripinfo>
    <tripinfo id="carIn30817:1" depart="57681.00" departLane="315358244_1" departPos="5.10" departSpeed="0.00" departDelay="0.20" arrival="57747.00" arrivalLane="447569997#1_1" arrivalPos="180.93" arrivalSpeed="8.15" duration="66.00" routeLength="718.04" waitingTime="0.00" waitingCount="0" stopTime="0.00" timeLoss="8.24" rerouteNo="1" devices="tripinfo_carIn30817:1 routing_carIn30817:1 emissions_carIn30817:1" vType="default_016" speedFactor="1.07" vaporized="">
        <emissions CO_abs="2083.828118" CO2_abs="146567.952731" HC_abs="12.836219" PMx_abs="2.263205" NOx_abs="57.362118" fuel_abs="63.003685" electricity_abs="0"/>
    </tripinfo>
    <tripinfo id="h5979c1:5" depart="57669.00" departLane="399835085#1_1" departPos="5.10" departSpeed="0.00" departDelay="0.00" arrival="57756.00" arrivalLane="-315358254#1_1" arrivalPos="137.16" arrivalSpeed="15.46" duration="87.00" routeLength="659.33" waitingTime="4.00" waitingCount="1" stopTime="0.00" timeLoss="22.08" rerouteNo="1" devices="tripinfo_h5979c1:5 routing_h5979c1:5 emissions_h5979c1:5" vType="default_016" speedFactor="1.13" vaporized="">
        <emissions CO_abs="3674.133325" CO2_abs="185606.104768" HC_abs="21.051283" PMx_abs="3.234797" NOx_abs="76.263178" fuel_abs="79.784825" electricity_abs="0"/>
    </tripinfo>
    <tripinfo id="h7181c1:1" depart="57660.00" departLane="315358254#0_1" departPos="5.10" departSpeed="0.00" departDelay="0.10" arrival="57760.00" arrivalLane="306240162#0_0" arrivalPos="220.43" arrivalSpeed="16.42" duration="100.00" routeLength="932.35" waitingTime="31.00" waitingCount="2" stopTime="0.00" timeLoss="50.77" rerouteNo="1" devices="tripinfo_h7181c1:1 routing_h7181c1:1 emissions_h7181c1:1" vType="default_016" speedFactor="1.04" vaporized="">
        <emissions CO_abs="7616.983967" CO2_abs="335254.055929" HC_abs="42.686222" PMx_abs="6.873151" NOx_abs="140.959091" fuel_abs="144.112263" electricity_abs="0"/>
    </tripinfo>
    <tripinfo id="h4538c1:1" depart="57701.00" departLane="-10427692#1_1" departPos="5.10" departSpeed="0.00" departDelay="0.00" arrival="57760.00" arrivalLane="-128361102#1_1" arrivalPos="274.68" arrivalSpeed="11.12" duration="59.00" routeLength="440.74" waitingTime="13.00" waitingCount="1" stopTime="0.00" timeLoss="22.91" rerouteNo="1" devices="tripinfo_h4538c1:1 routing_h4538c1:1 emissions_h4538c1:1" vType="default_016" speedFactor="0.89" vaporized="">
        <emissions CO_abs="3060.299277" CO2_abs="126010.838888" HC_abs="16.869677" PMx_abs="2.264900" NOx_abs="51.890823" fuel_abs="54.167558" electricity_abs="0"/>
    </tripinfo>
    <tripinfo id="carIn121703:1" depart="57647.00" departLane="386687232#0_1" departPos="5.10" departSpeed="0.00" departDelay="0.30" arrival="57764.00" arrivalLane="-315358244_1" arrivalPos="33.95" arrivalSpeed="13.06" duration="117.00" routeLength="1157.39" waitingTime="9.00" waitingCount="1" stopTime="0.00" timeLoss="27.61" rerouteNo="1" devices="tripinfo_carIn121703:1 routing_carIn121703:1 emissions_carIn121703:1" vType="default_016" speedFactor="0.95" vaporized="">
        <emissions CO_abs="4599.267528" CO2_abs="287904.790072" HC_abs="27.651653" PMx_abs="4.757324" NOx_abs="115.109701" fuel_abs="123.758653" electricity_abs="0"/>
    </tripinfo>
    <tripinfo id="carIn27009:1" depart="57673.00" departLane="-447569998#1_1" departPos="5.10" departSpeed="0.00" departDelay="0.50" arrival="57770.00" arrivalLane="-26677539_1" arrivalPos="152.75" arrivalSpeed="7.97" duration="97.00" routeLength="699.63" waitingTime="3.00" waitingCount="1" stopTime="0.00" timeLoss="17.33" rerouteNo="1" devices="tripinfo_carIn27009:1 routing_carIn27009:1 emissions_carIn27009:1" vType="default_015" speedFactor="1.05" vaporized="">
        <emissions CO_abs="3778.123215" CO2_abs="184704.241201" HC_abs="21.440049" PMx_abs="2.939976" NOx_abs="74.498161" fuel_abs="79.397637" electricity_abs="0"/>
    </tripinfo>
    <tripinfo id="h330c1:1" depart="57736.00" departLane="-32978638#0_1" departPos="5.10" departSpeed="0.00" departDelay="0.20" arrival="57777.00" arrivalLane="-266565295#5_1" arrivalPos="172.76" arrivalSpeed="10.53" duration="41.00" routeLength="370.53" waitingTime="0.00" waitingCount="0" stopTime="0.00" timeLoss="6.04" rerouteNo="1" devices="tripinfo_h330c1:1 routing_h330c1:1 emissions_h330c1:1" vType="default_016" speedFactor="0.80" vaporized="">
        <emissions CO_abs="1666.274529" CO2_abs="97316.391169" HC_abs="9.841559" PMx_abs="1.588010" NOx_abs="39.193105" fuel_abs="41.832473" electricity_abs="0"/>
    </tripinfo>
    <tripinfo id="h3154c1:1" depart="57658.00" departLane="24634507_1" departPos="5.10" departSpeed="0.00" departDelay="0.00" arrival="57779.00" arrivalLane="-266565295#5_1" arrivalPos="172.76" arrivalSpeed="13.08" duration="121.00" routeLength="1206.22" waitingTime="12.00" waitingCount="1" stopTime="0.00" timeLoss="31.31" rerouteNo="1" devices="tripinfo_h3154c1:1 routing_h3154c1:1 emissions_h3154c1:1" vType="default_016" speedFactor="1.00" vaporized="">
        <emissions CO_abs="5894.169032" CO2_abs="330148.116173" HC_abs="34.609956" PMx_abs="5.989998" NOx_abs="135.820211" fuel_abs="141.917030" electricity_abs="0"/>
    </tripinfo>
    <tripinfo id="carIn12365:1" depart="57713.00" departLane="315358244_1" departPos="5.10" departSpeed="0.00" departDelay="0.50" arrival="57779.00" arrivalLane="447569997#1_1" arrivalPos="180.93" arrivalSpeed="8.39" duration="66.00" routeLength="718.04" waitingTime="0.00" waitingCount="0" stopTime="0.00" timeLoss="9.00" rerouteNo="1" devices="tripinfo_carIn12365:1 routing_carIn12365:1 emissions_carIn12365:1" vType="default_016" speedFactor="1.09" vaporized="">
        <emissions CO_abs="2128.873194" CO2_abs="148683.160102" HC_abs="13.090450" PMx_abs="2.394965" NOx_abs="58.741224" fuel_abs="63.912794" electricity_abs="0"/>
    </tripinfo>
    <tripinfo id="h3326c1:2" depart="57656.00" departLane="22716069#0_1" departPos="5.10" departSpeed="0.00" departDelay="0.00" arrival="57789.00" arrivalLane="24634517#13_1" arrivalPos="111.62" arrivalSpeed="10.52" duration="133.00" routeLength="1312.81" waitingTime="0.00" waitingCount="0" stopTime="0.00" timeLoss="15.50" rerouteNo="1" devices="tripinfo_h3326c1:2 routing_h3326c1:2 emissions_h3326c1:2" vType="default_016" speedFactor="0.83" vaporized="">
        <emissions CO_abs="4302.946701" CO2_abs="287929.164259" HC_abs="26.250048" PMx_abs="4.494021" NOx_abs="114.148618" fuel_abs="123.769204" electricity_abs="0"/>
    </tripinfo>
    <tripinfo id="carIn80064:1" depart="57603.00" departLane="128361109#1_1" departPos="5.10" departSpeed="0.00" departDelay="0.40" arrival="57796.00" arrivalLane="-315358254#1_1" arrivalPos="137.16" arrivalSpeed="12.43" duration="193.00" routeLength="1587.97" waitingTime="65.00" waitingCount="3" stopTime="0.00" timeLoss="94.09" rerouteNo="1" devices="tripinfo_carIn80064:1 routing_carIn80064:1 emissions_carIn80064:1" vType="default_016" speedFactor="0.90" vaporized="">
        <emissions CO_abs="15083.291098" CO2_abs="594314.080986" HC_abs="82.736126" PMx_abs="11.949108" NOx_abs="249.357418" fuel_abs="255.473373" electricity_abs="0"/>
    </tripinfo>
    <tripinfo id="h9563c2:5" depart="57631.00" departLane="315358244_1" departPos="5.10" departSpeed="0.00" departDelay="0.70" arrival="57798.00" arrivalLane="386687235_1" arrivalPos="80.84" arrivalSpeed="12.53" duration="167.00" routeLength="1186.14" waitingTime="55.00" waitingCount="2" stopTime="0.00" timeLoss="73.61" rerouteNo="1" devices="tripinfo_h9563c2:5 routing_h9563c2:5 emissions_h9563c2:5" vType="default_016" speedFactor="0.93" vaporized="">
        <emissions CO_abs="11139.815843" CO2_abs="362547.732190" HC_abs="59.205314" PMx_abs="7.047492" NOx_abs="152.334930" fuel_abs="155.847547" electricity_abs="0"/>
    </tripinfo>
    <tripinfo id="carIn118591:1" depart="57689.00" departLane="315358244_1" departPos="5.10" departSpeed="0.00" departDelay="0.20" arrival="57800.00" arrivalLane="386687235_1" arrivalPos="80.84" arrivalSpeed="14.17" duration="111.00" routeLength="1186.14" waitingTime="13.00" waitingCount="1" stopTime="0.00" timeLoss="27.17" rerouteNo="1" devices="tripinfo_carIn118591:1 routing_carIn118591:1 emissions_carIn118591:1" vType="default_016" speedFactor="1.04" vaporized="">
        <emissions CO_abs="4719.134233" CO2_abs="272550.689323" HC_abs="27.846482" PMx_abs="4.656279" NOx_abs="109.175989" fuel_abs="117.158701" electricity_abs="0"/>
    </tripinfo>
    <tripinfo id="carIn107282:1" depart="57749.00" departLane="-447569998#1_1" departPos="5.10" departSpeed="0.00" departDelay="0.00" arrival="57805.00" arrivalLane="315358242#0_1" arrivalPos="165.37" arrivalSpeed="14.16" duration="56.00" routeLength="448.50" waitingTime="6.00" waitingCount="1" stopTime="0.00" timeLoss="15.21" rerouteNo="1" devices="tripinfo_carIn107282:1 routing_carIn107282:1 emissions_carIn107282:1" vType="default_016" speedFactor="1.02" vaporized="">
        <emissions CO_abs="2667.883578" CO2_abs="135867.504957" HC_abs="15.326787" PMx_abs="2.418663" NOx_abs="55.824170" fuel_abs="58.404079" electricity_abs="0"/>
    </tripinfo>
    <tripinfo id="carIn48184:1" depart="57613.00" departLane="-306240162#1_0" departPos="5.10" departSpeed="0.00" departDelay="0.70" arrival="57814.00" arrivalLane="386687235_1" arrivalPos="80.84" arrivalSpeed="13.14" duration="201.00" routeLength="2257.41" waitingTime="25.00" waitingCount="2" stopTime="0.00" timeLoss="53.79" rerouteNo="1" devices="tripinfo_carIn48184:1 routing_carIn48184:1 emissions_carIn48184:1" vType="default_016" speedFactor="1.01" vaporized="">
        <emissions CO_abs="9667.290198" CO2_abs="553667.256613" HC_abs="57.011083" PMx_abs="10.047678" NOx_abs="224.137708" fuel_abs="237.998842" electricity_abs="0"/>
    </tripinfo>
    <tripinfo id="h645c1:1" depart="57622.00" departLane="266565295#5_1" departPos="5.10" departSpeed="0.00" departDelay="0.40" arrival="57814.00" arrivalLane="-315358244_1" arrivalPos="33.95" arrivalSpeed="11.94" duration="192.00" routeLength="1910.83" waitingTime="19.00" waitingCount="3" stopTime="0.00" timeLoss="44.77" rerouteNo="1" devices="tripinfo_h645c1:1 routing_h645c1:1 emissions_h645c1:1" vType="default_016" speedFactor="0.94" vaporized="">
        <emissions CO_abs="6338.013070" CO2_abs="402711.957733" HC_abs="38.248392" PMx_abs="6.640309" NOx_abs="160.664333" fuel_abs="173.109590" electricity_abs="0"/>
    </tripinfo>
    <tripinfo id="h11737c1:1" depart="57665.00" departLane="272042143_1" departPos="5.10" departSpeed="0.00" departDelay="1.50" arrival="57817.00" arrivalLane="-315358254#1_1" arrivalPos="137.16" arrivalSpeed="12.83" duration="152.00" routeLength="1596.88" waitingTime="14.00" waitingCount="1" stopTime="0.00" timeLoss="33.17" rerouteNo="1" devices="tripinfo_h11737c1:1 routing_h11737c1:1 emissions_h11737c1:1" vType="default_016" speedFactor="0.98" vaporized="">
        <emissions CO_abs="5307.073602" CO2_abs="354018.441969" HC_abs="32.411514" PMx_abs="5.722025" NOx_abs="140.039442" fuel_abs="152.178213" electricity_abs="0"/>
    </tripinfo>
    <tripinfo id="carIn28951:1" depart="57606.00" departLane="10425609#0_1" departPos="5.10" departSpeed="0.00" departDelay="0.20" arrival="57820.00" arrivalLane="-128361102#1_1" arrivalPos="274.68" arrivalSpeed="11.95" duration="214.00" routeLength="2113.04" waitingTime="17.00" waitingCount="2" stopTime="0.00" timeLoss="44.56" rerouteNo="1" devices="tripinfo_carIn28951:1 routing_carIn28951:1 emissions_carIn28951:1" vType="default_016" speedFactor="0.91" vaporized="">
        <emissions CO_abs="7738.356687" CO2_abs="470892.601205" HC_abs="46.196381" PMx_abs="7.769373" NOx_abs="188.483177" fuel_abs="202.417903" electricity_abs="0"/>
    </tripinfo>
    <tripinfo id="carIn86816:1" depart="57617.00" departLane="128361102#0_1" departPos="5.10" departSpeed="0.00" departDelay="0.80" arrival="57821.00" arrivalLane="201956811#0_1" arrivalPos="40.40" arrivalSpeed="11.58" duration="204.00" routeLength="2067.33" waitingTime="0.00" waitingCount="0" stopTime="0.00" timeLoss="25.88" rerouteNo="1" devices="tripinfo_carIn86816:1 routing_carIn86816:1 emissions_carIn86816:1" vType="default_016" speedFactor="0.85" vaporized="">
        <emissions CO_abs="5712.643940" CO2_abs="405260.494959" HC_abs="35.370467" PMx_abs="6.179051" NOx_abs="159.288226" fuel_abs="174.205213" electricity_abs="0"/>
    </tripinfo>
    <tripinfo id="carIn50326:1" depart="57651.00" departLane="128361102#0_1" departPos="5.10" departSpeed="0.00" departDelay="0.30" arrival="57821.00" arrivalLane="18809673#0_1" arrivalPos="473.56" arrivalSpeed="13.87" duration="170.00" routeLength="1591.07" waitingTime="19.00" waitingCount="2" stopTime="0.00" timeLoss="43.65" rerouteNo="1" devices="tripinfo_carIn50326:1 routing_carIn50326:1 emissions_carIn50326:1" vType="default_016" speedFactor="1.03" vaporized="">
        <emissions CO_abs="6622.737328" CO2_abs="375237.282270" HC_abs="38.848299" PMx_abs="6.307064" NOx_abs="150.499898" fuel_abs="161.299755" electricity_abs="0"/>
    </tripinfo>
    <tripinfo id="carIn107084:1" depart="57601.00" departLane="124812856#0_1" departPos="5.10" departSpeed="0.00" departDelay="0.70" arrival="57822.00" arrivalLane="-128361102#1_1" arrivalPos="274.68" arrivalSpeed="12.23" duration="221.00" routeLength="2250.49" waitingTime="10.00" waitingCount="3" stopTime="0.00" timeLoss="48.89" rerouteNo="1" devices="tripinfo_carIn107084:1 routing_carIn107084:1 emissions_carIn107084:1" vType="default_016" speedFactor="0.96" vaporized="">
        <emissions CO_abs="7666.076837" CO2_abs="521993.612470" HC_abs="47.100511" PMx_abs="8.784516" NOx_abs="210.058676" fuel_abs="224.383138" electricity_abs="0"/>
    </tripinfo>
    <tripinfo id="carIn129809:1" depart="57729.00" departLane="-447569998#1_1" departPos="5.10" departSpeed="0.00" departDelay="1.00" arrival="57822.00" arrivalLane="-315358244_1" arrivalPos="33.95" arrivalSpeed="14.54" duration="93.00" routeLength="706.49" waitingTime="28.00" waitingCount="1" stopTime="0.00" timeLoss="38.09" rerouteNo="1" devices="tripinfo_carIn129809:1 routing_carIn129809:1 emissions_carIn129809:1" vType="default_015" speedFactor="1.10" vaporized="">
        <emissions CO_abs="6232.799210" CO2_abs="228734.413733" HC_abs="33.687940" PMx_abs="4.300309" NOx_abs="94.684249" fuel_abs="98.325112" electricity_abs="0"/>
    </tripinfo>
    <tripinfo id="carIn77943:1" depart="57608.00" departLane="124812856#0_1" departPos="5.10" departSpeed="0.00" departDelay="2.50" arrival="57823.00" arrivalLane="-128361102#1_1" arrivalPos="274.68" arrivalSpeed="13.43" duration="215.00" routeLength="2250.49" waitingTime="3.00" waitingCount="1" stopTime="0.00" timeLoss="52.36" rerouteNo="1" devices="tripinfo_carIn77943:1 routing_carIn77943:1 emissions_carIn77943:1" vType="default_016" speedFactor="1.01" vaporized="">
        <emissions CO_abs="8695.501633" CO2_abs="560950.242974" HC_abs="52.809141" PMx_abs="10.018739" NOx_abs="229.790716" fuel_abs="241.128435" electricity_abs="0"/>
    </tripinfo>
    <tripinfo id="carIn102915:1" depart="57643.00" departLane="128361102#0_1" departPos="5.10" departSpeed="0.00" departDelay="0.40" arrival="57823.00" arrivalLane="201956811#0_1" arrivalPos="40.40" arrivalSpeed="8.47" duration="180.00" routeLength="2067.33" waitingTime="0.00" waitingCount="0" stopTime="0.00" timeLoss="32.98" rerouteNo="1" devices="tripinfo_carIn102915:1 routing_carIn102915:1 emissions_carIn102915:1" vType="default_016" speedFactor="1.02" vaporized="">
        <emissions CO_abs="5499.616384" CO2_abs="429214.670956" HC_abs="35.029888" PMx_abs="6.842018" NOx_abs="169.121850" fuel_abs="184.501378" electricity_abs="0"/>
    </tripinfo>
    <tripinfo id="carIn81046:1" depart="57611.00" departLane="124812856#0_1" departPos="5.10" departSpeed="0.00" departDelay="2.50" arrival="57825.00" arrivalLane="-128361102#1_1" arrivalPos="274.68" arrivalSpeed="14.35" duration="214.00" routeLength="2250.49" waitingTime="1.00" waitingCount="1" stopTime="0.00" timeLoss="57.60" rerouteNo="1" devices="tripinfo_carIn81046:1 routing_carIn81046:1 emissions_carIn81046:1" vType="default_016" speedFactor="1.05" vaporized="">
        <emissions CO_abs="9214.503435" CO2_abs="595765.670754" HC_abs="55.994114" PMx_abs="10.735516" NOx_abs="244.626160" fuel_abs="256.093931" electricity_abs="0"/>
    </tripinfo>
    <tripinfo id="h19804c1:3" depart="57617.00" departLane="124812856#0_1" departPos="5.10" departSpeed="0.00" departDelay="1.50" arrival="57827.00" arrivalLane="-128361102#1_1" arrivalPos="274.68" arrivalSpeed="13.71" duration="210.00" routeLength="2250.49" waitingTime="2.00" waitingCount="1" stopTime="0.00" timeLoss="51.60" rerouteNo="1" devices="tripinfo_h19804c1:3 routing_h19804c1:3 emissions_h19804c1:3" vType="default_016" speedFactor="1.04" vaporized="">
        <emissions CO_abs="7380.509043" CO2_abs="529731.718173" HC_abs="45.912109" PMx_abs="8.801626" NOx_abs="211.869704" fuel_abs="227.709302" electricity_abs="0"/>
    </tripinfo>
    <tripinfo id="carIn107842:1" depart="57623.00" departLane="124812856#0_1" departPos="5.10" departSpeed="0.00" departDelay="1.90" arrival="57828.00" arrivalLane="-128361102#1_1" arrivalPos="274.68" arrivalSpeed="13.72" duration="205.00" routeLength="2250.49" waitingTime="1.00" waitingCount="1" stopTime="0.00" timeLoss="43.62" rerouteNo="1" devices="tripinfo_carIn107842:1 routing_carIn107842:1 emissions_carIn107842:1" vType="default_016" speedFactor="1.02" vaporized="">
        <emissions CO_abs="7302.502225" CO2_abs="530945.492435" HC_abs="45.662250" PMx_abs="8.808011" NOx_abs="212.267063" fuel_abs="228.231007" electricity_abs="0"/>
    </tripinfo>
    <tripinfo id="carIn73855:1" depart="57743.00" departLane="386687232#0_1" departPos="5.10" departSpeed="0.00" departDelay="0.50" arrival="57830.00" arrivalLane="-315358244_2" arrivalPos="33.95" arrivalSpeed="14.81" duration="87.00" routeLength="1157.39" waitingTime="0.00" waitingCount="0" stopTime="0.00" timeLoss="12.55" rerouteNo="1" devices="tripinfo_carIn73855:1 routing_carIn73855:1 emissions_carIn73855:1" vType="default_016" speedFactor="1.14" vaporized="">
        <emissions CO_abs="2743.805343" CO2_abs="244036.975677" HC_abs="18.056355" PMx_abs="3.953288" NOx_abs="95.237142" fuel_abs="104.900940" electricity_abs="0"/>
    </tripinfo>
    <tripinfo id="h20540c1:1" depart="57634.00" departLane="10425609#0_1" departPos="5.10" departSpeed="0.00" departDelay="0.50" arrival="57832.00" arrivalLane="-128361102#1_1" arrivalPos="274.68" arrivalSpeed="12.21" duration="198.00" routeLength="2113.04" waitingTime="1.00" waitingCount="1" stopTime="0.00" timeLoss="37.62" rerouteNo="1" devices="tripinfo_h20540c1:1 routing_h20540c1:1 emissions_h20540c1:1" vType="default_016" speedFactor="0.96" vaporized="">
        <emissions CO_abs="6555.990410" CO2_abs="460470.353326" HC_abs="40.572431" PMx_abs="7.500885" NOx_abs="183.515407" fuel_abs="197.937094" electricity_abs="0"/>
    </tripinfo>
    <tripinfo id="carIn82220:1" depart="57619.00" departLane="-306240162#1_0" departPos="5.10" departSpeed="0.00" departDelay="3.50" arrival="57833.00" arrivalLane="386687235_1" arrivalPos="80.84" arrivalSpeed="14.51" duration="214.00" routeLength="2257.41" waitingTime="26.00" waitingCount="5" stopTime="0.00" timeLoss="72.39" rerouteNo="1" devices="tripinfo_carIn82220:1 routing_carIn82220:1 emissions_carIn82220:1" vType="default_016" speedFactor="1.05" vaporized="">
        <emissions CO_abs="9947.245656" CO2_abs="604489.201689" HC_abs="59.485595" PMx_abs="11.223568" NOx_abs="247.832667" fuel_abs="259.844043" electricity_abs="0"/>
    </tripinfo>
    <tripinfo id="carIn462:1" depart="57622.00" departLane="-306240162#1_0" departPos="5.10" departSpeed="0.00" departDelay="4.80" arrival="57834.00" arrivalLane="386687235_2" arrivalPos="80.84" arrivalSpeed="13.79" duration="212.00" routeLength="2257.41" waitingTime="22.00" waitingCount="4" stopTime="0.00" timeLoss="73.16" rerouteNo="1" devices="tripinfo_carIn462:1 routing_carIn462:1 emissions_carIn462:1" vType="default_016" speedFactor="1.07" vaporized="">
        <emissions CO_abs="9682.458878" CO2_abs="608626.779518" HC_abs="58.376227" PMx_abs="11.345303" NOx_abs="249.601859" fuel_abs="261.622276" electricity_abs="0"/>
    </tripinfo>
    <tripinfo id="h15382c1:3" depart="57626.00" departLane="124812856#0_1" departPos="5.10" departSpeed="0.00" departDelay="3.80" arrival="57834.00" arrivalLane="-128361102#1_1" arrivalPos="274.68" arrivalSpeed="14.83" duration="208.00" routeLength="2250.49" waitingTime="7.00" waitingCount="1" stopTime="0.00" timeLoss="56.34" rerouteNo="1" devices="tripinfo_h15382c1:3 routing_h15382c1:3 emissions_h15382c1:3" vType="default_016" speedFactor="1.09" vaporized="">
        <emissions CO_abs="8272.103491" CO2_abs="568468.750812" HC_abs="51.003300" PMx_abs="9.859947" NOx_abs="230.075275" fuel_abs="244.360393" electricity_abs="0"/>
    </tripinfo>
    <tripinfo id="randUni33724:1" depart="57646.00" departLane="128361102#0_1" departPos="5.10" departSpeed="0.00" departDelay="1.20" arrival="57835.00" arrivalLane="201956811#0_1" arrivalPos="40.40" arrivalSpeed="13.74" duration="189.00" routeLength="2067.33" waitingTime="8.00" waitingCount="1" stopTime="0.00" timeLoss="47.48" rerouteNo="1" devices="tripinfo_randUni33724:1 routing_randUni33724:1 emissions_randUni33724:1" vType="random_016" speedFactor="1.07" vaporized="">
        <emissions CO_abs="7852.871046" CO2_abs="508694.860038" HC_abs="47.717529" PMx_abs="9.063509" NOx_abs="207.440175" fuel_abs="218.666172" electricity_abs="0"/>
    </tripinfo>
    <tripinfo id="carIn85747:1" depart="57673.00" departLane="128361109#1_1" departPos="5.10" departSpeed="0.00" departDelay="0.70" arrival="57835.00" arrivalLane="386687235_1" arrivalPos="80.84" arrivalSpeed="15.95" duration="162.00" routeLength="2088.57" waitingTime="13.00" waitingCount="1" stopTime="0.00" timeLoss="32.47" rerouteNo="1" devices="tripinfo_carIn85747:1 routing_carIn85747:1 emissions_carIn85747:1" vType="default_016" speedFactor="1.16" vaporized="">
        <emissions CO_abs="5884.317729" CO2_abs="411059.444483" HC_abs="36.124064" PMx_abs="7.093873" NOx_abs="163.118770" fuel_abs="176.697086" electricity_abs="0"/>
    </tripinfo>