<?xml version="1.0" encoding="UTF-8"?>

<!-- generated on 2021-10-26 11:24:17 by Eclipse SUMO sumo Version 1.10.0
<configuration xmlns:xsi="http://www.w3.org/2001/XMLSchema-instance" xsi:noNamespaceSchemaLocation="http://sumo.dlr.de/xsd/sumoConfiguration.xsd">

    <input>
        <net-file value="/Users/behradkoohy/sumo-scratchpad/RESCO/environments/ingolstadt21/ingolstadt21.net.xml"/>
        <route-files value="/Users/behradkoohy/sumo-scratchpad/RESCO/environments/ingolstadt21/ingolstadt21.rou.xml"/>
    </input>

    <output>
        <tripinfo-output value="/Users/behradkoohy/sumo-scratchpad/RESCO/logs/IDQN-tr0-ingolstadt21-21-drq_norm-wait_norm/tripinfo_18.xml"/>
        <tripinfo-output.write-unfinished value="true"/>
    </output>

    <time>
        <begin value="57600"/>
        <end value="61200"/>
    </time>

    <processing>
        <time-to-teleport value="-1"/>
    </processing>

    <report>
        <no-warnings value="true"/>
        <no-step-log value="true"/>
    </report>

    <emissions>
        <device.emissions.probability value="1"/>
    </emissions>

    <traci_server>
        <remote-port value="57108"/>
    </traci_server>

    <random_number>
        <random value="true"/>
    </random_number>

</configuration>
-->

<tripinfos xmlns:xsi="http://www.w3.org/2001/XMLSchema-instance" xsi:noNamespaceSchemaLocation="http://sumo.dlr.de/xsd/tripinfo_file.xsd">
    <tripinfo id="h15454c2:3" depart="57612.00" departLane="24608844_1" departPos="5.10" departSpeed="0.00" departDelay="0.50" arrival="57652.00" arrivalLane="32978638#0_1" arrivalPos="49.29" arrivalSpeed="12.98" duration="40.00" routeLength="354.79" waitingTime="0.00" waitingCount="0" stopTime="0.00" timeLoss="5.71" rerouteNo="1" devices="tripinfo_h15454c2:3 routing_h15454c2:3 emissions_h15454c2:3" vType="default_016" speedFactor="0.99" vaporized="">
        <emissions CO_abs="2018.847832" CO2_abs="111402.381928" HC_abs="11.779394" PMx_abs="1.868069" NOx_abs="45.201440" fuel_abs="47.887502" electricity_abs="0"/>
    </tripinfo>
    <tripinfo id="carIn60260:1" depart="57606.00" departLane="315358254#0_1" departPos="5.10" departSpeed="0.00" departDelay="0.90" arrival="57696.00" arrivalLane="399835085#1_1" arrivalPos="212.23" arrivalSpeed="7.09" duration="90.00" routeLength="430.98" waitingTime="30.00" waitingCount="1" stopTime="0.00" timeLoss="41.08" rerouteNo="1" devices="tripinfo_carIn60260:1 routing_carIn60260:1 emissions_carIn60260:1" vType="default_016" speedFactor="0.94" vaporized="">
        <emissions CO_abs="6312.972046" CO2_abs="173480.254042" HC_abs="32.770174" PMx_abs="3.412403" NOx_abs="73.907909" fuel_abs="74.574252" electricity_abs="0"/>
    </tripinfo>
    <tripinfo id="carIn53971:1" depart="57640.00" departLane="272042143_1" departPos="5.10" departSpeed="0.00" departDelay="0.80" arrival="57700.00" arrivalLane="24634414#1_1" arrivalPos="162.19" arrivalSpeed="7.33" duration="60.00" routeLength="493.04" waitingTime="0.00" waitingCount="0" stopTime="0.00" timeLoss="9.58" rerouteNo="1" devices="tripinfo_carIn53971:1 routing_carIn53971:1 emissions_carIn53971:1" vType="default_016" speedFactor="0.91" vaporized="">
        <emissions CO_abs="2594.416310" CO2_abs="134263.595947" HC_abs="14.922313" PMx_abs="2.241566" NOx_abs="54.539116" fuel_abs="57.714779" electricity_abs="0"/>
    </tripinfo>
    <tripinfo id="h3688c1:1" depart="57625.00" departLane="201201950#1_1" departPos="5.10" departSpeed="0.00" departDelay="0.00" arrival="57725.00" arrivalLane="32978638#0_1" arrivalPos="49.29" arrivalSpeed="14.88" duration="100.00" routeLength="1089.75" waitingTime="10.00" waitingCount="1" stopTime="0.00" timeLoss="25.37" rerouteNo="1" devices="tripinfo_h3688c1:1 routing_h3688c1:1 emissions_h3688c1:1" vType="default_016" speedFactor="1.08" vaporized="">
        <emissions CO_abs="4027.981176" CO2_abs="270978.100494" HC_abs="24.609010" PMx_abs="4.637041" NOx_abs="108.431184" fuel_abs="116.482130" electricity_abs="0"/>
    </tripinfo>
    <tripinfo id="h7800c1:5" depart="57696.00" departLane="-447569998#1_1" departPos="5.10" departSpeed="0.00" departDelay="0.00" arrival="57727.00" arrivalLane="-447569998#1_2" arrivalPos="180.76" arrivalSpeed="6.35" duration="31.00" routeLength="175.66" waitingTime="0.00" waitingCount="0" stopTime="0.00" timeLoss="4.46" rerouteNo="1" devices="tripinfo_h7800c1:5 routing_h7800c1:5 emissions_h7800c1:5" vType="default_016" speedFactor="0.79" vaporized="">
        <emissions CO_abs="1583.285263" CO2_abs="54633.335826" HC_abs="8.453634" PMx_abs="0.908161" NOx_abs="22.424460" fuel_abs="23.485210" electricity_abs="0"/>
    </tripinfo>
    <tripinfo id="S5R_frequency1.2" depart="57615.00" departLane="315358250#0_1" departPos="12.10" departSpeed="0.00" departDelay="3.40" arrival="57729.00" arrivalLane="386687235_1" arrivalPos="80.84" arrivalSpeed="13.62" duration="114.00" routeLength="1115.62" waitingTime="5.00" waitingCount="1" stopTime="0.00" timeLoss="32.87" rerouteNo="1" devices="tripinfo_S5R_frequency1.2 routing_S5R_frequency1.2 emissions_S5R_frequency1.2" vType="bus" speedFactor="1.00" vaporized="">
        <emissions CO_abs="2396.895491" CO2_abs="1475735.878317" HC_abs="501.421670" PMx_abs="256.006203" NOx_abs="11528.150177" fuel_abs="629.370405" electricity_abs="0"/>
    </tripinfo>
    <tripinfo id="h317c2:1" depart="57707.00" departLane="-32978638#0_1" departPos="5.10" departSpeed="0.00" departDelay="0.10" arrival="57745.00" arrivalLane="-266565295#5_1" arrivalPos="172.76" arrivalSpeed="12.97" duration="38.00" routeLength="370.53" waitingTime="1.00" waitingCount="1" stopTime="0.00" timeLoss="10.33" rerouteNo="1" devices="tripinfo_h317c2:1 routing_h317c2:1 emissions_h317c2:1" vType="default_016" speedFactor="0.99" vaporized="">
        <emissions CO_abs="1974.910402" CO2_abs="117219.057396" HC_abs="11.729127" PMx_abs="2.093302" NOx_abs="48.059703" fuel_abs="50.387569" electricity_abs="0"/>
    </tripinfo>
    <tripinfo id="h4538c1:1" depart="57701.00" departLane="-10427692#1_1" departPos="5.10" departSpeed="0.00" departDelay="0.00" arrival="57747.00" arrivalLane="-128361102#1_1" arrivalPos="274.68" arrivalSpeed="12.26" duration="46.00" routeLength="440.74" waitingTime="3.00" waitingCount="1" stopTime="0.00" timeLoss="13.21" rerouteNo="1" devices="tripinfo_h4538c1:1 routing_h4538c1:1 emissions_h4538c1:1" vType="default_016" speedFactor="0.98" vaporized="">
        <emissions CO_abs="1904.678352" CO2_abs="114494.350073" HC_abs="11.333995" PMx_abs="1.982349" NOx_abs="46.494119" fuel_abs="49.216411" electricity_abs="0"/>
    </tripinfo>
    <tripinfo id="carIn30817:1" depart="57681.00" departLane="315358244_1" departPos="5.10" departSpeed="0.00" departDelay="0.20" arrival="57748.00" arrivalLane="447569997#1_1" arrivalPos="180.93" arrivalSpeed="8.06" duration="67.00" routeLength="718.04" waitingTime="0.00" waitingCount="0" stopTime="0.00" timeLoss="7.59" rerouteNo="1" devices="tripinfo_carIn30817:1 routing_carIn30817:1 emissions_carIn30817:1" vType="default_016" speedFactor="1.04" vaporized="">
        <emissions CO_abs="2026.780335" CO2_abs="148736.263516" HC_abs="12.651696" PMx_abs="2.256957" NOx_abs="57.926784" fuel_abs="63.935748" electricity_abs="0"/>
    </tripinfo>
    <tripinfo id="h7181c1:1" depart="57660.00" departLane="315358254#0_1" departPos="5.10" departSpeed="0.00" departDelay="0.10" arrival="57750.00" arrivalLane="306240162#0_0" arrivalPos="220.43" arrivalSpeed="16.51" duration="90.00" routeLength="932.35" waitingTime="21.00" waitingCount="2" stopTime="0.00" timeLoss="41.16" rerouteNo="1" devices="tripinfo_h7181c1:1 routing_h7181c1:1 emissions_h7181c1:1" vType="default_016" speedFactor="1.05" vaporized="">
        <emissions CO_abs="7054.540898" CO2_abs="346290.986131" HC_abs="40.442031" PMx_abs="7.141141" NOx_abs="146.130578" fuel_abs="148.855814" electricity_abs="0"/>
    </tripinfo>
    <tripinfo id="h3568c1:3" depart="57656.00" departLane="266565295#5_1" departPos="5.10" departSpeed="0.00" departDelay="0.80" arrival="57764.00" arrivalLane="-24634415_1" arrivalPos="62.03" arrivalSpeed="14.25" duration="108.00" routeLength="807.40" waitingTime="29.00" waitingCount="1" stopTime="0.00" timeLoss="48.08" rerouteNo="1" devices="tripinfo_h3568c1:3 routing_h3568c1:3 emissions_h3568c1:3" vType="default_016" speedFactor="1.07" vaporized="">
        <emissions CO_abs="7932.520037" CO2_abs="298261.954237" HC_abs="43.094585" PMx_abs="6.041740" NOx_abs="127.165946" fuel_abs="128.211699" electricity_abs="0"/>
    </tripinfo>
    <tripinfo id="carIn27009:1" depart="57673.00" departLane="-447569998#1_1" departPos="5.10" departSpeed="0.00" departDelay="0.50" arrival="57764.00" arrivalLane="-26677539_1" arrivalPos="152.75" arrivalSpeed="8.87" duration="91.00" routeLength="699.63" waitingTime="5.00" waitingCount="1" stopTime="0.00" timeLoss="20.84" rerouteNo="1" devices="tripinfo_carIn27009:1 routing_carIn27009:1 emissions_carIn27009:1" vType="default_015" speedFactor="1.19" vaporized="">
        <emissions CO_abs="3933.956254" CO2_abs="202994.681314" HC_abs="22.625137" PMx_abs="3.470765" NOx_abs="83.220282" fuel_abs="87.259501" electricity_abs="0"/>
    </tripinfo>
    <tripinfo id="h3154c1:1" depart="57658.00" departLane="24634507_1" departPos="5.10" departSpeed="0.00" departDelay="0.00" arrival="57766.00" arrivalLane="-266565295#5_1" arrivalPos="172.76" arrivalSpeed="13.40" duration="108.00" routeLength="1206.22" waitingTime="1.00" waitingCount="1" stopTime="0.00" timeLoss="22.47" rerouteNo="1" devices="tripinfo_h3154c1:1 routing_h3154c1:1 emissions_h3154c1:1" vType="default_016" speedFactor="1.05" vaporized="">
        <emissions CO_abs="4745.981198" CO2_abs="316544.121001" HC_abs="29.067758" PMx_abs="5.675634" NOx_abs="129.405036" fuel_abs="136.068601" electricity_abs="0"/>
    </tripinfo>
    <tripinfo id="carIn80064:1" depart="57603.00" departLane="128361109#1_1" departPos="5.10" departSpeed="0.00" departDelay="0.40" arrival="57767.00" arrivalLane="-315358254#1_1" arrivalPos="137.16" arrivalSpeed="13.46" duration="164.00" routeLength="1587.97" waitingTime="31.00" waitingCount="4" stopTime="0.00" timeLoss="73.40" rerouteNo="1" devices="tripinfo_carIn80064:1 routing_carIn80064:1 emissions_carIn80064:1" vType="default_016" speedFactor="0.99" vaporized="">
        <emissions CO_abs="9755.915912" CO2_abs="538087.839755" HC_abs="57.259828" PMx_abs="10.537767" NOx_abs="223.408576" fuel_abs="231.300972" electricity_abs="0"/>
    </tripinfo>
    <tripinfo id="carIn22761:1" depart="57616.00" departLane="-306240162#1_0" departPos="5.10" departSpeed="0.00" departDelay="2.10" arrival="57767.00" arrivalLane="399835085#1_1" arrivalPos="212.23" arrivalSpeed="6.77" duration="151.00" routeLength="1093.26" waitingTime="42.00" waitingCount="2" stopTime="0.00" timeLoss="68.71" rerouteNo="1" devices="tripinfo_carIn22761:1 routing_carIn22761:1 emissions_carIn22761:1" vType="default_016" speedFactor="0.96" vaporized="">
        <emissions CO_abs="11214.986410" CO2_abs="417507.964041" HC_abs="60.893985" PMx_abs="8.251275" NOx_abs="175.504860" fuel_abs="179.471664" electricity_abs="0"/>
    </tripinfo>
    <tripinfo id="h330c1:1" depart="57736.00" departLane="-32978638#0_1" departPos="5.10" departSpeed="0.00" departDelay="0.20" arrival="57776.00" arrivalLane="-266565295#5_1" arrivalPos="172.76" arrivalSpeed="12.13" duration="40.00" routeLength="370.53" waitingTime="1.00" waitingCount="1" stopTime="0.00" timeLoss="10.73" rerouteNo="1" devices="tripinfo_h330c1:1 routing_h330c1:1 emissions_h330c1:1" vType="default_016" speedFactor="0.94" vaporized="">
        <emissions CO_abs="2119.711049" CO2_abs="124933.177785" HC_abs="12.577968" PMx_abs="2.181713" NOx_abs="50.988808" fuel_abs="53.703630" electricity_abs="0"/>
    </tripinfo>
    <tripinfo id="h3326c1:2" depart="57656.00" departLane="22716069#0_1" departPos="5.10" departSpeed="0.00" departDelay="0.00" arrival="57778.00" arrivalLane="24634517#13_1" arrivalPos="111.62" arrivalSpeed="12.45" duration="122.00" routeLength="1312.81" waitingTime="0.00" waitingCount="0" stopTime="0.00" timeLoss="14.91" rerouteNo="1" devices="tripinfo_h3326c1:2 routing_h3326c1:2 emissions_h3326c1:2" vType="default_016" speedFactor="0.91" vaporized="">
        <emissions CO_abs="4234.290996" CO2_abs="307110.171309" HC_abs="26.439527" PMx_abs="4.994681" NOx_abs="122.460634" fuel_abs="132.013800" electricity_abs="0"/>
    </tripinfo>
    <tripinfo id="h5979c1:5" depart="57669.00" departLane="399835085#1_1" departPos="5.10" departSpeed="0.00" departDelay="0.00" arrival="57780.00" arrivalLane="-315358254#1_1" arrivalPos="137.16" arrivalSpeed="16.30" duration="111.00" routeLength="659.33" waitingTime="32.00" waitingCount="1" stopTime="0.00" timeLoss="50.54" rerouteNo="1" devices="tripinfo_h5979c1:5 routing_h5979c1:5 emissions_h5979c1:5" vType="default_016" speedFactor="1.21" vaporized="">
        <emissions CO_abs="7914.863826" CO2_abs="267857.238372" HC_abs="42.288420" PMx_abs="5.118478" NOx_abs="112.627505" fuel_abs="115.142963" electricity_abs="0"/>
    </tripinfo>
    <tripinfo id="h12244c1:3" depart="57612.00" departLane="315358244_1" departPos="5.10" departSpeed="0.00" departDelay="0.40" arrival="57784.00" arrivalLane="386687235_1" arrivalPos="80.84" arrivalSpeed="11.87" duration="172.00" routeLength="1186.14" waitingTime="55.00" waitingCount="3" stopTime="0.00" timeLoss="78.81" rerouteNo="1" devices="tripinfo_h12244c1:3 routing_h12244c1:3 emissions_h12244c1:3" vType="default_016" speedFactor="0.93" vaporized="">
        <emissions CO_abs="10666.715396" CO2_abs="398383.861789" HC_abs="57.880234" PMx_abs="7.449459" NOx_abs="165.512174" fuel_abs="171.251441" electricity_abs="0"/>
    </tripinfo>
    <tripinfo id="h9563c2:5" depart="57631.00" departLane="315358244_1" departPos="5.10" departSpeed="0.00" departDelay="0.70" arrival="57789.00" arrivalLane="386687235_1" arrivalPos="80.84" arrivalSpeed="9.45" duration="158.00" routeLength="1186.14" waitingTime="18.00" waitingCount="1" stopTime="0.00" timeLoss="39.23" rerouteNo="1" devices="tripinfo_h9563c2:5 routing_h9563c2:5 emissions_h9563c2:5" vType="default_016" speedFactor="0.73" vaporized="">
        <emissions CO_abs="7075.790216" CO2_abs="311335.852106" HC_abs="39.386368" PMx_abs="5.146768" NOx_abs="126.098030" fuel_abs="133.832350" electricity_abs="0"/>
    </tripinfo>
    <tripinfo id="carIn12365:1" depart="57713.00" departLane="315358244_1" departPos="5.10" departSpeed="0.00" departDelay="0.50" arrival="57793.00" arrivalLane="447569997#1_1" arrivalPos="180.93" arrivalSpeed="6.94" duration="80.00" routeLength="718.04" waitingTime="2.00" waitingCount="1" stopTime="0.00" timeLoss="14.84" rerouteNo="1" devices="tripinfo_carIn12365:1 routing_carIn12365:1 emissions_carIn12365:1" vType="default_016" speedFactor="0.95" vaporized="">
        <emissions CO_abs="2988.879578" CO2_abs="174984.164989" HC_abs="17.645036" PMx_abs="2.729159" NOx_abs="69.254942" fuel_abs="75.219011" electricity_abs="0"/>
    </tripinfo>
    <tripinfo id="carIn129809:1" depart="57729.00" departLane="-447569998#1_1" departPos="5.10" departSpeed="0.00" departDelay="1.00" arrival="57802.00" arrivalLane="-315358244_1" arrivalPos="33.95" arrivalSpeed="13.45" duration="73.00" routeLength="706.49" waitingTime="0.00" waitingCount="0" stopTime="0.00" timeLoss="10.36" rerouteNo="1" devices="tripinfo_carIn129809:1 routing_carIn129809:1 emissions_carIn129809:1" vType="default_015" speedFactor="0.97" vaporized="">
        <emissions CO_abs="3069.051952" CO2_abs="191854.738737" HC_abs="18.438883" PMx_abs="3.167048" NOx_abs="77.083648" fuel_abs="82.470579" electricity_abs="0"/>
    </tripinfo>
    <tripinfo id="carIn50326:1" depart="57651.00" departLane="128361102#0_1" departPos="5.10" departSpeed="0.00" departDelay="0.30" arrival="57805.00" arrivalLane="18809673#0_1" arrivalPos="473.56" arrivalSpeed="12.69" duration="154.00" routeLength="1591.07" waitingTime="0.00" waitingCount="0" stopTime="0.00" timeLoss="24.42" rerouteNo="1" devices="tripinfo_carIn50326:1 routing_carIn50326:1 emissions_carIn50326:1" vType="default_016" speedFactor="1.00" vaporized="">
        <emissions CO_abs="5110.621108" CO2_abs="333036.929468" HC_abs="31.027234" PMx_abs="5.458204" NOx_abs="133.017382" fuel_abs="143.159013" electricity_abs="0"/>
    </tripinfo>
    <tripinfo id="carIn107084:1" depart="57601.00" departLane="124812856#0_1" departPos="5.10" departSpeed="0.00" departDelay="0.70" arrival="57806.00" arrivalLane="-128361102#1_1" arrivalPos="274.68" arrivalSpeed="13.43" duration="205.00" routeLength="2250.49" waitingTime="13.00" waitingCount="1" stopTime="0.00" timeLoss="43.55" rerouteNo="1" devices="tripinfo_carIn107084:1 routing_carIn107084:1 emissions_carIn107084:1" vType="default_016" speedFactor="1.02" vaporized="">
        <emissions CO_abs="7298.343795" CO2_abs="516159.978220" HC_abs="45.189939" PMx_abs="8.369525" NOx_abs="203.816427" fuel_abs="221.875924" electricity_abs="0"/>
    </tripinfo>
    <tripinfo id="carIn48184:1" depart="57613.00" departLane="-306240162#1_0" departPos="5.10" departSpeed="0.00" departDelay="0.70" arrival="57822.00" arrivalLane="386687235_2" arrivalPos="80.84" arrivalSpeed="16.02" duration="209.00" routeLength="2257.41" waitingTime="53.00" waitingCount="2" stopTime="0.00" timeLoss="86.32" rerouteNo="1" devices="tripinfo_carIn48184:1 routing_carIn48184:1 emissions_carIn48184:1" vType="default_016" speedFactor="1.21" vaporized="">
        <emissions CO_abs="15580.895304" CO2_abs="724633.725511" HC_abs="88.005363" PMx_abs="14.668245" NOx_abs="303.130958" fuel_abs="311.490476" electricity_abs="0"/>
    </tripinfo>
    <tripinfo id="h16072c2:3" depart="57663.00" departLane="315358254#0_1" departPos="5.10" departSpeed="0.00" departDelay="2.50" arrival="57822.00" arrivalLane="386687235_1" arrivalPos="80.84" arrivalSpeed="14.51" duration="159.00" routeLength="1611.92" waitingTime="37.00" waitingCount="1" stopTime="0.00" timeLoss="52.48" rerouteNo="1" devices="tripinfo_h16072c2:3 routing_h16072c2:3 emissions_h16072c2:3" vType="default_016" speedFactor="1.11" vaporized="">
        <emissions CO_abs="9228.403615" CO2_abs="415719.002761" HC_abs="51.693193" PMx_abs="7.671414" NOx_abs="169.789615" fuel_abs="178.701961" electricity_abs="0"/>
    </tripinfo>
    <tripinfo id="carIn107282:1" depart="57749.00" departLane="-447569998#1_1" departPos="5.10" departSpeed="0.00" departDelay="0.00" arrival="57828.00" arrivalLane="315358242#0_1" arrivalPos="165.37" arrivalSpeed="11.42" duration="79.00" routeLength="448.50" waitingTime="24.00" waitingCount="1" stopTime="0.00" timeLoss="32.27" rerouteNo="1" devices="tripinfo_carIn107282:1 routing_carIn107282:1 emissions_carIn107282:1" vType="default_016" speedFactor="0.89" vaporized="">
        <emissions CO_abs="5497.144584" CO2_abs="167176.917948" HC_abs="28.912465" PMx_abs="3.195717" NOx_abs="70.403989" fuel_abs="71.864289" electricity_abs="0"/>
    </tripinfo>
    <tripinfo id="carIn28951:1" depart="57606.00" departLane="10425609#0_1" departPos="5.10" departSpeed="0.00" departDelay="0.20" arrival="57832.00" arrivalLane="-128361102#1_1" arrivalPos="274.68" arrivalSpeed="10.52" duration="226.00" routeLength="2095.01" waitingTime="9.00" waitingCount="1" stopTime="0.00" timeLoss="31.84" rerouteNo="1" devices="tripinfo_carIn28951:1 routing_carIn28951:1 emissions_carIn28951:1" vType="default_016" speedFactor="0.79" vaporized="">
        <emissions CO_abs="7069.940747" CO2_abs="454018.677307" HC_abs="42.632335" PMx_abs="6.854020" NOx_abs="178.722749" fuel_abs="195.165001" electricity_abs="0"/>
    </tripinfo>
    <tripinfo id="carIn82220:1" depart="57619.00" departLane="-306240162#1_0" departPos="5.10" departSpeed="0.00" departDelay="3.50" arrival="57832.00" arrivalLane="386687235_1" arrivalPos="80.84" arrivalSpeed="13.01" duration="213.00" routeLength="2257.41" waitingTime="32.00" waitingCount="2" stopTime="0.00" timeLoss="63.21" rerouteNo="1" devices="tripinfo_carIn82220:1 routing_carIn82220:1 emissions_carIn82220:1" vType="default_016" speedFactor="0.99" vaporized="">
        <emissions CO_abs="10275.623956" CO2_abs="587529.749519" HC_abs="60.572006" PMx_abs="10.603120" NOx_abs="238.280184" fuel_abs="252.554963" electricity_abs="0"/>
    </tripinfo>
    <tripinfo id="randUni15030:1" depart="57735.00" departLane="386687232#0_1" departPos="5.10" departSpeed="0.00" departDelay="0.10" arrival="57832.00" arrivalLane="26677539_1" arrivalPos="151.98" arrivalSpeed="7.98" duration="97.00" routeLength="919.89" waitingTime="0.00" waitingCount="0" stopTime="0.00" timeLoss="12.62" rerouteNo="1" devices="tripinfo_randUni15030:1 routing_randUni15030:1 emissions_randUni15030:1" vType="random_016" speedFactor="1.00" vaporized="">
        <emissions CO_abs="3829.403984" CO2_abs="230223.400016" HC_abs="22.775277" PMx_abs="3.732382" NOx_abs="92.125654" fuel_abs="98.963934" electricity_abs="0"/>
    </tripinfo>
    <tripinfo id="carIn77943:1" depart="57608.00" departLane="124812856#0_1" departPos="5.10" departSpeed="0.00" departDelay="2.50" arrival="57834.00" arrivalLane="-128361102#1_1" arrivalPos="274.68" arrivalSpeed="13.31" duration="226.00" routeLength="2232.46" waitingTime="8.00" waitingCount="2" stopTime="0.00" timeLoss="91.33" rerouteNo="1" devices="tripinfo_carIn77943:1 routing_carIn77943:1 emissions_carIn77943:1" vType="default_016" speedFactor="1.21" vaporized="">
        <emissions CO_abs="10840.168255" CO2_abs="642781.261857" HC_abs="64.496797" PMx_abs="11.763793" NOx_abs="265.390960" fuel_abs="276.304363" electricity_abs="0"/>
    </tripinfo>
    <tripinfo id="carIn46110:1" depart="57684.00" departLane="315358244_1" departPos="5.10" departSpeed="0.00" departDelay="1.20" arrival="57834.00" arrivalLane="32978638#0_1" arrivalPos="49.29" arrivalSpeed="13.36" duration="150.00" routeLength="1764.04" waitingTime="4.00" waitingCount="2" stopTime="0.00" timeLoss="25.40" rerouteNo="1" devices="tripinfo_carIn46110:1 routing_carIn46110:1 emissions_carIn46110:1" vType="default_016" speedFactor="1.03" vaporized="">
        <emissions CO_abs="4893.378053" CO2_abs="376579.761486" HC_abs="31.085225" PMx_abs="6.354910" NOx_abs="150.504959" fuel_abs="161.875370" electricity_abs="0"/>
    </tripinfo>
    <tripinfo id="h5938c1:1" depart="57740.00" departLane="-26677542#0_1" departPos="5.10" departSpeed="0.00" departDelay="0.00" arrival="57835.00" arrivalLane="447569997#1_1" arrivalPos="180.93" arrivalSpeed="9.13" duration="95.00" routeLength="1093.64" waitingTime="0.00" waitingCount="0" stopTime="0.00" timeLoss="13.10" rerouteNo="1" devices="tripinfo_h5938c1:1 routing_h5938c1:1 emissions_h5938c1:1" vType="default_016" speedFactor="1.18" vaporized="">
        <emissions CO_abs="3767.680271" CO2_abs="266615.488992" HC_abs="23.353346" PMx_abs="4.491833" NOx_abs="106.664655" fuel_abs="114.606730" electricity_abs="0"/>
    </tripinfo>
    <tripinfo id="h645c1:1" depart="57622.00" departLane="266565295#5_1" departPos="5.10" departSpeed="0.00" departDelay="0.40" arrival="57843.00" arrivalLane="-315358244_2" arrivalPos="33.95" arrivalSpeed="16.07" duration="221.00" routeLength="1910.83" waitingTime="67.00" waitingCount="4" stopTime="0.00" timeLoss="102.12" rerouteNo="1" devices="tripinfo_h645c1:1 routing_h645c1:1 emissions_h645c1:1" vType="default_016" speedFactor="1.17" vaporized="">
        <emissions CO_abs="14935.863887" CO2_abs="594423.051498" HC_abs="81.860746" PMx_abs="11.553180" NOx_abs="247.271287" fuel_abs="255.520625" electricity_abs="0"/>
    </tripinfo>
    <tripinfo id="carIn121703:1" depart="57647.00" departLane="386687232#0_1" departPos="5.10" departSpeed="0.00" departDelay="0.30" arrival="57844.00" arrivalLane="-315358244_1" arrivalPos="33.95" arrivalSpeed="12.92" duration="197.00" routeLength="1157.39" waitingTime="88.00" waitingCount="2" stopTime="0.00" timeLoss="106.05" rerouteNo="1" devices="tripinfo_carIn121703:1 routing_carIn121703:1 emissions_carIn121703:1" vType="default_016" speedFactor="0.94" vaporized="">
        <emissions CO_abs="16747.384832" CO2_abs="473278.709354" HC_abs="87.310614" PMx_abs="9.479162" NOx_abs="200.669994" fuel_abs="203.448672" electricity_abs="0"/>
    </tripinfo>
    <tripinfo id="h2831c1:1" depart="57600.00" departLane="201089423#0_1" departPos="5.10" departSpeed="0.00" departDelay="0.00" arrival="57845.00" arrivalLane="-315358244_1" arrivalPos="33.95" arrivalSpeed="15.18" duration="245.00" routeLength="2672.18" waitingTime="41.00" waitingCount="3" stopTime="0.00" timeLoss="81.73" rerouteNo="1" devices="tripinfo_h2831c1:1 routing_h2831c1:1 emissions_h2831c1:1" vType="default_016" speedFactor="1.19" vaporized="">
        <emissions CO_abs="13009.752932" CO2_abs="722693.214010" HC_abs="75.697139" PMx_abs="13.148142" NOx_abs="292.612114" fuel_abs="310.656376" electricity_abs="0"/>
    </tripinfo>
    <tripinfo id="carIn8642:1" depart="57774.00" departLane="-447569998#1_1" departPos="5.10" departSpeed="0.00" departDelay="0.90" arrival="57847.00" arrivalLane="-315358244_1" arrivalPos="33.95" arrivalSpeed="13.78" duration="73.00" routeLength="706.49" waitingTime="2.00" waitingCount="1" stopTime="0.00" timeLoss="13.92" rerouteNo="1" devices="tripinfo_carIn8642:1 routing_carIn8642:1 emissions_carIn8642:1" vType="default_016" speedFactor="1.03" vaporized="">
        <emissions CO_abs="2715.290769" CO2_abs="165460.521237" HC_abs="16.175195" PMx_abs="2.716111" NOx_abs="66.126792" fuel_abs="71.124875" electricity_abs="0"/>
    </tripinfo>
    <tripinfo id="h8343c1:5" depart="57679.00" departLane="315358254#0_1" departPos="5.10" departSpeed="0.00" departDelay="0.60" arrival="57849.00" arrivalLane="-24634510#5_1" arrivalPos="236.88" arrivalSpeed="13.29" duration="170.00" routeLength="2056.84" waitingTime="22.00" waitingCount="2" stopTime="0.00" timeLoss="49.73" rerouteNo="1" devices="tripinfo_h8343c1:5 routing_h8343c1:5 emissions_h8343c1:5" vType="default_016" speedFactor="1.04" vaporized="">
        <emissions CO_abs="9551.230666" CO2_abs="581826.822200" HC_abs="57.310681" PMx_abs="11.108013" NOx_abs="238.060872" fuel_abs="250.102237" electricity_abs="0"/>
    </tripinfo>
    <tripinfo id="carIn12858:1" depart="57661.00" departLane="128361109#1_1" departPos="5.10" departSpeed="0.00" departDelay="0.90" arrival="57851.00" arrivalLane="399835085#1_1" arrivalPos="212.23" arrivalSpeed="8.16" duration="190.00" routeLength="1738.12" waitingTime="51.00" waitingCount="2" stopTime="0.00" timeLoss="84.83" rerouteNo="1" devices="tripinfo_carIn12858:1 routing_carIn12858:1 emissions_carIn12858:1" vType="default_016" speedFactor="1.10" vaporized="">
        <emissions CO_abs="14817.723799" CO2_abs="613901.695474" HC_abs="82.118978" PMx_abs="12.509102" NOx_abs="257.325621" fuel_abs="263.892597" electricity_abs="0"/>
    </tripinfo>
    <tripinfo id="randUni31145:1" depart="57814.00" departLane="10425609#0_1" departPos="5.10" departSpeed="0.00" departDelay="0.30" arrival="57864.00" arrivalLane="201956810_1" arrivalPos="71.65" arrivalSpeed="13.70" duration="50.00" routeLength="255.78" waitingTime="21.00" waitingCount="1" stopTime="0.00" timeLoss="30.76" rerouteNo="1" devices="tripinfo_randUni31145:1 routing_randUni31145:1 emissions_randUni31145:1" vType="random_016" speedFactor="1.02" vaporized="">
        <emissions CO_abs="5304.960829" CO2_abs="165811.734450" HC_abs="28.065498" PMx_abs="3.444569" NOx_abs="71.454633" fuel_abs="71.276908" electricity_abs="0"/>
    </tripinfo>
    <tripinfo id="50R_frequency3.17" depart="57674.00" departLane="-18809673#6_1" departPos="12.10" departSpeed="0.00" departDelay="0.70" arrival="57866.00" arrivalLane="201956811#0_1" arrivalPos="40.40" arrivalSpeed="11.18" duration="192.00" routeLength="1954.47" waitingTime="12.00" waitingCount="2" stopTime="0.00" timeLoss="47.32" rerouteNo="1" devices="tripinfo_50R_frequency3.17 routing_50R_frequency3.17 emissions_50R_frequency3.17" vType="bus" speedFactor="1.00" vaporized="">
        <emissions CO_abs="3568.861769" CO2_abs="2208887.317930" HC_abs="745.278498" PMx_abs="381.402953" NOx_abs="17224.128653" fuel_abs="942.047460" electricity_abs="0"/>
    </tripinfo>
    <tripinfo id="carIn81046:1" depart="57610.00" departLane="124812856#0_1" departPos="5.10" departSpeed="0.00" departDelay="1.50" arrival="57867.00" arrivalLane="-128361102#1_1" arrivalPos="274.68" arrivalSpeed="13.70" duration="257.00" routeLength="2250.49" waitingTime="48.00" waitingCount="5" stopTime="0.00" timeLoss="92.28" rerouteNo="1" devices="tripinfo_carIn81046:1 routing_carIn81046:1 emissions_carIn81046:1" vType="default_016" speedFactor="1.00" vaporized="">
        <emissions CO_abs="12732.877238" CO2_abs="633145.938675" HC_abs="72.759861" PMx_abs="11.298077" NOx_abs="258.574650" fuel_abs="272.164844" electricity_abs="0"/>
    </tripinfo>
    <tripinfo id="carIn81860:1" depart="57712.00" departLane="128361102#0_1" departPos="5.10" departSpeed="0.00" departDelay="0.60" arrival="57867.00" arrivalLane="-24634517#17_1" arrivalPos="6.43" arrivalSpeed="8.10" duration="155.00" routeLength="1229.64" waitingTime="41.00" waitingCount="3" stopTime="0.00" timeLoss="69.17" rerouteNo="1" devices="tripinfo_carIn81860:1 routing_carIn81860:1 emissions_carIn81860:1" vType="default_016" speedFactor="1.07" vaporized="">
        <emissions CO_abs="9180.993888" CO2_abs="380745.620738" HC_abs="50.744269" PMx_abs="7.118110" NOx_abs="157.311738" fuel_abs="163.668596" electricity_abs="0"/>
    </tripinfo>
    <tripinfo id="carIn86816:1" depart="57617.00" departLane="128361102#0_1" departPos="5.10" departSpeed="0.00" departDelay="0.80" arrival="57868.00" arrivalLane="201956811#0_1" arrivalPos="40.40" arrivalSpeed="12.16" duration="251.00" routeLength="2067.33" waitingTime="54.00" waitingCount="2" stopTime="0.00" timeLoss="87.23" rerouteNo="1" devices="tripinfo_carIn86816:1 routing_carIn86816:1 emissions_carIn86816:1" vType="default_016" speedFactor="0.92" vaporized="">
        <emissions CO_abs="13652.966717" CO2_abs="576467.335505" HC_abs="75.606130" PMx_abs="10.294555" NOx_abs="235.992674" fuel_abs="247.802621" electricity_abs="0"/>
    </tripinfo>