<?xml version="1.0" encoding="UTF-8"?>

<!-- generated on 2021-10-26 12:06:22 by Eclipse SUMO sumo Version 1.10.0
<configuration xmlns:xsi="http://www.w3.org/2001/XMLSchema-instance" xsi:noNamespaceSchemaLocation="http://sumo.dlr.de/xsd/sumoConfiguration.xsd">

    <input>
        <net-file value="/Users/behradkoohy/sumo-scratchpad/RESCO/environments/ingolstadt21/ingolstadt21.net.xml"/>
        <route-files value="/Users/behradkoohy/sumo-scratchpad/RESCO/environments/ingolstadt21/ingolstadt21.rou.xml"/>
    </input>

    <output>
        <tripinfo-output value="/Users/behradkoohy/sumo-scratchpad/RESCO/logs/IDQN-tr0-ingolstadt21-21-drq_norm-wait_norm/tripinfo_47.xml"/>
        <tripinfo-output.write-unfinished value="true"/>
    </output>

    <time>
        <begin value="57600"/>
        <end value="61200"/>
    </time>

    <processing>
        <time-to-teleport value="-1"/>
    </processing>

    <report>
        <no-warnings value="true"/>
        <no-step-log value="true"/>
    </report>

    <emissions>
        <device.emissions.probability value="1"/>
    </emissions>

    <traci_server>
        <remote-port value="57953"/>
    </traci_server>

    <random_number>
        <random value="true"/>
    </random_number>

</configuration>
-->

<tripinfos xmlns:xsi="http://www.w3.org/2001/XMLSchema-instance" xsi:noNamespaceSchemaLocation="http://sumo.dlr.de/xsd/tripinfo_file.xsd">
    <tripinfo id="h15454c2:3" depart="57612.00" departLane="24608844_1" departPos="5.10" departSpeed="0.00" departDelay="0.50" arrival="57655.00" arrivalLane="32978638#0_1" arrivalPos="49.29" arrivalSpeed="12.61" duration="43.00" routeLength="354.79" waitingTime="0.00" waitingCount="0" stopTime="0.00" timeLoss="6.41" rerouteNo="1" devices="tripinfo_h15454c2:3 routing_h15454c2:3 emissions_h15454c2:3" vType="default_016" speedFactor="0.94" vaporized="">
        <emissions CO_abs="2221.810607" CO2_abs="113333.381860" HC_abs="12.753028" PMx_abs="1.962138" NOx_abs="46.526148" fuel_abs="48.717597" electricity_abs="0"/>
    </tripinfo>
    <tripinfo id="carIn60260:1" depart="57606.00" departLane="315358254#0_1" departPos="5.10" departSpeed="0.00" departDelay="0.90" arrival="57670.00" arrivalLane="399835085#1_1" arrivalPos="212.23" arrivalSpeed="7.90" duration="64.00" routeLength="430.98" waitingTime="12.00" waitingCount="1" stopTime="0.00" timeLoss="21.53" rerouteNo="1" devices="tripinfo_carIn60260:1 routing_carIn60260:1 emissions_carIn60260:1" vType="default_016" speedFactor="1.09" vaporized="">
        <emissions CO_abs="3698.773746" CO2_abs="149911.004860" HC_abs="20.327445" PMx_abs="2.704635" NOx_abs="62.216053" fuel_abs="64.441377" electricity_abs="0"/>
    </tripinfo>
    <tripinfo id="carIn53971:1" depart="57640.00" departLane="272042143_1" departPos="5.10" departSpeed="0.00" departDelay="0.80" arrival="57690.00" arrivalLane="24634414#1_1" arrivalPos="162.19" arrivalSpeed="9.02" duration="50.00" routeLength="493.04" waitingTime="0.00" waitingCount="0" stopTime="0.00" timeLoss="9.73" rerouteNo="1" devices="tripinfo_carIn53971:1 routing_carIn53971:1 emissions_carIn53971:1" vType="default_016" speedFactor="1.14" vaporized="">
        <emissions CO_abs="2654.666202" CO2_abs="147861.952890" HC_abs="15.590673" PMx_abs="2.832283" NOx_abs="62.227464" fuel_abs="63.559482" electricity_abs="0"/>
    </tripinfo>
    <tripinfo id="carIn22761:1" depart="57616.00" departLane="-306240162#1_0" departPos="5.10" departSpeed="0.00" departDelay="2.10" arrival="57723.00" arrivalLane="399835085#1_1" arrivalPos="212.23" arrivalSpeed="7.47" duration="107.00" routeLength="1093.26" waitingTime="11.00" waitingCount="1" stopTime="0.00" timeLoss="31.79" rerouteNo="1" devices="tripinfo_carIn22761:1 routing_carIn22761:1 emissions_carIn22761:1" vType="default_016" speedFactor="1.04" vaporized="">
        <emissions CO_abs="6383.124180" CO2_abs="355194.646854" HC_abs="37.527904" PMx_abs="6.828362" NOx_abs="146.749787" fuel_abs="152.683141" electricity_abs="0"/>
    </tripinfo>
    <tripinfo id="S5R_frequency1.2" depart="57612.00" departLane="315358250#0_1" departPos="12.10" departSpeed="0.00" departDelay="0.40" arrival="57728.00" arrivalLane="386687235_1" arrivalPos="80.84" arrivalSpeed="13.49" duration="116.00" routeLength="1115.62" waitingTime="15.00" waitingCount="1" stopTime="0.00" timeLoss="34.32" rerouteNo="1" devices="tripinfo_S5R_frequency1.2 routing_S5R_frequency1.2 emissions_S5R_frequency1.2" vType="bus" speedFactor="1.00" vaporized="">
        <emissions CO_abs="2218.104502" CO2_abs="1301112.855173" HC_abs="474.776098" PMx_abs="235.894109" NOx_abs="10333.841405" fuel_abs="554.882375" electricity_abs="0"/>
    </tripinfo>
    <tripinfo id="h7181c1:1" depart="57660.00" departLane="315358254#0_1" departPos="5.10" departSpeed="0.00" departDelay="0.10" arrival="57730.00" arrivalLane="306240162#0_0" arrivalPos="220.43" arrivalSpeed="16.75" duration="70.00" routeLength="932.35" waitingTime="9.00" waitingCount="1" stopTime="0.00" timeLoss="20.39" rerouteNo="1" devices="tripinfo_h7181c1:1 routing_h7181c1:1 emissions_h7181c1:1" vType="default_016" speedFactor="1.04" vaporized="">
        <emissions CO_abs="4725.989618" CO2_abs="276661.780421" HC_abs="28.193747" PMx_abs="5.696171" NOx_abs="116.040497" fuel_abs="118.924471" electricity_abs="0"/>
    </tripinfo>
    <tripinfo id="h3688c1:1" depart="57625.00" departLane="201201950#1_1" departPos="5.10" departSpeed="0.00" departDelay="0.00" arrival="57731.00" arrivalLane="32978638#0_1" arrivalPos="49.29" arrivalSpeed="14.11" duration="106.00" routeLength="1089.75" waitingTime="13.00" waitingCount="1" stopTime="0.00" timeLoss="28.09" rerouteNo="1" devices="tripinfo_h3688c1:1 routing_h3688c1:1 emissions_h3688c1:1" vType="default_016" speedFactor="1.03" vaporized="">
        <emissions CO_abs="5057.628928" CO2_abs="295550.785049" HC_abs="29.995458" PMx_abs="5.383325" NOx_abs="121.249033" fuel_abs="127.044896" electricity_abs="0"/>
    </tripinfo>
    <tripinfo id="h12244c1:3" depart="57612.00" departLane="315358244_1" departPos="5.10" departSpeed="0.00" departDelay="0.40" arrival="57732.00" arrivalLane="386687235_1" arrivalPos="80.84" arrivalSpeed="13.05" duration="120.00" routeLength="1186.14" waitingTime="10.00" waitingCount="1" stopTime="0.00" timeLoss="28.75" rerouteNo="1" devices="tripinfo_h12244c1:3 routing_h12244c1:3 emissions_h12244c1:3" vType="default_016" speedFactor="0.95" vaporized="">
        <emissions CO_abs="5152.705488" CO2_abs="303064.081011" HC_abs="30.547842" PMx_abs="5.226923" NOx_abs="122.688275" fuel_abs="130.274940" electricity_abs="0"/>
    </tripinfo>
    <tripinfo id="h7800c1:5" depart="57696.00" departLane="-447569998#1_1" departPos="5.10" departSpeed="0.00" departDelay="0.00" arrival="57735.00" arrivalLane="-447569998#1_2" arrivalPos="180.76" arrivalSpeed="4.70" duration="39.00" routeLength="175.66" waitingTime="11.00" waitingCount="1" stopTime="0.00" timeLoss="18.52" rerouteNo="1" devices="tripinfo_h7800c1:5 routing_h7800c1:5 emissions_h7800c1:5" vType="default_016" speedFactor="1.05" vaporized="">
        <emissions CO_abs="3039.303898" CO2_abs="84488.597929" HC_abs="15.799061" PMx_abs="1.659882" NOx_abs="36.040979" fuel_abs="36.319224" electricity_abs="0"/>
    </tripinfo>
    <tripinfo id="carIn80064:1" depart="57603.00" departLane="128361109#1_1" departPos="5.10" departSpeed="0.00" departDelay="0.40" arrival="57737.00" arrivalLane="-315358254#1_1" arrivalPos="137.16" arrivalSpeed="11.66" duration="134.00" routeLength="1587.97" waitingTime="8.00" waitingCount="2" stopTime="0.00" timeLoss="34.70" rerouteNo="1" devices="tripinfo_carIn80064:1 routing_carIn80064:1 emissions_carIn80064:1" vType="default_016" speedFactor="0.90" vaporized="">
        <emissions CO_abs="6935.688027" CO2_abs="437230.073488" HC_abs="42.001403" PMx_abs="8.441575" NOx_abs="181.234788" fuel_abs="187.945812" electricity_abs="0"/>
    </tripinfo>
    <tripinfo id="carIn30817:1" depart="57681.00" departLane="315358244_1" departPos="5.10" departSpeed="0.00" departDelay="0.20" arrival="57745.00" arrivalLane="447569997#1_1" arrivalPos="180.93" arrivalSpeed="8.74" duration="64.00" routeLength="718.04" waitingTime="0.00" waitingCount="0" stopTime="0.00" timeLoss="6.43" rerouteNo="1" devices="tripinfo_carIn30817:1 routing_carIn30817:1 emissions_carIn30817:1" vType="default_016" speedFactor="1.07" vaporized="">
        <emissions CO_abs="2045.024764" CO2_abs="152796.872838" HC_abs="12.785822" PMx_abs="2.380739" NOx_abs="59.840046" fuel_abs="65.681111" electricity_abs="0"/>
    </tripinfo>
    <tripinfo id="h4538c1:1" depart="57701.00" departLane="-10427692#1_1" departPos="5.10" departSpeed="0.00" departDelay="0.00" arrival="57746.00" arrivalLane="-128361102#1_1" arrivalPos="274.68" arrivalSpeed="13.59" duration="45.00" routeLength="440.74" waitingTime="2.00" waitingCount="1" stopTime="0.00" timeLoss="13.13" rerouteNo="1" devices="tripinfo_h4538c1:1 routing_h4538c1:1 emissions_h4538c1:1" vType="default_016" speedFactor="0.99" vaporized="">
        <emissions CO_abs="1974.732371" CO2_abs="121339.937804" HC_abs="11.824235" PMx_abs="2.109244" NOx_abs="49.254419" fuel_abs="52.159006" electricity_abs="0"/>
    </tripinfo>
    <tripinfo id="h317c2:1" depart="57707.00" departLane="-32978638#0_1" departPos="5.10" departSpeed="0.00" departDelay="0.10" arrival="57746.00" arrivalLane="-266565295#5_1" arrivalPos="172.76" arrivalSpeed="13.06" duration="39.00" routeLength="370.53" waitingTime="2.00" waitingCount="1" stopTime="0.00" timeLoss="10.41" rerouteNo="1" devices="tripinfo_h317c2:1 routing_h317c2:1 emissions_h317c2:1" vType="default_016" speedFactor="0.96" vaporized="">
        <emissions CO_abs="2012.340007" CO2_abs="118619.198720" HC_abs="11.946512" PMx_abs="2.096051" NOx_abs="48.532811" fuel_abs="50.989477" electricity_abs="0"/>
    </tripinfo>
    <tripinfo id="h9563c2:5" depart="57631.00" departLane="315358244_1" departPos="5.10" departSpeed="0.00" departDelay="0.70" arrival="57747.00" arrivalLane="386687235_1" arrivalPos="80.84" arrivalSpeed="14.21" duration="116.00" routeLength="1186.14" waitingTime="10.00" waitingCount="1" stopTime="0.00" timeLoss="33.08" rerouteNo="1" devices="tripinfo_h9563c2:5 routing_h9563c2:5 emissions_h9563c2:5" vType="default_016" speedFactor="1.04" vaporized="">
        <emissions CO_abs="5142.768557" CO2_abs="308439.555397" HC_abs="30.630281" PMx_abs="5.306446" NOx_abs="124.533363" fuel_abs="132.585597" electricity_abs="0"/>
    </tripinfo>
    <tripinfo id="h3326c1:2" depart="57656.00" departLane="22716069#0_1" departPos="5.10" departSpeed="0.00" departDelay="0.00" arrival="57751.00" arrivalLane="24634517#13_1" arrivalPos="111.62" arrivalSpeed="15.97" duration="95.00" routeLength="1312.81" waitingTime="0.00" waitingCount="0" stopTime="0.00" timeLoss="14.43" rerouteNo="1" devices="tripinfo_h3326c1:2 routing_h3326c1:2 emissions_h3326c1:2" vType="default_016" speedFactor="1.21" vaporized="">
        <emissions CO_abs="4399.794571" CO2_abs="353891.813262" HC_abs="28.307871" PMx_abs="6.438000" NOx_abs="143.291815" fuel_abs="152.122018" electricity_abs="0"/>
    </tripinfo>
    <tripinfo id="h3568c1:3" depart="57656.00" departLane="266565295#5_1" departPos="5.10" departSpeed="0.00" departDelay="0.80" arrival="57762.00" arrivalLane="-24634415_1" arrivalPos="62.03" arrivalSpeed="12.71" duration="106.00" routeLength="807.40" waitingTime="21.00" waitingCount="1" stopTime="0.00" timeLoss="39.64" rerouteNo="1" devices="tripinfo_h3568c1:3 routing_h3568c1:3 emissions_h3568c1:3" vType="default_016" speedFactor="0.97" vaporized="">
        <emissions CO_abs="7159.162391" CO2_abs="288109.717877" HC_abs="39.368429" PMx_abs="5.563872" NOx_abs="121.309115" fuel_abs="123.847606" electricity_abs="0"/>
    </tripinfo>
    <tripinfo id="h3154c1:1" depart="57658.00" departLane="24634507_1" departPos="5.10" departSpeed="0.00" departDelay="0.00" arrival="57765.00" arrivalLane="-266565295#5_1" arrivalPos="172.76" arrivalSpeed="15.18" duration="107.00" routeLength="1206.22" waitingTime="8.00" waitingCount="1" stopTime="0.00" timeLoss="26.14" rerouteNo="1" devices="tripinfo_h3154c1:1 routing_h3154c1:1 emissions_h3154c1:1" vType="default_016" speedFactor="1.10" vaporized="">
        <emissions CO_abs="5310.260231" CO2_abs="326204.254193" HC_abs="31.813466" PMx_abs="6.120379" NOx_abs="134.792941" fuel_abs="140.221032" electricity_abs="0"/>
    </tripinfo>
    <tripinfo id="h330c1:1" depart="57736.00" departLane="-32978638#0_1" departPos="5.10" departSpeed="0.00" departDelay="0.20" arrival="57775.00" arrivalLane="-266565295#5_1" arrivalPos="172.76" arrivalSpeed="13.87" duration="39.00" routeLength="370.53" waitingTime="2.00" waitingCount="1" stopTime="0.00" timeLoss="11.69" rerouteNo="1" devices="tripinfo_h330c1:1 routing_h330c1:1 emissions_h330c1:1" vType="default_016" speedFactor="1.01" vaporized="">
        <emissions CO_abs="2169.241279" CO2_abs="127635.854103" HC_abs="12.893836" PMx_abs="2.363652" NOx_abs="52.886133" fuel_abs="54.865205" electricity_abs="0"/>
    </tripinfo>
    <tripinfo id="carIn121703:1" depart="57647.00" departLane="386687232#0_1" departPos="5.10" departSpeed="0.00" departDelay="0.30" arrival="57786.00" arrivalLane="-315358244_1" arrivalPos="33.95" arrivalSpeed="12.69" duration="139.00" routeLength="1157.39" waitingTime="37.00" waitingCount="2" stopTime="0.00" timeLoss="54.43" rerouteNo="1" devices="tripinfo_carIn121703:1 routing_carIn121703:1 emissions_carIn121703:1" vType="default_016" speedFactor="0.99" vaporized="">
        <emissions CO_abs="8326.585339" CO2_abs="324681.133362" HC_abs="45.477474" PMx_abs="6.143851" NOx_abs="134.870217" fuel_abs="139.568803" electricity_abs="0"/>
    </tripinfo>
    <tripinfo id="h645c1:1" depart="57622.00" departLane="266565295#5_1" departPos="5.10" departSpeed="0.00" departDelay="0.40" arrival="57787.00" arrivalLane="-315358244_2" arrivalPos="33.95" arrivalSpeed="13.67" duration="165.00" routeLength="1910.83" waitingTime="14.00" waitingCount="1" stopTime="0.00" timeLoss="30.39" rerouteNo="1" devices="tripinfo_h645c1:1 routing_h645c1:1 emissions_h645c1:1" vType="default_016" speedFactor="1.04" vaporized="">
        <emissions CO_abs="5894.801855" CO2_abs="410125.099342" HC_abs="36.403318" PMx_abs="6.821006" NOx_abs="162.585003" fuel_abs="176.295769" electricity_abs="0"/>
    </tripinfo>
    <tripinfo id="carIn86816:1" depart="57617.00" departLane="128361102#0_1" departPos="5.10" departSpeed="0.00" departDelay="0.80" arrival="57794.00" arrivalLane="201956811#0_1" arrivalPos="40.40" arrivalSpeed="15.33" duration="177.00" routeLength="2067.33" waitingTime="19.00" waitingCount="2" stopTime="0.00" timeLoss="48.52" rerouteNo="1" devices="tripinfo_carIn86816:1 routing_carIn86816:1 emissions_carIn86816:1" vType="default_016" speedFactor="1.18" vaporized="">
        <emissions CO_abs="8389.524034" CO2_abs="534774.370907" HC_abs="50.649477" PMx_abs="9.846376" NOx_abs="218.413161" fuel_abs="229.876407" electricity_abs="0"/>
    </tripinfo>
    <tripinfo id="carIn28951:1" depart="57606.00" departLane="10425609#0_1" departPos="5.10" departSpeed="0.00" departDelay="0.20" arrival="57795.00" arrivalLane="-128361102#1_1" arrivalPos="274.68" arrivalSpeed="14.41" duration="189.00" routeLength="2113.04" waitingTime="11.00" waitingCount="2" stopTime="0.00" timeLoss="39.87" rerouteNo="1" devices="tripinfo_carIn28951:1 routing_carIn28951:1 emissions_carIn28951:1" vType="default_016" speedFactor="1.04" vaporized="">
        <emissions CO_abs="8197.613065" CO2_abs="519952.166353" HC_abs="49.546901" PMx_abs="9.095164" NOx_abs="210.297313" fuel_abs="223.505682" electricity_abs="0"/>
    </tripinfo>
    <tripinfo id="carIn129809:1" depart="57729.00" departLane="-447569998#1_1" departPos="5.10" departSpeed="0.00" departDelay="1.00" arrival="57798.00" arrivalLane="-315358244_1" arrivalPos="33.95" arrivalSpeed="13.25" duration="69.00" routeLength="706.49" waitingTime="0.00" waitingCount="0" stopTime="0.00" timeLoss="7.44" rerouteNo="1" devices="tripinfo_carIn129809:1 routing_carIn129809:1 emissions_carIn129809:1" vType="default_015" speedFactor="0.98" vaporized="">
        <emissions CO_abs="2345.063388" CO2_abs="155987.417949" HC_abs="14.281566" PMx_abs="2.416585" NOx_abs="61.367044" fuel_abs="67.052813" electricity_abs="0"/>
    </tripinfo>
    <tripinfo id="carIn107084:1" depart="57601.00" departLane="124812856#0_1" departPos="5.10" departSpeed="0.00" departDelay="0.70" arrival="57799.00" arrivalLane="-128361102#1_1" arrivalPos="274.68" arrivalSpeed="12.62" duration="198.00" routeLength="2250.49" waitingTime="4.00" waitingCount="2" stopTime="0.00" timeLoss="31.51" rerouteNo="1" devices="tripinfo_carIn107084:1 routing_carIn107084:1 emissions_carIn107084:1" vType="default_016" speedFactor="0.99" vaporized="">
        <emissions CO_abs="6466.760660" CO2_abs="493058.783819" HC_abs="40.980588" PMx_abs="8.100455" NOx_abs="196.050773" fuel_abs="211.945025" electricity_abs="0"/>
    </tripinfo>
    <tripinfo id="carIn118591:1" depart="57689.00" departLane="315358244_1" departPos="5.10" departSpeed="0.00" departDelay="0.20" arrival="57799.00" arrivalLane="386687235_1" arrivalPos="80.84" arrivalSpeed="13.95" duration="110.00" routeLength="1186.14" waitingTime="4.00" waitingCount="2" stopTime="0.00" timeLoss="23.85" rerouteNo="1" devices="tripinfo_carIn118591:1 routing_carIn118591:1 emissions_carIn118591:1" vType="default_016" speedFactor="1.01" vaporized="">
        <emissions CO_abs="4311.385221" CO2_abs="305043.838940" HC_abs="26.780578" PMx_abs="5.178561" NOx_abs="122.512183" fuel_abs="131.125382" electricity_abs="0"/>
    </tripinfo>
    <tripinfo id="carIn12365:1" depart="57713.00" departLane="315358244_1" departPos="5.10" departSpeed="0.00" departDelay="0.50" arrival="57799.00" arrivalLane="447569997#1_1" arrivalPos="180.93" arrivalSpeed="7.21" duration="86.00" routeLength="718.04" waitingTime="7.00" waitingCount="1" stopTime="0.00" timeLoss="20.76" rerouteNo="1" devices="tripinfo_carIn12365:1 routing_carIn12365:1 emissions_carIn12365:1" vType="default_016" speedFactor="0.94" vaporized="">
        <emissions CO_abs="3561.875777" CO2_abs="184023.431091" HC_abs="20.492321" PMx_abs="3.110332" NOx_abs="74.638382" fuel_abs="79.104611" electricity_abs="0"/>
    </tripinfo>
    <tripinfo id="h5979c1:5" depart="57669.00" departLane="399835085#1_1" departPos="5.10" departSpeed="0.00" departDelay="0.00" arrival="57800.00" arrivalLane="-315358254#1_1" arrivalPos="137.16" arrivalSpeed="11.20" duration="131.00" routeLength="659.33" waitingTime="30.00" waitingCount="1" stopTime="0.00" timeLoss="43.26" rerouteNo="1" devices="tripinfo_h5979c1:5 routing_h5979c1:5 emissions_h5979c1:5" vType="default_016" speedFactor="0.84" vaporized="">
        <emissions CO_abs="8684.564164" CO2_abs="242473.530428" HC_abs="45.135292" PMx_abs="4.589396" NOx_abs="102.388827" fuel_abs="104.232639" electricity_abs="0"/>
    </tripinfo>
    <tripinfo id="carIn77943:1" depart="57607.00" departLane="124812856#0_1" departPos="5.10" departSpeed="0.00" departDelay="1.50" arrival="57801.00" arrivalLane="-128361102#1_1" arrivalPos="274.68" arrivalSpeed="16.80" duration="194.00" routeLength="2232.46" waitingTime="5.00" waitingCount="1" stopTime="0.00" timeLoss="70.15" rerouteNo="1" devices="tripinfo_carIn77943:1 routing_carIn77943:1 emissions_carIn77943:1" vType="default_016" speedFactor="1.32" vaporized="">
        <emissions CO_abs="9398.605721" CO2_abs="636957.350600" HC_abs="57.763409" PMx_abs="11.882361" NOx_abs="262.043018" fuel_abs="273.799639" electricity_abs="0"/>
    </tripinfo>
    <tripinfo id="h19804c1:3" depart="57617.00" departLane="124812856#0_1" departPos="5.10" departSpeed="0.00" departDelay="1.50" arrival="57802.00" arrivalLane="-128361102#1_1" arrivalPos="274.68" arrivalSpeed="16.46" duration="185.00" routeLength="2232.46" waitingTime="9.00" waitingCount="1" stopTime="0.00" timeLoss="49.32" rerouteNo="1" devices="tripinfo_h19804c1:3 routing_h19804c1:3 emissions_h19804c1:3" vType="default_016" speedFactor="1.20" vaporized="">
        <emissions CO_abs="7734.245453" CO2_abs="567388.547240" HC_abs="48.299535" PMx_abs="10.229819" NOx_abs="230.501585" fuel_abs="243.895126" electricity_abs="0"/>
    </tripinfo>
    <tripinfo id="carIn48184:1" depart="57613.00" departLane="-306240162#1_0" departPos="5.10" departSpeed="0.00" departDelay="0.70" arrival="57804.00" arrivalLane="386687235_2" arrivalPos="80.84" arrivalSpeed="14.90" duration="191.00" routeLength="2257.41" waitingTime="16.00" waitingCount="3" stopTime="0.00" timeLoss="55.82" rerouteNo="1" devices="tripinfo_carIn48184:1 routing_carIn48184:1 emissions_carIn48184:1" vType="default_016" speedFactor="1.11" vaporized="">
        <emissions CO_abs="9863.250994" CO2_abs="633164.896877" HC_abs="59.917628" PMx_abs="11.879639" NOx_abs="259.057459" fuel_abs="272.169987" electricity_abs="0"/>
    </tripinfo>
    <tripinfo id="h16072c2:3" depart="57663.00" departLane="315358254#0_1" departPos="5.10" departSpeed="0.00" departDelay="2.50" arrival="57804.00" arrivalLane="386687235_1" arrivalPos="80.84" arrivalSpeed="14.12" duration="141.00" routeLength="1611.92" waitingTime="12.00" waitingCount="2" stopTime="0.00" timeLoss="33.68" rerouteNo="1" devices="tripinfo_h16072c2:3 routing_h16072c2:3 emissions_h16072c2:3" vType="default_016" speedFactor="1.10" vaporized="">
        <emissions CO_abs="5043.534285" CO2_abs="368838.375636" HC_abs="31.474446" PMx_abs="6.431808" NOx_abs="148.300754" fuel_abs="158.547598" electricity_abs="0"/>
    </tripinfo>
    <tripinfo id="carIn82220:1" depart="57619.00" departLane="-306240162#1_0" departPos="5.10" departSpeed="0.00" departDelay="3.50" arrival="57806.00" arrivalLane="386687235_1" arrivalPos="80.84" arrivalSpeed="13.80" duration="187.00" routeLength="2257.41" waitingTime="12.00" waitingCount="2" stopTime="0.00" timeLoss="43.56" rerouteNo="1" devices="tripinfo_carIn82220:1 routing_carIn82220:1 emissions_carIn82220:1" vType="default_016" speedFactor="1.04" vaporized="">
        <emissions CO_abs="7800.337913" CO2_abs="559067.834269" HC_abs="48.757529" PMx_abs="10.113962" NOx_abs="226.115339" fuel_abs="240.318713" electricity_abs="0"/>
    </tripinfo>
    <tripinfo id="carIn27009:1" depart="57673.00" departLane="-447569998#1_1" departPos="5.10" departSpeed="0.00" departDelay="0.50" arrival="57810.00" arrivalLane="-26677539_1" arrivalPos="152.75" arrivalSpeed="7.61" duration="137.00" routeLength="699.63" waitingTime="29.00" waitingCount="1" stopTime="0.00" timeLoss="45.08" rerouteNo="1" devices="tripinfo_carIn27009:1 routing_carIn27009:1 emissions_carIn27009:1" vType="default_015" speedFactor="0.92" vaporized="">
        <emissions CO_abs="8841.968997" CO2_abs="265419.929290" HC_abs="46.391086" PMx_abs="4.981849" NOx_abs="111.954869" fuel_abs="114.096139" electricity_abs="0"/>
    </tripinfo>
    <tripinfo id="carIn50326:1" depart="57651.00" departLane="128361102#0_1" departPos="5.10" departSpeed="0.00" departDelay="0.30" arrival="57813.00" arrivalLane="18809673#0_1" arrivalPos="473.56" arrivalSpeed="13.29" duration="162.00" routeLength="1591.07" waitingTime="6.00" waitingCount="1" stopTime="0.00" timeLoss="31.13" rerouteNo="1" devices="tripinfo_carIn50326:1 routing_carIn50326:1 emissions_carIn50326:1" vType="default_016" speedFactor="0.99" vaporized="">
        <emissions CO_abs="5349.283775" CO2_abs="355801.911017" HC_abs="32.570207" PMx_abs="5.669423" NOx_abs="140.858431" fuel_abs="152.944916" electricity_abs="0"/>
    </tripinfo>
    <tripinfo id="carIn107282:1" depart="57749.00" departLane="-447569998#1_1" departPos="5.10" departSpeed="0.00" departDelay="0.00" arrival="57817.00" arrivalLane="315358242#0_1" arrivalPos="165.37" arrivalSpeed="12.84" duration="68.00" routeLength="448.50" waitingTime="14.00" waitingCount="1" stopTime="0.00" timeLoss="24.22" rerouteNo="1" devices="tripinfo_carIn107282:1 routing_carIn107282:1 emissions_carIn107282:1" vType="default_016" speedFactor="0.96" vaporized="">
        <emissions CO_abs="3548.056429" CO2_abs="136703.534857" HC_abs="19.334569" PMx_abs="2.476636" NOx_abs="56.547465" fuel_abs="58.764118" electricity_abs="0"/>
    </tripinfo>
    <tripinfo id="carIn462:1" depart="57622.00" departLane="-306240162#1_0" departPos="5.10" departSpeed="0.00" departDelay="4.80" arrival="57824.00" arrivalLane="386687235_1" arrivalPos="80.84" arrivalSpeed="13.44" duration="202.00" routeLength="2257.41" waitingTime="12.00" waitingCount="3" stopTime="0.00" timeLoss="48.99" rerouteNo="1" devices="tripinfo_carIn462:1 routing_carIn462:1 emissions_carIn462:1" vType="default_016" speedFactor="0.98" vaporized="">
        <emissions CO_abs="8455.214695" CO2_abs="590068.239622" HC_abs="52.381430" PMx_abs="10.385504" NOx_abs="238.066759" fuel_abs="253.644922" electricity_abs="0"/>
    </tripinfo>
    <tripinfo id="h3864c1:3" depart="57678.00" departLane="24693977#1_1" departPos="5.10" departSpeed="0.00" departDelay="0.00" arrival="57825.00" arrivalLane="201956820_2" arrivalPos="48.33" arrivalSpeed="13.82" duration="147.00" routeLength="1574.85" waitingTime="0.00" waitingCount="0" stopTime="0.00" timeLoss="18.35" rerouteNo="1" devices="tripinfo_h3864c1:3 routing_h3864c1:3 emissions_h3864c1:3" vType="default_016" speedFactor="1.01" vaporized="">
        <emissions CO_abs="4916.370564" CO2_abs="347283.439437" HC_abs="30.401044" PMx_abs="5.655202" NOx_abs="138.283825" fuel_abs="149.282714" electricity_abs="0"/>
    </tripinfo>
    <tripinfo id="h11737c1:1" depart="57665.00" departLane="272042143_1" departPos="5.10" departSpeed="0.00" departDelay="1.50" arrival="57828.00" arrivalLane="-315358254#1_1" arrivalPos="137.16" arrivalSpeed="12.82" duration="163.00" routeLength="1596.88" waitingTime="21.00" waitingCount="2" stopTime="0.00" timeLoss="42.32" rerouteNo="1" devices="tripinfo_h11737c1:1 routing_h11737c1:1 emissions_h11737c1:1" vType="default_016" speedFactor="0.97" vaporized="">
        <emissions CO_abs="6802.625509" CO2_abs="379150.798058" HC_abs="39.837734" PMx_abs="6.584690" NOx_abs="153.553512" fuel_abs="162.981789" electricity_abs="0"/>
    </tripinfo>
    <tripinfo id="carIn126288:1" depart="57674.00" departLane="272042143_1" departPos="5.10" departSpeed="0.00" departDelay="0.00" arrival="57829.00" arrivalLane="-315358254#1_1" arrivalPos="137.16" arrivalSpeed="13.75" duration="155.00" routeLength="1596.88" waitingTime="19.00" waitingCount="2" stopTime="0.00" timeLoss="56.17" rerouteNo="1" devices="tripinfo_carIn126288:1 routing_carIn126288:1 emissions_carIn126288:1" vType="default_016" speedFactor="1.18" vaporized="">
        <emissions CO_abs="5940.080045" CO2_abs="378761.081062" HC_abs="35.889322" PMx_abs="6.697763" NOx_abs="153.678708" fuel_abs="162.813388" electricity_abs="0"/>
    </tripinfo>
    <tripinfo id="carIn102915:1" depart="57643.00" departLane="128361102#0_1" departPos="5.10" departSpeed="0.00" departDelay="0.40" arrival="57831.00" arrivalLane="201956811#0_1" arrivalPos="40.40" arrivalSpeed="13.81" duration="188.00" routeLength="2067.33" waitingTime="11.00" waitingCount="2" stopTime="0.00" timeLoss="38.03" rerouteNo="1" devices="tripinfo_carIn102915:1 routing_carIn102915:1 emissions_carIn102915:1" vType="default_016" speedFactor="1.01" vaporized="">
        <emissions CO_abs="5961.215355" CO2_abs="466402.761087" HC_abs="38.019547" PMx_abs="7.599937" NOx_abs="184.672362" fuel_abs="200.486728" electricity_abs="0"/>
    </tripinfo>
    <tripinfo id="h6541c1:3" depart="57727.00" departLane="201950247#3_1" departPos="5.10" departSpeed="0.00" departDelay="0.00" arrival="57833.00" arrivalLane="32978638#0_1" arrivalPos="49.29" arrivalSpeed="15.24" duration="106.00" routeLength="1176.17" waitingTime="0.00" waitingCount="0" stopTime="0.00" timeLoss="15.10" rerouteNo="1" devices="tripinfo_h6541c1:3 routing_h6541c1:3 emissions_h6541c1:3" vType="default_016" speedFactor="1.13" vaporized="">
        <emissions CO_abs="4462.956426" CO2_abs="314177.030931" HC_abs="27.548693" PMx_abs="5.399514" NOx_abs="126.627701" fuel_abs="135.051241" electricity_abs="0"/>
    </tripinfo>
    <tripinfo id="carIn81046:1" depart="57611.00" departLane="124812856#0_1" departPos="5.10" departSpeed="0.00" departDelay="2.50" arrival="57834.00" arrivalLane="-128361102#1_1" arrivalPos="274.68" arrivalSpeed="12.62" duration="223.00" routeLength="2250.49" waitingTime="27.00" waitingCount="2" stopTime="0.00" timeLoss="56.65" rerouteNo="1" devices="tripinfo_carIn81046:1 routing_carIn81046:1 emissions_carIn81046:1" vType="default_016" speedFactor="0.99" vaporized="">
        <emissions CO_abs="10014.817983" CO2_abs="571047.796539" HC_abs="58.968781" PMx_abs="9.934526" NOx_abs="231.081415" fuel_abs="245.470455" electricity_abs="0"/>
    </tripinfo>
    <tripinfo id="carIn77438:1" depart="57614.00" departLane="124812856#0_1" departPos="5.10" departSpeed="0.00" departDelay="1.10" arrival="57838.00" arrivalLane="-128361102#1_1" arrivalPos="274.68" arrivalSpeed="12.96" duration="224.00" routeLength="2250.49" waitingTime="22.00" waitingCount="2" stopTime="0.00" timeLoss="55.04" rerouteNo="1" devices="tripinfo_carIn77438:1 routing_carIn77438:1 emissions_carIn77438:1" vType="default_016" speedFactor="0.97" vaporized="">
        <emissions CO_abs="8148.355974" CO2_abs="534740.080000" HC_abs="49.544203" PMx_abs="8.648748" NOx_abs="211.845515" fuel_abs="229.863211" electricity_abs="0"/>
    </tripinfo>
    <tripinfo id="carIn81860:1" depart="57712.00" departLane="128361102#0_1" departPos="5.10" departSpeed="0.00" departDelay="0.60" arrival="57839.00" arrivalLane="-24634517#17_1" arrivalPos="6.43" arrivalSpeed="7.03" duration="127.00" routeLength="1229.64" waitingTime="17.00" waitingCount="1" stopTime="0.00" timeLoss="36.08" rerouteNo="1" devices="tripinfo_carIn81860:1 routing_carIn81860:1 emissions_carIn81860:1" vType="default_016" speedFactor="0.99" vaporized="">
        <emissions CO_abs="5534.367494" CO2_abs="298499.557505" HC_abs="32.162056" PMx_abs="5.077786" NOx_abs="120.108666" fuel_abs="128.313368" electricity_abs="0"/>
    </tripinfo>