<?xml version="1.0" encoding="UTF-8"?>

<!-- generated on 2021-10-26 12:23:04 by Eclipse SUMO sumo Version 1.10.0
<configuration xmlns:xsi="http://www.w3.org/2001/XMLSchema-instance" xsi:noNamespaceSchemaLocation="http://sumo.dlr.de/xsd/sumoConfiguration.xsd">

    <input>
        <net-file value="/Users/behradkoohy/sumo-scratchpad/RESCO/environments/ingolstadt21/ingolstadt21.net.xml"/>
        <route-files value="/Users/behradkoohy/sumo-scratchpad/RESCO/environments/ingolstadt21/ingolstadt21.rou.xml"/>
    </input>

    <output>
        <tripinfo-output value="/Users/behradkoohy/sumo-scratchpad/RESCO/logs/IDQN-tr0-ingolstadt21-21-drq_norm-wait_norm/tripinfo_59.xml"/>
        <tripinfo-output.write-unfinished value="true"/>
    </output>

    <time>
        <begin value="57600"/>
        <end value="61200"/>
    </time>

    <processing>
        <time-to-teleport value="-1"/>
    </processing>

    <report>
        <no-warnings value="true"/>
        <no-step-log value="true"/>
    </report>

    <emissions>
        <device.emissions.probability value="1"/>
    </emissions>

    <traci_server>
        <remote-port value="58208"/>
    </traci_server>

    <random_number>
        <random value="true"/>
    </random_number>

</configuration>
-->

<tripinfos xmlns:xsi="http://www.w3.org/2001/XMLSchema-instance" xsi:noNamespaceSchemaLocation="http://sumo.dlr.de/xsd/tripinfo_file.xsd">
    <tripinfo id="h15454c2:3" depart="57612.00" departLane="24608844_1" departPos="5.10" departSpeed="0.00" departDelay="0.50" arrival="57654.00" arrivalLane="32978638#0_1" arrivalPos="49.29" arrivalSpeed="12.98" duration="42.00" routeLength="354.79" waitingTime="0.00" waitingCount="0" stopTime="0.00" timeLoss="6.82" rerouteNo="1" devices="tripinfo_h15454c2:3 routing_h15454c2:3 emissions_h15454c2:3" vType="default_016" speedFactor="0.98" vaporized="">
        <emissions CO_abs="2116.070533" CO2_abs="110746.271184" HC_abs="12.227519" PMx_abs="1.989275" NOx_abs="45.889729" fuel_abs="47.605347" electricity_abs="0"/>
    </tripinfo>
    <tripinfo id="carIn60260:1" depart="57606.00" departLane="315358254#0_1" departPos="5.10" departSpeed="0.00" departDelay="0.90" arrival="57677.00" arrivalLane="399835085#1_1" arrivalPos="212.23" arrivalSpeed="6.82" duration="71.00" routeLength="430.98" waitingTime="11.00" waitingCount="1" stopTime="0.00" timeLoss="20.61" rerouteNo="1" devices="tripinfo_carIn60260:1 routing_carIn60260:1 emissions_carIn60260:1" vType="default_016" speedFactor="0.92" vaporized="">
        <emissions CO_abs="4493.708229" CO2_abs="152030.003875" HC_abs="23.980626" PMx_abs="2.794973" NOx_abs="63.640489" fuel_abs="65.352793" electricity_abs="0"/>
    </tripinfo>
    <tripinfo id="carIn53971:1" depart="57640.00" departLane="272042143_1" departPos="5.10" departSpeed="0.00" departDelay="0.80" arrival="57699.00" arrivalLane="24634414#1_1" arrivalPos="162.19" arrivalSpeed="6.61" duration="59.00" routeLength="493.04" waitingTime="0.00" waitingCount="0" stopTime="0.00" timeLoss="8.73" rerouteNo="1" devices="tripinfo_carIn53971:1 routing_carIn53971:1 emissions_carIn53971:1" vType="default_016" speedFactor="0.91" vaporized="">
        <emissions CO_abs="2370.453645" CO2_abs="124828.228251" HC_abs="13.695008" PMx_abs="2.131615" NOx_abs="50.979612" fuel_abs="53.658771" electricity_abs="0"/>
    </tripinfo>
    <tripinfo id="h12244c1:3" depart="57612.00" departLane="315358244_1" departPos="5.10" departSpeed="0.00" departDelay="0.40" arrival="57706.00" arrivalLane="386687235_1" arrivalPos="80.84" arrivalSpeed="13.56" duration="94.00" routeLength="1186.14" waitingTime="0.00" waitingCount="0" stopTime="0.00" timeLoss="11.83" rerouteNo="1" devices="tripinfo_h12244c1:3 routing_h12244c1:3 emissions_h12244c1:3" vType="default_016" speedFactor="1.05" vaporized="">
        <emissions CO_abs="2931.232940" CO2_abs="247973.454915" HC_abs="19.143030" PMx_abs="4.030541" NOx_abs="97.712645" fuel_abs="106.593105" electricity_abs="0"/>
    </tripinfo>
    <tripinfo id="S5R_frequency1.2" depart="57624.00" departLane="315358250#0_1" departPos="12.10" departSpeed="0.00" departDelay="12.40" arrival="57716.00" arrivalLane="386687235_1" arrivalPos="80.84" arrivalSpeed="13.31" duration="92.00" routeLength="1115.62" waitingTime="0.00" waitingCount="0" stopTime="0.00" timeLoss="10.36" rerouteNo="1" devices="tripinfo_S5R_frequency1.2 routing_S5R_frequency1.2 emissions_S5R_frequency1.2" vType="bus" speedFactor="1.00" vaporized="">
        <emissions CO_abs="1680.236232" CO2_abs="1074488.914837" HC_abs="353.965748" PMx_abs="180.678313" NOx_abs="8277.148907" fuel_abs="458.265918" electricity_abs="0"/>
    </tripinfo>
    <tripinfo id="carIn80064:1" depart="57603.00" departLane="128361109#1_1" departPos="5.10" departSpeed="0.00" departDelay="0.40" arrival="57721.00" arrivalLane="-315358254#1_1" arrivalPos="137.16" arrivalSpeed="12.89" duration="118.00" routeLength="1587.97" waitingTime="1.00" waitingCount="1" stopTime="0.00" timeLoss="29.31" rerouteNo="1" devices="tripinfo_carIn80064:1 routing_carIn80064:1 emissions_carIn80064:1" vType="default_016" speedFactor="1.01" vaporized="">
        <emissions CO_abs="7158.431760" CO2_abs="471615.616274" HC_abs="43.932208" PMx_abs="9.352496" NOx_abs="196.355623" fuel_abs="202.726059" electricity_abs="0"/>
    </tripinfo>
    <tripinfo id="h7800c1:5" depart="57696.00" departLane="-447569998#1_1" departPos="5.10" departSpeed="0.00" departDelay="0.00" arrival="57725.00" arrivalLane="-447569998#1_2" arrivalPos="180.76" arrivalSpeed="3.07" duration="29.00" routeLength="175.66" waitingTime="2.00" waitingCount="1" stopTime="0.00" timeLoss="9.28" rerouteNo="1" devices="tripinfo_h7800c1:5 routing_h7800c1:5 emissions_h7800c1:5" vType="default_016" speedFactor="1.08" vaporized="">
        <emissions CO_abs="1308.064354" CO2_abs="52100.437299" HC_abs="7.161830" PMx_abs="0.925012" NOx_abs="21.663439" fuel_abs="22.396141" electricity_abs="0"/>
    </tripinfo>
    <tripinfo id="h3688c1:1" depart="57625.00" departLane="201201950#1_1" departPos="5.10" departSpeed="0.00" departDelay="0.00" arrival="57733.00" arrivalLane="32978638#0_1" arrivalPos="49.29" arrivalSpeed="11.92" duration="108.00" routeLength="1089.75" waitingTime="7.00" waitingCount="1" stopTime="0.00" timeLoss="21.42" rerouteNo="1" devices="tripinfo_h3688c1:1 routing_h3688c1:1 emissions_h3688c1:1" vType="default_016" speedFactor="0.92" vaporized="">
        <emissions CO_abs="3589.767239" CO2_abs="236729.941667" HC_abs="21.866783" PMx_abs="3.917183" NOx_abs="94.852520" fuel_abs="101.760461" electricity_abs="0"/>
    </tripinfo>
    <tripinfo id="h3568c1:3" depart="57656.00" departLane="266565295#5_1" departPos="5.10" departSpeed="0.00" departDelay="0.80" arrival="57739.00" arrivalLane="-24634415_1" arrivalPos="62.03" arrivalSpeed="11.98" duration="83.00" routeLength="807.40" waitingTime="0.00" waitingCount="0" stopTime="0.00" timeLoss="10.82" rerouteNo="1" devices="tripinfo_h3568c1:3 routing_h3568c1:3 emissions_h3568c1:3" vType="default_016" speedFactor="0.91" vaporized="">
        <emissions CO_abs="3140.340272" CO2_abs="197516.314438" HC_abs="18.895824" PMx_abs="3.264613" NOx_abs="79.436668" fuel_abs="84.904232" electricity_abs="0"/>
    </tripinfo>
    <tripinfo id="h7181c1:1" depart="57660.00" departLane="315358254#0_1" departPos="5.10" departSpeed="0.00" departDelay="0.10" arrival="57739.00" arrivalLane="306240162#0_0" arrivalPos="220.43" arrivalSpeed="19.18" duration="79.00" routeLength="932.35" waitingTime="13.00" waitingCount="2" stopTime="0.00" timeLoss="35.07" rerouteNo="1" devices="tripinfo_h7181c1:1 routing_h7181c1:1 emissions_h7181c1:1" vType="default_016" speedFactor="1.19" vaporized="">
        <emissions CO_abs="5720.328645" CO2_abs="336089.945991" HC_abs="34.193723" PMx_abs="7.022176" NOx_abs="141.092731" fuel_abs="144.469853" electricity_abs="0"/>
    </tripinfo>
    <tripinfo id="carIn121703:1" depart="57647.00" departLane="386687232#0_1" departPos="5.10" departSpeed="0.00" departDelay="0.30" arrival="57742.00" arrivalLane="-315358244_1" arrivalPos="33.95" arrivalSpeed="14.17" duration="95.00" routeLength="1157.39" waitingTime="5.00" waitingCount="1" stopTime="0.00" timeLoss="18.68" rerouteNo="1" devices="tripinfo_carIn121703:1 routing_carIn121703:1 emissions_carIn121703:1" vType="default_016" speedFactor="1.11" vaporized="">
        <emissions CO_abs="3274.244276" CO2_abs="250878.714596" HC_abs="20.764435" PMx_abs="4.300744" NOx_abs="100.263819" fuel_abs="107.841870" electricity_abs="0"/>
    </tripinfo>
    <tripinfo id="h3154c1:1" depart="57658.00" departLane="24634507_1" departPos="5.10" departSpeed="0.00" departDelay="0.00" arrival="57747.00" arrivalLane="-266565295#5_1" arrivalPos="172.76" arrivalSpeed="15.75" duration="89.00" routeLength="1206.22" waitingTime="0.00" waitingCount="0" stopTime="0.00" timeLoss="11.28" rerouteNo="1" devices="tripinfo_h3154c1:1 routing_h3154c1:1 emissions_h3154c1:1" vType="default_016" speedFactor="1.16" vaporized="">
        <emissions CO_abs="3485.081072" CO2_abs="287058.905491" HC_abs="22.579261" PMx_abs="5.003601" NOx_abs="115.041011" fuel_abs="123.393834" electricity_abs="0"/>
    </tripinfo>
    <tripinfo id="h4538c1:1" depart="57701.00" departLane="-10427692#1_1" departPos="5.10" departSpeed="0.00" departDelay="0.00" arrival="57752.00" arrivalLane="-128361102#1_1" arrivalPos="274.68" arrivalSpeed="16.15" duration="51.00" routeLength="440.74" waitingTime="12.00" waitingCount="1" stopTime="0.00" timeLoss="23.77" rerouteNo="1" devices="tripinfo_h4538c1:1 routing_h4538c1:1 emissions_h4538c1:1" vType="default_016" speedFactor="1.17" vaporized="">
        <emissions CO_abs="3052.915329" CO2_abs="151336.041134" HC_abs="17.481948" PMx_abs="2.880227" NOx_abs="62.539956" fuel_abs="65.053265" electricity_abs="0"/>
    </tripinfo>
    <tripinfo id="h317c2:1" depart="57707.00" departLane="-32978638#0_1" departPos="5.10" departSpeed="0.00" departDelay="0.10" arrival="57756.00" arrivalLane="-266565295#5_1" arrivalPos="172.76" arrivalSpeed="12.53" duration="49.00" routeLength="370.53" waitingTime="12.00" waitingCount="1" stopTime="0.00" timeLoss="19.94" rerouteNo="1" devices="tripinfo_h317c2:1 routing_h317c2:1 emissions_h317c2:1" vType="default_016" speedFactor="0.96" vaporized="">
        <emissions CO_abs="3182.465727" CO2_abs="132876.785158" HC_abs="17.630639" PMx_abs="2.619503" NOx_abs="56.290900" fuel_abs="57.118584" electricity_abs="0"/>
    </tripinfo>
    <tripinfo id="h9563c2:5" depart="57631.00" departLane="315358244_1" departPos="5.10" departSpeed="0.00" departDelay="0.70" arrival="57757.00" arrivalLane="386687235_1" arrivalPos="80.84" arrivalSpeed="10.74" duration="126.00" routeLength="1186.14" waitingTime="8.00" waitingCount="1" stopTime="0.00" timeLoss="23.34" rerouteNo="1" devices="tripinfo_h9563c2:5 routing_h9563c2:5 emissions_h9563c2:5" vType="default_016" speedFactor="0.84" vaporized="">
        <emissions CO_abs="4279.412693" CO2_abs="248835.449552" HC_abs="25.231944" PMx_abs="3.921518" NOx_abs="98.711819" fuel_abs="106.964824" electricity_abs="0"/>
    </tripinfo>
    <tripinfo id="carIn28951:1" depart="57606.00" departLane="10425609#0_1" departPos="5.10" departSpeed="0.00" departDelay="0.20" arrival="57762.00" arrivalLane="-128361102#1_1" arrivalPos="274.68" arrivalSpeed="15.11" duration="156.00" routeLength="2095.01" waitingTime="0.00" waitingCount="0" stopTime="0.00" timeLoss="23.67" rerouteNo="1" devices="tripinfo_carIn28951:1 routing_carIn28951:1 emissions_carIn28951:1" vType="default_016" speedFactor="1.17" vaporized="">
        <emissions CO_abs="5755.853460" CO2_abs="476202.770100" HC_abs="37.241210" PMx_abs="8.300837" NOx_abs="190.394817" fuel_abs="204.698358" electricity_abs="0"/>
    </tripinfo>
    <tripinfo id="h5979c1:5" depart="57669.00" departLane="399835085#1_1" departPos="5.10" departSpeed="0.00" departDelay="0.00" arrival="57771.00" arrivalLane="-315358254#1_1" arrivalPos="137.16" arrivalSpeed="13.84" duration="102.00" routeLength="659.33" waitingTime="0.00" waitingCount="0" stopTime="0.00" timeLoss="32.48" rerouteNo="1" devices="tripinfo_h5979c1:5 routing_h5979c1:5 emissions_h5979c1:5" vType="default_016" speedFactor="1.06" vaporized="">
        <emissions CO_abs="4801.900396" CO2_abs="204204.927819" HC_abs="26.545571" PMx_abs="3.527857" NOx_abs="84.104271" fuel_abs="87.780382" electricity_abs="0"/>
    </tripinfo>
    <tripinfo id="carIn86816:1" depart="57617.00" departLane="128361102#0_1" departPos="5.10" departSpeed="0.00" departDelay="0.80" arrival="57773.00" arrivalLane="201956811#0_1" arrivalPos="40.40" arrivalSpeed="14.80" duration="156.00" routeLength="2067.33" waitingTime="0.00" waitingCount="0" stopTime="0.00" timeLoss="16.29" rerouteNo="1" devices="tripinfo_carIn86816:1 routing_carIn86816:1 emissions_carIn86816:1" vType="default_016" speedFactor="1.09" vaporized="">
        <emissions CO_abs="4328.549051" CO2_abs="392969.493459" HC_abs="28.746590" PMx_abs="6.380159" NOx_abs="154.144424" fuel_abs="168.920433" electricity_abs="0"/>
    </tripinfo>
    <tripinfo id="carIn22761:1" depart="57616.00" departLane="-306240162#1_0" departPos="5.10" departSpeed="0.00" departDelay="2.10" arrival="57774.00" arrivalLane="399835085#1_1" arrivalPos="212.23" arrivalSpeed="5.53" duration="158.00" routeLength="1093.26" waitingTime="44.00" waitingCount="1" stopTime="0.00" timeLoss="62.45" rerouteNo="1" devices="tripinfo_carIn22761:1 routing_carIn22761:1 emissions_carIn22761:1" vType="default_016" speedFactor="0.82" vaporized="">
        <emissions CO_abs="10916.034786" CO2_abs="365800.720802" HC_abs="58.216949" PMx_abs="7.097857" NOx_abs="153.143127" fuel_abs="157.245682" electricity_abs="0"/>
    </tripinfo>
    <tripinfo id="h3326c1:2" depart="57656.00" departLane="22716069#0_1" departPos="5.10" departSpeed="0.00" departDelay="0.00" arrival="57775.00" arrivalLane="24634517#13_1" arrivalPos="111.62" arrivalSpeed="12.94" duration="119.00" routeLength="1312.81" waitingTime="0.00" waitingCount="0" stopTime="0.00" timeLoss="15.03" rerouteNo="1" devices="tripinfo_h3326c1:2 routing_h3326c1:2 emissions_h3326c1:2" vType="default_016" speedFactor="0.94" vaporized="">
        <emissions CO_abs="4059.442919" CO2_abs="292448.803416" HC_abs="25.335933" PMx_abs="4.936768" NOx_abs="117.758789" fuel_abs="125.711242" electricity_abs="0"/>
    </tripinfo>
    <tripinfo id="carIn30817:1" depart="57681.00" departLane="315358244_1" departPos="5.10" departSpeed="0.00" departDelay="0.20" arrival="57775.00" arrivalLane="447569997#1_1" arrivalPos="180.93" arrivalSpeed="6.47" duration="94.00" routeLength="718.04" waitingTime="10.00" waitingCount="1" stopTime="0.00" timeLoss="22.28" rerouteNo="1" devices="tripinfo_carIn30817:1 routing_carIn30817:1 emissions_carIn30817:1" vType="default_016" speedFactor="0.86" vaporized="">
        <emissions CO_abs="3852.341401" CO2_abs="178533.040666" HC_abs="21.664187" PMx_abs="2.971259" NOx_abs="72.258605" fuel_abs="76.744897" electricity_abs="0"/>
    </tripinfo>
    <tripinfo id="carIn27009:1" depart="57673.00" departLane="-447569998#1_1" departPos="5.10" departSpeed="0.00" departDelay="0.50" arrival="57783.00" arrivalLane="-26677539_1" arrivalPos="152.75" arrivalSpeed="9.58" duration="110.00" routeLength="699.63" waitingTime="25.00" waitingCount="1" stopTime="0.00" timeLoss="40.84" rerouteNo="1" devices="tripinfo_carIn27009:1 routing_carIn27009:1 emissions_carIn27009:1" vType="default_015" speedFactor="1.22" vaporized="">
        <emissions CO_abs="6844.978823" CO2_abs="246180.798987" HC_abs="36.905405" PMx_abs="4.636647" NOx_abs="103.457112" fuel_abs="105.824675" electricity_abs="0"/>
    </tripinfo>
    <tripinfo id="carIn107084:1" depart="57601.00" departLane="124812856#0_1" departPos="5.10" departSpeed="0.00" departDelay="0.70" arrival="57795.00" arrivalLane="-128361102#1_1" arrivalPos="274.68" arrivalSpeed="14.17" duration="194.00" routeLength="2250.49" waitingTime="9.00" waitingCount="2" stopTime="0.00" timeLoss="38.32" rerouteNo="1" devices="tripinfo_carIn107084:1 routing_carIn107084:1 emissions_carIn107084:1" vType="default_016" speedFactor="1.06" vaporized="">
        <emissions CO_abs="7059.704701" CO2_abs="516944.741510" HC_abs="44.202950" PMx_abs="8.855284" NOx_abs="207.290321" fuel_abs="222.212311" electricity_abs="0"/>
    </tripinfo>
    <tripinfo id="carIn77943:1" depart="57608.00" departLane="124812856#0_1" departPos="5.10" departSpeed="0.00" departDelay="2.50" arrival="57796.00" arrivalLane="-128361102#1_1" arrivalPos="274.68" arrivalSpeed="14.90" duration="188.00" routeLength="2250.49" waitingTime="8.00" waitingCount="2" stopTime="0.00" timeLoss="37.99" rerouteNo="1" devices="tripinfo_carIn77943:1 routing_carIn77943:1 emissions_carIn77943:1" vType="default_016" speedFactor="1.10" vaporized="">
        <emissions CO_abs="6597.149575" CO2_abs="504332.395695" HC_abs="41.695187" PMx_abs="8.686535" NOx_abs="202.093606" fuel_abs="216.790507" electricity_abs="0"/>
    </tripinfo>
    <tripinfo id="h330c1:1" depart="57736.00" departLane="-32978638#0_1" departPos="5.10" departSpeed="0.00" departDelay="0.20" arrival="57800.00" arrivalLane="-266565295#5_1" arrivalPos="172.76" arrivalSpeed="9.91" duration="64.00" routeLength="370.53" waitingTime="21.00" waitingCount="1" stopTime="0.00" timeLoss="29.22" rerouteNo="1" devices="tripinfo_h330c1:1 routing_h330c1:1 emissions_h330c1:1" vType="default_016" speedFactor="0.80" vaporized="">
        <emissions CO_abs="4426.647443" CO2_abs="144135.945056" HC_abs="23.516778" PMx_abs="2.775514" NOx_abs="60.813640" fuel_abs="61.959377" electricity_abs="0"/>
    </tripinfo>
    <tripinfo id="carIn12365:1" depart="57713.00" departLane="315358244_1" departPos="5.10" departSpeed="0.00" departDelay="0.50" arrival="57804.00" arrivalLane="447569997#1_1" arrivalPos="180.93" arrivalSpeed="7.26" duration="91.00" routeLength="718.04" waitingTime="10.00" waitingCount="1" stopTime="0.00" timeLoss="21.56" rerouteNo="1" devices="tripinfo_carIn12365:1 routing_carIn12365:1 emissions_carIn12365:1" vType="default_016" speedFactor="0.89" vaporized="">
        <emissions CO_abs="3411.174079" CO2_abs="181502.102458" HC_abs="19.726549" PMx_abs="2.941805" NOx_abs="72.790682" fuel_abs="78.020895" electricity_abs="0"/>
    </tripinfo>
    <tripinfo id="carIn129809:1" depart="57729.00" departLane="-447569998#1_1" departPos="5.10" departSpeed="0.00" departDelay="1.00" arrival="57805.00" arrivalLane="-315358244_1" arrivalPos="33.95" arrivalSpeed="14.42" duration="76.00" routeLength="706.49" waitingTime="4.00" waitingCount="1" stopTime="0.00" timeLoss="18.94" rerouteNo="1" devices="tripinfo_carIn129809:1 routing_carIn129809:1 emissions_carIn129809:1" vType="default_015" speedFactor="1.06" vaporized="">
        <emissions CO_abs="2649.609782" CO2_abs="159801.927907" HC_abs="15.777362" PMx_abs="2.624220" NOx_abs="63.765727" fuel_abs="68.692510" electricity_abs="0"/>
    </tripinfo>
    <tripinfo id="carIn118591:1" depart="57689.00" departLane="315358244_1" departPos="5.10" departSpeed="0.00" departDelay="0.20" arrival="57809.00" arrivalLane="386687235_1" arrivalPos="80.84" arrivalSpeed="13.20" duration="120.00" routeLength="1186.14" waitingTime="10.00" waitingCount="2" stopTime="0.00" timeLoss="34.54" rerouteNo="1" devices="tripinfo_carIn118591:1 routing_carIn118591:1 emissions_carIn118591:1" vType="default_016" speedFactor="1.01" vaporized="">
        <emissions CO_abs="4565.920385" CO2_abs="303829.600140" HC_abs="27.895613" PMx_abs="5.216585" NOx_abs="122.718433" fuel_abs="130.603539" electricity_abs="0"/>
    </tripinfo>
    <tripinfo id="carIn102915:1" depart="57643.00" departLane="128361102#0_1" departPos="5.10" departSpeed="0.00" departDelay="0.40" arrival="57812.00" arrivalLane="201956811#0_1" arrivalPos="40.40" arrivalSpeed="13.97" duration="169.00" routeLength="2067.33" waitingTime="0.00" waitingCount="0" stopTime="0.00" timeLoss="18.58" rerouteNo="1" devices="tripinfo_carIn102915:1 routing_carIn102915:1 emissions_carIn102915:1" vType="default_016" speedFactor="1.01" vaporized="">
        <emissions CO_abs="5051.856440" CO2_abs="416531.015498" HC_abs="32.713027" PMx_abs="6.820688" NOx_abs="165.055609" fuel_abs="179.048705" electricity_abs="0"/>
    </tripinfo>
    <tripinfo id="carIn48184:1" depart="57613.00" departLane="-306240162#1_0" departPos="5.10" departSpeed="0.00" departDelay="0.70" arrival="57813.00" arrivalLane="386687235_1" arrivalPos="80.84" arrivalSpeed="11.92" duration="200.00" routeLength="2257.41" waitingTime="8.00" waitingCount="1" stopTime="0.00" timeLoss="33.75" rerouteNo="1" devices="tripinfo_carIn48184:1 routing_carIn48184:1 emissions_carIn48184:1" vType="default_016" speedFactor="0.90" vaporized="">
        <emissions CO_abs="6842.400063" CO2_abs="498556.793642" HC_abs="42.836484" PMx_abs="8.309790" NOx_abs="198.470980" fuel_abs="214.308518" electricity_abs="0"/>
    </tripinfo>
    <tripinfo id="carIn82220:1" depart="57619.00" departLane="-306240162#1_0" departPos="5.10" departSpeed="0.00" departDelay="3.50" arrival="57813.00" arrivalLane="386687235_2" arrivalPos="80.84" arrivalSpeed="15.16" duration="194.00" routeLength="2257.41" waitingTime="10.00" waitingCount="2" stopTime="0.00" timeLoss="67.92" rerouteNo="1" devices="tripinfo_carIn82220:1 routing_carIn82220:1 emissions_carIn82220:1" vType="default_016" speedFactor="1.18" vaporized="">
        <emissions CO_abs="7817.638592" CO2_abs="546944.156427" HC_abs="48.495286" PMx_abs="10.014805" NOx_abs="223.761154" fuel_abs="235.107059" electricity_abs="0"/>
    </tripinfo>
    <tripinfo id="carIn462:1" depart="57622.00" departLane="-306240162#1_0" departPos="5.10" departSpeed="0.00" departDelay="4.80" arrival="57814.00" arrivalLane="386687235_1" arrivalPos="80.84" arrivalSpeed="15.72" duration="192.00" routeLength="2257.41" waitingTime="6.00" waitingCount="2" stopTime="0.00" timeLoss="68.89" rerouteNo="1" devices="tripinfo_carIn462:1 routing_carIn462:1 emissions_carIn462:1" vType="default_016" speedFactor="1.21" vaporized="">
        <emissions CO_abs="8587.293682" CO2_abs="587643.988591" HC_abs="53.001323" PMx_abs="10.990811" NOx_abs="242.240776" fuel_abs="252.601888" electricity_abs="0"/>
    </tripinfo>
    <tripinfo id="carIn116184:1" depart="57627.00" departLane="-306240162#1_0" departPos="5.10" departSpeed="0.00" departDelay="0.10" arrival="57815.00" arrivalLane="386687235_2" arrivalPos="80.84" arrivalSpeed="15.47" duration="188.00" routeLength="2257.41" waitingTime="12.00" waitingCount="2" stopTime="0.00" timeLoss="59.62" rerouteNo="1" devices="tripinfo_carIn116184:1 routing_carIn116184:1 emissions_carIn116184:1" vType="default_016" speedFactor="1.16" vaporized="">
        <emissions CO_abs="8686.491942" CO2_abs="578873.758715" HC_abs="53.274210" PMx_abs="10.793940" NOx_abs="236.900807" fuel_abs="248.832364" electricity_abs="0"/>
    </tripinfo>
    <tripinfo id="randUni33724:1" depart="57646.00" departLane="128361102#0_1" departPos="5.10" departSpeed="0.00" departDelay="1.20" arrival="57816.00" arrivalLane="201956811#0_1" arrivalPos="40.40" arrivalSpeed="14.28" duration="170.00" routeLength="2067.33" waitingTime="2.00" waitingCount="1" stopTime="0.00" timeLoss="25.21" rerouteNo="1" devices="tripinfo_randUni33724:1 routing_randUni33724:1 emissions_randUni33724:1" vType="random_016" speedFactor="1.05" vaporized="">
        <emissions CO_abs="4799.759462" CO2_abs="426022.983620" HC_abs="31.701344" PMx_abs="6.677048" NOx_abs="166.063790" fuel_abs="183.129111" electricity_abs="0"/>
    </tripinfo>
    <tripinfo id="h16072c2:3" depart="57663.00" departLane="315358254#0_1" departPos="5.10" departSpeed="0.00" departDelay="2.50" arrival="57817.00" arrivalLane="386687235_1" arrivalPos="80.84" arrivalSpeed="13.16" duration="154.00" routeLength="1611.92" waitingTime="7.00" waitingCount="2" stopTime="0.00" timeLoss="34.73" rerouteNo="1" devices="tripinfo_h16072c2:3 routing_h16072c2:3 emissions_h16072c2:3" vType="default_016" speedFactor="0.99" vaporized="">
        <emissions CO_abs="5543.239819" CO2_abs="392991.265961" HC_abs="34.438776" PMx_abs="6.706751" NOx_abs="158.398264" fuel_abs="168.930141" electricity_abs="0"/>
    </tripinfo>
    <tripinfo id="carIn12858:1" depart="57661.00" departLane="128361109#1_1" departPos="5.10" departSpeed="0.00" departDelay="0.90" arrival="57820.00" arrivalLane="399835085#1_1" arrivalPos="212.23" arrivalSpeed="8.51" duration="159.00" routeLength="1738.12" waitingTime="26.00" waitingCount="2" stopTime="0.00" timeLoss="56.04" rerouteNo="1" devices="tripinfo_carIn12858:1 routing_carIn12858:1 emissions_carIn12858:1" vType="default_016" speedFactor="1.12" vaporized="">
        <emissions CO_abs="10300.491464" CO2_abs="545101.929285" HC_abs="59.959603" PMx_abs="11.040171" NOx_abs="228.333336" fuel_abs="234.315863" electricity_abs="0"/>
    </tripinfo>
    <tripinfo id="h11737c1:1" depart="57665.00" departLane="272042143_1" departPos="5.10" departSpeed="0.00" departDelay="1.50" arrival="57826.00" arrivalLane="-315358254#1_1" arrivalPos="137.16" arrivalSpeed="15.83" duration="161.00" routeLength="1596.88" waitingTime="32.00" waitingCount="2" stopTime="0.00" timeLoss="59.11" rerouteNo="1" devices="tripinfo_h11737c1:1 routing_h11737c1:1 emissions_h11737c1:1" vType="default_016" speedFactor="1.15" vaporized="">
        <emissions CO_abs="9172.773963" CO2_abs="440327.314683" HC_abs="51.975875" PMx_abs="8.244168" NOx_abs="181.087091" fuel_abs="189.279388" electricity_abs="0"/>
    </tripinfo>
    <tripinfo id="carIn82278:1" depart="57702.00" departLane="-306240162#1_0" departPos="5.10" departSpeed="0.00" departDelay="0.70" arrival="57827.00" arrivalLane="399835085#1_1" arrivalPos="212.23" arrivalSpeed="7.41" duration="125.00" routeLength="1093.26" waitingTime="15.00" waitingCount="2" stopTime="0.00" timeLoss="46.00" rerouteNo="1" devices="tripinfo_carIn82278:1 routing_carIn82278:1 emissions_carIn82278:1" vType="default_016" speedFactor="0.98" vaporized="">
        <emissions CO_abs="5979.453210" CO2_abs="333382.373134" HC_abs="35.047626" PMx_abs="6.176007" NOx_abs="137.324015" fuel_abs="143.307189" electricity_abs="0"/>
    </tripinfo>
    <tripinfo id="carIn126288:1" depart="57674.00" departLane="272042143_1" departPos="5.10" departSpeed="0.00" departDelay="0.00" arrival="57828.00" arrivalLane="-315358254#1_1" arrivalPos="137.16" arrivalSpeed="15.68" duration="154.00" routeLength="1596.88" waitingTime="31.00" waitingCount="2" stopTime="0.00" timeLoss="51.91" rerouteNo="1" devices="tripinfo_carIn126288:1 routing_carIn126288:1 emissions_carIn126288:1" vType="default_016" speedFactor="1.15" vaporized="">
        <emissions CO_abs="7728.447168" CO2_abs="406506.594864" HC_abs="44.725793" PMx_abs="7.645227" NOx_abs="167.165847" fuel_abs="174.740545" electricity_abs="0"/>
    </tripinfo>
    <tripinfo id="carIn12152:1" depart="57647.00" departLane="24599188#0.94_1" departPos="5.10" departSpeed="0.00" departDelay="0.50" arrival="57831.00" arrivalLane="-315358254#1_1" arrivalPos="137.16" arrivalSpeed="13.31" duration="184.00" routeLength="2034.31" waitingTime="4.00" waitingCount="2" stopTime="0.00" timeLoss="32.04" rerouteNo="1" devices="tripinfo_carIn12152:1 routing_carIn12152:1 emissions_carIn12152:1" vType="default_016" speedFactor="1.05" vaporized="">
        <emissions CO_abs="6213.741129" CO2_abs="441701.526505" HC_abs="38.529331" PMx_abs="7.410437" NOx_abs="176.516550" fuel_abs="189.868836" electricity_abs="0"/>
    </tripinfo>
    <tripinfo id="carIn81860:1" depart="57712.00" departLane="128361102#0_1" departPos="5.10" departSpeed="0.00" departDelay="0.60" arrival="57833.00" arrivalLane="-24634517#17_1" arrivalPos="6.43" arrivalSpeed="6.21" duration="121.00" routeLength="1229.64" waitingTime="0.00" waitingCount="0" stopTime="0.00" timeLoss="14.35" rerouteNo="1" devices="tripinfo_carIn81860:1 routing_carIn81860:1 emissions_carIn81860:1" vType="default_016" speedFactor="0.84" vaporized="">
        <emissions CO_abs="3582.868206" CO2_abs="258000.455704" HC_abs="22.247705" PMx_abs="3.794713" NOx_abs="100.458906" fuel_abs="110.904207" electricity_abs="0"/>
    </tripinfo>
    <tripinfo id="carIn100288:1" depart="57664.00" departLane="128361102#0_1" departPos="5.10" departSpeed="0.00" departDelay="0.60" arrival="57835.00" arrivalLane="201956811#0_1" arrivalPos="40.40" arrivalSpeed="14.96" duration="171.00" routeLength="2067.33" waitingTime="4.00" waitingCount="1" stopTime="0.00" timeLoss="30.20" rerouteNo="1" devices="tripinfo_carIn100288:1 routing_carIn100288:1 emissions_carIn100288:1" vType="default_016" speedFactor="1.08" vaporized="">
        <emissions CO_abs="5713.710379" CO2_abs="460193.026110" HC_abs="36.751819" PMx_abs="7.680377" NOx_abs="182.646623" fuel_abs="197.817073" electricity_abs="0"/>
    </tripinfo>
    <tripinfo id="carIn29531:1" depart="57667.00" departLane="128361102#0_1" departPos="5.10" departSpeed="0.00" departDelay="1.60" arrival="57836.00" arrivalLane="201956811#0_1" arrivalPos="40.40" arrivalSpeed="13.89" duration="169.00" routeLength="2067.33" waitingTime="0.00" waitingCount="0" stopTime="0.00" timeLoss="24.89" rerouteNo="1" devices="tripinfo_carIn29531:1 routing_carIn29531:1 emissions_carIn29531:1" vType="default_016" speedFactor="1.04" vaporized="">
        <emissions CO_abs="5289.039537" CO2_abs="422240.058656" HC_abs="33.799815" PMx_abs="6.864546" NOx_abs="166.759691" fuel_abs="181.502999" electricity_abs="0"/>
    </tripinfo>
    <tripinfo id="randUni15030:1" depart="57735.00" departLane="386687232#0_1" departPos="5.10" departSpeed="0.00" departDelay="0.10" arrival="57839.00" arrivalLane="26677539_1" arrivalPos="151.98" arrivalSpeed="8.31" duration="104.00" routeLength="919.89" waitingTime="4.00" waitingCount="1" stopTime="0.00" timeLoss="20.76" rerouteNo="1" devices="tripinfo_randUni15030:1 routing_randUni15030:1 emissions_randUni15030:1" vType="random_016" speedFactor="1.00" vaporized="">
        <emissions CO_abs="3482.919925" CO2_abs="192928.324929" HC_abs="20.366113" PMx_abs="3.370064" NOx_abs="79.103486" fuel_abs="82.932085" electricity_abs="0"/>
    </tripinfo>