<?xml version="1.0" encoding="UTF-8"?>

<!-- generated on 2021-10-26 12:18:02 by Eclipse SUMO sumo Version 1.10.0
<configuration xmlns:xsi="http://www.w3.org/2001/XMLSchema-instance" xsi:noNamespaceSchemaLocation="http://sumo.dlr.de/xsd/sumoConfiguration.xsd">

    <input>
        <net-file value="/Users/behradkoohy/sumo-scratchpad/RESCO/environments/ingolstadt21/ingolstadt21.net.xml"/>
        <route-files value="/Users/behradkoohy/sumo-scratchpad/RESCO/environments/ingolstadt21/ingolstadt21.rou.xml"/>
    </input>

    <output>
        <tripinfo-output value="/Users/behradkoohy/sumo-scratchpad/RESCO/logs/IDQN-tr0-ingolstadt21-21-drq_norm-wait_norm/tripinfo_55.xml"/>
        <tripinfo-output.write-unfinished value="true"/>
    </output>

    <time>
        <begin value="57600"/>
        <end value="61200"/>
    </time>

    <processing>
        <time-to-teleport value="-1"/>
    </processing>

    <report>
        <no-warnings value="true"/>
        <no-step-log value="true"/>
    </report>

    <emissions>
        <device.emissions.probability value="1"/>
    </emissions>

    <traci_server>
        <remote-port value="58156"/>
    </traci_server>

    <random_number>
        <random value="true"/>
    </random_number>

</configuration>
-->

<tripinfos xmlns:xsi="http://www.w3.org/2001/XMLSchema-instance" xsi:noNamespaceSchemaLocation="http://sumo.dlr.de/xsd/tripinfo_file.xsd">
    <tripinfo id="carIn60260:1" depart="57606.00" departLane="315358254#0_1" departPos="5.10" departSpeed="0.00" departDelay="0.90" arrival="57654.00" arrivalLane="399835085#1_1" arrivalPos="212.23" arrivalSpeed="8.19" duration="48.00" routeLength="430.98" waitingTime="0.00" waitingCount="0" stopTime="0.00" timeLoss="7.45" rerouteNo="1" devices="tripinfo_carIn60260:1 routing_carIn60260:1 emissions_carIn60260:1" vType="default_016" speedFactor="1.13" vaporized="">
        <emissions CO_abs="2093.077212" CO2_abs="114254.999656" HC_abs="12.181038" PMx_abs="1.909597" NOx_abs="46.363562" fuel_abs="49.113754" electricity_abs="0"/>
    </tripinfo>
    <tripinfo id="h15454c2:3" depart="57612.00" departLane="24608844_1" departPos="5.10" departSpeed="0.00" departDelay="0.50" arrival="57657.00" arrivalLane="32978638#0_1" arrivalPos="49.29" arrivalSpeed="13.10" duration="45.00" routeLength="354.79" waitingTime="0.00" waitingCount="0" stopTime="0.00" timeLoss="10.07" rerouteNo="1" devices="tripinfo_h15454c2:3 routing_h15454c2:3 emissions_h15454c2:3" vType="default_016" speedFactor="0.99" vaporized="">
        <emissions CO_abs="2248.395383" CO2_abs="109337.429392" HC_abs="12.790886" PMx_abs="1.961744" NOx_abs="45.351136" fuel_abs="46.999876" electricity_abs="0"/>
    </tripinfo>
    <tripinfo id="carIn53971:1" depart="57640.00" departLane="272042143_1" departPos="5.10" departSpeed="0.00" departDelay="0.80" arrival="57697.00" arrivalLane="24634414#1_1" arrivalPos="162.19" arrivalSpeed="7.47" duration="57.00" routeLength="493.04" waitingTime="0.00" waitingCount="0" stopTime="0.00" timeLoss="9.24" rerouteNo="1" devices="tripinfo_carIn53971:1 routing_carIn53971:1 emissions_carIn53971:1" vType="default_016" speedFactor="0.97" vaporized="">
        <emissions CO_abs="2683.876148" CO2_abs="144385.547588" HC_abs="15.581434" PMx_abs="2.476139" NOx_abs="58.974604" fuel_abs="62.065637" electricity_abs="0"/>
    </tripinfo>
    <tripinfo id="S5R_frequency1.2" depart="57612.00" departLane="315358250#0_1" departPos="12.10" departSpeed="0.00" departDelay="0.40" arrival="57719.00" arrivalLane="386687235_1" arrivalPos="80.84" arrivalSpeed="13.84" duration="107.00" routeLength="1115.62" waitingTime="8.00" waitingCount="1" stopTime="0.00" timeLoss="25.42" rerouteNo="1" devices="tripinfo_S5R_frequency1.2 routing_S5R_frequency1.2 emissions_S5R_frequency1.2" vType="bus" speedFactor="1.00" vaporized="">
        <emissions CO_abs="1965.764046" CO2_abs="1209304.313418" HC_abs="413.083480" PMx_abs="210.051136" NOx_abs="9447.350637" fuel_abs="515.744485" electricity_abs="0"/>
    </tripinfo>
    <tripinfo id="h7800c1:5" depart="57696.00" departLane="-447569998#1_1" departPos="5.10" departSpeed="0.00" departDelay="0.00" arrival="57721.00" arrivalLane="-447569998#1_1" arrivalPos="180.76" arrivalSpeed="7.74" duration="25.00" routeLength="175.66" waitingTime="0.00" waitingCount="0" stopTime="0.00" timeLoss="3.26" rerouteNo="1" devices="tripinfo_h7800c1:5 routing_h7800c1:5 emissions_h7800c1:5" vType="default_016" speedFactor="0.97" vaporized="">
        <emissions CO_abs="1191.517625" CO2_abs="50612.252372" HC_abs="6.584240" PMx_abs="0.823046" NOx_abs="20.576826" fuel_abs="21.756469" electricity_abs="0"/>
    </tripinfo>
    <tripinfo id="h3688c1:1" depart="57625.00" departLane="201201950#1_1" departPos="5.10" departSpeed="0.00" departDelay="0.00" arrival="57735.00" arrivalLane="32978638#0_1" arrivalPos="49.29" arrivalSpeed="13.43" duration="110.00" routeLength="1089.75" waitingTime="10.00" waitingCount="1" stopTime="0.00" timeLoss="27.87" rerouteNo="1" devices="tripinfo_h3688c1:1 routing_h3688c1:1 emissions_h3688c1:1" vType="default_016" speedFactor="0.98" vaporized="">
        <emissions CO_abs="5160.202554" CO2_abs="287359.422779" HC_abs="30.257242" PMx_abs="5.193969" NOx_abs="118.067572" fuel_abs="123.523998" electricity_abs="0"/>
    </tripinfo>
    <tripinfo id="carIn80064:1" depart="57603.00" departLane="128361109#1_1" departPos="5.10" departSpeed="0.00" departDelay="0.40" arrival="57737.00" arrivalLane="-315358254#1_1" arrivalPos="137.16" arrivalSpeed="13.74" duration="134.00" routeLength="1587.97" waitingTime="18.00" waitingCount="2" stopTime="0.00" timeLoss="46.89" rerouteNo="1" devices="tripinfo_carIn80064:1 routing_carIn80064:1 emissions_carIn80064:1" vType="default_016" speedFactor="1.02" vaporized="">
        <emissions CO_abs="8055.794141" CO2_abs="478347.772410" HC_abs="48.132182" PMx_abs="9.503298" NOx_abs="199.257032" fuel_abs="205.620557" electricity_abs="0"/>
    </tripinfo>
    <tripinfo id="h317c2:1" depart="57707.00" departLane="-32978638#0_1" departPos="5.10" departSpeed="0.00" departDelay="0.10" arrival="57743.00" arrivalLane="-266565295#5_1" arrivalPos="172.76" arrivalSpeed="14.22" duration="36.00" routeLength="370.53" waitingTime="3.00" waitingCount="1" stopTime="0.00" timeLoss="11.02" rerouteNo="1" devices="tripinfo_h317c2:1 routing_h317c2:1 emissions_h317c2:1" vType="default_016" speedFactor="1.09" vaporized="">
        <emissions CO_abs="2105.139988" CO2_abs="130279.923858" HC_abs="12.668202" PMx_abs="2.403733" NOx_abs="53.782218" fuel_abs="56.001712" electricity_abs="0"/>
    </tripinfo>
    <tripinfo id="carIn121703:1" depart="57647.00" departLane="386687232#0_1" departPos="5.10" departSpeed="0.00" departDelay="0.30" arrival="57745.00" arrivalLane="-315358244_1" arrivalPos="33.95" arrivalSpeed="13.34" duration="98.00" routeLength="1157.39" waitingTime="0.00" waitingCount="0" stopTime="0.00" timeLoss="15.42" rerouteNo="1" devices="tripinfo_carIn121703:1 routing_carIn121703:1 emissions_carIn121703:1" vType="default_016" speedFactor="1.03" vaporized="">
        <emissions CO_abs="3334.619901" CO2_abs="258310.749481" HC_abs="21.219044" PMx_abs="4.278010" NOx_abs="102.603373" fuel_abs="111.036750" electricity_abs="0"/>
    </tripinfo>
    <tripinfo id="h9563c2:5" depart="57631.00" departLane="315358244_1" departPos="5.10" departSpeed="0.00" departDelay="0.70" arrival="57746.00" arrivalLane="386687235_1" arrivalPos="80.84" arrivalSpeed="15.11" duration="115.00" routeLength="1186.14" waitingTime="12.00" waitingCount="3" stopTime="0.00" timeLoss="36.35" rerouteNo="1" devices="tripinfo_h9563c2:5 routing_h9563c2:5 emissions_h9563c2:5" vType="default_016" speedFactor="1.10" vaporized="">
        <emissions CO_abs="5088.420959" CO2_abs="304940.429997" HC_abs="30.316621" PMx_abs="5.519080" NOx_abs="124.598105" fuel_abs="131.081074" electricity_abs="0"/>
    </tripinfo>
    <tripinfo id="h12244c1:3" depart="57612.00" departLane="315358244_1" departPos="5.10" departSpeed="0.00" departDelay="0.40" arrival="57749.00" arrivalLane="386687235_1" arrivalPos="80.84" arrivalSpeed="13.87" duration="137.00" routeLength="1186.14" waitingTime="20.00" waitingCount="5" stopTime="0.00" timeLoss="50.75" rerouteNo="1" devices="tripinfo_h12244c1:3 routing_h12244c1:3 emissions_h12244c1:3" vType="default_016" speedFactor="1.01" vaporized="">
        <emissions CO_abs="6052.936066" CO2_abs="342232.881556" HC_abs="35.588725" PMx_abs="6.035178" NOx_abs="139.483347" fuel_abs="147.112008" electricity_abs="0"/>
    </tripinfo>
    <tripinfo id="carIn22761:1" depart="57616.00" departLane="-306240162#1_0" departPos="5.10" departSpeed="0.00" departDelay="2.10" arrival="57749.00" arrivalLane="399835085#1_1" arrivalPos="212.23" arrivalSpeed="9.00" duration="133.00" routeLength="1093.26" waitingTime="35.00" waitingCount="2" stopTime="0.00" timeLoss="65.07" rerouteNo="1" devices="tripinfo_carIn22761:1 routing_carIn22761:1 emissions_carIn22761:1" vType="default_016" speedFactor="1.15" vaporized="">
        <emissions CO_abs="10354.084490" CO2_abs="429325.200624" HC_abs="57.364635" PMx_abs="8.884767" NOx_abs="182.246704" fuel_abs="184.549932" electricity_abs="0"/>
    </tripinfo>
    <tripinfo id="h7181c1:1" depart="57660.00" departLane="315358254#0_1" departPos="5.10" departSpeed="0.00" departDelay="0.10" arrival="57750.00" arrivalLane="306240162#0_0" arrivalPos="220.43" arrivalSpeed="17.29" duration="90.00" routeLength="932.35" waitingTime="23.00" waitingCount="2" stopTime="0.00" timeLoss="40.65" rerouteNo="1" devices="tripinfo_h7181c1:1 routing_h7181c1:1 emissions_h7181c1:1" vType="default_016" speedFactor="1.04" vaporized="">
        <emissions CO_abs="6604.408576" CO2_abs="320076.866229" HC_abs="37.687026" PMx_abs="6.507927" NOx_abs="134.298699" fuel_abs="137.587695" electricity_abs="0"/>
    </tripinfo>
    <tripinfo id="carIn30817:1" depart="57681.00" departLane="315358244_1" departPos="5.10" departSpeed="0.00" departDelay="0.20" arrival="57751.00" arrivalLane="447569997#1_1" arrivalPos="180.93" arrivalSpeed="8.70" duration="70.00" routeLength="718.04" waitingTime="1.00" waitingCount="1" stopTime="0.00" timeLoss="12.83" rerouteNo="1" devices="tripinfo_carIn30817:1 routing_carIn30817:1 emissions_carIn30817:1" vType="default_016" speedFactor="1.07" vaporized="">
        <emissions CO_abs="3193.795570" CO2_abs="193215.075921" HC_abs="19.013811" PMx_abs="3.377388" NOx_abs="78.754654" fuel_abs="83.055132" electricity_abs="0"/>
    </tripinfo>
    <tripinfo id="h3568c1:3" depart="57656.00" departLane="266565295#5_1" departPos="5.10" departSpeed="0.00" departDelay="0.80" arrival="57757.00" arrivalLane="-24634415_1" arrivalPos="62.03" arrivalSpeed="11.94" duration="101.00" routeLength="807.40" waitingTime="11.00" waitingCount="2" stopTime="0.00" timeLoss="32.91" rerouteNo="1" devices="tripinfo_h3568c1:3 routing_h3568c1:3 emissions_h3568c1:3" vType="default_016" speedFactor="0.95" vaporized="">
        <emissions CO_abs="5706.562734" CO2_abs="273898.418306" HC_abs="32.430149" PMx_abs="5.156863" NOx_abs="114.791924" fuel_abs="117.737929" electricity_abs="0"/>
    </tripinfo>
    <tripinfo id="h4538c1:1" depart="57701.00" departLane="-10427692#1_1" departPos="5.10" departSpeed="0.00" departDelay="0.00" arrival="57759.00" arrivalLane="-128361102#1_1" arrivalPos="274.68" arrivalSpeed="11.38" duration="58.00" routeLength="440.74" waitingTime="13.00" waitingCount="1" stopTime="0.00" timeLoss="23.14" rerouteNo="1" devices="tripinfo_h4538c1:1 routing_h4538c1:1 emissions_h4538c1:1" vType="default_016" speedFactor="0.90" vaporized="">
        <emissions CO_abs="3632.763242" CO2_abs="146725.920632" HC_abs="19.958753" PMx_abs="2.640726" NOx_abs="60.352052" fuel_abs="63.072296" electricity_abs="0"/>
    </tripinfo>
    <tripinfo id="carIn107084:1" depart="57601.00" departLane="124812856#0_1" departPos="5.10" departSpeed="0.00" departDelay="0.70" arrival="57761.00" arrivalLane="-128361102#1_1" arrivalPos="274.68" arrivalSpeed="16.23" duration="160.00" routeLength="2232.46" waitingTime="0.00" waitingCount="0" stopTime="0.00" timeLoss="27.33" rerouteNo="1" devices="tripinfo_carIn107084:1 routing_carIn107084:1 emissions_carIn107084:1" vType="default_016" speedFactor="1.23" vaporized="">
        <emissions CO_abs="7129.558151" CO2_abs="561159.718773" HC_abs="45.679779" PMx_abs="10.218934" NOx_abs="227.009723" fuel_abs="241.217239" electricity_abs="0"/>
    </tripinfo>
    <tripinfo id="carIn27009:1" depart="57673.00" departLane="-447569998#1_1" departPos="5.10" departSpeed="0.00" departDelay="0.50" arrival="57765.00" arrivalLane="-26677539_1" arrivalPos="152.75" arrivalSpeed="7.67" duration="92.00" routeLength="699.63" waitingTime="0.00" waitingCount="0" stopTime="0.00" timeLoss="12.16" rerouteNo="1" devices="tripinfo_carIn27009:1 routing_carIn27009:1 emissions_carIn27009:1" vType="default_015" speedFactor="1.05" vaporized="">
        <emissions CO_abs="3960.456456" CO2_abs="194854.017324" HC_abs="22.501597" PMx_abs="3.089095" NOx_abs="78.503293" fuel_abs="83.760655" electricity_abs="0"/>
    </tripinfo>
    <tripinfo id="h330c1:1" depart="57736.00" departLane="-32978638#0_1" departPos="5.10" departSpeed="0.00" departDelay="0.20" arrival="57768.00" arrivalLane="-266565295#5_1" arrivalPos="172.76" arrivalSpeed="14.02" duration="32.00" routeLength="370.53" waitingTime="0.00" waitingCount="0" stopTime="0.00" timeLoss="5.53" rerouteNo="1" devices="tripinfo_h330c1:1 routing_h330c1:1 emissions_h330c1:1" vType="default_016" speedFactor="1.06" vaporized="">
        <emissions CO_abs="1658.929679" CO2_abs="118003.585342" HC_abs="10.290715" PMx_abs="2.097674" NOx_abs="48.010656" fuel_abs="50.724564" electricity_abs="0"/>
    </tripinfo>
    <tripinfo id="h645c1:1" depart="57622.00" departLane="266565295#5_1" departPos="5.10" departSpeed="0.00" departDelay="0.40" arrival="57774.00" arrivalLane="-315358244_1" arrivalPos="33.95" arrivalSpeed="13.73" duration="152.00" routeLength="1910.83" waitingTime="3.00" waitingCount="1" stopTime="0.00" timeLoss="19.24" rerouteNo="1" devices="tripinfo_h645c1:1 routing_h645c1:1 emissions_h645c1:1" vType="default_016" speedFactor="1.04" vaporized="">
        <emissions CO_abs="4230.417965" CO2_abs="377957.086389" HC_abs="28.076350" PMx_abs="6.113561" NOx_abs="148.370986" fuel_abs="162.467344" electricity_abs="0"/>
    </tripinfo>
    <tripinfo id="h5979c1:5" depart="57669.00" departLane="399835085#1_1" departPos="5.10" departSpeed="0.00" departDelay="0.00" arrival="57774.00" arrivalLane="-315358254#1_1" arrivalPos="137.16" arrivalSpeed="12.73" duration="105.00" routeLength="659.33" waitingTime="12.00" waitingCount="1" stopTime="0.00" timeLoss="27.05" rerouteNo="1" devices="tripinfo_h5979c1:5 routing_h5979c1:5 emissions_h5979c1:5" vType="default_016" speedFactor="0.94" vaporized="">
        <emissions CO_abs="5370.948470" CO2_abs="205009.532282" HC_abs="29.185246" PMx_abs="3.575389" NOx_abs="84.550940" fuel_abs="88.126690" electricity_abs="0"/>
    </tripinfo>
    <tripinfo id="carIn86816:1" depart="57617.00" departLane="128361102#0_1" departPos="5.10" departSpeed="0.00" departDelay="0.80" arrival="57782.00" arrivalLane="201956811#0_1" arrivalPos="40.40" arrivalSpeed="15.05" duration="165.00" routeLength="2067.33" waitingTime="3.00" waitingCount="1" stopTime="0.00" timeLoss="25.97" rerouteNo="1" devices="tripinfo_carIn86816:1 routing_carIn86816:1 emissions_carIn86816:1" vType="default_016" speedFactor="1.09" vaporized="">
        <emissions CO_abs="5845.843379" CO2_abs="476142.472771" HC_abs="37.666225" PMx_abs="8.113968" NOx_abs="190.045513" fuel_abs="204.672722" electricity_abs="0"/>
    </tripinfo>
    <tripinfo id="carIn118591:1" depart="57689.00" departLane="315358244_1" departPos="5.10" departSpeed="0.00" departDelay="0.20" arrival="57791.00" arrivalLane="386687235_1" arrivalPos="80.84" arrivalSpeed="12.99" duration="102.00" routeLength="1186.14" waitingTime="2.00" waitingCount="1" stopTime="0.00" timeLoss="16.19" rerouteNo="1" devices="tripinfo_carIn118591:1 routing_carIn118591:1 emissions_carIn118591:1" vType="default_016" speedFactor="1.01" vaporized="">
        <emissions CO_abs="2975.409785" CO2_abs="234079.641585" HC_abs="19.000981" PMx_abs="3.747961" NOx_abs="92.151753" fuel_abs="100.620990" electricity_abs="0"/>
    </tripinfo>
    <tripinfo id="h3326c1:2" depart="57656.00" departLane="22716069#0_1" departPos="5.10" departSpeed="0.00" departDelay="0.00" arrival="57798.00" arrivalLane="24634517#13_1" arrivalPos="111.62" arrivalSpeed="10.83" duration="142.00" routeLength="1312.81" waitingTime="1.00" waitingCount="1" stopTime="0.00" timeLoss="20.37" rerouteNo="1" devices="tripinfo_h3326c1:2 routing_h3326c1:2 emissions_h3326c1:2" vType="default_016" speedFactor="0.81" vaporized="">
        <emissions CO_abs="4969.534420" CO2_abs="313805.963236" HC_abs="29.875569" PMx_abs="4.917483" NOx_abs="124.748394" fuel_abs="134.892789" electricity_abs="0"/>
    </tripinfo>
    <tripinfo id="carIn12365:1" depart="57713.00" departLane="315358244_1" departPos="5.10" departSpeed="0.00" departDelay="0.50" arrival="57800.00" arrivalLane="447569997#1_1" arrivalPos="180.93" arrivalSpeed="7.47" duration="87.00" routeLength="718.04" waitingTime="13.00" waitingCount="1" stopTime="0.00" timeLoss="26.37" rerouteNo="1" devices="tripinfo_carIn12365:1 routing_carIn12365:1 emissions_carIn12365:1" vType="default_016" speedFactor="1.02" vaporized="">
        <emissions CO_abs="4698.557138" CO2_abs="211218.177547" HC_abs="26.337590" PMx_abs="3.900053" NOx_abs="87.562099" fuel_abs="90.794629" electricity_abs="0"/>
    </tripinfo>
    <tripinfo id="carIn129809:1" depart="57728.00" departLane="-447569998#1_1" departPos="5.10" departSpeed="0.00" departDelay="0.00" arrival="57800.00" arrivalLane="-315358244_1" arrivalPos="33.95" arrivalSpeed="13.02" duration="72.00" routeLength="706.49" waitingTime="0.00" waitingCount="0" stopTime="0.00" timeLoss="7.63" rerouteNo="1" devices="tripinfo_carIn129809:1 routing_carIn129809:1 emissions_carIn129809:1" vType="default_015" speedFactor="0.94" vaporized="">
        <emissions CO_abs="2427.898521" CO2_abs="152847.903702" HC_abs="14.592251" PMx_abs="2.408594" NOx_abs="60.537449" fuel_abs="65.703295" electricity_abs="0"/>
    </tripinfo>
    <tripinfo id="carIn77943:1" depart="57607.00" departLane="124812856#0_1" departPos="5.10" departSpeed="0.00" departDelay="1.50" arrival="57805.00" arrivalLane="-128361102#1_1" arrivalPos="274.68" arrivalSpeed="14.61" duration="198.00" routeLength="2250.49" waitingTime="6.00" waitingCount="1" stopTime="0.00" timeLoss="47.43" rerouteNo="1" devices="tripinfo_carIn77943:1 routing_carIn77943:1 emissions_carIn77943:1" vType="default_016" speedFactor="1.09" vaporized="">
        <emissions CO_abs="7264.151764" CO2_abs="533001.186801" HC_abs="45.535196" PMx_abs="9.117532" NOx_abs="214.154571" fuel_abs="229.114247" electricity_abs="0"/>
    </tripinfo>
    <tripinfo id="h3154c1:1" depart="57658.00" departLane="24634507_1" departPos="5.10" departSpeed="0.00" departDelay="0.00" arrival="57805.00" arrivalLane="-266565295#5_1" arrivalPos="172.76" arrivalSpeed="14.48" duration="147.00" routeLength="1206.22" waitingTime="41.00" waitingCount="2" stopTime="0.00" timeLoss="62.77" rerouteNo="1" devices="tripinfo_h3154c1:1 routing_h3154c1:1 emissions_h3154c1:1" vType="default_016" speedFactor="1.06" vaporized="">
        <emissions CO_abs="9960.534328" CO2_abs="400312.207160" HC_abs="54.812548" PMx_abs="7.942437" NOx_abs="169.004564" fuel_abs="172.079048" electricity_abs="0"/>
    </tripinfo>
    <tripinfo id="carIn107282:1" depart="57749.00" departLane="-447569998#1_1" departPos="5.10" departSpeed="0.00" departDelay="0.00" arrival="57806.00" arrivalLane="315358242#0_1" arrivalPos="165.37" arrivalSpeed="13.02" duration="57.00" routeLength="448.50" waitingTime="5.00" waitingCount="1" stopTime="0.00" timeLoss="15.12" rerouteNo="1" devices="tripinfo_carIn107282:1 routing_carIn107282:1 emissions_carIn107282:1" vType="default_016" speedFactor="1.00" vaporized="">
        <emissions CO_abs="2410.999230" CO2_abs="121554.787493" HC_abs="13.766567" PMx_abs="1.976383" NOx_abs="48.773747" fuel_abs="52.251906" electricity_abs="0"/>
    </tripinfo>
    <tripinfo id="carIn81046:1" depart="57611.00" departLane="124812856#0_1" departPos="5.10" departSpeed="0.00" departDelay="2.50" arrival="57817.00" arrivalLane="-128361102#1_1" arrivalPos="274.68" arrivalSpeed="12.55" duration="206.00" routeLength="2250.49" waitingTime="2.00" waitingCount="1" stopTime="0.00" timeLoss="26.54" rerouteNo="1" devices="tripinfo_carIn81046:1 routing_carIn81046:1 emissions_carIn81046:1" vType="default_016" speedFactor="0.91" vaporized="">
        <emissions CO_abs="6006.504819" CO2_abs="461566.810165" HC_abs="38.087955" PMx_abs="7.299065" NOx_abs="182.217777" fuel_abs="198.408302" electricity_abs="0"/>
    </tripinfo>
    <tripinfo id="carIn77438:1" depart="57614.00" departLane="124812856#0_1" departPos="5.10" departSpeed="0.00" departDelay="1.10" arrival="57819.00" arrivalLane="-128361102#1_1" arrivalPos="274.68" arrivalSpeed="15.18" duration="205.00" routeLength="2250.49" waitingTime="1.00" waitingCount="1" stopTime="0.00" timeLoss="54.78" rerouteNo="1" devices="tripinfo_carIn77438:1 routing_carIn77438:1 emissions_carIn77438:1" vType="default_016" speedFactor="1.10" vaporized="">
        <emissions CO_abs="7932.132019" CO2_abs="554731.436497" HC_abs="49.181638" PMx_abs="9.749939" NOx_abs="225.891606" fuel_abs="238.454942" electricity_abs="0"/>
    </tripinfo>
    <tripinfo id="carIn48184:1" depart="57613.00" departLane="-306240162#1_0" departPos="5.10" departSpeed="0.00" departDelay="0.70" arrival="57821.00" arrivalLane="386687235_1" arrivalPos="80.84" arrivalSpeed="13.88" duration="208.00" routeLength="2257.41" waitingTime="33.00" waitingCount="3" stopTime="0.00" timeLoss="69.98" rerouteNo="1" devices="tripinfo_carIn48184:1 routing_carIn48184:1 emissions_carIn48184:1" vType="default_016" speedFactor="1.07" vaporized="">
        <emissions CO_abs="11793.322733" CO2_abs="642892.619228" HC_abs="68.932622" PMx_abs="12.325250" NOx_abs="265.790460" fuel_abs="276.352524" electricity_abs="0"/>
    </tripinfo>
    <tripinfo id="h19804c1:3" depart="57617.00" departLane="124812856#0_1" departPos="5.10" departSpeed="0.00" departDelay="1.50" arrival="57821.00" arrivalLane="-128361102#1_1" arrivalPos="274.68" arrivalSpeed="13.65" duration="204.00" routeLength="2250.49" waitingTime="0.00" waitingCount="0" stopTime="0.00" timeLoss="38.41" rerouteNo="1" devices="tripinfo_h19804c1:3 routing_h19804c1:3 emissions_h19804c1:3" vType="default_016" speedFactor="1.00" vaporized="">
        <emissions CO_abs="7831.952370" CO2_abs="538339.222976" HC_abs="48.319903" PMx_abs="9.489777" NOx_abs="219.525317" fuel_abs="231.408697" electricity_abs="0"/>
    </tripinfo>
    <tripinfo id="carIn50326:1" depart="57651.00" departLane="128361102#0_1" departPos="5.10" departSpeed="0.00" departDelay="0.30" arrival="57821.00" arrivalLane="18809673#0_1" arrivalPos="473.56" arrivalSpeed="10.76" duration="170.00" routeLength="1591.07" waitingTime="0.00" waitingCount="0" stopTime="0.00" timeLoss="18.35" rerouteNo="1" devices="tripinfo_carIn50326:1 routing_carIn50326:1 emissions_carIn50326:1" vType="default_016" speedFactor="0.86" vaporized="">
        <emissions CO_abs="5469.614703" CO2_abs="345500.368363" HC_abs="32.839104" PMx_abs="5.167038" NOx_abs="135.611384" fuel_abs="148.517353" electricity_abs="0"/>
    </tripinfo>
    <tripinfo id="h5216c1:1" depart="57664.00" departLane="224892339#0_1" departPos="5.10" departSpeed="0.00" departDelay="0.00" arrival="57823.00" arrivalLane="386687235_1" arrivalPos="80.84" arrivalSpeed="13.90" duration="159.00" routeLength="1823.78" waitingTime="7.00" waitingCount="2" stopTime="0.00" timeLoss="39.15" rerouteNo="1" devices="tripinfo_h5216c1:1 routing_h5216c1:1 emissions_h5216c1:1" vType="default_016" speedFactor="1.07" vaporized="">
        <emissions CO_abs="5973.075890" CO2_abs="421900.257693" HC_abs="36.997277" PMx_abs="7.358461" NOx_abs="169.765236" fuel_abs="181.356771" electricity_abs="0"/>
    </tripinfo>
    <tripinfo id="carIn81860:1" depart="57712.00" departLane="128361102#0_1" departPos="5.10" departSpeed="0.00" departDelay="0.60" arrival="57830.00" arrivalLane="-24634517#17_1" arrivalPos="6.43" arrivalSpeed="8.09" duration="118.00" routeLength="1229.64" waitingTime="8.00" waitingCount="2" stopTime="0.00" timeLoss="31.94" rerouteNo="1" devices="tripinfo_carIn81860:1 routing_carIn81860:1 emissions_carIn81860:1" vType="default_016" speedFactor="1.05" vaporized="">
        <emissions CO_abs="4476.402605" CO2_abs="294182.147818" HC_abs="27.296262" PMx_abs="5.254969" NOx_abs="119.969279" fuel_abs="126.456259" electricity_abs="0"/>
    </tripinfo>
    <tripinfo id="carIn28951:1" depart="57606.00" departLane="10425609#0_1" departPos="5.10" departSpeed="0.00" departDelay="0.20" arrival="57832.00" arrivalLane="-128361102#1_1" arrivalPos="274.68" arrivalSpeed="11.78" duration="226.00" routeLength="2113.04" waitingTime="28.00" waitingCount="1" stopTime="0.00" timeLoss="49.28" rerouteNo="1" devices="tripinfo_carIn28951:1 routing_carIn28951:1 emissions_carIn28951:1" vType="default_016" speedFactor="0.88" vaporized="">
        <emissions CO_abs="10140.845301" CO2_abs="527867.113127" HC_abs="58.393070" PMx_abs="8.588056" NOx_abs="210.558590" fuel_abs="226.910403" electricity_abs="0"/>
    </tripinfo>
    <tripinfo id="carIn82278:1" depart="57702.00" departLane="-306240162#1_0" departPos="5.10" departSpeed="0.00" departDelay="0.70" arrival="57833.00" arrivalLane="399835085#1_1" arrivalPos="212.23" arrivalSpeed="7.86" duration="131.00" routeLength="1093.26" waitingTime="37.00" waitingCount="1" stopTime="0.00" timeLoss="54.95" rerouteNo="1" devices="tripinfo_carIn82278:1 routing_carIn82278:1 emissions_carIn82278:1" vType="default_016" speedFactor="1.02" vaporized="">
        <emissions CO_abs="9777.298704" CO2_abs="374084.630346" HC_abs="53.365410" PMx_abs="7.514695" NOx_abs="157.241519" fuel_abs="160.805198" electricity_abs="0"/>
    </tripinfo>
    <tripinfo id="h20540c1:1" depart="57634.00" departLane="10425609#0_1" departPos="5.10" departSpeed="0.00" departDelay="0.50" arrival="57834.00" arrivalLane="-128361102#1_1" arrivalPos="274.68" arrivalSpeed="12.34" duration="200.00" routeLength="2113.04" waitingTime="0.00" waitingCount="0" stopTime="0.00" timeLoss="38.54" rerouteNo="1" devices="tripinfo_h20540c1:1 routing_h20540c1:1 emissions_h20540c1:1" vType="default_016" speedFactor="0.96" vaporized="">
        <emissions CO_abs="7487.174954" CO2_abs="518231.129493" HC_abs="46.237793" PMx_abs="8.855981" NOx_abs="209.872233" fuel_abs="222.765448" electricity_abs="0"/>
    </tripinfo>
    <tripinfo id="carIn73855:1" depart="57743.00" departLane="386687232#0_1" departPos="5.10" departSpeed="0.00" departDelay="0.50" arrival="57835.00" arrivalLane="-315358244_2" arrivalPos="33.95" arrivalSpeed="17.64" duration="92.00" routeLength="1157.39" waitingTime="8.00" waitingCount="1" stopTime="0.00" timeLoss="26.03" rerouteNo="1" devices="tripinfo_carIn73855:1 routing_carIn73855:1 emissions_carIn73855:1" vType="default_016" speedFactor="1.28" vaporized="">
        <emissions CO_abs="3843.485407" CO2_abs="272780.402256" HC_abs="23.861319" PMx_abs="4.917370" NOx_abs="109.635447" fuel_abs="117.256416" electricity_abs="0"/>
    </tripinfo>
    <tripinfo id="h2831c1:1" depart="57600.00" departLane="201089423#0_1" departPos="5.10" departSpeed="0.00" departDelay="0.00" arrival="57837.00" arrivalLane="-315358244_1" arrivalPos="33.95" arrivalSpeed="13.11" duration="237.00" routeLength="2672.18" waitingTime="14.00" waitingCount="3" stopTime="0.00" timeLoss="47.65" rerouteNo="1" devices="tripinfo_h2831c1:1 routing_h2831c1:1 emissions_h2831c1:1" vType="default_016" speedFactor="1.02" vaporized="">
        <emissions CO_abs="7368.202359" CO2_abs="563546.213856" HC_abs="46.651117" PMx_abs="9.282565" NOx_abs="223.564836" fuel_abs="242.244571" electricity_abs="0"/>
    </tripinfo>
    <tripinfo id="carIn12858:1" depart="57661.00" departLane="128361109#1_1" departPos="5.10" departSpeed="0.00" departDelay="0.90" arrival="57837.00" arrivalLane="399835085#1_1" arrivalPos="212.23" arrivalSpeed="7.39" duration="176.00" routeLength="1738.12" waitingTime="28.00" waitingCount="1" stopTime="0.00" timeLoss="58.18" rerouteNo="1" devices="tripinfo_carIn12858:1 routing_carIn12858:1 emissions_carIn12858:1" vType="default_016" speedFactor="0.97" vaporized="">
        <emissions CO_abs="10764.452974" CO2_abs="513006.903691" HC_abs="61.198317" PMx_abs="10.011216" NOx_abs="213.342429" fuel_abs="220.520997" electricity_abs="0"/>
    </tripinfo>
    <tripinfo id="h11737c1:1" depart="57665.00" departLane="272042143_1" departPos="5.10" departSpeed="0.00" departDelay="1.50" arrival="57837.00" arrivalLane="-315358254#1_1" arrivalPos="137.16" arrivalSpeed="13.12" duration="172.00" routeLength="1596.88" waitingTime="31.00" waitingCount="2" stopTime="0.00" timeLoss="53.62" rerouteNo="1" devices="tripinfo_h11737c1:1 routing_h11737c1:1 emissions_h11737c1:1" vType="default_016" speedFactor="0.98" vaporized="">
        <emissions CO_abs="8394.528400" CO2_abs="394202.509460" HC_abs="47.418336" PMx_abs="7.008108" NOx_abs="160.562940" fuel_abs="169.452814" electricity_abs="0"/>
    </tripinfo>
    <tripinfo id="randUni15030:1" depart="57735.00" departLane="386687232#0_1" departPos="5.10" departSpeed="0.00" departDelay="0.10" arrival="57838.00" arrivalLane="26677539_1" arrivalPos="151.98" arrivalSpeed="9.65" duration="103.00" routeLength="919.89" waitingTime="15.00" waitingCount="1" stopTime="0.00" timeLoss="31.63" rerouteNo="1" devices="tripinfo_randUni15030:1 routing_randUni15030:1 emissions_randUni15030:1" vType="random_016" speedFactor="1.17" vaporized="">
        <emissions CO_abs="5758.486991" CO2_abs="275107.283229" HC_abs="32.652981" PMx_abs="5.048115" NOx_abs="113.561098" fuel_abs="118.257882" electricity_abs="0"/>
    </tripinfo>