<?xml version="1.0" encoding="UTF-8"?>

<!-- generated on 2021-10-26 11:59:34 by Eclipse SUMO sumo Version 1.10.0
<configuration xmlns:xsi="http://www.w3.org/2001/XMLSchema-instance" xsi:noNamespaceSchemaLocation="http://sumo.dlr.de/xsd/sumoConfiguration.xsd">

    <input>
        <net-file value="/Users/behradkoohy/sumo-scratchpad/RESCO/environments/ingolstadt21/ingolstadt21.net.xml"/>
        <route-files value="/Users/behradkoohy/sumo-scratchpad/RESCO/environments/ingolstadt21/ingolstadt21.rou.xml"/>
    </input>

    <output>
        <tripinfo-output value="/Users/behradkoohy/sumo-scratchpad/RESCO/logs/IDQN-tr0-ingolstadt21-21-drq_norm-wait_norm/tripinfo_42.xml"/>
        <tripinfo-output.write-unfinished value="true"/>
    </output>

    <time>
        <begin value="57600"/>
        <end value="61200"/>
    </time>

    <processing>
        <time-to-teleport value="-1"/>
    </processing>

    <report>
        <no-warnings value="true"/>
        <no-step-log value="true"/>
    </report>

    <emissions>
        <device.emissions.probability value="1"/>
    </emissions>

    <traci_server>
        <remote-port value="57854"/>
    </traci_server>

    <random_number>
        <random value="true"/>
    </random_number>

</configuration>
-->

<tripinfos xmlns:xsi="http://www.w3.org/2001/XMLSchema-instance" xsi:noNamespaceSchemaLocation="http://sumo.dlr.de/xsd/tripinfo_file.xsd">
    <tripinfo id="h15454c2:3" depart="57612.00" departLane="24608844_1" departPos="5.10" departSpeed="0.00" departDelay="0.50" arrival="57655.00" arrivalLane="32978638#0_1" arrivalPos="49.29" arrivalSpeed="11.85" duration="43.00" routeLength="354.79" waitingTime="0.00" waitingCount="0" stopTime="0.00" timeLoss="5.33" rerouteNo="1" devices="tripinfo_h15454c2:3 routing_h15454c2:3 emissions_h15454c2:3" vType="default_016" speedFactor="0.91" vaporized="">
        <emissions CO_abs="1851.383929" CO2_abs="96837.184915" HC_abs="10.675676" PMx_abs="1.630115" NOx_abs="39.415186" fuel_abs="41.626561" electricity_abs="0"/>
    </tripinfo>
    <tripinfo id="carIn60260:1" depart="57606.00" departLane="315358254#0_1" departPos="5.10" departSpeed="0.00" departDelay="0.90" arrival="57680.00" arrivalLane="399835085#1_1" arrivalPos="212.23" arrivalSpeed="6.77" duration="74.00" routeLength="430.98" waitingTime="10.00" waitingCount="1" stopTime="0.00" timeLoss="20.70" rerouteNo="1" devices="tripinfo_carIn60260:1 routing_carIn60260:1 emissions_carIn60260:1" vType="default_016" speedFactor="0.87" vaporized="">
        <emissions CO_abs="3722.288053" CO2_abs="137225.611673" HC_abs="20.117514" PMx_abs="2.442251" NOx_abs="57.087952" fuel_abs="58.988682" electricity_abs="0"/>
    </tripinfo>
    <tripinfo id="carIn53971:1" depart="57640.00" departLane="272042143_1" departPos="5.10" departSpeed="0.00" departDelay="0.80" arrival="57695.00" arrivalLane="24634414#1_1" arrivalPos="162.19" arrivalSpeed="7.73" duration="55.00" routeLength="493.04" waitingTime="0.00" waitingCount="0" stopTime="0.00" timeLoss="8.44" rerouteNo="1" devices="tripinfo_carIn53971:1 routing_carIn53971:1 emissions_carIn53971:1" vType="default_016" speedFactor="0.99" vaporized="">
        <emissions CO_abs="2649.396467" CO2_abs="145208.187802" HC_abs="15.450856" PMx_abs="2.519253" NOx_abs="59.487429" fuel_abs="62.419172" electricity_abs="0"/>
    </tripinfo>
    <tripinfo id="h3688c1:1" depart="57625.00" departLane="201201950#1_1" departPos="5.10" departSpeed="0.00" departDelay="0.00" arrival="57715.00" arrivalLane="32978638#0_1" arrivalPos="49.29" arrivalSpeed="12.84" duration="90.00" routeLength="1089.75" waitingTime="0.00" waitingCount="0" stopTime="0.00" timeLoss="10.78" rerouteNo="1" devices="tripinfo_h3688c1:1 routing_h3688c1:1 emissions_h3688c1:1" vType="default_016" speedFactor="1.00" vaporized="">
        <emissions CO_abs="3027.628971" CO2_abs="240262.759529" HC_abs="19.410016" PMx_abs="4.025884" NOx_abs="95.983458" fuel_abs="103.278530" electricity_abs="0"/>
    </tripinfo>
    <tripinfo id="h7800c1:5" depart="57696.00" departLane="-447569998#1_1" departPos="5.10" departSpeed="0.00" departDelay="0.00" arrival="57724.00" arrivalLane="-447569998#1_1" arrivalPos="180.76" arrivalSpeed="6.80" duration="28.00" routeLength="175.66" waitingTime="0.00" waitingCount="0" stopTime="0.00" timeLoss="3.75" rerouteNo="1" devices="tripinfo_h7800c1:5 routing_h7800c1:5 emissions_h7800c1:5" vType="default_016" speedFactor="0.90" vaporized="">
        <emissions CO_abs="1257.994201" CO2_abs="49596.600398" HC_abs="6.863096" PMx_abs="0.821004" NOx_abs="20.298521" fuel_abs="21.319926" electricity_abs="0"/>
    </tripinfo>
    <tripinfo id="h7181c1:1" depart="57660.00" departLane="315358254#0_1" departPos="5.10" departSpeed="0.00" departDelay="0.10" arrival="57731.00" arrivalLane="306240162#0_0" arrivalPos="220.43" arrivalSpeed="15.86" duration="71.00" routeLength="932.35" waitingTime="7.00" waitingCount="1" stopTime="0.00" timeLoss="19.54" rerouteNo="1" devices="tripinfo_h7181c1:1 routing_h7181c1:1 emissions_h7181c1:1" vType="default_016" speedFactor="1.00" vaporized="">
        <emissions CO_abs="3295.840989" CO2_abs="242662.354461" HC_abs="20.557551" PMx_abs="4.547636" NOx_abs="98.029914" fuel_abs="104.309644" electricity_abs="0"/>
    </tripinfo>
    <tripinfo id="h3568c1:3" depart="57656.00" departLane="266565295#5_1" departPos="5.10" departSpeed="0.00" departDelay="0.80" arrival="57734.00" arrivalLane="-24634415_1" arrivalPos="62.03" arrivalSpeed="14.93" duration="78.00" routeLength="807.40" waitingTime="0.00" waitingCount="0" stopTime="0.00" timeLoss="17.36" rerouteNo="1" devices="tripinfo_h3568c1:3 routing_h3568c1:3 emissions_h3568c1:3" vType="default_016" speedFactor="1.08" vaporized="">
        <emissions CO_abs="3952.089103" CO2_abs="251527.236189" HC_abs="23.858728" PMx_abs="4.503462" NOx_abs="103.008001" fuel_abs="108.120791" electricity_abs="0"/>
    </tripinfo>
    <tripinfo id="carIn22761:1" depart="57616.00" departLane="-306240162#1_0" departPos="5.10" departSpeed="0.00" departDelay="2.10" arrival="57735.00" arrivalLane="399835085#1_1" arrivalPos="212.23" arrivalSpeed="8.23" duration="119.00" routeLength="1093.26" waitingTime="19.00" waitingCount="2" stopTime="0.00" timeLoss="39.82" rerouteNo="1" devices="tripinfo_carIn22761:1 routing_carIn22761:1 emissions_carIn22761:1" vType="default_016" speedFactor="0.99" vaporized="">
        <emissions CO_abs="6776.553878" CO2_abs="322302.753677" HC_abs="38.400942" PMx_abs="6.108089" NOx_abs="132.902102" fuel_abs="138.545238" electricity_abs="0"/>
    </tripinfo>
    <tripinfo id="h12244c1:3" depart="57612.00" departLane="315358244_1" departPos="5.10" departSpeed="0.00" departDelay="0.40" arrival="57743.00" arrivalLane="386687235_1" arrivalPos="80.84" arrivalSpeed="13.52" duration="131.00" routeLength="1186.14" waitingTime="28.00" waitingCount="2" stopTime="0.00" timeLoss="46.63" rerouteNo="1" devices="tripinfo_h12244c1:3 routing_h12244c1:3 emissions_h12244c1:3" vType="default_016" speedFactor="1.02" vaporized="">
        <emissions CO_abs="6481.653905" CO2_abs="314353.876594" HC_abs="36.854858" PMx_abs="5.654947" NOx_abs="128.247730" fuel_abs="135.128631" electricity_abs="0"/>
    </tripinfo>
    <tripinfo id="S5R_frequency1.2" depart="57617.00" departLane="315358250#0_1" departPos="12.10" departSpeed="0.00" departDelay="5.40" arrival="57748.00" arrivalLane="386687235_1" arrivalPos="80.84" arrivalSpeed="13.52" duration="131.00" routeLength="1115.62" waitingTime="24.00" waitingCount="2" stopTime="0.00" timeLoss="49.63" rerouteNo="1" devices="tripinfo_S5R_frequency1.2 routing_S5R_frequency1.2 emissions_S5R_frequency1.2" vType="bus" speedFactor="1.00" vaporized="">
        <emissions CO_abs="2647.440228" CO2_abs="1560481.615909" HC_abs="554.211758" PMx_abs="280.951441" NOx_abs="12386.951544" fuel_abs="665.484715" electricity_abs="0"/>
    </tripinfo>
    <tripinfo id="h5979c1:5" depart="57669.00" departLane="399835085#1_1" departPos="5.10" departSpeed="0.00" departDelay="0.00" arrival="57758.00" arrivalLane="-315358254#1_1" arrivalPos="137.16" arrivalSpeed="13.23" duration="89.00" routeLength="659.33" waitingTime="2.00" waitingCount="1" stopTime="0.00" timeLoss="13.24" rerouteNo="1" devices="tripinfo_h5979c1:5 routing_h5979c1:5 emissions_h5979c1:5" vType="default_016" speedFactor="0.96" vaporized="">
        <emissions CO_abs="3657.176334" CO2_abs="174017.508270" HC_abs="20.663699" PMx_abs="2.876652" NOx_abs="70.753468" fuel_abs="74.803733" electricity_abs="0"/>
    </tripinfo>
    <tripinfo id="h3326c1:2" depart="57656.00" departLane="22716069#0_1" departPos="5.10" departSpeed="0.00" departDelay="0.00" arrival="57767.00" arrivalLane="24634517#13_1" arrivalPos="111.62" arrivalSpeed="13.12" duration="111.00" routeLength="1312.81" waitingTime="0.00" waitingCount="0" stopTime="0.00" timeLoss="15.72" rerouteNo="1" devices="tripinfo_h3326c1:2 routing_h3326c1:2 emissions_h3326c1:2" vType="default_016" speedFactor="1.03" vaporized="">
        <emissions CO_abs="4054.607080" CO2_abs="311611.362930" HC_abs="25.772479" PMx_abs="5.313711" NOx_abs="125.152132" fuel_abs="133.948159" electricity_abs="0"/>
    </tripinfo>
    <tripinfo id="h4538c1:1" depart="57701.00" departLane="-10427692#1_1" departPos="5.10" departSpeed="0.00" departDelay="0.00" arrival="57772.00" arrivalLane="-128361102#1_1" arrivalPos="274.68" arrivalSpeed="15.81" duration="71.00" routeLength="440.74" waitingTime="32.00" waitingCount="1" stopTime="0.00" timeLoss="42.89" rerouteNo="1" devices="tripinfo_h4538c1:1 routing_h4538c1:1 emissions_h4538c1:1" vType="default_016" speedFactor="1.14" vaporized="">
        <emissions CO_abs="5679.811892" CO2_abs="186292.067169" HC_abs="30.181771" PMx_abs="3.744719" NOx_abs="78.620800" fuel_abs="80.080743" electricity_abs="0"/>
    </tripinfo>
    <tripinfo id="h3154c1:1" depart="57658.00" departLane="24634507_1" departPos="5.10" departSpeed="0.00" departDelay="0.00" arrival="57775.00" arrivalLane="-266565295#5_1" arrivalPos="172.76" arrivalSpeed="15.00" duration="117.00" routeLength="1206.22" waitingTime="10.00" waitingCount="1" stopTime="0.00" timeLoss="36.36" rerouteNo="1" devices="tripinfo_h3154c1:1 routing_h3154c1:1 emissions_h3154c1:1" vType="default_016" speedFactor="1.10" vaporized="">
        <emissions CO_abs="5712.576505" CO2_abs="357955.753991" HC_abs="34.415862" PMx_abs="6.520758" NOx_abs="146.816576" fuel_abs="153.869817" electricity_abs="0"/>
    </tripinfo>
    <tripinfo id="carIn30817:1" depart="57681.00" departLane="315358244_1" departPos="5.10" departSpeed="0.00" departDelay="0.20" arrival="57778.00" arrivalLane="447569997#1_1" arrivalPos="180.93" arrivalSpeed="6.08" duration="97.00" routeLength="718.04" waitingTime="11.00" waitingCount="2" stopTime="0.00" timeLoss="25.81" rerouteNo="1" devices="tripinfo_carIn30817:1 routing_carIn30817:1 emissions_carIn30817:1" vType="default_016" speedFactor="0.87" vaporized="">
        <emissions CO_abs="4029.907150" CO2_abs="182568.801964" HC_abs="22.591348" PMx_abs="3.204855" NOx_abs="75.226720" fuel_abs="78.479521" electricity_abs="0"/>
    </tripinfo>
    <tripinfo id="carIn80064:1" depart="57603.00" departLane="128361109#1_1" departPos="5.10" departSpeed="0.00" departDelay="0.40" arrival="57779.00" arrivalLane="-315358254#1_1" arrivalPos="137.16" arrivalSpeed="11.30" duration="176.00" routeLength="1587.97" waitingTime="38.00" waitingCount="3" stopTime="0.00" timeLoss="71.60" rerouteNo="1" devices="tripinfo_carIn80064:1 routing_carIn80064:1 emissions_carIn80064:1" vType="default_016" speedFactor="0.86" vaporized="">
        <emissions CO_abs="11890.357029" CO2_abs="520079.773524" HC_abs="66.298826" PMx_abs="10.263936" NOx_abs="217.921519" fuel_abs="223.561873" electricity_abs="0"/>
    </tripinfo>
    <tripinfo id="carIn121703:1" depart="57647.00" departLane="386687232#0_1" departPos="5.10" departSpeed="0.00" departDelay="0.30" arrival="57779.00" arrivalLane="-315358244_1" arrivalPos="33.95" arrivalSpeed="16.42" duration="132.00" routeLength="1157.39" waitingTime="44.00" waitingCount="2" stopTime="0.00" timeLoss="62.83" rerouteNo="1" devices="tripinfo_carIn121703:1 routing_carIn121703:1 emissions_carIn121703:1" vType="default_016" speedFactor="1.23" vaporized="">
        <emissions CO_abs="9507.656737" CO2_abs="385193.122040" HC_abs="52.141812" PMx_abs="7.562476" NOx_abs="160.087672" fuel_abs="165.580142" electricity_abs="0"/>
    </tripinfo>
    <tripinfo id="carIn27009:1" depart="57673.00" departLane="-447569998#1_1" departPos="5.10" departSpeed="0.00" departDelay="0.50" arrival="57785.00" arrivalLane="-26677539_1" arrivalPos="152.75" arrivalSpeed="7.84" duration="112.00" routeLength="699.63" waitingTime="12.00" waitingCount="1" stopTime="0.00" timeLoss="26.20" rerouteNo="1" devices="tripinfo_carIn27009:1 routing_carIn27009:1 emissions_carIn27009:1" vType="default_015" speedFactor="0.98" vaporized="">
        <emissions CO_abs="5370.792892" CO2_abs="214849.397770" HC_abs="29.397315" PMx_abs="3.653115" NOx_abs="88.264714" fuel_abs="92.356412" electricity_abs="0"/>
    </tripinfo>
    <tripinfo id="h645c1:1" depart="57622.00" departLane="266565295#5_1" departPos="5.10" departSpeed="0.00" departDelay="0.40" arrival="57786.00" arrivalLane="-315358244_1" arrivalPos="33.95" arrivalSpeed="12.50" duration="164.00" routeLength="1910.83" waitingTime="3.00" waitingCount="2" stopTime="0.00" timeLoss="23.54" rerouteNo="1" devices="tripinfo_h645c1:1 routing_h645c1:1 emissions_h645c1:1" vType="default_016" speedFactor="0.99" vaporized="">
        <emissions CO_abs="4788.908126" CO2_abs="376069.020199" HC_abs="30.569680" PMx_abs="6.168594" NOx_abs="149.128364" fuel_abs="161.656015" electricity_abs="0"/>
    </tripinfo>
    <tripinfo id="h317c2:1" depart="57707.00" departLane="-32978638#0_1" departPos="5.10" departSpeed="0.00" departDelay="0.10" arrival="57788.00" arrivalLane="-266565295#5_1" arrivalPos="172.76" arrivalSpeed="11.92" duration="81.00" routeLength="370.53" waitingTime="40.00" waitingCount="1" stopTime="0.00" timeLoss="48.92" rerouteNo="1" devices="tripinfo_h317c2:1 routing_h317c2:1 emissions_h317c2:1" vType="default_016" speedFactor="0.86" vaporized="">
        <emissions CO_abs="7763.846536" CO2_abs="205540.570391" HC_abs="40.154073" PMx_abs="4.221355" NOx_abs="88.191849" fuel_abs="88.356101" electricity_abs="0"/>
    </tripinfo>
    <tripinfo id="h330c1:1" depart="57736.00" departLane="-32978638#0_1" departPos="5.10" departSpeed="0.00" departDelay="0.20" arrival="57789.00" arrivalLane="-266565295#5_1" arrivalPos="172.76" arrivalSpeed="13.45" duration="53.00" routeLength="370.53" waitingTime="13.00" waitingCount="1" stopTime="0.00" timeLoss="29.15" rerouteNo="1" devices="tripinfo_h330c1:1 routing_h330c1:1 emissions_h330c1:1" vType="default_016" speedFactor="1.15" vaporized="">
        <emissions CO_abs="3561.399763" CO2_abs="152001.234629" HC_abs="19.799179" PMx_abs="2.937841" NOx_abs="64.004193" fuel_abs="65.339467" electricity_abs="0"/>
    </tripinfo>
    <tripinfo id="h9563c2:5" depart="57631.00" departLane="315358244_1" departPos="5.10" departSpeed="0.00" departDelay="0.70" arrival="57793.00" arrivalLane="386687235_1" arrivalPos="80.84" arrivalSpeed="14.58" duration="162.00" routeLength="1186.14" waitingTime="54.00" waitingCount="3" stopTime="0.00" timeLoss="82.72" rerouteNo="1" devices="tripinfo_h9563c2:5 routing_h9563c2:5 emissions_h9563c2:5" vType="default_016" speedFactor="1.09" vaporized="">
        <emissions CO_abs="11283.185832" CO2_abs="407516.324174" HC_abs="60.862578" PMx_abs="8.149825" NOx_abs="172.444213" fuel_abs="175.176684" electricity_abs="0"/>
    </tripinfo>
    <tripinfo id="carIn107282:1" depart="57749.00" departLane="-447569998#1_1" departPos="5.10" departSpeed="0.00" departDelay="0.00" arrival="57799.00" arrivalLane="315358242#0_1" arrivalPos="165.37" arrivalSpeed="12.86" duration="50.00" routeLength="448.50" waitingTime="0.00" waitingCount="0" stopTime="0.00" timeLoss="5.62" rerouteNo="1" devices="tripinfo_carIn107282:1 routing_carIn107282:1 emissions_carIn107282:1" vType="default_016" speedFactor="0.95" vaporized="">
        <emissions CO_abs="1986.135164" CO2_abs="112210.015586" HC_abs="11.635822" PMx_abs="1.804226" NOx_abs="44.963975" fuel_abs="48.234756" electricity_abs="0"/>
    </tripinfo>
    <tripinfo id="carIn86816:1" depart="57617.00" departLane="128361102#0_1" departPos="5.10" departSpeed="0.00" departDelay="0.80" arrival="57801.00" arrivalLane="201956811#0_1" arrivalPos="40.40" arrivalSpeed="14.73" duration="184.00" routeLength="2067.33" waitingTime="19.00" waitingCount="2" stopTime="0.00" timeLoss="43.86" rerouteNo="1" devices="tripinfo_carIn86816:1 routing_carIn86816:1 emissions_carIn86816:1" vType="default_016" speedFactor="1.08" vaporized="">
        <emissions CO_abs="7336.803694" CO2_abs="486082.949618" HC_abs="44.687294" PMx_abs="8.455135" NOx_abs="195.593628" fuel_abs="208.946559" electricity_abs="0"/>
    </tripinfo>
    <tripinfo id="carIn12858:1" depart="57661.00" departLane="128361109#1_1" departPos="5.10" departSpeed="0.00" departDelay="0.90" arrival="57812.00" arrivalLane="399835085#1_1" arrivalPos="212.23" arrivalSpeed="8.47" duration="151.00" routeLength="1738.12" waitingTime="13.00" waitingCount="1" stopTime="0.00" timeLoss="43.09" rerouteNo="1" devices="tripinfo_carIn12858:1 routing_carIn12858:1 emissions_carIn12858:1" vType="default_016" speedFactor="1.07" vaporized="">
        <emissions CO_abs="8835.791757" CO2_abs="524594.293671" HC_abs="52.649121" PMx_abs="10.128608" NOx_abs="216.774623" fuel_abs="225.500309" electricity_abs="0"/>
    </tripinfo>
    <tripinfo id="carIn12365:1" depart="57713.00" departLane="315358244_1" departPos="5.10" departSpeed="0.00" departDelay="0.50" arrival="57813.00" arrivalLane="447569997#1_1" arrivalPos="180.93" arrivalSpeed="6.50" duration="100.00" routeLength="718.04" waitingTime="18.00" waitingCount="1" stopTime="0.00" timeLoss="30.96" rerouteNo="1" devices="tripinfo_carIn12365:1 routing_carIn12365:1 emissions_carIn12365:1" vType="default_016" speedFactor="0.90" vaporized="">
        <emissions CO_abs="5415.017724" CO2_abs="219775.855973" HC_abs="29.761808" PMx_abs="3.910873" NOx_abs="90.497760" fuel_abs="94.473890" electricity_abs="0"/>
    </tripinfo>
    <tripinfo id="carIn129809:1" depart="57729.00" departLane="-447569998#1_1" departPos="5.10" departSpeed="0.00" departDelay="1.00" arrival="57813.00" arrivalLane="-315358244_1" arrivalPos="33.95" arrivalSpeed="12.41" duration="84.00" routeLength="706.49" waitingTime="9.00" waitingCount="1" stopTime="0.00" timeLoss="21.78" rerouteNo="1" devices="tripinfo_carIn129809:1 routing_carIn129809:1 emissions_carIn129809:1" vType="default_015" speedFactor="0.97" vaporized="">
        <emissions CO_abs="3740.703680" CO2_abs="202934.440561" HC_abs="21.778204" PMx_abs="3.553654" NOx_abs="82.918850" fuel_abs="87.233398" electricity_abs="0"/>
    </tripinfo>
    <tripinfo id="carIn50326:1" depart="57651.00" departLane="128361102#0_1" departPos="5.10" departSpeed="0.00" departDelay="0.30" arrival="57820.00" arrivalLane="18809673#0_1" arrivalPos="473.56" arrivalSpeed="13.82" duration="169.00" routeLength="1591.07" waitingTime="21.00" waitingCount="2" stopTime="0.00" timeLoss="47.08" rerouteNo="1" devices="tripinfo_carIn50326:1 routing_carIn50326:1 emissions_carIn50326:1" vType="default_016" speedFactor="1.07" vaporized="">
        <emissions CO_abs="7732.827189" CO2_abs="422181.807771" HC_abs="45.069110" PMx_abs="7.514976" NOx_abs="172.237166" fuel_abs="181.478942" electricity_abs="0"/>
    </tripinfo>
    <tripinfo id="carIn28951:1" depart="57606.00" departLane="10425609#0_1" departPos="5.10" departSpeed="0.00" departDelay="0.20" arrival="57823.00" arrivalLane="-128361102#1_1" arrivalPos="274.68" arrivalSpeed="9.59" duration="217.00" routeLength="2095.01" waitingTime="0.00" waitingCount="0" stopTime="0.00" timeLoss="19.98" rerouteNo="1" devices="tripinfo_carIn28951:1 routing_carIn28951:1 emissions_carIn28951:1" vType="default_016" speedFactor="0.78" vaporized="">
        <emissions CO_abs="6530.254951" CO2_abs="434148.010761" HC_abs="39.728558" PMx_abs="6.578732" NOx_abs="171.141950" fuel_abs="186.623130" electricity_abs="0"/>
    </tripinfo>
    <tripinfo id="carIn107084:1" depart="57601.00" departLane="124812856#0_1" departPos="5.10" departSpeed="0.00" departDelay="0.70" arrival="57824.00" arrivalLane="-128361102#1_1" arrivalPos="274.68" arrivalSpeed="12.64" duration="223.00" routeLength="2250.49" waitingTime="15.00" waitingCount="2" stopTime="0.00" timeLoss="61.87" rerouteNo="1" devices="tripinfo_carIn107084:1 routing_carIn107084:1 emissions_carIn107084:1" vType="default_016" speedFactor="1.02" vaporized="">
        <emissions CO_abs="8534.166591" CO2_abs="547468.316050" HC_abs="51.627400" PMx_abs="9.410392" NOx_abs="221.664254" fuel_abs="235.333748" electricity_abs="0"/>
    </tripinfo>
    <tripinfo id="carIn81046:1" depart="57611.00" departLane="124812856#0_1" departPos="5.10" departSpeed="0.00" departDelay="2.50" arrival="57826.00" arrivalLane="-128361102#1_1" arrivalPos="274.68" arrivalSpeed="13.59" duration="215.00" routeLength="2250.49" waitingTime="7.00" waitingCount="2" stopTime="0.00" timeLoss="57.88" rerouteNo="1" devices="tripinfo_carIn81046:1 routing_carIn81046:1 emissions_carIn81046:1" vType="default_016" speedFactor="1.05" vaporized="">
        <emissions CO_abs="8962.393511" CO2_abs="579839.124364" HC_abs="54.462860" PMx_abs="10.336966" NOx_abs="237.382153" fuel_abs="249.247963" electricity_abs="0"/>
    </tripinfo>
    <tripinfo id="carIn56649:1" depart="57631.00" departLane="124812856#0_1" departPos="5.10" departSpeed="0.00" departDelay="7.10" arrival="57828.00" arrivalLane="-128361102#1_1" arrivalPos="274.68" arrivalSpeed="13.35" duration="197.00" routeLength="2250.49" waitingTime="0.00" waitingCount="0" stopTime="0.00" timeLoss="32.04" rerouteNo="1" devices="tripinfo_carIn56649:1 routing_carIn56649:1 emissions_carIn56649:1" vType="default_016" speedFactor="1.00" vaporized="">
        <emissions CO_abs="6735.880410" CO2_abs="530956.382610" HC_abs="43.057434" PMx_abs="8.827399" NOx_abs="212.143559" fuel_abs="228.235191" electricity_abs="0"/>
    </tripinfo>
    <tripinfo id="carIn77943:1" depart="57608.00" departLane="124812856#0_1" departPos="5.10" departSpeed="0.00" departDelay="2.50" arrival="57830.00" arrivalLane="-128361102#1_1" arrivalPos="274.68" arrivalSpeed="12.83" duration="222.00" routeLength="2250.49" waitingTime="10.00" waitingCount="4" stopTime="0.00" timeLoss="49.39" rerouteNo="1" devices="tripinfo_carIn77943:1 routing_carIn77943:1 emissions_carIn77943:1" vType="default_016" speedFactor="0.95" vaporized="">
        <emissions CO_abs="8912.297428" CO2_abs="568782.062488" HC_abs="53.850962" PMx_abs="9.598185" NOx_abs="229.052860" fuel_abs="244.495965" electricity_abs="0"/>
    </tripinfo>
    <tripinfo id="h19804c1:3" depart="57616.00" departLane="124812856#0_1" departPos="5.10" departSpeed="0.00" departDelay="0.50" arrival="57831.00" arrivalLane="-128361102#1_1" arrivalPos="274.68" arrivalSpeed="13.70" duration="215.00" routeLength="2250.49" waitingTime="2.00" waitingCount="1" stopTime="0.00" timeLoss="60.80" rerouteNo="1" devices="tripinfo_h19804c1:3 routing_h19804c1:3 emissions_h19804c1:3" vType="default_016" speedFactor="1.07" vaporized="">
        <emissions CO_abs="9235.055489" CO2_abs="587284.637496" HC_abs="55.828522" PMx_abs="10.257202" NOx_abs="238.653674" fuel_abs="252.448969" electricity_abs="0"/>
    </tripinfo>
    <tripinfo id="carIn77438:1" depart="57614.00" departLane="124812856#0_1" departPos="5.10" departSpeed="0.00" departDelay="1.10" arrival="57833.00" arrivalLane="-128361102#1_1" arrivalPos="274.68" arrivalSpeed="15.93" duration="219.00" routeLength="2232.46" waitingTime="13.00" waitingCount="3" stopTime="0.00" timeLoss="79.82" rerouteNo="1" devices="tripinfo_carIn77438:1 routing_carIn77438:1 emissions_carIn77438:1" vType="default_016" speedFactor="1.18" vaporized="">
        <emissions CO_abs="10744.897089" CO2_abs="678662.105755" HC_abs="64.886151" PMx_abs="12.450581" NOx_abs="279.694790" fuel_abs="291.727431" electricity_abs="0"/>
    </tripinfo>
    <tripinfo id="h8343c1:5" depart="57679.00" departLane="315358254#0_1" departPos="5.10" departSpeed="0.00" departDelay="0.60" arrival="57835.00" arrivalLane="-24634510#5_1" arrivalPos="236.88" arrivalSpeed="13.92" duration="156.00" routeLength="2056.84" waitingTime="8.00" waitingCount="1" stopTime="0.00" timeLoss="32.31" rerouteNo="1" devices="tripinfo_h8343c1:5 routing_h8343c1:5 emissions_h8343c1:5" vType="default_016" speedFactor="1.01" vaporized="">
        <emissions CO_abs="7362.806514" CO2_abs="542040.395370" HC_abs="46.454549" PMx_abs="10.039117" NOx_abs="219.728382" fuel_abs="232.998947" electricity_abs="0"/>
    </tripinfo>
    <tripinfo id="h16072c2:3" depart="57663.00" departLane="315358254#0_1" departPos="5.10" departSpeed="0.00" departDelay="2.50" arrival="57836.00" arrivalLane="386687235_2" arrivalPos="80.84" arrivalSpeed="12.79" duration="173.00" routeLength="1611.92" waitingTime="22.00" waitingCount="2" stopTime="0.00" timeLoss="55.69" rerouteNo="1" devices="tripinfo_h16072c2:3 routing_h16072c2:3 emissions_h16072c2:3" vType="default_016" speedFactor="1.00" vaporized="">
        <emissions CO_abs="7879.062832" CO2_abs="423666.651587" HC_abs="45.798374" PMx_abs="7.415501" NOx_abs="171.902452" fuel_abs="182.117535" electricity_abs="0"/>
    </tripinfo>
    <tripinfo id="carIn118591:1" depart="57689.00" departLane="315358244_1" departPos="5.10" departSpeed="0.00" departDelay="0.20" arrival="57837.00" arrivalLane="386687235_1" arrivalPos="80.84" arrivalSpeed="12.01" duration="148.00" routeLength="1186.14" waitingTime="29.00" waitingCount="3" stopTime="0.00" timeLoss="52.46" rerouteNo="1" devices="tripinfo_carIn118591:1 routing_carIn118591:1 emissions_carIn118591:1" vType="default_016" speedFactor="0.91" vaporized="">
        <emissions CO_abs="6943.352189" CO2_abs="320627.987454" HC_abs="39.085285" PMx_abs="5.600966" NOx_abs="130.508621" fuel_abs="137.826094" electricity_abs="0"/>
    </tripinfo>
    <tripinfo id="carIn48184:1" depart="57613.00" departLane="-306240162#1_0" departPos="5.10" departSpeed="0.00" departDelay="0.70" arrival="57838.00" arrivalLane="386687235_2" arrivalPos="80.84" arrivalSpeed="14.10" duration="225.00" routeLength="2257.41" waitingTime="44.00" waitingCount="5" stopTime="0.00" timeLoss="84.67" rerouteNo="1" devices="tripinfo_carIn48184:1 routing_carIn48184:1 emissions_carIn48184:1" vType="default_016" speedFactor="1.05" vaporized="">
        <emissions CO_abs="11498.520324" CO2_abs="615527.863573" HC_abs="66.918153" PMx_abs="11.664355" NOx_abs="252.989831" fuel_abs="264.590014" electricity_abs="0"/>
    </tripinfo>
    <tripinfo id="h6541c1:3" depart="57727.00" departLane="201950247#3_1" departPos="5.10" departSpeed="0.00" departDelay="0.00" arrival="57838.00" arrivalLane="32978638#0_1" arrivalPos="49.29" arrivalSpeed="16.42" duration="111.00" routeLength="1176.17" waitingTime="1.00" waitingCount="1" stopTime="0.00" timeLoss="24.23" rerouteNo="1" devices="tripinfo_h6541c1:3 routing_h6541c1:3 emissions_h6541c1:3" vType="default_016" speedFactor="1.19" vaporized="">
        <emissions CO_abs="5953.911615" CO2_abs="373120.419694" HC_abs="35.926614" PMx_abs="6.886849" NOx_abs="154.065835" fuel_abs="160.388280" electricity_abs="0"/>
    </tripinfo>
    <tripinfo id="carIn462:1" depart="57622.00" departLane="-306240162#1_0" departPos="5.10" departSpeed="0.00" departDelay="4.80" arrival="57840.00" arrivalLane="386687235_1" arrivalPos="80.84" arrivalSpeed="14.25" duration="218.00" routeLength="2257.41" waitingTime="24.00" waitingCount="2" stopTime="0.00" timeLoss="77.79" rerouteNo="1" devices="tripinfo_carIn462:1 routing_carIn462:1 emissions_carIn462:1" vType="default_016" speedFactor="1.06" vaporized="">
        <emissions CO_abs="11608.837002" CO2_abs="635754.184577" HC_abs="67.759085" PMx_abs="12.034614" NOx_abs="262.967578" fuel_abs="273.284060" electricity_abs="0"/>
    </tripinfo>
    <tripinfo id="h3864c1:3" depart="57678.00" departLane="24693977#1_1" departPos="5.10" departSpeed="0.00" departDelay="0.00" arrival="57841.00" arrivalLane="201956820_1" arrivalPos="48.33" arrivalSpeed="12.99" duration="163.00" routeLength="1574.85" waitingTime="7.00" waitingCount="1" stopTime="0.00" timeLoss="31.28" rerouteNo="1" devices="tripinfo_h3864c1:3 routing_h3864c1:3 emissions_h3864c1:3" vType="default_016" speedFactor="0.99" vaporized="">
        <emissions CO_abs="6534.358024" CO2_abs="403402.120866" HC_abs="39.172136" PMx_abs="6.828510" NOx_abs="162.838959" fuel_abs="173.406072" electricity_abs="0"/>
    </tripinfo>
    <tripinfo id="carIn46110:1" depart="57684.00" departLane="315358244_1" departPos="5.10" departSpeed="0.00" departDelay="1.20" arrival="57842.00" arrivalLane="32978638#0_1" arrivalPos="49.29" arrivalSpeed="13.46" duration="158.00" routeLength="1764.04" waitingTime="11.00" waitingCount="2" stopTime="0.00" timeLoss="34.17" rerouteNo="1" devices="tripinfo_carIn46110:1 routing_carIn46110:1 emissions_carIn46110:1" vType="default_016" speedFactor="1.04" vaporized="">
        <emissions CO_abs="5798.705109" CO2_abs="406772.141028" HC_abs="35.932165" PMx_abs="6.843014" NOx_abs="162.479808" fuel_abs="174.854244" electricity_abs="0"/>
    </tripinfo>
    <tripinfo id="carIn82220:1" depart="57619.00" departLane="-306240162#1_0" departPos="5.10" departSpeed="0.00" departDelay="3.50" arrival="57843.00" arrivalLane="386687235_1" arrivalPos="80.84" arrivalSpeed="12.55" duration="224.00" routeLength="2257.41" waitingTime="30.00" waitingCount="3" stopTime="0.00" timeLoss="59.64" rerouteNo="1" devices="tripinfo_carIn82220:1 routing_carIn82220:1 emissions_carIn82220:1" vType="default_016" speedFactor="0.91" vaporized="">
        <emissions CO_abs="10702.601417" CO2_abs="544597.464824" HC_abs="61.502540" PMx_abs="9.726698" NOx_abs="221.618898" fuel_abs="234.101163" electricity_abs="0"/>
    </tripinfo>