<?xml version="1.0" encoding="UTF-8"?>

<!-- generated on 2021-10-26 11:37:54 by Eclipse SUMO sumo Version 1.10.0
<configuration xmlns:xsi="http://www.w3.org/2001/XMLSchema-instance" xsi:noNamespaceSchemaLocation="http://sumo.dlr.de/xsd/sumoConfiguration.xsd">

    <input>
        <net-file value="/Users/behradkoohy/sumo-scratchpad/RESCO/environments/ingolstadt21/ingolstadt21.net.xml"/>
        <route-files value="/Users/behradkoohy/sumo-scratchpad/RESCO/environments/ingolstadt21/ingolstadt21.rou.xml"/>
    </input>

    <output>
        <tripinfo-output value="/Users/behradkoohy/sumo-scratchpad/RESCO/logs/IDQN-tr0-ingolstadt21-21-drq_norm-wait_norm/tripinfo_27.xml"/>
        <tripinfo-output.write-unfinished value="true"/>
    </output>

    <time>
        <begin value="57600"/>
        <end value="61200"/>
    </time>

    <processing>
        <time-to-teleport value="-1"/>
    </processing>

    <report>
        <no-warnings value="true"/>
        <no-step-log value="true"/>
    </report>

    <emissions>
        <device.emissions.probability value="1"/>
    </emissions>

    <traci_server>
        <remote-port value="57314"/>
    </traci_server>

    <random_number>
        <random value="true"/>
    </random_number>

</configuration>
-->

<tripinfos xmlns:xsi="http://www.w3.org/2001/XMLSchema-instance" xsi:noNamespaceSchemaLocation="http://sumo.dlr.de/xsd/tripinfo_file.xsd">
    <tripinfo id="carIn60260:1" depart="57606.00" departLane="315358254#0_1" departPos="5.10" departSpeed="0.00" departDelay="0.90" arrival="57657.00" arrivalLane="399835085#1_1" arrivalPos="212.23" arrivalSpeed="8.38" duration="51.00" routeLength="430.98" waitingTime="0.00" waitingCount="0" stopTime="0.00" timeLoss="6.78" rerouteNo="1" devices="tripinfo_carIn60260:1 routing_carIn60260:1 emissions_carIn60260:1" vType="default_016" speedFactor="1.04" vaporized="">
        <emissions CO_abs="2224.983133" CO2_abs="118266.827961" HC_abs="12.860436" PMx_abs="1.917681" NOx_abs="47.685208" fuel_abs="50.838415" electricity_abs="0"/>
    </tripinfo>
    <tripinfo id="h15454c2:3" depart="57612.00" departLane="24608844_1" departPos="5.10" departSpeed="0.00" departDelay="0.50" arrival="57667.00" arrivalLane="32978638#0_1" arrivalPos="49.29" arrivalSpeed="13.18" duration="55.00" routeLength="354.79" waitingTime="10.00" waitingCount="1" stopTime="0.00" timeLoss="19.60" rerouteNo="1" devices="tripinfo_h15454c2:3 routing_h15454c2:3 emissions_h15454c2:3" vType="default_016" speedFactor="0.96" vaporized="">
        <emissions CO_abs="3169.639623" CO2_abs="139123.862119" HC_abs="17.664271" PMx_abs="2.443195" NOx_abs="57.184216" fuel_abs="59.804260" electricity_abs="0"/>
    </tripinfo>
    <tripinfo id="carIn53971:1" depart="57640.00" departLane="272042143_1" departPos="5.10" departSpeed="0.00" departDelay="0.80" arrival="57691.00" arrivalLane="24634414#1_1" arrivalPos="162.19" arrivalSpeed="7.98" duration="51.00" routeLength="493.04" waitingTime="0.00" waitingCount="0" stopTime="0.00" timeLoss="9.44" rerouteNo="1" devices="tripinfo_carIn53971:1 routing_carIn53971:1 emissions_carIn53971:1" vType="default_016" speedFactor="1.10" vaporized="">
        <emissions CO_abs="2197.530282" CO2_abs="134541.247106" HC_abs="13.140567" PMx_abs="2.398693" NOx_abs="55.202965" fuel_abs="57.833593" electricity_abs="0"/>
    </tripinfo>
    <tripinfo id="h7800c1:5" depart="57696.00" departLane="-447569998#1_1" departPos="5.10" departSpeed="0.00" departDelay="0.00" arrival="57725.00" arrivalLane="-447569998#1_2" arrivalPos="180.76" arrivalSpeed="3.34" duration="29.00" routeLength="175.66" waitingTime="3.00" waitingCount="1" stopTime="0.00" timeLoss="10.40" rerouteNo="1" devices="tripinfo_h7800c1:5 routing_h7800c1:5 emissions_h7800c1:5" vType="default_016" speedFactor="1.14" vaporized="">
        <emissions CO_abs="1381.071770" CO2_abs="58526.789561" HC_abs="7.639795" PMx_abs="1.004700" NOx_abs="24.062761" fuel_abs="25.158586" electricity_abs="0"/>
    </tripinfo>
    <tripinfo id="h3688c1:1" depart="57625.00" departLane="201201950#1_1" departPos="5.10" departSpeed="0.00" departDelay="0.00" arrival="57730.00" arrivalLane="32978638#0_1" arrivalPos="49.29" arrivalSpeed="14.97" duration="105.00" routeLength="1089.75" waitingTime="16.00" waitingCount="1" stopTime="0.00" timeLoss="31.95" rerouteNo="1" devices="tripinfo_h3688c1:1 routing_h3688c1:1 emissions_h3688c1:1" vType="default_016" speedFactor="1.10" vaporized="">
        <emissions CO_abs="5453.593458" CO2_abs="321718.632232" HC_abs="32.222418" PMx_abs="5.695393" NOx_abs="130.001976" fuel_abs="138.293626" electricity_abs="0"/>
    </tripinfo>
    <tripinfo id="h4538c1:1" depart="57701.00" departLane="-10427692#1_1" departPos="5.10" departSpeed="0.00" departDelay="0.00" arrival="57737.00" arrivalLane="-128361102#1_1" arrivalPos="274.68" arrivalSpeed="13.93" duration="36.00" routeLength="440.74" waitingTime="0.00" waitingCount="0" stopTime="0.00" timeLoss="6.14" rerouteNo="1" devices="tripinfo_h4538c1:1 routing_h4538c1:1 emissions_h4538c1:1" vType="default_016" speedFactor="1.09" vaporized="">
        <emissions CO_abs="1493.224464" CO2_abs="101199.164376" HC_abs="9.188872" PMx_abs="1.819144" NOx_abs="41.273170" fuel_abs="43.501121" electricity_abs="0"/>
    </tripinfo>
    <tripinfo id="carIn22761:1" depart="57616.00" departLane="-306240162#1_0" departPos="5.10" departSpeed="0.00" departDelay="2.10" arrival="57738.00" arrivalLane="399835085#1_1" arrivalPos="212.23" arrivalSpeed="8.73" duration="122.00" routeLength="1093.26" waitingTime="27.00" waitingCount="1" stopTime="0.00" timeLoss="55.84" rerouteNo="1" devices="tripinfo_carIn22761:1 routing_carIn22761:1 emissions_carIn22761:1" vType="default_016" speedFactor="1.18" vaporized="">
        <emissions CO_abs="9320.708925" CO2_abs="417768.350397" HC_abs="52.346088" PMx_abs="8.306051" NOx_abs="175.066116" fuel_abs="179.581981" electricity_abs="0"/>
    </tripinfo>
    <tripinfo id="h317c2:1" depart="57707.00" departLane="-32978638#0_1" departPos="5.10" departSpeed="0.00" departDelay="0.10" arrival="57738.00" arrivalLane="-266565295#5_1" arrivalPos="172.76" arrivalSpeed="14.45" duration="31.00" routeLength="370.53" waitingTime="0.00" waitingCount="0" stopTime="0.00" timeLoss="6.08" rerouteNo="1" devices="tripinfo_h317c2:1 routing_h317c2:1 emissions_h317c2:1" vType="default_016" speedFactor="1.11" vaporized="">
        <emissions CO_abs="1779.063791" CO2_abs="113962.559740" HC_abs="10.790422" PMx_abs="2.158641" NOx_abs="47.322536" fuel_abs="48.987448" electricity_abs="0"/>
    </tripinfo>
    <tripinfo id="h3568c1:3" depart="57656.00" departLane="266565295#5_1" departPos="5.10" departSpeed="0.00" departDelay="0.80" arrival="57740.00" arrivalLane="-24634415_1" arrivalPos="62.03" arrivalSpeed="12.47" duration="84.00" routeLength="807.40" waitingTime="0.00" waitingCount="0" stopTime="0.00" timeLoss="13.97" rerouteNo="1" devices="tripinfo_h3568c1:3 routing_h3568c1:3 emissions_h3568c1:3" vType="default_016" speedFactor="0.93" vaporized="">
        <emissions CO_abs="3507.629201" CO2_abs="214680.812134" HC_abs="20.977478" PMx_abs="3.613285" NOx_abs="86.750998" fuel_abs="92.282535" electricity_abs="0"/>
    </tripinfo>
    <tripinfo id="carIn80064:1" depart="57603.00" departLane="128361109#1_1" departPos="5.10" departSpeed="0.00" departDelay="0.40" arrival="57742.00" arrivalLane="-315358254#1_1" arrivalPos="137.16" arrivalSpeed="14.38" duration="139.00" routeLength="1587.97" waitingTime="31.00" waitingCount="2" stopTime="0.00" timeLoss="57.51" rerouteNo="1" devices="tripinfo_carIn80064:1 routing_carIn80064:1 emissions_carIn80064:1" vType="default_016" speedFactor="1.09" vaporized="">
        <emissions CO_abs="10554.292112" CO2_abs="535192.443165" HC_abs="60.821667" PMx_abs="10.897225" NOx_abs="222.988227" fuel_abs="230.056640" electricity_abs="0"/>
    </tripinfo>
    <tripinfo id="carIn30817:1" depart="57681.00" departLane="315358244_1" departPos="5.10" departSpeed="0.00" departDelay="0.20" arrival="57743.00" arrivalLane="447569997#1_1" arrivalPos="180.93" arrivalSpeed="8.63" duration="62.00" routeLength="718.04" waitingTime="0.00" waitingCount="0" stopTime="0.00" timeLoss="6.94" rerouteNo="1" devices="tripinfo_carIn30817:1 routing_carIn30817:1 emissions_carIn30817:1" vType="default_016" speedFactor="1.13" vaporized="">
        <emissions CO_abs="1950.901407" CO2_abs="156048.655228" HC_abs="12.426691" PMx_abs="2.395405" NOx_abs="60.544268" fuel_abs="67.078890" electricity_abs="0"/>
    </tripinfo>
    <tripinfo id="carIn121703:1" depart="57647.00" departLane="386687232#0_1" departPos="5.10" departSpeed="0.00" departDelay="0.30" arrival="57753.00" arrivalLane="-315358244_1" arrivalPos="33.95" arrivalSpeed="13.02" duration="106.00" routeLength="1157.39" waitingTime="5.00" waitingCount="1" stopTime="0.00" timeLoss="23.01" rerouteNo="1" devices="tripinfo_carIn121703:1 routing_carIn121703:1 emissions_carIn121703:1" vType="default_016" speedFactor="1.02" vaporized="">
        <emissions CO_abs="3476.259932" CO2_abs="272678.082598" HC_abs="22.083220" PMx_abs="4.288656" NOx_abs="106.656502" fuel_abs="117.212967" electricity_abs="0"/>
    </tripinfo>
    <tripinfo id="h9563c2:5" depart="57631.00" departLane="315358244_1" departPos="5.10" departSpeed="0.00" departDelay="0.70" arrival="57757.00" arrivalLane="386687235_1" arrivalPos="80.84" arrivalSpeed="14.31" duration="126.00" routeLength="1186.14" waitingTime="30.00" waitingCount="1" stopTime="0.00" timeLoss="46.13" rerouteNo="1" devices="tripinfo_h9563c2:5 routing_h9563c2:5 emissions_h9563c2:5" vType="default_016" speedFactor="1.09" vaporized="">
        <emissions CO_abs="7700.783179" CO2_abs="327262.066278" HC_abs="42.573783" PMx_abs="5.934448" NOx_abs="133.230005" fuel_abs="140.678146" electricity_abs="0"/>
    </tripinfo>
    <tripinfo id="h330c1:1" depart="57736.00" departLane="-32978638#0_1" departPos="5.10" departSpeed="0.00" departDelay="0.20" arrival="57767.00" arrivalLane="-266565295#5_1" arrivalPos="172.76" arrivalSpeed="13.58" duration="31.00" routeLength="370.53" waitingTime="0.00" waitingCount="0" stopTime="0.00" timeLoss="5.24" rerouteNo="1" devices="tripinfo_h330c1:1 routing_h330c1:1 emissions_h330c1:1" vType="default_016" speedFactor="1.06" vaporized="">
        <emissions CO_abs="1667.175813" CO2_abs="115702.110952" HC_abs="10.322365" PMx_abs="2.056071" NOx_abs="47.081604" fuel_abs="49.735305" electricity_abs="0"/>
    </tripinfo>
    <tripinfo id="h12244c1:3" depart="57612.00" departLane="315358244_1" departPos="5.10" departSpeed="0.00" departDelay="0.40" arrival="57770.00" arrivalLane="386687235_1" arrivalPos="80.84" arrivalSpeed="11.75" duration="158.00" routeLength="1186.14" waitingTime="48.00" waitingCount="1" stopTime="0.00" timeLoss="63.40" rerouteNo="1" devices="tripinfo_h12244c1:3 routing_h12244c1:3 emissions_h12244c1:3" vType="default_016" speedFactor="0.91" vaporized="">
        <emissions CO_abs="10098.853837" CO2_abs="346761.017947" HC_abs="54.036684" PMx_abs="6.319175" NOx_abs="142.650615" fuel_abs="149.061551" electricity_abs="0"/>
    </tripinfo>
    <tripinfo id="h5979c1:5" depart="57669.00" departLane="399835085#1_1" departPos="5.10" departSpeed="0.00" departDelay="0.00" arrival="57773.00" arrivalLane="-315358254#1_1" arrivalPos="137.16" arrivalSpeed="12.42" duration="104.00" routeLength="659.33" waitingTime="9.00" waitingCount="1" stopTime="0.00" timeLoss="25.01" rerouteNo="1" devices="tripinfo_h5979c1:5 routing_h5979c1:5 emissions_h5979c1:5" vType="default_016" speedFactor="0.93" vaporized="">
        <emissions CO_abs="4792.244304" CO2_abs="200006.484444" HC_abs="26.418308" PMx_abs="3.335997" NOx_abs="81.554337" fuel_abs="85.975893" electricity_abs="0"/>
    </tripinfo>
    <tripinfo id="h7181c1:1" depart="57660.00" departLane="315358254#0_1" departPos="5.10" departSpeed="0.00" departDelay="0.10" arrival="57774.00" arrivalLane="306240162#0_0" arrivalPos="220.43" arrivalSpeed="13.26" duration="114.00" routeLength="932.35" waitingTime="27.00" waitingCount="3" stopTime="0.00" timeLoss="52.76" rerouteNo="1" devices="tripinfo_h7181c1:1 routing_h7181c1:1 emissions_h7181c1:1" vType="default_016" speedFactor="0.85" vaporized="">
        <emissions CO_abs="6140.831006" CO2_abs="309473.393953" HC_abs="35.142540" PMx_abs="5.816409" NOx_abs="127.726737" fuel_abs="133.030107" electricity_abs="0"/>
    </tripinfo>
    <tripinfo id="h3154c1:1" depart="57658.00" departLane="24634507_1" departPos="5.10" departSpeed="0.00" departDelay="0.00" arrival="57775.00" arrivalLane="-266565295#5_1" arrivalPos="172.76" arrivalSpeed="15.47" duration="117.00" routeLength="1206.22" waitingTime="20.00" waitingCount="1" stopTime="0.00" timeLoss="37.21" rerouteNo="1" devices="tripinfo_h3154c1:1 routing_h3154c1:1 emissions_h3154c1:1" vType="default_016" speedFactor="1.12" vaporized="">
        <emissions CO_abs="6658.113873" CO2_abs="364046.311878" HC_abs="38.738774" PMx_abs="6.728184" NOx_abs="149.254916" fuel_abs="156.488512" electricity_abs="0"/>
    </tripinfo>
    <tripinfo id="S5R_frequency1.2" depart="57676.00" departLane="315358250#0_1" departPos="12.10" departSpeed="0.00" departDelay="64.40" arrival="57782.00" arrivalLane="386687235_1" arrivalPos="80.84" arrivalSpeed="13.47" duration="106.00" routeLength="1115.62" waitingTime="4.00" waitingCount="1" stopTime="0.00" timeLoss="23.94" rerouteNo="1" devices="tripinfo_S5R_frequency1.2 routing_S5R_frequency1.2 emissions_S5R_frequency1.2" vType="bus" speedFactor="1.00" vaporized="">
        <emissions CO_abs="2149.902005" CO2_abs="1324708.600996" HC_abs="448.784885" PMx_abs="229.590907" NOx_abs="10346.594514" fuel_abs="564.959843" electricity_abs="0"/>
    </tripinfo>
    <tripinfo id="h3326c1:2" depart="57656.00" departLane="22716069#0_1" departPos="5.10" departSpeed="0.00" departDelay="0.00" arrival="57789.00" arrivalLane="24634517#13_1" arrivalPos="111.62" arrivalSpeed="11.30" duration="133.00" routeLength="1312.81" waitingTime="0.00" waitingCount="0" stopTime="0.00" timeLoss="16.26" rerouteNo="1" devices="tripinfo_h3326c1:2 routing_h3326c1:2 emissions_h3326c1:2" vType="default_016" speedFactor="0.84" vaporized="">
        <emissions CO_abs="4637.650449" CO2_abs="303541.824590" HC_abs="28.142697" PMx_abs="4.798425" NOx_abs="120.795678" fuel_abs="130.480447" electricity_abs="0"/>
    </tripinfo>
    <tripinfo id="carIn27009:1" depart="57673.00" departLane="-447569998#1_1" departPos="5.10" departSpeed="0.00" departDelay="0.50" arrival="57790.00" arrivalLane="-26677539_1" arrivalPos="152.75" arrivalSpeed="7.98" duration="117.00" routeLength="699.63" waitingTime="23.00" waitingCount="1" stopTime="0.00" timeLoss="39.75" rerouteNo="1" devices="tripinfo_carIn27009:1 routing_carIn27009:1 emissions_carIn27009:1" vType="default_015" speedFactor="1.09" vaporized="">
        <emissions CO_abs="6666.196975" CO2_abs="238544.742353" HC_abs="35.865703" PMx_abs="4.272650" NOx_abs="99.101328" fuel_abs="102.542533" electricity_abs="0"/>
    </tripinfo>
    <tripinfo id="carIn107282:1" depart="57749.00" departLane="-447569998#1_1" departPos="5.10" departSpeed="0.00" departDelay="0.00" arrival="57795.00" arrivalLane="315358242#0_1" arrivalPos="165.37" arrivalSpeed="13.89" duration="46.00" routeLength="448.50" waitingTime="0.00" waitingCount="0" stopTime="0.00" timeLoss="5.29" rerouteNo="1" devices="tripinfo_carIn107282:1 routing_carIn107282:1 emissions_carIn107282:1" vType="default_016" speedFactor="1.03" vaporized="">
        <emissions CO_abs="1742.013280" CO2_abs="109058.693900" HC_abs="10.423218" PMx_abs="1.715086" NOx_abs="43.119603" fuel_abs="46.880051" electricity_abs="0"/>
    </tripinfo>
    <tripinfo id="carIn86816:1" depart="57617.00" departLane="128361102#0_1" departPos="5.10" departSpeed="0.00" departDelay="0.80" arrival="57796.00" arrivalLane="201956811#0_1" arrivalPos="40.40" arrivalSpeed="13.19" duration="179.00" routeLength="2067.33" waitingTime="0.00" waitingCount="0" stopTime="0.00" timeLoss="22.40" rerouteNo="1" devices="tripinfo_carIn86816:1 routing_carIn86816:1 emissions_carIn86816:1" vType="default_016" speedFactor="0.97" vaporized="">
        <emissions CO_abs="5641.519763" CO2_abs="461112.003323" HC_abs="36.427585" PMx_abs="7.244274" NOx_abs="181.044456" fuel_abs="198.212637" electricity_abs="0"/>
    </tripinfo>
    <tripinfo id="h645c1:1" depart="57622.00" departLane="266565295#5_1" departPos="5.10" departSpeed="0.00" departDelay="0.40" arrival="57803.00" arrivalLane="-315358244_1" arrivalPos="33.95" arrivalSpeed="14.35" duration="181.00" routeLength="1910.83" waitingTime="20.00" waitingCount="3" stopTime="0.00" timeLoss="46.42" rerouteNo="1" devices="tripinfo_h645c1:1 routing_h645c1:1 emissions_h645c1:1" vType="default_016" speedFactor="1.03" vaporized="">
        <emissions CO_abs="7096.573712" CO2_abs="468925.237626" HC_abs="43.223291" PMx_abs="7.922249" NOx_abs="187.322069" fuel_abs="201.571556" electricity_abs="0"/>
    </tripinfo>
    <tripinfo id="carIn129809:1" depart="57729.00" departLane="-447569998#1_1" departPos="5.10" departSpeed="0.00" departDelay="1.00" arrival="57805.00" arrivalLane="-315358244_1" arrivalPos="33.95" arrivalSpeed="11.76" duration="76.00" routeLength="706.49" waitingTime="0.00" waitingCount="0" stopTime="0.00" timeLoss="9.27" rerouteNo="1" devices="tripinfo_carIn129809:1 routing_carIn129809:1 emissions_carIn129809:1" vType="default_015" speedFactor="0.90" vaporized="">
        <emissions CO_abs="2712.756341" CO2_abs="160072.107376" HC_abs="16.052601" PMx_abs="2.554668" NOx_abs="63.933249" fuel_abs="68.808758" electricity_abs="0"/>
    </tripinfo>
    <tripinfo id="h11737c1:1" depart="57665.00" departLane="272042143_1" departPos="5.10" departSpeed="0.00" departDelay="1.50" arrival="57806.00" arrivalLane="-315358254#1_1" arrivalPos="137.16" arrivalSpeed="14.96" duration="141.00" routeLength="1596.88" waitingTime="17.00" waitingCount="1" stopTime="0.00" timeLoss="34.89" rerouteNo="1" devices="tripinfo_h11737c1:1 routing_h11737c1:1 emissions_h11737c1:1" vType="default_016" speedFactor="1.10" vaporized="">
        <emissions CO_abs="6365.214979" CO2_abs="373889.516919" HC_abs="37.690287" PMx_abs="6.577752" NOx_abs="150.607530" fuel_abs="160.719878" electricity_abs="0"/>
    </tripinfo>
    <tripinfo id="carIn118591:1" depart="57689.00" departLane="315358244_1" departPos="5.10" departSpeed="0.00" departDelay="0.20" arrival="57813.00" arrivalLane="386687235_1" arrivalPos="80.84" arrivalSpeed="12.64" duration="124.00" routeLength="1186.14" waitingTime="16.00" waitingCount="2" stopTime="0.00" timeLoss="33.32" rerouteNo="1" devices="tripinfo_carIn118591:1 routing_carIn118591:1 emissions_carIn118591:1" vType="default_016" speedFactor="0.96" vaporized="">
        <emissions CO_abs="4533.517115" CO2_abs="279632.881564" HC_abs="27.153384" PMx_abs="4.579511" NOx_abs="111.282011" fuel_abs="120.203040" electricity_abs="0"/>
    </tripinfo>
    <tripinfo id="carIn77943:1" depart="57607.00" departLane="124812856#0_1" departPos="5.10" departSpeed="0.00" departDelay="1.50" arrival="57824.00" arrivalLane="-128361102#1_1" arrivalPos="274.68" arrivalSpeed="15.11" duration="217.00" routeLength="2250.49" waitingTime="27.00" waitingCount="2" stopTime="0.00" timeLoss="70.52" rerouteNo="1" devices="tripinfo_carIn77943:1 routing_carIn77943:1 emissions_carIn77943:1" vType="default_016" speedFactor="1.13" vaporized="">
        <emissions CO_abs="11921.652217" CO2_abs="649123.340850" HC_abs="69.339285" PMx_abs="11.864720" NOx_abs="265.375957" fuel_abs="279.031630" electricity_abs="0"/>
    </tripinfo>
    <tripinfo id="carIn50326:1" depart="57651.00" departLane="128361102#0_1" departPos="5.10" departSpeed="0.00" departDelay="0.30" arrival="57826.00" arrivalLane="18809673#0_1" arrivalPos="473.56" arrivalSpeed="11.80" duration="175.00" routeLength="1591.07" waitingTime="5.00" waitingCount="1" stopTime="0.00" timeLoss="30.98" rerouteNo="1" devices="tripinfo_carIn50326:1 routing_carIn50326:1 emissions_carIn50326:1" vType="default_016" speedFactor="0.90" vaporized="">
        <emissions CO_abs="5762.165676" CO2_abs="346721.932562" HC_abs="34.253175" PMx_abs="5.501380" NOx_abs="138.049239" fuel_abs="149.042216" electricity_abs="0"/>
    </tripinfo>
    <tripinfo id="carIn12365:1" depart="57713.00" departLane="315358244_1" departPos="5.10" departSpeed="0.00" departDelay="0.50" arrival="57829.00" arrivalLane="447569997#1_1" arrivalPos="180.93" arrivalSpeed="8.85" duration="116.00" routeLength="718.04" waitingTime="43.00" waitingCount="2" stopTime="0.00" timeLoss="58.62" rerouteNo="1" devices="tripinfo_carIn12365:1 routing_carIn12365:1 emissions_carIn12365:1" vType="default_016" speedFactor="1.08" vaporized="">
        <emissions CO_abs="8740.207339" CO2_abs="288662.283307" HC_abs="46.513005" PMx_abs="5.588421" NOx_abs="121.250743" fuel_abs="124.086488" electricity_abs="0"/>
    </tripinfo>
    <tripinfo id="carIn107084:1" depart="57601.00" departLane="124812856#0_1" departPos="5.10" departSpeed="0.00" departDelay="0.70" arrival="57831.00" arrivalLane="-128361102#1_1" arrivalPos="274.68" arrivalSpeed="12.31" duration="230.00" routeLength="2250.49" waitingTime="12.00" waitingCount="3" stopTime="0.00" timeLoss="51.39" rerouteNo="1" devices="tripinfo_carIn107084:1 routing_carIn107084:1 emissions_carIn107084:1" vType="default_016" speedFactor="0.92" vaporized="">
        <emissions CO_abs="8356.987239" CO2_abs="534718.329744" HC_abs="50.514565" PMx_abs="8.845741" NOx_abs="214.307963" fuel_abs="229.853615" electricity_abs="0"/>
    </tripinfo>
    <tripinfo id="carIn77438:1" depart="57613.00" departLane="124812856#0_1" departPos="5.10" departSpeed="0.00" departDelay="0.10" arrival="57833.00" arrivalLane="-128361102#1_1" arrivalPos="274.68" arrivalSpeed="14.37" duration="220.00" routeLength="2250.49" waitingTime="8.00" waitingCount="1" stopTime="0.00" timeLoss="60.89" rerouteNo="1" devices="tripinfo_carIn77438:1 routing_carIn77438:1 emissions_carIn77438:1" vType="default_016" speedFactor="1.04" vaporized="">
        <emissions CO_abs="8838.878055" CO2_abs="594352.216689" HC_abs="54.209342" PMx_abs="10.487305" NOx_abs="242.531352" fuel_abs="255.486392" electricity_abs="0"/>
    </tripinfo>
    <tripinfo id="carIn8642:1" depart="57774.00" departLane="-447569998#1_1" departPos="5.10" departSpeed="0.00" departDelay="0.90" arrival="57842.00" arrivalLane="-315358244_1" arrivalPos="33.95" arrivalSpeed="13.00" duration="68.00" routeLength="706.49" waitingTime="0.00" waitingCount="0" stopTime="0.00" timeLoss="6.41" rerouteNo="1" devices="tripinfo_carIn8642:1 routing_carIn8642:1 emissions_carIn8642:1" vType="default_016" speedFactor="0.98" vaporized="">
        <emissions CO_abs="2180.444591" CO2_abs="144523.821026" HC_abs="13.265242" PMx_abs="2.277856" NOx_abs="57.146194" fuel_abs="62.125008" electricity_abs="0"/>
    </tripinfo>
    <tripinfo id="carIn102915:1" depart="57643.00" departLane="128361102#0_1" departPos="5.10" departSpeed="0.00" departDelay="0.40" arrival="57843.00" arrivalLane="201956811#0_1" arrivalPos="40.40" arrivalSpeed="13.56" duration="200.00" routeLength="2067.33" waitingTime="19.00" waitingCount="2" stopTime="0.00" timeLoss="48.34" rerouteNo="1" devices="tripinfo_carIn102915:1 routing_carIn102915:1 emissions_carIn102915:1" vType="default_016" speedFactor="1.00" vaporized="">
        <emissions CO_abs="7981.561580" CO2_abs="511340.484037" HC_abs="48.267141" PMx_abs="8.697731" NOx_abs="205.425314" fuel_abs="219.804158" electricity_abs="0"/>
    </tripinfo>
    <tripinfo id="randUni33724:1" depart="57646.00" departLane="128361102#0_1" departPos="5.10" departSpeed="0.00" departDelay="1.20" arrival="57844.00" arrivalLane="201956811#0_1" arrivalPos="40.40" arrivalSpeed="14.56" duration="198.00" routeLength="2067.33" waitingTime="17.00" waitingCount="2" stopTime="0.00" timeLoss="60.19" rerouteNo="1" devices="tripinfo_randUni33724:1 routing_randUni33724:1 emissions_randUni33724:1" vType="random_016" speedFactor="1.10" vaporized="">
        <emissions CO_abs="8940.218536" CO2_abs="538206.418425" HC_abs="53.386028" PMx_abs="9.764896" NOx_abs="220.790984" fuel_abs="231.352184" electricity_abs="0"/>
    </tripinfo>
    <tripinfo id="carIn28951:1" depart="57606.00" departLane="10425609#0_1" departPos="5.10" departSpeed="0.00" departDelay="0.20" arrival="57848.00" arrivalLane="-128361102#1_1" arrivalPos="274.68" arrivalSpeed="12.71" duration="242.00" routeLength="2113.04" waitingTime="35.00" waitingCount="3" stopTime="0.00" timeLoss="74.67" rerouteNo="1" devices="tripinfo_carIn28951:1 routing_carIn28951:1 emissions_carIn28951:1" vType="default_016" speedFactor="0.92" vaporized="">
        <emissions CO_abs="10574.917328" CO2_abs="556814.796701" HC_abs="61.116455" PMx_abs="9.447587" NOx_abs="224.724778" fuel_abs="239.353224" electricity_abs="0"/>
    </tripinfo>
    <tripinfo id="h20540c1:1" depart="57634.00" departLane="10425609#0_1" departPos="5.10" departSpeed="0.00" departDelay="0.50" arrival="57850.00" arrivalLane="-128361102#1_1" arrivalPos="274.68" arrivalSpeed="13.95" duration="216.00" routeLength="2113.04" waitingTime="16.00" waitingCount="2" stopTime="0.00" timeLoss="63.92" rerouteNo="1" devices="tripinfo_h20540c1:1 routing_h20540c1:1 emissions_h20540c1:1" vType="default_016" speedFactor="1.02" vaporized="">
        <emissions CO_abs="8427.479380" CO2_abs="530480.721662" HC_abs="50.820587" PMx_abs="9.246753" NOx_abs="215.847214" fuel_abs="228.031417" electricity_abs="0"/>
    </tripinfo>
    <tripinfo id="carIn46110:1" depart="57684.00" departLane="315358244_1" departPos="5.10" departSpeed="0.00" departDelay="1.20" arrival="57850.00" arrivalLane="32978638#0_1" arrivalPos="49.29" arrivalSpeed="14.52" duration="166.00" routeLength="1764.04" waitingTime="25.00" waitingCount="2" stopTime="0.00" timeLoss="47.25" rerouteNo="1" devices="tripinfo_carIn46110:1 routing_carIn46110:1 emissions_carIn46110:1" vType="default_016" speedFactor="1.08" vaporized="">
        <emissions CO_abs="7272.665459" CO2_abs="419892.462840" HC_abs="42.873234" PMx_abs="7.354447" NOx_abs="168.916005" fuel_abs="180.494827" electricity_abs="0"/>
    </tripinfo>
    <tripinfo id="carIn81046:1" depart="57609.00" departLane="124812856#0_1" departPos="5.10" departSpeed="0.00" departDelay="0.50" arrival="57852.00" arrivalLane="-128361102#1_1" arrivalPos="274.68" arrivalSpeed="13.57" duration="243.00" routeLength="2250.49" waitingTime="24.00" waitingCount="3" stopTime="0.00" timeLoss="74.54" rerouteNo="1" devices="tripinfo_carIn81046:1 routing_carIn81046:1 emissions_carIn81046:1" vType="default_016" speedFactor="0.98" vaporized="">
        <emissions CO_abs="9843.647586" CO2_abs="605303.649700" HC_abs="59.006730" PMx_abs="10.496353" NOx_abs="245.962921" fuel_abs="260.194932" electricity_abs="0"/>
    </tripinfo>
    <tripinfo id="h3864c1:3" depart="57678.00" departLane="24693977#1_1" departPos="5.10" departSpeed="0.00" departDelay="0.00" arrival="57852.00" arrivalLane="201956820_2" arrivalPos="48.33" arrivalSpeed="13.12" duration="174.00" routeLength="1574.85" waitingTime="18.00" waitingCount="2" stopTime="0.00" timeLoss="47.40" rerouteNo="1" devices="tripinfo_h3864c1:3 routing_h3864c1:3 emissions_h3864c1:3" vType="default_016" speedFactor="1.02" vaporized="">
        <emissions CO_abs="8233.353869" CO2_abs="457897.394589" HC_abs="48.217022" PMx_abs="8.179476" NOx_abs="187.798679" fuel_abs="196.831381" electricity_abs="0"/>
    </tripinfo>
    <tripinfo id="carIn82278:1" depart="57702.00" departLane="-306240162#1_0" departPos="5.10" departSpeed="0.00" departDelay="0.70" arrival="57852.00" arrivalLane="399835085#1_1" arrivalPos="212.23" arrivalSpeed="5.10" duration="150.00" routeLength="1093.26" waitingTime="40.00" waitingCount="2" stopTime="0.00" timeLoss="75.69" rerouteNo="1" devices="tripinfo_carIn82278:1 routing_carIn82278:1 emissions_carIn82278:1" vType="default_016" speedFactor="1.05" vaporized="">
        <emissions CO_abs="11411.623878" CO2_abs="430722.439012" HC_abs="62.208388" PMx_abs="8.931471" NOx_abs="184.115341" fuel_abs="185.151285" electricity_abs="0"/>
    </tripinfo>
    <tripinfo id="h19804c1:3" depart="57616.00" departLane="124812856#0_1" departPos="5.10" departSpeed="0.00" departDelay="0.50" arrival="57858.00" arrivalLane="-128361102#1_1" arrivalPos="274.68" arrivalSpeed="10.65" duration="242.00" routeLength="2232.46" waitingTime="16.00" waitingCount="2" stopTime="0.00" timeLoss="45.73" rerouteNo="1" devices="tripinfo_h19804c1:3 routing_h19804c1:3 emissions_h19804c1:3" vType="default_016" speedFactor="0.83" vaporized="">
        <emissions CO_abs="8071.005915" CO2_abs="486081.811537" HC_abs="48.020808" PMx_abs="7.883264" NOx_abs="194.665349" fuel_abs="208.947315" electricity_abs="0"/>
    </tripinfo>
    <tripinfo id="carIn107842:1" depart="57622.00" departLane="124812856#0_1" departPos="5.10" departSpeed="0.00" departDelay="0.90" arrival="57859.00" arrivalLane="-128361102#1_1" arrivalPos="274.68" arrivalSpeed="12.04" duration="237.00" routeLength="2250.49" waitingTime="23.00" waitingCount="3" stopTime="0.00" timeLoss="57.43" rerouteNo="1" devices="tripinfo_carIn107842:1 routing_carIn107842:1 emissions_carIn107842:1" vType="default_016" speedFactor="0.91" vaporized="">
        <emissions CO_abs="8416.668214" CO2_abs="507544.083591" HC_abs="50.144791" PMx_abs="8.448255" NOx_abs="203.984153" fuel_abs="218.172825" electricity_abs="0"/>
    </tripinfo>
    <tripinfo id="h15382c1:3" depart="57625.00" departLane="124812856#0_1" departPos="5.10" departSpeed="0.00" departDelay="2.80" arrival="57861.00" arrivalLane="-128361102#1_1" arrivalPos="274.68" arrivalSpeed="14.21" duration="236.00" routeLength="2250.49" waitingTime="20.00" waitingCount="3" stopTime="0.00" timeLoss="85.53" rerouteNo="1" devices="tripinfo_h15382c1:3 routing_h15382c1:3 emissions_h15382c1:3" vType="default_016" speedFactor="1.09" vaporized="">
        <emissions CO_abs="9932.331944" CO2_abs="618676.333101" HC_abs="59.740548" PMx_abs="10.794225" NOx_abs="251.825162" fuel_abs="265.943083" electricity_abs="0"/>
    </tripinfo>