<?xml version="1.0" encoding="UTF-8"?>

<!-- generated on 2021-10-26 11:22:10 by Eclipse SUMO sumo Version 1.10.0
<configuration xmlns:xsi="http://www.w3.org/2001/XMLSchema-instance" xsi:noNamespaceSchemaLocation="http://sumo.dlr.de/xsd/sumoConfiguration.xsd">

    <input>
        <net-file value="/Users/behradkoohy/sumo-scratchpad/RESCO/environments/ingolstadt21/ingolstadt21.net.xml"/>
        <route-files value="/Users/behradkoohy/sumo-scratchpad/RESCO/environments/ingolstadt21/ingolstadt21.rou.xml"/>
    </input>

    <output>
        <tripinfo-output value="/Users/behradkoohy/sumo-scratchpad/RESCO/logs/IDQN-tr0-ingolstadt21-21-drq_norm-wait_norm/tripinfo_17.xml"/>
        <tripinfo-output.write-unfinished value="true"/>
    </output>

    <time>
        <begin value="57600"/>
        <end value="61200"/>
    </time>

    <processing>
        <time-to-teleport value="-1"/>
    </processing>

    <report>
        <no-warnings value="true"/>
        <no-step-log value="true"/>
    </report>

    <emissions>
        <device.emissions.probability value="1"/>
    </emissions>

    <traci_server>
        <remote-port value="57099"/>
    </traci_server>

    <random_number>
        <random value="true"/>
    </random_number>

</configuration>
-->

<tripinfos xmlns:xsi="http://www.w3.org/2001/XMLSchema-instance" xsi:noNamespaceSchemaLocation="http://sumo.dlr.de/xsd/tripinfo_file.xsd">
    <tripinfo id="h15454c2:3" depart="57612.00" departLane="24608844_1" departPos="5.10" departSpeed="0.00" departDelay="0.50" arrival="57653.00" arrivalLane="32978638#0_1" arrivalPos="49.29" arrivalSpeed="13.34" duration="41.00" routeLength="354.79" waitingTime="0.00" waitingCount="0" stopTime="0.00" timeLoss="6.90" rerouteNo="1" devices="tripinfo_h15454c2:3 routing_h15454c2:3 emissions_h15454c2:3" vType="default_016" speedFactor="1.02" vaporized="">
        <emissions CO_abs="2155.537440" CO2_abs="117353.511592" HC_abs="12.563393" PMx_abs="2.099171" NOx_abs="48.533715" fuel_abs="50.445475" electricity_abs="0"/>
    </tripinfo>
    <tripinfo id="carIn60260:1" depart="57606.00" departLane="315358254#0_1" departPos="5.10" departSpeed="0.00" departDelay="0.90" arrival="57663.00" arrivalLane="399835085#1_1" arrivalPos="212.23" arrivalSpeed="6.71" duration="57.00" routeLength="430.98" waitingTime="0.00" waitingCount="0" stopTime="0.00" timeLoss="6.82" rerouteNo="1" devices="tripinfo_carIn60260:1 routing_carIn60260:1 emissions_carIn60260:1" vType="default_016" speedFactor="0.93" vaporized="">
        <emissions CO_abs="2163.177566" CO2_abs="104503.402182" HC_abs="12.259382" PMx_abs="1.725959" NOx_abs="42.476144" fuel_abs="44.922147" electricity_abs="0"/>
    </tripinfo>
    <tripinfo id="carIn53971:1" depart="57640.00" departLane="272042143_1" departPos="5.10" departSpeed="0.00" departDelay="0.80" arrival="57694.00" arrivalLane="24634414#1_1" arrivalPos="162.19" arrivalSpeed="7.26" duration="54.00" routeLength="493.04" waitingTime="0.00" waitingCount="0" stopTime="0.00" timeLoss="7.33" rerouteNo="1" devices="tripinfo_carIn53971:1 routing_carIn53971:1 emissions_carIn53971:1" vType="default_016" speedFactor="0.98" vaporized="">
        <emissions CO_abs="2163.732809" CO2_abs="126537.729233" HC_abs="12.788155" PMx_abs="2.077072" NOx_abs="50.901279" fuel_abs="54.393566" electricity_abs="0"/>
    </tripinfo>
    <tripinfo id="h7800c1:5" depart="57696.00" departLane="-447569998#1_1" departPos="5.10" departSpeed="0.00" departDelay="0.00" arrival="57721.00" arrivalLane="-447569998#1_1" arrivalPos="180.76" arrivalSpeed="7.67" duration="25.00" routeLength="175.66" waitingTime="0.00" waitingCount="0" stopTime="0.00" timeLoss="3.35" rerouteNo="1" devices="tripinfo_h7800c1:5 routing_h7800c1:5 emissions_h7800c1:5" vType="default_016" speedFactor="0.98" vaporized="">
        <emissions CO_abs="987.867719" CO2_abs="41048.607037" HC_abs="5.453586" PMx_abs="0.752519" NOx_abs="17.246733" fuel_abs="17.645274" electricity_abs="0"/>
    </tripinfo>
    <tripinfo id="S5R_frequency1.2" depart="57615.00" departLane="315358250#0_1" departPos="12.10" departSpeed="0.00" departDelay="3.40" arrival="57730.00" arrivalLane="386687235_1" arrivalPos="80.84" arrivalSpeed="13.84" duration="115.00" routeLength="1115.62" waitingTime="15.00" waitingCount="1" stopTime="0.00" timeLoss="33.28" rerouteNo="1" devices="tripinfo_S5R_frequency1.2 routing_S5R_frequency1.2 emissions_S5R_frequency1.2" vType="bus" speedFactor="1.00" vaporized="">
        <emissions CO_abs="2159.320413" CO2_abs="1263255.755947" HC_abs="461.633988" PMx_abs="229.517175" NOx_abs="10043.880857" fuel_abs="538.735544" electricity_abs="0"/>
    </tripinfo>
    <tripinfo id="h4538c1:1" depart="57701.00" departLane="-10427692#1_1" departPos="5.10" departSpeed="0.00" departDelay="0.00" arrival="57736.00" arrivalLane="-128361102#1_1" arrivalPos="274.68" arrivalSpeed="14.52" duration="35.00" routeLength="440.74" waitingTime="0.00" waitingCount="0" stopTime="0.00" timeLoss="5.93" rerouteNo="1" devices="tripinfo_h4538c1:1 routing_h4538c1:1 emissions_h4538c1:1" vType="default_016" speedFactor="1.12" vaporized="">
        <emissions CO_abs="1537.316983" CO2_abs="110257.025328" HC_abs="9.570931" PMx_abs="1.982332" NOx_abs="44.866473" fuel_abs="47.394629" electricity_abs="0"/>
    </tripinfo>
    <tripinfo id="h3568c1:3" depart="57656.00" departLane="266565295#5_1" departPos="5.10" departSpeed="0.00" departDelay="0.80" arrival="57739.00" arrivalLane="-24634415_1" arrivalPos="62.03" arrivalSpeed="14.21" duration="83.00" routeLength="807.40" waitingTime="3.00" waitingCount="1" stopTime="0.00" timeLoss="20.60" rerouteNo="1" devices="tripinfo_h3568c1:3 routing_h3568c1:3 emissions_h3568c1:3" vType="default_016" speedFactor="1.04" vaporized="">
        <emissions CO_abs="4020.638817" CO2_abs="251019.501063" HC_abs="24.215893" PMx_abs="4.477119" NOx_abs="102.798652" fuel_abs="107.902630" electricity_abs="0"/>
    </tripinfo>
    <tripinfo id="h317c2:1" depart="57707.00" departLane="-32978638#0_1" departPos="5.10" departSpeed="0.00" departDelay="0.10" arrival="57745.00" arrivalLane="-266565295#5_1" arrivalPos="172.76" arrivalSpeed="13.81" duration="38.00" routeLength="370.53" waitingTime="1.00" waitingCount="1" stopTime="0.00" timeLoss="10.54" rerouteNo="1" devices="tripinfo_h317c2:1 routing_h317c2:1 emissions_h317c2:1" vType="default_016" speedFactor="1.01" vaporized="">
        <emissions CO_abs="2023.518528" CO2_abs="122370.759981" HC_abs="12.062173" PMx_abs="2.143886" NOx_abs="49.786549" fuel_abs="52.602113" electricity_abs="0"/>
    </tripinfo>
    <tripinfo id="h3688c1:1" depart="57625.00" departLane="201201950#1_1" departPos="5.10" departSpeed="0.00" departDelay="0.00" arrival="57751.00" arrivalLane="32978638#0_1" arrivalPos="49.29" arrivalSpeed="13.02" duration="126.00" routeLength="1089.75" waitingTime="32.00" waitingCount="1" stopTime="0.00" timeLoss="47.25" rerouteNo="1" devices="tripinfo_h3688c1:1 routing_h3688c1:1 emissions_h3688c1:1" vType="default_016" speedFactor="1.01" vaporized="">
        <emissions CO_abs="8045.744227" CO2_abs="317558.288552" HC_abs="44.072274" PMx_abs="6.092880" NOx_abs="132.595764" fuel_abs="136.506724" electricity_abs="0"/>
    </tripinfo>
    <tripinfo id="h5979c1:5" depart="57669.00" departLane="399835085#1_1" departPos="5.10" departSpeed="0.00" departDelay="0.00" arrival="57751.00" arrivalLane="-315358254#1_1" arrivalPos="137.16" arrivalSpeed="15.43" duration="82.00" routeLength="659.33" waitingTime="2.00" waitingCount="1" stopTime="0.00" timeLoss="18.20" rerouteNo="1" devices="tripinfo_h5979c1:5 routing_h5979c1:5 emissions_h5979c1:5" vType="default_016" speedFactor="1.16" vaporized="">
        <emissions CO_abs="3859.992164" CO2_abs="203488.656370" HC_abs="22.320663" PMx_abs="3.545803" NOx_abs="83.492255" fuel_abs="87.471706" electricity_abs="0"/>
    </tripinfo>
    <tripinfo id="carIn22761:1" depart="57616.00" departLane="-306240162#1_0" departPos="5.10" departSpeed="0.00" departDelay="2.10" arrival="57758.00" arrivalLane="399835085#1_1" arrivalPos="212.23" arrivalSpeed="9.48" duration="142.00" routeLength="1093.26" waitingTime="47.00" waitingCount="1" stopTime="0.00" timeLoss="76.69" rerouteNo="1" devices="tripinfo_carIn22761:1 routing_carIn22761:1 emissions_carIn22761:1" vType="default_016" speedFactor="1.19" vaporized="">
        <emissions CO_abs="13436.446817" CO2_abs="500516.845410" HC_abs="73.140437" PMx_abs="10.620407" NOx_abs="214.811387" fuel_abs="215.153114" electricity_abs="0"/>
    </tripinfo>
    <tripinfo id="h7181c1:1" depart="57660.00" departLane="315358254#0_1" departPos="5.10" departSpeed="0.00" departDelay="0.10" arrival="57759.00" arrivalLane="306240162#0_0" arrivalPos="220.43" arrivalSpeed="17.37" duration="99.00" routeLength="932.35" waitingTime="28.00" waitingCount="2" stopTime="0.00" timeLoss="52.57" rerouteNo="1" devices="tripinfo_h7181c1:1 routing_h7181c1:1 emissions_h7181c1:1" vType="default_016" speedFactor="1.10" vaporized="">
        <emissions CO_abs="9212.060449" CO2_abs="413689.485076" HC_abs="51.820179" PMx_abs="8.681816" NOx_abs="175.807034" fuel_abs="177.827972" electricity_abs="0"/>
    </tripinfo>
    <tripinfo id="carIn27009:1" depart="57673.00" departLane="-447569998#1_1" departPos="5.10" departSpeed="0.00" departDelay="0.50" arrival="57763.00" arrivalLane="-26677539_1" arrivalPos="152.75" arrivalSpeed="8.36" duration="90.00" routeLength="699.63" waitingTime="0.00" waitingCount="0" stopTime="0.00" timeLoss="12.28" rerouteNo="1" devices="tripinfo_carIn27009:1 routing_carIn27009:1 emissions_carIn27009:1" vType="default_015" speedFactor="1.08" vaporized="">
        <emissions CO_abs="3626.252532" CO2_abs="182304.060287" HC_abs="20.714678" PMx_abs="2.993240" NOx_abs="74.092624" fuel_abs="78.365662" electricity_abs="0"/>
    </tripinfo>
    <tripinfo id="h3326c1:2" depart="57656.00" departLane="22716069#0_1" departPos="5.10" departSpeed="0.00" departDelay="0.00" arrival="57766.00" arrivalLane="24634517#13_1" arrivalPos="111.62" arrivalSpeed="13.97" duration="110.00" routeLength="1312.81" waitingTime="0.00" waitingCount="0" stopTime="0.00" timeLoss="15.00" rerouteNo="1" devices="tripinfo_h3326c1:2 routing_h3326c1:2 emissions_h3326c1:2" vType="default_016" speedFactor="1.03" vaporized="">
        <emissions CO_abs="3955.585359" CO2_abs="313275.441691" HC_abs="25.316776" PMx_abs="5.214057" NOx_abs="124.816258" fuel_abs="134.663580" electricity_abs="0"/>
    </tripinfo>
    <tripinfo id="carIn80064:1" depart="57603.00" departLane="128361109#1_1" departPos="5.10" departSpeed="0.00" departDelay="0.40" arrival="57771.00" arrivalLane="-315358254#1_1" arrivalPos="137.16" arrivalSpeed="12.37" duration="168.00" routeLength="1587.97" waitingTime="42.00" waitingCount="3" stopTime="0.00" timeLoss="75.00" rerouteNo="1" devices="tripinfo_carIn80064:1 routing_carIn80064:1 emissions_carIn80064:1" vType="default_016" speedFactor="0.96" vaporized="">
        <emissions CO_abs="11292.821769" CO2_abs="523004.709548" HC_abs="63.902198" PMx_abs="10.547253" NOx_abs="219.945649" fuel_abs="224.818379" electricity_abs="0"/>
    </tripinfo>
    <tripinfo id="carIn30817:1" depart="57681.00" departLane="315358244_1" departPos="5.10" departSpeed="0.00" departDelay="0.20" arrival="57784.00" arrivalLane="447569997#1_1" arrivalPos="180.93" arrivalSpeed="7.59" duration="103.00" routeLength="718.04" waitingTime="27.00" waitingCount="2" stopTime="0.00" timeLoss="40.64" rerouteNo="1" devices="tripinfo_carIn30817:1 routing_carIn30817:1 emissions_carIn30817:1" vType="default_016" speedFactor="0.99" vaporized="">
        <emissions CO_abs="6084.106793" CO2_abs="210866.429837" HC_abs="32.622775" PMx_abs="3.979776" NOx_abs="88.000537" fuel_abs="90.644486" electricity_abs="0"/>
    </tripinfo>
    <tripinfo id="h330c1:1" depart="57736.00" departLane="-32978638#0_1" departPos="5.10" departSpeed="0.00" departDelay="0.20" arrival="57798.00" arrivalLane="-266565295#5_1" arrivalPos="172.76" arrivalSpeed="12.19" duration="62.00" routeLength="370.53" waitingTime="22.00" waitingCount="1" stopTime="0.00" timeLoss="30.82" rerouteNo="1" devices="tripinfo_h330c1:1 routing_h330c1:1 emissions_h330c1:1" vType="default_016" speedFactor="0.89" vaporized="">
        <emissions CO_abs="4730.035347" CO2_abs="156808.261605" HC_abs="25.212335" PMx_abs="3.091324" NOx_abs="66.479065" fuel_abs="67.406627" electricity_abs="0"/>
    </tripinfo>
    <tripinfo id="carIn12365:1" depart="57713.00" departLane="315358244_1" departPos="5.10" departSpeed="0.00" departDelay="0.50" arrival="57801.00" arrivalLane="447569997#1_1" arrivalPos="180.93" arrivalSpeed="7.64" duration="88.00" routeLength="718.04" waitingTime="9.00" waitingCount="2" stopTime="0.00" timeLoss="25.47" rerouteNo="1" devices="tripinfo_carIn12365:1 routing_carIn12365:1 emissions_carIn12365:1" vType="default_016" speedFactor="0.98" vaporized="">
        <emissions CO_abs="3901.752570" CO2_abs="196607.351115" HC_abs="22.337869" PMx_abs="3.360782" NOx_abs="79.896168" fuel_abs="84.513989" electricity_abs="0"/>
    </tripinfo>
    <tripinfo id="h645c1:1" depart="57622.00" departLane="266565295#5_1" departPos="5.10" departSpeed="0.00" departDelay="0.40" arrival="57803.00" arrivalLane="-315358244_2" arrivalPos="33.95" arrivalSpeed="15.24" duration="181.00" routeLength="1910.83" waitingTime="37.00" waitingCount="2" stopTime="0.00" timeLoss="61.29" rerouteNo="1" devices="tripinfo_h645c1:1 routing_h645c1:1 emissions_h645c1:1" vType="default_016" speedFactor="1.16" vaporized="">
        <emissions CO_abs="9303.281455" CO2_abs="487583.838475" HC_abs="53.590734" PMx_abs="8.722175" NOx_abs="196.398493" fuel_abs="209.593147" electricity_abs="0"/>
    </tripinfo>
    <tripinfo id="carIn121703:1" depart="57647.00" departLane="386687232#0_1" departPos="5.10" departSpeed="0.00" departDelay="0.30" arrival="57803.00" arrivalLane="-315358244_1" arrivalPos="33.95" arrivalSpeed="13.94" duration="156.00" routeLength="1157.39" waitingTime="53.00" waitingCount="3" stopTime="0.00" timeLoss="75.78" rerouteNo="1" devices="tripinfo_carIn121703:1 routing_carIn121703:1 emissions_carIn121703:1" vType="default_016" speedFactor="1.05" vaporized="">
        <emissions CO_abs="11205.849825" CO2_abs="402474.158376" HC_abs="60.459544" PMx_abs="7.893540" NOx_abs="169.090173" fuel_abs="173.009569" electricity_abs="0"/>
    </tripinfo>
    <tripinfo id="carIn129809:1" depart="57729.00" departLane="-447569998#1_1" departPos="5.10" departSpeed="0.00" departDelay="1.00" arrival="57808.00" arrivalLane="-315358244_1" arrivalPos="33.95" arrivalSpeed="13.54" duration="79.00" routeLength="706.49" waitingTime="4.00" waitingCount="1" stopTime="0.00" timeLoss="18.52" rerouteNo="1" devices="tripinfo_carIn129809:1 routing_carIn129809:1 emissions_carIn129809:1" vType="default_015" speedFactor="1.01" vaporized="">
        <emissions CO_abs="3059.805156" CO2_abs="170449.451234" HC_abs="17.899635" PMx_abs="2.874605" NOx_abs="68.920345" fuel_abs="73.269500" electricity_abs="0"/>
    </tripinfo>
    <tripinfo id="carIn86816:1" depart="57617.00" departLane="128361102#0_1" departPos="5.10" departSpeed="0.00" departDelay="0.80" arrival="57811.00" arrivalLane="201956811#0_1" arrivalPos="40.40" arrivalSpeed="11.29" duration="194.00" routeLength="2067.33" waitingTime="0.00" waitingCount="0" stopTime="0.00" timeLoss="18.11" rerouteNo="1" devices="tripinfo_carIn86816:1 routing_carIn86816:1 emissions_carIn86816:1" vType="default_016" speedFactor="0.86" vaporized="">
        <emissions CO_abs="5250.826939" CO2_abs="388916.198534" HC_abs="32.901568" PMx_abs="5.936020" NOx_abs="152.697239" fuel_abs="167.179270" electricity_abs="0"/>
    </tripinfo>
    <tripinfo id="carIn107282:1" depart="57749.00" departLane="-447569998#1_1" departPos="5.10" departSpeed="0.00" departDelay="0.00" arrival="57811.00" arrivalLane="315358242#0_1" arrivalPos="165.37" arrivalSpeed="10.84" duration="62.00" routeLength="448.50" waitingTime="0.00" waitingCount="0" stopTime="0.00" timeLoss="10.49" rerouteNo="1" devices="tripinfo_carIn107282:1 routing_carIn107282:1 emissions_carIn107282:1" vType="default_016" speedFactor="0.82" vaporized="">
        <emissions CO_abs="2589.747164" CO2_abs="117627.384462" HC_abs="14.505100" PMx_abs="1.971401" NOx_abs="47.998462" fuel_abs="50.563750" electricity_abs="0"/>
    </tripinfo>
    <tripinfo id="h3154c1:1" depart="57658.00" departLane="24634507_1" departPos="5.10" departSpeed="0.00" departDelay="0.00" arrival="57812.00" arrivalLane="-266565295#5_1" arrivalPos="172.76" arrivalSpeed="13.10" duration="154.00" routeLength="1206.22" waitingTime="41.00" waitingCount="2" stopTime="0.00" timeLoss="60.97" rerouteNo="1" devices="tripinfo_h3154c1:1 routing_h3154c1:1 emissions_h3154c1:1" vType="default_016" speedFactor="0.96" vaporized="">
        <emissions CO_abs="10061.700110" CO2_abs="384024.165595" HC_abs="54.813975" PMx_abs="7.340774" NOx_abs="160.570636" fuel_abs="165.078270" electricity_abs="0"/>
    </tripinfo>
    <tripinfo id="h12244c1:3" depart="57612.00" departLane="315358244_1" departPos="5.10" departSpeed="0.00" departDelay="0.40" arrival="57815.00" arrivalLane="386687235_1" arrivalPos="80.84" arrivalSpeed="10.00" duration="203.00" routeLength="1186.14" waitingTime="73.00" waitingCount="2" stopTime="0.00" timeLoss="92.59" rerouteNo="1" devices="tripinfo_h12244c1:3 routing_h12244c1:3 emissions_h12244c1:3" vType="default_016" speedFactor="0.78" vaporized="">
        <emissions CO_abs="14704.990898" CO2_abs="406843.337376" HC_abs="76.411865" PMx_abs="7.995989" NOx_abs="172.372884" fuel_abs="174.890458" electricity_abs="0"/>
    </tripinfo>
    <tripinfo id="h9563c2:5" depart="57631.00" departLane="315358244_1" departPos="5.10" departSpeed="0.00" departDelay="0.70" arrival="57817.00" arrivalLane="386687235_1" arrivalPos="80.84" arrivalSpeed="12.64" duration="186.00" routeLength="1186.14" waitingTime="66.00" waitingCount="3" stopTime="0.00" timeLoss="97.04" rerouteNo="1" devices="tripinfo_h9563c2:5 routing_h9563c2:5 emissions_h9563c2:5" vType="default_016" speedFactor="0.97" vaporized="">
        <emissions CO_abs="14295.796416" CO2_abs="464806.087026" HC_abs="75.960000" PMx_abs="9.010683" NOx_abs="195.133428" fuel_abs="199.805157" electricity_abs="0"/>
    </tripinfo>
    <tripinfo id="carIn48184:1" depart="57613.00" departLane="-306240162#1_0" departPos="5.10" departSpeed="0.00" departDelay="0.70" arrival="57831.00" arrivalLane="386687235_1" arrivalPos="80.84" arrivalSpeed="14.07" duration="218.00" routeLength="2257.41" waitingTime="43.00" waitingCount="2" stopTime="0.00" timeLoss="79.43" rerouteNo="1" devices="tripinfo_carIn48184:1 routing_carIn48184:1 emissions_carIn48184:1" vType="default_016" speedFactor="1.07" vaporized="">
        <emissions CO_abs="13817.329164" CO2_abs="649483.204716" HC_abs="78.188887" PMx_abs="12.618644" NOx_abs="269.717665" fuel_abs="279.186883" electricity_abs="0"/>
    </tripinfo>
    <tripinfo id="carIn82220:1" depart="57619.00" departLane="-306240162#1_0" departPos="5.10" departSpeed="0.00" departDelay="3.50" arrival="57832.00" arrivalLane="386687235_2" arrivalPos="80.84" arrivalSpeed="14.28" duration="213.00" routeLength="2257.41" waitingTime="41.00" waitingCount="2" stopTime="0.00" timeLoss="76.56" rerouteNo="1" devices="tripinfo_carIn82220:1 routing_carIn82220:1 emissions_carIn82220:1" vType="default_016" speedFactor="1.09" vaporized="">
        <emissions CO_abs="12963.804539" CO2_abs="655027.408978" HC_abs="74.602153" PMx_abs="12.778453" NOx_abs="272.304419" fuel_abs="281.569234" electricity_abs="0"/>
    </tripinfo>
    <tripinfo id="h5938c1:1" depart="57740.00" departLane="-26677542#0_1" departPos="5.10" departSpeed="0.00" departDelay="0.00" arrival="57837.00" arrivalLane="447569997#1_1" arrivalPos="180.93" arrivalSpeed="9.13" duration="97.00" routeLength="1093.64" waitingTime="0.00" waitingCount="0" stopTime="0.00" timeLoss="10.52" rerouteNo="1" devices="tripinfo_h5938c1:1 routing_h5938c1:1 emissions_h5938c1:1" vType="default_016" speedFactor="1.12" vaporized="">
        <emissions CO_abs="3161.483253" CO2_abs="238919.882824" HC_abs="19.890136" PMx_abs="3.855818" NOx_abs="94.397938" fuel_abs="102.701638" electricity_abs="0"/>
    </tripinfo>
    <tripinfo id="randUni31145:1" depart="57814.00" departLane="10425609#0_1" departPos="5.10" departSpeed="0.00" departDelay="0.30" arrival="57838.00" arrivalLane="201956810_1" arrivalPos="71.65" arrivalSpeed="15.41" duration="24.00" routeLength="255.78" waitingTime="0.00" waitingCount="0" stopTime="0.00" timeLoss="6.89" rerouteNo="1" devices="tripinfo_randUni31145:1 routing_randUni31145:1 emissions_randUni31145:1" vType="random_016" speedFactor="1.19" vaporized="">
        <emissions CO_abs="1744.071503" CO2_abs="106744.992289" HC_abs="10.467953" PMx_abs="2.033145" NOx_abs="44.530045" fuel_abs="45.884974" electricity_abs="0"/>
    </tripinfo>
    <tripinfo id="carIn126378:1" depart="57746.00" departLane="386687232#0_1" departPos="5.10" departSpeed="0.00" departDelay="1.80" arrival="57850.00" arrivalLane="-315358244_1" arrivalPos="33.95" arrivalSpeed="13.93" duration="104.00" routeLength="1157.39" waitingTime="7.00" waitingCount="1" stopTime="0.00" timeLoss="21.76" rerouteNo="1" devices="tripinfo_carIn126378:1 routing_carIn126378:1 emissions_carIn126378:1" vType="default_016" speedFactor="1.04" vaporized="">
        <emissions CO_abs="3162.860310" CO2_abs="235740.301958" HC_abs="19.886210" PMx_abs="3.774545" NOx_abs="92.562555" fuel_abs="101.335005" electricity_abs="0"/>
    </tripinfo>
    <tripinfo id="carIn107084:1" depart="57601.00" departLane="124812856#0_1" departPos="5.10" departSpeed="0.00" departDelay="0.70" arrival="57851.00" arrivalLane="-128361102#1_1" arrivalPos="274.68" arrivalSpeed="11.14" duration="250.00" routeLength="2250.49" waitingTime="30.00" waitingCount="2" stopTime="0.00" timeLoss="56.41" rerouteNo="1" devices="tripinfo_carIn107084:1 routing_carIn107084:1 emissions_carIn107084:1" vType="default_016" speedFactor="0.85" vaporized="">
        <emissions CO_abs="9548.229925" CO2_abs="505512.662130" HC_abs="55.194213" PMx_abs="8.333302" NOx_abs="202.943460" fuel_abs="217.300689" electricity_abs="0"/>
    </tripinfo>
    <tripinfo id="h17600c1:1" depart="57662.00" departLane="272042143_1" departPos="5.10" departSpeed="0.00" departDelay="0.30" arrival="57852.00" arrivalLane="201238729#3_1" arrivalPos="431.02" arrivalSpeed="13.30" duration="190.00" routeLength="2100.26" waitingTime="18.00" waitingCount="1" stopTime="0.00" timeLoss="37.37" rerouteNo="1" devices="tripinfo_h17600c1:1 routing_h17600c1:1 emissions_h17600c1:1" vType="default_016" speedFactor="0.99" vaporized="">
        <emissions CO_abs="6488.435369" CO2_abs="422605.010682" HC_abs="39.374701" PMx_abs="6.843339" NOx_abs="166.650469" fuel_abs="181.660976" electricity_abs="0"/>
    </tripinfo>
    <tripinfo id="50R_frequency3.17" depart="57674.00" departLane="-18809673#6_1" departPos="12.10" departSpeed="0.00" departDelay="0.70" arrival="57852.00" arrivalLane="201956811#0_1" arrivalPos="40.40" arrivalSpeed="10.85" duration="178.00" routeLength="1954.47" waitingTime="2.00" waitingCount="1" stopTime="0.00" timeLoss="33.25" rerouteNo="1" devices="tripinfo_50R_frequency3.17 routing_50R_frequency3.17 emissions_50R_frequency3.17" vType="bus" speedFactor="1.00" vaporized="">
        <emissions CO_abs="3504.734622" CO2_abs="2204787.710828" HC_abs="732.098463" PMx_abs="375.504928" NOx_abs="17091.406142" fuel_abs="940.313753" electricity_abs="0"/>
    </tripinfo>
    <tripinfo id="carIn81046:1" depart="57611.00" departLane="124812856#0_1" departPos="5.10" departSpeed="0.00" departDelay="2.50" arrival="57853.00" arrivalLane="-128361102#1_1" arrivalPos="274.68" arrivalSpeed="13.01" duration="242.00" routeLength="2250.49" waitingTime="17.00" waitingCount="2" stopTime="0.00" timeLoss="72.85" rerouteNo="1" devices="tripinfo_carIn81046:1 routing_carIn81046:1 emissions_carIn81046:1" vType="default_016" speedFactor="0.97" vaporized="">
        <emissions CO_abs="9510.009420" CO2_abs="551576.810220" HC_abs="56.185087" PMx_abs="9.466904" NOx_abs="224.034514" fuel_abs="237.100548" electricity_abs="0"/>
    </tripinfo>
    <tripinfo id="h19413c1:1" depart="57685.00" departLane="128361109#1_1" departPos="5.10" departSpeed="0.00" departDelay="5.90" arrival="57853.00" arrivalLane="386687235_2" arrivalPos="80.84" arrivalSpeed="14.01" duration="168.00" routeLength="2088.57" waitingTime="5.00" waitingCount="1" stopTime="0.00" timeLoss="25.65" rerouteNo="1" devices="tripinfo_h19413c1:1 routing_h19413c1:1 emissions_h19413c1:1" vType="default_016" speedFactor="1.06" vaporized="">
        <emissions CO_abs="3993.527977" CO2_abs="390843.348495" HC_abs="27.213445" PMx_abs="5.962156" NOx_abs="150.561755" fuel_abs="168.006863" electricity_abs="0"/>
    </tripinfo>
    <tripinfo id="carIn50326:1" depart="57651.00" departLane="128361102#0_1" departPos="5.10" departSpeed="0.00" departDelay="0.30" arrival="57854.00" arrivalLane="18809673#0_1" arrivalPos="473.56" arrivalSpeed="14.58" duration="203.00" routeLength="1591.07" waitingTime="61.00" waitingCount="1" stopTime="0.00" timeLoss="83.28" rerouteNo="1" devices="tripinfo_carIn50326:1 routing_carIn50326:1 emissions_carIn50326:1" vType="default_016" speedFactor="1.08" vaporized="">
        <emissions CO_abs="14384.788798" CO2_abs="504096.359904" HC_abs="77.262797" PMx_abs="9.777656" NOx_abs="211.149061" fuel_abs="216.693854" electricity_abs="0"/>
    </tripinfo>
    <tripinfo id="carIn7949:1" depart="57676.00" departLane="128361109#1_1" departPos="5.10" departSpeed="0.00" departDelay="2.10" arrival="57854.00" arrivalLane="386687235_1" arrivalPos="80.84" arrivalSpeed="14.26" duration="178.00" routeLength="2088.57" waitingTime="14.00" waitingCount="2" stopTime="0.00" timeLoss="39.72" rerouteNo="1" devices="tripinfo_carIn7949:1 routing_carIn7949:1 emissions_carIn7949:1" vType="default_016" speedFactor="1.09" vaporized="">
        <emissions CO_abs="5102.166290" CO2_abs="414493.812658" HC_abs="32.738545" PMx_abs="6.788291" NOx_abs="163.206098" fuel_abs="178.173139" electricity_abs="0"/>
    </tripinfo>
    <tripinfo id="carIn77438:1" depart="57614.00" departLane="124812856#0_1" departPos="5.10" departSpeed="0.00" departDelay="1.10" arrival="57855.00" arrivalLane="-128361102#1_1" arrivalPos="274.68" arrivalSpeed="15.31" duration="241.00" routeLength="2250.49" waitingTime="17.00" waitingCount="2" stopTime="0.00" timeLoss="91.98" rerouteNo="1" devices="tripinfo_carIn77438:1 routing_carIn77438:1 emissions_carIn77438:1" vType="default_016" speedFactor="1.11" vaporized="">
        <emissions CO_abs="11236.486439" CO2_abs="647122.179822" HC_abs="66.333934" PMx_abs="11.552416" NOx_abs="265.743381" fuel_abs="278.171015" electricity_abs="0"/>
    </tripinfo>
    <tripinfo id="randUni15030:1" depart="57735.00" departLane="386687232#0_1" departPos="5.10" departSpeed="0.00" departDelay="0.10" arrival="57855.00" arrivalLane="26677539_1" arrivalPos="151.98" arrivalSpeed="7.45" duration="120.00" routeLength="919.89" waitingTime="17.00" waitingCount="2" stopTime="0.00" timeLoss="36.20" rerouteNo="1" devices="tripinfo_randUni15030:1 routing_randUni15030:1 emissions_randUni15030:1" vType="random_016" speedFactor="1.00" vaporized="">
        <emissions CO_abs="5825.996988" CO2_abs="268264.833223" HC_abs="32.772681" PMx_abs="4.696400" NOx_abs="109.685688" fuel_abs="115.317068" electricity_abs="0"/>
    </tripinfo>
    <tripinfo id="carIn85747:1" depart="57673.00" departLane="128361109#1_1" departPos="5.10" departSpeed="0.00" departDelay="0.70" arrival="57856.00" arrivalLane="386687235_2" arrivalPos="80.84" arrivalSpeed="12.09" duration="183.00" routeLength="2088.57" waitingTime="1.00" waitingCount="1" stopTime="0.00" timeLoss="17.34" rerouteNo="1" devices="tripinfo_carIn85747:1 routing_carIn85747:1 emissions_carIn85747:1" vType="default_016" speedFactor="0.91" vaporized="">
        <emissions CO_abs="4425.555109" CO2_abs="371469.651477" HC_abs="28.744499" PMx_abs="5.519957" NOx_abs="143.884415" fuel_abs="159.679536" electricity_abs="0"/>
    </tripinfo>
    <tripinfo id="carIn75660:1" depart="57679.00" departLane="128361109#1_1" departPos="5.10" departSpeed="0.00" departDelay="3.40" arrival="57856.00" arrivalLane="386687235_1" arrivalPos="80.84" arrivalSpeed="13.60" duration="177.00" routeLength="2088.57" waitingTime="0.00" waitingCount="0" stopTime="0.00" timeLoss="22.87" rerouteNo="1" devices="tripinfo_carIn75660:1 routing_carIn75660:1 emissions_carIn75660:1" vType="default_016" speedFactor="0.98" vaporized="">
        <emissions CO_abs="4559.412905" CO2_abs="403161.333146" HC_abs="30.060317" PMx_abs="5.954550" NOx_abs="154.874514" fuel_abs="173.302436" electricity_abs="0"/>
    </tripinfo>
    <tripinfo id="h11737c1:1" depart="57665.00" departLane="272042143_1" departPos="5.10" departSpeed="0.00" departDelay="1.50" arrival="57857.00" arrivalLane="-315358254#1_1" arrivalPos="137.16" arrivalSpeed="12.94" duration="192.00" routeLength="1596.88" waitingTime="59.00" waitingCount="1" stopTime="0.00" timeLoss="76.81" rerouteNo="1" devices="tripinfo_h11737c1:1 routing_h11737c1:1 emissions_h11737c1:1" vType="default_016" speedFactor="1.01" vaporized="">
        <emissions CO_abs="13331.654021" CO2_abs="477039.591080" HC_abs="71.855319" PMx_abs="9.117205" NOx_abs="198.422004" fuel_abs="205.063097" electricity_abs="0"/>
    </tripinfo>
    <tripinfo id="carIn462:1" depart="57622.00" departLane="-306240162#1_0" departPos="5.10" departSpeed="0.00" departDelay="4.80" arrival="57858.00" arrivalLane="386687235_1" arrivalPos="80.84" arrivalSpeed="12.61" duration="236.00" routeLength="2257.41" waitingTime="46.00" waitingCount="3" stopTime="0.00" timeLoss="85.81" rerouteNo="1" devices="tripinfo_carIn462:1 routing_carIn462:1 emissions_carIn462:1" vType="default_016" speedFactor="0.99" vaporized="">
        <emissions CO_abs="13145.923525" CO2_abs="640193.537555" HC_abs="74.962981" PMx_abs="11.980627" NOx_abs="263.837370" fuel_abs="275.193849" electricity_abs="0"/>
    </tripinfo>