<?xml version="1.0" encoding="UTF-8"?>

<!-- generated on 2021-10-26 11:42:13 by Eclipse SUMO sumo Version 1.10.0
<configuration xmlns:xsi="http://www.w3.org/2001/XMLSchema-instance" xsi:noNamespaceSchemaLocation="http://sumo.dlr.de/xsd/sumoConfiguration.xsd">

    <input>
        <net-file value="/Users/behradkoohy/sumo-scratchpad/RESCO/environments/ingolstadt21/ingolstadt21.net.xml"/>
        <route-files value="/Users/behradkoohy/sumo-scratchpad/RESCO/environments/ingolstadt21/ingolstadt21.rou.xml"/>
    </input>

    <output>
        <tripinfo-output value="/Users/behradkoohy/sumo-scratchpad/RESCO/logs/IDQN-tr0-ingolstadt21-21-drq_norm-wait_norm/tripinfo_30.xml"/>
        <tripinfo-output.write-unfinished value="true"/>
    </output>

    <time>
        <begin value="57600"/>
        <end value="61200"/>
    </time>

    <processing>
        <time-to-teleport value="-1"/>
    </processing>

    <report>
        <no-warnings value="true"/>
        <no-step-log value="true"/>
    </report>

    <emissions>
        <device.emissions.probability value="1"/>
    </emissions>

    <traci_server>
        <remote-port value="57483"/>
    </traci_server>

    <random_number>
        <random value="true"/>
    </random_number>

</configuration>
-->

<tripinfos xmlns:xsi="http://www.w3.org/2001/XMLSchema-instance" xsi:noNamespaceSchemaLocation="http://sumo.dlr.de/xsd/tripinfo_file.xsd">
    <tripinfo id="h15454c2:3" depart="57612.00" departLane="24608844_1" departPos="5.10" departSpeed="0.00" departDelay="0.50" arrival="57659.00" arrivalLane="32978638#0_1" arrivalPos="49.29" arrivalSpeed="13.94" duration="47.00" routeLength="354.79" waitingTime="1.00" waitingCount="1" stopTime="0.00" timeLoss="14.17" rerouteNo="1" devices="tripinfo_h15454c2:3 routing_h15454c2:3 emissions_h15454c2:3" vType="default_016" speedFactor="1.06" vaporized="">
        <emissions CO_abs="2563.051208" CO2_abs="124085.359906" HC_abs="14.549961" PMx_abs="2.243002" NOx_abs="51.548527" fuel_abs="53.339416" electricity_abs="0"/>
    </tripinfo>
    <tripinfo id="carIn60260:1" depart="57606.00" departLane="315358254#0_1" departPos="5.10" departSpeed="0.00" departDelay="0.90" arrival="57671.00" arrivalLane="399835085#1_1" arrivalPos="212.23" arrivalSpeed="6.18" duration="65.00" routeLength="430.98" waitingTime="0.00" waitingCount="0" stopTime="0.00" timeLoss="11.89" rerouteNo="1" devices="tripinfo_carIn60260:1 routing_carIn60260:1 emissions_carIn60260:1" vType="default_016" speedFactor="0.86" vaporized="">
        <emissions CO_abs="2800.578209" CO2_abs="116364.816798" HC_abs="15.422864" PMx_abs="1.930827" NOx_abs="47.496237" fuel_abs="50.021238" electricity_abs="0"/>
    </tripinfo>
    <tripinfo id="carIn53971:1" depart="57640.00" departLane="272042143_1" departPos="5.10" departSpeed="0.00" departDelay="0.80" arrival="57694.00" arrivalLane="24634414#1_1" arrivalPos="162.19" arrivalSpeed="7.44" duration="54.00" routeLength="493.04" waitingTime="0.00" waitingCount="0" stopTime="0.00" timeLoss="9.62" rerouteNo="1" devices="tripinfo_carIn53971:1 routing_carIn53971:1 emissions_carIn53971:1" vType="default_016" speedFactor="1.03" vaporized="">
        <emissions CO_abs="2381.782994" CO2_abs="139213.777771" HC_abs="14.081853" PMx_abs="2.360770" NOx_abs="56.513718" fuel_abs="59.842379" electricity_abs="0"/>
    </tripinfo>
    <tripinfo id="carIn22761:1" depart="57616.00" departLane="-306240162#1_0" departPos="5.10" departSpeed="0.00" departDelay="2.10" arrival="57718.00" arrivalLane="399835085#1_1" arrivalPos="212.23" arrivalSpeed="7.67" duration="102.00" routeLength="1093.26" waitingTime="0.00" waitingCount="0" stopTime="0.00" timeLoss="17.92" rerouteNo="1" devices="tripinfo_carIn22761:1 routing_carIn22761:1 emissions_carIn22761:1" vType="default_016" speedFactor="0.93" vaporized="">
        <emissions CO_abs="4389.300010" CO2_abs="267963.887959" HC_abs="26.151764" PMx_abs="4.639057" NOx_abs="107.728419" fuel_abs="115.186691" electricity_abs="0"/>
    </tripinfo>
    <tripinfo id="carIn121703:1" depart="57647.00" departLane="386687232#0_1" departPos="5.10" departSpeed="0.00" departDelay="0.30" arrival="57730.00" arrivalLane="-315358244_1" arrivalPos="33.95" arrivalSpeed="15.88" duration="83.00" routeLength="1157.39" waitingTime="0.00" waitingCount="0" stopTime="0.00" timeLoss="8.99" rerouteNo="1" devices="tripinfo_carIn121703:1 routing_carIn121703:1 emissions_carIn121703:1" vType="default_016" speedFactor="1.15" vaporized="">
        <emissions CO_abs="2490.855785" CO2_abs="224099.359972" HC_abs="16.482227" PMx_abs="3.721098" NOx_abs="88.088101" fuel_abs="96.330456" electricity_abs="0"/>
    </tripinfo>
    <tripinfo id="S5R_frequency1.2" depart="57615.00" departLane="315358250#0_1" departPos="12.10" departSpeed="0.00" departDelay="3.40" arrival="57739.00" arrivalLane="386687235_1" arrivalPos="80.84" arrivalSpeed="13.35" duration="124.00" routeLength="1115.62" waitingTime="25.00" waitingCount="1" stopTime="0.00" timeLoss="42.69" rerouteNo="1" devices="tripinfo_S5R_frequency1.2 routing_S5R_frequency1.2 emissions_S5R_frequency1.2" vType="bus" speedFactor="1.00" vaporized="">
        <emissions CO_abs="2472.932613" CO2_abs="1397852.253931" HC_abs="537.082472" PMx_abs="262.098717" NOx_abs="11249.089161" fuel_abs="596.124658" electricity_abs="0"/>
    </tripinfo>
    <tripinfo id="h3688c1:1" depart="57625.00" departLane="201201950#1_1" departPos="5.10" departSpeed="0.00" departDelay="0.00" arrival="57740.00" arrivalLane="32978638#0_1" arrivalPos="49.29" arrivalSpeed="14.08" duration="115.00" routeLength="1089.75" waitingTime="23.00" waitingCount="1" stopTime="0.00" timeLoss="36.85" rerouteNo="1" devices="tripinfo_h3688c1:1 routing_h3688c1:1 emissions_h3688c1:1" vType="default_016" speedFactor="1.02" vaporized="">
        <emissions CO_abs="6398.510606" CO2_abs="301692.307411" HC_abs="36.157600" PMx_abs="5.473531" NOx_abs="123.533524" fuel_abs="129.685970" electricity_abs="0"/>
    </tripinfo>
    <tripinfo id="h12244c1:3" depart="57612.00" departLane="315358244_1" departPos="5.10" departSpeed="0.00" departDelay="0.40" arrival="57741.00" arrivalLane="386687235_1" arrivalPos="80.84" arrivalSpeed="17.29" duration="129.00" routeLength="1186.14" waitingTime="33.00" waitingCount="2" stopTime="0.00" timeLoss="59.42" rerouteNo="1" devices="tripinfo_h12244c1:3 routing_h12244c1:3 emissions_h12244c1:3" vType="default_016" speedFactor="1.25" vaporized="">
        <emissions CO_abs="8229.187807" CO2_abs="351587.304456" HC_abs="45.613663" PMx_abs="6.805796" NOx_abs="145.967527" fuel_abs="151.133985" electricity_abs="0"/>
    </tripinfo>
    <tripinfo id="h7800c1:5" depart="57696.00" departLane="-447569998#1_1" departPos="5.10" departSpeed="0.00" departDelay="0.00" arrival="57745.00" arrivalLane="-447569998#1_2" arrivalPos="180.76" arrivalSpeed="4.81" duration="49.00" routeLength="175.66" waitingTime="22.00" waitingCount="1" stopTime="0.00" timeLoss="29.55" rerouteNo="1" devices="tripinfo_h7800c1:5 routing_h7800c1:5 emissions_h7800c1:5" vType="default_016" speedFactor="1.11" vaporized="">
        <emissions CO_abs="3815.804955" CO2_abs="90573.056301" HC_abs="19.498318" PMx_abs="1.980091" NOx_abs="39.887943" fuel_abs="38.934934" electricity_abs="0"/>
    </tripinfo>
    <tripinfo id="h4538c1:1" depart="57701.00" departLane="-10427692#1_1" departPos="5.10" departSpeed="0.00" departDelay="0.00" arrival="57745.00" arrivalLane="-128361102#1_1" arrivalPos="274.68" arrivalSpeed="13.72" duration="44.00" routeLength="440.74" waitingTime="3.00" waitingCount="1" stopTime="0.00" timeLoss="13.47" rerouteNo="1" devices="tripinfo_h4538c1:1 routing_h4538c1:1 emissions_h4538c1:1" vType="default_016" speedFactor="1.05" vaporized="">
        <emissions CO_abs="1944.867249" CO2_abs="129791.279451" HC_abs="11.858098" PMx_abs="2.175176" NOx_abs="51.811541" fuel_abs="55.791900" electricity_abs="0"/>
    </tripinfo>
    <tripinfo id="h3568c1:3" depart="57656.00" departLane="266565295#5_1" departPos="5.10" departSpeed="0.00" departDelay="0.80" arrival="57748.00" arrivalLane="-24634415_1" arrivalPos="62.03" arrivalSpeed="11.39" duration="92.00" routeLength="807.40" waitingTime="0.00" waitingCount="0" stopTime="0.00" timeLoss="13.35" rerouteNo="1" devices="tripinfo_h3568c1:3 routing_h3568c1:3 emissions_h3568c1:3" vType="default_016" speedFactor="0.83" vaporized="">
        <emissions CO_abs="3807.803373" CO2_abs="209911.254488" HC_abs="22.191805" PMx_abs="3.409056" NOx_abs="84.408357" fuel_abs="90.232769" electricity_abs="0"/>
    </tripinfo>
    <tripinfo id="h7181c1:1" depart="57660.00" departLane="315358254#0_1" departPos="5.10" departSpeed="0.00" departDelay="0.10" arrival="57750.00" arrivalLane="306240162#0_0" arrivalPos="220.43" arrivalSpeed="16.11" duration="90.00" routeLength="932.35" waitingTime="21.00" waitingCount="2" stopTime="0.00" timeLoss="39.69" rerouteNo="1" devices="tripinfo_h7181c1:1 routing_h7181c1:1 emissions_h7181c1:1" vType="default_016" speedFactor="1.02" vaporized="">
        <emissions CO_abs="6441.640431" CO2_abs="317657.038208" HC_abs="36.836270" PMx_abs="6.379531" NOx_abs="132.536787" fuel_abs="136.547553" electricity_abs="0"/>
    </tripinfo>
    <tripinfo id="h5979c1:5" depart="57669.00" departLane="399835085#1_1" departPos="5.10" departSpeed="0.00" departDelay="0.00" arrival="57756.00" arrivalLane="-315358254#1_1" arrivalPos="137.16" arrivalSpeed="16.06" duration="87.00" routeLength="659.33" waitingTime="0.00" waitingCount="0" stopTime="0.00" timeLoss="25.99" rerouteNo="1" devices="tripinfo_h5979c1:5 routing_h5979c1:5 emissions_h5979c1:5" vType="default_016" speedFactor="1.21" vaporized="">
        <emissions CO_abs="4144.776616" CO2_abs="209259.713294" HC_abs="23.739512" PMx_abs="3.709760" NOx_abs="86.269359" fuel_abs="89.952504" electricity_abs="0"/>
    </tripinfo>
    <tripinfo id="h3326c1:2" depart="57656.00" departLane="22716069#0_1" departPos="5.10" departSpeed="0.00" departDelay="0.00" arrival="57758.00" arrivalLane="24634517#13_1" arrivalPos="111.62" arrivalSpeed="15.35" duration="102.00" routeLength="1312.81" waitingTime="0.00" waitingCount="0" stopTime="0.00" timeLoss="15.95" rerouteNo="1" devices="tripinfo_h3326c1:2 routing_h3326c1:2 emissions_h3326c1:2" vType="default_016" speedFactor="1.14" vaporized="">
        <emissions CO_abs="4084.968497" CO2_abs="300499.000768" HC_abs="25.621958" PMx_abs="5.426964" NOx_abs="122.431260" fuel_abs="129.171132" electricity_abs="0"/>
    </tripinfo>
    <tripinfo id="carIn48184:1" depart="57613.00" departLane="-306240162#1_0" departPos="5.10" departSpeed="0.00" departDelay="0.70" arrival="57763.00" arrivalLane="386687235_1" arrivalPos="80.84" arrivalSpeed="15.95" duration="150.00" routeLength="2257.41" waitingTime="5.00" waitingCount="1" stopTime="0.00" timeLoss="28.97" rerouteNo="1" devices="tripinfo_carIn48184:1 routing_carIn48184:1 emissions_carIn48184:1" vType="default_016" speedFactor="1.23" vaporized="">
        <emissions CO_abs="7554.065601" CO2_abs="572112.270425" HC_abs="47.735628" PMx_abs="11.003062" NOx_abs="233.081665" fuel_abs="245.924769" electricity_abs="0"/>
    </tripinfo>
    <tripinfo id="h317c2:1" depart="57707.00" departLane="-32978638#0_1" departPos="5.10" departSpeed="0.00" departDelay="0.10" arrival="57765.00" arrivalLane="-266565295#5_1" arrivalPos="172.76" arrivalSpeed="13.59" duration="58.00" routeLength="370.53" waitingTime="21.00" waitingCount="1" stopTime="0.00" timeLoss="30.43" rerouteNo="1" devices="tripinfo_h317c2:1 routing_h317c2:1 emissions_h317c2:1" vType="default_016" speedFactor="1.02" vaporized="">
        <emissions CO_abs="4680.011439" CO2_abs="163381.465351" HC_abs="25.156764" PMx_abs="3.255796" NOx_abs="69.235016" fuel_abs="70.231989" electricity_abs="0"/>
    </tripinfo>
    <tripinfo id="carIn80064:1" depart="57603.00" departLane="128361109#1_1" departPos="5.10" departSpeed="0.00" departDelay="0.40" arrival="57767.00" arrivalLane="-315358254#1_1" arrivalPos="137.16" arrivalSpeed="13.71" duration="164.00" routeLength="1587.97" waitingTime="41.00" waitingCount="3" stopTime="0.00" timeLoss="75.41" rerouteNo="1" devices="tripinfo_carIn80064:1 routing_carIn80064:1 emissions_carIn80064:1" vType="default_016" speedFactor="1.00" vaporized="">
        <emissions CO_abs="11888.296115" CO2_abs="554465.726328" HC_abs="67.387329" PMx_abs="11.238433" NOx_abs="233.173978" fuel_abs="238.342066" electricity_abs="0"/>
    </tripinfo>
    <tripinfo id="h330c1:1" depart="57736.00" departLane="-32978638#0_1" departPos="5.10" departSpeed="0.00" departDelay="0.20" arrival="57769.00" arrivalLane="-266565295#5_1" arrivalPos="172.76" arrivalSpeed="13.93" duration="33.00" routeLength="370.53" waitingTime="0.00" waitingCount="0" stopTime="0.00" timeLoss="6.38" rerouteNo="1" devices="tripinfo_h330c1:1 routing_h330c1:1 emissions_h330c1:1" vType="default_016" speedFactor="1.03" vaporized="">
        <emissions CO_abs="1686.000477" CO2_abs="109047.028161" HC_abs="10.248734" PMx_abs="1.955864" NOx_abs="44.657125" fuel_abs="46.874628" electricity_abs="0"/>
    </tripinfo>
    <tripinfo id="h3154c1:1" depart="57658.00" departLane="24634507_1" departPos="5.10" departSpeed="0.00" departDelay="0.00" arrival="57776.00" arrivalLane="-266565295#5_1" arrivalPos="172.76" arrivalSpeed="13.96" duration="118.00" routeLength="1206.22" waitingTime="10.00" waitingCount="2" stopTime="0.00" timeLoss="34.59" rerouteNo="1" devices="tripinfo_h3154c1:1 routing_h3154c1:1 emissions_h3154c1:1" vType="default_016" speedFactor="1.06" vaporized="">
        <emissions CO_abs="5785.615994" CO2_abs="348117.341524" HC_abs="34.517031" PMx_abs="6.307819" NOx_abs="142.537192" fuel_abs="149.640960" electricity_abs="0"/>
    </tripinfo>
    <tripinfo id="carIn30817:1" depart="57681.00" departLane="315358244_1" departPos="5.10" departSpeed="0.00" departDelay="0.20" arrival="57782.00" arrivalLane="447569997#1_1" arrivalPos="180.93" arrivalSpeed="7.40" duration="101.00" routeLength="718.04" waitingTime="19.00" waitingCount="1" stopTime="0.00" timeLoss="35.10" rerouteNo="1" devices="tripinfo_carIn30817:1 routing_carIn30817:1 emissions_carIn30817:1" vType="default_016" speedFactor="0.94" vaporized="">
        <emissions CO_abs="5407.831900" CO2_abs="214735.361026" HC_abs="29.612473" PMx_abs="3.842940" NOx_abs="88.573586" fuel_abs="92.307225" electricity_abs="0"/>
    </tripinfo>
    <tripinfo id="carIn12365:1" depart="57713.00" departLane="315358244_1" departPos="5.10" departSpeed="0.00" departDelay="0.50" arrival="57783.00" arrivalLane="447569997#1_2" arrivalPos="180.93" arrivalSpeed="7.98" duration="70.00" routeLength="718.04" waitingTime="0.00" waitingCount="0" stopTime="0.00" timeLoss="7.09" rerouteNo="1" devices="tripinfo_carIn12365:1 routing_carIn12365:1 emissions_carIn12365:1" vType="default_016" speedFactor="0.99" vaporized="">
        <emissions CO_abs="2160.308178" CO2_abs="153074.035924" HC_abs="13.356678" PMx_abs="2.342080" NOx_abs="59.911917" fuel_abs="65.800399" electricity_abs="0"/>
    </tripinfo>
    <tripinfo id="h9563c2:5" depart="57631.00" departLane="315358244_1" departPos="5.10" departSpeed="0.00" departDelay="0.70" arrival="57787.00" arrivalLane="386687235_1" arrivalPos="80.84" arrivalSpeed="11.72" duration="156.00" routeLength="1186.14" waitingTime="42.00" waitingCount="2" stopTime="0.00" timeLoss="61.24" rerouteNo="1" devices="tripinfo_h9563c2:5 routing_h9563c2:5 emissions_h9563c2:5" vType="default_016" speedFactor="0.91" vaporized="">
        <emissions CO_abs="8685.093614" CO2_abs="339203.248496" HC_abs="47.446502" PMx_abs="6.131948" NOx_abs="139.493524" fuel_abs="145.811732" electricity_abs="0"/>
    </tripinfo>
    <tripinfo id="carIn77943:1" depart="57607.00" departLane="124812856#0_1" departPos="5.10" departSpeed="0.00" departDelay="1.50" arrival="57801.00" arrivalLane="-128361102#1_1" arrivalPos="274.68" arrivalSpeed="16.66" duration="194.00" routeLength="2232.46" waitingTime="26.00" waitingCount="1" stopTime="0.00" timeLoss="60.10" rerouteNo="1" devices="tripinfo_carIn77943:1 routing_carIn77943:1 emissions_carIn77943:1" vType="default_016" speedFactor="1.22" vaporized="">
        <emissions CO_abs="10475.974092" CO2_abs="617787.346829" HC_abs="62.054103" PMx_abs="11.486745" NOx_abs="252.757247" fuel_abs="265.560624" electricity_abs="0"/>
    </tripinfo>
    <tripinfo id="carIn50326:1" depart="57651.00" departLane="128361102#0_1" departPos="5.10" departSpeed="0.00" departDelay="0.30" arrival="57807.00" arrivalLane="18809673#0_1" arrivalPos="473.56" arrivalSpeed="13.94" duration="156.00" routeLength="1591.07" waitingTime="13.00" waitingCount="1" stopTime="0.00" timeLoss="34.74" rerouteNo="1" devices="tripinfo_carIn50326:1 routing_carIn50326:1 emissions_carIn50326:1" vType="default_016" speedFactor="1.08" vaporized="">
        <emissions CO_abs="6181.215839" CO2_abs="372223.307438" HC_abs="36.839150" PMx_abs="6.304897" NOx_abs="149.450482" fuel_abs="160.003784" electricity_abs="0"/>
    </tripinfo>
    <tripinfo id="carIn27009:1" depart="57673.00" departLane="-447569998#1_1" departPos="5.10" departSpeed="0.00" departDelay="0.50" arrival="57810.00" arrivalLane="-26677539_1" arrivalPos="152.75" arrivalSpeed="8.78" duration="137.00" routeLength="699.63" waitingTime="44.00" waitingCount="1" stopTime="0.00" timeLoss="57.61" rerouteNo="1" devices="tripinfo_carIn27009:1 routing_carIn27009:1 emissions_carIn27009:1" vType="default_015" speedFactor="1.06" vaporized="">
        <emissions CO_abs="9970.855021" CO2_abs="285305.368353" HC_abs="52.013617" PMx_abs="5.516256" NOx_abs="120.978738" fuel_abs="122.644494" electricity_abs="0"/>
    </tripinfo>
    <tripinfo id="carIn129809:1" depart="57729.00" departLane="-447569998#1_1" departPos="5.10" departSpeed="0.00" departDelay="1.00" arrival="57813.00" arrivalLane="-315358244_1" arrivalPos="33.95" arrivalSpeed="14.08" duration="84.00" routeLength="706.49" waitingTime="10.00" waitingCount="2" stopTime="0.00" timeLoss="25.35" rerouteNo="1" devices="tripinfo_carIn129809:1 routing_carIn129809:1 emissions_carIn129809:1" vType="default_015" speedFactor="1.03" vaporized="">
        <emissions CO_abs="3801.465744" CO2_abs="198915.067008" HC_abs="21.954529" PMx_abs="3.566818" NOx_abs="81.696053" fuel_abs="85.505627" electricity_abs="0"/>
    </tripinfo>
    <tripinfo id="h645c1:1" depart="57622.00" departLane="266565295#5_1" departPos="5.10" departSpeed="0.00" departDelay="0.40" arrival="57815.00" arrivalLane="-315358244_1" arrivalPos="33.95" arrivalSpeed="13.19" duration="193.00" routeLength="1910.83" waitingTime="27.00" waitingCount="3" stopTime="0.00" timeLoss="56.99" rerouteNo="1" devices="tripinfo_h645c1:1 routing_h645c1:1 emissions_h645c1:1" vType="default_016" speedFactor="1.02" vaporized="">
        <emissions CO_abs="8110.201706" CO2_abs="429287.978877" HC_abs="47.008745" PMx_abs="7.647239" NOx_abs="174.754339" fuel_abs="184.533856" electricity_abs="0"/>
    </tripinfo>
    <tripinfo id="carIn107282:1" depart="57749.00" departLane="-447569998#1_1" departPos="5.10" departSpeed="0.00" departDelay="0.00" arrival="57816.00" arrivalLane="315358242#0_1" arrivalPos="165.37" arrivalSpeed="13.56" duration="67.00" routeLength="448.50" waitingTime="17.00" waitingCount="1" stopTime="0.00" timeLoss="26.20" rerouteNo="1" devices="tripinfo_carIn107282:1 routing_carIn107282:1 emissions_carIn107282:1" vType="default_016" speedFactor="1.04" vaporized="">
        <emissions CO_abs="4320.269795" CO2_abs="157012.107647" HC_abs="23.328885" PMx_abs="2.904420" NOx_abs="65.215851" fuel_abs="67.494202" electricity_abs="0"/>
    </tripinfo>
    <tripinfo id="carIn118591:1" depart="57689.00" departLane="315358244_1" departPos="5.10" departSpeed="0.00" departDelay="0.20" arrival="57819.00" arrivalLane="386687235_1" arrivalPos="80.84" arrivalSpeed="10.96" duration="130.00" routeLength="1186.14" waitingTime="11.00" waitingCount="1" stopTime="0.00" timeLoss="28.74" rerouteNo="1" devices="tripinfo_carIn118591:1 routing_carIn118591:1 emissions_carIn118591:1" vType="default_016" speedFactor="0.85" vaporized="">
        <emissions CO_abs="4913.116417" CO2_abs="269286.155655" HC_abs="28.607066" PMx_abs="4.379598" NOx_abs="107.717005" fuel_abs="115.755831" electricity_abs="0"/>
    </tripinfo>
    <tripinfo id="carIn86816:1" depart="57617.00" departLane="128361102#0_1" departPos="5.10" departSpeed="0.00" departDelay="0.80" arrival="57822.00" arrivalLane="201956811#0_1" arrivalPos="40.40" arrivalSpeed="15.45" duration="205.00" routeLength="2067.33" waitingTime="43.00" waitingCount="1" stopTime="0.00" timeLoss="71.72" rerouteNo="1" devices="tripinfo_carIn86816:1 routing_carIn86816:1 emissions_carIn86816:1" vType="default_016" speedFactor="1.14" vaporized="">
        <emissions CO_abs="12787.447071" CO2_abs="591249.291583" HC_abs="71.924335" PMx_abs="11.271245" NOx_abs="244.629676" fuel_abs="254.154879" electricity_abs="0"/>
    </tripinfo>
    <tripinfo id="carIn82278:1" depart="57702.00" departLane="-306240162#1_0" departPos="5.10" departSpeed="0.00" departDelay="0.70" arrival="57824.00" arrivalLane="399835085#1_1" arrivalPos="212.23" arrivalSpeed="7.41" duration="122.00" routeLength="1093.26" waitingTime="19.00" waitingCount="1" stopTime="0.00" timeLoss="44.21" rerouteNo="1" devices="tripinfo_carIn82278:1 routing_carIn82278:1 emissions_carIn82278:1" vType="default_016" speedFactor="1.00" vaporized="">
        <emissions CO_abs="8184.815979" CO2_abs="372328.264976" HC_abs="46.108852" PMx_abs="7.337943" NOx_abs="156.338110" fuel_abs="160.049021" electricity_abs="0"/>
    </tripinfo>
    <tripinfo id="carIn12858:1" depart="57661.00" departLane="128361109#1_1" departPos="5.10" departSpeed="0.00" departDelay="0.90" arrival="57826.00" arrivalLane="399835085#1_1" arrivalPos="212.23" arrivalSpeed="9.13" duration="165.00" routeLength="1738.12" waitingTime="23.00" waitingCount="3" stopTime="0.00" timeLoss="67.41" rerouteNo="1" devices="tripinfo_carIn12858:1 routing_carIn12858:1 emissions_carIn12858:1" vType="default_016" speedFactor="1.18" vaporized="">
        <emissions CO_abs="10649.576709" CO2_abs="581190.665804" HC_abs="62.404391" PMx_abs="11.809791" NOx_abs="243.741687" fuel_abs="249.828505" electricity_abs="0"/>
    </tripinfo>
    <tripinfo id="carIn12152:1" depart="57647.00" departLane="24599188#0.94_1" departPos="5.10" departSpeed="0.00" departDelay="0.50" arrival="57830.00" arrivalLane="-315358254#1_1" arrivalPos="137.16" arrivalSpeed="14.35" duration="183.00" routeLength="2034.31" waitingTime="5.00" waitingCount="2" stopTime="0.00" timeLoss="30.41" rerouteNo="1" devices="tripinfo_carIn12152:1 routing_carIn12152:1 emissions_carIn12152:1" vType="default_016" speedFactor="1.04" vaporized="">
        <emissions CO_abs="5731.354905" CO2_abs="426483.850648" HC_abs="36.007626" PMx_abs="7.036269" NOx_abs="169.535528" fuel_abs="183.327373" electricity_abs="0"/>
    </tripinfo>
    <tripinfo id="carIn82220:1" depart="57619.00" departLane="-306240162#1_0" departPos="5.10" departSpeed="0.00" departDelay="3.50" arrival="57833.00" arrivalLane="386687235_1" arrivalPos="80.84" arrivalSpeed="14.33" duration="214.00" routeLength="2257.41" waitingTime="29.00" waitingCount="2" stopTime="0.00" timeLoss="70.79" rerouteNo="1" devices="tripinfo_carIn82220:1 routing_carIn82220:1 emissions_carIn82220:1" vType="default_016" speedFactor="1.04" vaporized="">
        <emissions CO_abs="10313.282279" CO2_abs="581428.141299" HC_abs="60.703572" PMx_abs="10.670579" NOx_abs="238.038447" fuel_abs="249.931888" electricity_abs="0"/>
    </tripinfo>
    <tripinfo id="h16072c2:3" depart="57663.00" departLane="315358254#0_1" departPos="5.10" departSpeed="0.00" departDelay="2.50" arrival="57835.00" arrivalLane="386687235_2" arrivalPos="80.84" arrivalSpeed="10.84" duration="172.00" routeLength="1611.92" waitingTime="11.00" waitingCount="1" stopTime="0.00" timeLoss="29.84" rerouteNo="1" devices="tripinfo_h16072c2:3 routing_h16072c2:3 emissions_h16072c2:3" vType="default_016" speedFactor="0.83" vaporized="">
        <emissions CO_abs="5764.391754" CO2_abs="338870.371972" HC_abs="34.094766" PMx_abs="5.456684" NOx_abs="135.332934" fuel_abs="145.667139" electricity_abs="0"/>
    </tripinfo>
    <tripinfo id="carIn85747:1" depart="57673.00" departLane="128361109#1_1" departPos="5.10" departSpeed="0.00" departDelay="0.70" arrival="57835.00" arrivalLane="386687235_1" arrivalPos="80.84" arrivalSpeed="14.45" duration="162.00" routeLength="2088.57" waitingTime="4.00" waitingCount="1" stopTime="0.00" timeLoss="20.05" rerouteNo="1" devices="tripinfo_carIn85747:1 routing_carIn85747:1 emissions_carIn85747:1" vType="default_016" speedFactor="1.06" vaporized="">
        <emissions CO_abs="3711.762789" CO2_abs="356964.955183" HC_abs="25.155425" PMx_abs="5.516169" NOx_abs="137.760230" fuel_abs="153.443956" electricity_abs="0"/>
    </tripinfo>
    <tripinfo id="h3864c1:3" depart="57678.00" departLane="24693977#1_1" departPos="5.10" departSpeed="0.00" departDelay="0.00" arrival="57840.00" arrivalLane="201956820_1" arrivalPos="48.33" arrivalSpeed="14.78" duration="162.00" routeLength="1574.85" waitingTime="11.00" waitingCount="2" stopTime="0.00" timeLoss="42.91" rerouteNo="1" devices="tripinfo_h3864c1:3 routing_h3864c1:3 emissions_h3864c1:3" vType="default_016" speedFactor="1.09" vaporized="">
        <emissions CO_abs="7587.355640" CO2_abs="456382.501838" HC_abs="45.237839" PMx_abs="8.078881" NOx_abs="186.321337" fuel_abs="196.179811" electricity_abs="0"/>
    </tripinfo>
    <tripinfo id="carIn126378:1" depart="57746.00" departLane="386687232#0_1" departPos="5.10" departSpeed="0.00" departDelay="1.80" arrival="57841.00" arrivalLane="-315358244_1" arrivalPos="33.95" arrivalSpeed="14.95" duration="95.00" routeLength="1157.39" waitingTime="3.00" waitingCount="1" stopTime="0.00" timeLoss="20.57" rerouteNo="1" devices="tripinfo_carIn126378:1 routing_carIn126378:1 emissions_carIn126378:1" vType="default_016" speedFactor="1.13" vaporized="">
        <emissions CO_abs="3366.371535" CO2_abs="255785.578623" HC_abs="21.145024" PMx_abs="4.385145" NOx_abs="102.155177" fuel_abs="109.951120" electricity_abs="0"/>
    </tripinfo>
    <tripinfo id="carIn107084:1" depart="57601.00" departLane="124812856#0_1" departPos="5.10" departSpeed="0.00" departDelay="0.70" arrival="57842.00" arrivalLane="-128361102#1_1" arrivalPos="274.68" arrivalSpeed="10.65" duration="241.00" routeLength="2232.46" waitingTime="9.00" waitingCount="2" stopTime="0.00" timeLoss="37.31" rerouteNo="1" devices="tripinfo_carIn107084:1 routing_carIn107084:1 emissions_carIn107084:1" vType="default_016" speedFactor="0.80" vaporized="">
        <emissions CO_abs="7703.547823" CO2_abs="481905.924066" HC_abs="46.190821" PMx_abs="7.465811" NOx_abs="190.838889" fuel_abs="207.152534" electricity_abs="0"/>
    </tripinfo>
    <tripinfo id="carIn81046:1" depart="57610.00" departLane="124812856#0_1" departPos="5.10" departSpeed="0.00" departDelay="1.50" arrival="57843.00" arrivalLane="-128361102#1_1" arrivalPos="274.68" arrivalSpeed="12.70" duration="233.00" routeLength="2250.49" waitingTime="11.00" waitingCount="2" stopTime="0.00" timeLoss="66.86" rerouteNo="1" devices="tripinfo_carIn81046:1 routing_carIn81046:1 emissions_carIn81046:1" vType="default_016" speedFactor="0.99" vaporized="">
        <emissions CO_abs="8204.591860" CO2_abs="541926.087171" HC_abs="50.025208" PMx_abs="9.171525" NOx_abs="219.282831" fuel_abs="232.951316" electricity_abs="0"/>
    </tripinfo>
    <tripinfo id="carIn73855:1" depart="57743.00" departLane="386687232#0_1" departPos="5.10" departSpeed="0.00" departDelay="0.50" arrival="57843.00" arrivalLane="-315358244_1" arrivalPos="33.95" arrivalSpeed="13.99" duration="100.00" routeLength="1157.39" waitingTime="3.00" waitingCount="1" stopTime="0.00" timeLoss="22.04" rerouteNo="1" devices="tripinfo_carIn73855:1 routing_carIn73855:1 emissions_carIn73855:1" vType="default_016" speedFactor="1.08" vaporized="">
        <emissions CO_abs="3801.594542" CO2_abs="262185.309113" HC_abs="23.430300" PMx_abs="4.668466" NOx_abs="106.435441" fuel_abs="112.702086" electricity_abs="0"/>
    </tripinfo>
    <tripinfo id="h2831c1:1" depart="57600.00" departLane="201089423#0_1" departPos="5.10" departSpeed="0.00" departDelay="0.00" arrival="57845.00" arrivalLane="-315358244_1" arrivalPos="33.95" arrivalSpeed="14.44" duration="245.00" routeLength="2672.18" waitingTime="26.00" waitingCount="3" stopTime="0.00" timeLoss="62.41" rerouteNo="1" devices="tripinfo_h2831c1:1 routing_h2831c1:1 emissions_h2831c1:1" vType="default_016" speedFactor="1.06" vaporized="">
        <emissions CO_abs="9812.803128" CO2_abs="630363.047487" HC_abs="59.266429" PMx_abs="10.696181" NOx_abs="251.761159" fuel_abs="270.967173" electricity_abs="0"/>
    </tripinfo>
    <tripinfo id="carIn28951:1" depart="57606.00" departLane="10425609#0_1" departPos="5.10" departSpeed="0.00" departDelay="0.20" arrival="57845.00" arrivalLane="-128361102#1_1" arrivalPos="274.68" arrivalSpeed="12.99" duration="239.00" routeLength="2113.04" waitingTime="26.00" waitingCount="3" stopTime="0.00" timeLoss="75.21" rerouteNo="1" devices="tripinfo_carIn28951:1 routing_carIn28951:1 emissions_carIn28951:1" vType="default_016" speedFactor="0.95" vaporized="">
        <emissions CO_abs="10324.055157" CO2_abs="563976.658736" HC_abs="60.194247" PMx_abs="9.848849" NOx_abs="230.259253" fuel_abs="242.430986" electricity_abs="0"/>
    </tripinfo>
    <tripinfo id="h20540c1:1" depart="57634.00" departLane="10425609#0_1" departPos="5.10" departSpeed="0.00" departDelay="0.50" arrival="57847.00" arrivalLane="-128361102#1_1" arrivalPos="274.68" arrivalSpeed="12.37" duration="213.00" routeLength="2113.04" waitingTime="3.00" waitingCount="1" stopTime="0.00" timeLoss="48.45" rerouteNo="1" devices="tripinfo_h20540c1:1 routing_h20540c1:1 emissions_h20540c1:1" vType="default_016" speedFactor="0.94" vaporized="">
        <emissions CO_abs="8292.668811" CO2_abs="528723.566970" HC_abs="50.136020" PMx_abs="9.104585" NOx_abs="215.154949" fuel_abs="227.276092" electricity_abs="0"/>
    </tripinfo>