<?xml version="1.0" encoding="UTF-8"?>

<!-- generated on 2021-10-26 13:04:10 by Eclipse SUMO sumo Version 1.10.0
<configuration xmlns:xsi="http://www.w3.org/2001/XMLSchema-instance" xsi:noNamespaceSchemaLocation="http://sumo.dlr.de/xsd/sumoConfiguration.xsd">

    <input>
        <net-file value="/Users/behradkoohy/sumo-scratchpad/RESCO/environments/ingolstadt21/ingolstadt21.net.xml"/>
        <route-files value="/Users/behradkoohy/sumo-scratchpad/RESCO/environments/ingolstadt21/ingolstadt21.rou.xml"/>
    </input>

    <output>
        <tripinfo-output value="/Users/behradkoohy/sumo-scratchpad/RESCO/logs/IDQN-tr0-ingolstadt21-21-drq_norm-wait_norm/tripinfo_80.xml"/>
        <tripinfo-output.write-unfinished value="true"/>
    </output>

    <time>
        <begin value="57600"/>
        <end value="61200"/>
    </time>

    <processing>
        <time-to-teleport value="-1"/>
    </processing>

    <report>
        <no-warnings value="true"/>
        <no-step-log value="true"/>
    </report>

    <emissions>
        <device.emissions.probability value="1"/>
    </emissions>

    <traci_server>
        <remote-port value="58684"/>
    </traci_server>

    <random_number>
        <random value="true"/>
    </random_number>

</configuration>
-->

<tripinfos xmlns:xsi="http://www.w3.org/2001/XMLSchema-instance" xsi:noNamespaceSchemaLocation="http://sumo.dlr.de/xsd/tripinfo_file.xsd">
    <tripinfo id="h15454c2:3" depart="57612.00" departLane="24608844_1" departPos="5.10" departSpeed="0.00" departDelay="0.50" arrival="57655.00" arrivalLane="32978638#0_1" arrivalPos="49.29" arrivalSpeed="11.96" duration="43.00" routeLength="354.79" waitingTime="0.00" waitingCount="0" stopTime="0.00" timeLoss="6.29" rerouteNo="1" devices="tripinfo_h15454c2:3 routing_h15454c2:3 emissions_h15454c2:3" vType="default_016" speedFactor="0.94" vaporized="">
        <emissions CO_abs="2033.803180" CO2_abs="103492.005122" HC_abs="11.658440" PMx_abs="1.743751" NOx_abs="42.188061" fuel_abs="44.487250" electricity_abs="0"/>
    </tripinfo>
    <tripinfo id="carIn60260:1" depart="57606.00" departLane="315358254#0_1" departPos="5.10" departSpeed="0.00" departDelay="0.90" arrival="57671.00" arrivalLane="399835085#1_1" arrivalPos="212.23" arrivalSpeed="7.88" duration="65.00" routeLength="430.98" waitingTime="11.00" waitingCount="1" stopTime="0.00" timeLoss="20.97" rerouteNo="1" devices="tripinfo_carIn60260:1 routing_carIn60260:1 emissions_carIn60260:1" vType="default_016" speedFactor="1.04" vaporized="">
        <emissions CO_abs="3312.016220" CO2_abs="127451.049356" HC_abs="18.062300" PMx_abs="2.425332" NOx_abs="53.779431" fuel_abs="54.786589" electricity_abs="0"/>
    </tripinfo>
    <tripinfo id="carIn53971:1" depart="57640.00" departLane="272042143_1" departPos="5.10" departSpeed="0.00" departDelay="0.80" arrival="57693.00" arrivalLane="24634414#1_1" arrivalPos="162.19" arrivalSpeed="8.49" duration="53.00" routeLength="493.04" waitingTime="0.00" waitingCount="0" stopTime="0.00" timeLoss="9.00" rerouteNo="1" devices="tripinfo_carIn53971:1 routing_carIn53971:1 emissions_carIn53971:1" vType="default_016" speedFactor="1.04" vaporized="">
        <emissions CO_abs="2627.287117" CO2_abs="148304.837869" HC_abs="15.434845" PMx_abs="2.616053" NOx_abs="60.920374" fuel_abs="63.750176" electricity_abs="0"/>
    </tripinfo>
    <tripinfo id="carIn80064:1" depart="57603.00" departLane="128361109#1_1" departPos="5.10" departSpeed="0.00" departDelay="0.40" arrival="57719.00" arrivalLane="-315358254#1_1" arrivalPos="137.16" arrivalSpeed="15.92" duration="116.00" routeLength="1587.97" waitingTime="4.00" waitingCount="1" stopTime="0.00" timeLoss="37.90" rerouteNo="1" devices="tripinfo_carIn80064:1 routing_carIn80064:1 emissions_carIn80064:1" vType="default_016" speedFactor="1.15" vaporized="">
        <emissions CO_abs="8316.147588" CO2_abs="540316.751142" HC_abs="50.771126" PMx_abs="10.974259" NOx_abs="225.226006" fuel_abs="232.257366" electricity_abs="0"/>
    </tripinfo>
    <tripinfo id="h7800c1:5" depart="57696.00" departLane="-447569998#1_1" departPos="5.10" departSpeed="0.00" departDelay="0.00" arrival="57719.00" arrivalLane="-447569998#1_1" arrivalPos="180.76" arrivalSpeed="8.76" duration="23.00" routeLength="175.66" waitingTime="0.00" waitingCount="0" stopTime="0.00" timeLoss="3.26" rerouteNo="1" devices="tripinfo_h7800c1:5 routing_h7800c1:5 emissions_h7800c1:5" vType="default_016" speedFactor="1.07" vaporized="">
        <emissions CO_abs="1061.051608" CO2_abs="48632.832586" HC_abs="5.946552" PMx_abs="0.782681" NOx_abs="19.671864" fuel_abs="20.905530" electricity_abs="0"/>
    </tripinfo>
    <tripinfo id="h3688c1:1" depart="57625.00" departLane="201201950#1_1" departPos="5.10" departSpeed="0.00" departDelay="0.00" arrival="57721.00" arrivalLane="32978638#0_1" arrivalPos="49.29" arrivalSpeed="13.23" duration="96.00" routeLength="1089.75" waitingTime="0.00" waitingCount="0" stopTime="0.00" timeLoss="13.43" rerouteNo="1" devices="tripinfo_h3688c1:1 routing_h3688c1:1 emissions_h3688c1:1" vType="default_016" speedFactor="0.97" vaporized="">
        <emissions CO_abs="3453.409036" CO2_abs="250262.765565" HC_abs="21.585793" PMx_abs="4.199873" NOx_abs="100.345595" fuel_abs="107.577315" electricity_abs="0"/>
    </tripinfo>
    <tripinfo id="carIn22761:1" depart="57616.00" departLane="-306240162#1_0" departPos="5.10" departSpeed="0.00" departDelay="2.10" arrival="57732.00" arrivalLane="399835085#1_1" arrivalPos="212.23" arrivalSpeed="8.23" duration="116.00" routeLength="1093.26" waitingTime="16.00" waitingCount="1" stopTime="0.00" timeLoss="42.16" rerouteNo="1" devices="tripinfo_carIn22761:1 routing_carIn22761:1 emissions_carIn22761:1" vType="default_016" speedFactor="1.06" vaporized="">
        <emissions CO_abs="7640.445753" CO2_abs="365586.408023" HC_abs="43.472416" PMx_abs="7.149518" NOx_abs="153.081612" fuel_abs="157.150720" electricity_abs="0"/>
    </tripinfo>
    <tripinfo id="carIn121703:1" depart="57647.00" departLane="386687232#0_1" departPos="5.10" departSpeed="0.00" departDelay="0.30" arrival="57739.00" arrivalLane="-315358244_1" arrivalPos="33.95" arrivalSpeed="16.26" duration="92.00" routeLength="1157.39" waitingTime="8.00" waitingCount="1" stopTime="0.00" timeLoss="22.73" rerouteNo="1" devices="tripinfo_carIn121703:1 routing_carIn121703:1 emissions_carIn121703:1" vType="default_016" speedFactor="1.21" vaporized="">
        <emissions CO_abs="4121.886800" CO2_abs="285849.623225" HC_abs="25.439652" PMx_abs="5.219662" NOx_abs="115.675617" fuel_abs="122.874247" electricity_abs="0"/>
    </tripinfo>
    <tripinfo id="h7181c1:1" depart="57660.00" departLane="315358254#0_1" departPos="5.10" departSpeed="0.00" departDelay="0.10" arrival="57740.00" arrivalLane="306240162#0_0" arrivalPos="220.43" arrivalSpeed="16.55" duration="80.00" routeLength="932.35" waitingTime="11.00" waitingCount="2" stopTime="0.00" timeLoss="31.89" rerouteNo="1" devices="tripinfo_h7181c1:1 routing_h7181c1:1 emissions_h7181c1:1" vType="default_016" speedFactor="1.07" vaporized="">
        <emissions CO_abs="5866.751448" CO2_abs="345483.104904" HC_abs="35.037463" PMx_abs="7.096733" NOx_abs="145.595002" fuel_abs="148.507580" electricity_abs="0"/>
    </tripinfo>
    <tripinfo id="h3568c1:3" depart="57656.00" departLane="266565295#5_1" departPos="5.10" departSpeed="0.00" departDelay="0.80" arrival="57748.00" arrivalLane="-24634415_1" arrivalPos="62.03" arrivalSpeed="11.50" duration="92.00" routeLength="807.40" waitingTime="3.00" waitingCount="1" stopTime="0.00" timeLoss="22.06" rerouteNo="1" devices="tripinfo_h3568c1:3 routing_h3568c1:3 emissions_h3568c1:3" vType="default_016" speedFactor="0.92" vaporized="">
        <emissions CO_abs="4032.902461" CO2_abs="227773.962462" HC_abs="23.682801" PMx_abs="3.950343" NOx_abs="93.111915" fuel_abs="97.910802" electricity_abs="0"/>
    </tripinfo>
    <tripinfo id="h317c2:1" depart="57707.00" departLane="-32978638#0_1" departPos="5.10" departSpeed="0.00" departDelay="0.10" arrival="57754.00" arrivalLane="-266565295#5_1" arrivalPos="172.76" arrivalSpeed="13.99" duration="47.00" routeLength="370.53" waitingTime="11.00" waitingCount="1" stopTime="0.00" timeLoss="21.00" rerouteNo="1" devices="tripinfo_h317c2:1 routing_h317c2:1 emissions_h317c2:1" vType="default_016" speedFactor="1.06" vaporized="">
        <emissions CO_abs="3132.626183" CO2_abs="137376.956710" HC_abs="17.511799" PMx_abs="2.700776" NOx_abs="58.012041" fuel_abs="59.052923" electricity_abs="0"/>
    </tripinfo>
    <tripinfo id="h5979c1:5" depart="57669.00" departLane="399835085#1_1" departPos="5.10" departSpeed="0.00" departDelay="0.00" arrival="57756.00" arrivalLane="-315358254#1_1" arrivalPos="137.16" arrivalSpeed="13.70" duration="87.00" routeLength="659.33" waitingTime="5.00" waitingCount="1" stopTime="0.00" timeLoss="18.28" rerouteNo="1" devices="tripinfo_h5979c1:5 routing_h5979c1:5 emissions_h5979c1:5" vType="default_016" speedFactor="1.07" vaporized="">
        <emissions CO_abs="3710.346709" CO2_abs="179653.757202" HC_abs="21.044580" PMx_abs="3.089678" NOx_abs="73.507326" fuel_abs="77.226339" electricity_abs="0"/>
    </tripinfo>
    <tripinfo id="carIn30817:1" depart="57681.00" departLane="315358244_1" departPos="5.10" departSpeed="0.00" departDelay="0.20" arrival="57756.00" arrivalLane="447569997#1_1" arrivalPos="180.93" arrivalSpeed="7.23" duration="75.00" routeLength="718.04" waitingTime="0.00" waitingCount="0" stopTime="0.00" timeLoss="7.40" rerouteNo="1" devices="tripinfo_carIn30817:1 routing_carIn30817:1 emissions_carIn30817:1" vType="default_016" speedFactor="0.91" vaporized="">
        <emissions CO_abs="2471.670462" CO2_abs="158042.822942" HC_abs="14.902521" PMx_abs="2.448220" NOx_abs="62.473628" fuel_abs="67.936402" electricity_abs="0"/>
    </tripinfo>
    <tripinfo id="h4538c1:1" depart="57701.00" departLane="-10427692#1_1" departPos="5.10" departSpeed="0.00" departDelay="0.00" arrival="57757.00" arrivalLane="-128361102#1_1" arrivalPos="274.68" arrivalSpeed="12.85" duration="56.00" routeLength="440.74" waitingTime="14.00" waitingCount="1" stopTime="0.00" timeLoss="23.25" rerouteNo="1" devices="tripinfo_h4538c1:1 routing_h4538c1:1 emissions_h4538c1:1" vType="default_016" speedFactor="0.96" vaporized="">
        <emissions CO_abs="3169.384571" CO2_abs="127764.409291" HC_abs="17.419113" PMx_abs="2.372858" NOx_abs="53.019482" fuel_abs="54.921304" electricity_abs="0"/>
    </tripinfo>
    <tripinfo id="carIn27009:1" depart="57673.00" departLane="-447569998#1_1" departPos="5.10" departSpeed="0.00" departDelay="0.50" arrival="57762.00" arrivalLane="-26677539_1" arrivalPos="152.75" arrivalSpeed="8.17" duration="89.00" routeLength="699.63" waitingTime="0.00" waitingCount="0" stopTime="0.00" timeLoss="11.16" rerouteNo="1" devices="tripinfo_carIn27009:1 routing_carIn27009:1 emissions_carIn27009:1" vType="default_015" speedFactor="1.07" vaporized="">
        <emissions CO_abs="3317.291114" CO2_abs="165959.138362" HC_abs="18.936249" PMx_abs="2.754882" NOx_abs="67.648810" fuel_abs="71.339562" electricity_abs="0"/>
    </tripinfo>
    <tripinfo id="h12244c1:3" depart="57612.00" departLane="315358244_1" departPos="5.10" departSpeed="0.00" departDelay="0.40" arrival="57766.00" arrivalLane="386687235_1" arrivalPos="80.84" arrivalSpeed="14.09" duration="154.00" routeLength="1186.14" waitingTime="59.00" waitingCount="3" stopTime="0.00" timeLoss="76.11" rerouteNo="1" devices="tripinfo_h12244c1:3 routing_h12244c1:3 emissions_h12244c1:3" vType="default_016" speedFactor="1.11" vaporized="">
        <emissions CO_abs="12018.097196" CO2_abs="393511.134157" HC_abs="63.835799" PMx_abs="7.830533" NOx_abs="165.327444" fuel_abs="169.157468" electricity_abs="0"/>
    </tripinfo>
    <tripinfo id="h3154c1:1" depart="57658.00" departLane="24634507_1" departPos="5.10" departSpeed="0.00" departDelay="0.00" arrival="57767.00" arrivalLane="-266565295#5_1" arrivalPos="172.76" arrivalSpeed="12.35" duration="109.00" routeLength="1206.22" waitingTime="0.00" waitingCount="0" stopTime="0.00" timeLoss="11.31" rerouteNo="1" devices="tripinfo_h3154c1:1 routing_h3154c1:1 emissions_h3154c1:1" vType="default_016" speedFactor="0.92" vaporized="">
        <emissions CO_abs="3517.038951" CO2_abs="263941.360889" HC_abs="22.182600" PMx_abs="4.344220" NOx_abs="105.471686" fuel_abs="113.457164" electricity_abs="0"/>
    </tripinfo>
    <tripinfo id="S5R_frequency1.2" depart="57612.00" departLane="315358250#0_1" departPos="12.10" departSpeed="0.00" departDelay="0.40" arrival="57772.00" arrivalLane="386687235_1" arrivalPos="80.84" arrivalSpeed="13.80" duration="160.00" routeLength="1115.62" waitingTime="49.00" waitingCount="2" stopTime="0.00" timeLoss="78.11" rerouteNo="1" devices="tripinfo_S5R_frequency1.2 routing_S5R_frequency1.2 emissions_S5R_frequency1.2" vType="bus" speedFactor="1.00" vaporized="">
        <emissions CO_abs="3034.916737" CO2_abs="1558939.724030" HC_abs="662.357234" PMx_abs="317.726223" NOx_abs="13022.651355" fuel_abs="664.757764" electricity_abs="0"/>
    </tripinfo>
    <tripinfo id="h330c1:1" depart="57736.00" departLane="-32978638#0_1" departPos="5.10" departSpeed="0.00" departDelay="0.20" arrival="57785.00" arrivalLane="-266565295#5_1" arrivalPos="172.76" arrivalSpeed="13.46" duration="49.00" routeLength="370.53" waitingTime="12.00" waitingCount="1" stopTime="0.00" timeLoss="21.83" rerouteNo="1" devices="tripinfo_h330c1:1 routing_h330c1:1 emissions_h330c1:1" vType="default_016" speedFactor="1.00" vaporized="">
        <emissions CO_abs="3331.991528" CO2_abs="140118.088861" HC_abs="18.460263" PMx_abs="2.672417" NOx_abs="58.576332" fuel_abs="60.231476" electricity_abs="0"/>
    </tripinfo>
    <tripinfo id="carIn28951:1" depart="57606.00" departLane="10425609#0_1" departPos="5.10" departSpeed="0.00" departDelay="0.20" arrival="57786.00" arrivalLane="-128361102#1_1" arrivalPos="274.68" arrivalSpeed="12.92" duration="180.00" routeLength="2113.04" waitingTime="0.00" waitingCount="0" stopTime="0.00" timeLoss="24.21" rerouteNo="1" devices="tripinfo_carIn28951:1 routing_carIn28951:1 emissions_carIn28951:1" vType="default_016" speedFactor="1.00" vaporized="">
        <emissions CO_abs="5366.273009" CO2_abs="438491.445239" HC_abs="34.623941" PMx_abs="6.996367" NOx_abs="172.653874" fuel_abs="188.488860" electricity_abs="0"/>
    </tripinfo>
    <tripinfo id="carIn12365:1" depart="57713.00" departLane="315358244_1" departPos="5.10" departSpeed="0.00" departDelay="0.50" arrival="57789.00" arrivalLane="447569997#1_1" arrivalPos="180.93" arrivalSpeed="7.94" duration="76.00" routeLength="718.04" waitingTime="7.00" waitingCount="1" stopTime="0.00" timeLoss="18.03" rerouteNo="1" devices="tripinfo_carIn12365:1 routing_carIn12365:1 emissions_carIn12365:1" vType="default_016" speedFactor="1.06" vaporized="">
        <emissions CO_abs="2952.348670" CO2_abs="175137.256279" HC_abs="17.507837" PMx_abs="2.952037" NOx_abs="70.398456" fuel_abs="75.284479" electricity_abs="0"/>
    </tripinfo>
    <tripinfo id="carIn50326:1" depart="57651.00" departLane="128361102#0_1" departPos="5.10" departSpeed="0.00" departDelay="0.30" arrival="57791.00" arrivalLane="18809673#0_1" arrivalPos="473.56" arrivalSpeed="13.99" duration="140.00" routeLength="1591.07" waitingTime="0.00" waitingCount="0" stopTime="0.00" timeLoss="15.92" rerouteNo="1" devices="tripinfo_carIn50326:1 routing_carIn50326:1 emissions_carIn50326:1" vType="default_016" speedFactor="1.05" vaporized="">
        <emissions CO_abs="4287.235470" CO2_abs="326100.063382" HC_abs="27.078820" PMx_abs="5.242662" NOx_abs="128.842075" fuel_abs="140.176747" electricity_abs="0"/>
    </tripinfo>
    <tripinfo id="h3326c1:2" depart="57656.00" departLane="22716069#0_1" departPos="5.10" departSpeed="0.00" departDelay="0.00" arrival="57791.00" arrivalLane="24634517#13_1" arrivalPos="111.62" arrivalSpeed="11.37" duration="135.00" routeLength="1312.81" waitingTime="0.00" waitingCount="0" stopTime="0.00" timeLoss="15.26" rerouteNo="1" devices="tripinfo_h3326c1:2 routing_h3326c1:2 emissions_h3326c1:2" vType="default_016" speedFactor="0.82" vaporized="">
        <emissions CO_abs="4356.558212" CO2_abs="284028.248097" HC_abs="26.410919" PMx_abs="4.498200" NOx_abs="113.167746" fuel_abs="122.092337" electricity_abs="0"/>
    </tripinfo>
    <tripinfo id="carIn129809:1" depart="57729.00" departLane="-447569998#1_1" departPos="5.10" departSpeed="0.00" departDelay="1.00" arrival="57793.00" arrivalLane="-315358244_1" arrivalPos="33.95" arrivalSpeed="14.64" duration="64.00" routeLength="706.49" waitingTime="0.00" waitingCount="0" stopTime="0.00" timeLoss="9.11" rerouteNo="1" devices="tripinfo_carIn129809:1 routing_carIn129809:1 emissions_carIn129809:1" vType="default_015" speedFactor="1.09" vaporized="">
        <emissions CO_abs="2275.095196" CO2_abs="143395.922959" HC_abs="13.714170" PMx_abs="2.469513" NOx_abs="57.961873" fuel_abs="61.639956" electricity_abs="0"/>
    </tripinfo>
    <tripinfo id="h9563c2:5" depart="57631.00" departLane="315358244_1" departPos="5.10" departSpeed="0.00" departDelay="0.70" arrival="57796.00" arrivalLane="386687235_1" arrivalPos="80.84" arrivalSpeed="14.18" duration="165.00" routeLength="1186.14" waitingTime="68.00" waitingCount="1" stopTime="0.00" timeLoss="81.68" rerouteNo="1" devices="tripinfo_h9563c2:5 routing_h9563c2:5 emissions_h9563c2:5" vType="default_016" speedFactor="1.04" vaporized="">
        <emissions CO_abs="13408.416733" CO2_abs="414856.343648" HC_abs="70.730235" PMx_abs="8.272853" NOx_abs="174.776187" fuel_abs="178.333655" electricity_abs="0"/>
    </tripinfo>
    <tripinfo id="carIn82278:1" depart="57702.00" departLane="-306240162#1_0" departPos="5.10" departSpeed="0.00" departDelay="0.70" arrival="57798.00" arrivalLane="399835085#1_1" arrivalPos="212.23" arrivalSpeed="8.96" duration="96.00" routeLength="1093.26" waitingTime="6.00" waitingCount="1" stopTime="0.00" timeLoss="28.50" rerouteNo="1" devices="tripinfo_carIn82278:1 routing_carIn82278:1 emissions_carIn82278:1" vType="default_016" speedFactor="1.16" vaporized="">
        <emissions CO_abs="5560.536735" CO2_abs="350460.199222" HC_abs="33.689274" PMx_abs="6.872268" NOx_abs="145.959195" fuel_abs="150.647130" electricity_abs="0"/>
    </tripinfo>
    <tripinfo id="carIn118591:1" depart="57689.00" departLane="315358244_1" departPos="5.10" departSpeed="0.00" departDelay="0.20" arrival="57799.00" arrivalLane="386687235_1" arrivalPos="80.84" arrivalSpeed="12.97" duration="110.00" routeLength="1186.14" waitingTime="8.00" waitingCount="1" stopTime="0.00" timeLoss="23.35" rerouteNo="1" devices="tripinfo_carIn118591:1 routing_carIn118591:1 emissions_carIn118591:1" vType="default_016" speedFactor="1.00" vaporized="">
        <emissions CO_abs="3737.958016" CO2_abs="262992.493512" HC_abs="23.120895" PMx_abs="4.235789" NOx_abs="103.767996" fuel_abs="113.049698" electricity_abs="0"/>
    </tripinfo>
    <tripinfo id="carIn107084:1" depart="57601.00" departLane="124812856#0_1" departPos="5.10" departSpeed="0.00" departDelay="0.70" arrival="57800.00" arrivalLane="-128361102#1_1" arrivalPos="274.68" arrivalSpeed="12.12" duration="199.00" routeLength="2250.49" waitingTime="2.00" waitingCount="1" stopTime="0.00" timeLoss="27.48" rerouteNo="1" devices="tripinfo_carIn107084:1 routing_carIn107084:1 emissions_carIn107084:1" vType="default_016" speedFactor="0.96" vaporized="">
        <emissions CO_abs="5688.296743" CO2_abs="433690.858377" HC_abs="36.014388" PMx_abs="6.972485" NOx_abs="171.740076" fuel_abs="186.425480" electricity_abs="0"/>
    </tripinfo>
    <tripinfo id="carIn116184:1" depart="57627.00" departLane="-306240162#1_0" departPos="5.10" departSpeed="0.00" departDelay="0.10" arrival="57801.00" arrivalLane="386687235_2" arrivalPos="80.84" arrivalSpeed="16.66" duration="174.00" routeLength="2257.41" waitingTime="3.00" waitingCount="1" stopTime="0.00" timeLoss="58.22" rerouteNo="1" devices="tripinfo_carIn116184:1 routing_carIn116184:1 emissions_carIn116184:1" vType="default_016" speedFactor="1.28" vaporized="">
        <emissions CO_abs="7759.641046" CO2_abs="562702.073255" HC_abs="48.681579" PMx_abs="10.609946" NOx_abs="231.292105" fuel_abs="241.880071" electricity_abs="0"/>
    </tripinfo>
    <tripinfo id="carIn77943:1" depart="57608.00" departLane="124812856#0_1" departPos="5.10" departSpeed="0.00" departDelay="2.50" arrival="57802.00" arrivalLane="-128361102#1_1" arrivalPos="274.68" arrivalSpeed="14.70" duration="194.00" routeLength="2250.49" waitingTime="0.00" waitingCount="0" stopTime="0.00" timeLoss="41.58" rerouteNo="1" devices="tripinfo_carIn77943:1 routing_carIn77943:1 emissions_carIn77943:1" vType="default_016" speedFactor="1.08" vaporized="">
        <emissions CO_abs="7092.089984" CO2_abs="525656.644162" HC_abs="44.620967" PMx_abs="9.039605" NOx_abs="212.133846" fuel_abs="225.956953" electricity_abs="0"/>
    </tripinfo>
    <tripinfo id="carIn48184:1" depart="57613.00" departLane="-306240162#1_0" departPos="5.10" departSpeed="0.00" departDelay="0.70" arrival="57804.00" arrivalLane="386687235_1" arrivalPos="80.84" arrivalSpeed="12.31" duration="191.00" routeLength="2257.41" waitingTime="4.00" waitingCount="1" stopTime="0.00" timeLoss="32.33" rerouteNo="1" devices="tripinfo_carIn48184:1 routing_carIn48184:1 emissions_carIn48184:1" vType="default_016" speedFactor="0.93" vaporized="">
        <emissions CO_abs="7051.305303" CO2_abs="529056.529920" HC_abs="44.498159" PMx_abs="9.029363" NOx_abs="211.970712" fuel_abs="227.418556" electricity_abs="0"/>
    </tripinfo>
    <tripinfo id="carIn77438:1" depart="57614.00" departLane="124812856#0_1" departPos="5.10" departSpeed="0.00" departDelay="1.10" arrival="57804.00" arrivalLane="-128361102#1_1" arrivalPos="274.68" arrivalSpeed="15.03" duration="190.00" routeLength="2250.49" waitingTime="0.00" waitingCount="0" stopTime="0.00" timeLoss="44.75" rerouteNo="1" devices="tripinfo_carIn77438:1 routing_carIn77438:1 emissions_carIn77438:1" vType="default_016" speedFactor="1.14" vaporized="">
        <emissions CO_abs="6690.544991" CO2_abs="513511.809288" HC_abs="42.507594" PMx_abs="8.898747" NOx_abs="207.427853" fuel_abs="220.736129" electricity_abs="0"/>
    </tripinfo>
    <tripinfo id="carIn107282:1" depart="57749.00" departLane="-447569998#1_1" departPos="5.10" departSpeed="0.00" departDelay="0.00" arrival="57804.00" arrivalLane="315358242#0_1" arrivalPos="165.37" arrivalSpeed="11.89" duration="55.00" routeLength="448.50" waitingTime="0.00" waitingCount="0" stopTime="0.00" timeLoss="6.30" rerouteNo="1" devices="tripinfo_carIn107282:1 routing_carIn107282:1 emissions_carIn107282:1" vType="default_016" speedFactor="0.86" vaporized="">
        <emissions CO_abs="2297.033924" CO2_abs="111781.512227" HC_abs="13.030923" PMx_abs="1.806489" NOx_abs="45.087442" fuel_abs="48.050793" electricity_abs="0"/>
    </tripinfo>
    <tripinfo id="carIn82220:1" depart="57619.00" departLane="-306240162#1_0" departPos="5.10" departSpeed="0.00" departDelay="3.50" arrival="57806.00" arrivalLane="386687235_1" arrivalPos="80.84" arrivalSpeed="12.24" duration="187.00" routeLength="2257.41" waitingTime="0.00" waitingCount="0" stopTime="0.00" timeLoss="23.39" rerouteNo="1" devices="tripinfo_carIn82220:1 routing_carIn82220:1 emissions_carIn82220:1" vType="default_016" speedFactor="0.91" vaporized="">
        <emissions CO_abs="6229.206499" CO2_abs="497337.807902" HC_abs="39.971467" PMx_abs="8.213122" NOx_abs="197.342172" fuel_abs="213.784140" electricity_abs="0"/>
    </tripinfo>
    <tripinfo id="carIn86816:1" depart="57617.00" departLane="128361102#0_1" departPos="5.10" departSpeed="0.00" departDelay="0.80" arrival="57816.00" arrivalLane="201956811#0_1" arrivalPos="40.40" arrivalSpeed="11.90" duration="199.00" routeLength="2067.33" waitingTime="4.00" waitingCount="1" stopTime="0.00" timeLoss="28.60" rerouteNo="1" devices="tripinfo_carIn86816:1 routing_carIn86816:1 emissions_carIn86816:1" vType="default_016" speedFactor="0.89" vaporized="">
        <emissions CO_abs="6790.177317" CO2_abs="465901.694412" HC_abs="41.741330" PMx_abs="7.450742" NOx_abs="185.108816" fuel_abs="200.272116" electricity_abs="0"/>
    </tripinfo>
    <tripinfo id="h11737c1:1" depart="57665.00" departLane="272042143_1" departPos="5.10" departSpeed="0.00" departDelay="1.50" arrival="57816.00" arrivalLane="-315358254#1_1" arrivalPos="137.16" arrivalSpeed="14.15" duration="151.00" routeLength="1596.88" waitingTime="24.00" waitingCount="2" stopTime="0.00" timeLoss="44.52" rerouteNo="1" devices="tripinfo_h11737c1:1 routing_h11737c1:1 emissions_h11737c1:1" vType="default_016" speedFactor="1.10" vaporized="">
        <emissions CO_abs="6896.666448" CO2_abs="395762.792588" HC_abs="40.552860" PMx_abs="7.031449" NOx_abs="159.936593" fuel_abs="170.122318" electricity_abs="0"/>
    </tripinfo>
    <tripinfo id="carIn102915:1" depart="57643.00" departLane="128361102#0_1" departPos="5.10" departSpeed="0.00" departDelay="0.40" arrival="57817.00" arrivalLane="201956811#0_1" arrivalPos="40.40" arrivalSpeed="14.76" duration="174.00" routeLength="2067.33" waitingTime="2.00" waitingCount="1" stopTime="0.00" timeLoss="36.25" rerouteNo="1" devices="tripinfo_carIn102915:1 routing_carIn102915:1 emissions_carIn102915:1" vType="default_016" speedFactor="1.09" vaporized="">
        <emissions CO_abs="6306.477775" CO2_abs="470206.739991" HC_abs="39.613442" PMx_abs="8.030639" NOx_abs="188.483656" fuel_abs="202.121570" electricity_abs="0"/>
    </tripinfo>
    <tripinfo id="carIn462:1" depart="57622.00" departLane="-306240162#1_0" departPos="5.10" departSpeed="0.00" departDelay="4.80" arrival="57824.00" arrivalLane="386687235_1" arrivalPos="80.84" arrivalSpeed="12.08" duration="202.00" routeLength="2257.41" waitingTime="10.00" waitingCount="2" stopTime="0.00" timeLoss="43.49" rerouteNo="1" devices="tripinfo_carIn462:1 routing_carIn462:1 emissions_carIn462:1" vType="default_016" speedFactor="0.94" vaporized="">
        <emissions CO_abs="7846.792134" CO2_abs="535007.382023" HC_abs="48.278095" PMx_abs="9.590031" NOx_abs="217.700574" fuel_abs="229.976434" electricity_abs="0"/>
    </tripinfo>
    <tripinfo id="carIn31257:1" depart="57630.00" departLane="-306240162#1_0" departPos="5.10" departSpeed="0.00" departDelay="1.60" arrival="57824.00" arrivalLane="386687235_2" arrivalPos="80.84" arrivalSpeed="14.81" duration="194.00" routeLength="2257.41" waitingTime="12.00" waitingCount="2" stopTime="0.00" timeLoss="57.54" rerouteNo="1" devices="tripinfo_carIn31257:1 routing_carIn31257:1 emissions_carIn31257:1" vType="default_016" speedFactor="1.09" vaporized="">
        <emissions CO_abs="8797.168058" CO2_abs="603413.082457" HC_abs="54.152739" PMx_abs="11.044093" NOx_abs="246.106934" fuel_abs="259.380752" electricity_abs="0"/>
    </tripinfo>
    <tripinfo id="carIn101568:1" depart="57638.00" departLane="-306240162#1_0" departPos="5.10" departSpeed="0.00" departDelay="0.50" arrival="57825.00" arrivalLane="386687235_1" arrivalPos="80.84" arrivalSpeed="14.28" duration="187.00" routeLength="2257.41" waitingTime="10.00" waitingCount="2" stopTime="0.00" timeLoss="45.21" rerouteNo="1" devices="tripinfo_carIn101568:1 routing_carIn101568:1 emissions_carIn101568:1" vType="default_016" speedFactor="1.05" vaporized="">
        <emissions CO_abs="7552.652756" CO2_abs="544481.904164" HC_abs="47.186146" PMx_abs="9.865674" NOx_abs="220.655224" fuel_abs="234.048746" electricity_abs="0"/>
    </tripinfo>
    <tripinfo id="randUni33724:1" depart="57646.00" departLane="128361102#0_1" departPos="5.10" departSpeed="0.00" departDelay="1.20" arrival="57829.00" arrivalLane="201956811#0_1" arrivalPos="40.40" arrivalSpeed="11.77" duration="183.00" routeLength="2067.33" waitingTime="0.00" waitingCount="0" stopTime="0.00" timeLoss="17.14" rerouteNo="1" devices="tripinfo_randUni33724:1 routing_randUni33724:1 emissions_randUni33724:1" vType="random_016" speedFactor="0.91" vaporized="">
        <emissions CO_abs="5073.558642" CO2_abs="404930.153212" HC_abs="32.510516" PMx_abs="6.306253" NOx_abs="159.163705" fuel_abs="174.062556" electricity_abs="0"/>
    </tripinfo>
    <tripinfo id="randUni15030:1" depart="57735.00" departLane="386687232#0_1" departPos="5.10" departSpeed="0.00" departDelay="0.10" arrival="57831.00" arrivalLane="26677539_1" arrivalPos="151.98" arrivalSpeed="7.79" duration="96.00" routeLength="919.89" waitingTime="0.00" waitingCount="0" stopTime="0.00" timeLoss="10.47" rerouteNo="1" devices="tripinfo_randUni15030:1 routing_randUni15030:1 emissions_randUni15030:1" vType="random_016" speedFactor="0.98" vaporized="">
        <emissions CO_abs="3342.266225" CO2_abs="206961.309619" HC_abs="19.981682" PMx_abs="3.227156" NOx_abs="81.901517" fuel_abs="88.964598" electricity_abs="0"/>
    </tripinfo>
    <tripinfo id="carIn81046:1" depart="57611.00" departLane="124812856#0_1" departPos="5.10" departSpeed="0.00" departDelay="2.50" arrival="57834.00" arrivalLane="-128361102#1_1" arrivalPos="274.68" arrivalSpeed="10.96" duration="223.00" routeLength="2232.46" waitingTime="0.00" waitingCount="0" stopTime="0.00" timeLoss="20.59" rerouteNo="1" devices="tripinfo_carIn81046:1 routing_carIn81046:1 emissions_carIn81046:1" vType="default_016" speedFactor="0.81" vaporized="">
        <emissions CO_abs="5983.003937" CO2_abs="432206.658014" HC_abs="37.192522" PMx_abs="6.431571" NOx_abs="169.124431" fuel_abs="185.788406" electricity_abs="0"/>
    </tripinfo>
    <tripinfo id="h19804c1:3" depart="57617.00" departLane="124812856#0_1" departPos="5.10" departSpeed="0.00" departDelay="1.50" arrival="57835.00" arrivalLane="-128361102#1_1" arrivalPos="274.68" arrivalSpeed="10.92" duration="218.00" routeLength="2250.49" waitingTime="0.00" waitingCount="0" stopTime="0.00" timeLoss="23.38" rerouteNo="1" devices="tripinfo_h19804c1:3 routing_h19804c1:3 emissions_h19804c1:3" vType="default_016" speedFactor="0.84" vaporized="">
        <emissions CO_abs="6253.854138" CO2_abs="450116.914502" HC_abs="38.914062" PMx_abs="7.094596" NOx_abs="178.684873" fuel_abs="193.486726" electricity_abs="0"/>
    </tripinfo>