<?xml version="1.0" encoding="UTF-8"?>

<!-- generated on 2021-10-26 11:34:52 by Eclipse SUMO sumo Version 1.10.0
<configuration xmlns:xsi="http://www.w3.org/2001/XMLSchema-instance" xsi:noNamespaceSchemaLocation="http://sumo.dlr.de/xsd/sumoConfiguration.xsd">

    <input>
        <net-file value="/Users/behradkoohy/sumo-scratchpad/RESCO/environments/ingolstadt21/ingolstadt21.net.xml"/>
        <route-files value="/Users/behradkoohy/sumo-scratchpad/RESCO/environments/ingolstadt21/ingolstadt21.rou.xml"/>
    </input>

    <output>
        <tripinfo-output value="/Users/behradkoohy/sumo-scratchpad/RESCO/logs/IDQN-tr0-ingolstadt21-21-drq_norm-wait_norm/tripinfo_25.xml"/>
        <tripinfo-output.write-unfinished value="true"/>
    </output>

    <time>
        <begin value="57600"/>
        <end value="61200"/>
    </time>

    <processing>
        <time-to-teleport value="-1"/>
    </processing>

    <report>
        <no-warnings value="true"/>
        <no-step-log value="true"/>
    </report>

    <emissions>
        <device.emissions.probability value="1"/>
    </emissions>

    <traci_server>
        <remote-port value="57275"/>
    </traci_server>

    <random_number>
        <random value="true"/>
    </random_number>

</configuration>
-->

<tripinfos xmlns:xsi="http://www.w3.org/2001/XMLSchema-instance" xsi:noNamespaceSchemaLocation="http://sumo.dlr.de/xsd/tripinfo_file.xsd">
    <tripinfo id="h15454c2:3" depart="57612.00" departLane="24608844_1" departPos="5.10" departSpeed="0.00" departDelay="0.50" arrival="57655.00" arrivalLane="32978638#0_1" arrivalPos="49.29" arrivalSpeed="11.48" duration="43.00" routeLength="354.79" waitingTime="0.00" waitingCount="0" stopTime="0.00" timeLoss="5.87" rerouteNo="1" devices="tripinfo_h15454c2:3 routing_h15454c2:3 emissions_h15454c2:3" vType="default_016" speedFactor="0.92" vaporized="">
        <emissions CO_abs="1809.545134" CO2_abs="93481.236691" HC_abs="10.388498" PMx_abs="1.477919" NOx_abs="37.411098" fuel_abs="40.184136" electricity_abs="0"/>
    </tripinfo>
    <tripinfo id="carIn60260:1" depart="57606.00" departLane="315358254#0_1" departPos="5.10" departSpeed="0.00" departDelay="0.90" arrival="57671.00" arrivalLane="399835085#1_1" arrivalPos="212.23" arrivalSpeed="7.47" duration="65.00" routeLength="430.98" waitingTime="11.00" waitingCount="1" stopTime="0.00" timeLoss="20.88" rerouteNo="1" devices="tripinfo_carIn60260:1 routing_carIn60260:1 emissions_carIn60260:1" vType="default_016" speedFactor="1.04" vaporized="">
        <emissions CO_abs="3547.494804" CO2_abs="143745.448606" HC_abs="19.491186" PMx_abs="2.571903" NOx_abs="59.511841" fuel_abs="61.791059" electricity_abs="0"/>
    </tripinfo>
    <tripinfo id="carIn53971:1" depart="57640.00" departLane="272042143_1" departPos="5.10" departSpeed="0.00" departDelay="0.80" arrival="57695.00" arrivalLane="24634414#1_1" arrivalPos="162.19" arrivalSpeed="8.52" duration="55.00" routeLength="493.04" waitingTime="0.00" waitingCount="0" stopTime="0.00" timeLoss="11.17" rerouteNo="1" devices="tripinfo_carIn53971:1 routing_carIn53971:1 emissions_carIn53971:1" vType="default_016" speedFactor="1.05" vaporized="">
        <emissions CO_abs="2695.684662" CO2_abs="153620.122170" HC_abs="15.852088" PMx_abs="2.637036" NOx_abs="62.561066" fuel_abs="66.035095" electricity_abs="0"/>
    </tripinfo>
    <tripinfo id="h7800c1:5" depart="57696.00" departLane="-447569998#1_1" departPos="5.10" departSpeed="0.00" departDelay="0.00" arrival="57720.00" arrivalLane="-447569998#1_2" arrivalPos="180.76" arrivalSpeed="8.74" duration="24.00" routeLength="175.66" waitingTime="0.00" waitingCount="0" stopTime="0.00" timeLoss="3.16" rerouteNo="1" devices="tripinfo_h7800c1:5 routing_h7800c1:5 emissions_h7800c1:5" vType="default_016" speedFactor="1.05" vaporized="">
        <emissions CO_abs="1135.140863" CO2_abs="52751.079902" HC_abs="6.379149" PMx_abs="0.850879" NOx_abs="21.353043" fuel_abs="22.675802" electricity_abs="0"/>
    </tripinfo>
    <tripinfo id="carIn22761:1" depart="57616.00" departLane="-306240162#1_0" departPos="5.10" departSpeed="0.00" departDelay="2.10" arrival="57729.00" arrivalLane="399835085#1_1" arrivalPos="212.23" arrivalSpeed="7.11" duration="113.00" routeLength="1093.26" waitingTime="6.00" waitingCount="1" stopTime="0.00" timeLoss="25.52" rerouteNo="1" devices="tripinfo_carIn22761:1 routing_carIn22761:1 emissions_carIn22761:1" vType="default_016" speedFactor="0.89" vaporized="">
        <emissions CO_abs="4884.611095" CO2_abs="295550.544025" HC_abs="29.101613" PMx_abs="5.338359" NOx_abs="120.606939" fuel_abs="127.044729" electricity_abs="0"/>
    </tripinfo>
    <tripinfo id="h3688c1:1" depart="57625.00" departLane="201201950#1_1" departPos="5.10" departSpeed="0.00" departDelay="0.00" arrival="57730.00" arrivalLane="32978638#0_1" arrivalPos="49.29" arrivalSpeed="11.16" duration="105.00" routeLength="1089.75" waitingTime="0.00" waitingCount="0" stopTime="0.00" timeLoss="11.15" rerouteNo="1" devices="tripinfo_h3688c1:1 routing_h3688c1:1 emissions_h3688c1:1" vType="default_016" speedFactor="0.85" vaporized="">
        <emissions CO_abs="3285.273638" CO2_abs="230865.925651" HC_abs="20.321958" PMx_abs="3.695815" NOx_abs="91.975232" fuel_abs="99.239738" electricity_abs="0"/>
    </tripinfo>
    <tripinfo id="h317c2:1" depart="57707.00" departLane="-32978638#0_1" departPos="5.10" departSpeed="0.00" departDelay="0.10" arrival="57737.00" arrivalLane="-266565295#5_1" arrivalPos="172.76" arrivalSpeed="15.28" duration="30.00" routeLength="370.53" waitingTime="0.00" waitingCount="0" stopTime="0.00" timeLoss="6.32" rerouteNo="1" devices="tripinfo_h317c2:1 routing_h317c2:1 emissions_h317c2:1" vType="default_016" speedFactor="1.15" vaporized="">
        <emissions CO_abs="1782.367908" CO2_abs="119117.534967" HC_abs="10.881233" PMx_abs="2.193483" NOx_abs="48.947552" fuel_abs="51.203378" electricity_abs="0"/>
    </tripinfo>
    <tripinfo id="h7181c1:1" depart="57660.00" departLane="315358254#0_1" departPos="5.10" departSpeed="0.00" departDelay="0.10" arrival="57742.00" arrivalLane="306240162#0_0" arrivalPos="220.43" arrivalSpeed="15.46" duration="82.00" routeLength="932.35" waitingTime="6.00" waitingCount="1" stopTime="0.00" timeLoss="27.39" rerouteNo="1" devices="tripinfo_h7181c1:1 routing_h7181c1:1 emissions_h7181c1:1" vType="default_016" speedFactor="0.95" vaporized="">
        <emissions CO_abs="4599.206818" CO2_abs="295792.630065" HC_abs="27.950483" PMx_abs="5.688824" NOx_abs="122.279397" fuel_abs="127.148095" electricity_abs="0"/>
    </tripinfo>
    <tripinfo id="h12244c1:3" depart="57612.00" departLane="315358244_1" departPos="5.10" departSpeed="0.00" departDelay="0.40" arrival="57743.00" arrivalLane="386687235_1" arrivalPos="80.84" arrivalSpeed="13.86" duration="131.00" routeLength="1186.14" waitingTime="27.00" waitingCount="3" stopTime="0.00" timeLoss="49.05" rerouteNo="1" devices="tripinfo_h12244c1:3 routing_h12244c1:3 emissions_h12244c1:3" vType="default_016" speedFactor="1.06" vaporized="">
        <emissions CO_abs="6084.185474" CO2_abs="300887.624012" HC_abs="34.783016" PMx_abs="5.546312" NOx_abs="123.822947" fuel_abs="129.339684" electricity_abs="0"/>
    </tripinfo>
    <tripinfo id="h9563c2:5" depart="57631.00" departLane="315358244_1" departPos="5.10" departSpeed="0.00" departDelay="0.70" arrival="57744.00" arrivalLane="386687235_1" arrivalPos="80.84" arrivalSpeed="14.21" duration="113.00" routeLength="1186.14" waitingTime="6.00" waitingCount="3" stopTime="0.00" timeLoss="34.14" rerouteNo="1" devices="tripinfo_h9563c2:5 routing_h9563c2:5 emissions_h9563c2:5" vType="default_016" speedFactor="1.09" vaporized="">
        <emissions CO_abs="4592.539978" CO2_abs="295643.713461" HC_abs="27.824908" PMx_abs="5.289701" NOx_abs="120.394537" fuel_abs="127.084607" electricity_abs="0"/>
    </tripinfo>
    <tripinfo id="h3568c1:3" depart="57656.00" departLane="266565295#5_1" departPos="5.10" departSpeed="0.00" departDelay="0.80" arrival="57761.00" arrivalLane="-24634415_1" arrivalPos="62.03" arrivalSpeed="11.00" duration="105.00" routeLength="807.40" waitingTime="8.00" waitingCount="1" stopTime="0.00" timeLoss="25.20" rerouteNo="1" devices="tripinfo_h3568c1:3 routing_h3568c1:3 emissions_h3568c1:3" vType="default_016" speedFactor="0.81" vaporized="">
        <emissions CO_abs="4563.338840" CO2_abs="228219.334507" HC_abs="26.095253" PMx_abs="3.996496" NOx_abs="93.854577" fuel_abs="98.102605" electricity_abs="0"/>
    </tripinfo>
    <tripinfo id="h330c1:1" depart="57736.00" departLane="-32978638#0_1" departPos="5.10" departSpeed="0.00" departDelay="0.20" arrival="57768.00" arrivalLane="-266565295#5_1" arrivalPos="172.76" arrivalSpeed="13.91" duration="32.00" routeLength="370.53" waitingTime="0.00" waitingCount="0" stopTime="0.00" timeLoss="5.25" rerouteNo="1" devices="tripinfo_h330c1:1 routing_h330c1:1 emissions_h330c1:1" vType="default_016" speedFactor="1.03" vaporized="">
        <emissions CO_abs="1618.116325" CO2_abs="109235.546797" HC_abs="9.911828" PMx_abs="1.975366" NOx_abs="44.785560" fuel_abs="46.955577" electricity_abs="0"/>
    </tripinfo>
    <tripinfo id="carIn27009:1" depart="57673.00" departLane="-447569998#1_1" departPos="5.10" departSpeed="0.00" departDelay="0.50" arrival="57771.00" arrivalLane="-26677539_1" arrivalPos="152.75" arrivalSpeed="6.95" duration="98.00" routeLength="699.63" waitingTime="0.00" waitingCount="0" stopTime="0.00" timeLoss="10.99" rerouteNo="1" devices="tripinfo_carIn27009:1 routing_carIn27009:1 emissions_carIn27009:1" vType="default_015" speedFactor="0.96" vaporized="">
        <emissions CO_abs="3796.779424" CO2_abs="178005.953003" HC_abs="21.366767" PMx_abs="2.843156" NOx_abs="71.974293" fuel_abs="76.518393" electricity_abs="0"/>
    </tripinfo>
    <tripinfo id="carIn121703:1" depart="57647.00" departLane="386687232#0_1" departPos="5.10" departSpeed="0.00" departDelay="0.30" arrival="57775.00" arrivalLane="-315358244_1" arrivalPos="33.95" arrivalSpeed="14.04" duration="128.00" routeLength="1157.39" waitingTime="32.00" waitingCount="1" stopTime="0.00" timeLoss="45.06" rerouteNo="1" devices="tripinfo_carIn121703:1 routing_carIn121703:1 emissions_carIn121703:1" vType="default_016" speedFactor="1.02" vaporized="">
        <emissions CO_abs="7769.266384" CO2_abs="324838.105317" HC_abs="42.984257" PMx_abs="6.035138" NOx_abs="133.811629" fuel_abs="139.636019" electricity_abs="0"/>
    </tripinfo>
    <tripinfo id="S5R_frequency1.2" depart="57647.00" departLane="315358250#0_1" departPos="12.10" departSpeed="0.00" departDelay="35.40" arrival="57779.00" arrivalLane="386687235_1" arrivalPos="80.84" arrivalSpeed="13.58" duration="132.00" routeLength="1115.62" waitingTime="28.00" waitingCount="2" stopTime="0.00" timeLoss="50.60" rerouteNo="1" devices="tripinfo_S5R_frequency1.2 routing_S5R_frequency1.2 emissions_S5R_frequency1.2" vType="bus" speedFactor="1.00" vaporized="">
        <emissions CO_abs="2330.057185" CO2_abs="1286475.068128" HC_abs="502.267082" PMx_abs="245.902393" NOx_abs="10451.577922" fuel_abs="548.609863" electricity_abs="0"/>
    </tripinfo>
    <tripinfo id="h3326c1:2" depart="57656.00" departLane="22716069#0_1" departPos="5.10" departSpeed="0.00" departDelay="0.00" arrival="57782.00" arrivalLane="24634517#13_1" arrivalPos="111.62" arrivalSpeed="11.02" duration="126.00" routeLength="1312.81" waitingTime="0.00" waitingCount="0" stopTime="0.00" timeLoss="14.46" rerouteNo="1" devices="tripinfo_h3326c1:2 routing_h3326c1:2 emissions_h3326c1:2" vType="default_016" speedFactor="0.87" vaporized="">
        <emissions CO_abs="4110.993937" CO2_abs="287116.057059" HC_abs="25.398823" PMx_abs="4.648771" NOx_abs="114.655103" fuel_abs="123.419298" electricity_abs="0"/>
    </tripinfo>
    <tripinfo id="carIn107084:1" depart="57601.00" departLane="124812856#0_1" departPos="5.10" departSpeed="0.00" departDelay="0.70" arrival="57783.00" arrivalLane="-128361102#1_1" arrivalPos="274.68" arrivalSpeed="15.17" duration="182.00" routeLength="2232.46" waitingTime="14.00" waitingCount="1" stopTime="0.00" timeLoss="38.85" rerouteNo="1" devices="tripinfo_carIn107084:1 routing_carIn107084:1 emissions_carIn107084:1" vType="default_016" speedFactor="1.14" vaporized="">
        <emissions CO_abs="7372.494424" CO2_abs="533144.384704" HC_abs="45.890370" PMx_abs="9.294983" NOx_abs="213.272161" fuel_abs="229.175803" electricity_abs="0"/>
    </tripinfo>
    <tripinfo id="carIn28951:1" depart="57606.00" departLane="10425609#0_1" departPos="5.10" departSpeed="0.00" departDelay="0.20" arrival="57786.00" arrivalLane="-128361102#1_1" arrivalPos="274.68" arrivalSpeed="15.24" duration="180.00" routeLength="2095.01" waitingTime="13.00" waitingCount="2" stopTime="0.00" timeLoss="45.67" rerouteNo="1" devices="tripinfo_carIn28951:1 routing_carIn28951:1 emissions_carIn28951:1" vType="default_016" speedFactor="1.15" vaporized="">
        <emissions CO_abs="7195.934238" CO2_abs="523921.109594" HC_abs="44.839962" PMx_abs="9.195804" NOx_abs="210.904878" fuel_abs="225.210875" electricity_abs="0"/>
    </tripinfo>
    <tripinfo id="carIn81046:1" depart="57611.00" departLane="124812856#0_1" departPos="5.10" departSpeed="0.00" departDelay="2.50" arrival="57788.00" arrivalLane="-128361102#1_1" arrivalPos="274.68" arrivalSpeed="15.66" duration="177.00" routeLength="2232.46" waitingTime="4.00" waitingCount="1" stopTime="0.00" timeLoss="34.61" rerouteNo="1" devices="tripinfo_carIn81046:1 routing_carIn81046:1 emissions_carIn81046:1" vType="default_016" speedFactor="1.15" vaporized="">
        <emissions CO_abs="7039.706219" CO2_abs="537505.229171" HC_abs="44.591412" PMx_abs="9.510649" NOx_abs="216.800432" fuel_abs="231.049717" electricity_abs="0"/>
    </tripinfo>
    <tripinfo id="h5979c1:5" depart="57669.00" departLane="399835085#1_1" departPos="5.10" departSpeed="0.00" departDelay="0.00" arrival="57790.00" arrivalLane="-315358254#1_1" arrivalPos="137.16" arrivalSpeed="11.09" duration="121.00" routeLength="659.33" waitingTime="15.00" waitingCount="1" stopTime="0.00" timeLoss="29.58" rerouteNo="1" devices="tripinfo_h5979c1:5 routing_h5979c1:5 emissions_h5979c1:5" vType="default_016" speedFactor="0.80" vaporized="">
        <emissions CO_abs="6064.029615" CO2_abs="208972.931907" HC_abs="32.413722" PMx_abs="3.666808" NOx_abs="86.671201" fuel_abs="89.830857" electricity_abs="0"/>
    </tripinfo>
    <tripinfo id="carIn12365:1" depart="57713.00" departLane="315358244_1" departPos="5.10" departSpeed="0.00" departDelay="0.50" arrival="57794.00" arrivalLane="447569997#1_2" arrivalPos="180.93" arrivalSpeed="9.79" duration="81.00" routeLength="718.04" waitingTime="8.00" waitingCount="2" stopTime="0.00" timeLoss="30.11" rerouteNo="1" devices="tripinfo_carIn12365:1 routing_carIn12365:1 emissions_carIn12365:1" vType="default_016" speedFactor="1.22" vaporized="">
        <emissions CO_abs="3887.854103" CO2_abs="213081.629222" HC_abs="22.626543" PMx_abs="3.923923" NOx_abs="87.850393" fuel_abs="91.594969" electricity_abs="0"/>
    </tripinfo>
    <tripinfo id="h3154c1:1" depart="57658.00" departLane="24634507_1" departPos="5.10" departSpeed="0.00" departDelay="0.00" arrival="57798.00" arrivalLane="-266565295#5_1" arrivalPos="172.76" arrivalSpeed="12.48" duration="140.00" routeLength="1206.22" waitingTime="26.00" waitingCount="2" stopTime="0.00" timeLoss="44.12" rerouteNo="1" devices="tripinfo_h3154c1:1 routing_h3154c1:1 emissions_h3154c1:1" vType="default_016" speedFactor="0.93" vaporized="">
        <emissions CO_abs="7445.134621" CO2_abs="345731.373440" HC_abs="42.000948" PMx_abs="6.288590" NOx_abs="142.554960" fuel_abs="148.616671" electricity_abs="0"/>
    </tripinfo>
    <tripinfo id="carIn30817:1" depart="57681.00" departLane="315358244_1" departPos="5.10" departSpeed="0.00" departDelay="0.20" arrival="57798.00" arrivalLane="447569997#1_1" arrivalPos="180.93" arrivalSpeed="7.00" duration="117.00" routeLength="718.04" waitingTime="30.00" waitingCount="3" stopTime="0.00" timeLoss="50.06" rerouteNo="1" devices="tripinfo_carIn30817:1 routing_carIn30817:1 emissions_carIn30817:1" vType="default_016" speedFactor="0.92" vaporized="">
        <emissions CO_abs="6999.393737" CO2_abs="249279.624240" HC_abs="37.682882" PMx_abs="4.687427" NOx_abs="104.333954" fuel_abs="107.156863" electricity_abs="0"/>
    </tripinfo>
    <tripinfo id="carIn462:1" depart="57622.00" departLane="-306240162#1_0" departPos="5.10" departSpeed="0.00" departDelay="4.80" arrival="57801.00" arrivalLane="386687235_2" arrivalPos="80.84" arrivalSpeed="14.81" duration="179.00" routeLength="2257.41" waitingTime="0.00" waitingCount="0" stopTime="0.00" timeLoss="41.11" rerouteNo="1" devices="tripinfo_carIn462:1 routing_carIn462:1 emissions_carIn462:1" vType="default_016" speedFactor="1.08" vaporized="">
        <emissions CO_abs="6540.467033" CO2_abs="510572.550243" HC_abs="41.689074" PMx_abs="8.945251" NOx_abs="205.638903" fuel_abs="219.472535" electricity_abs="0"/>
    </tripinfo>
    <tripinfo id="carIn48184:1" depart="57613.00" departLane="-306240162#1_0" departPos="5.10" departSpeed="0.00" departDelay="0.70" arrival="57804.00" arrivalLane="386687235_1" arrivalPos="80.84" arrivalSpeed="11.78" duration="191.00" routeLength="2257.41" waitingTime="0.00" waitingCount="0" stopTime="0.00" timeLoss="27.93" rerouteNo="1" devices="tripinfo_carIn48184:1 routing_carIn48184:1 emissions_carIn48184:1" vType="default_016" speedFactor="0.91" vaporized="">
        <emissions CO_abs="6558.268824" CO2_abs="514991.603665" HC_abs="41.906757" PMx_abs="8.348900" NOx_abs="203.336497" fuel_abs="221.373090" electricity_abs="0"/>
    </tripinfo>
    <tripinfo id="carIn82278:1" depart="57702.00" departLane="-306240162#1_0" departPos="5.10" departSpeed="0.00" departDelay="0.70" arrival="57804.00" arrivalLane="399835085#1_1" arrivalPos="212.23" arrivalSpeed="8.15" duration="102.00" routeLength="1093.26" waitingTime="1.00" waitingCount="1" stopTime="0.00" timeLoss="24.91" rerouteNo="1" devices="tripinfo_carIn82278:1 routing_carIn82278:1 emissions_carIn82278:1" vType="default_016" speedFactor="1.02" vaporized="">
        <emissions CO_abs="5511.992641" CO2_abs="319234.001378" HC_abs="32.701329" PMx_abs="6.157409" NOx_abs="132.946949" fuel_abs="137.224863" electricity_abs="0"/>
    </tripinfo>
    <tripinfo id="carIn80064:1" depart="57603.00" departLane="128361109#1_1" departPos="5.10" departSpeed="0.00" departDelay="0.40" arrival="57805.00" arrivalLane="-315358254#1_1" arrivalPos="137.16" arrivalSpeed="14.65" duration="202.00" routeLength="1587.97" waitingTime="89.00" waitingCount="2" stopTime="0.00" timeLoss="121.05" rerouteNo="1" devices="tripinfo_carIn80064:1 routing_carIn80064:1 emissions_carIn80064:1" vType="default_016" speedFactor="1.11" vaporized="">
        <emissions CO_abs="20343.497983" CO2_abs="720428.528729" HC_abs="109.883556" PMx_abs="15.581926" NOx_abs="308.917460" fuel_abs="309.685396" electricity_abs="0"/>
    </tripinfo>
    <tripinfo id="carIn129809:1" depart="57729.00" departLane="-447569998#1_1" departPos="5.10" departSpeed="0.00" departDelay="1.00" arrival="57805.00" arrivalLane="-315358244_1" arrivalPos="33.95" arrivalSpeed="11.27" duration="76.00" routeLength="706.49" waitingTime="0.00" waitingCount="0" stopTime="0.00" timeLoss="7.18" rerouteNo="1" devices="tripinfo_carIn129809:1 routing_carIn129809:1 emissions_carIn129809:1" vType="default_015" speedFactor="0.88" vaporized="">
        <emissions CO_abs="2245.316531" CO2_abs="134175.651257" HC_abs="13.314260" PMx_abs="2.075062" NOx_abs="53.117836" fuel_abs="57.676963" electricity_abs="0"/>
    </tripinfo>
    <tripinfo id="h645c1:1" depart="57622.00" departLane="266565295#5_1" departPos="5.10" departSpeed="0.00" departDelay="0.40" arrival="57808.00" arrivalLane="-315358244_1" arrivalPos="33.95" arrivalSpeed="12.64" duration="186.00" routeLength="1910.83" waitingTime="21.00" waitingCount="2" stopTime="0.00" timeLoss="44.54" rerouteNo="1" devices="tripinfo_h645c1:1 routing_h645c1:1 emissions_h645c1:1" vType="default_016" speedFactor="0.98" vaporized="">
        <emissions CO_abs="5956.030292" CO2_abs="388284.125055" HC_abs="36.163486" PMx_abs="6.265134" NOx_abs="153.190678" fuel_abs="166.907811" electricity_abs="0"/>
    </tripinfo>
    <tripinfo id="carIn82220:1" depart="57619.00" departLane="-306240162#1_0" departPos="5.10" departSpeed="0.00" departDelay="3.50" arrival="57809.00" arrivalLane="386687235_1" arrivalPos="80.84" arrivalSpeed="11.67" duration="190.00" routeLength="2257.41" waitingTime="0.00" waitingCount="0" stopTime="0.00" timeLoss="19.01" rerouteNo="1" devices="tripinfo_carIn82220:1 routing_carIn82220:1 emissions_carIn82220:1" vType="default_016" speedFactor="0.87" vaporized="">
        <emissions CO_abs="5565.276222" CO2_abs="455523.737888" HC_abs="35.856908" PMx_abs="7.232977" NOx_abs="178.740008" fuel_abs="195.810394" electricity_abs="0"/>
    </tripinfo>
    <tripinfo id="carIn86816:1" depart="57617.00" departLane="128361102#0_1" departPos="5.10" departSpeed="0.00" departDelay="0.80" arrival="57811.00" arrivalLane="201956811#0_1" arrivalPos="40.40" arrivalSpeed="16.41" duration="194.00" routeLength="2067.33" waitingTime="38.00" waitingCount="2" stopTime="0.00" timeLoss="67.73" rerouteNo="1" devices="tripinfo_carIn86816:1 routing_carIn86816:1 emissions_carIn86816:1" vType="default_016" speedFactor="1.20" vaporized="">
        <emissions CO_abs="11914.958397" CO2_abs="592498.155345" HC_abs="68.079991" PMx_abs="11.319475" NOx_abs="244.670987" fuel_abs="254.690987" electricity_abs="0"/>
    </tripinfo>
    <tripinfo id="h16072c2:3" depart="57663.00" departLane="315358254#0_1" departPos="5.10" departSpeed="0.00" departDelay="2.50" arrival="57811.00" arrivalLane="386687235_1" arrivalPos="80.84" arrivalSpeed="12.54" duration="148.00" routeLength="1611.92" waitingTime="2.00" waitingCount="1" stopTime="0.00" timeLoss="23.86" rerouteNo="1" devices="tripinfo_h16072c2:3 routing_h16072c2:3 emissions_h16072c2:3" vType="default_016" speedFactor="0.95" vaporized="">
        <emissions CO_abs="5584.457549" CO2_abs="400879.882084" HC_abs="34.815801" PMx_abs="6.791654" NOx_abs="161.665341" fuel_abs="172.321097" electricity_abs="0"/>
    </tripinfo>
    <tripinfo id="carIn107282:1" depart="57749.00" departLane="-447569998#1_1" departPos="5.10" departSpeed="0.00" departDelay="0.00" arrival="57813.00" arrivalLane="315358242#0_1" arrivalPos="165.37" arrivalSpeed="15.82" duration="64.00" routeLength="448.50" waitingTime="20.00" waitingCount="1" stopTime="0.00" timeLoss="29.40" rerouteNo="1" devices="tripinfo_carIn107282:1 routing_carIn107282:1 emissions_carIn107282:1" vType="default_016" speedFactor="1.23" vaporized="">
        <emissions CO_abs="4439.856311" CO2_abs="173856.758431" HC_abs="24.247529" PMx_abs="3.368282" NOx_abs="72.728677" fuel_abs="74.734658" electricity_abs="0"/>
    </tripinfo>
    <tripinfo id="carIn102915:1" depart="57643.00" departLane="128361102#0_1" departPos="5.10" departSpeed="0.00" departDelay="0.40" arrival="57814.00" arrivalLane="201956811#0_1" arrivalPos="40.40" arrivalSpeed="14.26" duration="171.00" routeLength="2067.33" waitingTime="7.00" waitingCount="1" stopTime="0.00" timeLoss="35.06" rerouteNo="1" devices="tripinfo_carIn102915:1 routing_carIn102915:1 emissions_carIn102915:1" vType="default_016" speedFactor="1.12" vaporized="">
        <emissions CO_abs="6271.701360" CO2_abs="486324.771960" HC_abs="39.905470" PMx_abs="8.386340" NOx_abs="194.605920" fuel_abs="209.049776" electricity_abs="0"/>
    </tripinfo>
    <tripinfo id="h4538c1:1" depart="57701.00" departLane="-10427692#1_1" departPos="5.10" departSpeed="0.00" departDelay="0.00" arrival="57815.00" arrivalLane="-128361102#1_1" arrivalPos="274.68" arrivalSpeed="13.17" duration="114.00" routeLength="440.74" waitingTime="73.00" waitingCount="1" stopTime="0.00" timeLoss="82.97" rerouteNo="1" devices="tripinfo_h4538c1:1 routing_h4538c1:1 emissions_h4538c1:1" vType="default_016" speedFactor="1.02" vaporized="">
        <emissions CO_abs="13010.933638" CO2_abs="286971.123751" HC_abs="65.973034" PMx_abs="6.392175" NOx_abs="126.097853" fuel_abs="123.361922" electricity_abs="0"/>
    </tripinfo>
    <tripinfo id="h11737c1:1" depart="57665.00" departLane="272042143_1" departPos="5.10" departSpeed="0.00" departDelay="1.50" arrival="57816.00" arrivalLane="-315358254#1_1" arrivalPos="137.16" arrivalSpeed="14.74" duration="151.00" routeLength="1596.88" waitingTime="22.00" waitingCount="2" stopTime="0.00" timeLoss="44.93" rerouteNo="1" devices="tripinfo_h11737c1:1 routing_h11737c1:1 emissions_h11737c1:1" vType="default_016" speedFactor="1.10" vaporized="">
        <emissions CO_abs="6999.750649" CO2_abs="397768.586724" HC_abs="41.169720" PMx_abs="7.174181" NOx_abs="161.632931" fuel_abs="170.984418" electricity_abs="0"/>
    </tripinfo>
    <tripinfo id="carIn50326:1" depart="57651.00" departLane="128361102#0_1" departPos="5.10" departSpeed="0.00" departDelay="0.30" arrival="57818.00" arrivalLane="18809673#0_1" arrivalPos="473.56" arrivalSpeed="14.29" duration="167.00" routeLength="1591.07" waitingTime="29.00" waitingCount="1" stopTime="0.00" timeLoss="49.65" rerouteNo="1" devices="tripinfo_carIn50326:1 routing_carIn50326:1 emissions_carIn50326:1" vType="default_016" speedFactor="1.11" vaporized="">
        <emissions CO_abs="9296.495907" CO2_abs="431807.019252" HC_abs="52.362631" PMx_abs="8.001697" NOx_abs="177.964344" fuel_abs="185.617149" electricity_abs="0"/>
    </tripinfo>
    <tripinfo id="carIn126288:1" depart="57674.00" departLane="272042143_1" departPos="5.10" departSpeed="0.00" departDelay="0.00" arrival="57819.00" arrivalLane="-315358254#1_1" arrivalPos="137.16" arrivalSpeed="14.10" duration="145.00" routeLength="1596.88" waitingTime="12.00" waitingCount="1" stopTime="0.00" timeLoss="31.89" rerouteNo="1" devices="tripinfo_carIn126288:1 routing_carIn126288:1 emissions_carIn126288:1" vType="default_016" speedFactor="1.03" vaporized="">
        <emissions CO_abs="5574.202782" CO2_abs="364928.055424" HC_abs="33.871697" PMx_abs="6.104893" NOx_abs="145.425013" fuel_abs="156.867605" electricity_abs="0"/>
    </tripinfo>
    <tripinfo id="randUni15030:1" depart="57735.00" departLane="386687232#0_1" departPos="5.10" departSpeed="0.00" departDelay="0.10" arrival="57826.00" arrivalLane="26677539_1" arrivalPos="151.98" arrivalSpeed="7.77" duration="91.00" routeLength="919.89" waitingTime="0.00" waitingCount="0" stopTime="0.00" timeLoss="11.28" rerouteNo="1" devices="tripinfo_randUni15030:1 routing_randUni15030:1 emissions_randUni15030:1" vType="random_016" speedFactor="1.06" vaporized="">
        <emissions CO_abs="3273.368449" CO2_abs="217838.834594" HC_abs="19.981579" PMx_abs="3.622954" NOx_abs="87.332090" fuel_abs="93.639903" electricity_abs="0"/>
    </tripinfo>
    <tripinfo id="randUni10474:1" depart="57605.00" departLane="124812856#0_1" departPos="5.10" departSpeed="0.00" departDelay="0.20" arrival="57829.00" arrivalLane="306240162#0_0" arrivalPos="220.43" arrivalSpeed="17.37" duration="224.00" routeLength="3049.32" waitingTime="7.00" waitingCount="1" stopTime="0.00" timeLoss="42.56" rerouteNo="1" devices="tripinfo_randUni10474:1 routing_randUni10474:1 emissions_randUni10474:1" vType="random_016" speedFactor="1.09" vaporized="">
        <emissions CO_abs="10682.395292" CO2_abs="779445.487211" HC_abs="67.022144" PMx_abs="14.654683" NOx_abs="317.959686" fuel_abs="335.048429" electricity_abs="0"/>
    </tripinfo>
    <tripinfo id="h17600c1:1" depart="57662.00" departLane="272042143_1" departPos="5.10" departSpeed="0.00" departDelay="0.30" arrival="57829.00" arrivalLane="201238729#3_1" arrivalPos="431.02" arrivalSpeed="14.42" duration="167.00" routeLength="2100.26" waitingTime="8.00" waitingCount="1" stopTime="0.00" timeLoss="25.31" rerouteNo="1" devices="tripinfo_h17600c1:1 routing_h17600c1:1 emissions_h17600c1:1" vType="default_016" speedFactor="1.07" vaporized="">
        <emissions CO_abs="4831.821556" CO2_abs="406118.173296" HC_abs="31.354855" PMx_abs="6.519608" NOx_abs="158.631599" fuel_abs="174.572923" electricity_abs="0"/>
    </tripinfo>
    <tripinfo id="carIn118591:1" depart="57689.00" departLane="315358244_1" departPos="5.10" departSpeed="0.00" departDelay="0.20" arrival="57831.00" arrivalLane="386687235_1" arrivalPos="80.84" arrivalSpeed="12.34" duration="142.00" routeLength="1186.14" waitingTime="27.00" waitingCount="3" stopTime="0.00" timeLoss="52.67" rerouteNo="1" devices="tripinfo_carIn118591:1 routing_carIn118591:1 emissions_carIn118591:1" vType="default_016" speedFactor="0.97" vaporized="">
        <emissions CO_abs="6598.864246" CO2_abs="320853.309947" HC_abs="37.554637" PMx_abs="5.761032" NOx_abs="131.501550" fuel_abs="137.922424" electricity_abs="0"/>
    </tripinfo>
    <tripinfo id="carIn81860:1" depart="57712.00" departLane="128361102#0_1" departPos="5.10" departSpeed="0.00" departDelay="0.60" arrival="57835.00" arrivalLane="-24634517#17_1" arrivalPos="6.43" arrivalSpeed="7.72" duration="123.00" routeLength="1229.64" waitingTime="16.00" waitingCount="1" stopTime="0.00" timeLoss="38.38" rerouteNo="1" devices="tripinfo_carIn81860:1 routing_carIn81860:1 emissions_carIn81860:1" vType="default_016" speedFactor="1.07" vaporized="">
        <emissions CO_abs="5920.306661" CO2_abs="315905.507646" HC_abs="34.352479" PMx_abs="5.663492" NOx_abs="128.777297" fuel_abs="135.795137" electricity_abs="0"/>
    </tripinfo>
    <tripinfo id="carIn8642:1" depart="57774.00" departLane="-447569998#1_1" departPos="5.10" departSpeed="0.00" departDelay="0.90" arrival="57838.00" arrivalLane="-315358244_1" arrivalPos="33.95" arrivalSpeed="14.43" duration="64.00" routeLength="706.49" waitingTime="0.00" waitingCount="0" stopTime="0.00" timeLoss="6.25" rerouteNo="1" devices="tripinfo_carIn8642:1 routing_carIn8642:1 emissions_carIn8642:1" vType="default_016" speedFactor="1.05" vaporized="">
        <emissions CO_abs="2176.217410" CO2_abs="155007.843623" HC_abs="13.512203" PMx_abs="2.537508" NOx_abs="61.608408" fuel_abs="66.631417" electricity_abs="0"/>
    </tripinfo>