<?xml version="1.0" encoding="UTF-8"?>

<!-- generated on 2021-10-26 12:41:46 by Eclipse SUMO sumo Version 1.10.0
<configuration xmlns:xsi="http://www.w3.org/2001/XMLSchema-instance" xsi:noNamespaceSchemaLocation="http://sumo.dlr.de/xsd/sumoConfiguration.xsd">

    <input>
        <net-file value="/Users/behradkoohy/sumo-scratchpad/RESCO/environments/ingolstadt21/ingolstadt21.net.xml"/>
        <route-files value="/Users/behradkoohy/sumo-scratchpad/RESCO/environments/ingolstadt21/ingolstadt21.rou.xml"/>
    </input>

    <output>
        <tripinfo-output value="/Users/behradkoohy/sumo-scratchpad/RESCO/logs/IDQN-tr0-ingolstadt21-21-drq_norm-wait_norm/tripinfo_64.xml"/>
        <tripinfo-output.write-unfinished value="true"/>
    </output>

    <time>
        <begin value="57600"/>
        <end value="61200"/>
    </time>

    <processing>
        <time-to-teleport value="-1"/>
    </processing>

    <report>
        <no-warnings value="true"/>
        <no-step-log value="true"/>
    </report>

    <emissions>
        <device.emissions.probability value="1"/>
    </emissions>

    <traci_server>
        <remote-port value="58390"/>
    </traci_server>

    <random_number>
        <random value="true"/>
    </random_number>

</configuration>
-->

<tripinfos xmlns:xsi="http://www.w3.org/2001/XMLSchema-instance" xsi:noNamespaceSchemaLocation="http://sumo.dlr.de/xsd/tripinfo_file.xsd">
    <tripinfo id="h15454c2:3" depart="57612.00" departLane="24608844_1" departPos="5.10" departSpeed="0.00" departDelay="0.50" arrival="57650.00" arrivalLane="32978638#0_1" arrivalPos="49.29" arrivalSpeed="14.02" duration="38.00" routeLength="354.79" waitingTime="0.00" waitingCount="0" stopTime="0.00" timeLoss="5.45" rerouteNo="1" devices="tripinfo_h15454c2:3 routing_h15454c2:3 emissions_h15454c2:3" vType="default_016" speedFactor="1.06" vaporized="">
        <emissions CO_abs="1947.562667" CO2_abs="112785.198174" HC_abs="11.483236" PMx_abs="1.950556" NOx_abs="46.035774" fuel_abs="48.481755" electricity_abs="0"/>
    </tripinfo>
    <tripinfo id="carIn60260:1" depart="57606.00" departLane="315358254#0_1" departPos="5.10" departSpeed="0.00" departDelay="0.90" arrival="57671.00" arrivalLane="399835085#1_1" arrivalPos="212.23" arrivalSpeed="8.42" duration="65.00" routeLength="430.98" waitingTime="12.00" waitingCount="1" stopTime="0.00" timeLoss="20.52" rerouteNo="1" devices="tripinfo_carIn60260:1 routing_carIn60260:1 emissions_carIn60260:1" vType="default_016" speedFactor="1.03" vaporized="">
        <emissions CO_abs="3640.380531" CO2_abs="142137.315476" HC_abs="19.890756" PMx_abs="2.638968" NOx_abs="59.497096" fuel_abs="61.099743" electricity_abs="0"/>
    </tripinfo>
    <tripinfo id="carIn53971:1" depart="57640.00" departLane="272042143_1" departPos="5.10" departSpeed="0.00" departDelay="0.80" arrival="57701.00" arrivalLane="24634414#1_1" arrivalPos="162.19" arrivalSpeed="6.35" duration="61.00" routeLength="493.04" waitingTime="0.00" waitingCount="0" stopTime="0.00" timeLoss="7.41" rerouteNo="1" devices="tripinfo_carIn53971:1 routing_carIn53971:1 emissions_carIn53971:1" vType="default_016" speedFactor="0.86" vaporized="">
        <emissions CO_abs="2490.936786" CO2_abs="129566.332448" HC_abs="14.334348" PMx_abs="2.117208" NOx_abs="52.303788" fuel_abs="55.695667" electricity_abs="0"/>
    </tripinfo>
    <tripinfo id="h7800c1:5" depart="57696.00" departLane="-447569998#1_1" departPos="5.10" departSpeed="0.00" departDelay="0.00" arrival="57725.00" arrivalLane="-447569998#1_2" arrivalPos="180.76" arrivalSpeed="3.50" duration="29.00" routeLength="175.66" waitingTime="3.00" waitingCount="1" stopTime="0.00" timeLoss="9.78" rerouteNo="1" devices="tripinfo_h7800c1:5 routing_h7800c1:5 emissions_h7800c1:5" vType="default_016" speedFactor="1.11" vaporized="">
        <emissions CO_abs="1473.803971" CO2_abs="62123.055439" HC_abs="8.144674" PMx_abs="1.067317" NOx_abs="25.568635" fuel_abs="26.704496" electricity_abs="0"/>
    </tripinfo>
    <tripinfo id="S5R_frequency1.2" depart="57615.00" departLane="315358250#0_1" departPos="12.10" departSpeed="0.00" departDelay="3.40" arrival="57730.00" arrivalLane="386687235_1" arrivalPos="80.84" arrivalSpeed="13.40" duration="115.00" routeLength="1115.62" waitingTime="16.00" waitingCount="1" stopTime="0.00" timeLoss="33.12" rerouteNo="1" devices="tripinfo_S5R_frequency1.2 routing_S5R_frequency1.2 emissions_S5R_frequency1.2" vType="bus" speedFactor="1.00" vaporized="">
        <emissions CO_abs="2210.456603" CO2_abs="1319358.561898" HC_abs="472.861530" PMx_abs="235.664322" NOx_abs="10411.625633" fuel_abs="562.672822" electricity_abs="0"/>
    </tripinfo>
    <tripinfo id="h3688c1:1" depart="57625.00" departLane="201201950#1_1" departPos="5.10" departSpeed="0.00" departDelay="0.00" arrival="57731.00" arrivalLane="32978638#0_1" arrivalPos="49.29" arrivalSpeed="13.66" duration="106.00" routeLength="1089.75" waitingTime="10.00" waitingCount="1" stopTime="0.00" timeLoss="25.44" rerouteNo="1" devices="tripinfo_h3688c1:1 routing_h3688c1:1 emissions_h3688c1:1" vType="default_016" speedFactor="0.99" vaporized="">
        <emissions CO_abs="4654.971295" CO2_abs="281362.394485" HC_abs="27.750189" PMx_abs="4.967372" NOx_abs="114.487038" fuel_abs="120.945988" electricity_abs="0"/>
    </tripinfo>
    <tripinfo id="carIn22761:1" depart="57616.00" departLane="-306240162#1_0" departPos="5.10" departSpeed="0.00" departDelay="2.10" arrival="57736.00" arrivalLane="399835085#1_1" arrivalPos="212.23" arrivalSpeed="9.06" duration="120.00" routeLength="1093.26" waitingTime="26.00" waitingCount="2" stopTime="0.00" timeLoss="57.15" rerouteNo="1" devices="tripinfo_carIn22761:1 routing_carIn22761:1 emissions_carIn22761:1" vType="default_016" speedFactor="1.24" vaporized="">
        <emissions CO_abs="8103.129591" CO2_abs="374618.275470" HC_abs="45.837185" PMx_abs="7.561831" NOx_abs="157.965027" fuel_abs="161.033070" electricity_abs="0"/>
    </tripinfo>
    <tripinfo id="h3568c1:3" depart="57656.00" departLane="266565295#5_1" departPos="5.10" departSpeed="0.00" departDelay="0.80" arrival="57742.00" arrivalLane="-24634415_1" arrivalPos="62.03" arrivalSpeed="13.81" duration="86.00" routeLength="807.40" waitingTime="2.00" waitingCount="1" stopTime="0.00" timeLoss="21.07" rerouteNo="1" devices="tripinfo_h3568c1:3 routing_h3568c1:3 emissions_h3568c1:3" vType="default_016" speedFactor="1.00" vaporized="">
        <emissions CO_abs="4312.294079" CO2_abs="246681.768197" HC_abs="25.443113" PMx_abs="4.496244" NOx_abs="102.063312" fuel_abs="106.038141" electricity_abs="0"/>
    </tripinfo>
    <tripinfo id="h7181c1:1" depart="57660.00" departLane="315358254#0_1" departPos="5.10" departSpeed="0.00" departDelay="0.10" arrival="57742.00" arrivalLane="306240162#0_0" arrivalPos="220.43" arrivalSpeed="14.81" duration="82.00" routeLength="932.35" waitingTime="15.00" waitingCount="1" stopTime="0.00" timeLoss="25.49" rerouteNo="1" devices="tripinfo_h7181c1:1 routing_h7181c1:1 emissions_h7181c1:1" vType="default_016" speedFactor="0.91" vaporized="">
        <emissions CO_abs="4930.362477" CO2_abs="262995.742839" HC_abs="28.633393" PMx_abs="5.029316" NOx_abs="107.929810" fuel_abs="113.050994" electricity_abs="0"/>
    </tripinfo>
    <tripinfo id="carIn30817:1" depart="57681.00" departLane="315358244_1" departPos="5.10" departSpeed="0.00" departDelay="0.20" arrival="57745.00" arrivalLane="447569997#1_1" arrivalPos="180.93" arrivalSpeed="8.25" duration="64.00" routeLength="718.04" waitingTime="0.00" waitingCount="0" stopTime="0.00" timeLoss="5.45" rerouteNo="1" devices="tripinfo_carIn30817:1 routing_carIn30817:1 emissions_carIn30817:1" vType="default_016" speedFactor="1.07" vaporized="">
        <emissions CO_abs="1918.150001" CO2_abs="144656.264576" HC_abs="11.999242" PMx_abs="2.286383" NOx_abs="56.800271" fuel_abs="62.181733" electricity_abs="0"/>
    </tripinfo>
    <tripinfo id="h12244c1:3" depart="57612.00" departLane="315358244_1" departPos="5.10" departSpeed="0.00" departDelay="0.40" arrival="57749.00" arrivalLane="386687235_1" arrivalPos="80.84" arrivalSpeed="11.74" duration="137.00" routeLength="1186.14" waitingTime="18.00" waitingCount="2" stopTime="0.00" timeLoss="38.10" rerouteNo="1" devices="tripinfo_h12244c1:3 routing_h12244c1:3 emissions_h12244c1:3" vType="default_016" speedFactor="0.88" vaporized="">
        <emissions CO_abs="5053.549852" CO2_abs="282706.946766" HC_abs="29.568356" PMx_abs="4.626861" NOx_abs="113.121513" fuel_abs="121.524799" electricity_abs="0"/>
    </tripinfo>
    <tripinfo id="h9563c2:5" depart="57631.00" departLane="315358244_1" departPos="5.10" departSpeed="0.00" departDelay="0.70" arrival="57750.00" arrivalLane="386687235_1" arrivalPos="80.84" arrivalSpeed="12.83" duration="119.00" routeLength="1186.14" waitingTime="12.00" waitingCount="2" stopTime="0.00" timeLoss="32.07" rerouteNo="1" devices="tripinfo_h9563c2:5 routing_h9563c2:5 emissions_h9563c2:5" vType="default_016" speedFactor="0.99" vaporized="">
        <emissions CO_abs="4505.442758" CO2_abs="272038.267715" HC_abs="26.806732" PMx_abs="4.461692" NOx_abs="108.003827" fuel_abs="116.938512" electricity_abs="0"/>
    </tripinfo>
    <tripinfo id="h4538c1:1" depart="57701.00" departLane="-10427692#1_1" departPos="5.10" departSpeed="0.00" departDelay="0.00" arrival="57753.00" arrivalLane="-128361102#1_1" arrivalPos="274.68" arrivalSpeed="14.57" duration="52.00" routeLength="440.74" waitingTime="14.00" waitingCount="1" stopTime="0.00" timeLoss="23.83" rerouteNo="1" devices="tripinfo_h4538c1:1 routing_h4538c1:1 emissions_h4538c1:1" vType="default_016" speedFactor="1.14" vaporized="">
        <emissions CO_abs="2956.355321" CO2_abs="138596.002733" HC_abs="16.694377" PMx_abs="2.616324" NOx_abs="57.351870" fuel_abs="59.576977" electricity_abs="0"/>
    </tripinfo>
    <tripinfo id="carIn86816:1" depart="57617.00" departLane="128361102#0_1" departPos="5.10" departSpeed="0.00" departDelay="0.80" arrival="57760.00" arrivalLane="201956811#0_1" arrivalPos="40.40" arrivalSpeed="16.33" duration="143.00" routeLength="2067.33" waitingTime="0.00" waitingCount="0" stopTime="0.00" timeLoss="20.59" rerouteNo="1" devices="tripinfo_carIn86816:1 routing_carIn86816:1 emissions_carIn86816:1" vType="default_016" speedFactor="1.24" vaporized="">
        <emissions CO_abs="5933.792181" CO2_abs="480096.074317" HC_abs="38.033408" PMx_abs="8.704587" NOx_abs="193.438410" fuel_abs="206.371552" electricity_abs="0"/>
    </tripinfo>
    <tripinfo id="carIn121703:1" depart="57647.00" departLane="386687232#0_1" departPos="5.10" departSpeed="0.00" departDelay="0.30" arrival="57763.00" arrivalLane="-315358244_1" arrivalPos="33.95" arrivalSpeed="13.62" duration="116.00" routeLength="1157.39" waitingTime="17.00" waitingCount="2" stopTime="0.00" timeLoss="35.13" rerouteNo="1" devices="tripinfo_carIn121703:1 routing_carIn121703:1 emissions_carIn121703:1" vType="default_016" speedFactor="1.04" vaporized="">
        <emissions CO_abs="5491.308209" CO2_abs="292807.239701" HC_abs="31.876294" PMx_abs="5.284091" NOx_abs="119.568732" fuel_abs="125.866070" electricity_abs="0"/>
    </tripinfo>
    <tripinfo id="h317c2:1" depart="57707.00" departLane="-32978638#0_1" departPos="5.10" departSpeed="0.00" departDelay="0.10" arrival="57764.00" arrivalLane="-266565295#5_1" arrivalPos="172.76" arrivalSpeed="8.64" duration="57.00" routeLength="370.53" waitingTime="8.00" waitingCount="1" stopTime="0.00" timeLoss="17.15" rerouteNo="1" devices="tripinfo_h317c2:1 routing_h317c2:1 emissions_h317c2:1" vType="default_016" speedFactor="0.69" vaporized="">
        <emissions CO_abs="2558.496950" CO2_abs="107673.391786" HC_abs="14.147952" PMx_abs="1.908846" NOx_abs="44.588105" fuel_abs="46.284893" electricity_abs="0"/>
    </tripinfo>
    <tripinfo id="h3154c1:1" depart="57658.00" departLane="24634507_1" departPos="5.10" departSpeed="0.00" departDelay="0.00" arrival="57766.00" arrivalLane="-266565295#5_1" arrivalPos="172.76" arrivalSpeed="15.36" duration="108.00" routeLength="1206.22" waitingTime="5.00" waitingCount="2" stopTime="0.00" timeLoss="27.50" rerouteNo="1" devices="tripinfo_h3154c1:1 routing_h3154c1:1 emissions_h3154c1:1" vType="default_016" speedFactor="1.12" vaporized="">
        <emissions CO_abs="5345.459421" CO2_abs="349034.165176" HC_abs="32.569402" PMx_abs="6.621808" NOx_abs="145.030360" fuel_abs="150.034193" electricity_abs="0"/>
    </tripinfo>
    <tripinfo id="h3326c1:2" depart="57656.00" departLane="22716069#0_1" departPos="5.10" departSpeed="0.00" departDelay="0.00" arrival="57770.00" arrivalLane="24634517#13_1" arrivalPos="111.62" arrivalSpeed="12.95" duration="114.00" routeLength="1312.81" waitingTime="0.00" waitingCount="0" stopTime="0.00" timeLoss="13.90" rerouteNo="1" devices="tripinfo_h3326c1:2 routing_h3326c1:2 emissions_h3326c1:2" vType="default_016" speedFactor="0.98" vaporized="">
        <emissions CO_abs="4135.951501" CO2_abs="312151.164738" HC_abs="26.149411" PMx_abs="5.228535" NOx_abs="125.072651" fuel_abs="134.180375" electricity_abs="0"/>
    </tripinfo>
    <tripinfo id="h5979c1:5" depart="57669.00" departLane="399835085#1_1" departPos="5.10" departSpeed="0.00" departDelay="0.00" arrival="57770.00" arrivalLane="-315358254#1_1" arrivalPos="137.16" arrivalSpeed="14.93" duration="101.00" routeLength="659.33" waitingTime="14.00" waitingCount="1" stopTime="0.00" timeLoss="37.88" rerouteNo="1" devices="tripinfo_h5979c1:5 routing_h5979c1:5 emissions_h5979c1:5" vType="default_016" speedFactor="1.16" vaporized="">
        <emissions CO_abs="5618.400428" CO2_abs="227606.816282" HC_abs="30.909088" PMx_abs="4.293027" NOx_abs="95.769888" fuel_abs="97.839732" electricity_abs="0"/>
    </tripinfo>
    <tripinfo id="carIn12365:1" depart="57713.00" departLane="315358244_1" departPos="5.10" departSpeed="0.00" departDelay="0.50" arrival="57771.00" arrivalLane="447569997#1_1" arrivalPos="180.93" arrivalSpeed="10.35" duration="58.00" routeLength="718.04" waitingTime="0.00" waitingCount="0" stopTime="0.00" timeLoss="10.25" rerouteNo="1" devices="tripinfo_carIn12365:1 routing_carIn12365:1 emissions_carIn12365:1" vType="default_016" speedFactor="1.30" vaporized="">
        <emissions CO_abs="2479.910813" CO2_abs="176386.224498" HC_abs="15.279396" PMx_abs="3.083921" NOx_abs="70.617802" fuel_abs="75.820843" electricity_abs="0"/>
    </tripinfo>
    <tripinfo id="carIn80064:1" depart="57603.00" departLane="128361109#1_1" departPos="5.10" departSpeed="0.00" departDelay="0.40" arrival="57776.00" arrivalLane="-315358254#1_1" arrivalPos="137.16" arrivalSpeed="14.04" duration="173.00" routeLength="1587.97" waitingTime="55.00" waitingCount="3" stopTime="0.00" timeLoss="90.92" rerouteNo="1" devices="tripinfo_carIn80064:1 routing_carIn80064:1 emissions_carIn80064:1" vType="default_016" speedFactor="1.08" vaporized="">
        <emissions CO_abs="14557.593136" CO2_abs="624139.919285" HC_abs="81.186262" PMx_abs="13.152303" NOx_abs="265.192358" fuel_abs="268.292420" electricity_abs="0"/>
    </tripinfo>
    <tripinfo id="h645c1:1" depart="57622.00" departLane="266565295#5_1" departPos="5.10" departSpeed="0.00" departDelay="0.40" arrival="57789.00" arrivalLane="-315358244_1" arrivalPos="33.95" arrivalSpeed="13.62" duration="167.00" routeLength="1910.83" waitingTime="10.00" waitingCount="1" stopTime="0.00" timeLoss="25.69" rerouteNo="1" devices="tripinfo_h645c1:1 routing_h645c1:1 emissions_h645c1:1" vType="default_016" speedFactor="0.98" vaporized="">
        <emissions CO_abs="5212.640813" CO2_abs="384467.567487" HC_abs="32.675633" PMx_abs="6.081383" NOx_abs="150.677239" fuel_abs="165.266847" electricity_abs="0"/>
    </tripinfo>
    <tripinfo id="carIn118591:1" depart="57689.00" departLane="315358244_1" departPos="5.10" departSpeed="0.00" departDelay="0.20" arrival="57793.00" arrivalLane="386687235_1" arrivalPos="80.84" arrivalSpeed="11.73" duration="104.00" routeLength="1186.14" waitingTime="0.00" waitingCount="0" stopTime="0.00" timeLoss="8.67" rerouteNo="1" devices="tripinfo_carIn118591:1 routing_carIn118591:1 emissions_carIn118591:1" vType="default_016" speedFactor="0.91" vaporized="">
        <emissions CO_abs="2938.816349" CO2_abs="241284.247406" HC_abs="18.985552" PMx_abs="3.722930" NOx_abs="94.494802" fuel_abs="103.718011" electricity_abs="0"/>
    </tripinfo>
    <tripinfo id="carIn107282:1" depart="57749.00" departLane="-447569998#1_1" departPos="5.10" departSpeed="0.00" departDelay="0.00" arrival="57793.00" arrivalLane="315358242#0_1" arrivalPos="165.37" arrivalSpeed="14.41" duration="44.00" routeLength="448.50" waitingTime="0.00" waitingCount="0" stopTime="0.00" timeLoss="4.58" rerouteNo="1" devices="tripinfo_carIn107282:1 routing_carIn107282:1 emissions_carIn107282:1" vType="default_016" speedFactor="1.05" vaporized="">
        <emissions CO_abs="1701.566882" CO2_abs="109380.256827" HC_abs="10.278798" PMx_abs="1.783579" NOx_abs="43.657449" fuel_abs="47.018146" electricity_abs="0"/>
    </tripinfo>
    <tripinfo id="carIn27009:1" depart="57673.00" departLane="-447569998#1_1" departPos="5.10" departSpeed="0.00" departDelay="0.50" arrival="57797.00" arrivalLane="-26677539_1" arrivalPos="152.75" arrivalSpeed="7.85" duration="124.00" routeLength="699.63" waitingTime="22.00" waitingCount="1" stopTime="0.00" timeLoss="35.57" rerouteNo="1" devices="tripinfo_carIn27009:1 routing_carIn27009:1 emissions_carIn27009:1" vType="default_015" speedFactor="0.95" vaporized="">
        <emissions CO_abs="7787.455595" CO2_abs="243291.160118" HC_abs="41.078245" PMx_abs="4.514419" NOx_abs="102.269061" fuel_abs="104.583449" electricity_abs="0"/>
    </tripinfo>
    <tripinfo id="h330c1:1" depart="57736.00" departLane="-32978638#0_1" departPos="5.10" departSpeed="0.00" departDelay="0.20" arrival="57797.00" arrivalLane="-266565295#5_1" arrivalPos="172.76" arrivalSpeed="11.74" duration="61.00" routeLength="370.53" waitingTime="22.00" waitingCount="1" stopTime="0.00" timeLoss="30.90" rerouteNo="1" devices="tripinfo_h330c1:1 routing_h330c1:1 emissions_h330c1:1" vType="default_016" speedFactor="0.91" vaporized="">
        <emissions CO_abs="4925.211453" CO2_abs="156346.805146" HC_abs="26.094636" PMx_abs="3.139670" NOx_abs="66.674936" fuel_abs="67.208352" electricity_abs="0"/>
    </tripinfo>
    <tripinfo id="carIn50326:1" depart="57651.00" departLane="128361102#0_1" departPos="5.10" departSpeed="0.00" departDelay="0.30" arrival="57813.00" arrivalLane="18809673#0_1" arrivalPos="473.56" arrivalSpeed="13.20" duration="162.00" routeLength="1591.07" waitingTime="7.00" waitingCount="1" stopTime="0.00" timeLoss="30.62" rerouteNo="1" devices="tripinfo_carIn50326:1 routing_carIn50326:1 emissions_carIn50326:1" vType="default_016" speedFactor="0.99" vaporized="">
        <emissions CO_abs="5213.383105" CO2_abs="355857.862094" HC_abs="32.002637" PMx_abs="5.691035" NOx_abs="141.385712" fuel_abs="152.968788" electricity_abs="0"/>
    </tripinfo>
    <tripinfo id="carIn12858:1" depart="57661.00" departLane="128361109#1_1" departPos="5.10" departSpeed="0.00" departDelay="0.90" arrival="57815.00" arrivalLane="399835085#1_1" arrivalPos="212.23" arrivalSpeed="7.45" duration="154.00" routeLength="1738.12" waitingTime="11.00" waitingCount="1" stopTime="0.00" timeLoss="36.15" rerouteNo="1" devices="tripinfo_carIn12858:1 routing_carIn12858:1 emissions_carIn12858:1" vType="default_016" speedFactor="0.97" vaporized="">
        <emissions CO_abs="7847.810479" CO2_abs="483376.748374" HC_abs="47.208213" PMx_abs="9.093721" NOx_abs="198.387512" fuel_abs="207.782784" electricity_abs="0"/>
    </tripinfo>
    <tripinfo id="carIn129809:1" depart="57729.00" departLane="-447569998#1_1" departPos="5.10" departSpeed="0.00" departDelay="1.00" arrival="57815.00" arrivalLane="-315358244_1" arrivalPos="33.95" arrivalSpeed="10.94" duration="86.00" routeLength="706.49" waitingTime="2.00" waitingCount="1" stopTime="0.00" timeLoss="13.89" rerouteNo="1" devices="tripinfo_carIn129809:1 routing_carIn129809:1 emissions_carIn129809:1" vType="default_015" speedFactor="0.84" vaporized="">
        <emissions CO_abs="3630.255790" CO2_abs="189983.616181" HC_abs="20.923395" PMx_abs="3.130059" NOx_abs="76.830650" fuel_abs="81.666718" electricity_abs="0"/>
    </tripinfo>
    <tripinfo id="carIn82278:1" depart="57702.00" departLane="-306240162#1_0" departPos="5.10" departSpeed="0.00" departDelay="0.70" arrival="57818.00" arrivalLane="399835085#1_1" arrivalPos="212.23" arrivalSpeed="7.76" duration="116.00" routeLength="1093.26" waitingTime="7.00" waitingCount="2" stopTime="0.00" timeLoss="34.40" rerouteNo="1" devices="tripinfo_carIn82278:1 routing_carIn82278:1 emissions_carIn82278:1" vType="default_016" speedFactor="0.96" vaporized="">
        <emissions CO_abs="5883.835314" CO2_abs="328972.329433" HC_abs="34.535442" PMx_abs="6.124243" NOx_abs="135.894329" fuel_abs="141.411419" electricity_abs="0"/>
    </tripinfo>
    <tripinfo id="h8343c1:5" depart="57679.00" departLane="315358254#0_1" departPos="5.10" departSpeed="0.00" departDelay="0.60" arrival="57825.00" arrivalLane="-24634510#5_1" arrivalPos="236.88" arrivalSpeed="13.43" duration="146.00" routeLength="2056.84" waitingTime="3.00" waitingCount="1" stopTime="0.00" timeLoss="25.56" rerouteNo="1" devices="tripinfo_h8343c1:5 routing_h8343c1:5 emissions_h8343c1:5" vType="default_016" speedFactor="1.04" vaporized="">
        <emissions CO_abs="7113.123552" CO2_abs="515872.881214" HC_abs="44.665650" PMx_abs="9.877135" NOx_abs="211.594152" fuel_abs="221.750243" electricity_abs="0"/>
    </tripinfo>
    <tripinfo id="h11737c1:1" depart="57665.00" departLane="272042143_1" departPos="5.10" departSpeed="0.00" departDelay="1.50" arrival="57827.00" arrivalLane="-315358254#1_1" arrivalPos="137.16" arrivalSpeed="13.78" duration="162.00" routeLength="1596.88" waitingTime="26.00" waitingCount="2" stopTime="0.00" timeLoss="45.31" rerouteNo="1" devices="tripinfo_h11737c1:1 routing_h11737c1:1 emissions_h11737c1:1" vType="default_016" speedFactor="1.00" vaporized="">
        <emissions CO_abs="7504.554890" CO2_abs="388437.627780" HC_abs="43.183591" PMx_abs="6.880853" NOx_abs="157.896877" fuel_abs="166.974093" electricity_abs="0"/>
    </tripinfo>
    <tripinfo id="carIn102915:1" depart="57643.00" departLane="128361102#0_1" departPos="5.10" departSpeed="0.00" departDelay="0.40" arrival="57828.00" arrivalLane="201956811#0_1" arrivalPos="40.40" arrivalSpeed="11.98" duration="185.00" routeLength="2067.33" waitingTime="3.00" waitingCount="1" stopTime="0.00" timeLoss="24.86" rerouteNo="1" devices="tripinfo_carIn102915:1 routing_carIn102915:1 emissions_carIn102915:1" vType="default_016" speedFactor="0.95" vaporized="">
        <emissions CO_abs="5421.815026" CO2_abs="427567.186248" HC_abs="34.645757" PMx_abs="6.771997" NOx_abs="168.551523" fuel_abs="183.793178" electricity_abs="0"/>
    </tripinfo>
    <tripinfo id="randUni15030:1" depart="57735.00" departLane="386687232#0_1" departPos="5.10" departSpeed="0.00" departDelay="0.10" arrival="57828.00" arrivalLane="26677539_1" arrivalPos="151.98" arrivalSpeed="7.78" duration="93.00" routeLength="919.89" waitingTime="0.00" waitingCount="0" stopTime="0.00" timeLoss="11.79" rerouteNo="1" devices="tripinfo_randUni15030:1 routing_randUni15030:1 emissions_randUni15030:1" vType="random_016" speedFactor="1.03" vaporized="">
        <emissions CO_abs="3516.342074" CO2_abs="221766.119370" HC_abs="21.145501" PMx_abs="3.688732" NOx_abs="89.220144" fuel_abs="95.328200" electricity_abs="0"/>
    </tripinfo>
    <tripinfo id="carIn126288:1" depart="57674.00" departLane="272042143_1" departPos="5.10" departSpeed="0.00" departDelay="0.00" arrival="57829.00" arrivalLane="-315358254#1_1" arrivalPos="137.16" arrivalSpeed="14.02" duration="155.00" routeLength="1596.88" waitingTime="19.00" waitingCount="2" stopTime="0.00" timeLoss="43.73" rerouteNo="1" devices="tripinfo_carIn126288:1 routing_carIn126288:1 emissions_carIn126288:1" vType="default_016" speedFactor="1.05" vaporized="">
        <emissions CO_abs="6344.110680" CO2_abs="387355.003159" HC_abs="37.889210" PMx_abs="6.712033" NOx_abs="156.023137" fuel_abs="166.508018" electricity_abs="0"/>
    </tripinfo>
    <tripinfo id="h3864c1:3" depart="57678.00" departLane="24693977#1_1" departPos="5.10" departSpeed="0.00" departDelay="0.00" arrival="57830.00" arrivalLane="201956820_2" arrivalPos="48.33" arrivalSpeed="14.18" duration="152.00" routeLength="1574.85" waitingTime="5.00" waitingCount="2" stopTime="0.00" timeLoss="35.21" rerouteNo="1" devices="tripinfo_h3864c1:3 routing_h3864c1:3 emissions_h3864c1:3" vType="default_016" speedFactor="1.11" vaporized="">
        <emissions CO_abs="7041.078158" CO2_abs="461553.745700" HC_abs="42.818578" PMx_abs="8.282996" NOx_abs="188.801238" fuel_abs="198.402019" electricity_abs="0"/>
    </tripinfo>
    <tripinfo id="h2831c1:1" depart="57600.00" departLane="201089423#0_1" departPos="5.10" departSpeed="0.00" departDelay="0.00" arrival="57831.00" arrivalLane="-315358244_1" arrivalPos="33.95" arrivalSpeed="14.93" duration="231.00" routeLength="2672.18" waitingTime="20.00" waitingCount="3" stopTime="0.00" timeLoss="50.90" rerouteNo="1" devices="tripinfo_h2831c1:1 routing_h2831c1:1 emissions_h2831c1:1" vType="default_016" speedFactor="1.08" vaporized="">
        <emissions CO_abs="8233.938165" CO2_abs="615697.366644" HC_abs="51.539007" PMx_abs="10.419769" NOx_abs="244.736204" fuel_abs="264.661941" electricity_abs="0"/>
    </tripinfo>
    <tripinfo id="carIn82220:1" depart="57619.00" departLane="-306240162#1_0" departPos="5.10" departSpeed="0.00" departDelay="3.50" arrival="57833.00" arrivalLane="386687235_2" arrivalPos="80.84" arrivalSpeed="14.22" duration="214.00" routeLength="2257.41" waitingTime="8.00" waitingCount="3" stopTime="0.00" timeLoss="78.81" rerouteNo="1" devices="tripinfo_carIn82220:1 routing_carIn82220:1 emissions_carIn82220:1" vType="default_016" speedFactor="1.10" vaporized="">
        <emissions CO_abs="8834.606199" CO2_abs="585612.701985" HC_abs="54.012409" PMx_abs="10.457770" NOx_abs="238.759675" fuel_abs="251.729672" electricity_abs="0"/>
    </tripinfo>
    <tripinfo id="h16072c2:3" depart="57663.00" departLane="315358254#0_1" departPos="5.10" departSpeed="0.00" departDelay="2.50" arrival="57834.00" arrivalLane="386687235_1" arrivalPos="80.84" arrivalSpeed="11.73" duration="171.00" routeLength="1611.92" waitingTime="19.00" waitingCount="2" stopTime="0.00" timeLoss="38.91" rerouteNo="1" devices="tripinfo_h16072c2:3 routing_h16072c2:3 emissions_h16072c2:3" vType="default_016" speedFactor="0.89" vaporized="">
        <emissions CO_abs="6075.614275" CO2_abs="366334.370530" HC_abs="36.163043" PMx_abs="5.909618" NOx_abs="145.817052" fuel_abs="157.472748" electricity_abs="0"/>
    </tripinfo>
    <tripinfo id="carIn81860:1" depart="57712.00" departLane="128361102#0_1" departPos="5.10" departSpeed="0.00" departDelay="0.60" arrival="57834.00" arrivalLane="-24634517#17_1" arrivalPos="6.43" arrivalSpeed="6.82" duration="122.00" routeLength="1229.64" waitingTime="10.00" waitingCount="2" stopTime="0.00" timeLoss="30.25" rerouteNo="1" devices="tripinfo_carIn81860:1 routing_carIn81860:1 emissions_carIn81860:1" vType="default_016" speedFactor="0.98" vaporized="">
        <emissions CO_abs="4246.646497" CO2_abs="279653.846057" HC_abs="25.862173" PMx_abs="4.641110" NOx_abs="111.640443" fuel_abs="120.211716" electricity_abs="0"/>
    </tripinfo>
    <tripinfo id="carIn48184:1" depart="57613.00" departLane="-306240162#1_0" departPos="5.10" departSpeed="0.00" departDelay="0.70" arrival="57837.00" arrivalLane="386687235_1" arrivalPos="80.84" arrivalSpeed="9.81" duration="224.00" routeLength="2257.41" waitingTime="7.00" waitingCount="1" stopTime="0.00" timeLoss="35.36" rerouteNo="1" devices="tripinfo_carIn48184:1 routing_carIn48184:1 emissions_carIn48184:1" vType="default_016" speedFactor="0.79" vaporized="">
        <emissions CO_abs="7183.117724" CO2_abs="478604.565764" HC_abs="43.731465" PMx_abs="7.643296" NOx_abs="189.965652" fuel_abs="205.732752" electricity_abs="0"/>
    </tripinfo>
    <tripinfo id="carIn116184:1" depart="57627.00" departLane="-306240162#1_0" departPos="5.10" departSpeed="0.00" departDelay="0.10" arrival="57839.00" arrivalLane="386687235_1" arrivalPos="80.84" arrivalSpeed="13.53" duration="212.00" routeLength="2257.41" waitingTime="7.00" waitingCount="2" stopTime="0.00" timeLoss="68.98" rerouteNo="1" devices="tripinfo_carIn116184:1 routing_carIn116184:1 emissions_carIn116184:1" vType="default_016" speedFactor="1.04" vaporized="">
        <emissions CO_abs="8504.199442" CO2_abs="585174.500521" HC_abs="52.473628" PMx_abs="10.278204" NOx_abs="237.438381" fuel_abs="251.541297" electricity_abs="0"/>
    </tripinfo>
    <tripinfo id="carIn31257:1" depart="57630.00" departLane="-306240162#1_0" departPos="5.10" departSpeed="0.00" departDelay="1.60" arrival="57839.00" arrivalLane="386687235_2" arrivalPos="80.84" arrivalSpeed="14.34" duration="209.00" routeLength="2257.41" waitingTime="7.00" waitingCount="2" stopTime="0.00" timeLoss="70.73" rerouteNo="1" devices="tripinfo_carIn31257:1 routing_carIn31257:1 emissions_carIn31257:1" vType="default_016" speedFactor="1.07" vaporized="">
        <emissions CO_abs="8993.663796" CO2_abs="583007.167679" HC_abs="54.714359" PMx_abs="10.581899" NOx_abs="239.237182" fuel_abs="250.609532" electricity_abs="0"/>
    </tripinfo>
    <tripinfo id="carIn107084:1" depart="57601.00" departLane="124812856#0_1" departPos="5.10" departSpeed="0.00" departDelay="0.70" arrival="57841.00" arrivalLane="-128361102#1_1" arrivalPos="274.68" arrivalSpeed="11.51" duration="240.00" routeLength="2232.46" waitingTime="10.00" waitingCount="3" stopTime="0.00" timeLoss="44.65" rerouteNo="1" devices="tripinfo_carIn107084:1 routing_carIn107084:1 emissions_carIn107084:1" vType="default_016" speedFactor="0.83" vaporized="">
        <emissions CO_abs="8178.854363" CO2_abs="503553.939644" HC_abs="48.950577" PMx_abs="8.331867" NOx_abs="202.985474" fuel_abs="216.457455" electricity_abs="0"/>
    </tripinfo>