<?xml version="1.0" encoding="UTF-8"?>

<!-- generated on 2021-10-26 11:44:54 by Eclipse SUMO sumo Version 1.10.0
<configuration xmlns:xsi="http://www.w3.org/2001/XMLSchema-instance" xsi:noNamespaceSchemaLocation="http://sumo.dlr.de/xsd/sumoConfiguration.xsd">

    <input>
        <net-file value="/Users/behradkoohy/sumo-scratchpad/RESCO/environments/ingolstadt21/ingolstadt21.net.xml"/>
        <route-files value="/Users/behradkoohy/sumo-scratchpad/RESCO/environments/ingolstadt21/ingolstadt21.rou.xml"/>
    </input>

    <output>
        <tripinfo-output value="/Users/behradkoohy/sumo-scratchpad/RESCO/logs/IDQN-tr0-ingolstadt21-21-drq_norm-wait_norm/tripinfo_32.xml"/>
        <tripinfo-output.write-unfinished value="true"/>
    </output>

    <time>
        <begin value="57600"/>
        <end value="61200"/>
    </time>

    <processing>
        <time-to-teleport value="-1"/>
    </processing>

    <report>
        <no-warnings value="true"/>
        <no-step-log value="true"/>
    </report>

    <emissions>
        <device.emissions.probability value="1"/>
    </emissions>

    <traci_server>
        <remote-port value="57510"/>
    </traci_server>

    <random_number>
        <random value="true"/>
    </random_number>

</configuration>
-->

<tripinfos xmlns:xsi="http://www.w3.org/2001/XMLSchema-instance" xsi:noNamespaceSchemaLocation="http://sumo.dlr.de/xsd/tripinfo_file.xsd">
    <tripinfo id="h15454c2:3" depart="57612.00" departLane="24608844_1" departPos="5.10" departSpeed="0.00" departDelay="0.50" arrival="57650.00" arrivalLane="32978638#0_1" arrivalPos="49.29" arrivalSpeed="13.97" duration="38.00" routeLength="354.79" waitingTime="0.00" waitingCount="0" stopTime="0.00" timeLoss="6.32" rerouteNo="1" devices="tripinfo_h15454c2:3 routing_h15454c2:3 emissions_h15454c2:3" vType="default_016" speedFactor="1.10" vaporized="">
        <emissions CO_abs="2042.712447" CO2_abs="116469.454024" HC_abs="12.049428" PMx_abs="2.162728" NOx_abs="48.534102" fuel_abs="50.065266" electricity_abs="0"/>
    </tripinfo>
    <tripinfo id="carIn60260:1" depart="57606.00" departLane="315358254#0_1" departPos="5.10" departSpeed="0.00" departDelay="0.90" arrival="57657.00" arrivalLane="399835085#1_1" arrivalPos="212.23" arrivalSpeed="8.37" duration="51.00" routeLength="430.98" waitingTime="0.00" waitingCount="0" stopTime="0.00" timeLoss="7.32" rerouteNo="1" devices="tripinfo_carIn60260:1 routing_carIn60260:1 emissions_carIn60260:1" vType="default_016" speedFactor="1.07" vaporized="">
        <emissions CO_abs="2230.238517" CO2_abs="122992.472424" HC_abs="12.995215" PMx_abs="1.982148" NOx_abs="49.406596" fuel_abs="52.869747" electricity_abs="0"/>
    </tripinfo>
    <tripinfo id="carIn53971:1" depart="57640.00" departLane="272042143_1" departPos="5.10" departSpeed="0.00" departDelay="0.80" arrival="57699.00" arrivalLane="24634414#1_1" arrivalPos="162.19" arrivalSpeed="6.62" duration="59.00" routeLength="493.04" waitingTime="0.00" waitingCount="0" stopTime="0.00" timeLoss="8.48" rerouteNo="1" devices="tripinfo_carIn53971:1 routing_carIn53971:1 emissions_carIn53971:1" vType="default_016" speedFactor="0.91" vaporized="">
        <emissions CO_abs="2554.536994" CO2_abs="133598.893761" HC_abs="14.724043" PMx_abs="2.217338" NOx_abs="54.156633" fuel_abs="57.429048" electricity_abs="0"/>
    </tripinfo>
    <tripinfo id="carIn22761:1" depart="57616.00" departLane="-306240162#1_0" departPos="5.10" departSpeed="0.00" departDelay="2.10" arrival="57715.00" arrivalLane="399835085#1_1" arrivalPos="212.23" arrivalSpeed="8.57" duration="99.00" routeLength="1093.26" waitingTime="5.00" waitingCount="1" stopTime="0.00" timeLoss="32.52" rerouteNo="1" devices="tripinfo_carIn22761:1 routing_carIn22761:1 emissions_carIn22761:1" vType="default_016" speedFactor="1.17" vaporized="">
        <emissions CO_abs="5824.615247" CO2_abs="352671.112536" HC_abs="34.993972" PMx_abs="7.098645" NOx_abs="148.286516" fuel_abs="151.597401" electricity_abs="0"/>
    </tripinfo>
    <tripinfo id="h3688c1:1" depart="57625.00" departLane="201201950#1_1" departPos="5.10" departSpeed="0.00" departDelay="0.00" arrival="57717.00" arrivalLane="32978638#0_1" arrivalPos="49.29" arrivalSpeed="13.42" duration="92.00" routeLength="1089.75" waitingTime="0.00" waitingCount="0" stopTime="0.00" timeLoss="10.77" rerouteNo="1" devices="tripinfo_h3688c1:1 routing_h3688c1:1 emissions_h3688c1:1" vType="default_016" speedFactor="0.98" vaporized="">
        <emissions CO_abs="3207.112206" CO2_abs="269342.406383" HC_abs="20.873463" PMx_abs="4.244926" NOx_abs="105.657239" fuel_abs="115.778881" electricity_abs="0"/>
    </tripinfo>
    <tripinfo id="h7800c1:5" depart="57696.00" departLane="-447569998#1_1" departPos="5.10" departSpeed="0.00" departDelay="0.00" arrival="57720.00" arrivalLane="-447569998#1_1" arrivalPos="180.76" arrivalSpeed="7.49" duration="24.00" routeLength="175.66" waitingTime="0.00" waitingCount="0" stopTime="0.00" timeLoss="3.51" rerouteNo="1" devices="tripinfo_h7800c1:5 routing_h7800c1:5 emissions_h7800c1:5" vType="default_016" speedFactor="1.05" vaporized="">
        <emissions CO_abs="1071.856927" CO2_abs="48563.185671" HC_abs="6.014640" PMx_abs="0.892430" NOx_abs="20.395241" fuel_abs="20.875429" electricity_abs="0"/>
    </tripinfo>
    <tripinfo id="h12244c1:3" depart="57612.00" departLane="315358244_1" departPos="5.10" departSpeed="0.00" departDelay="0.40" arrival="57727.00" arrivalLane="386687235_1" arrivalPos="80.84" arrivalSpeed="13.60" duration="115.00" routeLength="1186.14" waitingTime="9.00" waitingCount="1" stopTime="0.00" timeLoss="29.74" rerouteNo="1" devices="tripinfo_h12244c1:3 routing_h12244c1:3 emissions_h12244c1:3" vType="default_016" speedFactor="1.01" vaporized="">
        <emissions CO_abs="4560.756745" CO2_abs="270742.272725" HC_abs="27.124448" PMx_abs="4.760774" NOx_abs="110.108451" fuel_abs="116.380942" electricity_abs="0"/>
    </tripinfo>
    <tripinfo id="S5R_frequency1.2" depart="57612.00" departLane="315358250#0_1" departPos="12.10" departSpeed="0.00" departDelay="0.40" arrival="57736.00" arrivalLane="386687235_1" arrivalPos="80.84" arrivalSpeed="13.50" duration="124.00" routeLength="1115.62" waitingTime="16.00" waitingCount="2" stopTime="0.00" timeLoss="42.40" rerouteNo="1" devices="tripinfo_S5R_frequency1.2 routing_S5R_frequency1.2 emissions_S5R_frequency1.2" vType="bus" speedFactor="1.00" vaporized="">
        <emissions CO_abs="2292.272913" CO2_abs="1370949.852412" HC_abs="483.850728" PMx_abs="244.041168" NOx_abs="10818.790634" fuel_abs="584.669447" electricity_abs="0"/>
    </tripinfo>
    <tripinfo id="h3568c1:3" depart="57656.00" departLane="266565295#5_1" departPos="5.10" departSpeed="0.00" departDelay="0.80" arrival="57745.00" arrivalLane="-24634415_1" arrivalPos="62.03" arrivalSpeed="13.48" duration="89.00" routeLength="807.40" waitingTime="7.00" waitingCount="1" stopTime="0.00" timeLoss="24.21" rerouteNo="1" devices="tripinfo_h3568c1:3 routing_h3568c1:3 emissions_h3568c1:3" vType="default_016" speedFactor="1.00" vaporized="">
        <emissions CO_abs="4126.034492" CO2_abs="242013.662418" HC_abs="24.488225" PMx_abs="4.460187" NOx_abs="100.307571" fuel_abs="104.031366" electricity_abs="0"/>
    </tripinfo>
    <tripinfo id="h317c2:1" depart="57707.00" departLane="-32978638#0_1" departPos="5.10" departSpeed="0.00" departDelay="0.10" arrival="57745.00" arrivalLane="-266565295#5_1" arrivalPos="172.76" arrivalSpeed="10.93" duration="38.00" routeLength="370.53" waitingTime="0.00" waitingCount="0" stopTime="0.00" timeLoss="5.34" rerouteNo="1" devices="tripinfo_h317c2:1 routing_h317c2:1 emissions_h317c2:1" vType="default_016" speedFactor="0.86" vaporized="">
        <emissions CO_abs="1680.471611" CO2_abs="103210.515326" HC_abs="10.060556" PMx_abs="1.752741" NOx_abs="41.881226" fuel_abs="44.365959" electricity_abs="0"/>
    </tripinfo>
    <tripinfo id="h9563c2:5" depart="57631.00" departLane="315358244_1" departPos="5.10" departSpeed="0.00" departDelay="0.70" arrival="57749.00" arrivalLane="386687235_1" arrivalPos="80.84" arrivalSpeed="13.77" duration="118.00" routeLength="1186.14" waitingTime="21.00" waitingCount="1" stopTime="0.00" timeLoss="33.31" rerouteNo="1" devices="tripinfo_h9563c2:5 routing_h9563c2:5 emissions_h9563c2:5" vType="default_016" speedFactor="1.03" vaporized="">
        <emissions CO_abs="6089.196613" CO2_abs="304005.041687" HC_abs="34.782484" PMx_abs="5.303637" NOx_abs="122.576791" fuel_abs="130.680199" electricity_abs="0"/>
    </tripinfo>
    <tripinfo id="h7181c1:1" depart="57660.00" departLane="315358254#0_1" departPos="5.10" departSpeed="0.00" departDelay="0.10" arrival="57751.00" arrivalLane="306240162#0_0" arrivalPos="220.43" arrivalSpeed="15.82" duration="91.00" routeLength="932.35" waitingTime="17.00" waitingCount="2" stopTime="0.00" timeLoss="40.30" rerouteNo="1" devices="tripinfo_h7181c1:1 routing_h7181c1:1 emissions_h7181c1:1" vType="default_016" speedFactor="1.03" vaporized="">
        <emissions CO_abs="6280.369959" CO2_abs="328463.903417" HC_abs="36.456038" PMx_abs="6.770127" NOx_abs="139.239377" fuel_abs="141.192285" electricity_abs="0"/>
    </tripinfo>
    <tripinfo id="carIn121703:1" depart="57647.00" departLane="386687232#0_1" departPos="5.10" departSpeed="0.00" departDelay="0.30" arrival="57753.00" arrivalLane="-315358244_1" arrivalPos="33.95" arrivalSpeed="14.10" duration="106.00" routeLength="1157.39" waitingTime="8.00" waitingCount="1" stopTime="0.00" timeLoss="22.62" rerouteNo="1" devices="tripinfo_carIn121703:1 routing_carIn121703:1 emissions_carIn121703:1" vType="default_016" speedFactor="1.01" vaporized="">
        <emissions CO_abs="3614.558175" CO2_abs="257644.503800" HC_abs="22.451543" PMx_abs="4.166830" NOx_abs="101.674885" fuel_abs="110.750761" electricity_abs="0"/>
    </tripinfo>
    <tripinfo id="h3326c1:2" depart="57656.00" departLane="22716069#0_1" departPos="5.10" departSpeed="0.00" departDelay="0.00" arrival="57763.00" arrivalLane="24634517#13_1" arrivalPos="111.62" arrivalSpeed="14.55" duration="107.00" routeLength="1312.81" waitingTime="0.00" waitingCount="0" stopTime="0.00" timeLoss="14.81" rerouteNo="1" devices="tripinfo_h3326c1:2 routing_h3326c1:2 emissions_h3326c1:2" vType="default_016" speedFactor="1.05" vaporized="">
        <emissions CO_abs="4358.474993" CO2_abs="329103.806176" HC_abs="27.507962" PMx_abs="5.758511" NOx_abs="133.061545" fuel_abs="141.467231" electricity_abs="0"/>
    </tripinfo>
    <tripinfo id="carIn27009:1" depart="57673.00" departLane="-447569998#1_1" departPos="5.10" departSpeed="0.00" departDelay="0.50" arrival="57763.00" arrivalLane="-26677539_1" arrivalPos="152.75" arrivalSpeed="9.37" duration="90.00" routeLength="699.63" waitingTime="5.00" waitingCount="1" stopTime="0.00" timeLoss="20.37" rerouteNo="1" devices="tripinfo_carIn27009:1 routing_carIn27009:1 emissions_carIn27009:1" vType="default_015" speedFactor="1.20" vaporized="">
        <emissions CO_abs="3636.375017" CO2_abs="190755.278989" HC_abs="20.991610" PMx_abs="3.281328" NOx_abs="78.335084" fuel_abs="81.998176" electricity_abs="0"/>
    </tripinfo>
    <tripinfo id="h4538c1:1" depart="57701.00" departLane="-10427692#1_1" departPos="5.10" departSpeed="0.00" departDelay="0.00" arrival="57766.00" arrivalLane="-128361102#1_1" arrivalPos="274.68" arrivalSpeed="12.81" duration="65.00" routeLength="440.74" waitingTime="23.00" waitingCount="1" stopTime="0.00" timeLoss="33.24" rerouteNo="1" devices="tripinfo_h4538c1:1 routing_h4538c1:1 emissions_h4538c1:1" vType="default_016" speedFactor="1.01" vaporized="">
        <emissions CO_abs="4819.720154" CO2_abs="164887.846222" HC_abs="25.811012" PMx_abs="3.226384" NOx_abs="69.291361" fuel_abs="70.879722" electricity_abs="0"/>
    </tripinfo>
    <tripinfo id="carIn30817:1" depart="57681.00" departLane="315358244_1" departPos="5.10" departSpeed="0.00" departDelay="0.20" arrival="57770.00" arrivalLane="447569997#1_1" arrivalPos="180.93" arrivalSpeed="6.94" duration="89.00" routeLength="718.04" waitingTime="10.00" waitingCount="1" stopTime="0.00" timeLoss="22.54" rerouteNo="1" devices="tripinfo_carIn30817:1 routing_carIn30817:1 emissions_carIn30817:1" vType="default_016" speedFactor="0.93" vaporized="">
        <emissions CO_abs="3911.028388" CO2_abs="190943.959712" HC_abs="22.253628" PMx_abs="3.317935" NOx_abs="78.042029" fuel_abs="82.079525" electricity_abs="0"/>
    </tripinfo>
    <tripinfo id="h330c1:1" depart="57736.00" departLane="-32978638#0_1" departPos="5.10" departSpeed="0.00" departDelay="0.20" arrival="57785.00" arrivalLane="-266565295#5_1" arrivalPos="172.76" arrivalSpeed="13.37" duration="49.00" routeLength="370.53" waitingTime="11.00" waitingCount="1" stopTime="0.00" timeLoss="22.17" rerouteNo="1" devices="tripinfo_h330c1:1 routing_h330c1:1 emissions_h330c1:1" vType="default_016" speedFactor="1.03" vaporized="">
        <emissions CO_abs="3066.949487" CO2_abs="131904.704499" HC_abs="17.080121" PMx_abs="2.569444" NOx_abs="55.574150" fuel_abs="56.700703" electricity_abs="0"/>
    </tripinfo>
    <tripinfo id="carIn80064:1" depart="57603.00" departLane="128361109#1_1" departPos="5.10" departSpeed="0.00" departDelay="0.40" arrival="57787.00" arrivalLane="-315358254#1_1" arrivalPos="137.16" arrivalSpeed="13.45" duration="184.00" routeLength="1587.97" waitingTime="65.00" waitingCount="3" stopTime="0.00" timeLoss="96.54" rerouteNo="1" devices="tripinfo_carIn80064:1 routing_carIn80064:1 emissions_carIn80064:1" vType="default_016" speedFactor="1.01" vaporized="">
        <emissions CO_abs="15843.796900" CO2_abs="604666.724548" HC_abs="86.559022" PMx_abs="12.637753" NOx_abs="257.029643" fuel_abs="259.923263" electricity_abs="0"/>
    </tripinfo>
    <tripinfo id="carIn129809:1" depart="57729.00" departLane="-447569998#1_1" departPos="5.10" departSpeed="0.00" departDelay="1.00" arrival="57793.00" arrivalLane="-315358244_1" arrivalPos="33.95" arrivalSpeed="14.37" duration="64.00" routeLength="706.49" waitingTime="0.00" waitingCount="0" stopTime="0.00" timeLoss="9.28" rerouteNo="1" devices="tripinfo_carIn129809:1 routing_carIn129809:1 emissions_carIn129809:1" vType="default_015" speedFactor="1.11" vaporized="">
        <emissions CO_abs="2428.221260" CO2_abs="152973.374570" HC_abs="14.610426" PMx_abs="2.669810" NOx_abs="62.110172" fuel_abs="65.756841" electricity_abs="0"/>
    </tripinfo>
    <tripinfo id="h3154c1:1" depart="57658.00" departLane="24634507_1" departPos="5.10" departSpeed="0.00" departDelay="0.00" arrival="57798.00" arrivalLane="-266565295#5_1" arrivalPos="172.76" arrivalSpeed="13.99" duration="140.00" routeLength="1206.22" waitingTime="35.00" waitingCount="2" stopTime="0.00" timeLoss="57.39" rerouteNo="1" devices="tripinfo_h3154c1:1 routing_h3154c1:1 emissions_h3154c1:1" vType="default_016" speedFactor="1.08" vaporized="">
        <emissions CO_abs="9451.793446" CO2_abs="403904.446835" HC_abs="52.490163" PMx_abs="7.764016" NOx_abs="168.537341" fuel_abs="173.623111" electricity_abs="0"/>
    </tripinfo>
    <tripinfo id="carIn12365:1" depart="57713.00" departLane="315358244_1" departPos="5.10" departSpeed="0.00" departDelay="0.50" arrival="57801.00" arrivalLane="447569997#1_1" arrivalPos="180.93" arrivalSpeed="7.99" duration="88.00" routeLength="718.04" waitingTime="18.00" waitingCount="1" stopTime="0.00" timeLoss="30.80" rerouteNo="1" devices="tripinfo_carIn12365:1 routing_carIn12365:1 emissions_carIn12365:1" vType="default_016" speedFactor="1.08" vaporized="">
        <emissions CO_abs="4855.639973" CO2_abs="207410.144560" HC_abs="26.920640" PMx_abs="3.700463" NOx_abs="84.804792" fuel_abs="89.158138" electricity_abs="0"/>
    </tripinfo>
    <tripinfo id="carIn50326:1" depart="57651.00" departLane="128361102#0_1" departPos="5.10" departSpeed="0.00" departDelay="0.30" arrival="57803.00" arrivalLane="18809673#0_1" arrivalPos="473.56" arrivalSpeed="13.29" duration="152.00" routeLength="1591.07" waitingTime="0.00" waitingCount="0" stopTime="0.00" timeLoss="16.14" rerouteNo="1" devices="tripinfo_carIn50326:1 routing_carIn50326:1 emissions_carIn50326:1" vType="default_016" speedFactor="0.96" vaporized="">
        <emissions CO_abs="4865.738074" CO2_abs="340337.161180" HC_abs="30.062406" PMx_abs="5.422177" NOx_abs="134.970346" fuel_abs="146.297013" electricity_abs="0"/>
    </tripinfo>
    <tripinfo id="carIn118591:1" depart="57689.00" departLane="315358244_1" departPos="5.10" departSpeed="0.00" departDelay="0.20" arrival="57806.00" arrivalLane="386687235_1" arrivalPos="80.84" arrivalSpeed="14.79" duration="117.00" routeLength="1186.14" waitingTime="16.00" waitingCount="2" stopTime="0.00" timeLoss="36.46" rerouteNo="1" devices="tripinfo_carIn118591:1 routing_carIn118591:1 emissions_carIn118591:1" vType="default_016" speedFactor="1.08" vaporized="">
        <emissions CO_abs="5032.896320" CO2_abs="297091.485734" HC_abs="29.833858" PMx_abs="5.302970" NOx_abs="120.939949" fuel_abs="127.707312" electricity_abs="0"/>
    </tripinfo>
    <tripinfo id="h5979c1:5" depart="57669.00" departLane="399835085#1_1" departPos="5.10" departSpeed="0.00" departDelay="0.00" arrival="57807.00" arrivalLane="-315358254#1_1" arrivalPos="137.16" arrivalSpeed="13.64" duration="138.00" routeLength="659.33" waitingTime="45.00" waitingCount="2" stopTime="0.00" timeLoss="68.64" rerouteNo="1" devices="tripinfo_h5979c1:5 routing_h5979c1:5 emissions_h5979c1:5" vType="default_016" speedFactor="1.06" vaporized="">
        <emissions CO_abs="10034.862804" CO2_abs="282939.113256" HC_abs="52.281209" PMx_abs="5.640588" NOx_abs="120.899723" fuel_abs="121.627193" electricity_abs="0"/>
    </tripinfo>
    <tripinfo id="carIn107282:1" depart="57749.00" departLane="-447569998#1_1" departPos="5.10" departSpeed="0.00" departDelay="0.00" arrival="57808.00" arrivalLane="315358242#0_1" arrivalPos="165.37" arrivalSpeed="11.91" duration="59.00" routeLength="448.50" waitingTime="4.00" waitingCount="1" stopTime="0.00" timeLoss="12.07" rerouteNo="1" devices="tripinfo_carIn107282:1 routing_carIn107282:1 emissions_carIn107282:1" vType="default_016" speedFactor="0.89" vaporized="">
        <emissions CO_abs="2457.882182" CO2_abs="122426.439532" HC_abs="14.016800" PMx_abs="2.001929" NOx_abs="49.380472" fuel_abs="52.626590" electricity_abs="0"/>
    </tripinfo>
    <tripinfo id="h645c1:1" depart="57622.00" departLane="266565295#5_1" departPos="5.10" departSpeed="0.00" departDelay="0.40" arrival="57813.00" arrivalLane="-315358244_1" arrivalPos="33.95" arrivalSpeed="13.53" duration="191.00" routeLength="1910.83" waitingTime="15.00" waitingCount="5" stopTime="0.00" timeLoss="53.55" rerouteNo="1" devices="tripinfo_h645c1:1 routing_h645c1:1 emissions_h645c1:1" vType="default_016" speedFactor="1.01" vaporized="">
        <emissions CO_abs="7298.946641" CO2_abs="468251.076191" HC_abs="44.213934" PMx_abs="8.284563" NOx_abs="190.756938" fuel_abs="201.281245" electricity_abs="0"/>
    </tripinfo>
    <tripinfo id="carIn86816:1" depart="57617.00" departLane="128361102#0_1" departPos="5.10" departSpeed="0.00" departDelay="0.80" arrival="57815.00" arrivalLane="201956811#0_1" arrivalPos="40.40" arrivalSpeed="14.81" duration="198.00" routeLength="2067.33" waitingTime="26.00" waitingCount="3" stopTime="0.00" timeLoss="56.47" rerouteNo="1" devices="tripinfo_carIn86816:1 routing_carIn86816:1 emissions_carIn86816:1" vType="default_016" speedFactor="1.07" vaporized="">
        <emissions CO_abs="8856.682482" CO2_abs="518593.681651" HC_abs="52.527528" PMx_abs="9.343963" NOx_abs="211.315942" fuel_abs="222.921908" electricity_abs="0"/>
    </tripinfo>
    <tripinfo id="carIn102915:1" depart="57643.00" departLane="128361102#0_1" departPos="5.10" departSpeed="0.00" departDelay="0.40" arrival="57817.00" arrivalLane="201956811#0_1" arrivalPos="40.40" arrivalSpeed="12.43" duration="174.00" routeLength="2067.33" waitingTime="0.00" waitingCount="0" stopTime="0.00" timeLoss="19.41" rerouteNo="1" devices="tripinfo_carIn102915:1 routing_carIn102915:1 emissions_carIn102915:1" vType="default_016" speedFactor="0.98" vaporized="">
        <emissions CO_abs="4763.690606" CO2_abs="409275.558228" HC_abs="31.197838" PMx_abs="6.337449" NOx_abs="159.711441" fuel_abs="175.930300" electricity_abs="0"/>
    </tripinfo>
    <tripinfo id="carIn88905:1" depart="57688.00" departLane="128361109#1_1" departPos="5.10" departSpeed="0.00" departDelay="5.80" arrival="57820.00" arrivalLane="386687235_1" arrivalPos="80.84" arrivalSpeed="17.49" duration="132.00" routeLength="2088.57" waitingTime="0.00" waitingCount="0" stopTime="0.00" timeLoss="18.33" rerouteNo="1" devices="tripinfo_carIn88905:1 routing_carIn88905:1 emissions_carIn88905:1" vType="default_016" speedFactor="1.33" vaporized="">
        <emissions CO_abs="4488.015411" CO2_abs="408690.781764" HC_abs="29.915817" PMx_abs="7.316787" NOx_abs="162.257265" fuel_abs="175.677515" electricity_abs="0"/>
    </tripinfo>
    <tripinfo id="carIn12858:1" depart="57661.00" departLane="128361109#1_1" departPos="5.10" departSpeed="0.00" departDelay="0.90" arrival="57821.00" arrivalLane="399835085#1_1" arrivalPos="212.23" arrivalSpeed="7.95" duration="160.00" routeLength="1738.12" waitingTime="21.00" waitingCount="2" stopTime="0.00" timeLoss="52.69" rerouteNo="1" devices="tripinfo_carIn12858:1 routing_carIn12858:1 emissions_carIn12858:1" vType="default_016" speedFactor="1.08" vaporized="">
        <emissions CO_abs="9396.373644" CO2_abs="525257.828075" HC_abs="55.308323" PMx_abs="10.469024" NOx_abs="218.904979" fuel_abs="225.785538" electricity_abs="0"/>
    </tripinfo>
    <tripinfo id="carIn82278:1" depart="57702.00" departLane="-306240162#1_0" departPos="5.10" departSpeed="0.00" departDelay="0.70" arrival="57824.00" arrivalLane="399835085#1_1" arrivalPos="212.23" arrivalSpeed="7.97" duration="122.00" routeLength="1093.26" waitingTime="21.00" waitingCount="2" stopTime="0.00" timeLoss="50.71" rerouteNo="1" devices="tripinfo_carIn82278:1 routing_carIn82278:1 emissions_carIn82278:1" vType="default_016" speedFactor="1.10" vaporized="">
        <emissions CO_abs="8371.516037" CO2_abs="409067.410470" HC_abs="47.888226" PMx_abs="8.257230" NOx_abs="172.874989" fuel_abs="175.840895" electricity_abs="0"/>
    </tripinfo>
    <tripinfo id="carIn7949:1" depart="57676.00" departLane="128361109#1_1" departPos="5.10" departSpeed="0.00" departDelay="2.10" arrival="57827.00" arrivalLane="386687235_1" arrivalPos="80.84" arrivalSpeed="14.34" duration="151.00" routeLength="2088.57" waitingTime="0.00" waitingCount="0" stopTime="0.00" timeLoss="12.75" rerouteNo="1" devices="tripinfo_carIn7949:1 routing_carIn7949:1 emissions_carIn7949:1" vType="default_016" speedFactor="1.09" vaporized="">
        <emissions CO_abs="3636.209870" CO2_abs="384931.316618" HC_abs="25.369406" PMx_abs="5.908336" NOx_abs="147.605063" fuel_abs="165.465297" electricity_abs="0"/>
    </tripinfo>
    <tripinfo id="h2831c1:1" depart="57600.00" departLane="201089423#0_1" departPos="5.10" departSpeed="0.00" departDelay="0.00" arrival="57831.00" arrivalLane="-315358244_1" arrivalPos="33.95" arrivalSpeed="15.50" duration="231.00" routeLength="2672.18" waitingTime="27.00" waitingCount="3" stopTime="0.00" timeLoss="61.46" rerouteNo="1" devices="tripinfo_h2831c1:1 routing_h2831c1:1 emissions_h2831c1:1" vType="default_016" speedFactor="1.15" vaporized="">
        <emissions CO_abs="9841.155596" CO2_abs="611621.617168" HC_abs="58.716100" PMx_abs="10.724777" NOx_abs="244.996004" fuel_abs="262.910843" electricity_abs="0"/>
    </tripinfo>
    <tripinfo id="randUni33724:1" depart="57646.00" departLane="128361102#0_1" departPos="5.10" departSpeed="0.00" departDelay="1.20" arrival="57832.00" arrivalLane="201956811#0_1" arrivalPos="40.40" arrivalSpeed="13.17" duration="186.00" routeLength="2067.33" waitingTime="11.00" waitingCount="1" stopTime="0.00" timeLoss="39.49" rerouteNo="1" devices="tripinfo_randUni33724:1 routing_randUni33724:1 emissions_randUni33724:1" vType="random_016" speedFactor="1.04" vaporized="">
        <emissions CO_abs="6902.765325" CO2_abs="476533.772370" HC_abs="42.596228" PMx_abs="8.146429" NOx_abs="191.554239" fuel_abs="204.841691" electricity_abs="0"/>
    </tripinfo>
    <tripinfo id="randUni15030:1" depart="57735.00" departLane="386687232#0_1" departPos="5.10" departSpeed="0.00" departDelay="0.10" arrival="57837.00" arrivalLane="26677539_1" arrivalPos="151.98" arrivalSpeed="7.34" duration="102.00" routeLength="919.89" waitingTime="6.00" waitingCount="1" stopTime="0.00" timeLoss="21.12" rerouteNo="1" devices="tripinfo_randUni15030:1 routing_randUni15030:1 emissions_randUni15030:1" vType="random_016" speedFactor="1.03" vaporized="">
        <emissions CO_abs="4504.601175" CO2_abs="243661.495409" HC_abs="26.164624" PMx_abs="4.202862" NOx_abs="99.182710" fuel_abs="104.740429" electricity_abs="0"/>
    </tripinfo>
    <tripinfo id="h8343c1:5" depart="57679.00" departLane="315358254#0_1" departPos="5.10" departSpeed="0.00" departDelay="0.60" arrival="57839.00" arrivalLane="-24634510#5_1" arrivalPos="236.88" arrivalSpeed="13.99" duration="160.00" routeLength="2056.84" waitingTime="11.00" waitingCount="1" stopTime="0.00" timeLoss="36.95" rerouteNo="1" devices="tripinfo_h8343c1:5 routing_h8343c1:5 emissions_h8343c1:5" vType="default_016" speedFactor="1.02" vaporized="">
        <emissions CO_abs="7531.909096" CO2_abs="533804.951398" HC_abs="46.985366" PMx_abs="9.933217" NOx_abs="216.274138" fuel_abs="229.459101" electricity_abs="0"/>
    </tripinfo>
    <tripinfo id="h3864c1:3" depart="57678.00" departLane="24693977#1_1" departPos="5.10" departSpeed="0.00" departDelay="0.00" arrival="57840.00" arrivalLane="201956820_1" arrivalPos="48.33" arrivalSpeed="14.07" duration="162.00" routeLength="1574.85" waitingTime="17.00" waitingCount="1" stopTime="0.00" timeLoss="41.21" rerouteNo="1" devices="tripinfo_h3864c1:3 routing_h3864c1:3 emissions_h3864c1:3" vType="default_016" speedFactor="1.07" vaporized="">
        <emissions CO_abs="7864.762719" CO2_abs="441204.520157" HC_abs="46.047720" PMx_abs="7.757331" NOx_abs="179.331859" fuel_abs="189.655996" electricity_abs="0"/>
    </tripinfo>
    <tripinfo id="carIn73855:1" depart="57743.00" departLane="386687232#0_1" departPos="5.10" departSpeed="0.00" departDelay="0.50" arrival="57840.00" arrivalLane="-315358244_1" arrivalPos="33.95" arrivalSpeed="13.26" duration="97.00" routeLength="1157.39" waitingTime="0.00" waitingCount="0" stopTime="0.00" timeLoss="11.90" rerouteNo="1" devices="tripinfo_carIn73855:1 routing_carIn73855:1 emissions_carIn73855:1" vType="default_016" speedFactor="0.99" vaporized="">
        <emissions CO_abs="2943.171136" CO2_abs="223965.372983" HC_abs="18.640989" PMx_abs="3.706907" NOx_abs="89.127060" fuel_abs="96.273172" electricity_abs="0"/>
    </tripinfo>
    <tripinfo id="carIn8642:1" depart="57774.00" departLane="-447569998#1_1" departPos="5.10" departSpeed="0.00" departDelay="0.90" arrival="57842.00" arrivalLane="-315358244_1" arrivalPos="33.95" arrivalSpeed="14.38" duration="68.00" routeLength="706.49" waitingTime="3.00" waitingCount="1" stopTime="0.00" timeLoss="12.96" rerouteNo="1" devices="tripinfo_carIn8642:1 routing_carIn8642:1 emissions_carIn8642:1" vType="default_016" speedFactor="1.09" vaporized="">
        <emissions CO_abs="2402.780917" CO2_abs="154337.068686" HC_abs="14.494768" PMx_abs="2.624184" NOx_abs="61.997986" fuel_abs="66.343120" electricity_abs="0"/>
    </tripinfo>
    <tripinfo id="carIn28951:1" depart="57606.00" departLane="10425609#0_1" departPos="5.10" departSpeed="0.00" departDelay="0.20" arrival="57845.00" arrivalLane="-128361102#1_1" arrivalPos="274.68" arrivalSpeed="13.99" duration="239.00" routeLength="2113.04" waitingTime="61.00" waitingCount="3" stopTime="0.00" timeLoss="90.75" rerouteNo="1" devices="tripinfo_carIn28951:1 routing_carIn28951:1 emissions_carIn28951:1" vType="default_016" speedFactor="1.05" vaporized="">
        <emissions CO_abs="13619.979975" CO2_abs="591400.129495" HC_abs="75.804621" PMx_abs="11.029904" NOx_abs="243.902455" fuel_abs="254.220752" electricity_abs="0"/>
    </tripinfo>
    <tripinfo id="h11737c1:1" depart="57665.00" departLane="272042143_1" departPos="5.10" departSpeed="0.00" departDelay="1.50" arrival="57846.00" arrivalLane="-315358254#1_1" arrivalPos="137.16" arrivalSpeed="14.27" duration="181.00" routeLength="1596.88" waitingTime="54.00" waitingCount="2" stopTime="0.00" timeLoss="74.90" rerouteNo="1" devices="tripinfo_h11737c1:1 routing_h11737c1:1 emissions_h11737c1:1" vType="default_016" speedFactor="1.10" vaporized="">
        <emissions CO_abs="11409.200470" CO2_abs="458084.684482" HC_abs="62.563572" PMx_abs="8.690359" NOx_abs="189.264630" fuel_abs="196.913997" electricity_abs="0"/>
    </tripinfo>
    <tripinfo id="h19804c1:3" depart="57616.00" departLane="124812856#0_1" departPos="5.10" departSpeed="0.00" departDelay="0.50" arrival="57847.00" arrivalLane="-128361102#1_1" arrivalPos="274.68" arrivalSpeed="13.82" duration="231.00" routeLength="2250.49" waitingTime="34.00" waitingCount="3" stopTime="0.00" timeLoss="69.72" rerouteNo="1" devices="tripinfo_h19804c1:3 routing_h19804c1:3 emissions_h19804c1:3" vType="default_016" speedFactor="1.02" vaporized="">
        <emissions CO_abs="10674.463165" CO2_abs="572895.747247" HC_abs="61.998161" PMx_abs="10.134686" NOx_abs="232.829043" fuel_abs="246.265097" electricity_abs="0"/>
    </tripinfo>
    <tripinfo id="carIn126288:1" depart="57674.00" departLane="272042143_1" departPos="5.10" departSpeed="0.00" departDelay="0.00" arrival="57848.00" arrivalLane="-315358254#1_1" arrivalPos="137.16" arrivalSpeed="16.03" duration="174.00" routeLength="1596.88" waitingTime="48.00" waitingCount="2" stopTime="0.00" timeLoss="74.81" rerouteNo="1" devices="tripinfo_carIn126288:1 routing_carIn126288:1 emissions_carIn126288:1" vType="default_016" speedFactor="1.18" vaporized="">
        <emissions CO_abs="11443.749459" CO2_abs="500329.887757" HC_abs="63.757620" PMx_abs="9.675177" NOx_abs="207.821843" fuel_abs="215.072534" electricity_abs="0"/>
    </tripinfo>