<?xml version="1.0" encoding="UTF-8"?>

<!-- generated on 2021-10-26 13:13:17 by Eclipse SUMO sumo Version 1.10.0
<configuration xmlns:xsi="http://www.w3.org/2001/XMLSchema-instance" xsi:noNamespaceSchemaLocation="http://sumo.dlr.de/xsd/sumoConfiguration.xsd">

    <input>
        <net-file value="/Users/behradkoohy/sumo-scratchpad/RESCO/environments/ingolstadt21/ingolstadt21.net.xml"/>
        <route-files value="/Users/behradkoohy/sumo-scratchpad/RESCO/environments/ingolstadt21/ingolstadt21.rou.xml"/>
    </input>

    <output>
        <tripinfo-output value="/Users/behradkoohy/sumo-scratchpad/RESCO/logs/IDQN-tr0-ingolstadt21-21-drq_norm-wait_norm/tripinfo_87.xml"/>
        <tripinfo-output.write-unfinished value="true"/>
    </output>

    <time>
        <begin value="57600"/>
        <end value="61200"/>
    </time>

    <processing>
        <time-to-teleport value="-1"/>
    </processing>

    <report>
        <no-warnings value="true"/>
        <no-step-log value="true"/>
    </report>

    <emissions>
        <device.emissions.probability value="1"/>
    </emissions>

    <traci_server>
        <remote-port value="58763"/>
    </traci_server>

    <random_number>
        <random value="true"/>
    </random_number>

</configuration>
-->

<tripinfos xmlns:xsi="http://www.w3.org/2001/XMLSchema-instance" xsi:noNamespaceSchemaLocation="http://sumo.dlr.de/xsd/tripinfo_file.xsd">
    <tripinfo id="h15454c2:3" depart="57612.00" departLane="24608844_1" departPos="5.10" departSpeed="0.00" departDelay="0.50" arrival="57647.00" arrivalLane="32978638#0_1" arrivalPos="49.29" arrivalSpeed="16.92" duration="35.00" routeLength="354.79" waitingTime="0.00" waitingCount="0" stopTime="0.00" timeLoss="7.51" rerouteNo="1" devices="tripinfo_h15454c2:3 routing_h15454c2:3 emissions_h15454c2:3" vType="default_016" speedFactor="1.23" vaporized="">
        <emissions CO_abs="2186.839725" CO2_abs="132622.556813" HC_abs="13.095120" PMx_abs="2.467494" NOx_abs="55.090535" fuel_abs="57.008694" electricity_abs="0"/>
    </tripinfo>
    <tripinfo id="carIn60260:1" depart="57606.00" departLane="315358254#0_1" departPos="5.10" departSpeed="0.00" departDelay="0.90" arrival="57691.00" arrivalLane="399835085#1_1" arrivalPos="212.23" arrivalSpeed="6.50" duration="85.00" routeLength="430.98" waitingTime="20.00" waitingCount="1" stopTime="0.00" timeLoss="30.81" rerouteNo="1" devices="tripinfo_carIn60260:1 routing_carIn60260:1 emissions_carIn60260:1" vType="default_016" speedFactor="0.85" vaporized="">
        <emissions CO_abs="5552.652246" CO2_abs="165614.580264" HC_abs="29.118107" PMx_abs="3.162537" NOx_abs="70.183386" fuel_abs="71.192736" electricity_abs="0"/>
    </tripinfo>
    <tripinfo id="carIn53971:1" depart="57640.00" departLane="272042143_1" departPos="5.10" departSpeed="0.00" departDelay="0.80" arrival="57696.00" arrivalLane="24634414#1_1" arrivalPos="162.19" arrivalSpeed="7.43" duration="56.00" routeLength="493.04" waitingTime="0.00" waitingCount="0" stopTime="0.00" timeLoss="7.34" rerouteNo="1" devices="tripinfo_carIn53971:1 routing_carIn53971:1 emissions_carIn53971:1" vType="default_016" speedFactor="0.94" vaporized="">
        <emissions CO_abs="2234.620669" CO2_abs="124997.030713" HC_abs="13.077281" PMx_abs="2.098493" NOx_abs="50.707820" fuel_abs="53.731279" electricity_abs="0"/>
    </tripinfo>
    <tripinfo id="carIn80064:1" depart="57603.00" departLane="128361109#1_1" departPos="5.10" departSpeed="0.00" departDelay="0.40" arrival="57711.00" arrivalLane="-315358254#1_1" arrivalPos="137.16" arrivalSpeed="14.94" duration="108.00" routeLength="1587.97" waitingTime="4.00" waitingCount="1" stopTime="0.00" timeLoss="29.05" rerouteNo="1" devices="tripinfo_carIn80064:1 routing_carIn80064:1 emissions_carIn80064:1" vType="default_016" speedFactor="1.14" vaporized="">
        <emissions CO_abs="6896.418111" CO2_abs="470596.740253" HC_abs="42.635907" PMx_abs="9.523174" NOx_abs="195.632284" fuel_abs="202.287720" electricity_abs="0"/>
    </tripinfo>
    <tripinfo id="h3688c1:1" depart="57625.00" departLane="201201950#1_1" departPos="5.10" departSpeed="0.00" departDelay="0.00" arrival="57713.00" arrivalLane="32978638#0_1" arrivalPos="49.29" arrivalSpeed="14.21" duration="88.00" routeLength="1089.75" waitingTime="0.00" waitingCount="0" stopTime="0.00" timeLoss="10.73" rerouteNo="1" devices="tripinfo_h3688c1:1 routing_h3688c1:1 emissions_h3688c1:1" vType="default_016" speedFactor="1.03" vaporized="">
        <emissions CO_abs="3004.264740" CO2_abs="237683.362778" HC_abs="19.177442" PMx_abs="4.004128" NOx_abs="94.935652" fuel_abs="102.169737" electricity_abs="0"/>
    </tripinfo>
    <tripinfo id="carIn22761:1" depart="57616.00" departLane="-306240162#1_0" departPos="5.10" departSpeed="0.00" departDelay="2.10" arrival="57715.00" arrivalLane="399835085#1_1" arrivalPos="212.23" arrivalSpeed="7.35" duration="99.00" routeLength="1093.26" waitingTime="0.00" waitingCount="0" stopTime="0.00" timeLoss="12.00" rerouteNo="1" devices="tripinfo_carIn22761:1 routing_carIn22761:1 emissions_carIn22761:1" vType="default_016" speedFactor="0.89" vaporized="">
        <emissions CO_abs="3974.576852" CO2_abs="256531.080131" HC_abs="23.868294" PMx_abs="4.430464" NOx_abs="102.741287" fuel_abs="110.272024" electricity_abs="0"/>
    </tripinfo>
    <tripinfo id="h7800c1:5" depart="57696.00" departLane="-447569998#1_1" departPos="5.10" departSpeed="0.00" departDelay="0.00" arrival="57723.00" arrivalLane="-447569998#1_1" arrivalPos="180.76" arrivalSpeed="6.35" duration="27.00" routeLength="175.66" waitingTime="0.00" waitingCount="0" stopTime="0.00" timeLoss="3.42" rerouteNo="1" devices="tripinfo_h7800c1:5 routing_h7800c1:5 emissions_h7800c1:5" vType="default_016" speedFactor="0.90" vaporized="">
        <emissions CO_abs="1077.659361" CO2_abs="42180.813943" HC_abs="5.870777" PMx_abs="0.691745" NOx_abs="17.220915" fuel_abs="18.132143" electricity_abs="0"/>
    </tripinfo>
    <tripinfo id="h12244c1:3" depart="57612.00" departLane="315358244_1" departPos="5.10" departSpeed="0.00" departDelay="0.40" arrival="57737.00" arrivalLane="386687235_1" arrivalPos="80.84" arrivalSpeed="13.58" duration="125.00" routeLength="1186.14" waitingTime="27.00" waitingCount="1" stopTime="0.00" timeLoss="40.50" rerouteNo="1" devices="tripinfo_h12244c1:3 routing_h12244c1:3 emissions_h12244c1:3" vType="default_016" speedFactor="1.02" vaporized="">
        <emissions CO_abs="6356.026347" CO2_abs="293468.612605" HC_abs="35.717989" PMx_abs="5.127879" NOx_abs="118.445346" fuel_abs="126.151375" electricity_abs="0"/>
    </tripinfo>
    <tripinfo id="h7181c1:1" depart="57660.00" departLane="315358254#0_1" departPos="5.10" departSpeed="0.00" departDelay="0.10" arrival="57740.00" arrivalLane="306240162#0_0" arrivalPos="220.43" arrivalSpeed="18.43" duration="80.00" routeLength="932.35" waitingTime="9.00" waitingCount="2" stopTime="0.00" timeLoss="35.03" rerouteNo="1" devices="tripinfo_h7181c1:1 routing_h7181c1:1 emissions_h7181c1:1" vType="default_016" speedFactor="1.16" vaporized="">
        <emissions CO_abs="6895.257653" CO2_abs="379834.783903" HC_abs="40.579774" PMx_abs="7.998680" NOx_abs="161.395079" fuel_abs="163.273892" electricity_abs="0"/>
    </tripinfo>
    <tripinfo id="h3568c1:3" depart="57656.00" departLane="266565295#5_1" departPos="5.10" departSpeed="0.00" departDelay="0.80" arrival="57746.00" arrivalLane="-24634415_1" arrivalPos="62.03" arrivalSpeed="13.64" duration="90.00" routeLength="807.40" waitingTime="9.00" waitingCount="1" stopTime="0.00" timeLoss="27.06" rerouteNo="1" devices="tripinfo_h3568c1:3 routing_h3568c1:3 emissions_h3568c1:3" vType="default_016" speedFactor="1.03" vaporized="">
        <emissions CO_abs="4806.698872" CO2_abs="254809.049246" HC_abs="27.849339" PMx_abs="4.632235" NOx_abs="105.162742" fuel_abs="109.532052" electricity_abs="0"/>
    </tripinfo>
    <tripinfo id="S5R_frequency1.2" depart="57615.00" departLane="315358250#0_1" departPos="12.10" departSpeed="0.00" departDelay="3.40" arrival="57751.00" arrivalLane="386687235_1" arrivalPos="80.84" arrivalSpeed="12.88" duration="136.00" routeLength="1115.62" waitingTime="26.00" waitingCount="1" stopTime="0.00" timeLoss="54.68" rerouteNo="1" devices="tripinfo_S5R_frequency1.2 routing_S5R_frequency1.2 emissions_S5R_frequency1.2" vType="bus" speedFactor="1.00" vaporized="">
        <emissions CO_abs="2510.766287" CO2_abs="1395852.028683" HC_abs="537.214446" PMx_abs="264.969964" NOx_abs="11314.896226" fuel_abs="595.253055" electricity_abs="0"/>
    </tripinfo>
    <tripinfo id="carIn30817:1" depart="57681.00" departLane="315358244_1" departPos="5.10" departSpeed="0.00" departDelay="0.20" arrival="57751.00" arrivalLane="447569997#1_1" arrivalPos="180.93" arrivalSpeed="8.35" duration="70.00" routeLength="718.04" waitingTime="0.00" waitingCount="0" stopTime="0.00" timeLoss="8.29" rerouteNo="1" devices="tripinfo_carIn30817:1 routing_carIn30817:1 emissions_carIn30817:1" vType="default_016" speedFactor="1.01" vaporized="">
        <emissions CO_abs="2368.441147" CO2_abs="154647.952455" HC_abs="14.327710" PMx_abs="2.427349" NOx_abs="61.125550" fuel_abs="66.477004" electricity_abs="0"/>
    </tripinfo>
    <tripinfo id="h4538c1:1" depart="57701.00" departLane="-10427692#1_1" departPos="5.10" departSpeed="0.00" departDelay="0.00" arrival="57754.00" arrivalLane="-128361102#1_1" arrivalPos="274.68" arrivalSpeed="14.30" duration="53.00" routeLength="440.74" waitingTime="12.00" waitingCount="1" stopTime="0.00" timeLoss="23.34" rerouteNo="1" devices="tripinfo_h4538c1:1 routing_h4538c1:1 emissions_h4538c1:1" vType="default_016" speedFactor="1.07" vaporized="">
        <emissions CO_abs="2977.780837" CO2_abs="136925.071084" HC_abs="16.744979" PMx_abs="2.478824" NOx_abs="56.014538" fuel_abs="58.858918" electricity_abs="0"/>
    </tripinfo>
    <tripinfo id="h317c2:1" depart="57707.00" departLane="-32978638#0_1" departPos="5.10" departSpeed="0.00" departDelay="0.10" arrival="57758.00" arrivalLane="-266565295#5_1" arrivalPos="172.76" arrivalSpeed="11.36" duration="51.00" routeLength="370.53" waitingTime="11.00" waitingCount="1" stopTime="0.00" timeLoss="19.46" rerouteNo="1" devices="tripinfo_h317c2:1 routing_h317c2:1 emissions_h317c2:1" vType="default_016" speedFactor="0.86" vaporized="">
        <emissions CO_abs="2777.696553" CO2_abs="124422.028316" HC_abs="15.535443" PMx_abs="2.146606" NOx_abs="50.693339" fuel_abs="53.484510" electricity_abs="0"/>
    </tripinfo>
    <tripinfo id="carIn27009:1" depart="57673.00" departLane="-447569998#1_1" departPos="5.10" departSpeed="0.00" departDelay="0.50" arrival="57765.00" arrivalLane="-26677539_1" arrivalPos="152.75" arrivalSpeed="8.76" duration="92.00" routeLength="699.63" waitingTime="6.00" waitingCount="1" stopTime="0.00" timeLoss="21.07" rerouteNo="1" devices="tripinfo_carIn27009:1 routing_carIn27009:1 emissions_carIn27009:1" vType="default_015" speedFactor="1.19" vaporized="">
        <emissions CO_abs="4314.478656" CO2_abs="216090.971868" HC_abs="24.660228" PMx_abs="3.703565" NOx_abs="88.609749" fuel_abs="92.889184" electricity_abs="0"/>
    </tripinfo>
    <tripinfo id="h9563c2:5" depart="57631.00" departLane="315358244_1" departPos="5.10" departSpeed="0.00" departDelay="0.70" arrival="57768.00" arrivalLane="386687235_1" arrivalPos="80.84" arrivalSpeed="11.93" duration="137.00" routeLength="1186.14" waitingTime="16.00" waitingCount="1" stopTime="0.00" timeLoss="38.25" rerouteNo="1" devices="tripinfo_h9563c2:5 routing_h9563c2:5 emissions_h9563c2:5" vType="default_016" speedFactor="0.87" vaporized="">
        <emissions CO_abs="6271.664083" CO2_abs="297693.019512" HC_abs="35.445471" PMx_abs="4.932345" NOx_abs="119.487013" fuel_abs="127.967456" electricity_abs="0"/>
    </tripinfo>
    <tripinfo id="carIn50326:1" depart="57651.00" departLane="128361102#0_1" departPos="5.10" departSpeed="0.00" departDelay="0.30" arrival="57774.00" arrivalLane="18809673#0_1" arrivalPos="473.56" arrivalSpeed="17.07" duration="123.00" routeLength="1591.07" waitingTime="0.00" waitingCount="0" stopTime="0.00" timeLoss="20.12" rerouteNo="1" devices="tripinfo_carIn50326:1 routing_carIn50326:1 emissions_carIn50326:1" vType="default_016" speedFactor="1.26" vaporized="">
        <emissions CO_abs="4915.471867" CO2_abs="365188.982025" HC_abs="30.854399" PMx_abs="6.506844" NOx_abs="147.609593" fuel_abs="156.978619" electricity_abs="0"/>
    </tripinfo>
    <tripinfo id="h330c1:1" depart="57736.00" departLane="-32978638#0_1" departPos="5.10" departSpeed="0.00" departDelay="0.20" arrival="57784.00" arrivalLane="-266565295#5_1" arrivalPos="172.76" arrivalSpeed="15.22" duration="48.00" routeLength="370.53" waitingTime="13.00" waitingCount="1" stopTime="0.00" timeLoss="22.58" rerouteNo="1" devices="tripinfo_h330c1:1 routing_h330c1:1 emissions_h330c1:1" vType="default_016" speedFactor="1.11" vaporized="">
        <emissions CO_abs="3949.065792" CO2_abs="162238.130636" HC_abs="21.769590" PMx_abs="3.234074" NOx_abs="68.619093" fuel_abs="69.739914" electricity_abs="0"/>
    </tripinfo>
    <tripinfo id="h11737c1:1" depart="57665.00" departLane="272042143_1" departPos="5.10" departSpeed="0.00" departDelay="1.50" arrival="57785.00" arrivalLane="-315358254#1_1" arrivalPos="137.16" arrivalSpeed="14.17" duration="120.00" routeLength="1596.88" waitingTime="0.00" waitingCount="0" stopTime="0.00" timeLoss="13.49" rerouteNo="1" devices="tripinfo_h11737c1:1 routing_h11737c1:1 emissions_h11737c1:1" vType="default_016" speedFactor="1.09" vaporized="">
        <emissions CO_abs="3578.484456" CO2_abs="335357.952151" HC_abs="24.026852" PMx_abs="5.382938" NOx_abs="130.939247" fuel_abs="144.155768" electricity_abs="0"/>
    </tripinfo>
    <tripinfo id="carIn121703:1" depart="57647.00" departLane="386687232#0_1" departPos="5.10" departSpeed="0.00" departDelay="0.30" arrival="57786.00" arrivalLane="-315358244_1" arrivalPos="33.95" arrivalSpeed="13.97" duration="139.00" routeLength="1157.39" waitingTime="38.00" waitingCount="2" stopTime="0.00" timeLoss="55.49" rerouteNo="1" devices="tripinfo_carIn121703:1 routing_carIn121703:1 emissions_carIn121703:1" vType="default_016" speedFactor="1.01" vaporized="">
        <emissions CO_abs="8739.553501" CO2_abs="349045.042965" HC_abs="47.895815" PMx_abs="6.412000" NOx_abs="143.399737" fuel_abs="150.042125" electricity_abs="0"/>
    </tripinfo>
    <tripinfo id="h3326c1:2" depart="57656.00" departLane="22716069#0_1" departPos="5.10" departSpeed="0.00" departDelay="0.00" arrival="57787.00" arrivalLane="24634517#13_1" arrivalPos="111.62" arrivalSpeed="10.95" duration="131.00" routeLength="1312.81" waitingTime="0.00" waitingCount="0" stopTime="0.00" timeLoss="15.67" rerouteNo="1" devices="tripinfo_h3326c1:2 routing_h3326c1:2 emissions_h3326c1:2" vType="default_016" speedFactor="0.85" vaporized="">
        <emissions CO_abs="4071.585543" CO2_abs="282342.027820" HC_abs="25.084851" PMx_abs="4.462953" NOx_abs="112.156047" fuel_abs="121.367320" electricity_abs="0"/>
    </tripinfo>
    <tripinfo id="h645c1:1" depart="57622.00" departLane="266565295#5_1" departPos="5.10" departSpeed="0.00" departDelay="0.40" arrival="57788.00" arrivalLane="-315358244_2" arrivalPos="33.95" arrivalSpeed="13.56" duration="166.00" routeLength="1910.83" waitingTime="9.00" waitingCount="1" stopTime="0.00" timeLoss="25.61" rerouteNo="1" devices="tripinfo_h645c1:1 routing_h645c1:1 emissions_h645c1:1" vType="default_016" speedFactor="0.98" vaporized="">
        <emissions CO_abs="5062.208281" CO2_abs="376493.955519" HC_abs="31.819888" PMx_abs="6.049763" NOx_abs="148.295350" fuel_abs="161.839123" electricity_abs="0"/>
    </tripinfo>
    <tripinfo id="h5979c1:5" depart="57669.00" departLane="399835085#1_1" departPos="5.10" departSpeed="0.00" departDelay="0.00" arrival="57788.00" arrivalLane="-315358254#1_1" arrivalPos="137.16" arrivalSpeed="12.87" duration="119.00" routeLength="659.33" waitingTime="32.00" waitingCount="1" stopTime="0.00" timeLoss="43.93" rerouteNo="1" devices="tripinfo_h5979c1:5 routing_h5979c1:5 emissions_h5979c1:5" vType="default_016" speedFactor="0.97" vaporized="">
        <emissions CO_abs="8919.405527" CO2_abs="258385.795060" HC_abs="46.598639" PMx_abs="4.954625" NOx_abs="109.221652" fuel_abs="111.072527" electricity_abs="0"/>
    </tripinfo>
    <tripinfo id="carIn12365:1" depart="57713.00" departLane="315358244_1" departPos="5.10" departSpeed="0.00" departDelay="0.50" arrival="57790.00" arrivalLane="447569997#1_1" arrivalPos="180.93" arrivalSpeed="8.02" duration="77.00" routeLength="718.04" waitingTime="6.00" waitingCount="1" stopTime="0.00" timeLoss="17.82" rerouteNo="1" devices="tripinfo_carIn12365:1 routing_carIn12365:1 emissions_carIn12365:1" vType="default_016" speedFactor="1.05" vaporized="">
        <emissions CO_abs="2850.094922" CO2_abs="156981.699455" HC_abs="16.608633" PMx_abs="2.655733" NOx_abs="63.298781" fuel_abs="67.480278" electricity_abs="0"/>
    </tripinfo>
    <tripinfo id="carIn107282:1" depart="57749.00" departLane="-447569998#1_1" departPos="5.10" departSpeed="0.00" departDelay="0.00" arrival="57793.00" arrivalLane="315358242#0_1" arrivalPos="165.37" arrivalSpeed="14.77" duration="44.00" routeLength="448.50" waitingTime="0.00" waitingCount="0" stopTime="0.00" timeLoss="6.39" rerouteNo="1" devices="tripinfo_carIn107282:1 routing_carIn107282:1 emissions_carIn107282:1" vType="default_016" speedFactor="1.12" vaporized="">
        <emissions CO_abs="2026.076456" CO2_abs="124370.259020" HC_abs="12.093611" PMx_abs="2.181407" NOx_abs="50.667100" fuel_abs="53.461574" electricity_abs="0"/>
    </tripinfo>
    <tripinfo id="carIn48184:1" depart="57613.00" departLane="-306240162#1_0" departPos="5.10" departSpeed="0.00" departDelay="0.70" arrival="57795.00" arrivalLane="386687235_1" arrivalPos="80.84" arrivalSpeed="13.52" duration="182.00" routeLength="2257.41" waitingTime="15.00" waitingCount="2" stopTime="0.00" timeLoss="40.27" rerouteNo="1" devices="tripinfo_carIn48184:1 routing_carIn48184:1 emissions_carIn48184:1" vType="default_016" speedFactor="1.05" vaporized="">
        <emissions CO_abs="6761.852270" CO2_abs="493753.593161" HC_abs="42.425653" PMx_abs="8.858626" NOx_abs="198.265438" fuel_abs="212.243080" electricity_abs="0"/>
    </tripinfo>
    <tripinfo id="carIn82220:1" depart="57619.00" departLane="-306240162#1_0" departPos="5.10" departSpeed="0.00" departDelay="3.50" arrival="57796.00" arrivalLane="386687235_2" arrivalPos="80.84" arrivalSpeed="14.56" duration="177.00" routeLength="2257.41" waitingTime="6.00" waitingCount="1" stopTime="0.00" timeLoss="38.24" rerouteNo="1" devices="tripinfo_carIn82220:1 routing_carIn82220:1 emissions_carIn82220:1" vType="default_016" speedFactor="1.07" vaporized="">
        <emissions CO_abs="6564.962270" CO2_abs="518000.382030" HC_abs="41.910983" PMx_abs="9.001119" NOx_abs="206.977675" fuel_abs="222.665593" electricity_abs="0"/>
    </tripinfo>
    <tripinfo id="h3154c1:1" depart="57658.00" departLane="24634507_1" departPos="5.10" departSpeed="0.00" departDelay="0.00" arrival="57800.00" arrivalLane="-266565295#5_1" arrivalPos="172.76" arrivalSpeed="10.56" duration="142.00" routeLength="1206.22" waitingTime="15.00" waitingCount="2" stopTime="0.00" timeLoss="37.61" rerouteNo="1" devices="tripinfo_h3154c1:1 routing_h3154c1:1 emissions_h3154c1:1" vType="default_016" speedFactor="0.85" vaporized="">
        <emissions CO_abs="6348.448239" CO2_abs="326471.887486" HC_abs="36.521245" PMx_abs="5.693255" NOx_abs="133.582270" fuel_abs="140.337489" electricity_abs="0"/>
    </tripinfo>
    <tripinfo id="carIn82278:1" depart="57702.00" departLane="-306240162#1_0" departPos="5.10" departSpeed="0.00" departDelay="0.70" arrival="57800.00" arrivalLane="399835085#1_1" arrivalPos="212.23" arrivalSpeed="8.70" duration="98.00" routeLength="1093.26" waitingTime="12.00" waitingCount="1" stopTime="0.00" timeLoss="28.20" rerouteNo="1" devices="tripinfo_carIn82278:1 routing_carIn82278:1 emissions_carIn82278:1" vType="default_016" speedFactor="1.12" vaporized="">
        <emissions CO_abs="5779.525131" CO2_abs="317171.123356" HC_abs="33.873913" PMx_abs="6.243255" NOx_abs="131.653146" fuel_abs="136.338312" electricity_abs="0"/>
    </tripinfo>
    <tripinfo id="carIn86816:1" depart="57617.00" departLane="128361102#0_1" departPos="5.10" departSpeed="0.00" departDelay="0.80" arrival="57806.00" arrivalLane="201956811#0_1" arrivalPos="40.40" arrivalSpeed="12.97" duration="189.00" routeLength="2067.33" waitingTime="3.00" waitingCount="1" stopTime="0.00" timeLoss="30.79" rerouteNo="1" devices="tripinfo_carIn86816:1 routing_carIn86816:1 emissions_carIn86816:1" vType="default_016" speedFactor="0.95" vaporized="">
        <emissions CO_abs="6288.315313" CO2_abs="450687.998298" HC_abs="39.158332" PMx_abs="7.446228" NOx_abs="180.157870" fuel_abs="193.731811" electricity_abs="0"/>
    </tripinfo>
    <tripinfo id="carIn102915:1" depart="57643.00" departLane="128361102#0_1" departPos="5.10" departSpeed="0.00" departDelay="0.40" arrival="57808.00" arrivalLane="201956811#0_1" arrivalPos="40.40" arrivalSpeed="14.60" duration="165.00" routeLength="2067.33" waitingTime="1.00" waitingCount="1" stopTime="0.00" timeLoss="24.23" rerouteNo="1" devices="tripinfo_carIn102915:1 routing_carIn102915:1 emissions_carIn102915:1" vType="default_016" speedFactor="1.08" vaporized="">
        <emissions CO_abs="5325.544882" CO2_abs="440240.739802" HC_abs="34.408619" PMx_abs="7.295381" NOx_abs="174.357445" fuel_abs="189.240392" electricity_abs="0"/>
    </tripinfo>
    <tripinfo id="carIn28951:1" depart="57606.00" departLane="10425609#0_1" departPos="5.10" departSpeed="0.00" departDelay="0.20" arrival="57809.00" arrivalLane="-128361102#1_1" arrivalPos="274.68" arrivalSpeed="12.28" duration="203.00" routeLength="2113.04" waitingTime="6.00" waitingCount="2" stopTime="0.00" timeLoss="32.89" rerouteNo="1" devices="tripinfo_carIn28951:1 routing_carIn28951:1 emissions_carIn28951:1" vType="default_016" speedFactor="0.91" vaporized="">
        <emissions CO_abs="6608.498290" CO2_abs="481062.093269" HC_abs="41.266816" PMx_abs="7.607554" NOx_abs="190.260538" fuel_abs="206.788772" electricity_abs="0"/>
    </tripinfo>
    <tripinfo id="carIn107084:1" depart="57601.00" departLane="124812856#0_1" departPos="5.10" departSpeed="0.00" departDelay="0.70" arrival="57811.00" arrivalLane="-128361102#1_1" arrivalPos="274.68" arrivalSpeed="14.36" duration="210.00" routeLength="2250.49" waitingTime="8.00" waitingCount="2" stopTime="0.00" timeLoss="51.87" rerouteNo="1" devices="tripinfo_carIn107084:1 routing_carIn107084:1 emissions_carIn107084:1" vType="default_016" speedFactor="1.04" vaporized="">
        <emissions CO_abs="7853.760655" CO2_abs="564947.509104" HC_abs="49.029676" PMx_abs="9.782021" NOx_abs="228.299819" fuel_abs="242.846499" electricity_abs="0"/>
    </tripinfo>
    <tripinfo id="carIn81046:1" depart="57610.00" departLane="124812856#0_1" departPos="5.10" departSpeed="0.00" departDelay="1.50" arrival="57812.00" arrivalLane="-128361102#1_1" arrivalPos="274.68" arrivalSpeed="13.88" duration="202.00" routeLength="2250.49" waitingTime="6.00" waitingCount="1" stopTime="0.00" timeLoss="45.55" rerouteNo="1" devices="tripinfo_carIn81046:1 routing_carIn81046:1 emissions_carIn81046:1" vType="default_016" speedFactor="1.05" vaporized="">
        <emissions CO_abs="7478.823364" CO2_abs="545395.565908" HC_abs="46.822584" PMx_abs="9.380099" NOx_abs="219.949726" fuel_abs="234.441971" electricity_abs="0"/>
    </tripinfo>
    <tripinfo id="carIn462:1" depart="57622.00" departLane="-306240162#1_0" departPos="5.10" departSpeed="0.00" departDelay="4.80" arrival="57813.00" arrivalLane="386687235_1" arrivalPos="80.84" arrivalSpeed="13.68" duration="191.00" routeLength="2257.41" waitingTime="6.00" waitingCount="2" stopTime="0.00" timeLoss="43.89" rerouteNo="1" devices="tripinfo_carIn462:1 routing_carIn462:1 emissions_carIn462:1" vType="default_016" speedFactor="1.01" vaporized="">
        <emissions CO_abs="8406.463388" CO2_abs="567703.730936" HC_abs="51.557718" PMx_abs="10.138832" NOx_abs="229.647470" fuel_abs="244.031408" electricity_abs="0"/>
    </tripinfo>
    <tripinfo id="carIn126288:1" depart="57674.00" departLane="272042143_1" departPos="5.10" departSpeed="0.00" departDelay="0.00" arrival="57813.00" arrivalLane="-315358254#1_1" arrivalPos="137.16" arrivalSpeed="12.38" duration="139.00" routeLength="1596.88" waitingTime="0.00" waitingCount="0" stopTime="0.00" timeLoss="13.13" rerouteNo="1" devices="tripinfo_carIn126288:1 routing_carIn126288:1 emissions_carIn126288:1" vType="default_016" speedFactor="0.93" vaporized="">
        <emissions CO_abs="3676.469714" CO2_abs="313855.596614" HC_abs="24.017220" PMx_abs="4.738884" NOx_abs="122.053661" fuel_abs="134.913454" electricity_abs="0"/>
    </tripinfo>
    <tripinfo id="carIn129809:1" depart="57729.00" departLane="-447569998#1_1" departPos="5.10" departSpeed="0.00" departDelay="1.00" arrival="57823.00" arrivalLane="-315358244_1" arrivalPos="33.95" arrivalSpeed="13.36" duration="94.00" routeLength="706.49" waitingTime="11.00" waitingCount="2" stopTime="0.00" timeLoss="34.20" rerouteNo="1" devices="tripinfo_carIn129809:1 routing_carIn129809:1 emissions_carIn129809:1" vType="default_015" speedFactor="1.01" vaporized="">
        <emissions CO_abs="4716.781550" CO2_abs="213204.879746" HC_abs="26.466190" PMx_abs="3.897153" NOx_abs="88.452515" fuel_abs="91.648643" electricity_abs="0"/>
    </tripinfo>
    <tripinfo id="randUni33724:1" depart="57646.00" departLane="128361102#0_1" departPos="5.10" departSpeed="0.00" departDelay="1.20" arrival="57824.00" arrivalLane="201956811#0_1" arrivalPos="40.40" arrivalSpeed="12.95" duration="178.00" routeLength="2067.33" waitingTime="3.00" waitingCount="1" stopTime="0.00" timeLoss="26.03" rerouteNo="1" devices="tripinfo_randUni33724:1 routing_randUni33724:1 emissions_randUni33724:1" vType="random_016" speedFactor="1.00" vaporized="">
        <emissions CO_abs="5587.926325" CO2_abs="432076.299098" HC_abs="35.567179" PMx_abs="7.209426" NOx_abs="172.573280" fuel_abs="185.731001" electricity_abs="0"/>
    </tripinfo>
    <tripinfo id="h2831c1:1" depart="57600.00" departLane="201089423#0_1" departPos="5.10" departSpeed="0.00" departDelay="0.00" arrival="57825.00" arrivalLane="-315358244_1" arrivalPos="33.95" arrivalSpeed="14.35" duration="225.00" routeLength="2672.18" waitingTime="7.00" waitingCount="2" stopTime="0.00" timeLoss="37.75" rerouteNo="1" devices="tripinfo_h2831c1:1 routing_h2831c1:1 emissions_h2831c1:1" vType="default_016" speedFactor="1.04" vaporized="">
        <emissions CO_abs="7228.974145" CO2_abs="547384.479335" HC_abs="45.636248" PMx_abs="9.034833" NOx_abs="216.874679" fuel_abs="235.297400" electricity_abs="0"/>
    </tripinfo>
    <tripinfo id="h20540c1:1" depart="57634.00" departLane="10425609#0_1" departPos="5.10" departSpeed="0.00" departDelay="0.50" arrival="57825.00" arrivalLane="-128361102#1_1" arrivalPos="274.68" arrivalSpeed="14.94" duration="191.00" routeLength="2113.04" waitingTime="9.00" waitingCount="1" stopTime="0.00" timeLoss="47.08" rerouteNo="1" devices="tripinfo_h20540c1:1 routing_h20540c1:1 emissions_h20540c1:1" vType="default_016" speedFactor="1.08" vaporized="">
        <emissions CO_abs="7809.456183" CO2_abs="518464.071458" HC_abs="47.638065" PMx_abs="9.225224" NOx_abs="210.832033" fuel_abs="222.865421" electricity_abs="0"/>
    </tripinfo>
    <tripinfo id="carIn77943:1" depart="57607.00" departLane="124812856#0_1" departPos="5.10" departSpeed="0.00" departDelay="1.50" arrival="57826.00" arrivalLane="-128361102#1_1" arrivalPos="274.68" arrivalSpeed="14.35" duration="219.00" routeLength="2250.49" waitingTime="24.00" waitingCount="4" stopTime="0.00" timeLoss="73.26" rerouteNo="1" devices="tripinfo_carIn77943:1 routing_carIn77943:1 emissions_carIn77943:1" vType="default_016" speedFactor="1.12" vaporized="">
        <emissions CO_abs="9192.000460" CO2_abs="572815.254971" HC_abs="55.235935" PMx_abs="10.154073" NOx_abs="232.111081" fuel_abs="246.229269" electricity_abs="0"/>
    </tripinfo>
    <tripinfo id="h17549c1:1" depart="57680.00" departLane="-447569998#1_1" departPos="5.10" departSpeed="0.00" departDelay="0.00" arrival="57826.00" arrivalLane="-315358254#1_1" arrivalPos="137.16" arrivalSpeed="16.12" duration="146.00" routeLength="1746.60" waitingTime="9.00" waitingCount="1" stopTime="0.00" timeLoss="31.80" rerouteNo="1" devices="tripinfo_h17549c1:1 routing_h17549c1:1 emissions_h17549c1:1" vType="default_016" speedFactor="1.21" vaporized="">
        <emissions CO_abs="5404.776012" CO2_abs="402406.855786" HC_abs="33.961585" PMx_abs="7.079105" NOx_abs="161.397763" fuel_abs="172.977143" electricity_abs="0"/>
    </tripinfo>
    <tripinfo id="carIn81860:1" depart="57712.00" departLane="128361102#0_1" departPos="5.10" departSpeed="0.00" departDelay="0.60" arrival="57826.00" arrivalLane="-24634517#17_1" arrivalPos="6.43" arrivalSpeed="7.32" duration="114.00" routeLength="1229.64" waitingTime="5.00" waitingCount="1" stopTime="0.00" timeLoss="23.70" rerouteNo="1" devices="tripinfo_carIn81860:1 routing_carIn81860:1 emissions_carIn81860:1" vType="default_016" speedFactor="1.00" vaporized="">
        <emissions CO_abs="4126.628975" CO2_abs="278216.286310" HC_abs="25.269921" PMx_abs="4.677711" NOx_abs="111.602738" fuel_abs="119.593572" electricity_abs="0"/>
    </tripinfo>
    <tripinfo id="carIn77438:1" depart="57613.00" departLane="124812856#0_1" departPos="5.10" departSpeed="0.00" departDelay="0.10" arrival="57830.00" arrivalLane="-128361102#1_1" arrivalPos="274.68" arrivalSpeed="13.79" duration="217.00" routeLength="2250.49" waitingTime="12.00" waitingCount="3" stopTime="0.00" timeLoss="55.69" rerouteNo="1" devices="tripinfo_carIn77438:1 routing_carIn77438:1 emissions_carIn77438:1" vType="default_016" speedFactor="1.02" vaporized="">
        <emissions CO_abs="7877.075896" CO2_abs="536599.491859" HC_abs="48.441325" PMx_abs="9.252834" NOx_abs="216.455142" fuel_abs="230.661341" electricity_abs="0"/>
    </tripinfo>