<?xml version="1.0" encoding="UTF-8"?>

<!-- generated on 2021-10-26 11:27:19 by Eclipse SUMO sumo Version 1.10.0
<configuration xmlns:xsi="http://www.w3.org/2001/XMLSchema-instance" xsi:noNamespaceSchemaLocation="http://sumo.dlr.de/xsd/sumoConfiguration.xsd">

    <input>
        <net-file value="/Users/behradkoohy/sumo-scratchpad/RESCO/environments/ingolstadt21/ingolstadt21.net.xml"/>
        <route-files value="/Users/behradkoohy/sumo-scratchpad/RESCO/environments/ingolstadt21/ingolstadt21.rou.xml"/>
    </input>

    <output>
        <tripinfo-output value="/Users/behradkoohy/sumo-scratchpad/RESCO/logs/IDQN-tr0-ingolstadt21-21-drq_norm-wait_norm/tripinfo_20.xml"/>
        <tripinfo-output.write-unfinished value="true"/>
    </output>

    <time>
        <begin value="57600"/>
        <end value="61200"/>
    </time>

    <processing>
        <time-to-teleport value="-1"/>
    </processing>

    <report>
        <no-warnings value="true"/>
        <no-step-log value="true"/>
    </report>

    <emissions>
        <device.emissions.probability value="1"/>
    </emissions>

    <traci_server>
        <remote-port value="57185"/>
    </traci_server>

    <random_number>
        <random value="true"/>
    </random_number>

</configuration>
-->

<tripinfos xmlns:xsi="http://www.w3.org/2001/XMLSchema-instance" xsi:noNamespaceSchemaLocation="http://sumo.dlr.de/xsd/tripinfo_file.xsd">
    <tripinfo id="h15454c2:3" depart="57612.00" departLane="24608844_1" departPos="5.10" departSpeed="0.00" departDelay="0.50" arrival="57654.00" arrivalLane="32978638#0_1" arrivalPos="49.29" arrivalSpeed="12.94" duration="42.00" routeLength="354.79" waitingTime="0.00" waitingCount="0" stopTime="0.00" timeLoss="6.67" rerouteNo="1" devices="tripinfo_h15454c2:3 routing_h15454c2:3 emissions_h15454c2:3" vType="default_016" speedFactor="0.97" vaporized="">
        <emissions CO_abs="2160.163518" CO2_abs="116304.641609" HC_abs="12.537108" PMx_abs="1.968758" NOx_abs="47.412529" fuel_abs="49.994796" electricity_abs="0"/>
    </tripinfo>
    <tripinfo id="carIn60260:1" depart="57606.00" departLane="315358254#0_1" departPos="5.10" departSpeed="0.00" departDelay="0.90" arrival="57693.00" arrivalLane="399835085#1_1" arrivalPos="212.23" arrivalSpeed="7.73" duration="87.00" routeLength="430.98" waitingTime="31.00" waitingCount="1" stopTime="0.00" timeLoss="41.28" rerouteNo="1" devices="tripinfo_carIn60260:1 routing_carIn60260:1 emissions_carIn60260:1" vType="default_016" speedFactor="1.01" vaporized="">
        <emissions CO_abs="6900.790582" CO2_abs="192823.539307" HC_abs="35.900955" PMx_abs="3.797838" NOx_abs="82.117436" fuel_abs="82.889283" electricity_abs="0"/>
    </tripinfo>
    <tripinfo id="carIn53971:1" depart="57640.00" departLane="272042143_1" departPos="5.10" departSpeed="0.00" departDelay="0.80" arrival="57697.00" arrivalLane="24634414#1_1" arrivalPos="162.19" arrivalSpeed="6.97" duration="57.00" routeLength="493.04" waitingTime="0.00" waitingCount="0" stopTime="0.00" timeLoss="7.67" rerouteNo="1" devices="tripinfo_carIn53971:1 routing_carIn53971:1 emissions_carIn53971:1" vType="default_016" speedFactor="0.93" vaporized="">
        <emissions CO_abs="2420.476804" CO2_abs="130937.726040" HC_abs="14.073256" PMx_abs="2.269582" NOx_abs="53.694268" fuel_abs="56.284896" electricity_abs="0"/>
    </tripinfo>
    <tripinfo id="carIn22761:1" depart="57616.00" departLane="-306240162#1_0" departPos="5.10" departSpeed="0.00" departDelay="2.10" arrival="57722.00" arrivalLane="399835085#1_1" arrivalPos="212.23" arrivalSpeed="7.83" duration="106.00" routeLength="1093.26" waitingTime="9.00" waitingCount="2" stopTime="0.00" timeLoss="32.46" rerouteNo="1" devices="tripinfo_carIn22761:1 routing_carIn22761:1 emissions_carIn22761:1" vType="default_016" speedFactor="1.07" vaporized="">
        <emissions CO_abs="6394.881760" CO2_abs="361104.590485" HC_abs="37.689472" PMx_abs="7.134377" NOx_abs="151.269930" fuel_abs="155.223103" electricity_abs="0"/>
    </tripinfo>
    <tripinfo id="h7181c1:1" depart="57660.00" departLane="315358254#0_1" departPos="5.10" departSpeed="0.00" departDelay="0.10" arrival="57728.00" arrivalLane="306240162#0_0" arrivalPos="220.43" arrivalSpeed="16.10" duration="68.00" routeLength="932.35" waitingTime="0.00" waitingCount="0" stopTime="0.00" timeLoss="18.06" rerouteNo="1" devices="tripinfo_h7181c1:1 routing_h7181c1:1 emissions_h7181c1:1" vType="default_016" speedFactor="1.03" vaporized="">
        <emissions CO_abs="4643.034050" CO2_abs="293753.212997" HC_abs="28.229270" PMx_abs="6.022394" NOx_abs="123.998958" fuel_abs="126.270931" electricity_abs="0"/>
    </tripinfo>
    <tripinfo id="h3688c1:1" depart="57625.00" departLane="201201950#1_1" departPos="5.10" departSpeed="0.00" departDelay="0.00" arrival="57736.00" arrivalLane="32978638#0_1" arrivalPos="49.29" arrivalSpeed="11.21" duration="111.00" routeLength="1089.75" waitingTime="1.00" waitingCount="1" stopTime="0.00" timeLoss="13.86" rerouteNo="1" devices="tripinfo_h3688c1:1 routing_h3688c1:1 emissions_h3688c1:1" vType="default_016" speedFactor="0.83" vaporized="">
        <emissions CO_abs="3632.781972" CO2_abs="246328.251221" HC_abs="22.220661" PMx_abs="3.746460" NOx_abs="96.925531" fuel_abs="105.886758" electricity_abs="0"/>
    </tripinfo>
    <tripinfo id="h317c2:1" depart="57707.00" departLane="-32978638#0_1" departPos="5.10" departSpeed="0.00" departDelay="0.10" arrival="57744.00" arrivalLane="-266565295#5_1" arrivalPos="172.76" arrivalSpeed="11.74" duration="37.00" routeLength="370.53" waitingTime="0.00" waitingCount="0" stopTime="0.00" timeLoss="5.31" rerouteNo="1" devices="tripinfo_h317c2:1 routing_h317c2:1 emissions_h317c2:1" vType="default_016" speedFactor="0.89" vaporized="">
        <emissions CO_abs="1559.518140" CO2_abs="93178.956168" HC_abs="9.281829" PMx_abs="1.622244" NOx_abs="38.085503" fuel_abs="40.053777" electricity_abs="0"/>
    </tripinfo>
    <tripinfo id="h7800c1:5" depart="57696.00" departLane="-447569998#1_1" departPos="5.10" departSpeed="0.00" departDelay="0.00" arrival="57745.00" arrivalLane="-447569998#1_2" arrivalPos="180.76" arrivalSpeed="3.70" duration="49.00" routeLength="175.66" waitingTime="21.00" waitingCount="1" stopTime="0.00" timeLoss="27.08" rerouteNo="1" devices="tripinfo_h7800c1:5 routing_h7800c1:5 emissions_h7800c1:5" vType="default_016" speedFactor="0.97" vaporized="">
        <emissions CO_abs="4085.241668" CO2_abs="98731.359298" HC_abs="20.881526" PMx_abs="1.968401" NOx_abs="42.286614" fuel_abs="42.442193" electricity_abs="0"/>
    </tripinfo>
    <tripinfo id="carIn30817:1" depart="57681.00" departLane="315358244_1" departPos="5.10" departSpeed="0.00" departDelay="0.20" arrival="57750.00" arrivalLane="447569997#1_1" arrivalPos="180.93" arrivalSpeed="7.69" duration="69.00" routeLength="718.04" waitingTime="0.00" waitingCount="0" stopTime="0.00" timeLoss="11.32" rerouteNo="1" devices="tripinfo_carIn30817:1 routing_carIn30817:1 emissions_carIn30817:1" vType="default_016" speedFactor="1.07" vaporized="">
        <emissions CO_abs="2616.442315" CO2_abs="171954.812245" HC_abs="15.894246" PMx_abs="2.931942" NOx_abs="69.305310" fuel_abs="73.916180" electricity_abs="0"/>
    </tripinfo>
    <tripinfo id="carIn121703:1" depart="57647.00" departLane="386687232#0_1" departPos="5.10" departSpeed="0.00" departDelay="0.30" arrival="57753.00" arrivalLane="-315358244_1" arrivalPos="33.95" arrivalSpeed="15.15" duration="106.00" routeLength="1157.39" waitingTime="19.00" waitingCount="1" stopTime="0.00" timeLoss="33.51" rerouteNo="1" devices="tripinfo_carIn121703:1 routing_carIn121703:1 emissions_carIn121703:1" vType="default_016" speedFactor="1.17" vaporized="">
        <emissions CO_abs="6097.114752" CO2_abs="320927.390094" HC_abs="35.237330" PMx_abs="6.030328" NOx_abs="131.709313" fuel_abs="137.953566" electricity_abs="0"/>
    </tripinfo>
    <tripinfo id="h3568c1:3" depart="57656.00" departLane="266565295#5_1" departPos="5.10" departSpeed="0.00" departDelay="0.80" arrival="57756.00" arrivalLane="-24634415_1" arrivalPos="62.03" arrivalSpeed="12.57" duration="100.00" routeLength="807.40" waitingTime="13.00" waitingCount="1" stopTime="0.00" timeLoss="34.27" rerouteNo="1" devices="tripinfo_h3568c1:3 routing_h3568c1:3 emissions_h3568c1:3" vType="default_016" speedFactor="0.98" vaporized="">
        <emissions CO_abs="5842.707514" CO2_abs="284416.118558" HC_abs="33.313765" PMx_abs="5.415115" NOx_abs="119.455316" fuel_abs="122.258916" electricity_abs="0"/>
    </tripinfo>
    <tripinfo id="h5979c1:5" depart="57669.00" departLane="399835085#1_1" departPos="5.10" departSpeed="0.00" departDelay="0.00" arrival="57759.00" arrivalLane="-315358254#1_1" arrivalPos="137.16" arrivalSpeed="12.72" duration="90.00" routeLength="659.33" waitingTime="0.00" waitingCount="0" stopTime="0.00" timeLoss="10.86" rerouteNo="1" devices="tripinfo_h5979c1:5 routing_h5979c1:5 emissions_h5979c1:5" vType="default_016" speedFactor="0.93" vaporized="">
        <emissions CO_abs="3339.023050" CO2_abs="159662.165102" HC_abs="18.870136" PMx_abs="2.565410" NOx_abs="64.454174" fuel_abs="68.632996" electricity_abs="0"/>
    </tripinfo>
    <tripinfo id="h3326c1:2" depart="57656.00" departLane="22716069#0_1" departPos="5.10" departSpeed="0.00" departDelay="0.00" arrival="57770.00" arrivalLane="24634517#13_1" arrivalPos="111.62" arrivalSpeed="12.39" duration="114.00" routeLength="1312.81" waitingTime="0.00" waitingCount="0" stopTime="0.00" timeLoss="13.33" rerouteNo="1" devices="tripinfo_h3326c1:2 routing_h3326c1:2 emissions_h3326c1:2" vType="default_016" speedFactor="0.97" vaporized="">
        <emissions CO_abs="4081.350080" CO2_abs="309494.953392" HC_abs="25.814051" PMx_abs="5.191841" NOx_abs="124.082148" fuel_abs="133.038548" electricity_abs="0"/>
    </tripinfo>
    <tripinfo id="h330c1:1" depart="57736.00" departLane="-32978638#0_1" departPos="5.10" departSpeed="0.00" departDelay="0.20" arrival="57775.00" arrivalLane="-266565295#5_1" arrivalPos="172.76" arrivalSpeed="10.77" duration="39.00" routeLength="370.53" waitingTime="0.00" waitingCount="0" stopTime="0.00" timeLoss="5.21" rerouteNo="1" devices="tripinfo_h330c1:1 routing_h330c1:1 emissions_h330c1:1" vType="default_016" speedFactor="0.82" vaporized="">
        <emissions CO_abs="1563.696779" CO2_abs="85843.172902" HC_abs="9.132251" PMx_abs="1.542154" NOx_abs="35.543051" fuel_abs="36.900448" electricity_abs="0"/>
    </tripinfo>
    <tripinfo id="S5R_frequency1.2" depart="57615.00" departLane="315358250#0_1" departPos="12.10" departSpeed="0.00" departDelay="3.40" arrival="57780.00" arrivalLane="386687235_1" arrivalPos="80.84" arrivalSpeed="13.87" duration="165.00" routeLength="1115.62" waitingTime="58.00" waitingCount="2" stopTime="0.00" timeLoss="83.23" rerouteNo="1" devices="tripinfo_S5R_frequency1.2 routing_S5R_frequency1.2 emissions_S5R_frequency1.2" vType="bus" speedFactor="1.00" vaporized="">
        <emissions CO_abs="3185.959013" CO2_abs="1585267.772911" HC_abs="699.148376" PMx_abs="332.428857" NOx_abs="13411.057565" fuel_abs="675.964406" electricity_abs="0"/>
    </tripinfo>
    <tripinfo id="carIn50326:1" depart="57651.00" departLane="128361102#0_1" departPos="5.10" departSpeed="0.00" departDelay="0.30" arrival="57789.00" arrivalLane="18809673#0_1" arrivalPos="473.56" arrivalSpeed="14.39" duration="138.00" routeLength="1591.07" waitingTime="0.00" waitingCount="0" stopTime="0.00" timeLoss="18.13" rerouteNo="1" devices="tripinfo_carIn50326:1 routing_carIn50326:1 emissions_carIn50326:1" vType="default_016" speedFactor="1.08" vaporized="">
        <emissions CO_abs="4583.569581" CO2_abs="344589.771304" HC_abs="28.641676" PMx_abs="5.595980" NOx_abs="136.217019" fuel_abs="148.124644" electricity_abs="0"/>
    </tripinfo>
    <tripinfo id="h4538c1:1" depart="57701.00" departLane="-10427692#1_1" departPos="5.10" departSpeed="0.00" departDelay="0.00" arrival="57790.00" arrivalLane="-128361102#1_1" arrivalPos="274.68" arrivalSpeed="12.19" duration="89.00" routeLength="440.74" waitingTime="43.00" waitingCount="1" stopTime="0.00" timeLoss="52.82" rerouteNo="1" devices="tripinfo_h4538c1:1 routing_h4538c1:1 emissions_h4538c1:1" vType="default_016" speedFactor="0.89" vaporized="">
        <emissions CO_abs="8704.836205" CO2_abs="221969.420470" HC_abs="44.825547" PMx_abs="4.619390" NOx_abs="95.565956" fuel_abs="95.418589" electricity_abs="0"/>
    </tripinfo>
    <tripinfo id="carIn80064:1" depart="57603.00" departLane="128361109#1_1" departPos="5.10" departSpeed="0.00" departDelay="0.40" arrival="57791.00" arrivalLane="-315358254#1_1" arrivalPos="137.16" arrivalSpeed="13.57" duration="188.00" routeLength="1587.97" waitingTime="61.00" waitingCount="2" stopTime="0.00" timeLoss="100.17" rerouteNo="1" devices="tripinfo_carIn80064:1 routing_carIn80064:1 emissions_carIn80064:1" vType="default_016" speedFactor="1.02" vaporized="">
        <emissions CO_abs="16244.246697" CO2_abs="633175.444695" HC_abs="89.134027" PMx_abs="13.446592" NOx_abs="270.655950" fuel_abs="272.177448" electricity_abs="0"/>
    </tripinfo>
    <tripinfo id="carIn107084:1" depart="57601.00" departLane="124812856#0_1" departPos="5.10" departSpeed="0.00" departDelay="0.70" arrival="57795.00" arrivalLane="-128361102#1_1" arrivalPos="274.68" arrivalSpeed="13.11" duration="194.00" routeLength="2250.49" waitingTime="15.00" waitingCount="1" stopTime="0.00" timeLoss="34.89" rerouteNo="1" devices="tripinfo_carIn107084:1 routing_carIn107084:1 emissions_carIn107084:1" vType="default_016" speedFactor="1.03" vaporized="">
        <emissions CO_abs="6965.968543" CO2_abs="501201.166021" HC_abs="43.293201" PMx_abs="8.274791" NOx_abs="198.252539" fuel_abs="215.445466" electricity_abs="0"/>
    </tripinfo>
    <tripinfo id="h11737c1:1" depart="57665.00" departLane="272042143_1" departPos="5.10" departSpeed="0.00" departDelay="1.50" arrival="57796.00" arrivalLane="-315358254#1_1" arrivalPos="137.16" arrivalSpeed="14.13" duration="131.00" routeLength="1596.88" waitingTime="3.00" waitingCount="1" stopTime="0.00" timeLoss="19.56" rerouteNo="1" devices="tripinfo_h11737c1:1 routing_h11737c1:1 emissions_h11737c1:1" vType="default_016" speedFactor="1.04" vaporized="">
        <emissions CO_abs="4043.436821" CO2_abs="319237.275491" HC_abs="25.905697" PMx_abs="5.408550" NOx_abs="127.604744" fuel_abs="137.226207" electricity_abs="0"/>
    </tripinfo>
    <tripinfo id="h9563c2:5" depart="57631.00" departLane="315358244_1" departPos="5.10" departSpeed="0.00" departDelay="0.70" arrival="57797.00" arrivalLane="386687235_1" arrivalPos="80.84" arrivalSpeed="15.67" duration="166.00" routeLength="1186.14" waitingTime="61.00" waitingCount="4" stopTime="0.00" timeLoss="91.43" rerouteNo="1" devices="tripinfo_h9563c2:5 routing_h9563c2:5 emissions_h9563c2:5" vType="default_016" speedFactor="1.17" vaporized="">
        <emissions CO_abs="12055.093078" CO2_abs="405481.816956" HC_abs="64.135588" PMx_abs="8.046379" NOx_abs="170.024657" fuel_abs="174.303014" electricity_abs="0"/>
    </tripinfo>
    <tripinfo id="h12244c1:3" depart="57612.00" departLane="315358244_1" departPos="5.10" departSpeed="0.00" departDelay="0.40" arrival="57800.00" arrivalLane="386687235_1" arrivalPos="80.84" arrivalSpeed="11.06" duration="188.00" routeLength="1186.14" waitingTime="62.00" waitingCount="3" stopTime="0.00" timeLoss="89.39" rerouteNo="1" devices="tripinfo_h12244c1:3 routing_h12244c1:3 emissions_h12244c1:3" vType="default_016" speedFactor="0.88" vaporized="">
        <emissions CO_abs="12229.421458" CO2_abs="380588.905522" HC_abs="64.564852" PMx_abs="7.394014" NOx_abs="160.337974" fuel_abs="163.603281" electricity_abs="0"/>
    </tripinfo>
    <tripinfo id="carIn129809:1" depart="57729.00" departLane="-447569998#1_1" departPos="5.10" departSpeed="0.00" departDelay="1.00" arrival="57802.00" arrivalLane="-315358244_1" arrivalPos="33.95" arrivalSpeed="11.64" duration="73.00" routeLength="706.49" waitingTime="0.00" waitingCount="0" stopTime="0.00" timeLoss="6.96" rerouteNo="1" devices="tripinfo_carIn129809:1 routing_carIn129809:1 emissions_carIn129809:1" vType="default_015" speedFactor="0.92" vaporized="">
        <emissions CO_abs="2480.593050" CO2_abs="159324.554727" HC_abs="14.961947" PMx_abs="2.406153" NOx_abs="62.525852" fuel_abs="68.487459" electricity_abs="0"/>
    </tripinfo>
    <tripinfo id="h3154c1:1" depart="57658.00" departLane="24634507_1" departPos="5.10" departSpeed="0.00" departDelay="0.00" arrival="57805.00" arrivalLane="-266565295#5_1" arrivalPos="172.76" arrivalSpeed="14.94" duration="147.00" routeLength="1206.22" waitingTime="47.00" waitingCount="2" stopTime="0.00" timeLoss="68.90" rerouteNo="1" devices="tripinfo_h3154c1:1 routing_h3154c1:1 emissions_h3154c1:1" vType="default_016" speedFactor="1.15" vaporized="">
        <emissions CO_abs="11358.255410" CO2_abs="438020.103452" HC_abs="61.978337" PMx_abs="8.815019" NOx_abs="185.145331" fuel_abs="188.288487" electricity_abs="0"/>
    </tripinfo>
    <tripinfo id="carIn107282:1" depart="57749.00" departLane="-447569998#1_1" departPos="5.10" departSpeed="0.00" departDelay="0.00" arrival="57807.00" arrivalLane="315358242#0_1" arrivalPos="165.37" arrivalSpeed="12.14" duration="58.00" routeLength="448.50" waitingTime="5.00" waitingCount="1" stopTime="0.00" timeLoss="12.81" rerouteNo="1" devices="tripinfo_carIn107282:1 routing_carIn107282:1 emissions_carIn107282:1" vType="default_016" speedFactor="0.92" vaporized="">
        <emissions CO_abs="2236.180457" CO2_abs="123850.364484" HC_abs="13.039367" PMx_abs="1.970056" NOx_abs="49.451814" fuel_abs="53.238568" electricity_abs="0"/>
    </tripinfo>
    <tripinfo id="carIn27009:1" depart="57673.00" departLane="-447569998#1_1" departPos="5.10" departSpeed="0.00" departDelay="0.50" arrival="57812.00" arrivalLane="-26677539_1" arrivalPos="152.75" arrivalSpeed="8.33" duration="139.00" routeLength="699.63" waitingTime="43.00" waitingCount="1" stopTime="0.00" timeLoss="56.68" rerouteNo="1" devices="tripinfo_carIn27009:1 routing_carIn27009:1 emissions_carIn27009:1" vType="default_015" speedFactor="1.02" vaporized="">
        <emissions CO_abs="10369.970720" CO2_abs="292865.005860" HC_abs="54.010351" PMx_abs="5.711744" NOx_abs="124.582840" fuel_abs="125.894194" electricity_abs="0"/>
    </tripinfo>
    <tripinfo id="carIn118591:1" depart="57689.00" departLane="315358244_1" departPos="5.10" departSpeed="0.00" departDelay="0.20" arrival="57815.00" arrivalLane="386687235_1" arrivalPos="80.84" arrivalSpeed="16.55" duration="126.00" routeLength="1186.14" waitingTime="38.00" waitingCount="2" stopTime="0.00" timeLoss="56.22" rerouteNo="1" devices="tripinfo_carIn118591:1 routing_carIn118591:1 emissions_carIn118591:1" vType="default_016" speedFactor="1.24" vaporized="">
        <emissions CO_abs="8261.124041" CO2_abs="359663.521088" HC_abs="45.929319" PMx_abs="6.806539" NOx_abs="147.177944" fuel_abs="154.605863" electricity_abs="0"/>
    </tripinfo>
    <tripinfo id="carIn86816:1" depart="57617.00" departLane="128361102#0_1" departPos="5.10" departSpeed="0.00" departDelay="0.80" arrival="57818.00" arrivalLane="201956811#0_1" arrivalPos="40.40" arrivalSpeed="10.55" duration="201.00" routeLength="2067.33" waitingTime="6.00" waitingCount="1" stopTime="0.00" timeLoss="28.67" rerouteNo="1" devices="tripinfo_carIn86816:1 routing_carIn86816:1 emissions_carIn86816:1" vType="default_016" speedFactor="0.88" vaporized="">
        <emissions CO_abs="6431.723783" CO2_abs="445902.067112" HC_abs="39.642776" PMx_abs="7.116602" NOx_abs="177.140525" fuel_abs="191.675050" electricity_abs="0"/>
    </tripinfo>
    <tripinfo id="carIn102915:1" depart="57643.00" departLane="128361102#0_1" departPos="5.10" departSpeed="0.00" departDelay="0.40" arrival="57821.00" arrivalLane="201956811#0_1" arrivalPos="40.40" arrivalSpeed="12.42" duration="178.00" routeLength="2067.33" waitingTime="0.00" waitingCount="0" stopTime="0.00" timeLoss="16.06" rerouteNo="1" devices="tripinfo_carIn102915:1 routing_carIn102915:1 emissions_carIn102915:1" vType="default_016" speedFactor="0.94" vaporized="">
        <emissions CO_abs="4722.043201" CO2_abs="405234.470749" HC_abs="30.900294" PMx_abs="6.121604" NOx_abs="157.463691" fuel_abs="174.193416" electricity_abs="0"/>
    </tripinfo>
    <tripinfo id="randUni33724:1" depart="57646.00" departLane="128361102#0_1" departPos="5.10" departSpeed="0.00" departDelay="1.20" arrival="57823.00" arrivalLane="201956811#0_1" arrivalPos="40.40" arrivalSpeed="12.98" duration="177.00" routeLength="2067.33" waitingTime="0.00" waitingCount="0" stopTime="0.00" timeLoss="27.10" rerouteNo="1" devices="tripinfo_randUni33724:1 routing_randUni33724:1 emissions_randUni33724:1" vType="random_016" speedFactor="1.01" vaporized="">
        <emissions CO_abs="5570.834003" CO2_abs="448219.268042" HC_abs="35.800626" PMx_abs="7.243298" NOx_abs="177.420916" fuel_abs="192.670337" electricity_abs="0"/>
    </tripinfo>
    <tripinfo id="randUni15030:1" depart="57735.00" departLane="386687232#0_1" departPos="5.10" departSpeed="0.00" departDelay="0.10" arrival="57823.00" arrivalLane="26677539_1" arrivalPos="151.98" arrivalSpeed="7.99" duration="88.00" routeLength="919.89" waitingTime="0.00" waitingCount="0" stopTime="0.00" timeLoss="10.13" rerouteNo="1" devices="tripinfo_randUni15030:1 routing_randUni15030:1 emissions_randUni15030:1" vType="random_016" speedFactor="1.08" vaporized="">
        <emissions CO_abs="3116.354552" CO2_abs="222423.798974" HC_abs="19.258297" PMx_abs="3.600624" NOx_abs="88.244712" fuel_abs="95.610756" electricity_abs="0"/>
    </tripinfo>
    <tripinfo id="carIn12365:1" depart="57713.00" departLane="315358244_1" departPos="5.10" departSpeed="0.00" departDelay="0.50" arrival="57829.00" arrivalLane="447569997#1_1" arrivalPos="180.93" arrivalSpeed="7.26" duration="116.00" routeLength="718.04" waitingTime="39.00" waitingCount="1" stopTime="0.00" timeLoss="50.80" rerouteNo="1" devices="tripinfo_carIn12365:1 routing_carIn12365:1 emissions_carIn12365:1" vType="default_016" speedFactor="0.94" vaporized="">
        <emissions CO_abs="8721.305412" CO2_abs="274127.032432" HC_abs="46.119978" PMx_abs="5.387185" NOx_abs="115.979343" fuel_abs="117.838469" electricity_abs="0"/>
    </tripinfo>
    <tripinfo id="carIn12858:1" depart="57661.00" departLane="128361109#1_1" departPos="5.10" departSpeed="0.00" departDelay="0.90" arrival="57831.00" arrivalLane="399835085#1_1" arrivalPos="212.23" arrivalSpeed="8.52" duration="170.00" routeLength="1738.12" waitingTime="37.00" waitingCount="1" stopTime="0.00" timeLoss="65.30" rerouteNo="1" devices="tripinfo_carIn12858:1 routing_carIn12858:1 emissions_carIn12858:1" vType="default_016" speedFactor="1.10" vaporized="">
        <emissions CO_abs="13356.098273" CO2_abs="606431.432848" HC_abs="75.285451" PMx_abs="12.423347" NOx_abs="255.582610" fuel_abs="260.680115" electricity_abs="0"/>
    </tripinfo>
    <tripinfo id="carIn73855:1" depart="57743.00" departLane="386687232#0_1" departPos="5.10" departSpeed="0.00" departDelay="0.50" arrival="57831.00" arrivalLane="-315358244_1" arrivalPos="33.95" arrivalSpeed="15.03" duration="88.00" routeLength="1157.39" waitingTime="0.00" waitingCount="0" stopTime="0.00" timeLoss="11.26" rerouteNo="1" devices="tripinfo_carIn73855:1 routing_carIn73855:1 emissions_carIn73855:1" vType="default_016" speedFactor="1.11" vaporized="">
        <emissions CO_abs="3237.108111" CO2_abs="256712.322166" HC_abs="20.706321" PMx_abs="4.514750" NOx_abs="103.341571" fuel_abs="110.349203" electricity_abs="0"/>
    </tripinfo>
    <tripinfo id="carIn81860:1" depart="57712.00" departLane="128361102#0_1" departPos="5.10" departSpeed="0.00" departDelay="0.60" arrival="57833.00" arrivalLane="-24634517#17_1" arrivalPos="6.43" arrivalSpeed="7.49" duration="121.00" routeLength="1229.64" waitingTime="19.00" waitingCount="1" stopTime="0.00" timeLoss="37.44" rerouteNo="1" devices="tripinfo_carIn81860:1 routing_carIn81860:1 emissions_carIn81860:1" vType="default_016" speedFactor="1.08" vaporized="">
        <emissions CO_abs="5817.608861" CO2_abs="317336.028632" HC_abs="33.802062" PMx_abs="5.531825" NOx_abs="127.787865" fuel_abs="136.410230" electricity_abs="0"/>
    </tripinfo>
    <tripinfo id="carIn126288:1" depart="57674.00" departLane="272042143_1" departPos="5.10" departSpeed="0.00" departDelay="0.00" arrival="57836.00" arrivalLane="-315358254#1_1" arrivalPos="137.16" arrivalSpeed="14.44" duration="162.00" routeLength="1596.88" waitingTime="32.00" waitingCount="2" stopTime="0.00" timeLoss="51.77" rerouteNo="1" devices="tripinfo_carIn126288:1 routing_carIn126288:1 emissions_carIn126288:1" vType="default_016" speedFactor="1.06" vaporized="">
        <emissions CO_abs="8447.907766" CO2_abs="418537.752274" HC_abs="48.209642" PMx_abs="7.649342" NOx_abs="171.173436" fuel_abs="179.912953" electricity_abs="0"/>
    </tripinfo>
    <tripinfo id="carIn82278:1" depart="57702.00" departLane="-306240162#1_0" departPos="5.10" departSpeed="0.00" departDelay="0.70" arrival="57836.00" arrivalLane="399835085#1_1" arrivalPos="212.23" arrivalSpeed="7.98" duration="134.00" routeLength="1093.26" waitingTime="25.00" waitingCount="2" stopTime="0.00" timeLoss="57.58" rerouteNo="1" devices="tripinfo_carIn82278:1 routing_carIn82278:1 emissions_carIn82278:1" vType="default_016" speedFactor="1.03" vaporized="">
        <emissions CO_abs="8378.825023" CO2_abs="379985.009640" HC_abs="47.197378" PMx_abs="7.621141" NOx_abs="160.501236" fuel_abs="163.340159" electricity_abs="0"/>
    </tripinfo>
    <tripinfo id="carIn126378:1" depart="57746.00" departLane="386687232#0_1" departPos="5.10" departSpeed="0.00" departDelay="1.80" arrival="57836.00" arrivalLane="-315358244_1" arrivalPos="33.95" arrivalSpeed="14.09" duration="90.00" routeLength="1157.39" waitingTime="0.00" waitingCount="0" stopTime="0.00" timeLoss="8.38" rerouteNo="1" devices="tripinfo_carIn126378:1 routing_carIn126378:1 emissions_carIn126378:1" vType="default_016" speedFactor="1.04" vaporized="">
        <emissions CO_abs="2313.071320" CO2_abs="219523.427121" HC_abs="15.596912" PMx_abs="3.420222" NOx_abs="85.149403" fuel_abs="94.363680" electricity_abs="0"/>
    </tripinfo>
    <tripinfo id="h17600c1:1" depart="57662.00" departLane="272042143_1" departPos="5.10" departSpeed="0.00" departDelay="0.30" arrival="57842.00" arrivalLane="201238729#3_1" arrivalPos="431.02" arrivalSpeed="13.84" duration="180.00" routeLength="2100.26" waitingTime="11.00" waitingCount="1" stopTime="0.00" timeLoss="28.78" rerouteNo="1" devices="tripinfo_h17600c1:1 routing_h17600c1:1 emissions_h17600c1:1" vType="default_016" speedFactor="1.01" vaporized="">
        <emissions CO_abs="5197.075833" CO2_abs="406868.288598" HC_abs="33.124727" PMx_abs="6.439110" NOx_abs="159.123396" fuel_abs="174.895754" electricity_abs="0"/>
    </tripinfo>
    <tripinfo id="carIn100288:1" depart="57664.00" departLane="128361102#0_1" departPos="5.10" departSpeed="0.00" departDelay="0.60" arrival="57852.00" arrivalLane="201956811#0_1" arrivalPos="40.40" arrivalSpeed="14.24" duration="188.00" routeLength="2067.33" waitingTime="20.00" waitingCount="3" stopTime="0.00" timeLoss="51.27" rerouteNo="1" devices="tripinfo_carIn100288:1 routing_carIn100288:1 emissions_carIn100288:1" vType="default_016" speedFactor="1.11" vaporized="">
        <emissions CO_abs="8904.737539" CO2_abs="542736.327329" HC_abs="53.190266" PMx_abs="9.981533" NOx_abs="222.565153" fuel_abs="233.299165" electricity_abs="0"/>
    </tripinfo>
    <tripinfo id="randUni31145:1" depart="57814.00" departLane="10425609#0_1" departPos="5.10" departSpeed="0.00" departDelay="0.30" arrival="57854.00" arrivalLane="201956810_1" arrivalPos="71.65" arrivalSpeed="13.20" duration="40.00" routeLength="255.78" waitingTime="10.00" waitingCount="1" stopTime="0.00" timeLoss="19.52" rerouteNo="1" devices="tripinfo_randUni31145:1 routing_randUni31145:1 emissions_randUni31145:1" vType="random_016" speedFactor="0.97" vaporized="">
        <emissions CO_abs="2742.618278" CO2_abs="120554.476017" HC_abs="15.325421" PMx_abs="2.306026" NOx_abs="50.751584" fuel_abs="51.821670" electricity_abs="0"/>
    </tripinfo>
    <tripinfo id="carIn29531:1" depart="57667.00" departLane="128361102#0_1" departPos="5.10" departSpeed="0.00" departDelay="1.60" arrival="57855.00" arrivalLane="201956811#0_1" arrivalPos="40.40" arrivalSpeed="12.32" duration="188.00" routeLength="2067.33" waitingTime="0.00" waitingCount="0" stopTime="0.00" timeLoss="29.37" rerouteNo="1" devices="tripinfo_carIn29531:1 routing_carIn29531:1 emissions_carIn29531:1" vType="default_016" speedFactor="0.95" vaporized="">
        <emissions CO_abs="6203.857881" CO2_abs="448176.743832" HC_abs="38.694080" PMx_abs="7.302119" NOx_abs="178.353643" fuel_abs="192.652456" electricity_abs="0"/>
    </tripinfo>
    <tripinfo id="carIn12152:1" depart="57647.00" departLane="24599188#0.94_1" departPos="5.10" departSpeed="0.00" departDelay="0.50" arrival="57857.00" arrivalLane="-315358254#1_1" arrivalPos="137.16" arrivalSpeed="12.39" duration="210.00" routeLength="2034.31" waitingTime="21.00" waitingCount="2" stopTime="0.00" timeLoss="43.97" rerouteNo="1" devices="tripinfo_carIn12152:1 routing_carIn12152:1 emissions_carIn12152:1" vType="default_016" speedFactor="0.95" vaporized="">
        <emissions CO_abs="7142.637149" CO2_abs="432470.081440" HC_abs="42.579178" PMx_abs="7.072763" NOx_abs="172.510152" fuel_abs="185.901744" electricity_abs="0"/>
    </tripinfo>
    <tripinfo id="randUni2407:1" depart="57821.00" departLane="10425609#0_1" departPos="5.10" departSpeed="0.00" departDelay="1.80" arrival="57857.00" arrivalLane="201956810_1" arrivalPos="71.65" arrivalSpeed="13.09" duration="36.00" routeLength="255.78" waitingTime="5.00" waitingCount="1" stopTime="0.00" timeLoss="14.98" rerouteNo="1" devices="tripinfo_randUni2407:1 routing_randUni2407:1 emissions_randUni2407:1" vType="random_016" speedFactor="0.96" vaporized="">
        <emissions CO_abs="2077.545772" CO2_abs="108090.095821" HC_abs="11.999221" PMx_abs="2.036571" NOx_abs="45.310977" fuel_abs="46.463437" electricity_abs="0"/>