<?xml version="1.0" encoding="UTF-8"?>

<!-- generated on 2021-10-26 12:08:59 by Eclipse SUMO sumo Version 1.10.0
<configuration xmlns:xsi="http://www.w3.org/2001/XMLSchema-instance" xsi:noNamespaceSchemaLocation="http://sumo.dlr.de/xsd/sumoConfiguration.xsd">

    <input>
        <net-file value="/Users/behradkoohy/sumo-scratchpad/RESCO/environments/ingolstadt21/ingolstadt21.net.xml"/>
        <route-files value="/Users/behradkoohy/sumo-scratchpad/RESCO/environments/ingolstadt21/ingolstadt21.rou.xml"/>
    </input>

    <output>
        <tripinfo-output value="/Users/behradkoohy/sumo-scratchpad/RESCO/logs/IDQN-tr0-ingolstadt21-21-drq_norm-wait_norm/tripinfo_49.xml"/>
        <tripinfo-output.write-unfinished value="true"/>
    </output>

    <time>
        <begin value="57600"/>
        <end value="61200"/>
    </time>

    <processing>
        <time-to-teleport value="-1"/>
    </processing>

    <report>
        <no-warnings value="true"/>
        <no-step-log value="true"/>
    </report>

    <emissions>
        <device.emissions.probability value="1"/>
    </emissions>

    <traci_server>
        <remote-port value="57991"/>
    </traci_server>

    <random_number>
        <random value="true"/>
    </random_number>

</configuration>
-->

<tripinfos xmlns:xsi="http://www.w3.org/2001/XMLSchema-instance" xsi:noNamespaceSchemaLocation="http://sumo.dlr.de/xsd/tripinfo_file.xsd">
    <tripinfo id="h15454c2:3" depart="57612.00" departLane="24608844_1" departPos="5.10" departSpeed="0.00" departDelay="0.50" arrival="57656.00" arrivalLane="32978638#0_1" arrivalPos="49.29" arrivalSpeed="12.53" duration="44.00" routeLength="354.79" waitingTime="0.00" waitingCount="0" stopTime="0.00" timeLoss="9.31" rerouteNo="1" devices="tripinfo_h15454c2:3 routing_h15454c2:3 emissions_h15454c2:3" vType="default_016" speedFactor="0.98" vaporized="">
        <emissions CO_abs="2352.604752" CO2_abs="116643.671481" HC_abs="13.438300" PMx_abs="2.101460" NOx_abs="48.487818" fuel_abs="50.140485" electricity_abs="0"/>
    </tripinfo>
    <tripinfo id="carIn60260:1" depart="57606.00" departLane="315358254#0_1" departPos="5.10" departSpeed="0.00" departDelay="0.90" arrival="57671.00" arrivalLane="399835085#1_1" arrivalPos="212.23" arrivalSpeed="6.76" duration="65.00" routeLength="430.98" waitingTime="0.00" waitingCount="0" stopTime="0.00" timeLoss="11.26" rerouteNo="1" devices="tripinfo_carIn60260:1 routing_carIn60260:1 emissions_carIn60260:1" vType="default_016" speedFactor="0.85" vaporized="">
        <emissions CO_abs="3048.906790" CO2_abs="127369.815954" HC_abs="16.813515" PMx_abs="2.151436" NOx_abs="52.267010" fuel_abs="54.751833" electricity_abs="0"/>
    </tripinfo>
    <tripinfo id="carIn53971:1" depart="57640.00" departLane="272042143_1" departPos="5.10" departSpeed="0.00" departDelay="0.80" arrival="57701.00" arrivalLane="24634414#1_1" arrivalPos="162.19" arrivalSpeed="7.35" duration="61.00" routeLength="493.04" waitingTime="0.00" waitingCount="0" stopTime="0.00" timeLoss="9.64" rerouteNo="1" devices="tripinfo_carIn53971:1 routing_carIn53971:1 emissions_carIn53971:1" vType="default_016" speedFactor="0.89" vaporized="">
        <emissions CO_abs="2586.537319" CO2_abs="131524.689592" HC_abs="14.831987" PMx_abs="2.254412" NOx_abs="53.868307" fuel_abs="56.537370" electricity_abs="0"/>
    </tripinfo>
    <tripinfo id="h7800c1:5" depart="57696.00" departLane="-447569998#1_1" departPos="5.10" departSpeed="0.00" departDelay="0.00" arrival="57719.00" arrivalLane="-447569998#1_1" arrivalPos="180.76" arrivalSpeed="8.93" duration="23.00" routeLength="175.66" waitingTime="0.00" waitingCount="0" stopTime="0.00" timeLoss="3.34" rerouteNo="1" devices="tripinfo_h7800c1:5 routing_h7800c1:5 emissions_h7800c1:5" vType="default_016" speedFactor="1.09" vaporized="">
        <emissions CO_abs="1187.216173" CO2_abs="55464.684049" HC_abs="6.684010" PMx_abs="0.921266" NOx_abs="22.613589" fuel_abs="23.842238" electricity_abs="0"/>
    </tripinfo>
    <tripinfo id="h3688c1:1" depart="57625.00" departLane="201201950#1_1" departPos="5.10" departSpeed="0.00" departDelay="0.00" arrival="57721.00" arrivalLane="32978638#0_1" arrivalPos="49.29" arrivalSpeed="12.77" duration="96.00" routeLength="1089.75" waitingTime="0.00" waitingCount="0" stopTime="0.00" timeLoss="13.31" rerouteNo="1" devices="tripinfo_h3688c1:1 routing_h3688c1:1 emissions_h3688c1:1" vType="default_016" speedFactor="0.97" vaporized="">
        <emissions CO_abs="3419.005380" CO2_abs="253520.691598" HC_abs="21.489350" PMx_abs="4.146964" NOx_abs="100.951153" fuel_abs="108.977856" electricity_abs="0"/>
    </tripinfo>
    <tripinfo id="h3568c1:3" depart="57656.00" departLane="266565295#5_1" departPos="5.10" departSpeed="0.00" departDelay="0.80" arrival="57724.00" arrivalLane="-24634415_1" arrivalPos="62.03" arrivalSpeed="14.93" duration="68.00" routeLength="807.40" waitingTime="0.00" waitingCount="0" stopTime="0.00" timeLoss="13.37" rerouteNo="1" devices="tripinfo_h3568c1:3 routing_h3568c1:3 emissions_h3568c1:3" vType="default_016" speedFactor="1.18" vaporized="">
        <emissions CO_abs="3367.775089" CO2_abs="224247.844172" HC_abs="20.541905" PMx_abs="4.116682" NOx_abs="92.057349" fuel_abs="96.394295" electricity_abs="0"/>
    </tripinfo>
    <tripinfo id="h12244c1:3" depart="57612.00" departLane="315358244_1" departPos="5.10" departSpeed="0.00" departDelay="0.40" arrival="57732.00" arrivalLane="386687235_1" arrivalPos="80.84" arrivalSpeed="15.68" duration="120.00" routeLength="1186.14" waitingTime="28.00" waitingCount="1" stopTime="0.00" timeLoss="46.97" rerouteNo="1" devices="tripinfo_h12244c1:3 routing_h12244c1:3 emissions_h12244c1:3" vType="default_016" speedFactor="1.18" vaporized="">
        <emissions CO_abs="7391.881289" CO2_abs="342280.473719" HC_abs="41.657226" PMx_abs="6.355326" NOx_abs="139.842753" fuel_abs="147.133288" electricity_abs="0"/>
    </tripinfo>
    <tripinfo id="S5R_frequency1.2" depart="57612.00" departLane="315358250#0_1" departPos="12.10" departSpeed="0.00" departDelay="0.40" arrival="57740.00" arrivalLane="386687235_1" arrivalPos="80.84" arrivalSpeed="13.54" duration="128.00" routeLength="1115.62" waitingTime="22.00" waitingCount="2" stopTime="0.00" timeLoss="46.22" rerouteNo="1" devices="tripinfo_S5R_frequency1.2 routing_S5R_frequency1.2 emissions_S5R_frequency1.2" vType="bus" speedFactor="1.00" vaporized="">
        <emissions CO_abs="2384.855616" CO2_abs="1358880.086426" HC_abs="519.499426" PMx_abs="253.149224" NOx_abs="10900.310366" fuel_abs="579.510962" electricity_abs="0"/>
    </tripinfo>
    <tripinfo id="h7181c1:1" depart="57660.00" departLane="315358254#0_1" departPos="5.10" departSpeed="0.00" departDelay="0.10" arrival="57741.00" arrivalLane="306240162#0_0" arrivalPos="220.43" arrivalSpeed="15.17" duration="81.00" routeLength="932.35" waitingTime="9.00" waitingCount="2" stopTime="0.00" timeLoss="27.98" rerouteNo="1" devices="tripinfo_h7181c1:1 routing_h7181c1:1 emissions_h7181c1:1" vType="default_016" speedFactor="0.97" vaporized="">
        <emissions CO_abs="4815.638891" CO2_abs="292690.039179" HC_abs="28.897392" PMx_abs="5.726855" NOx_abs="121.661337" fuel_abs="125.814508" electricity_abs="0"/>
    </tripinfo>
    <tripinfo id="carIn80064:1" depart="57603.00" departLane="128361109#1_1" departPos="5.10" departSpeed="0.00" departDelay="0.40" arrival="57750.00" arrivalLane="-315358254#1_1" arrivalPos="137.16" arrivalSpeed="13.89" duration="147.00" routeLength="1587.97" waitingTime="28.00" waitingCount="3" stopTime="0.00" timeLoss="64.83" rerouteNo="1" devices="tripinfo_carIn80064:1 routing_carIn80064:1 emissions_carIn80064:1" vType="default_016" speedFactor="1.09" vaporized="">
        <emissions CO_abs="9627.224278" CO2_abs="524618.796648" HC_abs="56.397890" PMx_abs="10.641718" NOx_abs="219.691281" fuel_abs="225.510790" electricity_abs="0"/>
    </tripinfo>
    <tripinfo id="carIn30817:1" depart="57681.00" departLane="315358244_1" departPos="5.10" departSpeed="0.00" departDelay="0.20" arrival="57751.00" arrivalLane="447569997#1_1" arrivalPos="180.93" arrivalSpeed="8.38" duration="70.00" routeLength="718.04" waitingTime="0.00" waitingCount="0" stopTime="0.00" timeLoss="11.59" rerouteNo="1" devices="tripinfo_carIn30817:1 routing_carIn30817:1 emissions_carIn30817:1" vType="default_016" speedFactor="1.06" vaporized="">
        <emissions CO_abs="2616.729201" CO2_abs="156922.533888" HC_abs="15.573458" PMx_abs="2.693417" NOx_abs="63.562050" fuel_abs="67.454586" electricity_abs="0"/>
    </tripinfo>
    <tripinfo id="h317c2:1" depart="57707.00" departLane="-32978638#0_1" departPos="5.10" departSpeed="0.00" departDelay="0.10" arrival="57754.00" arrivalLane="-266565295#5_1" arrivalPos="172.76" arrivalSpeed="13.95" duration="47.00" routeLength="370.53" waitingTime="10.00" waitingCount="1" stopTime="0.00" timeLoss="20.84" rerouteNo="1" devices="tripinfo_h317c2:1 routing_h317c2:1 emissions_h317c2:1" vType="default_016" speedFactor="1.07" vaporized="">
        <emissions CO_abs="3249.695717" CO2_abs="145437.150301" HC_abs="18.243533" PMx_abs="2.865523" NOx_abs="61.391205" fuel_abs="62.517623" electricity_abs="0"/>
    </tripinfo>
    <tripinfo id="h5979c1:5" depart="57669.00" departLane="399835085#1_1" departPos="5.10" departSpeed="0.00" departDelay="0.00" arrival="57756.00" arrivalLane="-315358254#1_1" arrivalPos="137.16" arrivalSpeed="16.89" duration="87.00" routeLength="659.33" waitingTime="0.00" waitingCount="0" stopTime="0.00" timeLoss="27.49" rerouteNo="1" devices="tripinfo_h5979c1:5 routing_h5979c1:5 emissions_h5979c1:5" vType="default_016" speedFactor="1.24" vaporized="">
        <emissions CO_abs="4247.920032" CO2_abs="212550.205150" HC_abs="24.286062" PMx_abs="3.697134" NOx_abs="87.206851" fuel_abs="91.367096" electricity_abs="0"/>
    </tripinfo>
    <tripinfo id="h9563c2:5" depart="57631.00" departLane="315358244_1" departPos="5.10" departSpeed="0.00" departDelay="0.70" arrival="57757.00" arrivalLane="386687235_1" arrivalPos="80.84" arrivalSpeed="15.37" duration="126.00" routeLength="1186.14" waitingTime="19.00" waitingCount="3" stopTime="0.00" timeLoss="49.74" rerouteNo="1" devices="tripinfo_h9563c2:5 routing_h9563c2:5 emissions_h9563c2:5" vType="default_016" speedFactor="1.14" vaporized="">
        <emissions CO_abs="6103.821004" CO2_abs="360299.597555" HC_abs="36.275379" PMx_abs="6.799360" NOx_abs="149.170478" fuel_abs="154.877289" electricity_abs="0"/>
    </tripinfo>
    <tripinfo id="h4538c1:1" depart="57701.00" departLane="-10427692#1_1" departPos="5.10" departSpeed="0.00" departDelay="0.00" arrival="57758.00" arrivalLane="-128361102#1_1" arrivalPos="274.68" arrivalSpeed="12.96" duration="57.00" routeLength="440.74" waitingTime="13.00" waitingCount="1" stopTime="0.00" timeLoss="23.13" rerouteNo="1" devices="tripinfo_h4538c1:1 routing_h4538c1:1 emissions_h4538c1:1" vType="default_016" speedFactor="0.94" vaporized="">
        <emissions CO_abs="2966.841320" CO2_abs="130467.726744" HC_abs="16.561086" PMx_abs="2.369540" NOx_abs="53.734315" fuel_abs="56.083221" electricity_abs="0"/>
    </tripinfo>
    <tripinfo id="h3326c1:2" depart="57656.00" departLane="22716069#0_1" departPos="5.10" departSpeed="0.00" departDelay="0.00" arrival="57763.00" arrivalLane="24634517#13_1" arrivalPos="111.62" arrivalSpeed="14.02" duration="107.00" routeLength="1312.81" waitingTime="0.00" waitingCount="0" stopTime="0.00" timeLoss="16.01" rerouteNo="1" devices="tripinfo_h3326c1:2 routing_h3326c1:2 emissions_h3326c1:2" vType="default_016" speedFactor="1.07" vaporized="">
        <emissions CO_abs="4051.320776" CO2_abs="320703.455916" HC_abs="25.902651" PMx_abs="5.435847" NOx_abs="128.210222" fuel_abs="137.856427" electricity_abs="0"/>
    </tripinfo>
    <tripinfo id="h3154c1:1" depart="57658.00" departLane="24634507_1" departPos="5.10" departSpeed="0.00" departDelay="0.00" arrival="57771.00" arrivalLane="-266565295#5_1" arrivalPos="172.76" arrivalSpeed="13.51" duration="113.00" routeLength="1206.22" waitingTime="7.00" waitingCount="1" stopTime="0.00" timeLoss="24.39" rerouteNo="1" devices="tripinfo_h3154c1:1 routing_h3154c1:1 emissions_h3154c1:1" vType="default_016" speedFactor="1.00" vaporized="">
        <emissions CO_abs="3987.305099" CO2_abs="279274.433700" HC_abs="24.688372" PMx_abs="4.666989" NOx_abs="111.648659" fuel_abs="120.048361" electricity_abs="0"/>
    </tripinfo>
    <tripinfo id="carIn22761:1" depart="57616.00" departLane="-306240162#1_0" departPos="5.10" departSpeed="0.00" departDelay="2.10" arrival="57773.00" arrivalLane="399835085#1_1" arrivalPos="212.23" arrivalSpeed="6.65" duration="157.00" routeLength="1093.26" waitingTime="38.00" waitingCount="2" stopTime="0.00" timeLoss="62.18" rerouteNo="1" devices="tripinfo_carIn22761:1 routing_carIn22761:1 emissions_carIn22761:1" vType="default_016" speedFactor="0.83" vaporized="">
        <emissions CO_abs="9983.895334" CO2_abs="377556.968373" HC_abs="54.288655" PMx_abs="7.188890" NOx_abs="157.598615" fuel_abs="162.298381" electricity_abs="0"/>
    </tripinfo>
    <tripinfo id="h645c1:1" depart="57622.00" departLane="266565295#5_1" departPos="5.10" departSpeed="0.00" departDelay="0.40" arrival="57773.00" arrivalLane="-315358244_2" arrivalPos="33.95" arrivalSpeed="14.67" duration="151.00" routeLength="1910.83" waitingTime="5.00" waitingCount="1" stopTime="0.00" timeLoss="24.72" rerouteNo="1" devices="tripinfo_h645c1:1 routing_h645c1:1 emissions_h645c1:1" vType="default_016" speedFactor="1.10" vaporized="">
        <emissions CO_abs="4798.163487" CO2_abs="378450.435278" HC_abs="30.660433" PMx_abs="6.335196" NOx_abs="149.755468" fuel_abs="162.679581" electricity_abs="0"/>
    </tripinfo>
    <tripinfo id="carIn121703:1" depart="57647.00" departLane="386687232#0_1" departPos="5.10" departSpeed="0.00" departDelay="0.30" arrival="57774.00" arrivalLane="-315358244_1" arrivalPos="33.95" arrivalSpeed="12.54" duration="127.00" routeLength="1157.39" waitingTime="12.00" waitingCount="2" stopTime="0.00" timeLoss="34.50" rerouteNo="1" devices="tripinfo_carIn121703:1 routing_carIn121703:1 emissions_carIn121703:1" vType="default_016" speedFactor="0.91" vaporized="">
        <emissions CO_abs="4883.676202" CO2_abs="298301.581802" HC_abs="29.187452" PMx_abs="4.967260" NOx_abs="119.861505" fuel_abs="128.227821" electricity_abs="0"/>
    </tripinfo>
    <tripinfo id="carIn27009:1" depart="57673.00" departLane="-447569998#1_1" departPos="5.10" departSpeed="0.00" departDelay="0.50" arrival="57775.00" arrivalLane="-26677539_1" arrivalPos="152.75" arrivalSpeed="7.32" duration="102.00" routeLength="699.63" waitingTime="1.00" waitingCount="1" stopTime="0.00" timeLoss="17.82" rerouteNo="1" devices="tripinfo_carIn27009:1 routing_carIn27009:1 emissions_carIn27009:1" vType="default_015" speedFactor="1.00" vaporized="">
        <emissions CO_abs="4237.761341" CO2_abs="191313.606777" HC_abs="23.689423" PMx_abs="3.132012" NOx_abs="77.857944" fuel_abs="82.238894" electricity_abs="0"/>
    </tripinfo>
    <tripinfo id="h330c1:1" depart="57736.00" departLane="-32978638#0_1" departPos="5.10" departSpeed="0.00" departDelay="0.20" arrival="57786.00" arrivalLane="-266565295#5_1" arrivalPos="172.76" arrivalSpeed="12.17" duration="50.00" routeLength="370.53" waitingTime="12.00" waitingCount="1" stopTime="0.00" timeLoss="21.43" rerouteNo="1" devices="tripinfo_h330c1:1 routing_h330c1:1 emissions_h330c1:1" vType="default_016" speedFactor="0.96" vaporized="">
        <emissions CO_abs="3108.024533" CO2_abs="128149.589056" HC_abs="17.166895" PMx_abs="2.464996" NOx_abs="53.897192" fuel_abs="55.086672" electricity_abs="0"/>
    </tripinfo>
    <tripinfo id="carIn118591:1" depart="57689.00" departLane="315358244_1" departPos="5.10" departSpeed="0.00" departDelay="0.20" arrival="57790.00" arrivalLane="386687235_1" arrivalPos="80.84" arrivalSpeed="13.44" duration="101.00" routeLength="1186.14" waitingTime="1.00" waitingCount="1" stopTime="0.00" timeLoss="14.93" rerouteNo="1" devices="tripinfo_carIn118591:1 routing_carIn118591:1 emissions_carIn118591:1" vType="default_016" speedFactor="1.01" vaporized="">
        <emissions CO_abs="3251.419608" CO2_abs="244106.853213" HC_abs="20.463977" PMx_abs="3.994052" NOx_abs="96.720094" fuel_abs="104.931248" electricity_abs="0"/>
    </tripinfo>
    <tripinfo id="carIn107282:1" depart="57749.00" departLane="-447569998#1_1" departPos="5.10" departSpeed="0.00" departDelay="0.00" arrival="57793.00" arrivalLane="315358242#0_1" arrivalPos="165.37" arrivalSpeed="14.18" duration="44.00" routeLength="448.50" waitingTime="0.00" waitingCount="0" stopTime="0.00" timeLoss="5.68" rerouteNo="1" devices="tripinfo_carIn107282:1 routing_carIn107282:1 emissions_carIn107282:1" vType="default_016" speedFactor="1.09" vaporized="">
        <emissions CO_abs="1772.402476" CO2_abs="108498.364781" HC_abs="10.570656" PMx_abs="1.819739" NOx_abs="43.694654" fuel_abs="46.639042" electricity_abs="0"/>
    </tripinfo>
    <tripinfo id="carIn86816:1" depart="57617.00" departLane="128361102#0_1" departPos="5.10" departSpeed="0.00" departDelay="0.80" arrival="57794.00" arrivalLane="201956811#0_1" arrivalPos="40.40" arrivalSpeed="12.69" duration="177.00" routeLength="2067.33" waitingTime="0.00" waitingCount="0" stopTime="0.00" timeLoss="21.58" rerouteNo="1" devices="tripinfo_carIn86816:1 routing_carIn86816:1 emissions_carIn86816:1" vType="default_016" speedFactor="0.97" vaporized="">
        <emissions CO_abs="5282.224600" CO2_abs="418186.437818" HC_abs="33.793230" PMx_abs="6.761860" NOx_abs="165.592553" fuel_abs="179.760570" electricity_abs="0"/>
    </tripinfo>
    <tripinfo id="carIn12365:1" depart="57713.00" departLane="315358244_1" departPos="5.10" departSpeed="0.00" departDelay="0.50" arrival="57794.00" arrivalLane="447569997#1_1" arrivalPos="180.93" arrivalSpeed="8.43" duration="81.00" routeLength="718.04" waitingTime="6.00" waitingCount="1" stopTime="0.00" timeLoss="21.34" rerouteNo="1" devices="tripinfo_carIn12365:1 routing_carIn12365:1 emissions_carIn12365:1" vType="default_016" speedFactor="1.04" vaporized="">
        <emissions CO_abs="3265.068836" CO2_abs="200178.842984" HC_abs="19.514937" PMx_abs="3.432806" NOx_abs="81.151475" fuel_abs="86.048636" electricity_abs="0"/>
    </tripinfo>
    <tripinfo id="h11737c1:1" depart="57665.00" departLane="272042143_1" departPos="5.10" departSpeed="0.00" departDelay="1.50" arrival="57796.00" arrivalLane="-315358254#1_1" arrivalPos="137.16" arrivalSpeed="15.20" duration="131.00" routeLength="1596.88" waitingTime="10.00" waitingCount="1" stopTime="0.00" timeLoss="28.52" rerouteNo="1" devices="tripinfo_h11737c1:1 routing_h11737c1:1 emissions_h11737c1:1" vType="default_016" speedFactor="1.14" vaporized="">
        <emissions CO_abs="5185.663614" CO2_abs="378462.837543" HC_abs="32.381885" PMx_abs="6.688094" NOx_abs="152.345796" fuel_abs="162.684654" electricity_abs="0"/>
    </tripinfo>
    <tripinfo id="carIn126288:1" depart="57674.00" departLane="272042143_1" departPos="5.10" departSpeed="0.00" departDelay="0.00" arrival="57798.00" arrivalLane="-315358254#1_1" arrivalPos="137.16" arrivalSpeed="16.92" duration="124.00" routeLength="1596.88" waitingTime="8.00" waitingCount="1" stopTime="0.00" timeLoss="30.42" rerouteNo="1" devices="tripinfo_carIn126288:1 routing_carIn126288:1 emissions_carIn126288:1" vType="default_016" speedFactor="1.26" vaporized="">
        <emissions CO_abs="5657.946673" CO2_abs="391206.436186" HC_abs="35.036394" PMx_abs="7.462061" NOx_abs="161.035467" fuel_abs="168.162007" electricity_abs="0"/>
    </tripinfo>
    <tripinfo id="carIn28951:1" depart="57606.00" departLane="10425609#0_1" departPos="5.10" departSpeed="0.00" departDelay="0.20" arrival="57820.00" arrivalLane="-128361102#1_1" arrivalPos="274.68" arrivalSpeed="11.37" duration="214.00" routeLength="2113.04" waitingTime="13.00" waitingCount="2" stopTime="0.00" timeLoss="42.99" rerouteNo="1" devices="tripinfo_carIn28951:1 routing_carIn28951:1 emissions_carIn28951:1" vType="default_016" speedFactor="0.91" vaporized="">
        <emissions CO_abs="7909.777911" CO2_abs="483682.663678" HC_abs="47.280661" PMx_abs="8.006991" NOx_abs="193.793336" fuel_abs="207.915764" electricity_abs="0"/>
    </tripinfo>
    <tripinfo id="carIn107084:1" depart="57601.00" departLane="124812856#0_1" departPos="5.10" departSpeed="0.00" departDelay="0.70" arrival="57821.00" arrivalLane="-128361102#1_1" arrivalPos="274.68" arrivalSpeed="13.62" duration="220.00" routeLength="2250.49" waitingTime="13.00" waitingCount="1" stopTime="0.00" timeLoss="62.95" rerouteNo="1" devices="tripinfo_carIn107084:1 routing_carIn107084:1 emissions_carIn107084:1" vType="default_016" speedFactor="1.05" vaporized="">
        <emissions CO_abs="9650.220545" CO2_abs="595139.501493" HC_abs="57.903703" PMx_abs="10.636307" NOx_abs="243.711112" fuel_abs="255.825287" electricity_abs="0"/>
    </tripinfo>
    <tripinfo id="carIn77943:1" depart="57608.00" departLane="124812856#0_1" departPos="5.10" departSpeed="0.00" departDelay="2.50" arrival="57823.00" arrivalLane="-128361102#1_1" arrivalPos="274.68" arrivalSpeed="13.06" duration="215.00" routeLength="2250.49" waitingTime="8.00" waitingCount="1" stopTime="0.00" timeLoss="54.63" rerouteNo="1" devices="tripinfo_carIn77943:1 routing_carIn77943:1 emissions_carIn77943:1" vType="default_016" speedFactor="1.03" vaporized="">
        <emissions CO_abs="9053.920426" CO2_abs="594203.785449" HC_abs="55.190445" PMx_abs="10.456092" NOx_abs="241.887380" fuel_abs="255.422861" electricity_abs="0"/>
    </tripinfo>
    <tripinfo id="carIn82220:1" depart="57619.00" departLane="-306240162#1_0" departPos="5.10" departSpeed="0.00" departDelay="3.50" arrival="57823.00" arrivalLane="386687235_2" arrivalPos="80.84" arrivalSpeed="14.73" duration="204.00" routeLength="2257.41" waitingTime="20.00" waitingCount="3" stopTime="0.00" timeLoss="71.11" rerouteNo="1" devices="tripinfo_carIn82220:1 routing_carIn82220:1 emissions_carIn82220:1" vType="default_016" speedFactor="1.12" vaporized="">
        <emissions CO_abs="9405.815959" CO2_abs="616540.679161" HC_abs="57.356586" PMx_abs="11.216395" NOx_abs="250.948813" fuel_abs="265.024225" electricity_abs="0"/>
    </tripinfo>
    <tripinfo id="carIn48184:1" depart="57613.00" departLane="-306240162#1_0" departPos="5.10" departSpeed="0.00" departDelay="0.70" arrival="57824.00" arrivalLane="386687235_1" arrivalPos="80.84" arrivalSpeed="13.56" duration="211.00" routeLength="2257.41" waitingTime="25.00" waitingCount="3" stopTime="0.00" timeLoss="61.23" rerouteNo="1" devices="tripinfo_carIn48184:1 routing_carIn48184:1 emissions_carIn48184:1" vType="default_016" speedFactor="0.99" vaporized="">
        <emissions CO_abs="9673.185960" CO2_abs="584012.766699" HC_abs="57.820374" PMx_abs="10.721033" NOx_abs="238.842672" fuel_abs="251.042337" electricity_abs="0"/>
    </tripinfo>
    <tripinfo id="carIn81046:1" depart="57611.00" departLane="124812856#0_1" departPos="5.10" departSpeed="0.00" departDelay="2.50" arrival="57825.00" arrivalLane="-128361102#1_1" arrivalPos="274.68" arrivalSpeed="14.45" duration="214.00" routeLength="2250.49" waitingTime="8.00" waitingCount="1" stopTime="0.00" timeLoss="67.90" rerouteNo="1" devices="tripinfo_carIn81046:1 routing_carIn81046:1 emissions_carIn81046:1" vType="default_016" speedFactor="1.13" vaporized="">
        <emissions CO_abs="9182.778309" CO2_abs="604924.651726" HC_abs="56.124934" PMx_abs="11.095470" NOx_abs="249.639104" fuel_abs="260.030539" electricity_abs="0"/>
    </tripinfo>
    <tripinfo id="carIn462:1" depart="57622.00" departLane="-306240162#1_0" departPos="5.10" departSpeed="0.00" departDelay="4.80" arrival="57825.00" arrivalLane="386687235_2" arrivalPos="80.84" arrivalSpeed="15.27" duration="203.00" routeLength="2257.41" waitingTime="28.00" waitingCount="3" stopTime="0.00" timeLoss="76.74" rerouteNo="1" devices="tripinfo_carIn462:1 routing_carIn462:1 emissions_carIn462:1" vType="default_016" speedFactor="1.18" vaporized="">
        <emissions CO_abs="11191.504637" CO2_abs="634082.738666" HC_abs="66.017464" PMx_abs="12.308678" NOx_abs="263.636967" fuel_abs="272.564864" electricity_abs="0"/>
    </tripinfo>
    <tripinfo id="h16072c2:3" depart="57663.00" departLane="315358254#0_1" departPos="5.10" departSpeed="0.00" departDelay="2.50" arrival="57825.00" arrivalLane="386687235_1" arrivalPos="80.84" arrivalSpeed="15.12" duration="162.00" routeLength="1611.92" waitingTime="26.00" waitingCount="3" stopTime="0.00" timeLoss="59.57" rerouteNo="1" devices="tripinfo_h16072c2:3 routing_h16072c2:3 emissions_h16072c2:3" vType="default_016" speedFactor="1.14" vaporized="">
        <emissions CO_abs="7907.203272" CO2_abs="442791.589450" HC_abs="46.316867" PMx_abs="7.992228" NOx_abs="180.178986" fuel_abs="190.338023" electricity_abs="0"/>
    </tripinfo>
    <tripinfo id="carIn77438:1" depart="57614.00" departLane="124812856#0_1" departPos="5.10" departSpeed="0.00" departDelay="1.10" arrival="57826.00" arrivalLane="-128361102#1_1" arrivalPos="274.68" arrivalSpeed="14.12" duration="212.00" routeLength="2250.49" waitingTime="6.00" waitingCount="1" stopTime="0.00" timeLoss="50.77" rerouteNo="1" devices="tripinfo_carIn77438:1 routing_carIn77438:1 emissions_carIn77438:1" vType="default_016" speedFactor="1.02" vaporized="">
        <emissions CO_abs="8337.711702" CO2_abs="557960.135929" HC_abs="51.081612" PMx_abs="9.865255" NOx_abs="227.518133" fuel_abs="239.843040" electricity_abs="0"/>
    </tripinfo>
    <tripinfo id="h19804c1:3" depart="57617.00" departLane="124812856#0_1" departPos="5.10" departSpeed="0.00" departDelay="1.50" arrival="57828.00" arrivalLane="-128361102#1_1" arrivalPos="274.68" arrivalSpeed="12.71" duration="211.00" routeLength="2250.49" waitingTime="5.00" waitingCount="1" stopTime="0.00" timeLoss="42.70" rerouteNo="1" devices="tripinfo_h19804c1:3 routing_h19804c1:3 emissions_h19804c1:3" vType="default_016" speedFactor="0.97" vaporized="">
        <emissions CO_abs="7238.921070" CO2_abs="514098.156524" HC_abs="44.998055" PMx_abs="8.660367" NOx_abs="206.489412" fuel_abs="220.988981" electricity_abs="0"/>
    </tripinfo>
    <tripinfo id="h3864c1:3" depart="57678.00" departLane="24693977#1_1" departPos="5.10" departSpeed="0.00" departDelay="0.00" arrival="57828.00" arrivalLane="201956820_2" arrivalPos="48.33" arrivalSpeed="13.37" duration="150.00" routeLength="1574.85" waitingTime="0.00" waitingCount="0" stopTime="0.00" timeLoss="19.69" rerouteNo="1" devices="tripinfo_h3864c1:3 routing_h3864c1:3 emissions_h3864c1:3" vType="default_016" speedFactor="1.00" vaporized="">
        <emissions CO_abs="5458.730680" CO2_abs="383560.297768" HC_abs="33.780413" PMx_abs="6.331272" NOx_abs="153.514929" fuel_abs="164.876508" electricity_abs="0"/>
    </tripinfo>
    <tripinfo id="carIn82278:1" depart="57702.00" departLane="-306240162#1_0" departPos="5.10" departSpeed="0.00" departDelay="0.70" arrival="57832.00" arrivalLane="399835085#1_1" arrivalPos="212.23" arrivalSpeed="8.35" duration="130.00" routeLength="1093.26" waitingTime="38.00" waitingCount="1" stopTime="0.00" timeLoss="56.90" rerouteNo="1" devices="tripinfo_carIn82278:1 routing_carIn82278:1 emissions_carIn82278:1" vType="default_016" speedFactor="1.07" vaporized="">
        <emissions CO_abs="10196.959092" CO2_abs="384473.601329" HC_abs="55.582277" PMx_abs="7.930728" NOx_abs="162.859887" fuel_abs="165.270857" electricity_abs="0"/>
    </tripinfo>
    <tripinfo id="carIn129809:1" depart="57729.00" departLane="-447569998#1_1" departPos="5.10" departSpeed="0.00" departDelay="1.00" arrival="57833.00" arrivalLane="-315358244_1" arrivalPos="33.95" arrivalSpeed="13.93" duration="104.00" routeLength="706.49" waitingTime="30.00" waitingCount="2" stopTime="0.00" timeLoss="46.78" rerouteNo="1" devices="tripinfo_carIn129809:1 routing_carIn129809:1 emissions_carIn129809:1" vType="default_015" speedFactor="1.05" vaporized="">
        <emissions CO_abs="6069.940749" CO2_abs="234253.281152" HC_abs="33.131623" PMx_abs="4.485779" NOx_abs="98.162688" fuel_abs="100.697030" electricity_abs="0"/>
    </tripinfo>
    <tripinfo id="randUni15030:1" depart="57735.00" departLane="386687232#0_1" departPos="5.10" departSpeed="0.00" departDelay="0.10" arrival="57837.00" arrivalLane="26677539_1" arrivalPos="151.98" arrivalSpeed="8.24" duration="102.00" routeLength="919.89" waitingTime="6.00" waitingCount="1" stopTime="0.00" timeLoss="21.54" rerouteNo="1" devices="tripinfo_randUni15030:1 routing_randUni15030:1 emissions_randUni15030:1" vType="random_016" speedFactor="1.04" vaporized="">
        <emissions CO_abs="4331.091338" CO2_abs="244248.482621" HC_abs="25.403766" PMx_abs="4.095938" NOx_abs="98.564970" fuel_abs="104.992789" electricity_abs="0"/>
    </tripinfo>
    <tripinfo id="carIn8642:1" depart="57774.00" departLane="-447569998#1_1" departPos="5.10" departSpeed="0.00" departDelay="0.90" arrival="57838.00" arrivalLane="-315358244_1" arrivalPos="33.95" arrivalSpeed="13.83" duration="64.00" routeLength="706.49" waitingTime="0.00" waitingCount="0" stopTime="0.00" timeLoss="6.31" rerouteNo="1" devices="tripinfo_carIn8642:1 routing_carIn8642:1 emissions_carIn8642:1" vType="default_016" speedFactor="1.05" vaporized="">
        <emissions CO_abs="2094.121494" CO2_abs="153168.329275" HC_abs="13.092333" PMx_abs="2.442349" NOx_abs="60.382843" fuel_abs="65.840746" electricity_abs="0"/>
    </tripinfo>
    <tripinfo id="carIn116184:1" depart="57627.00" departLane="-306240162#1_0" departPos="5.10" departSpeed="0.00" departDelay="0.10" arrival="57839.00" arrivalLane="386687235_1" arrivalPos="80.84" arrivalSpeed="12.88" duration="212.00" routeLength="2257.41" waitingTime="24.00" waitingCount="3" stopTime="0.00" timeLoss="61.08" rerouteNo="1" devices="tripinfo_carIn116184:1 routing_carIn116184:1 emissions_carIn116184:1" vType="default_016" speedFactor="0.99" vaporized="">
        <emissions CO_abs="9916.966629" CO2_abs="595329.496818" HC_abs="59.155614" PMx_abs="10.561306" NOx_abs="240.903902" fuel_abs="255.907555" electricity_abs="0"/>
    </tripinfo>