<?xml version="1.0" encoding="UTF-8"?>

<!-- generated on 2021-10-26 13:10:44 by Eclipse SUMO sumo Version 1.10.0
<configuration xmlns:xsi="http://www.w3.org/2001/XMLSchema-instance" xsi:noNamespaceSchemaLocation="http://sumo.dlr.de/xsd/sumoConfiguration.xsd">

    <input>
        <net-file value="/Users/behradkoohy/sumo-scratchpad/RESCO/environments/ingolstadt21/ingolstadt21.net.xml"/>
        <route-files value="/Users/behradkoohy/sumo-scratchpad/RESCO/environments/ingolstadt21/ingolstadt21.rou.xml"/>
    </input>

    <output>
        <tripinfo-output value="/Users/behradkoohy/sumo-scratchpad/RESCO/logs/IDQN-tr0-ingolstadt21-21-drq_norm-wait_norm/tripinfo_85.xml"/>
        <tripinfo-output.write-unfinished value="true"/>
    </output>

    <time>
        <begin value="57600"/>
        <end value="61200"/>
    </time>

    <processing>
        <time-to-teleport value="-1"/>
    </processing>

    <report>
        <no-warnings value="true"/>
        <no-step-log value="true"/>
    </report>

    <emissions>
        <device.emissions.probability value="1"/>
    </emissions>

    <traci_server>
        <remote-port value="58745"/>
    </traci_server>

    <random_number>
        <random value="true"/>
    </random_number>

</configuration>
-->

<tripinfos xmlns:xsi="http://www.w3.org/2001/XMLSchema-instance" xsi:noNamespaceSchemaLocation="http://sumo.dlr.de/xsd/tripinfo_file.xsd">
    <tripinfo id="h15454c2:3" depart="57612.00" departLane="24608844_1" departPos="5.10" departSpeed="0.00" departDelay="0.50" arrival="57648.00" arrivalLane="32978638#0_1" arrivalPos="49.29" arrivalSpeed="16.00" duration="36.00" routeLength="354.79" waitingTime="0.00" waitingCount="0" stopTime="0.00" timeLoss="6.34" rerouteNo="1" devices="tripinfo_h15454c2:3 routing_h15454c2:3 emissions_h15454c2:3" vType="default_016" speedFactor="1.15" vaporized="">
        <emissions CO_abs="2106.934855" CO2_abs="123361.649008" HC_abs="12.520620" PMx_abs="2.360236" NOx_abs="51.789514" fuel_abs="53.027780" electricity_abs="0"/>
    </tripinfo>
    <tripinfo id="carIn60260:1" depart="57606.00" departLane="315358254#0_1" departPos="5.10" departSpeed="0.00" departDelay="0.90" arrival="57671.00" arrivalLane="399835085#1_1" arrivalPos="212.23" arrivalSpeed="7.49" duration="65.00" routeLength="430.98" waitingTime="11.00" waitingCount="1" stopTime="0.00" timeLoss="21.13" rerouteNo="1" devices="tripinfo_carIn60260:1 routing_carIn60260:1 emissions_carIn60260:1" vType="default_016" speedFactor="1.04" vaporized="">
        <emissions CO_abs="3275.858908" CO2_abs="139872.940807" HC_abs="18.177279" PMx_abs="2.552659" NOx_abs="58.373443" fuel_abs="60.126163" electricity_abs="0"/>
    </tripinfo>
    <tripinfo id="carIn53971:1" depart="57640.00" departLane="272042143_1" departPos="5.10" departSpeed="0.00" departDelay="0.80" arrival="57696.00" arrivalLane="24634414#1_1" arrivalPos="162.19" arrivalSpeed="6.95" duration="56.00" routeLength="493.04" waitingTime="0.00" waitingCount="0" stopTime="0.00" timeLoss="9.74" rerouteNo="1" devices="tripinfo_carIn53971:1 routing_carIn53971:1 emissions_carIn53971:1" vType="default_016" speedFactor="0.98" vaporized="">
        <emissions CO_abs="2532.419132" CO2_abs="137265.365357" HC_abs="14.737122" PMx_abs="2.430948" NOx_abs="56.607668" fuel_abs="59.004813" electricity_abs="0"/>
    </tripinfo>
    <tripinfo id="h3688c1:1" depart="57625.00" departLane="201201950#1_1" departPos="5.10" departSpeed="0.00" departDelay="0.00" arrival="57714.00" arrivalLane="32978638#0_1" arrivalPos="49.29" arrivalSpeed="14.15" duration="89.00" routeLength="1089.75" waitingTime="0.00" waitingCount="0" stopTime="0.00" timeLoss="12.30" rerouteNo="1" devices="tripinfo_h3688c1:1 routing_h3688c1:1 emissions_h3688c1:1" vType="default_016" speedFactor="1.04" vaporized="">
        <emissions CO_abs="3261.736125" CO2_abs="256676.438801" HC_abs="20.820752" PMx_abs="4.325287" NOx_abs="102.533385" fuel_abs="110.334053" electricity_abs="0"/>
    </tripinfo>
    <tripinfo id="h7800c1:5" depart="57696.00" departLane="-447569998#1_1" departPos="5.10" departSpeed="0.00" departDelay="0.00" arrival="57718.00" arrivalLane="-447569998#1_1" arrivalPos="180.76" arrivalSpeed="8.47" duration="22.00" routeLength="175.66" waitingTime="0.00" waitingCount="0" stopTime="0.00" timeLoss="3.08" rerouteNo="1" devices="tripinfo_h7800c1:5 routing_h7800c1:5 emissions_h7800c1:5" vType="default_016" speedFactor="1.13" vaporized="">
        <emissions CO_abs="974.027742" CO2_abs="45984.645450" HC_abs="5.504664" PMx_abs="0.813109" NOx_abs="19.065746" fuel_abs="19.767032" electricity_abs="0"/>
    </tripinfo>
    <tripinfo id="h12244c1:3" depart="57612.00" departLane="315358244_1" departPos="5.10" departSpeed="0.00" departDelay="0.40" arrival="57727.00" arrivalLane="386687235_1" arrivalPos="80.84" arrivalSpeed="12.82" duration="115.00" routeLength="1186.14" waitingTime="12.00" waitingCount="1" stopTime="0.00" timeLoss="26.26" rerouteNo="1" devices="tripinfo_h12244c1:3 routing_h12244c1:3 emissions_h12244c1:3" vType="default_016" speedFactor="0.97" vaporized="">
        <emissions CO_abs="4159.870595" CO2_abs="251251.141307" HC_abs="24.783715" PMx_abs="4.079826" NOx_abs="99.546688" fuel_abs="108.003010" electricity_abs="0"/>
    </tripinfo>
    <tripinfo id="h7181c1:1" depart="57660.00" departLane="315358254#0_1" departPos="5.10" departSpeed="0.00" departDelay="0.10" arrival="57732.00" arrivalLane="306240162#0_0" arrivalPos="220.43" arrivalSpeed="14.90" duration="72.00" routeLength="932.35" waitingTime="5.00" waitingCount="1" stopTime="0.00" timeLoss="17.61" rerouteNo="1" devices="tripinfo_h7181c1:1 routing_h7181c1:1 emissions_h7181c1:1" vType="default_016" speedFactor="0.94" vaporized="">
        <emissions CO_abs="3122.292389" CO2_abs="228879.665545" HC_abs="19.485190" PMx_abs="4.098885" NOx_abs="91.414057" fuel_abs="98.385383" electricity_abs="0"/>
    </tripinfo>
    <tripinfo id="carIn22761:1" depart="57616.00" departLane="-306240162#1_0" departPos="5.10" departSpeed="0.00" departDelay="2.10" arrival="57734.00" arrivalLane="399835085#1_1" arrivalPos="212.23" arrivalSpeed="7.26" duration="118.00" routeLength="1093.26" waitingTime="24.00" waitingCount="1" stopTime="0.00" timeLoss="40.66" rerouteNo="1" devices="tripinfo_carIn22761:1 routing_carIn22761:1 emissions_carIn22761:1" vType="default_016" speedFactor="1.02" vaporized="">
        <emissions CO_abs="7977.656121" CO2_abs="351413.603428" HC_abs="44.668599" PMx_abs="6.888346" NOx_abs="146.353355" fuel_abs="151.059019" electricity_abs="0"/>
    </tripinfo>
    <tripinfo id="h3568c1:3" depart="57656.00" departLane="266565295#5_1" departPos="5.10" departSpeed="0.00" departDelay="0.80" arrival="57737.00" arrivalLane="-24634415_1" arrivalPos="62.03" arrivalSpeed="12.15" duration="81.00" routeLength="807.40" waitingTime="0.00" waitingCount="0" stopTime="0.00" timeLoss="13.64" rerouteNo="1" devices="tripinfo_h3568c1:3 routing_h3568c1:3 emissions_h3568c1:3" vType="default_016" speedFactor="0.96" vaporized="">
        <emissions CO_abs="3198.547620" CO2_abs="201082.901114" HC_abs="19.256512" PMx_abs="3.393496" NOx_abs="81.250123" fuel_abs="86.437265" electricity_abs="0"/>
    </tripinfo>
    <tripinfo id="S5R_frequency1.2" depart="57616.00" departLane="315358250#0_1" departPos="12.10" departSpeed="0.00" departDelay="4.40" arrival="57745.00" arrivalLane="386687235_1" arrivalPos="80.84" arrivalSpeed="12.92" duration="129.00" routeLength="1115.62" waitingTime="12.00" waitingCount="2" stopTime="0.00" timeLoss="47.35" rerouteNo="1" devices="tripinfo_S5R_frequency1.2 routing_S5R_frequency1.2 emissions_S5R_frequency1.2" vType="bus" speedFactor="1.00" vaporized="">
        <emissions CO_abs="2476.099602" CO2_abs="1466038.337486" HC_abs="517.120845" PMx_abs="262.863113" NOx_abs="11619.373680" fuel_abs="625.209828" electricity_abs="0"/>
    </tripinfo>
    <tripinfo id="carIn121703:1" depart="57647.00" departLane="386687232#0_1" departPos="5.10" departSpeed="0.00" departDelay="0.30" arrival="57746.00" arrivalLane="-315358244_1" arrivalPos="33.95" arrivalSpeed="13.48" duration="99.00" routeLength="1157.39" waitingTime="2.00" waitingCount="1" stopTime="0.00" timeLoss="14.85" rerouteNo="1" devices="tripinfo_carIn121703:1 routing_carIn121703:1 emissions_carIn121703:1" vType="default_016" speedFactor="1.00" vaporized="">
        <emissions CO_abs="3043.688168" CO2_abs="230520.170121" HC_abs="19.238590" PMx_abs="3.759848" NOx_abs="91.417292" fuel_abs="99.090892" electricity_abs="0"/>
    </tripinfo>
    <tripinfo id="carIn30817:1" depart="57681.00" departLane="315358244_1" departPos="5.10" departSpeed="0.00" departDelay="0.20" arrival="57750.00" arrivalLane="447569997#1_1" arrivalPos="180.93" arrivalSpeed="7.17" duration="69.00" routeLength="718.04" waitingTime="0.00" waitingCount="0" stopTime="0.00" timeLoss="8.27" rerouteNo="1" devices="tripinfo_carIn30817:1 routing_carIn30817:1 emissions_carIn30817:1" vType="default_016" speedFactor="1.01" vaporized="">
        <emissions CO_abs="2392.119281" CO2_abs="159807.600423" HC_abs="14.587042" PMx_abs="2.473500" NOx_abs="62.819857" fuel_abs="68.694957" electricity_abs="0"/>
    </tripinfo>
    <tripinfo id="h3326c1:2" depart="57656.00" departLane="22716069#0_1" departPos="5.10" departSpeed="0.00" departDelay="0.00" arrival="57753.00" arrivalLane="24634517#13_1" arrivalPos="111.62" arrivalSpeed="16.07" duration="97.00" routeLength="1312.81" waitingTime="0.00" waitingCount="0" stopTime="0.00" timeLoss="15.21" rerouteNo="1" devices="tripinfo_h3326c1:2 routing_h3326c1:2 emissions_h3326c1:2" vType="default_016" speedFactor="1.19" vaporized="">
        <emissions CO_abs="4211.602840" CO2_abs="317715.660444" HC_abs="26.672595" PMx_abs="5.870522" NOx_abs="129.920124" fuel_abs="136.571559" electricity_abs="0"/>
    </tripinfo>
    <tripinfo id="h317c2:1" depart="57707.00" departLane="-32978638#0_1" departPos="5.10" departSpeed="0.00" departDelay="0.10" arrival="57755.00" arrivalLane="-266565295#5_1" arrivalPos="172.76" arrivalSpeed="12.88" duration="48.00" routeLength="370.53" waitingTime="11.00" waitingCount="1" stopTime="0.00" timeLoss="19.79" rerouteNo="1" devices="tripinfo_h317c2:1 routing_h317c2:1 emissions_h317c2:1" vType="default_016" speedFactor="0.99" vaporized="">
        <emissions CO_abs="2942.895416" CO2_abs="131292.936472" HC_abs="16.473968" PMx_abs="2.413502" NOx_abs="54.306534" fuel_abs="56.437862" electricity_abs="0"/>
    </tripinfo>
    <tripinfo id="h4538c1:1" depart="57701.00" departLane="-10427692#1_1" departPos="5.10" departSpeed="0.00" departDelay="0.00" arrival="57757.00" arrivalLane="-128361102#1_1" arrivalPos="274.68" arrivalSpeed="13.69" duration="56.00" routeLength="440.74" waitingTime="12.00" waitingCount="1" stopTime="0.00" timeLoss="23.70" rerouteNo="1" devices="tripinfo_h4538c1:1 routing_h4538c1:1 emissions_h4538c1:1" vType="default_016" speedFactor="0.99" vaporized="">
        <emissions CO_abs="2979.814985" CO2_abs="132151.231079" HC_abs="16.654140" PMx_abs="2.372851" NOx_abs="54.206007" fuel_abs="56.806921" electricity_abs="0"/>
    </tripinfo>
    <tripinfo id="h3154c1:1" depart="57658.00" departLane="24634507_1" departPos="5.10" departSpeed="0.00" departDelay="0.00" arrival="57765.00" arrivalLane="-266565295#5_1" arrivalPos="172.76" arrivalSpeed="14.92" duration="107.00" routeLength="1206.22" waitingTime="4.00" waitingCount="2" stopTime="0.00" timeLoss="28.69" rerouteNo="1" devices="tripinfo_h3154c1:1 routing_h3154c1:1 emissions_h3154c1:1" vType="default_016" speedFactor="1.14" vaporized="">
        <emissions CO_abs="4950.449310" CO2_abs="340242.867267" HC_abs="30.585159" PMx_abs="6.173681" NOx_abs="138.874370" fuel_abs="146.255496" electricity_abs="0"/>
    </tripinfo>
    <tripinfo id="h5979c1:5" depart="57669.00" departLane="399835085#1_1" departPos="5.10" departSpeed="0.00" departDelay="0.00" arrival="57769.00" arrivalLane="-315358254#1_1" arrivalPos="137.16" arrivalSpeed="11.39" duration="100.00" routeLength="659.33" waitingTime="3.00" waitingCount="1" stopTime="0.00" timeLoss="17.78" rerouteNo="1" devices="tripinfo_h5979c1:5 routing_h5979c1:5 emissions_h5979c1:5" vType="default_016" speedFactor="0.89" vaporized="">
        <emissions CO_abs="4139.391337" CO2_abs="181216.223771" HC_abs="22.994382" PMx_abs="2.902782" NOx_abs="73.275973" fuel_abs="77.898601" electricity_abs="0"/>
    </tripinfo>
    <tripinfo id="carIn28951:1" depart="57606.00" departLane="10425609#0_1" departPos="5.10" departSpeed="0.00" departDelay="0.20" arrival="57772.00" arrivalLane="-128361102#1_1" arrivalPos="274.68" arrivalSpeed="16.03" duration="166.00" routeLength="2095.01" waitingTime="12.00" waitingCount="1" stopTime="0.00" timeLoss="34.22" rerouteNo="1" devices="tripinfo_carIn28951:1 routing_carIn28951:1 emissions_carIn28951:1" vType="default_016" speedFactor="1.16" vaporized="">
        <emissions CO_abs="6433.948692" CO2_abs="479639.477725" HC_abs="40.516201" PMx_abs="8.671063" NOx_abs="194.219035" fuel_abs="206.175683" electricity_abs="0"/>
    </tripinfo>
    <tripinfo id="h330c1:1" depart="57736.00" departLane="-32978638#0_1" departPos="5.10" departSpeed="0.00" departDelay="0.20" arrival="57785.00" arrivalLane="-266565295#5_1" arrivalPos="172.76" arrivalSpeed="13.47" duration="49.00" routeLength="370.53" waitingTime="13.00" waitingCount="1" stopTime="0.00" timeLoss="21.41" rerouteNo="1" devices="tripinfo_h330c1:1 routing_h330c1:1 emissions_h330c1:1" vType="default_016" speedFactor="1.02" vaporized="">
        <emissions CO_abs="2990.311365" CO2_abs="133437.785257" HC_abs="16.767222" PMx_abs="2.578639" NOx_abs="56.058527" fuel_abs="57.359653" electricity_abs="0"/>
    </tripinfo>
    <tripinfo id="carIn50326:1" depart="57651.00" departLane="128361102#0_1" departPos="5.10" departSpeed="0.00" departDelay="0.30" arrival="57789.00" arrivalLane="18809673#0_1" arrivalPos="473.56" arrivalSpeed="14.11" duration="138.00" routeLength="1591.07" waitingTime="0.00" waitingCount="0" stopTime="0.00" timeLoss="15.81" rerouteNo="1" devices="tripinfo_carIn50326:1 routing_carIn50326:1 emissions_carIn50326:1" vType="default_016" speedFactor="1.07" vaporized="">
        <emissions CO_abs="4381.329324" CO2_abs="333793.765006" HC_abs="27.680139" PMx_abs="5.394755" NOx_abs="131.960658" fuel_abs="143.483905" electricity_abs="0"/>
    </tripinfo>
    <tripinfo id="h9563c2:5" depart="57631.00" departLane="315358244_1" departPos="5.10" departSpeed="0.00" departDelay="0.70" arrival="57791.00" arrivalLane="386687235_1" arrivalPos="80.84" arrivalSpeed="11.52" duration="160.00" routeLength="1186.14" waitingTime="40.00" waitingCount="1" stopTime="0.00" timeLoss="56.63" rerouteNo="1" devices="tripinfo_h9563c2:5 routing_h9563c2:5 emissions_h9563c2:5" vType="default_016" speedFactor="0.84" vaporized="">
        <emissions CO_abs="9184.701893" CO2_abs="328416.469112" HC_abs="49.436111" PMx_abs="5.905512" NOx_abs="135.143567" fuel_abs="141.175551" electricity_abs="0"/>
    </tripinfo>
    <tripinfo id="carIn48184:1" depart="57613.00" departLane="-306240162#1_0" departPos="5.10" departSpeed="0.00" departDelay="0.70" arrival="57794.00" arrivalLane="386687235_1" arrivalPos="80.84" arrivalSpeed="13.17" duration="181.00" routeLength="2257.41" waitingTime="1.00" waitingCount="1" stopTime="0.00" timeLoss="24.32" rerouteNo="1" devices="tripinfo_carIn48184:1 routing_carIn48184:1 emissions_carIn48184:1" vType="default_016" speedFactor="0.95" vaporized="">
        <emissions CO_abs="6312.253020" CO2_abs="495753.236730" HC_abs="40.373293" PMx_abs="8.422733" NOx_abs="197.369932" fuel_abs="213.102820" electricity_abs="0"/>
    </tripinfo>
    <tripinfo id="carIn82220:1" depart="57619.00" departLane="-306240162#1_0" departPos="5.10" departSpeed="0.00" departDelay="3.50" arrival="57794.00" arrivalLane="386687235_2" arrivalPos="80.84" arrivalSpeed="13.29" duration="175.00" routeLength="2257.41" waitingTime="0.00" waitingCount="0" stopTime="0.00" timeLoss="26.76" rerouteNo="1" devices="tripinfo_carIn82220:1 routing_carIn82220:1 emissions_carIn82220:1" vType="default_016" speedFactor="1.01" vaporized="">
        <emissions CO_abs="6567.546043" CO2_abs="508176.238816" HC_abs="41.943584" PMx_abs="9.015443" NOx_abs="204.700718" fuel_abs="218.442447" electricity_abs="0"/>
    </tripinfo>
    <tripinfo id="carIn129809:1" depart="57729.00" departLane="-447569998#1_1" departPos="5.10" departSpeed="0.00" departDelay="1.00" arrival="57794.00" arrivalLane="-315358244_1" arrivalPos="33.95" arrivalSpeed="14.01" duration="65.00" routeLength="706.49" waitingTime="0.00" waitingCount="0" stopTime="0.00" timeLoss="8.19" rerouteNo="1" devices="tripinfo_carIn129809:1 routing_carIn129809:1 emissions_carIn129809:1" vType="default_015" speedFactor="1.06" vaporized="">
        <emissions CO_abs="2379.772282" CO2_abs="158269.352432" HC_abs="14.449750" PMx_abs="2.585992" NOx_abs="62.929659" fuel_abs="68.033529" electricity_abs="0"/>
    </tripinfo>
    <tripinfo id="carIn462:1" depart="57622.00" departLane="-306240162#1_0" departPos="5.10" departSpeed="0.00" departDelay="4.80" arrival="57796.00" arrivalLane="386687235_1" arrivalPos="80.84" arrivalSpeed="12.37" duration="174.00" routeLength="2257.41" waitingTime="0.00" waitingCount="0" stopTime="0.00" timeLoss="22.15" rerouteNo="1" devices="tripinfo_carIn462:1 routing_carIn462:1 emissions_carIn462:1" vType="default_016" speedFactor="0.98" vaporized="">
        <emissions CO_abs="5715.233391" CO2_abs="448692.480719" HC_abs="36.569249" PMx_abs="7.834742" NOx_abs="179.700130" fuel_abs="192.873147" electricity_abs="0"/>
    </tripinfo>
    <tripinfo id="carIn80064:1" depart="57603.00" departLane="128361109#1_1" departPos="5.10" departSpeed="0.00" departDelay="0.40" arrival="57797.00" arrivalLane="-315358254#1_1" arrivalPos="137.16" arrivalSpeed="13.40" duration="194.00" routeLength="1587.97" waitingTime="71.00" waitingCount="3" stopTime="0.00" timeLoss="108.21" rerouteNo="1" devices="tripinfo_carIn80064:1 routing_carIn80064:1 emissions_carIn80064:1" vType="default_016" speedFactor="1.04" vaporized="">
        <emissions CO_abs="16637.197140" CO2_abs="628427.503887" HC_abs="90.711853" PMx_abs="13.180340" NOx_abs="267.353482" fuel_abs="270.137198" electricity_abs="0"/>
    </tripinfo>
    <tripinfo id="carIn107282:1" depart="57749.00" departLane="-447569998#1_1" departPos="5.10" departSpeed="0.00" departDelay="0.00" arrival="57798.00" arrivalLane="315358242#0_1" arrivalPos="165.37" arrivalSpeed="12.66" duration="49.00" routeLength="448.50" waitingTime="0.00" waitingCount="0" stopTime="0.00" timeLoss="5.84" rerouteNo="1" devices="tripinfo_carIn107282:1 routing_carIn107282:1 emissions_carIn107282:1" vType="default_016" speedFactor="0.97" vaporized="">
        <emissions CO_abs="1856.600795" CO2_abs="110117.653472" HC_abs="11.009469" PMx_abs="1.801709" NOx_abs="44.185995" fuel_abs="47.335219" electricity_abs="0"/>
    </tripinfo>
    <tripinfo id="carIn86816:1" depart="57617.00" departLane="128361102#0_1" departPos="5.10" departSpeed="0.00" departDelay="0.80" arrival="57799.00" arrivalLane="201956811#0_1" arrivalPos="40.40" arrivalSpeed="12.38" duration="182.00" routeLength="2067.33" waitingTime="5.00" waitingCount="1" stopTime="0.00" timeLoss="28.10" rerouteNo="1" devices="tripinfo_carIn86816:1 routing_carIn86816:1 emissions_carIn86816:1" vType="default_016" speedFactor="0.98" vaporized="">
        <emissions CO_abs="5339.512316" CO2_abs="411822.658772" HC_abs="33.915321" PMx_abs="6.758903" NOx_abs="163.698749" fuel_abs="177.025018" electricity_abs="0"/>
    </tripinfo>
    <tripinfo id="carIn12365:1" depart="57713.00" departLane="315358244_1" departPos="5.10" departSpeed="0.00" departDelay="0.50" arrival="57799.00" arrivalLane="447569997#1_1" arrivalPos="180.93" arrivalSpeed="6.28" duration="86.00" routeLength="718.04" waitingTime="0.00" waitingCount="0" stopTime="0.00" timeLoss="10.92" rerouteNo="1" devices="tripinfo_carIn12365:1 routing_carIn12365:1 emissions_carIn12365:1" vType="default_016" speedFactor="0.82" vaporized="">
        <emissions CO_abs="3060.355091" CO2_abs="161167.095655" HC_abs="17.644161" PMx_abs="2.560480" NOx_abs="64.574869" fuel_abs="69.279721" electricity_abs="0"/>
    </tripinfo>
    <tripinfo id="carIn27009:1" depart="57673.00" departLane="-447569998#1_1" departPos="5.10" departSpeed="0.00" departDelay="0.50" arrival="57800.00" arrivalLane="-26677539_1" arrivalPos="152.75" arrivalSpeed="6.18" duration="127.00" routeLength="699.63" waitingTime="6.00" waitingCount="1" stopTime="0.00" timeLoss="24.83" rerouteNo="1" devices="tripinfo_carIn27009:1 routing_carIn27009:1 emissions_carIn27009:1" vType="default_015" speedFactor="0.82" vaporized="">
        <emissions CO_abs="5250.503182" CO2_abs="190416.050427" HC_abs="28.271945" PMx_abs="3.260210" NOx_abs="78.704912" fuel_abs="81.853702" electricity_abs="0"/>
    </tripinfo>
    <tripinfo id="carIn118591:1" depart="57689.00" departLane="315358244_1" departPos="5.10" departSpeed="0.00" departDelay="0.20" arrival="57804.00" arrivalLane="386687235_1" arrivalPos="80.84" arrivalSpeed="12.45" duration="115.00" routeLength="1186.14" waitingTime="9.00" waitingCount="2" stopTime="0.00" timeLoss="25.96" rerouteNo="1" devices="tripinfo_carIn118591:1 routing_carIn118591:1 emissions_carIn118591:1" vType="default_016" speedFactor="0.97" vaporized="">
        <emissions CO_abs="4257.779018" CO2_abs="256398.239884" HC_abs="25.352625" PMx_abs="4.273187" NOx_abs="102.623424" fuel_abs="110.215352" electricity_abs="0"/>
    </tripinfo>
    <tripinfo id="h11737c1:1" depart="57665.00" departLane="272042143_1" departPos="5.10" departSpeed="0.00" departDelay="1.50" arrival="57805.00" arrivalLane="-315358254#1_1" arrivalPos="137.16" arrivalSpeed="16.09" duration="140.00" routeLength="1596.88" waitingTime="21.00" waitingCount="1" stopTime="0.00" timeLoss="41.72" rerouteNo="1" devices="tripinfo_h11737c1:1 routing_h11737c1:1 emissions_h11737c1:1" vType="default_016" speedFactor="1.18" vaporized="">
        <emissions CO_abs="6694.397659" CO2_abs="386430.067586" HC_abs="39.290402" PMx_abs="6.879173" NOx_abs="155.352840" fuel_abs="166.110571" electricity_abs="0"/>
    </tripinfo>
    <tripinfo id="carIn82278:1" depart="57702.00" departLane="-306240162#1_0" departPos="5.10" departSpeed="0.00" departDelay="0.70" arrival="57806.00" arrivalLane="399835085#1_1" arrivalPos="212.23" arrivalSpeed="10.02" duration="104.00" routeLength="1093.26" waitingTime="10.00" waitingCount="2" stopTime="0.00" timeLoss="41.31" rerouteNo="1" devices="tripinfo_carIn82278:1 routing_carIn82278:1 emissions_carIn82278:1" vType="default_016" speedFactor="1.25" vaporized="">
        <emissions CO_abs="6689.357196" CO2_abs="387107.353793" HC_abs="39.749094" PMx_abs="7.800683" NOx_abs="162.978263" fuel_abs="166.400211" electricity_abs="0"/>
    </tripinfo>
    <tripinfo id="carIn126288:1" depart="57674.00" departLane="272042143_1" departPos="5.10" departSpeed="0.00" departDelay="0.00" arrival="57808.00" arrivalLane="-315358254#1_1" arrivalPos="137.16" arrivalSpeed="14.55" duration="134.00" routeLength="1596.88" waitingTime="9.00" waitingCount="1" stopTime="0.00" timeLoss="24.61" rerouteNo="1" devices="tripinfo_carIn126288:1 routing_carIn126288:1 emissions_carIn126288:1" vType="default_016" speedFactor="1.06" vaporized="">
        <emissions CO_abs="4690.064411" CO2_abs="357279.977277" HC_abs="29.672061" PMx_abs="6.132780" NOx_abs="142.994846" fuel_abs="153.579146" electricity_abs="0"/>
    </tripinfo>
    <tripinfo id="h645c1:1" depart="57622.00" departLane="266565295#5_1" departPos="5.10" departSpeed="0.00" departDelay="0.40" arrival="57812.00" arrivalLane="-315358244_1" arrivalPos="33.95" arrivalSpeed="15.39" duration="190.00" routeLength="1910.83" waitingTime="42.00" waitingCount="3" stopTime="0.00" timeLoss="70.57" rerouteNo="1" devices="tripinfo_h645c1:1 routing_h645c1:1 emissions_h645c1:1" vType="default_016" speedFactor="1.16" vaporized="">
        <emissions CO_abs="10824.957250" CO2_abs="541536.792573" HC_abs="62.057948" PMx_abs="10.251074" NOx_abs="223.024499" fuel_abs="232.784875" electricity_abs="0"/>
    </tripinfo>
    <tripinfo id="carIn31257:1" depart="57630.00" departLane="-306240162#1_0" departPos="5.10" departSpeed="0.00" departDelay="1.60" arrival="57812.00" arrivalLane="386687235_2" arrivalPos="80.84" arrivalSpeed="17.15" duration="182.00" routeLength="2257.41" waitingTime="6.00" waitingCount="1" stopTime="0.00" timeLoss="69.71" rerouteNo="1" devices="tripinfo_carIn31257:1 routing_carIn31257:1 emissions_carIn31257:1" vType="default_016" speedFactor="1.32" vaporized="">
        <emissions CO_abs="8194.404796" CO2_abs="587634.579389" HC_abs="51.189873" PMx_abs="10.779694" NOx_abs="239.534816" fuel_abs="252.597966" electricity_abs="0"/>
    </tripinfo>
    <tripinfo id="carIn116184:1" depart="57627.00" departLane="-306240162#1_0" departPos="5.10" departSpeed="0.00" departDelay="0.10" arrival="57813.00" arrivalLane="386687235_1" arrivalPos="80.84" arrivalSpeed="11.96" duration="186.00" routeLength="2257.41" waitingTime="0.00" waitingCount="0" stopTime="0.00" timeLoss="19.84" rerouteNo="1" devices="tripinfo_carIn116184:1 routing_carIn116184:1 emissions_carIn116184:1" vType="default_016" speedFactor="0.90" vaporized="">
        <emissions CO_abs="5859.204213" CO2_abs="467388.407392" HC_abs="37.511901" PMx_abs="7.708091" NOx_abs="185.270755" fuel_abs="200.910199" electricity_abs="0"/>
    </tripinfo>
    <tripinfo id="h16072c2:3" depart="57663.00" departLane="315358254#0_1" departPos="5.10" departSpeed="0.00" departDelay="2.50" arrival="57814.00" arrivalLane="386687235_2" arrivalPos="80.84" arrivalSpeed="15.59" duration="151.00" routeLength="1611.92" waitingTime="12.00" waitingCount="1" stopTime="0.00" timeLoss="47.64" rerouteNo="1" devices="tripinfo_h16072c2:3 routing_h16072c2:3 emissions_h16072c2:3" vType="default_016" speedFactor="1.14" vaporized="">
        <emissions CO_abs="7203.190691" CO2_abs="440872.644535" HC_abs="43.183173" PMx_abs="8.006359" NOx_abs="180.560161" fuel_abs="189.512430" electricity_abs="0"/>
    </tripinfo>
    <tripinfo id="carIn101568:1" depart="57638.00" departLane="-306240162#1_0" departPos="5.10" departSpeed="0.00" departDelay="0.50" arrival="57815.00" arrivalLane="386687235_1" arrivalPos="80.84" arrivalSpeed="13.10" duration="177.00" routeLength="2257.41" waitingTime="1.00" waitingCount="1" stopTime="0.00" timeLoss="26.38" rerouteNo="1" devices="tripinfo_carIn101568:1 routing_carIn101568:1 emissions_carIn101568:1" vType="default_016" speedFactor="0.98" vaporized="">
        <emissions CO_abs="6104.668190" CO2_abs="491892.172929" HC_abs="39.407541" PMx_abs="8.437651" NOx_abs="196.164820" fuel_abs="211.442886" electricity_abs="0"/>
    </tripinfo>
    <tripinfo id="carIn12858:1" depart="57661.00" departLane="128361109#1_1" departPos="5.10" departSpeed="0.00" departDelay="0.90" arrival="57815.00" arrivalLane="399835085#1_1" arrivalPos="212.23" arrivalSpeed="8.30" duration="154.00" routeLength="1738.12" waitingTime="6.00" waitingCount="2" stopTime="0.00" timeLoss="41.60" rerouteNo="1" devices="tripinfo_carIn12858:1 routing_carIn12858:1 emissions_carIn12858:1" vType="default_016" speedFactor="1.04" vaporized="">
        <emissions CO_abs="7634.341370" CO2_abs="489965.251915" HC_abs="46.441601" PMx_abs="9.259516" NOx_abs="200.855439" fuel_abs="210.614616" electricity_abs="0"/>
    </tripinfo>
    <tripinfo id="h5216c1:1" depart="57664.00" departLane="224892339#0_1" departPos="5.10" departSpeed="0.00" departDelay="0.00" arrival="57816.00" arrivalLane="386687235_2" arrivalPos="80.84" arrivalSpeed="14.27" duration="152.00" routeLength="1823.78" waitingTime="6.00" waitingCount="1" stopTime="0.00" timeLoss="33.00" rerouteNo="1" devices="tripinfo_h5216c1:1 routing_h5216c1:1 emissions_h5216c1:1" vType="default_016" speedFactor="1.08" vaporized="">
        <emissions CO_abs="6364.107192" CO2_abs="462802.759064" HC_abs="39.725484" PMx_abs="8.204519" NOx_abs="186.982620" fuel_abs="198.938636" electricity_abs="0"/>
    </tripinfo>
    <tripinfo id="carIn81860:1" depart="57712.00" departLane="128361102#0_1" departPos="5.10" departSpeed="0.00" departDelay="0.60" arrival="57818.00" arrivalLane="-24634517#17_1" arrivalPos="6.43" arrivalSpeed="6.98" duration="106.00" routeLength="1229.64" waitingTime="0.00" waitingCount="0" stopTime="0.00" timeLoss="14.71" rerouteNo="1" devices="tripinfo_carIn81860:1 routing_carIn81860:1 emissions_carIn81860:1" vType="default_016" speedFactor="0.98" vaporized="">
        <emissions CO_abs="3339.066681" CO2_abs="260384.223367" HC_abs="21.273105" PMx_abs="4.203311" NOx_abs="102.966674" fuel_abs="111.928171" electricity_abs="0"/>
    </tripinfo>
    <tripinfo id="carIn102915:1" depart="57643.00" departLane="128361102#0_1" departPos="5.10" departSpeed="0.00" departDelay="0.40" arrival="57821.00" arrivalLane="201956811#0_1" arrivalPos="40.40" arrivalSpeed="13.20" duration="178.00" routeLength="2067.33" waitingTime="4.00" waitingCount="2" stopTime="0.00" timeLoss="29.92" rerouteNo="1" devices="tripinfo_carIn102915:1 routing_carIn102915:1 emissions_carIn102915:1" vType="default_016" speedFactor="1.02" vaporized="">
        <emissions CO_abs="5900.507037" CO2_abs="453533.518916" HC_abs="37.404611" PMx_abs="7.600843" NOx_abs="181.050819" fuel_abs="194.954529" electricity_abs="0"/>
    </tripinfo>
    <tripinfo id="randUni33724:1" depart="57646.00" departLane="128361102#0_1" departPos="5.10" departSpeed="0.00" departDelay="1.20" arrival="57825.00" arrivalLane="201956811#0_1" arrivalPos="40.40" arrivalSpeed="10.45" duration="179.00" routeLength="2067.33" waitingTime="3.00" waitingCount="1" stopTime="0.00" timeLoss="45.82" rerouteNo="1" devices="tripinfo_randUni33724:1 routing_randUni33724:1 emissions_randUni33724:1" vType="random_016" speedFactor="1.14" vaporized="">
        <emissions CO_abs="6757.286435" CO2_abs="493805.622201" HC_abs="42.308247" PMx_abs="8.490460" NOx_abs="198.754513" fuel_abs="212.265711" electricity_abs="0"/>
    </tripinfo>