<?xml version="1.0" encoding="UTF-8"?>

<!-- generated on 2021-10-26 11:52:12 by Eclipse SUMO sumo Version 1.10.0
<configuration xmlns:xsi="http://www.w3.org/2001/XMLSchema-instance" xsi:noNamespaceSchemaLocation="http://sumo.dlr.de/xsd/sumoConfiguration.xsd">

    <input>
        <net-file value="/Users/behradkoohy/sumo-scratchpad/RESCO/environments/ingolstadt21/ingolstadt21.net.xml"/>
        <route-files value="/Users/behradkoohy/sumo-scratchpad/RESCO/environments/ingolstadt21/ingolstadt21.rou.xml"/>
    </input>

    <output>
        <tripinfo-output value="/Users/behradkoohy/sumo-scratchpad/RESCO/logs/IDQN-tr0-ingolstadt21-21-drq_norm-wait_norm/tripinfo_37.xml"/>
        <tripinfo-output.write-unfinished value="true"/>
    </output>

    <time>
        <begin value="57600"/>
        <end value="61200"/>
    </time>

    <processing>
        <time-to-teleport value="-1"/>
    </processing>

    <report>
        <no-warnings value="true"/>
        <no-step-log value="true"/>
    </report>

    <emissions>
        <device.emissions.probability value="1"/>
    </emissions>

    <traci_server>
        <remote-port value="57646"/>
    </traci_server>

    <random_number>
        <random value="true"/>
    </random_number>

</configuration>
-->

<tripinfos xmlns:xsi="http://www.w3.org/2001/XMLSchema-instance" xsi:noNamespaceSchemaLocation="http://sumo.dlr.de/xsd/tripinfo_file.xsd">
    <tripinfo id="h15454c2:3" depart="57612.00" departLane="24608844_1" departPos="5.10" departSpeed="0.00" departDelay="0.50" arrival="57652.00" arrivalLane="32978638#0_1" arrivalPos="49.29" arrivalSpeed="13.31" duration="40.00" routeLength="354.79" waitingTime="0.00" waitingCount="0" stopTime="0.00" timeLoss="5.83" rerouteNo="1" devices="tripinfo_h15454c2:3 routing_h15454c2:3 emissions_h15454c2:3" vType="default_016" speedFactor="0.99" vaporized="">
        <emissions CO_abs="1985.018158" CO2_abs="114370.336986" HC_abs="11.711837" PMx_abs="1.992144" NOx_abs="46.848865" fuel_abs="49.163124" electricity_abs="0"/>
    </tripinfo>
    <tripinfo id="carIn60260:1" depart="57606.00" departLane="315358254#0_1" departPos="5.10" departSpeed="0.00" departDelay="0.90" arrival="57659.00" arrivalLane="399835085#1_1" arrivalPos="212.23" arrivalSpeed="7.77" duration="53.00" routeLength="430.98" waitingTime="0.00" waitingCount="0" stopTime="0.00" timeLoss="6.75" rerouteNo="1" devices="tripinfo_carIn60260:1 routing_carIn60260:1 emissions_carIn60260:1" vType="default_016" speedFactor="1.00" vaporized="">
        <emissions CO_abs="2162.317414" CO2_abs="110716.952654" HC_abs="12.394580" PMx_abs="1.780618" NOx_abs="44.615478" fuel_abs="47.593093" electricity_abs="0"/>
    </tripinfo>
    <tripinfo id="carIn53971:1" depart="57640.00" departLane="272042143_1" departPos="5.10" departSpeed="0.00" departDelay="0.80" arrival="57700.00" arrivalLane="24634414#1_1" arrivalPos="162.19" arrivalSpeed="6.80" duration="60.00" routeLength="493.04" waitingTime="0.00" waitingCount="0" stopTime="0.00" timeLoss="8.65" rerouteNo="1" devices="tripinfo_carIn53971:1 routing_carIn53971:1 emissions_carIn53971:1" vType="default_016" speedFactor="0.88" vaporized="">
        <emissions CO_abs="2388.948914" CO2_abs="122254.579494" HC_abs="13.708268" PMx_abs="2.046079" NOx_abs="49.729926" fuel_abs="52.552573" electricity_abs="0"/>
    </tripinfo>
    <tripinfo id="h3688c1:1" depart="57625.00" departLane="201201950#1_1" departPos="5.10" departSpeed="0.00" departDelay="0.00" arrival="57707.00" arrivalLane="32978638#0_1" arrivalPos="49.29" arrivalSpeed="15.04" duration="82.00" routeLength="1089.75" waitingTime="0.00" waitingCount="0" stopTime="0.00" timeLoss="10.35" rerouteNo="1" devices="tripinfo_h3688c1:1 routing_h3688c1:1 emissions_h3688c1:1" vType="default_016" speedFactor="1.12" vaporized="">
        <emissions CO_abs="3162.132856" CO2_abs="271417.852844" HC_abs="20.483903" PMx_abs="4.577645" NOx_abs="107.595769" fuel_abs="116.670537" electricity_abs="0"/>
    </tripinfo>
    <tripinfo id="carIn22761:1" depart="57616.00" departLane="-306240162#1_0" departPos="5.10" departSpeed="0.00" departDelay="2.10" arrival="57708.00" arrivalLane="399835085#1_1" arrivalPos="212.23" arrivalSpeed="9.44" duration="92.00" routeLength="1093.26" waitingTime="0.00" waitingCount="0" stopTime="0.00" timeLoss="24.13" rerouteNo="1" devices="tripinfo_carIn22761:1 routing_carIn22761:1 emissions_carIn22761:1" vType="default_016" speedFactor="1.15" vaporized="">
        <emissions CO_abs="5673.399012" CO2_abs="357679.568053" HC_abs="34.375804" PMx_abs="7.051869" NOx_abs="149.250655" fuel_abs="153.750349" electricity_abs="0"/>
    </tripinfo>
    <tripinfo id="h7800c1:5" depart="57696.00" departLane="-447569998#1_1" departPos="5.10" departSpeed="0.00" departDelay="0.00" arrival="57720.00" arrivalLane="-447569998#1_2" arrivalPos="180.76" arrivalSpeed="7.54" duration="24.00" routeLength="175.66" waitingTime="0.00" waitingCount="0" stopTime="0.00" timeLoss="3.64" rerouteNo="1" devices="tripinfo_h7800c1:5 routing_h7800c1:5 emissions_h7800c1:5" vType="default_016" speedFactor="1.04" vaporized="">
        <emissions CO_abs="1243.330325" CO2_abs="56002.018571" HC_abs="6.953571" PMx_abs="0.947851" NOx_abs="22.971881" fuel_abs="24.073227" electricity_abs="0"/>
    </tripinfo>
    <tripinfo id="S5R_frequency1.2" depart="57615.00" departLane="315358250#0_1" departPos="12.10" departSpeed="0.00" departDelay="3.40" arrival="57730.00" arrivalLane="386687235_1" arrivalPos="80.84" arrivalSpeed="13.29" duration="115.00" routeLength="1115.62" waitingTime="15.00" waitingCount="1" stopTime="0.00" timeLoss="33.77" rerouteNo="1" devices="tripinfo_S5R_frequency1.2 routing_S5R_frequency1.2 emissions_S5R_frequency1.2" vType="bus" speedFactor="1.00" vaporized="">
        <emissions CO_abs="2182.741325" CO2_abs="1278076.841093" HC_abs="471.675910" PMx_abs="232.360000" NOx_abs="10152.141897" fuel_abs="545.062024" electricity_abs="0"/>
    </tripinfo>
    <tripinfo id="h3568c1:3" depart="57656.00" departLane="266565295#5_1" departPos="5.10" departSpeed="0.00" departDelay="0.80" arrival="57735.00" arrivalLane="-24634415_1" arrivalPos="62.03" arrivalSpeed="15.67" duration="79.00" routeLength="807.40" waitingTime="3.00" waitingCount="1" stopTime="0.00" timeLoss="22.76" rerouteNo="1" devices="tripinfo_h3568c1:3 routing_h3568c1:3 emissions_h3568c1:3" vType="default_016" speedFactor="1.14" vaporized="">
        <emissions CO_abs="4350.178382" CO2_abs="264060.536805" HC_abs="26.012581" PMx_abs="5.021028" NOx_abs="110.079490" fuel_abs="113.508040" electricity_abs="0"/>
    </tripinfo>
    <tripinfo id="carIn80064:1" depart="57603.00" departLane="128361109#1_1" departPos="5.10" departSpeed="0.00" departDelay="0.40" arrival="57748.00" arrivalLane="-315358254#1_1" arrivalPos="137.16" arrivalSpeed="14.78" duration="145.00" routeLength="1587.97" waitingTime="28.00" waitingCount="3" stopTime="0.00" timeLoss="65.37" rerouteNo="1" devices="tripinfo_carIn80064:1 routing_carIn80064:1 emissions_carIn80064:1" vType="default_016" speedFactor="1.11" vaporized="">
        <emissions CO_abs="10144.988110" CO2_abs="551413.644157" HC_abs="59.429564" PMx_abs="11.265239" NOx_abs="230.764625" fuel_abs="237.028700" electricity_abs="0"/>
    </tripinfo>
    <tripinfo id="h7181c1:1" depart="57660.00" departLane="315358254#0_1" departPos="5.10" departSpeed="0.00" departDelay="0.10" arrival="57750.00" arrivalLane="306240162#0_0" arrivalPos="220.43" arrivalSpeed="17.55" duration="90.00" routeLength="932.35" waitingTime="20.00" waitingCount="2" stopTime="0.00" timeLoss="41.37" rerouteNo="1" devices="tripinfo_h7181c1:1 routing_h7181c1:1 emissions_h7181c1:1" vType="default_016" speedFactor="1.06" vaporized="">
        <emissions CO_abs="6527.447374" CO2_abs="347412.541381" HC_abs="37.988037" PMx_abs="6.977141" NOx_abs="145.100846" fuel_abs="149.337756" electricity_abs="0"/>
    </tripinfo>
    <tripinfo id="h4538c1:1" depart="57701.00" departLane="-10427692#1_1" departPos="5.10" departSpeed="0.00" departDelay="0.00" arrival="57758.00" arrivalLane="-128361102#1_1" arrivalPos="274.68" arrivalSpeed="12.03" duration="57.00" routeLength="440.74" waitingTime="13.00" waitingCount="1" stopTime="0.00" timeLoss="23.10" rerouteNo="1" devices="tripinfo_h4538c1:1 routing_h4538c1:1 emissions_h4538c1:1" vType="default_016" speedFactor="0.93" vaporized="">
        <emissions CO_abs="3328.924205" CO2_abs="139027.138595" HC_abs="18.412299" PMx_abs="2.573558" NOx_abs="57.704347" fuel_abs="59.762649" electricity_abs="0"/>
    </tripinfo>
    <tripinfo id="carIn30817:1" depart="57681.00" departLane="315358244_1" departPos="5.10" departSpeed="0.00" departDelay="0.20" arrival="57763.00" arrivalLane="447569997#1_1" arrivalPos="180.93" arrivalSpeed="7.00" duration="82.00" routeLength="718.04" waitingTime="2.00" waitingCount="2" stopTime="0.00" timeLoss="17.03" rerouteNo="1" devices="tripinfo_carIn30817:1 routing_carIn30817:1 emissions_carIn30817:1" vType="default_016" speedFactor="0.94" vaporized="">
        <emissions CO_abs="3575.429654" CO2_abs="192748.117900" HC_abs="20.753906" PMx_abs="3.218237" NOx_abs="77.911705" fuel_abs="82.854947" electricity_abs="0"/>
    </tripinfo>
    <tripinfo id="carIn27009:1" depart="57673.00" departLane="-447569998#1_1" departPos="5.10" departSpeed="0.00" departDelay="0.50" arrival="57769.00" arrivalLane="-26677539_1" arrivalPos="152.75" arrivalSpeed="7.23" duration="96.00" routeLength="699.63" waitingTime="0.00" waitingCount="0" stopTime="0.00" timeLoss="11.01" rerouteNo="1" devices="tripinfo_carIn27009:1 routing_carIn27009:1 emissions_carIn27009:1" vType="default_015" speedFactor="0.98" vaporized="">
        <emissions CO_abs="3897.897207" CO2_abs="184838.227105" HC_abs="21.968596" PMx_abs="2.865254" NOx_abs="74.155430" fuel_abs="79.455440" electricity_abs="0"/>
    </tripinfo>
    <tripinfo id="h16072c2:3" depart="57663.00" departLane="315358254#0_1" departPos="5.10" departSpeed="0.00" departDelay="2.50" arrival="57787.00" arrivalLane="386687235_1" arrivalPos="80.84" arrivalSpeed="13.39" duration="124.00" routeLength="1611.92" waitingTime="0.00" waitingCount="0" stopTime="0.00" timeLoss="10.40" rerouteNo="1" devices="tripinfo_h16072c2:3 routing_h16072c2:3 emissions_h16072c2:3" vType="default_016" speedFactor="1.04" vaporized="">
        <emissions CO_abs="3180.608723" CO2_abs="309802.061058" HC_abs="21.586328" PMx_abs="4.768934" NOx_abs="119.780771" fuel_abs="133.170594" electricity_abs="0"/>
    </tripinfo>
    <tripinfo id="carIn107282:1" depart="57749.00" departLane="-447569998#1_1" departPos="5.10" departSpeed="0.00" departDelay="0.00" arrival="57791.00" arrivalLane="315358242#0_1" arrivalPos="165.37" arrivalSpeed="15.27" duration="42.00" routeLength="448.50" waitingTime="0.00" waitingCount="0" stopTime="0.00" timeLoss="5.10" rerouteNo="1" devices="tripinfo_carIn107282:1 routing_carIn107282:1 emissions_carIn107282:1" vType="default_016" speedFactor="1.14" vaporized="">
        <emissions CO_abs="1890.470275" CO2_abs="121802.059656" HC_abs="11.436924" PMx_abs="2.096015" NOx_abs="49.214708" fuel_abs="52.357614" electricity_abs="0"/>
    </tripinfo>
    <tripinfo id="carIn86816:1" depart="57617.00" departLane="128361102#0_1" departPos="5.10" departSpeed="0.00" departDelay="0.80" arrival="57792.00" arrivalLane="201956811#0_1" arrivalPos="40.40" arrivalSpeed="14.74" duration="175.00" routeLength="2067.33" waitingTime="10.00" waitingCount="2" stopTime="0.00" timeLoss="35.57" rerouteNo="1" devices="tripinfo_carIn86816:1 routing_carIn86816:1 emissions_carIn86816:1" vType="default_016" speedFactor="1.08" vaporized="">
        <emissions CO_abs="6269.447437" CO2_abs="465394.159582" HC_abs="39.406467" PMx_abs="8.084225" NOx_abs="187.070892" fuel_abs="200.052712" electricity_abs="0"/>
    </tripinfo>
    <tripinfo id="carIn121703:1" depart="57647.00" departLane="386687232#0_1" departPos="5.10" departSpeed="0.00" departDelay="0.30" arrival="57794.00" arrivalLane="-315358244_1" arrivalPos="33.95" arrivalSpeed="11.77" duration="147.00" routeLength="1157.39" waitingTime="33.00" waitingCount="2" stopTime="0.00" timeLoss="54.11" rerouteNo="1" devices="tripinfo_carIn121703:1 routing_carIn121703:1 emissions_carIn121703:1" vType="default_016" speedFactor="0.91" vaporized="">
        <emissions CO_abs="7543.909685" CO2_abs="334616.629269" HC_abs="42.154112" PMx_abs="5.948860" NOx_abs="137.039178" fuel_abs="143.839372" electricity_abs="0"/>
    </tripinfo>
    <tripinfo id="h317c2:1" depart="57707.00" departLane="-32978638#0_1" departPos="5.10" departSpeed="0.00" departDelay="0.10" arrival="57794.00" arrivalLane="-266565295#5_1" arrivalPos="172.76" arrivalSpeed="13.47" duration="87.00" routeLength="370.53" waitingTime="52.00" waitingCount="1" stopTime="0.00" timeLoss="61.24" rerouteNo="1" devices="tripinfo_h317c2:1 routing_h317c2:1 emissions_h317c2:1" vType="default_016" speedFactor="1.06" vaporized="">
        <emissions CO_abs="9602.679017" CO2_abs="238177.064464" HC_abs="49.303235" PMx_abs="5.219432" NOx_abs="104.103320" fuel_abs="102.385643" electricity_abs="0"/>
    </tripinfo>
    <tripinfo id="carIn28951:1" depart="57606.00" departLane="10425609#0_1" departPos="5.10" departSpeed="0.00" departDelay="0.20" arrival="57795.00" arrivalLane="-128361102#1_1" arrivalPos="274.68" arrivalSpeed="14.65" duration="189.00" routeLength="2113.04" waitingTime="19.00" waitingCount="2" stopTime="0.00" timeLoss="44.98" rerouteNo="1" devices="tripinfo_carIn28951:1 routing_carIn28951:1 emissions_carIn28951:1" vType="default_016" speedFactor="1.07" vaporized="">
        <emissions CO_abs="8513.947438" CO2_abs="543962.647943" HC_abs="51.443220" PMx_abs="9.759293" NOx_abs="221.151132" fuel_abs="233.826372" electricity_abs="0"/>
    </tripinfo>
    <tripinfo id="h12244c1:3" depart="57612.00" departLane="315358244_1" departPos="5.10" departSpeed="0.00" departDelay="0.40" arrival="57796.00" arrivalLane="386687235_1" arrivalPos="80.84" arrivalSpeed="16.24" duration="184.00" routeLength="1186.14" waitingTime="81.00" waitingCount="5" stopTime="0.00" timeLoss="111.81" rerouteNo="1" devices="tripinfo_h12244c1:3 routing_h12244c1:3 emissions_h12244c1:3" vType="default_016" speedFactor="1.20" vaporized="">
        <emissions CO_abs="14420.712104" CO2_abs="471874.177245" HC_abs="76.494103" PMx_abs="9.426156" NOx_abs="198.114423" fuel_abs="202.843129" electricity_abs="0"/>
    </tripinfo>
    <tripinfo id="h9563c2:5" depart="57631.00" departLane="315358244_1" departPos="5.10" departSpeed="0.00" departDelay="0.70" arrival="57798.00" arrivalLane="386687235_1" arrivalPos="80.84" arrivalSpeed="14.85" duration="167.00" routeLength="1186.14" waitingTime="59.00" waitingCount="3" stopTime="0.00" timeLoss="87.08" rerouteNo="1" devices="tripinfo_h9563c2:5 routing_h9563c2:5 emissions_h9563c2:5" vType="default_016" speedFactor="1.08" vaporized="">
        <emissions CO_abs="11293.859437" CO2_abs="396054.426026" HC_abs="60.493320" PMx_abs="7.488690" NOx_abs="163.629210" fuel_abs="170.250673" electricity_abs="0"/>
    </tripinfo>
    <tripinfo id="h5979c1:5" depart="57669.00" departLane="399835085#1_1" departPos="5.10" departSpeed="0.00" departDelay="0.00" arrival="57800.00" arrivalLane="-315358254#1_1" arrivalPos="137.16" arrivalSpeed="10.18" duration="131.00" routeLength="659.33" waitingTime="25.00" waitingCount="1" stopTime="0.00" timeLoss="41.28" rerouteNo="1" devices="tripinfo_h5979c1:5 routing_h5979c1:5 emissions_h5979c1:5" vType="default_016" speedFactor="0.82" vaporized="">
        <emissions CO_abs="8144.740370" CO2_abs="241173.950686" HC_abs="42.642936" PMx_abs="4.471002" NOx_abs="101.320205" fuel_abs="103.673698" electricity_abs="0"/>
    </tripinfo>
    <tripinfo id="h330c1:1" depart="57736.00" departLane="-32978638#0_1" departPos="5.10" departSpeed="0.00" departDelay="0.20" arrival="57800.00" arrivalLane="-266565295#5_1" arrivalPos="172.76" arrivalSpeed="11.03" duration="64.00" routeLength="370.53" waitingTime="25.00" waitingCount="1" stopTime="0.00" timeLoss="33.01" rerouteNo="1" devices="tripinfo_h330c1:1 routing_h330c1:1 emissions_h330c1:1" vType="default_016" speedFactor="0.89" vaporized="">
        <emissions CO_abs="5302.678112" CO2_abs="161800.943329" HC_abs="27.936310" PMx_abs="3.254270" NOx_abs="69.017389" fuel_abs="69.553076" electricity_abs="0"/>
    </tripinfo>
    <tripinfo id="carIn82278:1" depart="57702.00" departLane="-306240162#1_0" departPos="5.10" departSpeed="0.00" departDelay="0.70" arrival="57802.00" arrivalLane="399835085#1_1" arrivalPos="212.23" arrivalSpeed="7.97" duration="100.00" routeLength="1093.26" waitingTime="0.00" waitingCount="0" stopTime="0.00" timeLoss="26.18" rerouteNo="1" devices="tripinfo_carIn82278:1 routing_carIn82278:1 emissions_carIn82278:1" vType="default_016" speedFactor="1.06" vaporized="">
        <emissions CO_abs="5688.832154" CO2_abs="344351.736835" HC_abs="34.105994" PMx_abs="6.563120" NOx_abs="142.329728" fuel_abs="148.021848" electricity_abs="0"/>
    </tripinfo>
    <tripinfo id="h3326c1:2" depart="57656.00" departLane="22716069#0_1" departPos="5.10" departSpeed="0.00" departDelay="0.00" arrival="57803.00" arrivalLane="24634517#13_1" arrivalPos="111.62" arrivalSpeed="9.31" duration="147.00" routeLength="1312.81" waitingTime="0.00" waitingCount="0" stopTime="0.00" timeLoss="17.93" rerouteNo="1" devices="tripinfo_h3326c1:2 routing_h3326c1:2 emissions_h3326c1:2" vType="default_016" speedFactor="0.76" vaporized="">
        <emissions CO_abs="5040.461238" CO2_abs="305411.817269" HC_abs="29.966387" PMx_abs="4.646242" NOx_abs="120.846931" fuel_abs="131.284830" electricity_abs="0"/>
    </tripinfo>
    <tripinfo id="h20540c1:1" depart="57634.00" departLane="10425609#0_1" departPos="5.10" departSpeed="0.00" departDelay="0.50" arrival="57806.00" arrivalLane="-128361102#1_1" arrivalPos="274.68" arrivalSpeed="13.55" duration="172.00" routeLength="2113.04" waitingTime="0.00" waitingCount="0" stopTime="0.00" timeLoss="21.52" rerouteNo="1" devices="tripinfo_h20540c1:1 routing_h20540c1:1 emissions_h20540c1:1" vType="default_016" speedFactor="1.03" vaporized="">
        <emissions CO_abs="5214.854462" CO2_abs="438215.104747" HC_abs="33.963268" PMx_abs="7.072562" NOx_abs="172.631724" fuel_abs="188.369870" electricity_abs="0"/>
    </tripinfo>
    <tripinfo id="carIn12365:1" depart="57713.00" departLane="315358244_1" departPos="5.10" departSpeed="0.00" departDelay="0.50" arrival="57809.00" arrivalLane="447569997#1_1" arrivalPos="180.93" arrivalSpeed="8.42" duration="96.00" routeLength="718.04" waitingTime="22.00" waitingCount="2" stopTime="0.00" timeLoss="39.05" rerouteNo="1" devices="tripinfo_carIn12365:1 routing_carIn12365:1 emissions_carIn12365:1" vType="default_016" speedFactor="1.08" vaporized="">
        <emissions CO_abs="5200.062035" CO2_abs="229509.440398" HC_abs="29.017168" PMx_abs="4.172634" NOx_abs="94.517412" fuel_abs="98.657543" electricity_abs="0"/>
    </tripinfo>
    <tripinfo id="h11737c1:1" depart="57665.00" departLane="272042143_1" departPos="5.10" departSpeed="0.00" departDelay="1.50" arrival="57816.00" arrivalLane="-315358254#1_1" arrivalPos="137.16" arrivalSpeed="14.62" duration="151.00" routeLength="1596.88" waitingTime="30.00" waitingCount="1" stopTime="0.00" timeLoss="48.87" rerouteNo="1" devices="tripinfo_h11737c1:1 routing_h11737c1:1 emissions_h11737c1:1" vType="default_016" speedFactor="1.14" vaporized="">
        <emissions CO_abs="7965.581222" CO2_abs="393127.368170" HC_abs="45.292106" PMx_abs="7.152470" NOx_abs="159.833977" fuel_abs="168.990154" electricity_abs="0"/>
    </tripinfo>
    <tripinfo id="carIn118591:1" depart="57689.00" departLane="315358244_1" departPos="5.10" departSpeed="0.00" departDelay="0.20" arrival="57816.00" arrivalLane="386687235_1" arrivalPos="80.84" arrivalSpeed="13.71" duration="127.00" routeLength="1186.14" waitingTime="24.00" waitingCount="1" stopTime="0.00" timeLoss="40.82" rerouteNo="1" devices="tripinfo_carIn118591:1 routing_carIn118591:1 emissions_carIn118591:1" vType="default_016" speedFactor="1.01" vaporized="">
        <emissions CO_abs="6434.714990" CO2_abs="299110.082158" HC_abs="36.284434" PMx_abs="5.432057" NOx_abs="122.544795" fuel_abs="128.576041" electricity_abs="0"/>
    </tripinfo>
    <tripinfo id="carIn126288:1" depart="57674.00" departLane="272042143_1" departPos="5.10" departSpeed="0.00" departDelay="0.00" arrival="57818.00" arrivalLane="-315358254#1_1" arrivalPos="137.16" arrivalSpeed="14.72" duration="144.00" routeLength="1596.88" waitingTime="16.00" waitingCount="1" stopTime="0.00" timeLoss="37.28" rerouteNo="1" devices="tripinfo_carIn126288:1 routing_carIn126288:1 emissions_carIn126288:1" vType="default_016" speedFactor="1.09" vaporized="">
        <emissions CO_abs="6315.027078" CO2_abs="370217.281044" HC_abs="37.331644" PMx_abs="6.509824" NOx_abs="149.395172" fuel_abs="159.141312" electricity_abs="0"/>
    </tripinfo>
    <tripinfo id="carIn50326:1" depart="57651.00" departLane="128361102#0_1" departPos="5.10" departSpeed="0.00" departDelay="0.30" arrival="57819.00" arrivalLane="18809673#0_1" arrivalPos="473.56" arrivalSpeed="14.87" duration="168.00" routeLength="1591.07" waitingTime="23.00" waitingCount="2" stopTime="0.00" timeLoss="48.43" rerouteNo="1" devices="tripinfo_carIn50326:1 routing_carIn50326:1 emissions_carIn50326:1" vType="default_016" speedFactor="1.08" vaporized="">
        <emissions CO_abs="7637.873069" CO2_abs="411026.913433" HC_abs="44.307256" PMx_abs="7.163023" NOx_abs="166.307816" fuel_abs="176.684263" electricity_abs="0"/>
    </tripinfo>
    <tripinfo id="carIn48184:1" depart="57613.00" departLane="-306240162#1_0" departPos="5.10" departSpeed="0.00" departDelay="0.70" arrival="57823.00" arrivalLane="386687235_1" arrivalPos="80.84" arrivalSpeed="11.42" duration="210.00" routeLength="2257.41" waitingTime="13.00" waitingCount="3" stopTime="0.00" timeLoss="47.36" rerouteNo="1" devices="tripinfo_carIn48184:1 routing_carIn48184:1 emissions_carIn48184:1" vType="default_016" speedFactor="0.91" vaporized="">
        <emissions CO_abs="7704.734964" CO2_abs="528406.521903" HC_abs="47.505879" PMx_abs="9.070001" NOx_abs="212.043112" fuel_abs="227.139644" electricity_abs="0"/>
    </tripinfo>
    <tripinfo id="carIn82220:1" depart="57619.00" departLane="-306240162#1_0" departPos="5.10" departSpeed="0.00" departDelay="3.50" arrival="57823.00" arrivalLane="386687235_2" arrivalPos="80.84" arrivalSpeed="14.89" duration="204.00" routeLength="2257.41" waitingTime="9.00" waitingCount="2" stopTime="0.00" timeLoss="65.71" rerouteNo="1" devices="tripinfo_carIn82220:1 routing_carIn82220:1 emissions_carIn82220:1" vType="default_016" speedFactor="1.08" vaporized="">
        <emissions CO_abs="9318.557643" CO2_abs="629436.280214" HC_abs="57.243363" PMx_abs="11.475589" NOx_abs="256.689598" fuel_abs="270.567167" electricity_abs="0"/>
    </tripinfo>
    <tripinfo id="carIn129809:1" depart="57729.00" departLane="-447569998#1_1" departPos="5.10" departSpeed="0.00" departDelay="1.00" arrival="57824.00" arrivalLane="-315358244_1" arrivalPos="33.95" arrivalSpeed="13.11" duration="95.00" routeLength="706.49" waitingTime="14.00" waitingCount="2" stopTime="0.00" timeLoss="31.12" rerouteNo="1" devices="tripinfo_carIn129809:1 routing_carIn129809:1 emissions_carIn129809:1" vType="default_015" speedFactor="0.95" vaporized="">
        <emissions CO_abs="3714.541755" CO2_abs="195642.585622" HC_abs="21.480199" PMx_abs="3.427399" NOx_abs="80.124864" fuel_abs="84.098993" electricity_abs="0"/>
    </tripinfo>
    <tripinfo id="h9953c2:3" depart="57682.00" departLane="-54169231#2_1" departPos="5.10" departSpeed="0.00" departDelay="0.00" arrival="57828.00" arrivalLane="386687235_1" arrivalPos="80.84" arrivalSpeed="14.30" duration="146.00" routeLength="1535.60" waitingTime="1.00" waitingCount="1" stopTime="0.00" timeLoss="26.75" rerouteNo="1" devices="tripinfo_h9953c2:3 routing_h9953c2:3 emissions_h9953c2:3" vType="default_016" speedFactor="1.05" vaporized="">
        <emissions CO_abs="5766.781022" CO2_abs="382830.419563" HC_abs="35.102676" PMx_abs="6.447466" NOx_abs="153.859168" fuel_abs="164.562845" electricity_abs="0"/>
    </tripinfo>
    <tripinfo id="h645c1:1" depart="57622.00" departLane="266565295#5_1" departPos="5.10" departSpeed="0.00" departDelay="0.40" arrival="57830.00" arrivalLane="-315358244_1" arrivalPos="33.95" arrivalSpeed="16.24" duration="208.00" routeLength="1910.83" waitingTime="71.00" waitingCount="2" stopTime="0.00" timeLoss="93.63" rerouteNo="1" devices="tripinfo_h645c1:1 routing_h645c1:1 emissions_h645c1:1" vType="default_016" speedFactor="1.21" vaporized="">
        <emissions CO_abs="15259.629080" CO2_abs="595639.497508" HC_abs="83.281236" PMx_abs="11.716860" NOx_abs="247.437075" fuel_abs="256.043675" electricity_abs="0"/>
    </tripinfo>
    <tripinfo id="carIn116184:1" depart="57627.00" departLane="-306240162#1_0" departPos="5.10" departSpeed="0.00" departDelay="0.10" arrival="57832.00" arrivalLane="386687235_2" arrivalPos="80.84" arrivalSpeed="13.97" duration="205.00" routeLength="2257.41" waitingTime="22.00" waitingCount="2" stopTime="0.00" timeLoss="57.45" rerouteNo="1" devices="tripinfo_carIn116184:1 routing_carIn116184:1 emissions_carIn116184:1" vType="default_016" speedFactor="1.01" vaporized="">
        <emissions CO_abs="8583.206006" CO2_abs="563324.280974" HC_abs="52.370132" PMx_abs="9.981520" NOx_abs="226.943689" fuel_abs="242.149266" electricity_abs="0"/>
    </tripinfo>
    <tripinfo id="carIn462:1" depart="57622.00" departLane="-306240162#1_0" departPos="5.10" departSpeed="0.00" departDelay="4.80" arrival="57833.00" arrivalLane="386687235_1" arrivalPos="80.84" arrivalSpeed="11.66" duration="211.00" routeLength="2257.41" waitingTime="17.00" waitingCount="2" stopTime="0.00" timeLoss="46.62" rerouteNo="1" devices="tripinfo_carIn462:1 routing_carIn462:1 emissions_carIn462:1" vType="default_016" speedFactor="0.91" vaporized="">
        <emissions CO_abs="7612.070302" CO2_abs="511945.537951" HC_abs="46.636021" PMx_abs="8.624163" NOx_abs="204.560274" fuel_abs="220.064115" electricity_abs="0"/>
    </tripinfo>
    <tripinfo id="50R_frequency3.17" depart="57674.00" departLane="-18809673#6_1" departPos="12.10" departSpeed="0.00" departDelay="0.70" arrival="57835.00" arrivalLane="201956811#0_1" arrivalPos="40.40" arrivalSpeed="13.64" duration="161.00" routeLength="1954.47" waitingTime="0.00" waitingCount="0" stopTime="0.00" timeLoss="15.78" rerouteNo="1" devices="tripinfo_50R_frequency3.17 routing_50R_frequency3.17 emissions_50R_frequency3.17" vType="bus" speedFactor="1.00" vaporized="">
        <emissions CO_abs="3053.427159" CO2_abs="1941142.857599" HC_abs="655.956590" PMx_abs="328.853008" NOx_abs="14968.849590" fuel_abs="827.899864" electricity_abs="0"/>
    </tripinfo>
    <tripinfo id="h3154c1:1" depart="57658.00" departLane="24634507_1" departPos="5.10" departSpeed="0.00" departDelay="0.00" arrival="57846.00" arrivalLane="-266565295#5_1" arrivalPos="172.76" arrivalSpeed="13.72" duration="188.00" routeLength="1206.22" waitingTime="80.00" waitingCount="2" stopTime="0.00" timeLoss="99.77" rerouteNo="1" devices="tripinfo_h3154c1:1 routing_h3154c1:1 emissions_h3154c1:1" vType="default_016" speedFactor="1.01" vaporized="">
        <emissions CO_abs="15638.084085" CO2_abs="500366.626935" HC_abs="82.858789" PMx_abs="9.895180" NOx_abs="210.782666" fuel_abs="215.091442" electricity_abs="0"/>
    </tripinfo>
    <tripinfo id="carIn81860:1" depart="57712.00" departLane="128361102#0_1" departPos="5.10" departSpeed="0.00" departDelay="0.60" arrival="57846.00" arrivalLane="-24634517#17_1" arrivalPos="6.43" arrivalSpeed="6.40" duration="134.00" routeLength="1229.64" waitingTime="12.00" waitingCount="1" stopTime="0.00" timeLoss="31.20" rerouteNo="1" devices="tripinfo_carIn81860:1 routing_carIn81860:1 emissions_carIn81860:1" vType="default_016" speedFactor="0.88" vaporized="">
        <emissions CO_abs="4865.579985" CO2_abs="284811.969279" HC_abs="28.725705" PMx_abs="4.434511" NOx_abs="112.412041" fuel_abs="122.429829" electricity_abs="0"/>
    </tripinfo>
    <tripinfo id="carIn8642:1" depart="57774.00" departLane="-447569998#1_1" departPos="5.10" departSpeed="0.00" departDelay="0.90" arrival="57853.00" arrivalLane="-315358244_1" arrivalPos="33.95" arrivalSpeed="15.73" duration="79.00" routeLength="706.49" waitingTime="12.00" waitingCount="2" stopTime="0.00" timeLoss="27.08" rerouteNo="1" devices="tripinfo_carIn8642:1 routing_carIn8642:1 emissions_carIn8642:1" vType="default_016" speedFactor="1.17" vaporized="">
        <emissions CO_abs="4022.352484" CO2_abs="217931.171907" HC_abs="23.351270" PMx_abs="3.958549" NOx_abs="89.384000" fuel_abs="93.679723" electricity_abs="0"/>
    </tripinfo>
    <tripinfo id="carIn102915:1" depart="57643.00" departLane="128361102#0_1" departPos="5.10" departSpeed="0.00" departDelay="0.40" arrival="57855.00" arrivalLane="201956811#0_1" arrivalPos="40.40" arrivalSpeed="13.50" duration="212.00" routeLength="2067.33" waitingTime="33.00" waitingCount="2" stopTime="0.00" timeLoss="60.35" rerouteNo="1" devices="tripinfo_carIn102915:1 routing_carIn102915:1 emissions_carIn102915:1" vType="default_016" speedFactor="1.00" vaporized="">
        <emissions CO_abs="10183.460303" CO2_abs="528668.227006" HC_abs="58.732380" PMx_abs="9.478777" NOx_abs="215.871035" fuel_abs="227.253515" electricity_abs="0"/>
    </tripinfo>
    <tripinfo id="randUni33724:1" depart="57646.00" departLane="128361102#0_1" departPos="5.10" departSpeed="0.00" departDelay="1.20" arrival="57857.00" arrivalLane="201956811#0_1" arrivalPos="40.40" arrivalSpeed="12.49" duration="211.00" routeLength="2067.33" waitingTime="25.00" waitingCount="2" stopTime="0.00" timeLoss="54.12" rerouteNo="1" devices="tripinfo_randUni33724:1 routing_randUni33724:1 emissions_randUni33724:1" vType="random_016" speedFactor="0.97" vaporized="">
        <emissions CO_abs="8313.790073" CO2_abs="486925.421090" HC_abs="49.226114" PMx_abs="8.255834" NOx_abs="195.704934" fuel_abs="209.309764" electricity_abs="0"/>
    </tripinfo>