<?xml version="1.0" encoding="UTF-8"?>

<!-- generated on 2021-10-26 13:19:59 by Eclipse SUMO sumo Version 1.10.0
<configuration xmlns:xsi="http://www.w3.org/2001/XMLSchema-instance" xsi:noNamespaceSchemaLocation="http://sumo.dlr.de/xsd/sumoConfiguration.xsd">

    <input>
        <net-file value="/Users/behradkoohy/sumo-scratchpad/RESCO/environments/ingolstadt21/ingolstadt21.net.xml"/>
        <route-files value="/Users/behradkoohy/sumo-scratchpad/RESCO/environments/ingolstadt21/ingolstadt21.rou.xml"/>
    </input>

    <output>
        <tripinfo-output value="/Users/behradkoohy/sumo-scratchpad/RESCO/logs/IDQN-tr0-ingolstadt21-21-drq_norm-wait_norm/tripinfo_92.xml"/>
        <tripinfo-output.write-unfinished value="true"/>
    </output>

    <time>
        <begin value="57600"/>
        <end value="61200"/>
    </time>

    <processing>
        <time-to-teleport value="-1"/>
    </processing>

    <report>
        <no-warnings value="true"/>
        <no-step-log value="true"/>
    </report>

    <emissions>
        <device.emissions.probability value="1"/>
    </emissions>

    <traci_server>
        <remote-port value="58816"/>
    </traci_server>

    <random_number>
        <random value="true"/>
    </random_number>

</configuration>
-->

<tripinfos xmlns:xsi="http://www.w3.org/2001/XMLSchema-instance" xsi:noNamespaceSchemaLocation="http://sumo.dlr.de/xsd/tripinfo_file.xsd">
    <tripinfo id="h15454c2:3" depart="57612.00" departLane="24608844_1" departPos="5.10" departSpeed="0.00" departDelay="0.50" arrival="57651.00" arrivalLane="32978638#0_1" arrivalPos="49.29" arrivalSpeed="13.52" duration="39.00" routeLength="354.79" waitingTime="0.00" waitingCount="0" stopTime="0.00" timeLoss="5.19" rerouteNo="1" devices="tripinfo_h15454c2:3 routing_h15454c2:3 emissions_h15454c2:3" vType="default_016" speedFactor="1.01" vaporized="">
        <emissions CO_abs="2129.661170" CO2_abs="120636.108753" HC_abs="12.520618" PMx_abs="2.125736" NOx_abs="49.567741" fuel_abs="51.856517" electricity_abs="0"/>
    </tripinfo>
    <tripinfo id="carIn60260:1" depart="57606.00" departLane="315358254#0_1" departPos="5.10" departSpeed="0.00" departDelay="0.90" arrival="57671.00" arrivalLane="399835085#1_1" arrivalPos="212.23" arrivalSpeed="8.59" duration="65.00" routeLength="430.98" waitingTime="11.00" waitingCount="1" stopTime="0.00" timeLoss="21.08" rerouteNo="1" devices="tripinfo_carIn60260:1 routing_carIn60260:1 emissions_carIn60260:1" vType="default_016" speedFactor="1.05" vaporized="">
        <emissions CO_abs="3757.991863" CO2_abs="150460.313732" HC_abs="20.606470" PMx_abs="2.699427" NOx_abs="62.285493" fuel_abs="64.677573" electricity_abs="0"/>
    </tripinfo>
    <tripinfo id="carIn53971:1" depart="57640.00" departLane="272042143_1" departPos="5.10" departSpeed="0.00" departDelay="0.80" arrival="57692.00" arrivalLane="24634414#1_1" arrivalPos="162.19" arrivalSpeed="8.48" duration="52.00" routeLength="493.04" waitingTime="0.00" waitingCount="0" stopTime="0.00" timeLoss="7.62" rerouteNo="1" devices="tripinfo_carIn53971:1 routing_carIn53971:1 emissions_carIn53971:1" vType="default_016" speedFactor="1.03" vaporized="">
        <emissions CO_abs="2406.578870" CO2_abs="143401.624617" HC_abs="14.281423" PMx_abs="2.418683" NOx_abs="58.053753" fuel_abs="61.642551" electricity_abs="0"/>
    </tripinfo>
    <tripinfo id="S5R_frequency1.2" depart="57615.00" departLane="315358250#0_1" departPos="12.10" departSpeed="0.00" departDelay="3.40" arrival="57709.00" arrivalLane="386687235_1" arrivalPos="80.84" arrivalSpeed="13.41" duration="94.00" routeLength="1115.62" waitingTime="0.00" waitingCount="0" stopTime="0.00" timeLoss="12.08" rerouteNo="1" devices="tripinfo_S5R_frequency1.2 routing_S5R_frequency1.2 emissions_S5R_frequency1.2" vType="bus" speedFactor="1.00" vaporized="">
        <emissions CO_abs="1848.414047" CO2_abs="1177581.125283" HC_abs="388.039031" PMx_abs="198.557668" NOx_abs="9085.144450" fuel_abs="502.231227" electricity_abs="0"/>
    </tripinfo>
    <tripinfo id="h12244c1:3" depart="57612.00" departLane="315358244_1" departPos="5.10" departSpeed="0.00" departDelay="0.40" arrival="57714.00" arrivalLane="386687235_1" arrivalPos="80.84" arrivalSpeed="12.06" duration="102.00" routeLength="1186.14" waitingTime="0.00" waitingCount="0" stopTime="0.00" timeLoss="8.97" rerouteNo="1" devices="tripinfo_h12244c1:3 routing_h12244c1:3 emissions_h12244c1:3" vType="default_016" speedFactor="0.93" vaporized="">
        <emissions CO_abs="2486.224324" CO2_abs="221580.022196" HC_abs="16.422559" PMx_abs="3.126842" NOx_abs="84.537046" fuel_abs="95.248290" electricity_abs="0"/>
    </tripinfo>
    <tripinfo id="carIn80064:1" depart="57603.00" departLane="128361109#1_1" departPos="5.10" departSpeed="0.00" departDelay="0.40" arrival="57715.00" arrivalLane="-315358254#1_1" arrivalPos="137.16" arrivalSpeed="14.82" duration="112.00" routeLength="1587.97" waitingTime="3.00" waitingCount="1" stopTime="0.00" timeLoss="28.51" rerouteNo="1" devices="tripinfo_carIn80064:1 routing_carIn80064:1 emissions_carIn80064:1" vType="default_016" speedFactor="1.07" vaporized="">
        <emissions CO_abs="7037.943258" CO2_abs="495005.043223" HC_abs="43.912228" PMx_abs="9.840155" NOx_abs="205.042214" fuel_abs="212.779777" electricity_abs="0"/>
    </tripinfo>
    <tripinfo id="h7800c1:5" depart="57696.00" departLane="-447569998#1_1" departPos="5.10" departSpeed="0.00" departDelay="0.00" arrival="57720.00" arrivalLane="-447569998#1_1" arrivalPos="180.76" arrivalSpeed="7.77" duration="24.00" routeLength="175.66" waitingTime="0.00" waitingCount="0" stopTime="0.00" timeLoss="3.36" rerouteNo="1" devices="tripinfo_h7800c1:5 routing_h7800c1:5 emissions_h7800c1:5" vType="default_016" speedFactor="1.06" vaporized="">
        <emissions CO_abs="1047.933889" CO2_abs="47585.652142" HC_abs="5.867696" PMx_abs="0.793688" NOx_abs="19.441039" fuel_abs="20.455349" electricity_abs="0"/>
    </tripinfo>
    <tripinfo id="h3688c1:1" depart="57625.00" departLane="201201950#1_1" departPos="5.10" departSpeed="0.00" departDelay="0.00" arrival="57721.00" arrivalLane="32978638#0_1" arrivalPos="49.29" arrivalSpeed="13.41" duration="96.00" routeLength="1089.75" waitingTime="1.00" waitingCount="1" stopTime="0.00" timeLoss="17.03" rerouteNo="1" devices="tripinfo_h3688c1:1 routing_h3688c1:1 emissions_h3688c1:1" vType="default_016" speedFactor="1.02" vaporized="">
        <emissions CO_abs="3627.026558" CO2_abs="276154.556500" HC_abs="22.897405" PMx_abs="4.609880" NOx_abs="110.090235" fuel_abs="118.707006" electricity_abs="0"/>
    </tripinfo>
    <tripinfo id="carIn22761:1" depart="57616.00" departLane="-306240162#1_0" departPos="5.10" departSpeed="0.00" departDelay="2.10" arrival="57728.00" arrivalLane="399835085#1_1" arrivalPos="212.23" arrivalSpeed="6.84" duration="112.00" routeLength="1093.26" waitingTime="9.00" waitingCount="1" stopTime="0.00" timeLoss="26.75" rerouteNo="1" devices="tripinfo_carIn22761:1 routing_carIn22761:1 emissions_carIn22761:1" vType="default_016" speedFactor="0.92" vaporized="">
        <emissions CO_abs="5079.854805" CO2_abs="290505.512098" HC_abs="29.937084" PMx_abs="5.278900" NOx_abs="118.317339" fuel_abs="124.876329" electricity_abs="0"/>
    </tripinfo>
    <tripinfo id="h9563c2:5" depart="57631.00" departLane="315358244_1" departPos="5.10" departSpeed="0.00" departDelay="0.70" arrival="57740.00" arrivalLane="386687235_1" arrivalPos="80.84" arrivalSpeed="11.52" duration="109.00" routeLength="1186.14" waitingTime="0.00" waitingCount="0" stopTime="0.00" timeLoss="9.28" rerouteNo="1" devices="tripinfo_h9563c2:5 routing_h9563c2:5 emissions_h9563c2:5" vType="default_016" speedFactor="0.87" vaporized="">
        <emissions CO_abs="2953.154500" CO2_abs="236069.165820" HC_abs="18.889700" PMx_abs="3.465768" NOx_abs="91.545815" fuel_abs="101.476578" electricity_abs="0"/>
    </tripinfo>
    <tripinfo id="h7181c1:1" depart="57660.00" departLane="315358254#0_1" departPos="5.10" departSpeed="0.00" departDelay="0.10" arrival="57740.00" arrivalLane="306240162#0_0" arrivalPos="220.43" arrivalSpeed="16.54" duration="80.00" routeLength="932.35" waitingTime="11.00" waitingCount="2" stopTime="0.00" timeLoss="30.66" rerouteNo="1" devices="tripinfo_h7181c1:1 routing_h7181c1:1 emissions_h7181c1:1" vType="default_016" speedFactor="1.04" vaporized="">
        <emissions CO_abs="6293.789784" CO2_abs="332188.915296" HC_abs="36.618889" PMx_abs="6.875904" NOx_abs="140.355502" fuel_abs="142.793478" electricity_abs="0"/>
    </tripinfo>
    <tripinfo id="h4538c1:1" depart="57701.00" departLane="-10427692#1_1" departPos="5.10" departSpeed="0.00" departDelay="0.00" arrival="57741.00" arrivalLane="-128361102#1_1" arrivalPos="274.68" arrivalSpeed="16.36" duration="40.00" routeLength="440.74" waitingTime="2.00" waitingCount="1" stopTime="0.00" timeLoss="13.16" rerouteNo="1" devices="tripinfo_h4538c1:1 routing_h4538c1:1 emissions_h4538c1:1" vType="default_016" speedFactor="1.21" vaporized="">
        <emissions CO_abs="1986.408296" CO2_abs="123274.997584" HC_abs="11.942838" PMx_abs="2.311173" NOx_abs="50.761889" fuel_abs="52.990569" electricity_abs="0"/>
    </tripinfo>
    <tripinfo id="carIn121703:1" depart="57647.00" departLane="386687232#0_1" departPos="5.10" departSpeed="0.00" departDelay="0.30" arrival="57746.00" arrivalLane="-315358244_1" arrivalPos="33.95" arrivalSpeed="13.47" duration="99.00" routeLength="1157.39" waitingTime="1.00" waitingCount="1" stopTime="0.00" timeLoss="15.38" rerouteNo="1" devices="tripinfo_carIn121703:1 routing_carIn121703:1 emissions_carIn121703:1" vType="default_016" speedFactor="1.00" vaporized="">
        <emissions CO_abs="3302.362746" CO2_abs="263525.498400" HC_abs="21.152210" PMx_abs="4.193817" NOx_abs="103.526508" fuel_abs="113.278525" electricity_abs="0"/>
    </tripinfo>
    <tripinfo id="h3568c1:3" depart="57656.00" departLane="266565295#5_1" departPos="5.10" departSpeed="0.00" departDelay="0.80" arrival="57746.00" arrivalLane="-24634415_1" arrivalPos="62.03" arrivalSpeed="12.14" duration="90.00" routeLength="807.40" waitingTime="5.00" waitingCount="1" stopTime="0.00" timeLoss="23.30" rerouteNo="1" devices="tripinfo_h3568c1:3 routing_h3568c1:3 emissions_h3568c1:3" vType="default_016" speedFactor="0.96" vaporized="">
        <emissions CO_abs="4367.043152" CO2_abs="247680.687939" HC_abs="25.699103" PMx_abs="4.426789" NOx_abs="101.828862" fuel_abs="106.467709" electricity_abs="0"/>
    </tripinfo>
    <tripinfo id="carIn30817:1" depart="57681.00" departLane="315358244_1" departPos="5.10" departSpeed="0.00" departDelay="0.20" arrival="57752.00" arrivalLane="447569997#1_1" arrivalPos="180.93" arrivalSpeed="7.81" duration="71.00" routeLength="718.04" waitingTime="0.00" waitingCount="0" stopTime="0.00" timeLoss="7.92" rerouteNo="1" devices="tripinfo_carIn30817:1 routing_carIn30817:1 emissions_carIn30817:1" vType="default_016" speedFactor="0.98" vaporized="">
        <emissions CO_abs="2370.972068" CO2_abs="161571.813945" HC_abs="14.529130" PMx_abs="2.536905" NOx_abs="63.794521" fuel_abs="69.453219" electricity_abs="0"/>
    </tripinfo>
    <tripinfo id="h317c2:1" depart="57707.00" departLane="-32978638#0_1" departPos="5.10" departSpeed="0.00" departDelay="0.10" arrival="57756.00" arrivalLane="-266565295#5_1" arrivalPos="172.76" arrivalSpeed="11.70" duration="49.00" routeLength="370.53" waitingTime="10.00" waitingCount="1" stopTime="0.00" timeLoss="19.84" rerouteNo="1" devices="tripinfo_h317c2:1 routing_h317c2:1 emissions_h317c2:1" vType="default_016" speedFactor="0.93" vaporized="">
        <emissions CO_abs="2983.595882" CO2_abs="127324.384245" HC_abs="16.577157" PMx_abs="2.411757" NOx_abs="53.290543" fuel_abs="54.731917" electricity_abs="0"/>
    </tripinfo>
    <tripinfo id="h5979c1:5" depart="57669.00" departLane="399835085#1_1" departPos="5.10" departSpeed="0.00" departDelay="0.00" arrival="57768.00" arrivalLane="-315358254#1_1" arrivalPos="137.16" arrivalSpeed="12.48" duration="99.00" routeLength="659.33" waitingTime="11.00" waitingCount="1" stopTime="0.00" timeLoss="25.69" rerouteNo="1" devices="tripinfo_h5979c1:5 routing_h5979c1:5 emissions_h5979c1:5" vType="default_016" speedFactor="0.99" vaporized="">
        <emissions CO_abs="4608.265094" CO2_abs="187593.168428" HC_abs="25.294974" PMx_abs="3.142567" NOx_abs="76.543681" fuel_abs="80.639916" electricity_abs="0"/>
    </tripinfo>
    <tripinfo id="carIn27009:1" depart="57673.00" departLane="-447569998#1_1" departPos="5.10" departSpeed="0.00" departDelay="0.50" arrival="57771.00" arrivalLane="-26677539_1" arrivalPos="152.75" arrivalSpeed="8.04" duration="98.00" routeLength="699.63" waitingTime="0.00" waitingCount="0" stopTime="0.00" timeLoss="10.80" rerouteNo="1" devices="tripinfo_carIn27009:1 routing_carIn27009:1 emissions_carIn27009:1" vType="default_015" speedFactor="0.97" vaporized="">
        <emissions CO_abs="3776.578139" CO2_abs="175725.370969" HC_abs="21.204699" PMx_abs="2.718652" NOx_abs="70.480999" fuel_abs="75.538212" electricity_abs="0"/>
    </tripinfo>
    <tripinfo id="carIn12365:1" depart="57713.00" departLane="315358244_1" departPos="5.10" departSpeed="0.00" departDelay="0.50" arrival="57773.00" arrivalLane="447569997#1_1" arrivalPos="180.93" arrivalSpeed="8.67" duration="60.00" routeLength="718.04" waitingTime="0.00" waitingCount="0" stopTime="0.00" timeLoss="6.38" rerouteNo="1" devices="tripinfo_carIn12365:1 routing_carIn12365:1 emissions_carIn12365:1" vType="default_016" speedFactor="1.15" vaporized="">
        <emissions CO_abs="1961.248849" CO2_abs="148388.048422" HC_abs="12.342430" PMx_abs="2.417693" NOx_abs="58.665413" fuel_abs="63.785772" electricity_abs="0"/>
    </tripinfo>
    <tripinfo id="h3154c1:1" depart="57658.00" departLane="24634507_1" departPos="5.10" departSpeed="0.00" departDelay="0.00" arrival="57774.00" arrivalLane="-266565295#5_1" arrivalPos="172.76" arrivalSpeed="12.28" duration="116.00" routeLength="1206.22" waitingTime="9.00" waitingCount="1" stopTime="0.00" timeLoss="23.06" rerouteNo="1" devices="tripinfo_h3154c1:1 routing_h3154c1:1 emissions_h3154c1:1" vType="default_016" speedFactor="0.96" vaporized="">
        <emissions CO_abs="4340.426511" CO2_abs="285809.142867" HC_abs="26.422244" PMx_abs="4.784675" NOx_abs="114.590841" fuel_abs="122.857536" electricity_abs="0"/>
    </tripinfo>
    <tripinfo id="carIn50326:1" depart="57651.00" departLane="128361102#0_1" departPos="5.10" departSpeed="0.00" departDelay="0.30" arrival="57779.00" arrivalLane="18809673#0_1" arrivalPos="473.56" arrivalSpeed="15.38" duration="128.00" routeLength="1591.07" waitingTime="0.00" waitingCount="0" stopTime="0.00" timeLoss="16.48" rerouteNo="1" devices="tripinfo_carIn50326:1 routing_carIn50326:1 emissions_carIn50326:1" vType="default_016" speedFactor="1.16" vaporized="">
        <emissions CO_abs="4603.116285" CO2_abs="342123.118767" HC_abs="28.802421" PMx_abs="5.991034" NOx_abs="138.071850" fuel_abs="147.063721" electricity_abs="0"/>
    </tripinfo>
    <tripinfo id="carIn28951:1" depart="57606.00" departLane="10425609#0_1" departPos="5.10" departSpeed="0.00" departDelay="0.20" arrival="57785.00" arrivalLane="-128361102#1_1" arrivalPos="274.68" arrivalSpeed="13.22" duration="179.00" routeLength="2113.04" waitingTime="0.00" waitingCount="0" stopTime="0.00" timeLoss="17.82" rerouteNo="1" devices="tripinfo_carIn28951:1 routing_carIn28951:1 emissions_carIn28951:1" vType="default_016" speedFactor="0.96" vaporized="">
        <emissions CO_abs="4964.983584" CO2_abs="434058.469764" HC_abs="32.682140" PMx_abs="6.609086" NOx_abs="168.782392" fuel_abs="186.583515" electricity_abs="0"/>
    </tripinfo>
    <tripinfo id="h330c1:1" depart="57736.00" departLane="-32978638#0_1" departPos="5.10" departSpeed="0.00" departDelay="0.20" arrival="57787.00" arrivalLane="-266565295#5_1" arrivalPos="172.76" arrivalSpeed="12.05" duration="51.00" routeLength="370.53" waitingTime="12.00" waitingCount="1" stopTime="0.00" timeLoss="20.44" rerouteNo="1" devices="tripinfo_h330c1:1 routing_h330c1:1 emissions_h330c1:1" vType="default_016" speedFactor="0.91" vaporized="">
        <emissions CO_abs="3145.948552" CO2_abs="129089.283720" HC_abs="17.362374" PMx_abs="2.493220" NOx_abs="54.411452" fuel_abs="55.490603" electricity_abs="0"/>
    </tripinfo>
    <tripinfo id="h645c1:1" depart="57622.00" departLane="266565295#5_1" departPos="5.10" departSpeed="0.00" departDelay="0.40" arrival="57790.00" arrivalLane="-315358244_1" arrivalPos="33.95" arrivalSpeed="11.97" duration="168.00" routeLength="1910.83" waitingTime="0.00" waitingCount="0" stopTime="0.00" timeLoss="17.44" rerouteNo="1" devices="tripinfo_h645c1:1 routing_h645c1:1 emissions_h645c1:1" vType="default_016" speedFactor="0.92" vaporized="">
        <emissions CO_abs="4335.600167" CO2_abs="369144.123098" HC_abs="28.272864" PMx_abs="5.417123" NOx_abs="142.341437" fuel_abs="158.679959" electricity_abs="0"/>
    </tripinfo>
    <tripinfo id="h3326c1:2" depart="57656.00" departLane="22716069#0_1" departPos="5.10" departSpeed="0.00" departDelay="0.00" arrival="57794.00" arrivalLane="24634517#13_1" arrivalPos="111.62" arrivalSpeed="10.49" duration="138.00" routeLength="1312.81" waitingTime="2.00" waitingCount="1" stopTime="0.00" timeLoss="21.91" rerouteNo="1" devices="tripinfo_h3326c1:2 routing_h3326c1:2 emissions_h3326c1:2" vType="default_016" speedFactor="0.84" vaporized="">
        <emissions CO_abs="4792.255883" CO2_abs="299426.259451" HC_abs="28.783382" PMx_abs="4.940195" NOx_abs="120.581171" fuel_abs="128.711192" electricity_abs="0"/>
    </tripinfo>
    <tripinfo id="carIn107282:1" depart="57749.00" departLane="-447569998#1_1" departPos="5.10" departSpeed="0.00" departDelay="0.00" arrival="57794.00" arrivalLane="315358242#0_1" arrivalPos="165.37" arrivalSpeed="13.62" duration="45.00" routeLength="448.50" waitingTime="0.00" waitingCount="0" stopTime="0.00" timeLoss="4.71" rerouteNo="1" devices="tripinfo_carIn107282:1 routing_carIn107282:1 emissions_carIn107282:1" vType="default_016" speedFactor="1.03" vaporized="">
        <emissions CO_abs="1711.926647" CO2_abs="105126.209527" HC_abs="10.230031" PMx_abs="1.769123" NOx_abs="42.408575" fuel_abs="45.189474" electricity_abs="0"/>
    </tripinfo>
    <tripinfo id="carIn86816:1" depart="57617.00" departLane="128361102#0_1" departPos="5.10" departSpeed="0.00" departDelay="0.80" arrival="57795.00" arrivalLane="201956811#0_1" arrivalPos="40.40" arrivalSpeed="12.32" duration="178.00" routeLength="2067.33" waitingTime="2.00" waitingCount="1" stopTime="0.00" timeLoss="22.59" rerouteNo="1" devices="tripinfo_carIn86816:1 routing_carIn86816:1 emissions_carIn86816:1" vType="default_016" speedFactor="0.98" vaporized="">
        <emissions CO_abs="4986.717016" CO2_abs="416707.373706" HC_abs="32.385825" PMx_abs="6.446950" NOx_abs="162.584894" fuel_abs="179.125049" electricity_abs="0"/>
    </tripinfo>
    <tripinfo id="carIn129809:1" depart="57729.00" departLane="-447569998#1_1" departPos="5.10" departSpeed="0.00" departDelay="1.00" arrival="57796.00" arrivalLane="-315358244_1" arrivalPos="33.95" arrivalSpeed="14.43" duration="67.00" routeLength="706.49" waitingTime="0.00" waitingCount="0" stopTime="0.00" timeLoss="8.47" rerouteNo="1" devices="tripinfo_carIn129809:1 routing_carIn129809:1 emissions_carIn129809:1" vType="default_015" speedFactor="1.05" vaporized="">
        <emissions CO_abs="2460.203220" CO2_abs="165764.657463" HC_abs="15.006884" PMx_abs="2.622610" NOx_abs="65.268317" fuel_abs="71.255573" electricity_abs="0"/>
    </tripinfo>
    <tripinfo id="carIn118591:1" depart="57689.00" departLane="315358244_1" departPos="5.10" departSpeed="0.00" departDelay="0.20" arrival="57805.00" arrivalLane="386687235_1" arrivalPos="80.84" arrivalSpeed="11.56" duration="116.00" routeLength="1186.14" waitingTime="6.00" waitingCount="1" stopTime="0.00" timeLoss="18.68" rerouteNo="1" devices="tripinfo_carIn118591:1 routing_carIn118591:1 emissions_carIn118591:1" vType="default_016" speedFactor="0.89" vaporized="">
        <emissions CO_abs="3441.103684" CO2_abs="242051.674858" HC_abs="21.282413" PMx_abs="3.800876" NOx_abs="95.606429" fuel_abs="104.048177" electricity_abs="0"/>
    </tripinfo>
    <tripinfo id="carIn82278:1" depart="57702.00" departLane="-306240162#1_0" departPos="5.10" departSpeed="0.00" departDelay="0.70" arrival="57806.00" arrivalLane="399835085#1_1" arrivalPos="212.23" arrivalSpeed="7.36" duration="104.00" routeLength="1093.26" waitingTime="6.00" waitingCount="1" stopTime="0.00" timeLoss="22.20" rerouteNo="1" devices="tripinfo_carIn82278:1 routing_carIn82278:1 emissions_carIn82278:1" vType="default_016" speedFactor="0.95" vaporized="">
        <emissions CO_abs="4328.674921" CO2_abs="272758.090915" HC_abs="26.167921" PMx_abs="4.952896" NOx_abs="110.976933" fuel_abs="117.247093" electricity_abs="0"/>
    </tripinfo>
    <tripinfo id="carIn12858:1" depart="57661.00" departLane="128361109#1_1" departPos="5.10" departSpeed="0.00" departDelay="0.90" arrival="57808.00" arrivalLane="399835085#1_1" arrivalPos="212.23" arrivalSpeed="8.59" duration="147.00" routeLength="1738.12" waitingTime="5.00" waitingCount="1" stopTime="0.00" timeLoss="37.47" rerouteNo="1" devices="tripinfo_carIn12858:1 routing_carIn12858:1 emissions_carIn12858:1" vType="default_016" speedFactor="1.05" vaporized="">
        <emissions CO_abs="8105.736692" CO2_abs="511237.333754" HC_abs="49.075045" PMx_abs="9.877318" NOx_abs="211.732384" fuel_abs="219.758255" electricity_abs="0"/>
    </tripinfo>
    <tripinfo id="h20540c1:1" depart="57634.00" departLane="10425609#0_1" departPos="5.10" departSpeed="0.00" departDelay="0.50" arrival="57810.00" arrivalLane="-128361102#1_1" arrivalPos="274.68" arrivalSpeed="12.90" duration="176.00" routeLength="2113.04" waitingTime="2.00" waitingCount="1" stopTime="0.00" timeLoss="24.69" rerouteNo="1" devices="tripinfo_h20540c1:1 routing_h20540c1:1 emissions_h20540c1:1" vType="default_016" speedFactor="1.02" vaporized="">
        <emissions CO_abs="5524.264155" CO2_abs="443846.156041" HC_abs="35.543121" PMx_abs="7.339598" NOx_abs="176.365904" fuel_abs="190.790320" electricity_abs="0"/>
    </tripinfo>
    <tripinfo id="carIn82220:1" depart="57619.00" departLane="-306240162#1_0" departPos="5.10" departSpeed="0.00" departDelay="3.50" arrival="57814.00" arrivalLane="386687235_1" arrivalPos="80.84" arrivalSpeed="14.03" duration="195.00" routeLength="2257.41" waitingTime="8.00" waitingCount="1" stopTime="0.00" timeLoss="49.13" rerouteNo="1" devices="tripinfo_carIn82220:1 routing_carIn82220:1 emissions_carIn82220:1" vType="default_016" speedFactor="1.02" vaporized="">
        <emissions CO_abs="7515.546156" CO2_abs="532733.925448" HC_abs="46.724933" PMx_abs="9.429366" NOx_abs="215.488516" fuel_abs="228.999158" electricity_abs="0"/>
    </tripinfo>
    <tripinfo id="carIn48184:1" depart="57613.00" departLane="-306240162#1_0" departPos="5.10" departSpeed="0.00" departDelay="0.70" arrival="57815.00" arrivalLane="386687235_2" arrivalPos="80.84" arrivalSpeed="11.04" duration="202.00" routeLength="2257.41" waitingTime="0.00" waitingCount="0" stopTime="0.00" timeLoss="22.50" rerouteNo="1" devices="tripinfo_carIn48184:1 routing_carIn48184:1 emissions_carIn48184:1" vType="default_016" speedFactor="0.83" vaporized="">
        <emissions CO_abs="6132.103479" CO2_abs="451535.113108" HC_abs="38.469191" PMx_abs="7.368361" NOx_abs="179.296890" fuel_abs="194.096010" electricity_abs="0"/>
    </tripinfo>
    <tripinfo id="carIn462:1" depart="57622.00" departLane="-306240162#1_0" departPos="5.10" departSpeed="0.00" departDelay="4.80" arrival="57816.00" arrivalLane="386687235_2" arrivalPos="80.84" arrivalSpeed="11.27" duration="194.00" routeLength="2257.41" waitingTime="1.00" waitingCount="1" stopTime="0.00" timeLoss="23.12" rerouteNo="1" devices="tripinfo_carIn462:1 routing_carIn462:1 emissions_carIn462:1" vType="default_016" speedFactor="0.87" vaporized="">
        <emissions CO_abs="5765.228478" CO2_abs="445877.398749" HC_abs="36.600563" PMx_abs="7.194556" NOx_abs="176.035297" fuel_abs="191.663911" electricity_abs="0"/>
    </tripinfo>
    <tripinfo id="h16072c2:3" depart="57663.00" departLane="315358254#0_1" departPos="5.10" departSpeed="0.00" departDelay="2.50" arrival="57816.00" arrivalLane="386687235_1" arrivalPos="80.84" arrivalSpeed="13.65" duration="153.00" routeLength="1611.92" waitingTime="1.00" waitingCount="1" stopTime="0.00" timeLoss="33.22" rerouteNo="1" devices="tripinfo_h16072c2:3 routing_h16072c2:3 emissions_h16072c2:3" vType="default_016" speedFactor="0.98" vaporized="">
        <emissions CO_abs="5515.269829" CO2_abs="381078.337857" HC_abs="33.999705" PMx_abs="6.268374" NOx_abs="152.244702" fuel_abs="163.809748" electricity_abs="0"/>
    </tripinfo>
    <tripinfo id="carIn46110:1" depart="57684.00" departLane="315358244_1" departPos="5.10" departSpeed="0.00" departDelay="1.20" arrival="57818.00" arrivalLane="32978638#0_1" arrivalPos="49.29" arrivalSpeed="14.79" duration="134.00" routeLength="1764.04" waitingTime="0.00" waitingCount="0" stopTime="0.00" timeLoss="13.85" rerouteNo="1" devices="tripinfo_carIn46110:1 routing_carIn46110:1 emissions_carIn46110:1" vType="default_016" speedFactor="1.07" vaporized="">
        <emissions CO_abs="4192.202758" CO2_abs="377995.181052" HC_abs="27.885652" PMx_abs="6.213291" NOx_abs="148.933942" fuel_abs="162.483537" electricity_abs="0"/>
    </tripinfo>
    <tripinfo id="h11737c1:1" depart="57665.00" departLane="272042143_1" departPos="5.10" departSpeed="0.00" departDelay="1.50" arrival="57826.00" arrivalLane="-315358254#1_1" arrivalPos="137.16" arrivalSpeed="14.40" duration="161.00" routeLength="1596.88" waitingTime="26.00" waitingCount="2" stopTime="0.00" timeLoss="52.89" rerouteNo="1" devices="tripinfo_h11737c1:1 routing_h11737c1:1 emissions_h11737c1:1" vType="default_016" speedFactor="1.08" vaporized="">
        <emissions CO_abs="7199.698512" CO2_abs="398049.122524" HC_abs="42.122076" PMx_abs="7.185433" NOx_abs="162.316703" fuel_abs="171.105120" electricity_abs="0"/>
    </tripinfo>
    <tripinfo id="h2831c1:1" depart="57600.00" departLane="201089423#0_1" departPos="5.10" departSpeed="0.00" departDelay="0.00" arrival="57828.00" arrivalLane="-315358244_1" arrivalPos="33.95" arrivalSpeed="13.52" duration="228.00" routeLength="2672.18" waitingTime="3.00" waitingCount="1" stopTime="0.00" timeLoss="31.90" rerouteNo="1" devices="tripinfo_h2831c1:1 routing_h2831c1:1 emissions_h2831c1:1" vType="default_016" speedFactor="0.99" vaporized="">
        <emissions CO_abs="6205.182901" CO2_abs="544322.466673" HC_abs="40.829413" PMx_abs="8.371545" NOx_abs="211.787090" fuel_abs="233.981260" electricity_abs="0"/>
    </tripinfo>
    <tripinfo id="carIn126288:1" depart="57674.00" departLane="272042143_1" departPos="5.10" departSpeed="0.00" departDelay="0.00" arrival="57829.00" arrivalLane="-315358254#1_1" arrivalPos="137.16" arrivalSpeed="14.31" duration="155.00" routeLength="1596.88" waitingTime="23.00" waitingCount="2" stopTime="0.00" timeLoss="48.38" rerouteNo="1" devices="tripinfo_carIn126288:1 routing_carIn126288:1 emissions_carIn126288:1" vType="default_016" speedFactor="1.10" vaporized="">
        <emissions CO_abs="6991.856173" CO2_abs="416195.068622" HC_abs="41.384439" PMx_abs="7.257324" NOx_abs="167.267596" fuel_abs="178.905302" electricity_abs="0"/>
    </tripinfo>
    <tripinfo id="carIn81860:1" depart="57712.00" departLane="128361102#0_1" departPos="5.10" departSpeed="0.00" departDelay="0.60" arrival="57832.00" arrivalLane="-24634517#17_1" arrivalPos="6.43" arrivalSpeed="7.36" duration="120.00" routeLength="1229.64" waitingTime="4.00" waitingCount="1" stopTime="0.00" timeLoss="23.81" rerouteNo="1" devices="tripinfo_carIn81860:1 routing_carIn81860:1 emissions_carIn81860:1" vType="default_016" speedFactor="0.93" vaporized="">
        <emissions CO_abs="4224.138319" CO2_abs="282116.833154" HC_abs="25.829803" PMx_abs="4.770764" NOx_abs="113.780647" fuel_abs="121.270206" electricity_abs="0"/>
    </tripinfo>
    <tripinfo id="50R_frequency3.17" depart="57674.00" departLane="-18809673#6_1" departPos="12.10" departSpeed="0.00" departDelay="0.70" arrival="57836.00" arrivalLane="201956811#0_1" arrivalPos="40.40" arrivalSpeed="11.62" duration="162.00" routeLength="1954.47" waitingTime="0.00" waitingCount="0" stopTime="0.00" timeLoss="17.51" rerouteNo="1" devices="tripinfo_50R_frequency3.17 routing_50R_frequency3.17 emissions_50R_frequency3.17" vType="bus" speedFactor="1.00" vaporized="">
        <emissions CO_abs="2957.112765" CO2_abs="1899096.938417" HC_abs="621.843886" PMx_abs="318.124413" NOx_abs="14608.759617" fuel_abs="809.960445" electricity_abs="0"/>
    </tripinfo>
    <tripinfo id="h6541c1:3" depart="57727.00" departLane="201950247#3_1" departPos="5.10" departSpeed="0.00" departDelay="0.00" arrival="57839.00" arrivalLane="32978638#0_1" arrivalPos="49.29" arrivalSpeed="14.15" duration="112.00" routeLength="1176.17" waitingTime="0.00" waitingCount="0" stopTime="0.00" timeLoss="12.08" rerouteNo="1" devices="tripinfo_h6541c1:3 routing_h6541c1:3 emissions_h6541c1:3" vType="default_016" speedFactor="1.03" vaporized="">
        <emissions CO_abs="4011.537935" CO2_abs="268803.813371" HC_abs="24.531720" PMx_abs="4.438922" NOx_abs="107.669007" fuel_abs="115.547654" electricity_abs="0"/>
    </tripinfo>
    <tripinfo id="carIn8642:1" depart="57774.00" departLane="-447569998#1_1" departPos="5.10" departSpeed="0.00" departDelay="0.90" arrival="57840.00" arrivalLane="-315358244_1" arrivalPos="33.95" arrivalSpeed="13.69" duration="66.00" routeLength="706.49" waitingTime="0.00" waitingCount="0" stopTime="0.00" timeLoss="6.52" rerouteNo="1" devices="tripinfo_carIn8642:1 routing_carIn8642:1 emissions_carIn8642:1" vType="default_016" speedFactor="1.01" vaporized="">
        <emissions CO_abs="1928.800815" CO2_abs="141068.468566" HC_abs="12.000030" PMx_abs="2.141235" NOx_abs="54.967485" fuel_abs="60.639668" electricity_abs="0"/>
    </tripinfo>