<?xml version="1.0" encoding="UTF-8"?>

<!-- generated on 2021-10-26 12:01:01 by Eclipse SUMO sumo Version 1.10.0
<configuration xmlns:xsi="http://www.w3.org/2001/XMLSchema-instance" xsi:noNamespaceSchemaLocation="http://sumo.dlr.de/xsd/sumoConfiguration.xsd">

    <input>
        <net-file value="/Users/behradkoohy/sumo-scratchpad/RESCO/environments/ingolstadt21/ingolstadt21.net.xml"/>
        <route-files value="/Users/behradkoohy/sumo-scratchpad/RESCO/environments/ingolstadt21/ingolstadt21.rou.xml"/>
    </input>

    <output>
        <tripinfo-output value="/Users/behradkoohy/sumo-scratchpad/RESCO/logs/IDQN-tr0-ingolstadt21-21-drq_norm-wait_norm/tripinfo_43.xml"/>
        <tripinfo-output.write-unfinished value="true"/>
    </output>

    <time>
        <begin value="57600"/>
        <end value="61200"/>
    </time>

    <processing>
        <time-to-teleport value="-1"/>
    </processing>

    <report>
        <no-warnings value="true"/>
        <no-step-log value="true"/>
    </report>

    <emissions>
        <device.emissions.probability value="1"/>
    </emissions>

    <traci_server>
        <remote-port value="57893"/>
    </traci_server>

    <random_number>
        <random value="true"/>
    </random_number>

</configuration>
-->

<tripinfos xmlns:xsi="http://www.w3.org/2001/XMLSchema-instance" xsi:noNamespaceSchemaLocation="http://sumo.dlr.de/xsd/tripinfo_file.xsd">
    <tripinfo id="carIn60260:1" depart="57606.00" departLane="315358254#0_1" departPos="5.10" departSpeed="0.00" departDelay="0.90" arrival="57664.00" arrivalLane="399835085#1_1" arrivalPos="212.23" arrivalSpeed="7.30" duration="58.00" routeLength="430.98" waitingTime="1.00" waitingCount="1" stopTime="0.00" timeLoss="11.30" rerouteNo="1" devices="tripinfo_carIn60260:1 routing_carIn60260:1 emissions_carIn60260:1" vType="default_016" speedFactor="1.00" vaporized="">
        <emissions CO_abs="2637.738602" CO2_abs="125747.165833" HC_abs="14.936965" PMx_abs="2.221752" NOx_abs="52.047869" fuel_abs="54.053864" electricity_abs="0"/>
    </tripinfo>
    <tripinfo id="h15454c2:3" depart="57612.00" departLane="24608844_1" departPos="5.10" departSpeed="0.00" departDelay="0.50" arrival="57667.00" arrivalLane="32978638#0_1" arrivalPos="49.29" arrivalSpeed="12.90" duration="55.00" routeLength="354.79" waitingTime="7.00" waitingCount="1" stopTime="0.00" timeLoss="18.51" rerouteNo="1" devices="tripinfo_h15454c2:3 routing_h15454c2:3 emissions_h15454c2:3" vType="default_016" speedFactor="0.93" vaporized="">
        <emissions CO_abs="2798.046191" CO2_abs="128557.842092" HC_abs="15.736008" PMx_abs="2.295442" NOx_abs="53.224541" fuel_abs="55.262130" electricity_abs="0"/>
    </tripinfo>
    <tripinfo id="carIn53971:1" depart="57640.00" departLane="272042143_1" departPos="5.10" departSpeed="0.00" departDelay="0.80" arrival="57697.00" arrivalLane="24634414#1_1" arrivalPos="162.19" arrivalSpeed="7.15" duration="57.00" routeLength="493.04" waitingTime="0.00" waitingCount="0" stopTime="0.00" timeLoss="9.09" rerouteNo="1" devices="tripinfo_carIn53971:1 routing_carIn53971:1 emissions_carIn53971:1" vType="default_016" speedFactor="0.95" vaporized="">
        <emissions CO_abs="2699.033645" CO2_abs="145867.275671" HC_abs="15.691814" PMx_abs="2.545140" NOx_abs="59.905732" fuel_abs="62.702492" electricity_abs="0"/>
    </tripinfo>
    <tripinfo id="h7800c1:5" depart="57696.00" departLane="-447569998#1_1" departPos="5.10" departSpeed="0.00" departDelay="0.00" arrival="57719.00" arrivalLane="-447569998#1_2" arrivalPos="180.76" arrivalSpeed="7.96" duration="23.00" routeLength="175.66" waitingTime="0.00" waitingCount="0" stopTime="0.00" timeLoss="3.29" rerouteNo="1" devices="tripinfo_h7800c1:5 routing_h7800c1:5 emissions_h7800c1:5" vType="default_016" speedFactor="1.08" vaporized="">
        <emissions CO_abs="935.528225" CO2_abs="40982.191622" HC_abs="5.205981" PMx_abs="0.700459" NOx_abs="16.855551" fuel_abs="17.616762" electricity_abs="0"/>
    </tripinfo>
    <tripinfo id="h7181c1:1" depart="57660.00" departLane="315358254#0_1" departPos="5.10" departSpeed="0.00" departDelay="0.10" arrival="57742.00" arrivalLane="306240162#0_0" arrivalPos="220.43" arrivalSpeed="14.75" duration="82.00" routeLength="932.35" waitingTime="7.00" waitingCount="2" stopTime="0.00" timeLoss="26.17" rerouteNo="1" devices="tripinfo_h7181c1:1 routing_h7181c1:1 emissions_h7181c1:1" vType="default_016" speedFactor="0.92" vaporized="">
        <emissions CO_abs="4392.136100" CO2_abs="264574.121828" HC_abs="26.286596" PMx_abs="5.068243" NOx_abs="109.087020" fuel_abs="113.728938" electricity_abs="0"/>
    </tripinfo>
    <tripinfo id="carIn30817:1" depart="57681.00" departLane="315358244_1" departPos="5.10" departSpeed="0.00" departDelay="0.20" arrival="57745.00" arrivalLane="447569997#1_1" arrivalPos="180.93" arrivalSpeed="8.53" duration="64.00" routeLength="718.04" waitingTime="0.00" waitingCount="0" stopTime="0.00" timeLoss="6.93" rerouteNo="1" devices="tripinfo_carIn30817:1 routing_carIn30817:1 emissions_carIn30817:1" vType="default_016" speedFactor="1.09" vaporized="">
        <emissions CO_abs="2096.641918" CO2_abs="148397.172924" HC_abs="12.976711" PMx_abs="2.450181" NOx_abs="59.116706" fuel_abs="63.789740" electricity_abs="0"/>
    </tripinfo>
    <tripinfo id="h3568c1:3" depart="57656.00" departLane="266565295#5_1" departPos="5.10" departSpeed="0.00" departDelay="0.80" arrival="57746.00" arrivalLane="-24634415_1" arrivalPos="62.03" arrivalSpeed="13.17" duration="90.00" routeLength="807.40" waitingTime="9.00" waitingCount="1" stopTime="0.00" timeLoss="27.44" rerouteNo="1" devices="tripinfo_h3568c1:3 routing_h3568c1:3 emissions_h3568c1:3" vType="default_016" speedFactor="1.04" vaporized="">
        <emissions CO_abs="4715.057918" CO2_abs="256867.151361" HC_abs="27.485542" PMx_abs="4.788322" NOx_abs="106.841858" fuel_abs="110.416443" electricity_abs="0"/>
    </tripinfo>
    <tripinfo id="h3688c1:1" depart="57625.00" departLane="201201950#1_1" departPos="5.10" departSpeed="0.00" departDelay="0.00" arrival="57750.00" arrivalLane="32978638#0_1" arrivalPos="49.29" arrivalSpeed="14.21" duration="125.00" routeLength="1089.75" waitingTime="38.00" waitingCount="1" stopTime="0.00" timeLoss="51.61" rerouteNo="1" devices="tripinfo_h3688c1:1 routing_h3688c1:1 emissions_h3688c1:1" vType="default_016" speedFactor="1.09" vaporized="">
        <emissions CO_abs="9515.053306" CO2_abs="371465.180255" HC_abs="52.055476" PMx_abs="7.356144" NOx_abs="156.068275" fuel_abs="159.679119" electricity_abs="0"/>
    </tripinfo>
    <tripinfo id="h4538c1:1" depart="57701.00" departLane="-10427692#1_1" departPos="5.10" departSpeed="0.00" departDelay="0.00" arrival="57754.00" arrivalLane="-128361102#1_1" arrivalPos="274.68" arrivalSpeed="13.97" duration="53.00" routeLength="440.74" waitingTime="14.00" waitingCount="1" stopTime="0.00" timeLoss="23.40" rerouteNo="1" devices="tripinfo_h4538c1:1 routing_h4538c1:1 emissions_h4538c1:1" vType="default_016" speedFactor="1.09" vaporized="">
        <emissions CO_abs="3310.339310" CO2_abs="144796.835287" HC_abs="18.443914" PMx_abs="2.666150" NOx_abs="59.515062" fuel_abs="62.242763" electricity_abs="0"/>
    </tripinfo>
    <tripinfo id="h12244c1:3" depart="57612.00" departLane="315358244_1" departPos="5.10" departSpeed="0.00" departDelay="0.40" arrival="57756.00" arrivalLane="386687235_1" arrivalPos="80.84" arrivalSpeed="13.84" duration="144.00" routeLength="1186.14" waitingTime="39.00" waitingCount="2" stopTime="0.00" timeLoss="60.74" rerouteNo="1" devices="tripinfo_h12244c1:3 routing_h12244c1:3 emissions_h12244c1:3" vType="default_016" speedFactor="1.04" vaporized="">
        <emissions CO_abs="9237.922565" CO2_abs="384236.432954" HC_abs="51.097054" PMx_abs="7.261691" NOx_abs="159.701315" fuel_abs="165.168980" electricity_abs="0"/>
    </tripinfo>
    <tripinfo id="h3326c1:2" depart="57656.00" departLane="22716069#0_1" departPos="5.10" departSpeed="0.00" departDelay="0.00" arrival="57756.00" arrivalLane="24634517#13_1" arrivalPos="111.62" arrivalSpeed="15.22" duration="100.00" routeLength="1312.81" waitingTime="0.00" waitingCount="0" stopTime="0.00" timeLoss="15.06" rerouteNo="1" devices="tripinfo_h3326c1:2 routing_h3326c1:2 emissions_h3326c1:2" vType="default_016" speedFactor="1.14" vaporized="">
        <emissions CO_abs="4279.762970" CO2_abs="335766.933695" HC_abs="27.323660" PMx_abs="5.972436" NOx_abs="135.637439" fuel_abs="144.331199" electricity_abs="0"/>
    </tripinfo>
    <tripinfo id="h317c2:1" depart="57707.00" departLane="-32978638#0_1" departPos="5.10" departSpeed="0.00" departDelay="0.10" arrival="57758.00" arrivalLane="-266565295#5_1" arrivalPos="172.76" arrivalSpeed="10.80" duration="51.00" routeLength="370.53" waitingTime="11.00" waitingCount="1" stopTime="0.00" timeLoss="19.14" rerouteNo="1" devices="tripinfo_h317c2:1 routing_h317c2:1 emissions_h317c2:1" vType="default_016" speedFactor="0.87" vaporized="">
        <emissions CO_abs="2969.570252" CO2_abs="127823.972219" HC_abs="16.528831" PMx_abs="2.448270" NOx_abs="53.820301" fuel_abs="54.946592" electricity_abs="0"/>
    </tripinfo>
    <tripinfo id="carIn27009:1" depart="57673.00" departLane="-447569998#1_1" departPos="5.10" departSpeed="0.00" departDelay="0.50" arrival="57760.00" arrivalLane="-26677539_1" arrivalPos="152.75" arrivalSpeed="8.02" duration="87.00" routeLength="699.63" waitingTime="0.00" waitingCount="0" stopTime="0.00" timeLoss="11.67" rerouteNo="1" devices="tripinfo_carIn27009:1 routing_carIn27009:1 emissions_carIn27009:1" vType="default_015" speedFactor="1.11" vaporized="">
        <emissions CO_abs="3595.980709" CO2_abs="186563.980957" HC_abs="20.674508" PMx_abs="3.036212" NOx_abs="75.573116" fuel_abs="80.196793" electricity_abs="0"/>
    </tripinfo>
    <tripinfo id="carIn80064:1" depart="57603.00" departLane="128361109#1_1" departPos="5.10" departSpeed="0.00" departDelay="0.40" arrival="57761.00" arrivalLane="-315358254#1_1" arrivalPos="137.16" arrivalSpeed="12.99" duration="158.00" routeLength="1587.97" waitingTime="33.00" waitingCount="3" stopTime="0.00" timeLoss="69.84" rerouteNo="1" devices="tripinfo_carIn80064:1 routing_carIn80064:1 emissions_carIn80064:1" vType="default_016" speedFactor="1.01" vaporized="">
        <emissions CO_abs="11138.862683" CO2_abs="537934.620800" HC_abs="63.564631" PMx_abs="10.949879" NOx_abs="225.959438" fuel_abs="231.235664" electricity_abs="0"/>
    </tripinfo>
    <tripinfo id="S5R_frequency1.2" depart="57624.00" departLane="315358250#0_1" departPos="12.10" departSpeed="0.00" departDelay="12.40" arrival="57762.00" arrivalLane="386687235_1" arrivalPos="80.84" arrivalSpeed="13.58" duration="138.00" routeLength="1115.62" waitingTime="32.00" waitingCount="1" stopTime="0.00" timeLoss="56.54" rerouteNo="1" devices="tripinfo_S5R_frequency1.2 routing_S5R_frequency1.2 emissions_S5R_frequency1.2" vType="bus" speedFactor="1.00" vaporized="">
        <emissions CO_abs="2848.179109" CO2_abs="1581255.732323" HC_abs="606.907946" PMx_abs="300.359833" NOx_abs="12827.724382" fuel_abs="674.313788" electricity_abs="0"/>
    </tripinfo>
    <tripinfo id="carIn22761:1" depart="57616.00" departLane="-306240162#1_0" departPos="5.10" departSpeed="0.00" departDelay="2.10" arrival="57762.00" arrivalLane="399835085#1_1" arrivalPos="212.23" arrivalSpeed="7.00" duration="146.00" routeLength="1093.26" waitingTime="30.00" waitingCount="2" stopTime="0.00" timeLoss="54.50" rerouteNo="1" devices="tripinfo_carIn22761:1 routing_carIn22761:1 emissions_carIn22761:1" vType="default_016" speedFactor="0.85" vaporized="">
        <emissions CO_abs="8784.581589" CO2_abs="346300.959835" HC_abs="48.014486" PMx_abs="6.628705" NOx_abs="144.710234" fuel_abs="148.862144" electricity_abs="0"/>
    </tripinfo>
    <tripinfo id="carIn86816:1" depart="57617.00" departLane="128361102#0_1" departPos="5.10" departSpeed="0.00" departDelay="0.80" arrival="57763.00" arrivalLane="201956811#0_1" arrivalPos="40.40" arrivalSpeed="15.49" duration="146.00" routeLength="2067.33" waitingTime="0.00" waitingCount="0" stopTime="0.00" timeLoss="18.21" rerouteNo="1" devices="tripinfo_carIn86816:1 routing_carIn86816:1 emissions_carIn86816:1" vType="default_016" speedFactor="1.18" vaporized="">
        <emissions CO_abs="5318.629773" CO2_abs="459216.750959" HC_abs="34.856030" PMx_abs="8.017765" NOx_abs="183.292373" fuel_abs="197.396645" electricity_abs="0"/>
    </tripinfo>
    <tripinfo id="carIn121703:1" depart="57647.00" departLane="386687232#0_1" departPos="5.10" departSpeed="0.00" departDelay="0.30" arrival="57763.00" arrivalLane="-315358244_1" arrivalPos="33.95" arrivalSpeed="12.67" duration="116.00" routeLength="1157.39" waitingTime="9.00" waitingCount="3" stopTime="0.00" timeLoss="30.33" rerouteNo="1" devices="tripinfo_carIn121703:1 routing_carIn121703:1 emissions_carIn121703:1" vType="default_016" speedFactor="0.98" vaporized="">
        <emissions CO_abs="4325.862092" CO2_abs="280301.282642" HC_abs="26.285798" PMx_abs="4.914014" NOx_abs="114.082191" fuel_abs="120.489631" electricity_abs="0"/>
    </tripinfo>
    <tripinfo id="h9563c2:5" depart="57631.00" departLane="315358244_1" departPos="5.10" departSpeed="0.00" departDelay="0.70" arrival="57765.00" arrivalLane="386687235_1" arrivalPos="80.84" arrivalSpeed="12.57" duration="134.00" routeLength="1186.14" waitingTime="23.00" waitingCount="1" stopTime="0.00" timeLoss="41.17" rerouteNo="1" devices="tripinfo_h9563c2:5 routing_h9563c2:5 emissions_h9563c2:5" vType="default_016" speedFactor="0.93" vaporized="">
        <emissions CO_abs="6500.189469" CO2_abs="294383.399566" HC_abs="36.447826" PMx_abs="5.094294" NOx_abs="119.186363" fuel_abs="126.544733" electricity_abs="0"/>
    </tripinfo>
    <tripinfo id="h330c1:1" depart="57736.00" departLane="-32978638#0_1" departPos="5.10" departSpeed="0.00" departDelay="0.20" arrival="57796.00" arrivalLane="-266565295#5_1" arrivalPos="172.76" arrivalSpeed="12.19" duration="60.00" routeLength="370.53" waitingTime="22.00" waitingCount="1" stopTime="0.00" timeLoss="30.95" rerouteNo="1" devices="tripinfo_h330c1:1 routing_h330c1:1 emissions_h330c1:1" vType="default_016" speedFactor="0.94" vaporized="">
        <emissions CO_abs="4455.528688" CO2_abs="149508.225034" HC_abs="23.798939" PMx_abs="2.973388" NOx_abs="63.489786" fuel_abs="64.268506" electricity_abs="0"/>
    </tripinfo>
    <tripinfo id="carIn118591:1" depart="57689.00" departLane="315358244_1" departPos="5.10" departSpeed="0.00" departDelay="0.20" arrival="57797.00" arrivalLane="386687235_1" arrivalPos="80.84" arrivalSpeed="13.63" duration="108.00" routeLength="1186.14" waitingTime="8.00" waitingCount="1" stopTime="0.00" timeLoss="24.01" rerouteNo="1" devices="tripinfo_carIn118591:1 routing_carIn118591:1 emissions_carIn118591:1" vType="default_016" speedFactor="1.03" vaporized="">
        <emissions CO_abs="4101.558527" CO2_abs="272118.327264" HC_abs="25.008295" PMx_abs="4.569914" NOx_abs="108.505425" fuel_abs="116.972440" electricity_abs="0"/>
    </tripinfo>
    <tripinfo id="carIn50326:1" depart="57651.00" departLane="128361102#0_1" departPos="5.10" departSpeed="0.00" departDelay="0.30" arrival="57800.00" arrivalLane="18809673#0_1" arrivalPos="473.56" arrivalSpeed="14.54" duration="149.00" routeLength="1591.07" waitingTime="10.00" waitingCount="1" stopTime="0.00" timeLoss="28.84" rerouteNo="1" devices="tripinfo_carIn50326:1 routing_carIn50326:1 emissions_carIn50326:1" vType="default_016" speedFactor="1.08" vaporized="">
        <emissions CO_abs="5693.549192" CO2_abs="372015.764389" HC_abs="34.486975" PMx_abs="6.307953" NOx_abs="148.969735" fuel_abs="159.914163" electricity_abs="0"/>
    </tripinfo>
    <tripinfo id="carIn12365:1" depart="57713.00" departLane="315358244_1" departPos="5.10" departSpeed="0.00" departDelay="0.50" arrival="57802.00" arrivalLane="447569997#1_1" arrivalPos="180.93" arrivalSpeed="7.70" duration="89.00" routeLength="718.04" waitingTime="8.00" waitingCount="1" stopTime="0.00" timeLoss="25.20" rerouteNo="1" devices="tripinfo_carIn12365:1 routing_carIn12365:1 emissions_carIn12365:1" vType="default_016" speedFactor="0.97" vaporized="">
        <emissions CO_abs="4112.065921" CO2_abs="188573.209018" HC_abs="23.115100" PMx_abs="3.327714" NOx_abs="77.466296" fuel_abs="81.060559" electricity_abs="0"/>
    </tripinfo>
    <tripinfo id="carIn107282:1" depart="57749.00" departLane="-447569998#1_1" departPos="5.10" departSpeed="0.00" departDelay="0.00" arrival="57804.00" arrivalLane="315358242#0_1" arrivalPos="165.37" arrivalSpeed="15.28" duration="55.00" routeLength="448.50" waitingTime="7.00" waitingCount="1" stopTime="0.00" timeLoss="17.37" rerouteNo="1" devices="tripinfo_carIn107282:1 routing_carIn107282:1 emissions_carIn107282:1" vType="default_016" speedFactor="1.11" vaporized="">
        <emissions CO_abs="2999.784775" CO2_abs="139937.859234" HC_abs="16.917248" PMx_abs="2.529465" NOx_abs="57.669233" fuel_abs="60.153926" electricity_abs="0"/>
    </tripinfo>
    <tripinfo id="carIn129809:1" depart="57729.00" departLane="-447569998#1_1" departPos="5.10" departSpeed="0.00" departDelay="1.00" arrival="57808.00" arrivalLane="-315358244_1" arrivalPos="33.95" arrivalSpeed="12.93" duration="79.00" routeLength="706.49" waitingTime="7.00" waitingCount="1" stopTime="0.00" timeLoss="18.04" rerouteNo="1" devices="tripinfo_carIn129809:1 routing_carIn129809:1 emissions_carIn129809:1" vType="default_015" speedFactor="1.00" vaporized="">
        <emissions CO_abs="2683.859162" CO2_abs="170349.305428" HC_abs="16.182137" PMx_abs="2.775620" NOx_abs="67.854924" fuel_abs="73.226321" electricity_abs="0"/>
    </tripinfo>
    <tripinfo id="carIn82278:1" depart="57702.00" departLane="-306240162#1_0" departPos="5.10" departSpeed="0.00" departDelay="0.70" arrival="57812.00" arrivalLane="399835085#1_1" arrivalPos="212.23" arrivalSpeed="8.62" duration="110.00" routeLength="1093.26" waitingTime="15.00" waitingCount="1" stopTime="0.00" timeLoss="35.96" rerouteNo="1" devices="tripinfo_carIn82278:1 routing_carIn82278:1 emissions_carIn82278:1" vType="default_016" speedFactor="1.06" vaporized="">
        <emissions CO_abs="5996.351821" CO2_abs="319006.458712" HC_abs="34.854183" PMx_abs="6.095158" NOx_abs="132.034220" fuel_abs="137.127599" electricity_abs="0"/>
    </tripinfo>
    <tripinfo id="carIn12858:1" depart="57661.00" departLane="128361109#1_1" departPos="5.10" departSpeed="0.00" departDelay="0.90" arrival="57817.00" arrivalLane="399835085#1_1" arrivalPos="212.23" arrivalSpeed="6.89" duration="156.00" routeLength="1738.12" waitingTime="9.00" waitingCount="1" stopTime="0.00" timeLoss="38.15" rerouteNo="1" devices="tripinfo_carIn12858:1 routing_carIn12858:1 emissions_carIn12858:1" vType="default_016" speedFactor="0.98" vaporized="">
        <emissions CO_abs="7529.046243" CO2_abs="467852.904819" HC_abs="45.410408" PMx_abs="8.815869" NOx_abs="192.388071" fuel_abs="201.109651" electricity_abs="0"/>
    </tripinfo>
    <tripinfo id="carIn107084:1" depart="57601.00" departLane="124812856#0_1" departPos="5.10" departSpeed="0.00" departDelay="0.70" arrival="57827.00" arrivalLane="-128361102#1_1" arrivalPos="274.68" arrivalSpeed="12.83" duration="226.00" routeLength="2250.49" waitingTime="23.00" waitingCount="3" stopTime="0.00" timeLoss="61.31" rerouteNo="1" devices="tripinfo_carIn107084:1 routing_carIn107084:1 emissions_carIn107084:1" vType="default_016" speedFactor="1.00" vaporized="">
        <emissions CO_abs="9767.680590" CO2_abs="565674.365394" HC_abs="57.703987" PMx_abs="9.991269" NOx_abs="230.177139" fuel_abs="243.160233" electricity_abs="0"/>
    </tripinfo>
    <tripinfo id="h3154c1:1" depart="57658.00" departLane="24634507_1" departPos="5.10" departSpeed="0.00" departDelay="0.00" arrival="57829.00" arrivalLane="-266565295#5_1" arrivalPos="172.76" arrivalSpeed="12.68" duration="171.00" routeLength="1206.22" waitingTime="54.00" waitingCount="2" stopTime="0.00" timeLoss="74.71" rerouteNo="1" devices="tripinfo_h3154c1:1 routing_h3154c1:1 emissions_h3154c1:1" vType="default_016" speedFactor="0.93" vaporized="">
        <emissions CO_abs="11793.904096" CO2_abs="424989.419014" HC_abs="63.655685" PMx_abs="8.136961" NOx_abs="177.984165" fuel_abs="182.688294" electricity_abs="0"/>
    </tripinfo>
    <tripinfo id="carIn77943:1" depart="57608.00" departLane="124812856#0_1" departPos="5.10" departSpeed="0.00" departDelay="2.50" arrival="57834.00" arrivalLane="-128361102#1_1" arrivalPos="274.68" arrivalSpeed="11.43" duration="226.00" routeLength="2250.49" waitingTime="9.00" waitingCount="1" stopTime="0.00" timeLoss="37.11" rerouteNo="1" devices="tripinfo_carIn77943:1 routing_carIn77943:1 emissions_carIn77943:1" vType="default_016" speedFactor="0.87" vaporized="">
        <emissions CO_abs="6973.056888" CO2_abs="466867.005990" HC_abs="42.571110" PMx_abs="7.373309" NOx_abs="185.044654" fuel_abs="200.687335" electricity_abs="0"/>
    </tripinfo>
    <tripinfo id="carIn102915:1" depart="57643.00" departLane="128361102#0_1" departPos="5.10" departSpeed="0.00" departDelay="0.40" arrival="57834.00" arrivalLane="201956811#0_1" arrivalPos="40.40" arrivalSpeed="14.62" duration="191.00" routeLength="2067.33" waitingTime="26.00" waitingCount="2" stopTime="0.00" timeLoss="54.18" rerouteNo="1" devices="tripinfo_carIn102915:1 routing_carIn102915:1 emissions_carIn102915:1" vType="default_016" speedFactor="1.11" vaporized="">
        <emissions CO_abs="8944.008718" CO2_abs="517811.449426" HC_abs="52.798192" PMx_abs="9.468688" NOx_abs="211.534859" fuel_abs="222.585544" electricity_abs="0"/>
    </tripinfo>
    <tripinfo id="h645c1:1" depart="57622.00" departLane="266565295#5_1" departPos="5.10" departSpeed="0.00" departDelay="0.40" arrival="57837.00" arrivalLane="-315358244_1" arrivalPos="33.95" arrivalSpeed="13.25" duration="215.00" routeLength="1910.83" waitingTime="39.00" waitingCount="4" stopTime="0.00" timeLoss="71.90" rerouteNo="1" devices="tripinfo_h645c1:1 routing_h645c1:1 emissions_h645c1:1" vType="default_016" speedFactor="0.97" vaporized="">
        <emissions CO_abs="10447.864070" CO2_abs="517700.624653" HC_abs="59.661014" PMx_abs="9.104130" NOx_abs="210.600706" fuel_abs="222.539625" electricity_abs="0"/>
    </tripinfo>
    <tripinfo id="randUni33724:1" depart="57646.00" departLane="128361102#0_1" departPos="5.10" departSpeed="0.00" departDelay="1.20" arrival="57837.00" arrivalLane="201956811#0_1" arrivalPos="40.40" arrivalSpeed="13.67" duration="191.00" routeLength="2067.33" waitingTime="18.00" waitingCount="2" stopTime="0.00" timeLoss="46.50" rerouteNo="1" devices="tripinfo_randUni33724:1 routing_randUni33724:1 emissions_randUni33724:1" vType="random_016" speedFactor="1.05" vaporized="">
        <emissions CO_abs="7642.367303" CO2_abs="478208.871501" HC_abs="45.903442" PMx_abs="8.163738" NOx_abs="191.599290" fuel_abs="205.562416" electricity_abs="0"/>
    </tripinfo>
    <tripinfo id="carIn100288:1" depart="57664.00" departLane="128361102#0_1" departPos="5.10" departSpeed="0.00" departDelay="0.60" arrival="57838.00" arrivalLane="201956811#0_1" arrivalPos="40.40" arrivalSpeed="13.80" duration="174.00" routeLength="2067.33" waitingTime="6.00" waitingCount="1" stopTime="0.00" timeLoss="32.61" rerouteNo="1" devices="tripinfo_carIn100288:1 routing_carIn100288:1 emissions_carIn100288:1" vType="default_016" speedFactor="1.07" vaporized="">
        <emissions CO_abs="6035.050510" CO2_abs="463970.959327" HC_abs="38.309745" PMx_abs="7.900470" NOx_abs="185.815041" fuel_abs="199.440969" electricity_abs="0"/>
    </tripinfo>
    <tripinfo id="carIn81860:1" depart="57712.00" departLane="128361102#0_1" departPos="5.10" departSpeed="0.00" departDelay="0.60" arrival="57838.00" arrivalLane="-24634517#17_1" arrivalPos="6.43" arrivalSpeed="6.39" duration="126.00" routeLength="1229.64" waitingTime="18.00" waitingCount="1" stopTime="0.00" timeLoss="36.40" rerouteNo="1" devices="tripinfo_carIn81860:1 routing_carIn81860:1 emissions_carIn81860:1" vType="default_016" speedFactor="1.01" vaporized="">
        <emissions CO_abs="5488.092552" CO2_abs="295155.792382" HC_abs="31.887017" PMx_abs="5.144433" NOx_abs="119.471250" fuel_abs="126.875845" electricity_abs="0"/>
    </tripinfo>
    <tripinfo id="h16072c2:3" depart="57663.00" departLane="315358254#0_1" departPos="5.10" departSpeed="0.00" departDelay="2.50" arrival="57844.00" arrivalLane="386687235_1" arrivalPos="80.84" arrivalSpeed="13.30" duration="181.00" routeLength="1611.92" waitingTime="38.00" waitingCount="2" stopTime="0.00" timeLoss="61.07" rerouteNo="1" devices="tripinfo_h16072c2:3 routing_h16072c2:3 emissions_h16072c2:3" vType="default_016" speedFactor="0.99" vaporized="">
        <emissions CO_abs="9738.720398" CO2_abs="435511.226736" HC_abs="54.526035" PMx_abs="7.918326" NOx_abs="178.679763" fuel_abs="187.209989" electricity_abs="0"/>
    </tripinfo>
    <tripinfo id="carIn48184:1" depart="57613.00" departLane="-306240162#1_0" departPos="5.10" departSpeed="0.00" departDelay="0.70" arrival="57845.00" arrivalLane="386687235_2" arrivalPos="80.84" arrivalSpeed="10.63" duration="232.00" routeLength="2257.41" waitingTime="14.00" waitingCount="2" stopTime="0.00" timeLoss="49.62" rerouteNo="1" devices="tripinfo_carIn48184:1 routing_carIn48184:1 emissions_carIn48184:1" vType="default_016" speedFactor="0.82" vaporized="">
        <emissions CO_abs="8686.877712" CO2_abs="527511.607736" HC_abs="51.854776" PMx_abs="9.015917" NOx_abs="213.251512" fuel_abs="226.755673" electricity_abs="0"/>
    </tripinfo>
    <tripinfo id="carIn85747:1" depart="57673.00" departLane="128361109#1_1" departPos="5.10" departSpeed="0.00" departDelay="0.70" arrival="57845.00" arrivalLane="386687235_1" arrivalPos="80.84" arrivalSpeed="14.99" duration="172.00" routeLength="2088.57" waitingTime="27.00" waitingCount="2" stopTime="0.00" timeLoss="48.21" rerouteNo="1" devices="tripinfo_carIn85747:1 routing_carIn85747:1 emissions_carIn85747:1" vType="default_016" speedFactor="1.22" vaporized="">
        <emissions CO_abs="8510.075255" CO2_abs="501042.536868" HC_abs="50.358406" PMx_abs="9.187788" NOx_abs="202.593977" fuel_abs="215.377338" electricity_abs="0"/>
    </tripinfo>
    <tripinfo id="carIn28951:1" depart="57606.00" departLane="10425609#0_1" departPos="5.10" departSpeed="0.00" departDelay="0.20" arrival="57850.00" arrivalLane="-128361102#1_1" arrivalPos="274.68" arrivalSpeed="11.72" duration="244.00" routeLength="2113.04" waitingTime="49.00" waitingCount="2" stopTime="0.00" timeLoss="78.38" rerouteNo="1" devices="tripinfo_carIn28951:1 routing_carIn28951:1 emissions_carIn28951:1" vType="default_016" speedFactor="0.94" vaporized="">
        <emissions CO_abs="12504.214770" CO2_abs="561978.151711" HC_abs="70.022393" PMx_abs="9.816012" NOx_abs="228.282403" fuel_abs="241.573924" electricity_abs="0"/>
    </tripinfo>
    <tripinfo id="h3864c1:3" depart="57678.00" departLane="24693977#1_1" departPos="5.10" departSpeed="0.00" departDelay="0.00" arrival="57850.00" arrivalLane="201956820_1" arrivalPos="48.33" arrivalSpeed="13.11" duration="172.00" routeLength="1574.85" waitingTime="6.00" waitingCount="3" stopTime="0.00" timeLoss="42.06" rerouteNo="1" devices="tripinfo_h3864c1:3 routing_h3864c1:3 emissions_h3864c1:3" vType="default_016" speedFactor="0.99" vaporized="">
        <emissions CO_abs="8095.303971" CO2_abs="479820.680503" HC_abs="48.103580" PMx_abs="8.453763" NOx_abs="196.546787" fuel_abs="206.254979" electricity_abs="0"/>
    </tripinfo>
    <tripinfo id="carIn46110:1" depart="57684.00" departLane="315358244_1" departPos="5.10" departSpeed="0.00" departDelay="1.20" arrival="57850.00" arrivalLane="32978638#0_1" arrivalPos="49.29" arrivalSpeed="14.72" duration="166.00" routeLength="1764.04" waitingTime="24.00" waitingCount="2" stopTime="0.00" timeLoss="45.91" rerouteNo="1" devices="tripinfo_carIn46110:1 routing_carIn46110:1 emissions_carIn46110:1" vType="default_016" speedFactor="1.07" vaporized="">
        <emissions CO_abs="6845.747736" CO2_abs="422840.964803" HC_abs="40.906175" PMx_abs="7.106721" NOx_abs="168.034299" fuel_abs="181.762322" electricity_abs="0"/>
    </tripinfo>
    <tripinfo id="h20540c1:1" depart="57634.00" departLane="10425609#0_1" departPos="5.10" departSpeed="0.00" departDelay="0.50" arrival="57852.00" arrivalLane="-128361102#1_1" arrivalPos="274.68" arrivalSpeed="13.04" duration="218.00" routeLength="2113.04" waitingTime="20.00" waitingCount="2" stopTime="0.00" timeLoss="62.30" rerouteNo="1" devices="tripinfo_h20540c1:1 routing_h20540c1:1 emissions_h20540c1:1" vType="default_016" speedFactor="1.00" vaporized="">
        <emissions CO_abs="9538.949936" CO2_abs="537020.213260" HC_abs="56.033628" PMx_abs="9.601126" NOx_abs="220.085402" fuel_abs="230.842960" electricity_abs="0"/>
    </tripinfo>
    <tripinfo id="carIn8642:1" depart="57774.00" departLane="-447569998#1_1" departPos="5.10" departSpeed="0.00" departDelay="0.90" arrival="57853.00" arrivalLane="-315358244_1" arrivalPos="33.95" arrivalSpeed="13.48" duration="79.00" routeLength="706.49" waitingTime="11.00" waitingCount="1" stopTime="0.00" timeLoss="21.77" rerouteNo="1" devices="tripinfo_carIn8642:1 routing_carIn8642:1 emissions_carIn8642:1" vType="default_016" speedFactor="1.06" vaporized="">
        <emissions CO_abs="3595.507667" CO2_abs="176890.255249" HC_abs="20.436667" PMx_abs="3.036124" NOx_abs="71.362661" fuel_abs="76.038468" electricity_abs="0"/>
    </tripinfo>
    <tripinfo id="carIn12152:1" depart="57647.00" departLane="24599188#0.94_1" departPos="5.10" departSpeed="0.00" departDelay="0.50" arrival="57857.00" arrivalLane="-315358254#1_1" arrivalPos="137.16" arrivalSpeed="12.61" duration="210.00" routeLength="2034.31" waitingTime="20.00" waitingCount="2" stopTime="0.00" timeLoss="44.82" rerouteNo="1" devices="tripinfo_carIn12152:1 routing_carIn12152:1 emissions_carIn12152:1" vType="default_016" speedFactor="0.96" vaporized="">
        <emissions CO_abs="7965.670468" CO2_abs="459785.569031" HC_abs="46.977348" PMx_abs="7.657466" NOx_abs="184.266665" fuel_abs="197.643700" electricity_abs="0"/>
    </tripinfo>