<?xml version="1.0" encoding="UTF-8"?>

<!-- generated on 2021-10-26 11:00:19 by Eclipse SUMO sumo Version 1.10.0
<configuration xmlns:xsi="http://www.w3.org/2001/XMLSchema-instance" xsi:noNamespaceSchemaLocation="http://sumo.dlr.de/xsd/sumoConfiguration.xsd">

    <input>
        <net-file value="/Users/behradkoohy/sumo-scratchpad/RESCO/environments/ingolstadt21/ingolstadt21.net.xml"/>
        <route-files value="/Users/behradkoohy/sumo-scratchpad/RESCO/environments/ingolstadt21/ingolstadt21.rou.xml"/>
    </input>

    <output>
        <tripinfo-output value="/Users/behradkoohy/sumo-scratchpad/RESCO/logs/IDQN-tr0-ingolstadt21-21-drq_norm-wait_norm/tripinfo_4.xml"/>
        <tripinfo-output.write-unfinished value="true"/>
    </output>

    <time>
        <begin value="57600"/>
        <end value="61200"/>
    </time>

    <processing>
        <time-to-teleport value="-1"/>
    </processing>

    <report>
        <no-warnings value="true"/>
        <no-step-log value="true"/>
    </report>

    <emissions>
        <device.emissions.probability value="1"/>
    </emissions>

    <traci_server>
        <remote-port value="56631"/>
    </traci_server>

    <random_number>
        <random value="true"/>
    </random_number>

</configuration>
-->

<tripinfos xmlns:xsi="http://www.w3.org/2001/XMLSchema-instance" xsi:noNamespaceSchemaLocation="http://sumo.dlr.de/xsd/tripinfo_file.xsd">
    <tripinfo id="h15454c2:3" depart="57612.00" departLane="24608844_1" departPos="5.10" departSpeed="0.00" departDelay="0.50" arrival="57650.00" arrivalLane="32978638#0_1" arrivalPos="49.29" arrivalSpeed="14.14" duration="38.00" routeLength="354.79" waitingTime="0.00" waitingCount="0" stopTime="0.00" timeLoss="5.24" rerouteNo="1" devices="tripinfo_h15454c2:3 routing_h15454c2:3 emissions_h15454c2:3" vType="default_016" speedFactor="1.06" vaporized="">
        <emissions CO_abs="1792.511837" CO2_abs="106744.039313" HC_abs="10.646782" PMx_abs="1.786006" NOx_abs="43.114517" fuel_abs="45.884966" electricity_abs="0"/>
    </tripinfo>
    <tripinfo id="carIn60260:1" depart="57606.00" departLane="315358254#0_1" departPos="5.10" departSpeed="0.00" departDelay="0.90" arrival="57653.00" arrivalLane="399835085#1_1" arrivalPos="212.23" arrivalSpeed="8.83" duration="47.00" routeLength="430.98" waitingTime="0.00" waitingCount="0" stopTime="0.00" timeLoss="5.78" rerouteNo="1" devices="tripinfo_carIn60260:1 routing_carIn60260:1 emissions_carIn60260:1" vType="default_016" speedFactor="1.11" vaporized="">
        <emissions CO_abs="2043.304183" CO2_abs="120950.900879" HC_abs="12.112471" PMx_abs="1.998351" NOx_abs="48.801883" fuel_abs="51.991961" electricity_abs="0"/>
    </tripinfo>
    <tripinfo id="carIn53971:1" depart="57640.00" departLane="272042143_1" departPos="5.10" departSpeed="0.00" departDelay="0.80" arrival="57696.00" arrivalLane="24634414#1_1" arrivalPos="162.19" arrivalSpeed="7.52" duration="56.00" routeLength="493.04" waitingTime="0.00" waitingCount="0" stopTime="0.00" timeLoss="8.83" rerouteNo="1" devices="tripinfo_carIn53971:1 routing_carIn53971:1 emissions_carIn53971:1" vType="default_016" speedFactor="0.97" vaporized="">
        <emissions CO_abs="2532.336599" CO2_abs="141726.144535" HC_abs="14.836946" PMx_abs="2.450979" NOx_abs="57.995805" fuel_abs="60.922349" electricity_abs="0"/>
    </tripinfo>
    <tripinfo id="h3688c1:1" depart="57625.00" departLane="201201950#1_1" departPos="5.10" departSpeed="0.00" departDelay="0.00" arrival="57720.00" arrivalLane="32978638#0_1" arrivalPos="49.29" arrivalSpeed="13.49" duration="95.00" routeLength="1089.75" waitingTime="4.00" waitingCount="1" stopTime="0.00" timeLoss="18.64" rerouteNo="1" devices="tripinfo_h3688c1:1 routing_h3688c1:1 emissions_h3688c1:1" vType="default_016" speedFactor="1.05" vaporized="">
        <emissions CO_abs="3966.418821" CO2_abs="283122.476394" HC_abs="24.716917" PMx_abs="4.998629" NOx_abs="114.767611" fuel_abs="121.702011" electricity_abs="0"/>
    </tripinfo>
    <tripinfo id="h7800c1:5" depart="57696.00" departLane="-447569998#1_1" departPos="5.10" departSpeed="0.00" departDelay="0.00" arrival="57725.00" arrivalLane="-447569998#1_1" arrivalPos="180.76" arrivalSpeed="6.31" duration="29.00" routeLength="175.66" waitingTime="0.00" waitingCount="0" stopTime="0.00" timeLoss="4.01" rerouteNo="1" devices="tripinfo_h7800c1:5 routing_h7800c1:5 emissions_h7800c1:5" vType="default_016" speedFactor="0.85" vaporized="">
        <emissions CO_abs="1301.486414" CO2_abs="49155.130451" HC_abs="7.051106" PMx_abs="0.824378" NOx_abs="20.207912" fuel_abs="21.130181" electricity_abs="0"/>
    </tripinfo>
    <tripinfo id="carIn22761:1" depart="57616.00" departLane="-306240162#1_0" departPos="5.10" departSpeed="0.00" departDelay="2.10" arrival="57726.00" arrivalLane="399835085#1_1" arrivalPos="212.23" arrivalSpeed="7.19" duration="110.00" routeLength="1093.26" waitingTime="7.00" waitingCount="1" stopTime="0.00" timeLoss="25.88" rerouteNo="1" devices="tripinfo_carIn22761:1 routing_carIn22761:1 emissions_carIn22761:1" vType="default_016" speedFactor="0.92" vaporized="">
        <emissions CO_abs="4922.600865" CO2_abs="291272.401402" HC_abs="29.292234" PMx_abs="5.446329" NOx_abs="120.160610" fuel_abs="125.205551" electricity_abs="0"/>
    </tripinfo>
    <tripinfo id="h7181c1:1" depart="57660.00" departLane="315358254#0_1" departPos="5.10" departSpeed="0.00" departDelay="0.10" arrival="57730.00" arrivalLane="306240162#0_0" arrivalPos="220.43" arrivalSpeed="16.99" duration="70.00" routeLength="932.35" waitingTime="0.00" waitingCount="0" stopTime="0.00" timeLoss="21.00" rerouteNo="1" devices="tripinfo_h7181c1:1 routing_h7181c1:1 emissions_h7181c1:1" vType="default_016" speedFactor="1.06" vaporized="">
        <emissions CO_abs="5024.482834" CO2_abs="321805.365671" HC_abs="30.644147" PMx_abs="6.550822" NOx_abs="134.991675" fuel_abs="138.329330" electricity_abs="0"/>
    </tripinfo>
    <tripinfo id="S5R_frequency1.2" depart="57624.00" departLane="315358250#0_1" departPos="12.10" departSpeed="0.00" departDelay="12.40" arrival="57737.00" arrivalLane="386687235_1" arrivalPos="80.84" arrivalSpeed="13.43" duration="113.00" routeLength="1115.62" waitingTime="6.00" waitingCount="1" stopTime="0.00" timeLoss="31.28" rerouteNo="1" devices="tripinfo_S5R_frequency1.2 routing_S5R_frequency1.2 emissions_S5R_frequency1.2" vType="bus" speedFactor="1.00" vaporized="">
        <emissions CO_abs="2243.631128" CO2_abs="1365036.885657" HC_abs="474.626194" PMx_abs="239.542921" NOx_abs="10703.215034" fuel_abs="582.158506" electricity_abs="0"/>
    </tripinfo>
    <tripinfo id="h317c2:1" depart="57707.00" departLane="-32978638#0_1" departPos="5.10" departSpeed="0.00" departDelay="0.10" arrival="57739.00" arrivalLane="-266565295#5_1" arrivalPos="172.76" arrivalSpeed="14.45" duration="32.00" routeLength="370.53" waitingTime="0.00" waitingCount="0" stopTime="0.00" timeLoss="5.71" rerouteNo="1" devices="tripinfo_h317c2:1 routing_h317c2:1 emissions_h317c2:1" vType="default_016" speedFactor="1.06" vaporized="">
        <emissions CO_abs="1666.508621" CO2_abs="111364.460815" HC_abs="10.224847" PMx_abs="2.036278" NOx_abs="45.788872" fuel_abs="47.870693" electricity_abs="0"/>
    </tripinfo>
    <tripinfo id="h4538c1:1" depart="57701.00" departLane="-10427692#1_1" departPos="5.10" departSpeed="0.00" departDelay="0.00" arrival="57742.00" arrivalLane="-128361102#1_1" arrivalPos="274.68" arrivalSpeed="13.13" duration="41.00" routeLength="440.74" waitingTime="0.00" waitingCount="0" stopTime="0.00" timeLoss="7.10" rerouteNo="1" devices="tripinfo_h4538c1:1 routing_h4538c1:1 emissions_h4538c1:1" vType="default_016" speedFactor="0.95" vaporized="">
        <emissions CO_abs="1589.441832" CO2_abs="111094.486280" HC_abs="9.823457" PMx_abs="1.789832" NOx_abs="44.098344" fuel_abs="47.754951" electricity_abs="0"/>
    </tripinfo>
    <tripinfo id="carIn80064:1" depart="57603.00" departLane="128361109#1_1" departPos="5.10" departSpeed="0.00" departDelay="0.40" arrival="57744.00" arrivalLane="-315358254#1_1" arrivalPos="137.16" arrivalSpeed="11.12" duration="141.00" routeLength="1587.97" waitingTime="14.00" waitingCount="1" stopTime="0.00" timeLoss="35.11" rerouteNo="1" devices="tripinfo_carIn80064:1 routing_carIn80064:1 emissions_carIn80064:1" vType="default_016" speedFactor="0.84" vaporized="">
        <emissions CO_abs="7074.505975" CO2_abs="435192.986651" HC_abs="42.502772" PMx_abs="8.041148" NOx_abs="178.032295" fuel_abs="187.070858" electricity_abs="0"/>
    </tripinfo>
    <tripinfo id="h5979c1:5" depart="57669.00" departLane="399835085#1_1" departPos="5.10" departSpeed="0.00" departDelay="0.00" arrival="57757.00" arrivalLane="-315358254#1_1" arrivalPos="137.16" arrivalSpeed="13.43" duration="88.00" routeLength="659.33" waitingTime="0.00" waitingCount="0" stopTime="0.00" timeLoss="18.47" rerouteNo="1" devices="tripinfo_h5979c1:5 routing_h5979c1:5 emissions_h5979c1:5" vType="default_016" speedFactor="1.06" vaporized="">
        <emissions CO_abs="4256.543746" CO2_abs="202120.376959" HC_abs="24.074200" PMx_abs="3.512947" NOx_abs="83.242934" fuel_abs="86.883873" electricity_abs="0"/>
    </tripinfo>
    <tripinfo id="h3568c1:3" depart="57656.00" departLane="266565295#5_1" departPos="5.10" departSpeed="0.00" departDelay="0.80" arrival="57758.00" arrivalLane="-24634415_1" arrivalPos="62.03" arrivalSpeed="11.90" duration="102.00" routeLength="807.40" waitingTime="12.00" waitingCount="2" stopTime="0.00" timeLoss="33.32" rerouteNo="1" devices="tripinfo_h3568c1:3 routing_h3568c1:3 emissions_h3568c1:3" vType="default_016" speedFactor="0.94" vaporized="">
        <emissions CO_abs="5692.227742" CO2_abs="269828.844881" HC_abs="32.266086" PMx_abs="5.072266" NOx_abs="112.990426" fuel_abs="115.988660" electricity_abs="0"/>
    </tripinfo>
    <tripinfo id="carIn121703:1" depart="57647.00" departLane="386687232#0_1" departPos="5.10" departSpeed="0.00" departDelay="0.30" arrival="57764.00" arrivalLane="-315358244_1" arrivalPos="33.95" arrivalSpeed="11.71" duration="117.00" routeLength="1157.39" waitingTime="14.00" waitingCount="1" stopTime="0.00" timeLoss="25.71" rerouteNo="1" devices="tripinfo_carIn121703:1 routing_carIn121703:1 emissions_carIn121703:1" vType="default_016" speedFactor="0.92" vaporized="">
        <emissions CO_abs="4240.201769" CO2_abs="251411.314642" HC_abs="25.132545" PMx_abs="3.991982" NOx_abs="99.175185" fuel_abs="108.072051" electricity_abs="0"/>
    </tripinfo>
    <tripinfo id="h12244c1:3" depart="57612.00" departLane="315358244_1" departPos="5.10" departSpeed="0.00" departDelay="0.40" arrival="57767.00" arrivalLane="386687235_1" arrivalPos="80.84" arrivalSpeed="13.54" duration="155.00" routeLength="1186.14" waitingTime="35.00" waitingCount="5" stopTime="0.00" timeLoss="66.38" rerouteNo="1" devices="tripinfo_h12244c1:3 routing_h12244c1:3 emissions_h12244c1:3" vType="default_016" speedFactor="0.98" vaporized="">
        <emissions CO_abs="9236.312594" CO2_abs="389769.936190" HC_abs="51.142340" PMx_abs="7.180272" NOx_abs="161.009898" fuel_abs="167.547766" electricity_abs="0"/>
    </tripinfo>
    <tripinfo id="h9563c2:5" depart="57631.00" departLane="315358244_1" departPos="5.10" departSpeed="0.00" departDelay="0.70" arrival="57769.00" arrivalLane="386687235_1" arrivalPos="80.84" arrivalSpeed="13.84" duration="138.00" routeLength="1186.14" waitingTime="26.00" waitingCount="4" stopTime="0.00" timeLoss="52.88" rerouteNo="1" devices="tripinfo_h9563c2:5 routing_h9563c2:5 emissions_h9563c2:5" vType="default_016" speedFactor="1.02" vaporized="">
        <emissions CO_abs="6449.449606" CO2_abs="296385.439878" HC_abs="36.290199" PMx_abs="5.309999" NOx_abs="120.942660" fuel_abs="127.405000" electricity_abs="0"/>
    </tripinfo>
    <tripinfo id="h330c1:1" depart="57736.00" departLane="-32978638#0_1" departPos="5.10" departSpeed="0.00" departDelay="0.20" arrival="57770.00" arrivalLane="-266565295#5_1" arrivalPos="172.76" arrivalSpeed="13.11" duration="34.00" routeLength="370.53" waitingTime="0.00" waitingCount="0" stopTime="0.00" timeLoss="6.24" rerouteNo="1" devices="tripinfo_h330c1:1 routing_h330c1:1 emissions_h330c1:1" vType="default_016" speedFactor="0.99" vaporized="">
        <emissions CO_abs="1717.158257" CO2_abs="110050.013274" HC_abs="10.408625" PMx_abs="1.982935" NOx_abs="45.182763" fuel_abs="47.305761" electricity_abs="0"/>
    </tripinfo>
    <tripinfo id="carIn27009:1" depart="57673.00" departLane="-447569998#1_1" departPos="5.10" departSpeed="0.00" departDelay="0.50" arrival="57780.00" arrivalLane="-26677539_1" arrivalPos="152.75" arrivalSpeed="6.86" duration="107.00" routeLength="699.63" waitingTime="0.00" waitingCount="0" stopTime="0.00" timeLoss="15.72" rerouteNo="1" devices="tripinfo_carIn27009:1 routing_carIn27009:1 emissions_carIn27009:1" vType="default_015" speedFactor="0.92" vaporized="">
        <emissions CO_abs="4422.460993" CO2_abs="187706.405720" HC_abs="24.451229" PMx_abs="3.145503" NOx_abs="77.010904" fuel_abs="80.688387" electricity_abs="0"/>
    </tripinfo>
    <tripinfo id="h3326c1:2" depart="57656.00" departLane="22716069#0_1" departPos="5.10" departSpeed="0.00" departDelay="0.00" arrival="57782.00" arrivalLane="24634517#13_1" arrivalPos="111.62" arrivalSpeed="12.10" duration="126.00" routeLength="1312.81" waitingTime="0.00" waitingCount="0" stopTime="0.00" timeLoss="15.67" rerouteNo="1" devices="tripinfo_h3326c1:2 routing_h3326c1:2 emissions_h3326c1:2" vType="default_016" speedFactor="0.89" vaporized="">
        <emissions CO_abs="4162.398268" CO2_abs="294935.764184" HC_abs="25.813941" PMx_abs="4.753716" NOx_abs="117.541163" fuel_abs="126.780658" electricity_abs="0"/>
    </tripinfo>
    <tripinfo id="h645c1:1" depart="57622.00" departLane="266565295#5_1" departPos="5.10" departSpeed="0.00" departDelay="0.40" arrival="57788.00" arrivalLane="-315358244_1" arrivalPos="33.95" arrivalSpeed="13.65" duration="166.00" routeLength="1910.83" waitingTime="8.00" waitingCount="2" stopTime="0.00" timeLoss="29.78" rerouteNo="1" devices="tripinfo_h645c1:1 routing_h645c1:1 emissions_h645c1:1" vType="default_016" speedFactor="1.02" vaporized="">
        <emissions CO_abs="5122.145967" CO2_abs="423384.227628" HC_abs="33.149249" PMx_abs="6.679668" NOx_abs="165.480873" fuel_abs="181.995048" electricity_abs="0"/>
    </tripinfo>
    <tripinfo id="h3154c1:1" depart="57658.00" departLane="24634507_1" departPos="5.10" departSpeed="0.00" departDelay="0.00" arrival="57789.00" arrivalLane="-266565295#5_1" arrivalPos="172.76" arrivalSpeed="12.08" duration="131.00" routeLength="1206.22" waitingTime="16.00" waitingCount="1" stopTime="0.00" timeLoss="34.81" rerouteNo="1" devices="tripinfo_h3154c1:1 routing_h3154c1:1 emissions_h3154c1:1" vType="default_016" speedFactor="0.94" vaporized="">
        <emissions CO_abs="6146.399246" CO2_abs="306341.540624" HC_abs="35.157804" PMx_abs="5.470109" NOx_abs="125.528252" fuel_abs="131.684274" electricity_abs="0"/>
    </tripinfo>
    <tripinfo id="carIn107282:1" depart="57749.00" departLane="-447569998#1_1" departPos="5.10" departSpeed="0.00" departDelay="0.00" arrival="57798.00" arrivalLane="315358242#0_1" arrivalPos="165.37" arrivalSpeed="13.09" duration="49.00" routeLength="448.50" waitingTime="0.00" waitingCount="0" stopTime="0.00" timeLoss="5.63" rerouteNo="1" devices="tripinfo_carIn107282:1 routing_carIn107282:1 emissions_carIn107282:1" vType="default_016" speedFactor="0.98" vaporized="">
        <emissions CO_abs="1851.153864" CO2_abs="107834.280416" HC_abs="10.920897" PMx_abs="1.716166" NOx_abs="42.989735" fuel_abs="46.353786" electricity_abs="0"/>
    </tripinfo>
    <tripinfo id="carIn50326:1" depart="57651.00" departLane="128361102#0_1" departPos="5.10" departSpeed="0.00" departDelay="0.30" arrival="57809.00" arrivalLane="18809673#0_1" arrivalPos="473.56" arrivalSpeed="14.98" duration="158.00" routeLength="1591.07" waitingTime="18.00" waitingCount="2" stopTime="0.00" timeLoss="41.74" rerouteNo="1" devices="tripinfo_carIn50326:1 routing_carIn50326:1 emissions_carIn50326:1" vType="default_016" speedFactor="1.12" vaporized="">
        <emissions CO_abs="6819.263013" CO2_abs="384578.771695" HC_abs="40.044123" PMx_abs="6.923663" NOx_abs="157.128949" fuel_abs="165.314627" electricity_abs="0"/>
    </tripinfo>
    <tripinfo id="carIn30817:1" depart="57681.00" departLane="315358244_1" departPos="5.10" departSpeed="0.00" departDelay="0.20" arrival="57813.00" arrivalLane="447569997#1_1" arrivalPos="180.93" arrivalSpeed="7.63" duration="132.00" routeLength="718.04" waitingTime="51.00" waitingCount="1" stopTime="0.00" timeLoss="64.63" rerouteNo="1" devices="tripinfo_carIn30817:1 routing_carIn30817:1 emissions_carIn30817:1" vType="default_016" speedFactor="0.92" vaporized="">
        <emissions CO_abs="10865.175596" CO2_abs="305944.343921" HC_abs="56.594624" PMx_abs="6.045169" NOx_abs="129.861728" fuel_abs="131.516613" electricity_abs="0"/>
    </tripinfo>
    <tripinfo id="carIn12365:1" depart="57713.00" departLane="315358244_1" departPos="5.10" departSpeed="0.00" departDelay="0.50" arrival="57813.00" arrivalLane="447569997#1_2" arrivalPos="180.93" arrivalSpeed="8.08" duration="100.00" routeLength="718.04" waitingTime="18.00" waitingCount="1" stopTime="0.00" timeLoss="38.77" rerouteNo="1" devices="tripinfo_carIn12365:1 routing_carIn12365:1 emissions_carIn12365:1" vType="default_016" speedFactor="1.01" vaporized="">
        <emissions CO_abs="5784.237552" CO2_abs="238102.910432" HC_abs="31.907967" PMx_abs="4.427815" NOx_abs="99.282813" fuel_abs="102.351682" electricity_abs="0"/>
    </tripinfo>
    <tripinfo id="carIn129809:1" depart="57729.00" departLane="-447569998#1_1" departPos="5.10" departSpeed="0.00" departDelay="1.00" arrival="57813.00" arrivalLane="-315358244_1" arrivalPos="33.95" arrivalSpeed="15.92" duration="84.00" routeLength="706.49" waitingTime="18.00" waitingCount="2" stopTime="0.00" timeLoss="35.00" rerouteNo="1" devices="tripinfo_carIn129809:1 routing_carIn129809:1 emissions_carIn129809:1" vType="default_015" speedFactor="1.24" vaporized="">
        <emissions CO_abs="4771.501928" CO2_abs="226547.082049" HC_abs="27.068976" PMx_abs="4.430259" NOx_abs="95.083757" fuel_abs="97.383374" electricity_abs="0"/>
    </tripinfo>
    <tripinfo id="carIn86816:1" depart="57617.00" departLane="128361102#0_1" departPos="5.10" departSpeed="0.00" departDelay="0.80" arrival="57817.00" arrivalLane="201956811#0_1" arrivalPos="40.40" arrivalSpeed="12.53" duration="200.00" routeLength="2067.33" waitingTime="4.00" waitingCount="2" stopTime="0.00" timeLoss="37.18" rerouteNo="1" devices="tripinfo_carIn86816:1 routing_carIn86816:1 emissions_carIn86816:1" vType="default_016" speedFactor="0.93" vaporized="">
        <emissions CO_abs="7144.050887" CO2_abs="489304.149464" HC_abs="43.941218" PMx_abs="8.041392" NOx_abs="195.569579" fuel_abs="210.331581" electricity_abs="0"/>
    </tripinfo>
    <tripinfo id="carIn102915:1" depart="57643.00" departLane="128361102#0_1" departPos="5.10" departSpeed="0.00" departDelay="0.40" arrival="57823.00" arrivalLane="201956811#0_1" arrivalPos="40.40" arrivalSpeed="14.04" duration="180.00" routeLength="2067.33" waitingTime="16.00" waitingCount="1" stopTime="0.00" timeLoss="36.65" rerouteNo="1" devices="tripinfo_carIn102915:1 routing_carIn102915:1 emissions_carIn102915:1" vType="default_016" speedFactor="1.06" vaporized="">
        <emissions CO_abs="6510.466527" CO2_abs="458502.914708" HC_abs="40.220667" PMx_abs="7.627070" NOx_abs="181.720976" fuel_abs="197.091298" electricity_abs="0"/>
    </tripinfo>
    <tripinfo id="randUni33724:1" depart="57646.00" departLane="128361102#0_1" departPos="5.10" departSpeed="0.00" departDelay="1.20" arrival="57824.00" arrivalLane="201956811#0_1" arrivalPos="40.40" arrivalSpeed="14.32" duration="178.00" routeLength="2067.33" waitingTime="16.00" waitingCount="1" stopTime="0.00" timeLoss="41.95" rerouteNo="1" devices="tripinfo_randUni33724:1 routing_randUni33724:1 emissions_randUni33724:1" vType="random_016" speedFactor="1.11" vaporized="">
        <emissions CO_abs="7308.375215" CO2_abs="518706.730680" HC_abs="45.364688" PMx_abs="8.954116" NOx_abs="207.773856" fuel_abs="222.969866" electricity_abs="0"/>
    </tripinfo>
    <tripinfo id="h11737c1:1" depart="57665.00" departLane="272042143_1" departPos="5.10" departSpeed="0.00" departDelay="1.50" arrival="57827.00" arrivalLane="-315358254#1_1" arrivalPos="137.16" arrivalSpeed="12.24" duration="162.00" routeLength="1596.88" waitingTime="21.00" waitingCount="1" stopTime="0.00" timeLoss="39.38" rerouteNo="1" devices="tripinfo_h11737c1:1 routing_h11737c1:1 emissions_h11737c1:1" vType="default_016" speedFactor="0.95" vaporized="">
        <emissions CO_abs="6971.788896" CO2_abs="390303.667289" HC_abs="40.825171" PMx_abs="6.442716" NOx_abs="155.483739" fuel_abs="167.776495" electricity_abs="0"/>
    </tripinfo>
    <tripinfo id="carIn126288:1" depart="57674.00" departLane="272042143_1" departPos="5.10" departSpeed="0.00" departDelay="0.00" arrival="57828.00" arrivalLane="-315358254#1_1" arrivalPos="137.16" arrivalSpeed="12.61" duration="154.00" routeLength="1596.88" waitingTime="15.00" waitingCount="1" stopTime="0.00" timeLoss="36.38" rerouteNo="1" devices="tripinfo_carIn126288:1 routing_carIn126288:1 emissions_carIn126288:1" vType="default_016" speedFactor="0.99" vaporized="">
        <emissions CO_abs="6349.433598" CO2_abs="374159.281611" HC_abs="37.651964" PMx_abs="6.322116" NOx_abs="150.136171" fuel_abs="160.836122" electricity_abs="0"/>
    </tripinfo>
    <tripinfo id="carIn12775:1" depart="57676.00" departLane="10425609#0_1" departPos="5.10" departSpeed="0.00" departDelay="0.60" arrival="57829.00" arrivalLane="18809673#0_1" arrivalPos="473.56" arrivalSpeed="15.74" duration="153.00" routeLength="1959.45" waitingTime="2.00" waitingCount="1" stopTime="0.00" timeLoss="25.67" rerouteNo="1" devices="tripinfo_carIn12775:1 routing_carIn12775:1 emissions_carIn12775:1" vType="default_016" speedFactor="1.15" vaporized="">
        <emissions CO_abs="5366.643052" CO2_abs="425188.733342" HC_abs="34.224924" PMx_abs="7.201357" NOx_abs="168.814161" fuel_abs="182.770191" electricity_abs="0"/>
    </tripinfo>
    <tripinfo id="carIn118591:1" depart="57689.00" departLane="315358244_1" departPos="5.10" departSpeed="0.00" departDelay="0.20" arrival="57830.00" arrivalLane="386687235_1" arrivalPos="80.84" arrivalSpeed="15.80" duration="141.00" routeLength="1186.14" waitingTime="47.00" waitingCount="2" stopTime="0.00" timeLoss="68.78" rerouteNo="1" devices="tripinfo_carIn118591:1 routing_carIn118591:1 emissions_carIn118591:1" vType="default_016" speedFactor="1.19" vaporized="">
        <emissions CO_abs="10768.717886" CO2_abs="409779.609766" HC_abs="58.628390" PMx_abs="8.125922" NOx_abs="171.811914" fuel_abs="176.149327" electricity_abs="0"/>
    </tripinfo>
    <tripinfo id="50R_frequency3.17" depart="57674.00" departLane="-18809673#6_1" departPos="12.10" departSpeed="0.00" departDelay="0.70" arrival="57836.00" arrivalLane="201956811#0_1" arrivalPos="40.40" arrivalSpeed="13.07" duration="162.00" routeLength="1954.47" waitingTime="0.00" waitingCount="0" stopTime="0.00" timeLoss="17.02" rerouteNo="1" devices="tripinfo_50R_frequency3.17 routing_50R_frequency3.17 emissions_50R_frequency3.17" vType="bus" speedFactor="1.00" vaporized="">
        <emissions CO_abs="3145.736771" CO2_abs="2009663.974307" HC_abs="669.072229" PMx_abs="338.623179" NOx_abs="15478.643570" fuel_abs="857.120906" electricity_abs="0"/>
    </tripinfo>
    <tripinfo id="h6541c1:3" depart="57727.00" departLane="201950247#3_1" departPos="5.10" departSpeed="0.00" departDelay="0.00" arrival="57838.00" arrivalLane="32978638#0_1" arrivalPos="49.29" arrivalSpeed="15.01" duration="111.00" routeLength="1176.17" waitingTime="7.00" waitingCount="1" stopTime="0.00" timeLoss="22.46" rerouteNo="1" devices="tripinfo_h6541c1:3 routing_h6541c1:3 emissions_h6541c1:3" vType="default_016" speedFactor="1.15" vaporized="">
        <emissions CO_abs="4572.240523" CO2_abs="284749.810889" HC_abs="27.379916" PMx_abs="5.045140" NOx_abs="115.916261" fuel_abs="122.401942" electricity_abs="0"/>
    </tripinfo>
    <tripinfo id="carIn8642:1" depart="57774.00" departLane="-447569998#1_1" departPos="5.10" departSpeed="0.00" departDelay="0.90" arrival="57843.00" arrivalLane="-315358244_1" arrivalPos="33.95" arrivalSpeed="15.04" duration="69.00" routeLength="706.49" waitingTime="6.00" waitingCount="1" stopTime="0.00" timeLoss="15.16" rerouteNo="1" devices="tripinfo_carIn8642:1 routing_carIn8642:1 emissions_carIn8642:1" vType="default_016" speedFactor="1.12" vaporized="">
        <emissions CO_abs="2413.556080" CO2_abs="157733.696208" HC_abs="14.633874" PMx_abs="2.626284" NOx_abs="62.972952" fuel_abs="67.803246" electricity_abs="0"/>
    </tripinfo>
    <tripinfo id="carIn48184:1" depart="57613.00" departLane="-306240162#1_0" departPos="5.10" departSpeed="0.00" departDelay="0.70" arrival="57844.00" arrivalLane="386687235_1" arrivalPos="80.84" arrivalSpeed="11.31" duration="231.00" routeLength="2257.41" waitingTime="33.00" waitingCount="3" stopTime="0.00" timeLoss="64.54" rerouteNo="1" devices="tripinfo_carIn48184:1 routing_carIn48184:1 emissions_carIn48184:1" vType="default_016" speedFactor="0.89" vaporized="">
        <emissions CO_abs="10391.424757" CO2_abs="563444.714996" HC_abs="60.512509" PMx_abs="9.943229" NOx_abs="228.539464" fuel_abs="242.202454" electricity_abs="0"/>
    </tripinfo>
    <tripinfo id="h16072c2:3" depart="57663.00" departLane="315358254#0_1" departPos="5.10" departSpeed="0.00" departDelay="2.50" arrival="57844.00" arrivalLane="386687235_2" arrivalPos="80.84" arrivalSpeed="12.22" duration="181.00" routeLength="1611.92" waitingTime="25.00" waitingCount="3" stopTime="0.00" timeLoss="53.63" rerouteNo="1" devices="tripinfo_h16072c2:3 routing_h16072c2:3 emissions_h16072c2:3" vType="default_016" speedFactor="0.92" vaporized="">
        <emissions CO_abs="7680.233085" CO2_abs="400749.674078" HC_abs="44.313235" PMx_abs="6.868285" NOx_abs="162.187702" fuel_abs="172.266795" electricity_abs="0"/>
    </tripinfo>
    <tripinfo id="carIn82220:1" depart="57619.00" departLane="-306240162#1_0" departPos="5.10" departSpeed="0.00" departDelay="3.50" arrival="57846.00" arrivalLane="386687235_1" arrivalPos="80.84" arrivalSpeed="13.06" duration="227.00" routeLength="2257.41" waitingTime="37.00" waitingCount="3" stopTime="0.00" timeLoss="71.42" rerouteNo="1" devices="tripinfo_carIn82220:1 routing_carIn82220:1 emissions_carIn82220:1" vType="default_016" speedFactor="0.96" vaporized="">
        <emissions CO_abs="10718.045257" CO2_abs="576502.069410" HC_abs="62.344586" PMx_abs="10.440730" NOx_abs="234.928605" fuel_abs="247.815019" electricity_abs="0"/>
    </tripinfo>
    <tripinfo id="h17600c1:1" depart="57662.00" departLane="272042143_1" departPos="5.10" departSpeed="0.00" departDelay="0.30" arrival="57847.00" arrivalLane="201238729#3_1" arrivalPos="431.02" arrivalSpeed="14.20" duration="185.00" routeLength="2100.26" waitingTime="28.00" waitingCount="1" stopTime="0.00" timeLoss="45.78" rerouteNo="1" devices="tripinfo_h17600c1:1 routing_h17600c1:1 emissions_h17600c1:1" vType="default_016" speedFactor="1.09" vaporized="">
        <emissions CO_abs="8215.169275" CO2_abs="475942.658524" HC_abs="48.422794" PMx_abs="8.264924" NOx_abs="190.266663" fuel_abs="204.588698" electricity_abs="0"/>
    </tripinfo>
    <tripinfo id="randUni15030:1" depart="57735.00" departLane="386687232#0_1" departPos="5.10" departSpeed="0.00" departDelay="0.10" arrival="57850.00" arrivalLane="26677539_1" arrivalPos="151.98" arrivalSpeed="5.78" duration="115.00" routeLength="919.89" waitingTime="0.00" waitingCount="0" stopTime="0.00" timeLoss="14.91" rerouteNo="1" devices="tripinfo_randUni15030:1 routing_randUni15030:1 emissions_randUni15030:1" vType="random_016" speedFactor="0.83" vaporized="">
        <emissions CO_abs="4343.494197" CO2_abs="218294.871079" HC_abs="24.793097" PMx_abs="3.469342" NOx_abs="87.648394" fuel_abs="93.836970" electricity_abs="0"/>
    </tripinfo>
    <tripinfo id="h5938c1:1" depart="57740.00" departLane="-26677542#0_1" departPos="5.10" departSpeed="0.00" departDelay="0.00" arrival="57851.00" arrivalLane="447569997#1_1" arrivalPos="180.93" arrivalSpeed="8.92" duration="111.00" routeLength="1093.64" waitingTime="15.00" waitingCount="2" stopTime="0.00" timeLoss="31.29" rerouteNo="1" devices="tripinfo_h5938c1:1 routing_h5938c1:1 emissions_h5938c1:1" vType="default_016" speedFactor="1.21" vaporized="">
        <emissions CO_abs="5803.215095" CO2_abs="301779.331697" HC_abs="33.367323" PMx_abs="5.472140" NOx_abs="123.560220" fuel_abs="129.722853" electricity_abs="0"/>
    </tripinfo>
    <tripinfo id="carIn100288:1" depart="57664.00" departLane="128361102#0_1" departPos="5.10" departSpeed="0.00" departDelay="0.60" arrival="57852.00" arrivalLane="201956811#0_1" arrivalPos="40.40" arrivalSpeed="13.89" duration="188.00" routeLength="2067.33" waitingTime="19.00" waitingCount="1" stopTime="0.00" timeLoss="48.03" rerouteNo="1" devices="tripinfo_carIn100288:1 routing_carIn100288:1 emissions_carIn100288:1" vType="default_016" speedFactor="1.08" vaporized="">
        <emissions CO_abs="8461.126990" CO2_abs="505832.822104" HC_abs="50.252653" PMx_abs="8.768629" NOx_abs="203.118362" fuel_abs="217.436976" electricity_abs="0"/>
    </tripinfo>
    <tripinfo id="h13377c2:3" depart="57808.00" departLane="315358244_1" departPos="5.10" departSpeed="0.00" departDelay="4.60" arrival="57882.00" arrivalLane="447569997#1_1" arrivalPos="180.93" arrivalSpeed="7.44" duration="74.00" routeLength="718.04" waitingTime="0.00" waitingCount="0" stopTime="0.00" timeLoss="8.02" rerouteNo="1" devices="tripinfo_h13377c2:3 routing_h13377c2:3 emissions_h13377c2:3" vType="default_016" speedFactor="0.93" vaporized="">
        <emissions CO_abs="2275.179049" CO2_abs="134347.072247" HC_abs="13.469668" PMx_abs="2.160987" NOx_abs="53.707838" fuel_abs="57.750547" electricity_abs="0"/>
    </tripinfo>