<?xml version="1.0" encoding="UTF-8"?>

<!-- generated on 2021-10-26 12:15:24 by Eclipse SUMO sumo Version 1.10.0
<configuration xmlns:xsi="http://www.w3.org/2001/XMLSchema-instance" xsi:noNamespaceSchemaLocation="http://sumo.dlr.de/xsd/sumoConfiguration.xsd">

    <input>
        <net-file value="/Users/behradkoohy/sumo-scratchpad/RESCO/environments/ingolstadt21/ingolstadt21.net.xml"/>
        <route-files value="/Users/behradkoohy/sumo-scratchpad/RESCO/environments/ingolstadt21/ingolstadt21.rou.xml"/>
    </input>

    <output>
        <tripinfo-output value="/Users/behradkoohy/sumo-scratchpad/RESCO/logs/IDQN-tr0-ingolstadt21-21-drq_norm-wait_norm/tripinfo_53.xml"/>
        <tripinfo-output.write-unfinished value="true"/>
    </output>

    <time>
        <begin value="57600"/>
        <end value="61200"/>
    </time>

    <processing>
        <time-to-teleport value="-1"/>
    </processing>

    <report>
        <no-warnings value="true"/>
        <no-step-log value="true"/>
    </report>

    <emissions>
        <device.emissions.probability value="1"/>
    </emissions>

    <traci_server>
        <remote-port value="58064"/>
    </traci_server>

    <random_number>
        <random value="true"/>
    </random_number>

</configuration>
-->

<tripinfos xmlns:xsi="http://www.w3.org/2001/XMLSchema-instance" xsi:noNamespaceSchemaLocation="http://sumo.dlr.de/xsd/tripinfo_file.xsd">
    <tripinfo id="h15454c2:3" depart="57612.00" departLane="24608844_1" departPos="5.10" departSpeed="0.00" departDelay="0.50" arrival="57667.00" arrivalLane="32978638#0_1" arrivalPos="49.29" arrivalSpeed="13.19" duration="55.00" routeLength="354.79" waitingTime="10.00" waitingCount="1" stopTime="0.00" timeLoss="21.32" rerouteNo="1" devices="tripinfo_h15454c2:3 routing_h15454c2:3 emissions_h15454c2:3" vType="default_016" speedFactor="1.02" vaporized="">
        <emissions CO_abs="3181.092938" CO2_abs="132391.501046" HC_abs="17.566377" PMx_abs="2.418058" NOx_abs="55.062077" fuel_abs="56.910257" electricity_abs="0"/>
    </tripinfo>
    <tripinfo id="carIn60260:1" depart="57606.00" departLane="315358254#0_1" departPos="5.10" departSpeed="0.00" departDelay="0.90" arrival="57674.00" arrivalLane="399835085#1_1" arrivalPos="212.23" arrivalSpeed="7.36" duration="68.00" routeLength="430.98" waitingTime="12.00" waitingCount="1" stopTime="0.00" timeLoss="21.12" rerouteNo="1" devices="tripinfo_carIn60260:1 routing_carIn60260:1 emissions_carIn60260:1" vType="default_016" speedFactor="0.98" vaporized="">
        <emissions CO_abs="3458.576164" CO2_abs="133748.379710" HC_abs="18.844924" PMx_abs="2.376972" NOx_abs="55.356513" fuel_abs="57.493825" electricity_abs="0"/>
    </tripinfo>
    <tripinfo id="carIn53971:1" depart="57640.00" departLane="272042143_1" departPos="5.10" departSpeed="0.00" departDelay="0.80" arrival="57692.00" arrivalLane="24634414#1_1" arrivalPos="162.19" arrivalSpeed="8.30" duration="52.00" routeLength="493.04" waitingTime="0.00" waitingCount="0" stopTime="0.00" timeLoss="9.43" rerouteNo="1" devices="tripinfo_carIn53971:1 routing_carIn53971:1 emissions_carIn53971:1" vType="default_016" speedFactor="1.08" vaporized="">
        <emissions CO_abs="2426.271559" CO2_abs="141940.643895" HC_abs="14.367331" PMx_abs="2.466908" NOx_abs="57.988510" fuel_abs="61.014459" electricity_abs="0"/>
    </tripinfo>
    <tripinfo id="carIn80064:1" depart="57603.00" departLane="128361109#1_1" departPos="5.10" departSpeed="0.00" departDelay="0.40" arrival="57721.00" arrivalLane="-315358254#1_1" arrivalPos="137.16" arrivalSpeed="15.55" duration="118.00" routeLength="1587.97" waitingTime="4.00" waitingCount="1" stopTime="0.00" timeLoss="39.67" rerouteNo="1" devices="tripinfo_carIn80064:1 routing_carIn80064:1 emissions_carIn80064:1" vType="default_016" speedFactor="1.14" vaporized="">
        <emissions CO_abs="7833.338323" CO2_abs="508384.253229" HC_abs="47.680174" PMx_abs="10.144411" NOx_abs="211.268202" fuel_abs="218.531265" electricity_abs="0"/>
    </tripinfo>
    <tripinfo id="h7800c1:5" depart="57696.00" departLane="-447569998#1_1" departPos="5.10" departSpeed="0.00" departDelay="0.00" arrival="57725.00" arrivalLane="-447569998#1_2" arrivalPos="180.76" arrivalSpeed="6.72" duration="29.00" routeLength="175.66" waitingTime="0.00" waitingCount="0" stopTime="0.00" timeLoss="3.58" rerouteNo="1" devices="tripinfo_h7800c1:5 routing_h7800c1:5 emissions_h7800c1:5" vType="default_016" speedFactor="0.85" vaporized="">
        <emissions CO_abs="1504.344537" CO2_abs="56999.523869" HC_abs="8.143051" PMx_abs="0.896231" NOx_abs="23.040198" fuel_abs="24.502317" electricity_abs="0"/>
    </tripinfo>
    <tripinfo id="S5R_frequency1.2" depart="57615.00" departLane="315358250#0_1" departPos="12.10" departSpeed="0.00" departDelay="3.40" arrival="57730.00" arrivalLane="386687235_1" arrivalPos="80.84" arrivalSpeed="13.62" duration="115.00" routeLength="1115.62" waitingTime="14.00" waitingCount="1" stopTime="0.00" timeLoss="33.24" rerouteNo="1" devices="tripinfo_S5R_frequency1.2 routing_S5R_frequency1.2 emissions_S5R_frequency1.2" vType="bus" speedFactor="1.00" vaporized="">
        <emissions CO_abs="2179.543471" CO2_abs="1285774.709421" HC_abs="468.544260" PMx_abs="232.115831" NOx_abs="10187.900040" fuel_abs="548.346346" electricity_abs="0"/>
    </tripinfo>
    <tripinfo id="h3688c1:1" depart="57625.00" departLane="201201950#1_1" departPos="5.10" departSpeed="0.00" departDelay="0.00" arrival="57733.00" arrivalLane="32978638#0_1" arrivalPos="49.29" arrivalSpeed="11.94" duration="108.00" routeLength="1089.75" waitingTime="6.00" waitingCount="1" stopTime="0.00" timeLoss="22.67" rerouteNo="1" devices="tripinfo_h3688c1:1 routing_h3688c1:1 emissions_h3688c1:1" vType="default_016" speedFactor="0.94" vaporized="">
        <emissions CO_abs="3635.104251" CO2_abs="254336.130526" HC_abs="22.473495" PMx_abs="4.110846" NOx_abs="101.160789" fuel_abs="109.328608" electricity_abs="0"/>
    </tripinfo>
    <tripinfo id="carIn22761:1" depart="57616.00" departLane="-306240162#1_0" departPos="5.10" departSpeed="0.00" departDelay="2.10" arrival="57735.00" arrivalLane="399835085#1_1" arrivalPos="212.23" arrivalSpeed="7.48" duration="119.00" routeLength="1093.26" waitingTime="19.00" waitingCount="1" stopTime="0.00" timeLoss="40.43" rerouteNo="1" devices="tripinfo_carIn22761:1 routing_carIn22761:1 emissions_carIn22761:1" vType="default_016" speedFactor="0.99" vaporized="">
        <emissions CO_abs="6592.058022" CO2_abs="315533.116876" HC_abs="37.472086" PMx_abs="5.917468" NOx_abs="129.764833" fuel_abs="135.635307" electricity_abs="0"/>
    </tripinfo>
    <tripinfo id="carIn121703:1" depart="57647.00" departLane="386687232#0_1" departPos="5.10" departSpeed="0.00" departDelay="0.30" arrival="57742.00" arrivalLane="-315358244_1" arrivalPos="33.95" arrivalSpeed="15.17" duration="95.00" routeLength="1157.39" waitingTime="6.00" waitingCount="1" stopTime="0.00" timeLoss="20.32" rerouteNo="1" devices="tripinfo_carIn121703:1 routing_carIn121703:1 emissions_carIn121703:1" vType="default_016" speedFactor="1.13" vaporized="">
        <emissions CO_abs="3633.051445" CO2_abs="269443.619521" HC_abs="22.740700" PMx_abs="4.677200" NOx_abs="107.948565" fuel_abs="115.822121" electricity_abs="0"/>
    </tripinfo>
    <tripinfo id="h4538c1:1" depart="57701.00" departLane="-10427692#1_1" departPos="5.10" departSpeed="0.00" departDelay="0.00" arrival="57744.00" arrivalLane="-128361102#1_1" arrivalPos="274.68" arrivalSpeed="14.49" duration="43.00" routeLength="440.74" waitingTime="3.00" waitingCount="1" stopTime="0.00" timeLoss="13.43" rerouteNo="1" devices="tripinfo_h4538c1:1 routing_h4538c1:1 emissions_h4538c1:1" vType="default_016" speedFactor="1.07" vaporized="">
        <emissions CO_abs="2043.537642" CO2_abs="126642.805240" HC_abs="12.292775" PMx_abs="2.280092" NOx_abs="51.786077" fuel_abs="54.438370" electricity_abs="0"/>
    </tripinfo>
    <tripinfo id="h7181c1:1" depart="57660.00" departLane="315358254#0_1" departPos="5.10" departSpeed="0.00" departDelay="0.10" arrival="57750.00" arrivalLane="306240162#0_0" arrivalPos="220.43" arrivalSpeed="17.37" duration="90.00" routeLength="932.35" waitingTime="18.00" waitingCount="1" stopTime="0.00" timeLoss="42.13" rerouteNo="1" devices="tripinfo_h7181c1:1 routing_h7181c1:1 emissions_h7181c1:1" vType="default_016" speedFactor="1.08" vaporized="">
        <emissions CO_abs="7235.962398" CO2_abs="368985.940812" HC_abs="41.791993" PMx_abs="7.617647" NOx_abs="155.888880" fuel_abs="158.611140" electricity_abs="0"/>
    </tripinfo>
    <tripinfo id="h317c2:1" depart="57707.00" departLane="-32978638#0_1" departPos="5.10" departSpeed="0.00" departDelay="0.10" arrival="57754.00" arrivalLane="-266565295#5_1" arrivalPos="172.76" arrivalSpeed="14.46" duration="47.00" routeLength="370.53" waitingTime="12.00" waitingCount="1" stopTime="0.00" timeLoss="20.78" rerouteNo="1" devices="tripinfo_h317c2:1 routing_h317c2:1 emissions_h317c2:1" vType="default_016" speedFactor="1.06" vaporized="">
        <emissions CO_abs="3060.481901" CO2_abs="139504.215531" HC_abs="17.233063" PMx_abs="2.691263" NOx_abs="58.448180" fuel_abs="59.967337" electricity_abs="0"/>
    </tripinfo>
    <tripinfo id="h5979c1:5" depart="57669.00" departLane="399835085#1_1" departPos="5.10" departSpeed="0.00" departDelay="0.00" arrival="57755.00" arrivalLane="-315358254#1_1" arrivalPos="137.16" arrivalSpeed="13.97" duration="86.00" routeLength="659.33" waitingTime="0.00" waitingCount="0" stopTime="0.00" timeLoss="14.11" rerouteNo="1" devices="tripinfo_h5979c1:5 routing_h5979c1:5 emissions_h5979c1:5" vType="default_016" speedFactor="1.03" vaporized="">
        <emissions CO_abs="3654.695423" CO2_abs="182335.951102" HC_abs="20.852161" PMx_abs="3.013633" NOx_abs="73.952620" fuel_abs="78.379394" electricity_abs="0"/>
    </tripinfo>
    <tripinfo id="carIn27009:1" depart="57673.00" departLane="-447569998#1_1" departPos="5.10" departSpeed="0.00" departDelay="0.50" arrival="57756.00" arrivalLane="-26677539_1" arrivalPos="152.75" arrivalSpeed="9.60" duration="83.00" routeLength="699.63" waitingTime="0.00" waitingCount="0" stopTime="0.00" timeLoss="11.02" rerouteNo="1" devices="tripinfo_carIn27009:1 routing_carIn27009:1 emissions_carIn27009:1" vType="default_015" speedFactor="1.16" vaporized="">
        <emissions CO_abs="3454.917098" CO2_abs="192443.327212" HC_abs="20.147663" PMx_abs="2.973470" NOx_abs="76.748683" fuel_abs="82.724144" electricity_abs="0"/>
    </tripinfo>
    <tripinfo id="h3568c1:3" depart="57656.00" departLane="266565295#5_1" departPos="5.10" departSpeed="0.00" departDelay="0.80" arrival="57759.00" arrivalLane="-24634415_1" arrivalPos="62.03" arrivalSpeed="12.12" duration="103.00" routeLength="807.40" waitingTime="10.00" waitingCount="2" stopTime="0.00" timeLoss="31.66" rerouteNo="1" devices="tripinfo_h3568c1:3 routing_h3568c1:3 emissions_h3568c1:3" vType="default_016" speedFactor="0.90" vaporized="">
        <emissions CO_abs="5359.931937" CO2_abs="265290.443209" HC_abs="30.630429" PMx_abs="4.876548" NOx_abs="110.491657" fuel_abs="114.037736" electricity_abs="0"/>
    </tripinfo>
    <tripinfo id="carIn30817:1" depart="57681.00" departLane="315358244_1" departPos="5.10" departSpeed="0.00" departDelay="0.20" arrival="57761.00" arrivalLane="447569997#1_1" arrivalPos="180.93" arrivalSpeed="7.45" duration="80.00" routeLength="718.04" waitingTime="2.00" waitingCount="1" stopTime="0.00" timeLoss="18.78" rerouteNo="1" devices="tripinfo_carIn30817:1 routing_carIn30817:1 emissions_carIn30817:1" vType="default_016" speedFactor="1.01" vaporized="">
        <emissions CO_abs="3440.103913" CO2_abs="187042.827798" HC_abs="20.029588" PMx_abs="3.244439" NOx_abs="76.393297" fuel_abs="80.402253" electricity_abs="0"/>
    </tripinfo>
    <tripinfo id="h3326c1:2" depart="57656.00" departLane="22716069#0_1" departPos="5.10" departSpeed="0.00" departDelay="0.00" arrival="57767.00" arrivalLane="24634517#13_1" arrivalPos="111.62" arrivalSpeed="13.55" duration="111.00" routeLength="1312.81" waitingTime="0.00" waitingCount="0" stopTime="0.00" timeLoss="15.99" rerouteNo="1" devices="tripinfo_h3326c1:2 routing_h3326c1:2 emissions_h3326c1:2" vType="default_016" speedFactor="1.03" vaporized="">
        <emissions CO_abs="4199.394329" CO2_abs="327728.827936" HC_abs="26.773775" PMx_abs="5.471345" NOx_abs="130.738394" fuel_abs="140.876490" electricity_abs="0"/>
    </tripinfo>
    <tripinfo id="h3154c1:1" depart="57658.00" departLane="24634507_1" departPos="5.10" departSpeed="0.00" departDelay="0.00" arrival="57770.00" arrivalLane="-266565295#5_1" arrivalPos="172.76" arrivalSpeed="13.38" duration="112.00" routeLength="1206.22" waitingTime="10.00" waitingCount="1" stopTime="0.00" timeLoss="25.36" rerouteNo="1" devices="tripinfo_h3154c1:1 routing_h3154c1:1 emissions_h3154c1:1" vType="default_016" speedFactor="1.04" vaporized="">
        <emissions CO_abs="4488.979476" CO2_abs="289774.660289" HC_abs="27.229277" PMx_abs="5.031745" NOx_abs="117.036045" fuel_abs="124.561980" electricity_abs="0"/>
    </tripinfo>
    <tripinfo id="carIn129809:1" depart="57729.00" departLane="-447569998#1_1" departPos="5.10" departSpeed="0.00" departDelay="1.00" arrival="57794.00" arrivalLane="-315358244_1" arrivalPos="33.95" arrivalSpeed="15.12" duration="65.00" routeLength="706.49" waitingTime="0.00" waitingCount="0" stopTime="0.00" timeLoss="9.45" rerouteNo="1" devices="tripinfo_carIn129809:1 routing_carIn129809:1 emissions_carIn129809:1" vType="default_015" speedFactor="1.09" vaporized="">
        <emissions CO_abs="2123.680502" CO2_abs="149156.097551" HC_abs="13.070129" PMx_abs="2.369496" NOx_abs="58.637822" fuel_abs="64.116139" electricity_abs="0"/>
    </tripinfo>
    <tripinfo id="h330c1:1" depart="57736.00" departLane="-32978638#0_1" departPos="5.10" departSpeed="0.00" departDelay="0.20" arrival="57794.00" arrivalLane="-266565295#5_1" arrivalPos="172.76" arrivalSpeed="13.44" duration="58.00" routeLength="370.53" waitingTime="21.00" waitingCount="1" stopTime="0.00" timeLoss="31.44" rerouteNo="1" devices="tripinfo_h330c1:1 routing_h330c1:1 emissions_h330c1:1" vType="default_016" speedFactor="1.02" vaporized="">
        <emissions CO_abs="4797.177051" CO2_abs="155156.782162" HC_abs="25.503329" PMx_abs="3.192151" NOx_abs="66.521444" fuel_abs="66.696620" electricity_abs="0"/>
    </tripinfo>
    <tripinfo id="carIn28951:1" depart="57606.00" departLane="10425609#0_1" departPos="5.10" departSpeed="0.00" departDelay="0.20" arrival="57796.00" arrivalLane="-128361102#1_1" arrivalPos="274.68" arrivalSpeed="13.64" duration="190.00" routeLength="2113.04" waitingTime="15.00" waitingCount="2" stopTime="0.00" timeLoss="43.81" rerouteNo="1" devices="tripinfo_carIn28951:1 routing_carIn28951:1 emissions_carIn28951:1" vType="default_016" speedFactor="1.06" vaporized="">
        <emissions CO_abs="6714.975685" CO2_abs="491809.514902" HC_abs="42.090267" PMx_abs="8.354255" NOx_abs="196.680795" fuel_abs="211.407883" electricity_abs="0"/>
    </tripinfo>
    <tripinfo id="carIn107282:1" depart="57749.00" departLane="-447569998#1_1" departPos="5.10" departSpeed="0.00" departDelay="0.00" arrival="57797.00" arrivalLane="315358242#0_1" arrivalPos="165.37" arrivalSpeed="12.74" duration="48.00" routeLength="448.50" waitingTime="0.00" waitingCount="0" stopTime="0.00" timeLoss="5.09" rerouteNo="1" devices="tripinfo_carIn107282:1 routing_carIn107282:1 emissions_carIn107282:1" vType="default_016" speedFactor="0.98" vaporized="">
        <emissions CO_abs="1796.774792" CO2_abs="108252.051596" HC_abs="10.690079" PMx_abs="1.746558" NOx_abs="43.264705" fuel_abs="46.533285" electricity_abs="0"/>
    </tripinfo>
    <tripinfo id="carIn12365:1" depart="57713.00" departLane="315358244_1" departPos="5.10" departSpeed="0.00" departDelay="0.50" arrival="57798.00" arrivalLane="447569997#1_1" arrivalPos="180.93" arrivalSpeed="6.10" duration="85.00" routeLength="718.04" waitingTime="0.00" waitingCount="0" stopTime="0.00" timeLoss="14.59" rerouteNo="1" devices="tripinfo_carIn12365:1 routing_carIn12365:1 emissions_carIn12365:1" vType="default_016" speedFactor="0.87" vaporized="">
        <emissions CO_abs="3193.431434" CO2_abs="169041.283394" HC_abs="18.435693" PMx_abs="2.692688" NOx_abs="67.610884" fuel_abs="72.664533" electricity_abs="0"/>
    </tripinfo>
    <tripinfo id="carIn82220:1" depart="57619.00" departLane="-306240162#1_0" departPos="5.10" departSpeed="0.00" departDelay="3.50" arrival="57806.00" arrivalLane="386687235_2" arrivalPos="80.84" arrivalSpeed="15.36" duration="187.00" routeLength="2257.41" waitingTime="0.00" waitingCount="0" stopTime="0.00" timeLoss="54.00" rerouteNo="1" devices="tripinfo_carIn82220:1 routing_carIn82220:1 emissions_carIn82220:1" vType="default_016" speedFactor="1.12" vaporized="">
        <emissions CO_abs="7355.376239" CO2_abs="537512.990809" HC_abs="46.018252" PMx_abs="9.411633" NOx_abs="216.491004" fuel_abs="231.053445" electricity_abs="0"/>
    </tripinfo>
    <tripinfo id="h11737c1:1" depart="57665.00" departLane="272042143_1" departPos="5.10" departSpeed="0.00" departDelay="1.50" arrival="57807.00" arrivalLane="-315358254#1_1" arrivalPos="137.16" arrivalSpeed="13.79" duration="142.00" routeLength="1596.88" waitingTime="11.00" waitingCount="1" stopTime="0.00" timeLoss="33.17" rerouteNo="1" devices="tripinfo_h11737c1:1 routing_h11737c1:1 emissions_h11737c1:1" vType="default_016" speedFactor="1.07" vaporized="">
        <emissions CO_abs="5402.184753" CO2_abs="368367.690677" HC_abs="33.225517" PMx_abs="6.278586" NOx_abs="147.357594" fuel_abs="158.345818" electricity_abs="0"/>
    </tripinfo>
    <tripinfo id="carIn126288:1" depart="57674.00" departLane="272042143_1" departPos="5.10" departSpeed="0.00" departDelay="0.00" arrival="57808.00" arrivalLane="-315358254#1_1" arrivalPos="137.16" arrivalSpeed="16.22" duration="134.00" routeLength="1596.88" waitingTime="11.00" waitingCount="1" stopTime="0.00" timeLoss="34.32" rerouteNo="1" devices="tripinfo_carIn126288:1 routing_carIn126288:1 emissions_carIn126288:1" vType="default_016" speedFactor="1.17" vaporized="">
        <emissions CO_abs="5784.314181" CO2_abs="404758.515179" HC_abs="35.748975" PMx_abs="7.150378" NOx_abs="163.009509" fuel_abs="173.988224" electricity_abs="0"/>
    </tripinfo>
    <tripinfo id="carIn82278:1" depart="57702.00" departLane="-306240162#1_0" departPos="5.10" departSpeed="0.00" departDelay="0.70" arrival="57808.00" arrivalLane="399835085#1_1" arrivalPos="212.23" arrivalSpeed="8.57" duration="106.00" routeLength="1093.26" waitingTime="11.00" waitingCount="1" stopTime="0.00" timeLoss="39.09" rerouteNo="1" devices="tripinfo_carIn82278:1 routing_carIn82278:1 emissions_carIn82278:1" vType="default_016" speedFactor="1.17" vaporized="">
        <emissions CO_abs="7459.602675" CO2_abs="402951.439878" HC_abs="43.638350" PMx_abs="8.208878" NOx_abs="170.238078" fuel_abs="173.211165" electricity_abs="0"/>
    </tripinfo>
    <tripinfo id="h645c1:1" depart="57622.00" departLane="266565295#5_1" departPos="5.10" departSpeed="0.00" departDelay="0.40" arrival="57813.00" arrivalLane="-315358244_1" arrivalPos="33.95" arrivalSpeed="12.95" duration="191.00" routeLength="1910.83" waitingTime="14.00" waitingCount="3" stopTime="0.00" timeLoss="50.03" rerouteNo="1" devices="tripinfo_h645c1:1 routing_h645c1:1 emissions_h645c1:1" vType="default_016" speedFactor="0.98" vaporized="">
        <emissions CO_abs="6439.912812" CO2_abs="454963.595528" HC_abs="39.954700" PMx_abs="7.554391" NOx_abs="181.799307" fuel_abs="195.569763" electricity_abs="0"/>
    </tripinfo>
    <tripinfo id="h12244c1:3" depart="57612.00" departLane="315358244_1" departPos="5.10" departSpeed="0.00" departDelay="0.40" arrival="57817.00" arrivalLane="386687235_1" arrivalPos="80.84" arrivalSpeed="12.43" duration="205.00" routeLength="1186.14" waitingTime="85.00" waitingCount="4" stopTime="0.00" timeLoss="110.01" rerouteNo="1" devices="tripinfo_h12244c1:3 routing_h12244c1:3 emissions_h12244c1:3" vType="default_016" speedFactor="0.91" vaporized="">
        <emissions CO_abs="15666.822078" CO2_abs="445960.706378" HC_abs="81.722035" PMx_abs="8.742054" NOx_abs="187.994028" fuel_abs="191.705642" electricity_abs="0"/>
    </tripinfo>
    <tripinfo id="h9563c2:5" depart="57631.00" departLane="315358244_1" departPos="5.10" departSpeed="0.00" departDelay="0.70" arrival="57819.00" arrivalLane="386687235_1" arrivalPos="80.84" arrivalSpeed="14.91" duration="188.00" routeLength="1186.14" waitingTime="80.00" waitingCount="4" stopTime="0.00" timeLoss="109.54" rerouteNo="1" devices="tripinfo_h9563c2:5 routing_h9563c2:5 emissions_h9563c2:5" vType="default_016" speedFactor="1.10" vaporized="">
        <emissions CO_abs="14896.985725" CO2_abs="449673.852408" HC_abs="78.360208" PMx_abs="8.998695" NOx_abs="189.512353" fuel_abs="193.300889" electricity_abs="0"/>
    </tripinfo>
    <tripinfo id="carIn12858:1" depart="57661.00" departLane="128361109#1_1" departPos="5.10" departSpeed="0.00" departDelay="0.90" arrival="57819.00" arrivalLane="399835085#1_1" arrivalPos="212.23" arrivalSpeed="7.43" duration="158.00" routeLength="1738.12" waitingTime="7.00" waitingCount="1" stopTime="0.00" timeLoss="35.10" rerouteNo="1" devices="tripinfo_carIn12858:1 routing_carIn12858:1 emissions_carIn12858:1" vType="default_016" speedFactor="0.93" vaporized="">
        <emissions CO_abs="7403.614637" CO2_abs="479327.956835" HC_abs="45.081816" PMx_abs="8.823514" NOx_abs="195.956546" fuel_abs="206.042311" electricity_abs="0"/>
    </tripinfo>
    <tripinfo id="carIn462:1" depart="57622.00" departLane="-306240162#1_0" departPos="5.10" departSpeed="0.00" departDelay="4.80" arrival="57824.00" arrivalLane="386687235_2" arrivalPos="80.84" arrivalSpeed="12.36" duration="202.00" routeLength="2257.41" waitingTime="1.00" waitingCount="1" stopTime="0.00" timeLoss="42.35" rerouteNo="1" devices="tripinfo_carIn462:1 routing_carIn462:1 emissions_carIn462:1" vType="default_016" speedFactor="0.93" vaporized="">
        <emissions CO_abs="7848.510064" CO2_abs="543869.762648" HC_abs="48.520198" PMx_abs="9.560517" NOx_abs="219.991425" fuel_abs="233.786186" electricity_abs="0"/>
    </tripinfo>
    <tripinfo id="carIn107084:1" depart="57601.00" departLane="124812856#0_1" departPos="5.10" departSpeed="0.00" departDelay="0.70" arrival="57825.00" arrivalLane="-128361102#1_1" arrivalPos="274.68" arrivalSpeed="12.35" duration="224.00" routeLength="2250.49" waitingTime="22.00" waitingCount="3" stopTime="0.00" timeLoss="55.76" rerouteNo="1" devices="tripinfo_carIn107084:1 routing_carIn107084:1 emissions_carIn107084:1" vType="default_016" speedFactor="0.98" vaporized="">
        <emissions CO_abs="8302.440187" CO2_abs="539925.078036" HC_abs="50.459782" PMx_abs="9.287465" NOx_abs="218.064870" fuel_abs="232.091188" electricity_abs="0"/>
    </tripinfo>
    <tripinfo id="carIn48184:1" depart="57613.00" departLane="-306240162#1_0" departPos="5.10" departSpeed="0.00" departDelay="0.70" arrival="57825.00" arrivalLane="386687235_1" arrivalPos="80.84" arrivalSpeed="10.45" duration="212.00" routeLength="2257.41" waitingTime="4.00" waitingCount="2" stopTime="0.00" timeLoss="34.29" rerouteNo="1" devices="tripinfo_carIn48184:1 routing_carIn48184:1 emissions_carIn48184:1" vType="default_016" speedFactor="0.84" vaporized="">
        <emissions CO_abs="6877.798691" CO2_abs="497156.558879" HC_abs="42.764741" PMx_abs="7.941100" NOx_abs="196.041765" fuel_abs="213.707129" electricity_abs="0"/>
    </tripinfo>
    <tripinfo id="carIn77943:1" depart="57607.00" departLane="124812856#0_1" departPos="5.10" departSpeed="0.00" departDelay="1.50" arrival="57826.00" arrivalLane="-128361102#1_1" arrivalPos="274.68" arrivalSpeed="14.20" duration="219.00" routeLength="2250.49" waitingTime="13.00" waitingCount="3" stopTime="0.00" timeLoss="70.64" rerouteNo="1" devices="tripinfo_carIn77943:1 routing_carIn77943:1 emissions_carIn77943:1" vType="default_016" speedFactor="1.11" vaporized="">
        <emissions CO_abs="9278.634585" CO2_abs="599210.564493" HC_abs="56.389651" PMx_abs="10.800194" NOx_abs="245.787423" fuel_abs="257.574779" electricity_abs="0"/>
    </tripinfo>
    <tripinfo id="carIn31257:1" depart="57630.00" departLane="-306240162#1_0" departPos="5.10" departSpeed="0.00" departDelay="1.60" arrival="57826.00" arrivalLane="386687235_2" arrivalPos="80.84" arrivalSpeed="13.67" duration="196.00" routeLength="2257.41" waitingTime="0.00" waitingCount="0" stopTime="0.00" timeLoss="56.04" rerouteNo="1" devices="tripinfo_carIn31257:1 routing_carIn31257:1 emissions_carIn31257:1" vType="default_016" speedFactor="1.07" vaporized="">
        <emissions CO_abs="9601.719068" CO2_abs="621644.141336" HC_abs="58.416544" PMx_abs="11.652889" NOx_abs="256.624916" fuel_abs="267.217417" electricity_abs="0"/>
    </tripinfo>
    <tripinfo id="carIn12152:1" depart="57647.00" departLane="24599188#0.94_1" departPos="5.10" departSpeed="0.00" departDelay="0.50" arrival="57826.00" arrivalLane="-315358254#1_1" arrivalPos="137.16" arrivalSpeed="14.40" duration="179.00" routeLength="2034.31" waitingTime="3.00" waitingCount="1" stopTime="0.00" timeLoss="28.73" rerouteNo="1" devices="tripinfo_carIn12152:1 routing_carIn12152:1 emissions_carIn12152:1" vType="default_016" speedFactor="1.05" vaporized="">
        <emissions CO_abs="5761.625880" CO2_abs="430939.039116" HC_abs="36.272672" PMx_abs="7.140991" NOx_abs="171.416310" fuel_abs="185.242409" electricity_abs="0"/>
    </tripinfo>
    <tripinfo id="carIn116184:1" depart="57627.00" departLane="-306240162#1_0" departPos="5.10" departSpeed="0.00" departDelay="0.10" arrival="57827.00" arrivalLane="386687235_1" arrivalPos="80.84" arrivalSpeed="11.93" duration="200.00" routeLength="2257.41" waitingTime="0.00" waitingCount="0" stopTime="0.00" timeLoss="36.81" rerouteNo="1" devices="tripinfo_carIn116184:1 routing_carIn116184:1 emissions_carIn116184:1" vType="default_016" speedFactor="0.91" vaporized="">
        <emissions CO_abs="8088.771117" CO2_abs="556491.080137" HC_abs="49.901335" PMx_abs="9.722477" NOx_abs="225.282671" fuel_abs="239.211630" electricity_abs="0"/>
    </tripinfo>
    <tripinfo id="carIn77438:1" depart="57613.00" departLane="124812856#0_1" departPos="5.10" departSpeed="0.00" departDelay="0.10" arrival="57828.00" arrivalLane="-128361102#1_1" arrivalPos="274.68" arrivalSpeed="13.63" duration="215.00" routeLength="2250.49" waitingTime="9.00" waitingCount="4" stopTime="0.00" timeLoss="55.97" rerouteNo="1" devices="tripinfo_carIn77438:1 routing_carIn77438:1 emissions_carIn77438:1" vType="default_016" speedFactor="1.03" vaporized="">
        <emissions CO_abs="8938.769768" CO2_abs="588221.740393" HC_abs="54.507899" PMx_abs="10.413820" NOx_abs="239.691002" fuel_abs="252.851330" electricity_abs="0"/>
    </tripinfo>
    <tripinfo id="carIn50326:1" depart="57651.00" departLane="128361102#0_1" departPos="5.10" departSpeed="0.00" departDelay="0.30" arrival="57828.00" arrivalLane="18809673#0_1" arrivalPos="473.56" arrivalSpeed="11.60" duration="177.00" routeLength="1591.07" waitingTime="8.00" waitingCount="1" stopTime="0.00" timeLoss="28.09" rerouteNo="1" devices="tripinfo_carIn50326:1 routing_carIn50326:1 emissions_carIn50326:1" vType="default_016" speedFactor="0.87" vaporized="">
        <emissions CO_abs="6096.488233" CO2_abs="359363.651869" HC_abs="36.076556" PMx_abs="5.778726" NOx_abs="143.724521" fuel_abs="154.476371" electricity_abs="0"/>
    </tripinfo>
    <tripinfo id="h16072c2:3" depart="57663.00" departLane="315358254#0_1" departPos="5.10" departSpeed="0.00" departDelay="2.50" arrival="57828.00" arrivalLane="386687235_1" arrivalPos="80.84" arrivalSpeed="13.32" duration="165.00" routeLength="1611.92" waitingTime="6.00" waitingCount="1" stopTime="0.00" timeLoss="45.13" rerouteNo="1" devices="tripinfo_h16072c2:3 routing_h16072c2:3 emissions_h16072c2:3" vType="default_016" speedFactor="0.98" vaporized="">
        <emissions CO_abs="7351.910206" CO2_abs="454854.732658" HC_abs="44.133015" PMx_abs="7.901076" NOx_abs="184.853652" fuel_abs="195.523129" electricity_abs="0"/>
    </tripinfo>
    <tripinfo id="carIn56649:1" depart="57627.00" departLane="124812856#0_1" departPos="5.10" departSpeed="0.00" departDelay="3.10" arrival="57830.00" arrivalLane="-128361102#1_1" arrivalPos="274.68" arrivalSpeed="14.29" duration="203.00" routeLength="2250.49" waitingTime="1.00" waitingCount="1" stopTime="0.00" timeLoss="45.56" rerouteNo="1" devices="tripinfo_carIn56649:1 routing_carIn56649:1 emissions_carIn56649:1" vType="default_016" speedFactor="1.05" vaporized="">
        <emissions CO_abs="7946.811704" CO2_abs="555252.978837" HC_abs="49.124818" PMx_abs="9.594756" NOx_abs="224.556491" fuel_abs="238.679417" electricity_abs="0"/>
    </tripinfo>
    <tripinfo id="carIn81860:1" depart="57712.00" departLane="128361102#0_1" departPos="5.10" departSpeed="0.00" departDelay="0.60" arrival="57830.00" arrivalLane="-24634517#17_1" arrivalPos="6.43" arrivalSpeed="8.63" duration="118.00" routeLength="1229.64" waitingTime="13.00" waitingCount="1" stopTime="0.00" timeLoss="36.84" rerouteNo="1" devices="tripinfo_carIn81860:1 routing_carIn81860:1 emissions_carIn81860:1" vType="default_016" speedFactor="1.12" vaporized="">
        <emissions CO_abs="5755.876139" CO2_abs="333414.274445" HC_abs="33.928918" PMx_abs="5.918927" NOx_abs="134.856133" fuel_abs="143.321176" electricity_abs="0"/>
    </tripinfo>
    <tripinfo id="carIn81046:1" depart="57610.00" departLane="124812856#0_1" departPos="5.10" departSpeed="0.00" departDelay="1.50" arrival="57832.00" arrivalLane="-128361102#1_1" arrivalPos="274.68" arrivalSpeed="14.60" duration="222.00" routeLength="2250.49" waitingTime="6.00" waitingCount="2" stopTime="0.00" timeLoss="73.34" rerouteNo="1" devices="tripinfo_carIn81046:1 routing_carIn81046:1 emissions_carIn81046:1" vType="default_016" speedFactor="1.11" vaporized="">
        <emissions CO_abs="9688.604912" CO2_abs="592559.322838" HC_abs="58.080154" PMx_abs="10.672774" NOx_abs="243.156233" fuel_abs="254.716132" electricity_abs="0"/>
    </tripinfo>