<?xml version="1.0" encoding="UTF-8"?>

<!-- generated on 2021-10-26 12:55:58 by Eclipse SUMO sumo Version 1.10.0
<configuration xmlns:xsi="http://www.w3.org/2001/XMLSchema-instance" xsi:noNamespaceSchemaLocation="http://sumo.dlr.de/xsd/sumoConfiguration.xsd">

    <input>
        <net-file value="/Users/behradkoohy/sumo-scratchpad/RESCO/environments/ingolstadt21/ingolstadt21.net.xml"/>
        <route-files value="/Users/behradkoohy/sumo-scratchpad/RESCO/environments/ingolstadt21/ingolstadt21.rou.xml"/>
    </input>

    <output>
        <tripinfo-output value="/Users/behradkoohy/sumo-scratchpad/RESCO/logs/MAXPRESSURE-tr0-ingolstadt21-21-mplight-wait/tripinfo_21.xml"/>
        <tripinfo-output.write-unfinished value="true"/>
    </output>

    <time>
        <begin value="57600"/>
        <end value="61200"/>
    </time>

    <processing>
        <time-to-teleport value="-1"/>
    </processing>

    <report>
        <no-warnings value="true"/>
        <no-step-log value="true"/>
    </report>

    <emissions>
        <device.emissions.probability value="1"/>
    </emissions>

    <traci_server>
        <remote-port value="58628"/>
    </traci_server>

    <random_number>
        <random value="true"/>
    </random_number>

</configuration>
-->

<tripinfos xmlns:xsi="http://www.w3.org/2001/XMLSchema-instance" xsi:noNamespaceSchemaLocation="http://sumo.dlr.de/xsd/tripinfo_file.xsd">
    <tripinfo id="h15454c2:3" depart="57612.00" departLane="24608844_1" departPos="5.10" departSpeed="0.00" departDelay="0.50" arrival="57651.00" arrivalLane="32978638#0_1" arrivalPos="49.29" arrivalSpeed="13.14" duration="39.00" routeLength="354.79" waitingTime="0.00" waitingCount="0" stopTime="0.00" timeLoss="5.76" rerouteNo="1" devices="tripinfo_h15454c2:3 routing_h15454c2:3 emissions_h15454c2:3" vType="default_016" speedFactor="1.03" vaporized="">
        <emissions CO_abs="2062.716809" CO2_abs="116606.721593" HC_abs="12.135092" PMx_abs="2.131038" NOx_abs="48.470748" fuel_abs="50.124329" electricity_abs="0"/>
    </tripinfo>
    <tripinfo id="carIn60260:1" depart="57606.00" departLane="315358254#0_1" departPos="5.10" departSpeed="0.00" departDelay="0.90" arrival="57665.00" arrivalLane="399835085#1_1" arrivalPos="212.23" arrivalSpeed="6.11" duration="59.00" routeLength="430.98" waitingTime="0.00" waitingCount="0" stopTime="0.00" timeLoss="7.53" rerouteNo="1" devices="tripinfo_carIn60260:1 routing_carIn60260:1 emissions_carIn60260:1" vType="default_016" speedFactor="0.89" vaporized="">
        <emissions CO_abs="2298.426251" CO2_abs="107634.888436" HC_abs="12.946755" PMx_abs="1.790354" NOx_abs="43.895036" fuel_abs="46.268292" electricity_abs="0"/>
    </tripinfo>
    <tripinfo id="carIn53971:1" depart="57640.00" departLane="272042143_1" departPos="5.10" departSpeed="0.00" departDelay="0.80" arrival="57693.00" arrivalLane="24634414#1_1" arrivalPos="162.19" arrivalSpeed="7.71" duration="53.00" routeLength="493.04" waitingTime="0.00" waitingCount="0" stopTime="0.00" timeLoss="7.84" rerouteNo="1" devices="tripinfo_carIn53971:1 routing_carIn53971:1 emissions_carIn53971:1" vType="default_016" speedFactor="1.02" vaporized="">
        <emissions CO_abs="2475.734303" CO2_abs="144280.557170" HC_abs="14.642887" PMx_abs="2.490474" NOx_abs="58.887103" fuel_abs="62.020321" electricity_abs="0"/>
    </tripinfo>
    <tripinfo id="S5R_frequency1.2" depart="57615.00" departLane="315358250#0_1" departPos="12.10" departSpeed="0.00" departDelay="3.40" arrival="57708.00" arrivalLane="386687235_1" arrivalPos="80.84" arrivalSpeed="13.71" duration="93.00" routeLength="1115.62" waitingTime="0.00" waitingCount="0" stopTime="0.00" timeLoss="11.91" rerouteNo="1" devices="tripinfo_S5R_frequency1.2 routing_S5R_frequency1.2 emissions_S5R_frequency1.2" vType="bus" speedFactor="1.00" vaporized="">
        <emissions CO_abs="1871.001229" CO2_abs="1191661.170129" HC_abs="393.963833" PMx_abs="201.051879" NOx_abs="9193.154424" fuel_abs="508.237409" electricity_abs="0"/>
    </tripinfo>
    <tripinfo id="h12244c1:3" depart="57612.00" departLane="315358244_1" departPos="5.10" departSpeed="0.00" departDelay="0.40" arrival="57716.00" arrivalLane="386687235_1" arrivalPos="80.84" arrivalSpeed="11.52" duration="104.00" routeLength="1186.14" waitingTime="0.00" waitingCount="0" stopTime="0.00" timeLoss="7.88" rerouteNo="1" devices="tripinfo_h12244c1:3 routing_h12244c1:3 emissions_h12244c1:3" vType="default_016" speedFactor="0.90" vaporized="">
        <emissions CO_abs="2654.878719" CO2_abs="220403.588937" HC_abs="17.193277" PMx_abs="3.321393" NOx_abs="85.805978" fuel_abs="94.742385" electricity_abs="0"/>
    </tripinfo>
    <tripinfo id="h9563c2:5" depart="57631.00" departLane="315358244_1" departPos="5.10" departSpeed="0.00" departDelay="0.70" arrival="57719.00" arrivalLane="386687235_1" arrivalPos="80.84" arrivalSpeed="14.71" duration="88.00" routeLength="1186.14" waitingTime="0.00" waitingCount="0" stopTime="0.00" timeLoss="8.57" rerouteNo="1" devices="tripinfo_h9563c2:5 routing_h9563c2:5 emissions_h9563c2:5" vType="default_016" speedFactor="1.08" vaporized="">
        <emissions CO_abs="2664.894050" CO2_abs="248361.330272" HC_abs="17.919255" PMx_abs="4.014243" NOx_abs="97.187394" fuel_abs="106.759688" electricity_abs="0"/>
    </tripinfo>
    <tripinfo id="carIn22761:1" depart="57616.00" departLane="-306240162#1_0" departPos="5.10" departSpeed="0.00" departDelay="2.10" arrival="57725.00" arrivalLane="399835085#1_1" arrivalPos="212.23" arrivalSpeed="7.60" duration="109.00" routeLength="1093.26" waitingTime="13.00" waitingCount="1" stopTime="0.00" timeLoss="29.64" rerouteNo="1" devices="tripinfo_carIn22761:1 routing_carIn22761:1 emissions_carIn22761:1" vType="default_016" speedFactor="0.99" vaporized="">
        <emissions CO_abs="6254.140346" CO2_abs="329058.664802" HC_abs="36.277196" PMx_abs="6.159563" NOx_abs="134.490680" fuel_abs="141.448974" electricity_abs="0"/>
    </tripinfo>
    <tripinfo id="h7800c1:5" depart="57696.00" departLane="-447569998#1_1" departPos="5.10" departSpeed="0.00" departDelay="0.00" arrival="57725.00" arrivalLane="-447569998#1_2" arrivalPos="180.76" arrivalSpeed="5.02" duration="29.00" routeLength="175.66" waitingTime="3.00" waitingCount="1" stopTime="0.00" timeLoss="8.23" rerouteNo="1" devices="tripinfo_h7800c1:5 routing_h7800c1:5 emissions_h7800c1:5" vType="default_016" speedFactor="1.04" vaporized="">
        <emissions CO_abs="1501.901284" CO2_abs="62041.390671" HC_abs="8.270445" PMx_abs="1.072444" NOx_abs="25.618661" fuel_abs="26.669403" electricity_abs="0"/>
    </tripinfo>
    <tripinfo id="h3688c1:1" depart="57625.00" departLane="201201950#1_1" departPos="5.10" departSpeed="0.00" departDelay="0.00" arrival="57731.00" arrivalLane="32978638#0_1" arrivalPos="49.29" arrivalSpeed="14.39" duration="106.00" routeLength="1089.75" waitingTime="13.00" waitingCount="1" stopTime="0.00" timeLoss="29.23" rerouteNo="1" devices="tripinfo_h3688c1:1 routing_h3688c1:1 emissions_h3688c1:1" vType="default_016" speedFactor="1.05" vaporized="">
        <emissions CO_abs="5533.950594" CO2_abs="314067.554541" HC_abs="32.575644" PMx_abs="5.727529" NOx_abs="128.682620" fuel_abs="135.004622" electricity_abs="0"/>
    </tripinfo>
    <tripinfo id="h3568c1:3" depart="57656.00" departLane="266565295#5_1" departPos="5.10" departSpeed="0.00" departDelay="0.80" arrival="57731.00" arrivalLane="-24634415_1" arrivalPos="62.03" arrivalSpeed="13.40" duration="75.00" routeLength="807.40" waitingTime="0.00" waitingCount="0" stopTime="0.00" timeLoss="12.54" rerouteNo="1" devices="tripinfo_h3568c1:3 routing_h3568c1:3 emissions_h3568c1:3" vType="default_016" speedFactor="1.03" vaporized="">
        <emissions CO_abs="3289.202039" CO2_abs="217443.935709" HC_abs="20.094366" PMx_abs="3.835773" NOx_abs="88.670103" fuel_abs="93.469829" electricity_abs="0"/>
    </tripinfo>
    <tripinfo id="carIn30817:1" depart="57681.00" departLane="315358244_1" departPos="5.10" departSpeed="0.00" departDelay="0.20" arrival="57742.00" arrivalLane="447569997#1_1" arrivalPos="180.93" arrivalSpeed="8.50" duration="61.00" routeLength="718.04" waitingTime="0.00" waitingCount="0" stopTime="0.00" timeLoss="6.90" rerouteNo="1" devices="tripinfo_carIn30817:1 routing_carIn30817:1 emissions_carIn30817:1" vType="default_016" speedFactor="1.14" vaporized="">
        <emissions CO_abs="1981.131016" CO2_abs="151359.475163" HC_abs="12.464058" PMx_abs="2.450068" NOx_abs="59.622682" fuel_abs="65.063076" electricity_abs="0"/>
    </tripinfo>
    <tripinfo id="h7181c1:1" depart="57660.00" departLane="315358254#0_1" departPos="5.10" departSpeed="0.00" departDelay="0.10" arrival="57744.00" arrivalLane="306240162#0_0" arrivalPos="220.43" arrivalSpeed="12.90" duration="84.00" routeLength="932.35" waitingTime="10.00" waitingCount="1" stopTime="0.00" timeLoss="21.71" rerouteNo="1" devices="tripinfo_h7181c1:1 routing_h7181c1:1 emissions_h7181c1:1" vType="default_016" speedFactor="0.82" vaporized="">
        <emissions CO_abs="3799.173687" CO2_abs="227545.330742" HC_abs="22.522671" PMx_abs="4.052453" NOx_abs="91.769879" fuel_abs="97.812337" electricity_abs="0"/>
    </tripinfo>
    <tripinfo id="carIn80064:1" depart="57603.00" departLane="128361109#1_1" departPos="5.10" departSpeed="0.00" departDelay="0.40" arrival="57749.00" arrivalLane="-315358254#1_1" arrivalPos="137.16" arrivalSpeed="11.91" duration="146.00" routeLength="1587.97" waitingTime="26.00" waitingCount="1" stopTime="0.00" timeLoss="51.50" rerouteNo="1" devices="tripinfo_carIn80064:1 routing_carIn80064:1 emissions_carIn80064:1" vType="default_016" speedFactor="0.94" vaporized="">
        <emissions CO_abs="9743.156146" CO2_abs="502192.990629" HC_abs="56.342799" PMx_abs="9.956293" NOx_abs="209.880425" fuel_abs="215.871610" electricity_abs="0"/>
    </tripinfo>
    <tripinfo id="h317c2:1" depart="57707.00" departLane="-32978638#0_1" departPos="5.10" departSpeed="0.00" departDelay="0.10" arrival="57756.00" arrivalLane="-266565295#5_1" arrivalPos="172.76" arrivalSpeed="12.39" duration="49.00" routeLength="370.53" waitingTime="12.00" waitingCount="1" stopTime="0.00" timeLoss="20.22" rerouteNo="1" devices="tripinfo_h317c2:1 routing_h317c2:1 emissions_h317c2:1" vType="default_016" speedFactor="0.97" vaporized="">
        <emissions CO_abs="3191.040387" CO2_abs="135449.332339" HC_abs="17.726710" PMx_abs="2.639237" NOx_abs="57.140552" fuel_abs="58.224428" electricity_abs="0"/>
    </tripinfo>
    <tripinfo id="h5979c1:5" depart="57669.00" departLane="399835085#1_1" departPos="5.10" departSpeed="0.00" departDelay="0.00" arrival="57766.00" arrivalLane="-315358254#1_1" arrivalPos="137.16" arrivalSpeed="14.79" duration="97.00" routeLength="659.33" waitingTime="10.00" waitingCount="1" stopTime="0.00" timeLoss="31.34" rerouteNo="1" devices="tripinfo_h5979c1:5 routing_h5979c1:5 emissions_h5979c1:5" vType="default_016" speedFactor="1.11" vaporized="">
        <emissions CO_abs="5328.297155" CO2_abs="230430.986739" HC_abs="29.621190" PMx_abs="4.151913" NOx_abs="95.734136" fuel_abs="99.053723" electricity_abs="0"/>
    </tripinfo>
    <tripinfo id="h645c1:1" depart="57622.00" departLane="266565295#5_1" departPos="5.10" departSpeed="0.00" departDelay="0.40" arrival="57776.00" arrivalLane="-315358244_1" arrivalPos="33.95" arrivalSpeed="12.75" duration="154.00" routeLength="1910.83" waitingTime="0.00" waitingCount="0" stopTime="0.00" timeLoss="15.49" rerouteNo="1" devices="tripinfo_h645c1:1 routing_h645c1:1 emissions_h645c1:1" vType="default_016" speedFactor="1.00" vaporized="">
        <emissions CO_abs="4265.858954" CO2_abs="367169.092643" HC_abs="27.991668" PMx_abs="5.849858" NOx_abs="144.026938" fuel_abs="157.830282" electricity_abs="0"/>
    </tripinfo>
    <tripinfo id="h3154c1:1" depart="57658.00" departLane="24634507_1" departPos="5.10" departSpeed="0.00" departDelay="0.00" arrival="57779.00" arrivalLane="-266565295#5_1" arrivalPos="172.76" arrivalSpeed="14.53" duration="121.00" routeLength="1206.22" waitingTime="15.00" waitingCount="2" stopTime="0.00" timeLoss="37.02" rerouteNo="1" devices="tripinfo_h3154c1:1 routing_h3154c1:1 emissions_h3154c1:1" vType="default_016" speedFactor="1.06" vaporized="">
        <emissions CO_abs="5880.116608" CO2_abs="348823.944675" HC_abs="34.905795" PMx_abs="6.350322" NOx_abs="142.919157" fuel_abs="149.944722" electricity_abs="0"/>
    </tripinfo>
    <tripinfo id="carIn86816:1" depart="57617.00" departLane="128361102#0_1" departPos="5.10" departSpeed="0.00" departDelay="0.80" arrival="57781.00" arrivalLane="201956811#0_1" arrivalPos="40.40" arrivalSpeed="13.78" duration="164.00" routeLength="2067.33" waitingTime="0.00" waitingCount="0" stopTime="0.00" timeLoss="18.26" rerouteNo="1" devices="tripinfo_carIn86816:1 routing_carIn86816:1 emissions_carIn86816:1" vType="default_016" speedFactor="1.04" vaporized="">
        <emissions CO_abs="5145.329032" CO2_abs="443113.991814" HC_abs="33.618186" PMx_abs="7.226596" NOx_abs="174.728180" fuel_abs="190.475470" electricity_abs="0"/>
    </tripinfo>
    <tripinfo id="carIn118591:1" depart="57689.00" departLane="315358244_1" departPos="5.10" departSpeed="0.00" departDelay="0.20" arrival="57781.00" arrivalLane="386687235_1" arrivalPos="80.84" arrivalSpeed="15.33" duration="92.00" routeLength="1186.14" waitingTime="4.00" waitingCount="1" stopTime="0.00" timeLoss="19.05" rerouteNo="1" devices="tripinfo_carIn118591:1 routing_carIn118591:1 emissions_carIn118591:1" vType="default_016" speedFactor="1.19" vaporized="">
        <emissions CO_abs="3783.224006" CO2_abs="293383.973238" HC_abs="24.008965" PMx_abs="5.264607" NOx_abs="118.243123" fuel_abs="126.112670" electricity_abs="0"/>
    </tripinfo>
    <tripinfo id="carIn12365:1" depart="57713.00" departLane="315358244_1" departPos="5.10" departSpeed="0.00" departDelay="0.50" arrival="57781.00" arrivalLane="447569997#1_1" arrivalPos="180.93" arrivalSpeed="8.08" duration="68.00" routeLength="718.04" waitingTime="0.00" waitingCount="0" stopTime="0.00" timeLoss="7.08" rerouteNo="1" devices="tripinfo_carIn12365:1 routing_carIn12365:1 emissions_carIn12365:1" vType="default_016" speedFactor="1.01" vaporized="">
        <emissions CO_abs="2253.211253" CO2_abs="147152.933884" HC_abs="13.665033" PMx_abs="2.423162" NOx_abs="58.909292" fuel_abs="63.255021" electricity_abs="0"/>
    </tripinfo>
    <tripinfo id="h3326c1:2" depart="57656.00" departLane="22716069#0_1" departPos="5.10" departSpeed="0.00" departDelay="0.00" arrival="57785.00" arrivalLane="24634517#13_1" arrivalPos="111.62" arrivalSpeed="11.93" duration="129.00" routeLength="1312.81" waitingTime="0.00" waitingCount="0" stopTime="0.00" timeLoss="15.57" rerouteNo="1" devices="tripinfo_h3326c1:2 routing_h3326c1:2 emissions_h3326c1:2" vType="default_016" speedFactor="0.86" vaporized="">
        <emissions CO_abs="4595.472922" CO2_abs="316551.568910" HC_abs="28.294085" PMx_abs="5.167454" NOx_abs="126.799914" fuel_abs="136.072382" electricity_abs="0"/>
    </tripinfo>
    <tripinfo id="h330c1:1" depart="57736.00" departLane="-32978638#0_1" departPos="5.10" departSpeed="0.00" departDelay="0.20" arrival="57785.00" arrivalLane="-266565295#5_1" arrivalPos="172.76" arrivalSpeed="13.48" duration="49.00" routeLength="370.53" waitingTime="12.00" waitingCount="1" stopTime="0.00" timeLoss="20.71" rerouteNo="1" devices="tripinfo_h330c1:1 routing_h330c1:1 emissions_h330c1:1" vType="default_016" speedFactor="0.98" vaporized="">
        <emissions CO_abs="3299.054396" CO2_abs="144301.634049" HC_abs="18.426697" PMx_abs="2.815094" NOx_abs="60.866742" fuel_abs="62.029601" electricity_abs="0"/>
    </tripinfo>
    <tripinfo id="h11737c1:1" depart="57665.00" departLane="272042143_1" departPos="5.10" departSpeed="0.00" departDelay="1.50" arrival="57795.00" arrivalLane="-315358254#1_1" arrivalPos="137.16" arrivalSpeed="15.40" duration="130.00" routeLength="1596.88" waitingTime="10.00" waitingCount="1" stopTime="0.00" timeLoss="30.04" rerouteNo="1" devices="tripinfo_h11737c1:1 routing_h11737c1:1 emissions_h11737c1:1" vType="default_016" speedFactor="1.17" vaporized="">
        <emissions CO_abs="5792.079654" CO2_abs="390227.590809" HC_abs="35.432766" PMx_abs="7.031483" NOx_abs="158.133991" fuel_abs="167.741965" electricity_abs="0"/>
    </tripinfo>
    <tripinfo id="carIn27009:1" depart="57673.00" departLane="-447569998#1_1" departPos="5.10" departSpeed="0.00" departDelay="0.50" arrival="57795.00" arrivalLane="-26677539_1" arrivalPos="152.75" arrivalSpeed="7.85" duration="122.00" routeLength="699.63" waitingTime="21.00" waitingCount="1" stopTime="0.00" timeLoss="36.67" rerouteNo="1" devices="tripinfo_carIn27009:1 routing_carIn27009:1 emissions_carIn27009:1" vType="default_015" speedFactor="0.99" vaporized="">
        <emissions CO_abs="7103.137544" CO2_abs="241208.619170" HC_abs="37.920545" PMx_abs="4.412631" NOx_abs="101.004274" fuel_abs="103.687794" electricity_abs="0"/>
    </tripinfo>
    <tripinfo id="carIn107084:1" depart="57601.00" departLane="124812856#0_1" departPos="5.10" departSpeed="0.00" departDelay="0.70" arrival="57796.00" arrivalLane="-128361102#1_1" arrivalPos="274.68" arrivalSpeed="12.33" duration="195.00" routeLength="2250.49" waitingTime="0.00" waitingCount="0" stopTime="0.00" timeLoss="18.11" rerouteNo="1" devices="tripinfo_carIn107084:1 routing_carIn107084:1 emissions_carIn107084:1" vType="default_016" speedFactor="0.93" vaporized="">
        <emissions CO_abs="5346.025354" CO2_abs="439166.917969" HC_abs="34.561896" PMx_abs="6.875747" NOx_abs="172.626411" fuel_abs="188.779345" electricity_abs="0"/>
    </tripinfo>
    <tripinfo id="carIn77943:1" depart="57608.00" departLane="124812856#0_1" departPos="5.10" departSpeed="0.00" departDelay="2.50" arrival="57800.00" arrivalLane="-128361102#1_1" arrivalPos="274.68" arrivalSpeed="14.03" duration="192.00" routeLength="2250.49" waitingTime="0.00" waitingCount="0" stopTime="0.00" timeLoss="36.36" rerouteNo="1" devices="tripinfo_carIn77943:1 routing_carIn77943:1 emissions_carIn77943:1" vType="default_016" speedFactor="1.06" vaporized="">
        <emissions CO_abs="6590.272030" CO2_abs="504950.657712" HC_abs="41.891271" PMx_abs="8.687724" NOx_abs="203.823060" fuel_abs="217.056156" electricity_abs="0"/>
    </tripinfo>
    <tripinfo id="carIn102915:1" depart="57643.00" departLane="128361102#0_1" departPos="5.10" departSpeed="0.00" departDelay="0.40" arrival="57801.00" arrivalLane="201956811#0_1" arrivalPos="40.40" arrivalSpeed="14.12" duration="158.00" routeLength="2067.33" waitingTime="0.00" waitingCount="0" stopTime="0.00" timeLoss="18.15" rerouteNo="1" devices="tripinfo_carIn102915:1 routing_carIn102915:1 emissions_carIn102915:1" vType="default_016" speedFactor="1.08" vaporized="">
        <emissions CO_abs="5082.919073" CO2_abs="428022.308329" HC_abs="33.100455" PMx_abs="7.235101" NOx_abs="170.324636" fuel_abs="183.987940" electricity_abs="0"/>
    </tripinfo>
    <tripinfo id="carIn48184:1" depart="57613.00" departLane="-306240162#1_0" departPos="5.10" departSpeed="0.00" departDelay="0.70" arrival="57803.00" arrivalLane="386687235_1" arrivalPos="80.84" arrivalSpeed="13.89" duration="190.00" routeLength="2257.41" waitingTime="21.00" waitingCount="2" stopTime="0.00" timeLoss="48.51" rerouteNo="1" devices="tripinfo_carIn48184:1 routing_carIn48184:1 emissions_carIn48184:1" vType="default_016" speedFactor="1.05" vaporized="">
        <emissions CO_abs="9399.653511" CO2_abs="568365.138735" HC_abs="56.213072" PMx_abs="10.693478" NOx_abs="232.855803" fuel_abs="244.315796" electricity_abs="0"/>
    </tripinfo>
    <tripinfo id="carIn82220:1" depart="57619.00" departLane="-306240162#1_0" departPos="5.10" departSpeed="0.00" departDelay="3.50" arrival="57803.00" arrivalLane="386687235_2" arrivalPos="80.84" arrivalSpeed="15.20" duration="184.00" routeLength="2257.41" waitingTime="19.00" waitingCount="2" stopTime="0.00" timeLoss="51.03" rerouteNo="1" devices="tripinfo_carIn82220:1 routing_carIn82220:1 emissions_carIn82220:1" vType="default_016" speedFactor="1.11" vaporized="">
        <emissions CO_abs="8350.122267" CO2_abs="572941.264074" HC_abs="51.514738" PMx_abs="10.636618" NOx_abs="233.288063" fuel_abs="246.282178" electricity_abs="0"/>
    </tripinfo>
    <tripinfo id="carIn81046:1" depart="57611.00" departLane="124812856#0_1" departPos="5.10" departSpeed="0.00" departDelay="2.50" arrival="57804.00" arrivalLane="-128361102#1_1" arrivalPos="274.68" arrivalSpeed="13.85" duration="193.00" routeLength="2250.49" waitingTime="0.00" waitingCount="0" stopTime="0.00" timeLoss="29.14" rerouteNo="1" devices="tripinfo_carIn81046:1 routing_carIn81046:1 emissions_carIn81046:1" vType="default_016" speedFactor="1.00" vaporized="">
        <emissions CO_abs="7053.288074" CO2_abs="538585.952026" HC_abs="44.767566" PMx_abs="9.253751" NOx_abs="217.351964" fuel_abs="231.514528" electricity_abs="0"/>
    </tripinfo>
    <tripinfo id="carIn82278:1" depart="57702.00" departLane="-306240162#1_0" departPos="5.10" departSpeed="0.00" departDelay="0.70" arrival="57805.00" arrivalLane="399835085#1_1" arrivalPos="212.23" arrivalSpeed="8.00" duration="103.00" routeLength="1093.26" waitingTime="6.00" waitingCount="1" stopTime="0.00" timeLoss="25.99" rerouteNo="1" devices="tripinfo_carIn82278:1 routing_carIn82278:1 emissions_carIn82278:1" vType="default_016" speedFactor="1.02" vaporized="">
        <emissions CO_abs="5831.912200" CO2_abs="340444.120726" HC_abs="34.541605" PMx_abs="6.454585" NOx_abs="140.271212" fuel_abs="146.342366" electricity_abs="0"/>
    </tripinfo>
    <tripinfo id="h19804c1:3" depart="57617.00" departLane="124812856#0_1" departPos="5.10" departSpeed="0.00" departDelay="1.50" arrival="57808.00" arrivalLane="-128361102#1_1" arrivalPos="274.68" arrivalSpeed="13.10" duration="191.00" routeLength="2250.49" waitingTime="0.00" waitingCount="0" stopTime="0.00" timeLoss="18.36" rerouteNo="1" devices="tripinfo_h19804c1:3 routing_h19804c1:3 emissions_h19804c1:3" vType="default_016" speedFactor="0.96" vaporized="">
        <emissions CO_abs="5639.513232" CO2_abs="467446.491865" HC_abs="36.599214" PMx_abs="7.513609" NOx_abs="184.758220" fuel_abs="200.935226" electricity_abs="0"/>
    </tripinfo>
    <tripinfo id="carIn107842:1" depart="57623.00" departLane="124812856#0_1" departPos="5.10" departSpeed="0.00" departDelay="1.90" arrival="57810.00" arrivalLane="-128361102#1_1" arrivalPos="274.68" arrivalSpeed="13.27" duration="187.00" routeLength="2250.49" waitingTime="0.00" waitingCount="0" stopTime="0.00" timeLoss="17.58" rerouteNo="1" devices="tripinfo_carIn107842:1 routing_carIn107842:1 emissions_carIn107842:1" vType="default_016" speedFactor="0.97" vaporized="">
        <emissions CO_abs="5259.403773" CO2_abs="443698.361105" HC_abs="34.297010" PMx_abs="7.034163" NOx_abs="174.486789" fuel_abs="190.727016" electricity_abs="0"/>
    </tripinfo>
    <tripinfo id="randUni33724:1" depart="57646.00" departLane="128361102#0_1" departPos="5.10" departSpeed="0.00" departDelay="1.20" arrival="57810.00" arrivalLane="201956811#0_1" arrivalPos="40.40" arrivalSpeed="14.34" duration="164.00" routeLength="2067.33" waitingTime="0.00" waitingCount="0" stopTime="0.00" timeLoss="17.83" rerouteNo="1" devices="tripinfo_randUni33724:1 routing_randUni33724:1 emissions_randUni33724:1" vType="random_016" speedFactor="1.04" vaporized="">
        <emissions CO_abs="4900.979937" CO2_abs="430932.311235" HC_abs="32.353715" PMx_abs="6.949139" NOx_abs="169.429350" fuel_abs="185.239151" electricity_abs="0"/>
    </tripinfo>
    <tripinfo id="carIn77438:1" depart="57614.00" departLane="124812856#0_1" departPos="5.10" departSpeed="0.00" departDelay="1.10" arrival="57811.00" arrivalLane="-128361102#1_1" arrivalPos="274.68" arrivalSpeed="14.55" duration="197.00" routeLength="2232.46" waitingTime="16.00" waitingCount="1" stopTime="0.00" timeLoss="60.23" rerouteNo="1" devices="tripinfo_carIn77438:1 routing_carIn77438:1 emissions_carIn77438:1" vType="default_016" speedFactor="1.19" vaporized="">
        <emissions CO_abs="9325.062678" CO2_abs="594918.605740" HC_abs="56.481633" PMx_abs="10.886016" NOx_abs="243.723143" fuel_abs="255.729827" electricity_abs="0"/>
    </tripinfo>
    <tripinfo id="carIn50326:1" depart="57651.00" departLane="128361102#0_1" departPos="5.10" departSpeed="0.00" departDelay="0.30" arrival="57815.00" arrivalLane="18809673#0_1" arrivalPos="473.56" arrivalSpeed="11.66" duration="164.00" routeLength="1591.07" waitingTime="5.00" waitingCount="1" stopTime="0.00" timeLoss="24.23" rerouteNo="1" devices="tripinfo_carIn50326:1 routing_carIn50326:1 emissions_carIn50326:1" vType="default_016" speedFactor="0.93" vaporized="">
        <emissions CO_abs="5171.233575" CO2_abs="340927.413180" HC_abs="31.461107" PMx_abs="5.475045" NOx_abs="135.841600" fuel_abs="146.550889" electricity_abs="0"/>
    </tripinfo>
    <tripinfo id="carIn129809:1" depart="57729.00" departLane="-447569998#1_1" departPos="5.10" departSpeed="0.00" departDelay="1.00" arrival="57815.00" arrivalLane="-315358244_1" arrivalPos="33.95" arrivalSpeed="10.86" duration="86.00" routeLength="706.49" waitingTime="6.00" waitingCount="1" stopTime="0.00" timeLoss="16.39" rerouteNo="1" devices="tripinfo_carIn129809:1 routing_carIn129809:1 emissions_carIn129809:1" vType="default_015" speedFactor="0.87" vaporized="">
        <emissions CO_abs="3034.485766" CO2_abs="169281.009673" HC_abs="17.716295" PMx_abs="2.654853" NOx_abs="67.313589" fuel_abs="72.767519" electricity_abs="0"/>
    </tripinfo>
    <tripinfo id="carIn81860:1" depart="57712.00" departLane="128361102#0_1" departPos="5.10" departSpeed="0.00" departDelay="0.60" arrival="57819.00" arrivalLane="-24634517#17_1" arrivalPos="6.43" arrivalSpeed="8.05" duration="107.00" routeLength="1229.64" waitingTime="2.00" waitingCount="1" stopTime="0.00" timeLoss="17.36" rerouteNo="1" devices="tripinfo_carIn81860:1 routing_carIn81860:1 emissions_carIn81860:1" vType="default_016" speedFactor="1.01" vaporized="">
        <emissions CO_abs="3384.631852" CO2_abs="253837.597372" HC_abs="21.341232" PMx_abs="4.230316" NOx_abs="101.188401" fuel_abs="109.113965" electricity_abs="0"/>
    </tripinfo>
    <tripinfo id="carIn116184:1" depart="57627.00" departLane="-306240162#1_0" departPos="5.10" departSpeed="0.00" departDelay="0.10" arrival="57820.00" arrivalLane="386687235_2" arrivalPos="80.84" arrivalSpeed="15.51" duration="193.00" routeLength="2257.41" waitingTime="18.00" waitingCount="2" stopTime="0.00" timeLoss="64.91" rerouteNo="1" devices="tripinfo_carIn116184:1 routing_carIn116184:1 emissions_carIn116184:1" vType="default_016" speedFactor="1.16" vaporized="">
        <emissions CO_abs="8634.448945" CO2_abs="584285.467346" HC_abs="53.100626" PMx_abs="10.859681" NOx_abs="238.607983" fuel_abs="251.158575" electricity_abs="0"/>
    </tripinfo>
    <tripinfo id="h15382c1:3" depart="57626.00" departLane="124812856#0_1" departPos="5.10" departSpeed="0.00" departDelay="3.80" arrival="57822.00" arrivalLane="-128361102#1_1" arrivalPos="274.68" arrivalSpeed="11.86" duration="196.00" routeLength="2250.49" waitingTime="0.00" waitingCount="0" stopTime="0.00" timeLoss="18.86" rerouteNo="1" devices="tripinfo_h15382c1:3 routing_h15382c1:3 emissions_h15382c1:3" vType="default_016" speedFactor="0.93" vaporized="">
        <emissions CO_abs="5486.811515" CO2_abs="445942.756812" HC_abs="35.358952" PMx_abs="6.982929" NOx_abs="175.303909" fuel_abs="191.692040" electricity_abs="0"/>
    </tripinfo>
    <tripinfo id="carIn3969:1" depart="57629.00" departLane="124812856#0_1" departPos="5.10" departSpeed="0.00" departDelay="5.30" arrival="57823.00" arrivalLane="-128361102#1_1" arrivalPos="274.68" arrivalSpeed="13.16" duration="194.00" routeLength="2250.49" waitingTime="0.00" waitingCount="0" stopTime="0.00" timeLoss="41.89" rerouteNo="1" devices="tripinfo_carIn3969:1 routing_carIn3969:1 emissions_carIn3969:1" vType="default_016" speedFactor="1.08" vaporized="">
        <emissions CO_abs="6535.543061" CO2_abs="497753.244374" HC_abs="41.408721" PMx_abs="8.410776" NOx_abs="199.991515" fuel_abs="213.962559" electricity_abs="0"/>
    </tripinfo>
    <tripinfo id="carIn462:1" depart="57622.00" departLane="-306240162#1_0" departPos="5.10" departSpeed="0.00" departDelay="4.80" arrival="57824.00" arrivalLane="386687235_1" arrivalPos="80.84" arrivalSpeed="11.14" duration="202.00" routeLength="2257.41" waitingTime="9.00" waitingCount="2" stopTime="0.00" timeLoss="35.84" rerouteNo="1" devices="tripinfo_carIn462:1 routing_carIn462:1 emissions_carIn462:1" vType="default_016" speedFactor="0.89" vaporized="">
        <emissions CO_abs="6604.307301" CO2_abs="482007.980116" HC_abs="41.328271" PMx_abs="8.103103" NOx_abs="192.644667" fuel_abs="207.194725" electricity_abs="0"/>
    </tripinfo>
    <tripinfo id="h17600c1:1" depart="57662.00" departLane="272042143_1" departPos="5.10" departSpeed="0.00" departDelay="0.30" arrival="57825.00" arrivalLane="201238729#3_1" arrivalPos="431.02" arrivalSpeed="13.86" duration="163.00" routeLength="2100.26" waitingTime="0.00" waitingCount="0" stopTime="0.00" timeLoss="11.94" rerouteNo="1" devices="tripinfo_h17600c1:1 routing_h17600c1:1 emissions_h17600c1:1" vType="default_016" speedFactor="1.00" vaporized="">
        <emissions CO_abs="3593.072681" CO2_abs="365476.538628" HC_abs="24.806123" PMx_abs="5.459452" NOx_abs="140.238911" fuel_abs="157.102794" electricity_abs="0"/>
    </tripinfo>
    <tripinfo id="h16072c2:3" depart="57663.00" departLane="315358254#0_1" departPos="5.10" departSpeed="0.00" departDelay="2.50" arrival="57827.00" arrivalLane="386687235_1" arrivalPos="80.84" arrivalSpeed="9.86" duration="164.00" routeLength="1611.92" waitingTime="0.00" waitingCount="0" stopTime="0.00" timeLoss="13.41" rerouteNo="1" devices="tripinfo_h16072c2:3 routing_h16072c2:3 emissions_h16072c2:3" vType="default_016" speedFactor="0.78" vaporized="">
        <emissions CO_abs="4586.599415" CO2_abs="324338.835317" HC_abs="28.314236" PMx_abs="4.660931" NOx_abs="125.969879" fuel_abs="139.420654" electricity_abs="0"/>
    </tripinfo>