<?xml version="1.0" encoding="UTF-8"?>

<!-- generated on 2021-10-26 13:16:42 by Eclipse SUMO sumo Version 1.10.0
<configuration xmlns:xsi="http://www.w3.org/2001/XMLSchema-instance" xsi:noNamespaceSchemaLocation="http://sumo.dlr.de/xsd/sumoConfiguration.xsd">

    <input>
        <net-file value="/Users/behradkoohy/sumo-scratchpad/RESCO/environments/ingolstadt21/ingolstadt21.net.xml"/>
        <route-files value="/Users/behradkoohy/sumo-scratchpad/RESCO/environments/ingolstadt21/ingolstadt21.rou.xml"/>
    </input>

    <output>
        <tripinfo-output value="/Users/behradkoohy/sumo-scratchpad/RESCO/logs/MAXPRESSURE-tr0-ingolstadt21-21-mplight-wait/tripinfo_48.xml"/>
        <tripinfo-output.write-unfinished value="true"/>
    </output>

    <time>
        <begin value="57600"/>
        <end value="61200"/>
    </time>

    <processing>
        <time-to-teleport value="-1"/>
    </processing>

    <report>
        <no-warnings value="true"/>
        <no-step-log value="true"/>
    </report>

    <emissions>
        <device.emissions.probability value="1"/>
    </emissions>

    <traci_server>
        <remote-port value="58786"/>
    </traci_server>

    <random_number>
        <random value="true"/>
    </random_number>

</configuration>
-->

<tripinfos xmlns:xsi="http://www.w3.org/2001/XMLSchema-instance" xsi:noNamespaceSchemaLocation="http://sumo.dlr.de/xsd/tripinfo_file.xsd">
    <tripinfo id="carIn60260:1" depart="57606.00" departLane="315358254#0_1" departPos="5.10" departSpeed="0.00" departDelay="0.90" arrival="57654.00" arrivalLane="399835085#1_1" arrivalPos="212.23" arrivalSpeed="9.15" duration="48.00" routeLength="430.98" waitingTime="0.00" waitingCount="0" stopTime="0.00" timeLoss="6.78" rerouteNo="1" devices="tripinfo_carIn60260:1 routing_carIn60260:1 emissions_carIn60260:1" vType="default_016" speedFactor="1.14" vaporized="">
        <emissions CO_abs="2221.690357" CO2_abs="123458.549054" HC_abs="12.989065" PMx_abs="2.099227" NOx_abs="50.278446" fuel_abs="53.069916" electricity_abs="0"/>
    </tripinfo>
    <tripinfo id="h15454c2:3" depart="57612.00" departLane="24608844_1" departPos="5.10" departSpeed="0.00" departDelay="0.50" arrival="57662.00" arrivalLane="32978638#0_1" arrivalPos="49.29" arrivalSpeed="12.14" duration="50.00" routeLength="354.79" waitingTime="1.00" waitingCount="1" stopTime="0.00" timeLoss="11.91" rerouteNo="1" devices="tripinfo_h15454c2:3 routing_h15454c2:3 emissions_h15454c2:3" vType="default_016" speedFactor="0.90" vaporized="">
        <emissions CO_abs="2299.228899" CO2_abs="107863.878144" HC_abs="12.979945" PMx_abs="1.909475" NOx_abs="44.608791" fuel_abs="46.366559" electricity_abs="0"/>
    </tripinfo>
    <tripinfo id="carIn53971:1" depart="57640.00" departLane="272042143_1" departPos="5.10" departSpeed="0.00" departDelay="0.80" arrival="57695.00" arrivalLane="24634414#1_1" arrivalPos="162.19" arrivalSpeed="6.98" duration="55.00" routeLength="493.04" waitingTime="0.00" waitingCount="0" stopTime="0.00" timeLoss="8.68" rerouteNo="1" devices="tripinfo_carIn53971:1 routing_carIn53971:1 emissions_carIn53971:1" vType="default_016" speedFactor="0.99" vaporized="">
        <emissions CO_abs="2460.317714" CO2_abs="131051.399657" HC_abs="14.259833" PMx_abs="2.286087" NOx_abs="53.777735" fuel_abs="56.333776" electricity_abs="0"/>
    </tripinfo>
    <tripinfo id="S5R_frequency1.2" depart="57616.00" departLane="315358250#0_1" departPos="12.10" departSpeed="0.00" departDelay="4.40" arrival="57709.00" arrivalLane="386687235_1" arrivalPos="80.84" arrivalSpeed="13.39" duration="93.00" routeLength="1115.62" waitingTime="0.00" waitingCount="0" stopTime="0.00" timeLoss="11.35" rerouteNo="1" devices="tripinfo_S5R_frequency1.2 routing_S5R_frequency1.2 emissions_S5R_frequency1.2" vType="bus" speedFactor="1.00" vaporized="">
        <emissions CO_abs="1782.767532" CO2_abs="1144768.044478" HC_abs="371.412132" PMx_abs="191.561231" NOx_abs="8810.826062" fuel_abs="488.237181" electricity_abs="0"/>
    </tripinfo>
    <tripinfo id="h12244c1:3" depart="57612.00" departLane="315358244_1" departPos="5.10" departSpeed="0.00" departDelay="0.40" arrival="57713.00" arrivalLane="386687235_1" arrivalPos="80.84" arrivalSpeed="13.35" duration="101.00" routeLength="1186.14" waitingTime="0.00" waitingCount="0" stopTime="0.00" timeLoss="11.01" rerouteNo="1" devices="tripinfo_h12244c1:3 routing_h12244c1:3 emissions_h12244c1:3" vType="default_016" speedFactor="0.96" vaporized="">
        <emissions CO_abs="2850.860177" CO2_abs="249896.004041" HC_abs="18.767139" PMx_abs="3.706516" NOx_abs="96.486076" fuel_abs="107.419951" electricity_abs="0"/>
    </tripinfo>
    <tripinfo id="carIn22761:1" depart="57616.00" departLane="-306240162#1_0" departPos="5.10" departSpeed="0.00" departDelay="2.10" arrival="57713.00" arrivalLane="399835085#1_1" arrivalPos="212.23" arrivalSpeed="5.67" duration="97.00" routeLength="1093.26" waitingTime="5.00" waitingCount="1" stopTime="0.00" timeLoss="24.28" rerouteNo="1" devices="tripinfo_carIn22761:1 routing_carIn22761:1 emissions_carIn22761:1" vType="default_016" speedFactor="1.07" vaporized="">
        <emissions CO_abs="5166.966769" CO2_abs="311589.162163" HC_abs="30.982892" PMx_abs="6.033479" NOx_abs="128.350256" fuel_abs="133.938622" electricity_abs="0"/>
    </tripinfo>
    <tripinfo id="h3688c1:1" depart="57625.00" departLane="201201950#1_1" departPos="5.10" departSpeed="0.00" departDelay="0.00" arrival="57720.00" arrivalLane="32978638#0_1" arrivalPos="49.29" arrivalSpeed="14.09" duration="95.00" routeLength="1089.75" waitingTime="6.00" waitingCount="1" stopTime="0.00" timeLoss="20.72" rerouteNo="1" devices="tripinfo_h3688c1:1 routing_h3688c1:1 emissions_h3688c1:1" vType="default_016" speedFactor="1.08" vaporized="">
        <emissions CO_abs="3582.160993" CO2_abs="265542.509030" HC_abs="22.470548" PMx_abs="4.604682" NOx_abs="106.797948" fuel_abs="114.145176" electricity_abs="0"/>
    </tripinfo>
    <tripinfo id="h7800c1:5" depart="57696.00" departLane="-447569998#1_1" departPos="5.10" departSpeed="0.00" departDelay="0.00" arrival="57725.00" arrivalLane="-447569998#1_2" arrivalPos="180.76" arrivalSpeed="4.20" duration="29.00" routeLength="175.66" waitingTime="0.00" waitingCount="0" stopTime="0.00" timeLoss="6.19" rerouteNo="1" devices="tripinfo_h7800c1:5 routing_h7800c1:5 emissions_h7800c1:5" vType="default_016" speedFactor="0.94" vaporized="">
        <emissions CO_abs="1567.266649" CO2_abs="59253.495633" HC_abs="8.493834" PMx_abs="0.997794" NOx_abs="24.346460" fuel_abs="25.471134" electricity_abs="0"/>
    </tripinfo>
    <tripinfo id="h9563c2:5" depart="57631.00" departLane="315358244_1" departPos="5.10" departSpeed="0.00" departDelay="0.70" arrival="57734.00" arrivalLane="386687235_1" arrivalPos="80.84" arrivalSpeed="12.16" duration="103.00" routeLength="1186.14" waitingTime="1.00" waitingCount="1" stopTime="0.00" timeLoss="12.24" rerouteNo="1" devices="tripinfo_h9563c2:5 routing_h9563c2:5 emissions_h9563c2:5" vType="default_016" speedFactor="0.96" vaporized="">
        <emissions CO_abs="2887.817610" CO2_abs="247993.663719" HC_abs="18.883490" PMx_abs="3.682733" NOx_abs="95.664223" fuel_abs="106.602268" electricity_abs="0"/>
    </tripinfo>
    <tripinfo id="carIn80064:1" depart="57603.00" departLane="128361109#1_1" departPos="5.10" departSpeed="0.00" departDelay="0.40" arrival="57740.00" arrivalLane="-315358254#1_1" arrivalPos="137.16" arrivalSpeed="11.68" duration="137.00" routeLength="1587.97" waitingTime="11.00" waitingCount="1" stopTime="0.00" timeLoss="37.09" rerouteNo="1" devices="tripinfo_carIn80064:1 routing_carIn80064:1 emissions_carIn80064:1" vType="default_016" speedFactor="0.89" vaporized="">
        <emissions CO_abs="7187.653071" CO2_abs="444509.607785" HC_abs="43.254397" PMx_abs="8.478772" NOx_abs="183.641917" fuel_abs="191.075221" electricity_abs="0"/>
    </tripinfo>
    <tripinfo id="carIn30817:1" depart="57681.00" departLane="315358244_1" departPos="5.10" departSpeed="0.00" departDelay="0.20" arrival="57745.00" arrivalLane="447569997#1_1" arrivalPos="180.93" arrivalSpeed="8.16" duration="64.00" routeLength="718.04" waitingTime="0.00" waitingCount="0" stopTime="0.00" timeLoss="6.51" rerouteNo="1" devices="tripinfo_carIn30817:1 routing_carIn30817:1 emissions_carIn30817:1" vType="default_016" speedFactor="1.07" vaporized="">
        <emissions CO_abs="1930.239955" CO2_abs="144297.746519" HC_abs="12.097796" PMx_abs="2.285969" NOx_abs="56.696234" fuel_abs="62.027637" electricity_abs="0"/>
    </tripinfo>
    <tripinfo id="h3568c1:3" depart="57656.00" departLane="266565295#5_1" departPos="5.10" departSpeed="0.00" departDelay="0.80" arrival="57746.00" arrivalLane="-24634415_1" arrivalPos="62.03" arrivalSpeed="13.26" duration="90.00" routeLength="807.40" waitingTime="7.00" waitingCount="1" stopTime="0.00" timeLoss="24.14" rerouteNo="1" devices="tripinfo_h3568c1:3 routing_h3568c1:3 emissions_h3568c1:3" vType="default_016" speedFactor="0.99" vaporized="">
        <emissions CO_abs="3993.321255" CO2_abs="236417.547787" HC_abs="23.745476" PMx_abs="4.266815" NOx_abs="97.520832" fuel_abs="101.625930" electricity_abs="0"/>
    </tripinfo>
    <tripinfo id="h317c2:1" depart="57707.00" departLane="-32978638#0_1" departPos="5.10" departSpeed="0.00" departDelay="0.10" arrival="57755.00" arrivalLane="-266565295#5_1" arrivalPos="172.76" arrivalSpeed="13.75" duration="48.00" routeLength="370.53" waitingTime="11.00" waitingCount="1" stopTime="0.00" timeLoss="21.71" rerouteNo="1" devices="tripinfo_h317c2:1 routing_h317c2:1 emissions_h317c2:1" vType="default_016" speedFactor="1.05" vaporized="">
        <emissions CO_abs="3158.214018" CO2_abs="139081.726101" HC_abs="17.667813" PMx_abs="2.707454" NOx_abs="58.541659" fuel_abs="59.785768" electricity_abs="0"/>
    </tripinfo>
    <tripinfo id="h7181c1:1" depart="57660.00" departLane="315358254#0_1" departPos="5.10" departSpeed="0.00" departDelay="0.10" arrival="57761.00" arrivalLane="306240162#0_0" arrivalPos="220.43" arrivalSpeed="15.74" duration="101.00" routeLength="932.35" waitingTime="23.00" waitingCount="3" stopTime="0.00" timeLoss="49.72" rerouteNo="1" devices="tripinfo_h7181c1:1 routing_h7181c1:1 emissions_h7181c1:1" vType="default_016" speedFactor="1.01" vaporized="">
        <emissions CO_abs="6116.698202" CO2_abs="344851.791970" HC_abs="36.031645" PMx_abs="6.917707" NOx_abs="144.679081" fuel_abs="148.236624" electricity_abs="0"/>
    </tripinfo>
    <tripinfo id="h3326c1:2" depart="57656.00" departLane="22716069#0_1" departPos="5.10" departSpeed="0.00" departDelay="0.00" arrival="57763.00" arrivalLane="24634517#13_1" arrivalPos="111.62" arrivalSpeed="13.44" duration="107.00" routeLength="1312.81" waitingTime="0.00" waitingCount="0" stopTime="0.00" timeLoss="14.02" rerouteNo="1" devices="tripinfo_h3326c1:2 routing_h3326c1:2 emissions_h3326c1:2" vType="default_016" speedFactor="1.05" vaporized="">
        <emissions CO_abs="3990.903582" CO2_abs="301889.647910" HC_abs="25.293740" PMx_abs="5.384560" NOx_abs="122.851496" fuel_abs="129.768901" electricity_abs="0"/>
    </tripinfo>
    <tripinfo id="h645c1:1" depart="57622.00" departLane="266565295#5_1" departPos="5.10" departSpeed="0.00" departDelay="0.40" arrival="57775.00" arrivalLane="-315358244_1" arrivalPos="33.95" arrivalSpeed="13.58" duration="153.00" routeLength="1910.83" waitingTime="2.00" waitingCount="1" stopTime="0.00" timeLoss="17.74" rerouteNo="1" devices="tripinfo_h645c1:1 routing_h645c1:1 emissions_h645c1:1" vType="default_016" speedFactor="1.03" vaporized="">
        <emissions CO_abs="3929.329519" CO2_abs="353361.124528" HC_abs="26.052610" PMx_abs="5.555588" NOx_abs="137.575297" fuel_abs="151.894832" electricity_abs="0"/>
    </tripinfo>
    <tripinfo id="carIn12365:1" depart="57713.00" departLane="315358244_1" departPos="5.10" departSpeed="0.00" departDelay="0.50" arrival="57780.00" arrivalLane="447569997#1_1" arrivalPos="180.93" arrivalSpeed="7.36" duration="67.00" routeLength="718.04" waitingTime="0.00" waitingCount="0" stopTime="0.00" timeLoss="7.60" rerouteNo="1" devices="tripinfo_carIn12365:1 routing_carIn12365:1 emissions_carIn12365:1" vType="default_016" speedFactor="1.04" vaporized="">
        <emissions CO_abs="2023.646020" CO2_abs="148347.500439" HC_abs="12.598612" PMx_abs="2.248363" NOx_abs="57.701035" fuel_abs="63.768641" electricity_abs="0"/>
    </tripinfo>
    <tripinfo id="carIn86816:1" depart="57617.00" departLane="128361102#0_1" departPos="5.10" departSpeed="0.00" departDelay="0.80" arrival="57781.00" arrivalLane="201956811#0_1" arrivalPos="40.40" arrivalSpeed="13.25" duration="164.00" routeLength="2067.33" waitingTime="0.00" waitingCount="0" stopTime="0.00" timeLoss="17.71" rerouteNo="1" devices="tripinfo_carIn86816:1 routing_carIn86816:1 emissions_carIn86816:1" vType="default_016" speedFactor="1.03" vaporized="">
        <emissions CO_abs="4887.973349" CO2_abs="431613.974034" HC_abs="32.279040" PMx_abs="6.990929" NOx_abs="169.953170" fuel_abs="185.532091" electricity_abs="0"/>
    </tripinfo>
    <tripinfo id="h3154c1:1" depart="57658.00" departLane="24634507_1" departPos="5.10" departSpeed="0.00" departDelay="0.00" arrival="57781.00" arrivalLane="-266565295#5_1" arrivalPos="172.76" arrivalSpeed="13.53" duration="123.00" routeLength="1206.22" waitingTime="11.00" waitingCount="2" stopTime="0.00" timeLoss="33.58" rerouteNo="1" devices="tripinfo_h3154c1:1 routing_h3154c1:1 emissions_h3154c1:1" vType="default_016" speedFactor="1.00" vaporized="">
        <emissions CO_abs="5018.398704" CO2_abs="322862.013740" HC_abs="30.433698" PMx_abs="5.664533" NOx_abs="131.262225" fuel_abs="138.784724" electricity_abs="0"/>
    </tripinfo>
    <tripinfo id="carIn118591:1" depart="57689.00" departLane="315358244_1" departPos="5.10" departSpeed="0.00" departDelay="0.20" arrival="57784.00" arrivalLane="386687235_1" arrivalPos="80.84" arrivalSpeed="15.20" duration="95.00" routeLength="1186.14" waitingTime="2.00" waitingCount="1" stopTime="0.00" timeLoss="16.88" rerouteNo="1" devices="tripinfo_carIn118591:1 routing_carIn118591:1 emissions_carIn118591:1" vType="default_016" speedFactor="1.10" vaporized="">
        <emissions CO_abs="3539.088302" CO2_abs="274042.024733" HC_abs="22.499289" PMx_abs="4.741981" NOx_abs="109.860378" fuel_abs="117.798663" electricity_abs="0"/>
    </tripinfo>
    <tripinfo id="h330c1:1" depart="57736.00" departLane="-32978638#0_1" departPos="5.10" departSpeed="0.00" departDelay="0.20" arrival="57789.00" arrivalLane="-266565295#5_1" arrivalPos="172.76" arrivalSpeed="11.27" duration="53.00" routeLength="370.53" waitingTime="10.00" waitingCount="1" stopTime="0.00" timeLoss="19.73" rerouteNo="1" devices="tripinfo_h330c1:1 routing_h330c1:1 emissions_h330c1:1" vType="default_016" speedFactor="0.82" vaporized="">
        <emissions CO_abs="2694.832267" CO2_abs="124109.218735" HC_abs="15.158737" PMx_abs="2.182134" NOx_abs="50.985370" fuel_abs="53.349901" electricity_abs="0"/>
    </tripinfo>
    <tripinfo id="carIn27009:1" depart="57673.00" departLane="-447569998#1_1" departPos="5.10" departSpeed="0.00" departDelay="0.50" arrival="57796.00" arrivalLane="-26677539_1" arrivalPos="152.75" arrivalSpeed="7.58" duration="123.00" routeLength="699.63" waitingTime="21.00" waitingCount="1" stopTime="0.00" timeLoss="36.35" rerouteNo="1" devices="tripinfo_carIn27009:1 routing_carIn27009:1 emissions_carIn27009:1" vType="default_015" speedFactor="0.97" vaporized="">
        <emissions CO_abs="6639.041716" CO2_abs="225785.341922" HC_abs="35.446781" PMx_abs="4.109604" NOx_abs="94.425181" fuel_abs="97.057847" electricity_abs="0"/>
    </tripinfo>
    <tripinfo id="carIn107084:1" depart="57601.00" departLane="124812856#0_1" departPos="5.10" departSpeed="0.00" departDelay="0.70" arrival="57798.00" arrivalLane="-128361102#1_1" arrivalPos="274.68" arrivalSpeed="12.91" duration="197.00" routeLength="2250.49" waitingTime="0.00" waitingCount="0" stopTime="0.00" timeLoss="23.35" rerouteNo="1" devices="tripinfo_carIn107084:1 routing_carIn107084:1 emissions_carIn107084:1" vType="default_016" speedFactor="0.95" vaporized="">
        <emissions CO_abs="5986.354935" CO2_abs="481647.300122" HC_abs="38.462648" PMx_abs="7.537603" NOx_abs="189.184962" fuel_abs="207.039993" electricity_abs="0"/>
    </tripinfo>
    <tripinfo id="carIn77943:1" depart="57608.00" departLane="124812856#0_1" departPos="5.10" departSpeed="0.00" departDelay="2.50" arrival="57801.00" arrivalLane="-128361102#1_1" arrivalPos="274.68" arrivalSpeed="13.46" duration="193.00" routeLength="2250.49" waitingTime="0.00" waitingCount="0" stopTime="0.00" timeLoss="24.91" rerouteNo="1" devices="tripinfo_carIn77943:1 routing_carIn77943:1 emissions_carIn77943:1" vType="default_016" speedFactor="0.98" vaporized="">
        <emissions CO_abs="5688.299359" CO2_abs="470243.868219" HC_abs="36.847829" PMx_abs="7.364248" NOx_abs="184.669646" fuel_abs="202.138001" electricity_abs="0"/>
    </tripinfo>
    <tripinfo id="carIn81046:1" depart="57611.00" departLane="124812856#0_1" departPos="5.10" departSpeed="0.00" departDelay="2.50" arrival="57803.00" arrivalLane="-128361102#1_1" arrivalPos="274.68" arrivalSpeed="13.57" duration="192.00" routeLength="2250.49" waitingTime="0.00" waitingCount="0" stopTime="0.00" timeLoss="36.30" rerouteNo="1" devices="tripinfo_carIn81046:1 routing_carIn81046:1 emissions_carIn81046:1" vType="default_016" speedFactor="1.06" vaporized="">
        <emissions CO_abs="6621.589109" CO2_abs="519973.873146" HC_abs="42.319493" PMx_abs="8.717652" NOx_abs="208.205200" fuel_abs="223.514202" electricity_abs="0"/>
    </tripinfo>
    <tripinfo id="carIn48184:1" depart="57613.00" departLane="-306240162#1_0" departPos="5.10" departSpeed="0.00" departDelay="0.70" arrival="57804.00" arrivalLane="386687235_1" arrivalPos="80.84" arrivalSpeed="13.75" duration="191.00" routeLength="2257.41" waitingTime="15.00" waitingCount="2" stopTime="0.00" timeLoss="43.97" rerouteNo="1" devices="tripinfo_carIn48184:1 routing_carIn48184:1 emissions_carIn48184:1" vType="default_016" speedFactor="1.01" vaporized="">
        <emissions CO_abs="8216.167658" CO2_abs="546858.579563" HC_abs="50.265892" PMx_abs="9.957208" NOx_abs="222.217545" fuel_abs="235.070813" electricity_abs="0"/>
    </tripinfo>
    <tripinfo id="h16072c2:3" depart="57663.00" departLane="315358254#0_1" departPos="5.10" departSpeed="0.00" departDelay="2.50" arrival="57804.00" arrivalLane="386687235_2" arrivalPos="80.84" arrivalSpeed="13.55" duration="141.00" routeLength="1611.92" waitingTime="5.00" waitingCount="1" stopTime="0.00" timeLoss="23.64" rerouteNo="1" devices="tripinfo_h16072c2:3 routing_h16072c2:3 emissions_h16072c2:3" vType="default_016" speedFactor="1.00" vaporized="">
        <emissions CO_abs="4759.322098" CO2_abs="362972.040293" HC_abs="30.155928" PMx_abs="6.103688" NOx_abs="145.086403" fuel_abs="156.026053" electricity_abs="0"/>
    </tripinfo>
    <tripinfo id="h11737c1:1" depart="57665.00" departLane="272042143_1" departPos="5.10" departSpeed="0.00" departDelay="1.50" arrival="57806.00" arrivalLane="-315358254#1_1" arrivalPos="137.16" arrivalSpeed="13.77" duration="141.00" routeLength="1596.88" waitingTime="11.00" waitingCount="1" stopTime="0.00" timeLoss="26.21" rerouteNo="1" devices="tripinfo_h11737c1:1 routing_h11737c1:1 emissions_h11737c1:1" vType="default_016" speedFactor="1.01" vaporized="">
        <emissions CO_abs="5040.034568" CO2_abs="341133.374916" HC_abs="30.915977" PMx_abs="5.681220" NOx_abs="135.722507" fuel_abs="146.639152" electricity_abs="0"/>
    </tripinfo>
    <tripinfo id="carIn126288:1" depart="57674.00" departLane="272042143_1" departPos="5.10" departSpeed="0.00" departDelay="0.00" arrival="57808.00" arrivalLane="-315358254#1_1" arrivalPos="137.16" arrivalSpeed="13.81" duration="134.00" routeLength="1596.88" waitingTime="9.00" waitingCount="1" stopTime="0.00" timeLoss="25.34" rerouteNo="1" devices="tripinfo_carIn126288:1 routing_carIn126288:1 emissions_carIn126288:1" vType="default_016" speedFactor="1.07" vaporized="">
        <emissions CO_abs="4560.268105" CO2_abs="339163.774387" HC_abs="28.666973" PMx_abs="5.766217" NOx_abs="135.247562" fuel_abs="145.791972" electricity_abs="0"/>
    </tripinfo>
    <tripinfo id="carIn12152:1" depart="57647.00" departLane="24599188#0.94_1" departPos="5.10" departSpeed="0.00" departDelay="0.50" arrival="57810.00" arrivalLane="-315358254#1_1" arrivalPos="137.16" arrivalSpeed="15.33" duration="163.00" routeLength="2034.31" waitingTime="6.00" waitingCount="1" stopTime="0.00" timeLoss="25.32" rerouteNo="1" devices="tripinfo_carIn12152:1 routing_carIn12152:1 emissions_carIn12152:1" vType="default_016" speedFactor="1.15" vaporized="">
        <emissions CO_abs="5049.264290" CO2_abs="423447.376601" HC_abs="32.556172" PMx_abs="6.895881" NOx_abs="165.908558" fuel_abs="182.021844" electricity_abs="0"/>
    </tripinfo>
    <tripinfo id="carIn129809:1" depart="57729.00" departLane="-447569998#1_1" departPos="5.10" departSpeed="0.00" departDelay="1.00" arrival="57811.00" arrivalLane="-315358244_1" arrivalPos="33.95" arrivalSpeed="11.90" duration="82.00" routeLength="706.49" waitingTime="7.00" waitingCount="1" stopTime="0.00" timeLoss="16.44" rerouteNo="1" devices="tripinfo_carIn129809:1 routing_carIn129809:1 emissions_carIn129809:1" vType="default_015" speedFactor="0.93" vaporized="">
        <emissions CO_abs="2757.119439" CO2_abs="154856.769747" HC_abs="16.145634" PMx_abs="2.541179" NOx_abs="62.156362" fuel_abs="66.566910" electricity_abs="0"/>
    </tripinfo>
    <tripinfo id="carIn50326:1" depart="57651.00" departLane="128361102#0_1" departPos="5.10" departSpeed="0.00" departDelay="0.30" arrival="57815.00" arrivalLane="18809673#0_1" arrivalPos="473.56" arrivalSpeed="12.36" duration="164.00" routeLength="1591.07" waitingTime="6.00" waitingCount="1" stopTime="0.00" timeLoss="27.08" rerouteNo="1" devices="tripinfo_carIn50326:1 routing_carIn50326:1 emissions_carIn50326:1" vType="default_016" speedFactor="0.95" vaporized="">
        <emissions CO_abs="5366.552409" CO2_abs="346842.880786" HC_abs="32.489440" PMx_abs="5.585582" NOx_abs="138.175457" fuel_abs="149.093788" electricity_abs="0"/>
    </tripinfo>
    <tripinfo id="carIn82278:1" depart="57702.00" departLane="-306240162#1_0" departPos="5.10" departSpeed="0.00" departDelay="0.70" arrival="57816.00" arrivalLane="399835085#1_1" arrivalPos="212.23" arrivalSpeed="6.88" duration="114.00" routeLength="1093.26" waitingTime="11.00" waitingCount="1" stopTime="0.00" timeLoss="32.49" rerouteNo="1" devices="tripinfo_carIn82278:1 routing_carIn82278:1 emissions_carIn82278:1" vType="default_016" speedFactor="0.96" vaporized="">
        <emissions CO_abs="5974.645978" CO2_abs="323777.772313" HC_abs="34.828745" PMx_abs="6.123603" NOx_abs="134.223210" fuel_abs="139.178520" electricity_abs="0"/>
    </tripinfo>
    <tripinfo id="carIn77438:1" depart="57614.00" departLane="124812856#0_1" departPos="5.10" departSpeed="0.00" departDelay="1.10" arrival="57817.00" arrivalLane="-128361102#1_1" arrivalPos="274.68" arrivalSpeed="12.31" duration="203.00" routeLength="2250.49" waitingTime="0.00" waitingCount="0" stopTime="0.00" timeLoss="18.63" rerouteNo="1" devices="tripinfo_carIn77438:1 routing_carIn77438:1 emissions_carIn77438:1" vType="default_016" speedFactor="0.89" vaporized="">
        <emissions CO_abs="5522.893512" CO2_abs="444219.802576" HC_abs="35.427247" PMx_abs="6.693978" NOx_abs="173.173778" fuel_abs="190.951839" electricity_abs="0"/>
    </tripinfo>
    <tripinfo id="h19804c1:3" depart="57617.00" departLane="124812856#0_1" departPos="5.10" departSpeed="0.00" departDelay="1.50" arrival="57819.00" arrivalLane="-128361102#1_1" arrivalPos="274.68" arrivalSpeed="14.01" duration="202.00" routeLength="2250.49" waitingTime="0.00" waitingCount="0" stopTime="0.00" timeLoss="43.78" rerouteNo="1" devices="tripinfo_h19804c1:3 routing_h19804c1:3 emissions_h19804c1:3" vType="default_016" speedFactor="1.04" vaporized="">
        <emissions CO_abs="6747.924776" CO2_abs="495280.957148" HC_abs="42.338398" PMx_abs="8.399593" NOx_abs="199.862669" fuel_abs="212.899929" electricity_abs="0"/>
    </tripinfo>
    <tripinfo id="h5979c1:5" depart="57669.00" departLane="399835085#1_1" departPos="5.10" departSpeed="0.00" departDelay="0.00" arrival="57819.00" arrivalLane="-315358254#1_1" arrivalPos="137.16" arrivalSpeed="9.79" duration="150.00" routeLength="659.33" waitingTime="29.00" waitingCount="2" stopTime="0.00" timeLoss="47.20" rerouteNo="1" devices="tripinfo_h5979c1:5 routing_h5979c1:5 emissions_h5979c1:5" vType="default_016" speedFactor="0.71" vaporized="">
        <emissions CO_abs="8804.535309" CO2_abs="250333.816290" HC_abs="45.853939" PMx_abs="4.695495" NOx_abs="105.800667" fuel_abs="107.611447" electricity_abs="0"/>
    </tripinfo>
    <tripinfo id="carIn107842:1" depart="57623.00" departLane="124812856#0_1" departPos="5.10" departSpeed="0.00" departDelay="1.90" arrival="57820.00" arrivalLane="-128361102#1_1" arrivalPos="274.68" arrivalSpeed="14.12" duration="197.00" routeLength="2250.49" waitingTime="0.00" waitingCount="0" stopTime="0.00" timeLoss="43.53" rerouteNo="1" devices="tripinfo_carIn107842:1 routing_carIn107842:1 emissions_carIn107842:1" vType="default_016" speedFactor="1.07" vaporized="">
        <emissions CO_abs="7354.373097" CO2_abs="529962.689174" HC_abs="45.983764" PMx_abs="9.364378" NOx_abs="216.143397" fuel_abs="227.807665" electricity_abs="0"/>
    </tripinfo>
    <tripinfo id="h15382c1:3" depart="57626.00" departLane="124812856#0_1" departPos="5.10" departSpeed="0.00" departDelay="3.80" arrival="57822.00" arrivalLane="-128361102#1_1" arrivalPos="274.68" arrivalSpeed="14.26" duration="196.00" routeLength="2250.49" waitingTime="0.00" waitingCount="0" stopTime="0.00" timeLoss="39.97" rerouteNo="1" devices="tripinfo_h15382c1:3 routing_h15382c1:3 emissions_h15382c1:3" vType="default_016" speedFactor="1.05" vaporized="">
        <emissions CO_abs="8031.493294" CO2_abs="585304.690382" HC_abs="50.367038" PMx_abs="10.299646" NOx_abs="238.215927" fuel_abs="251.596768" electricity_abs="0"/>
    </tripinfo>
    <tripinfo id="h17600c1:1" depart="57662.00" departLane="272042143_1" departPos="5.10" departSpeed="0.00" departDelay="0.30" arrival="57823.00" arrivalLane="201238729#3_1" arrivalPos="431.02" arrivalSpeed="13.78" duration="161.00" routeLength="2100.26" waitingTime="0.00" waitingCount="0" stopTime="0.00" timeLoss="13.42" rerouteNo="1" devices="tripinfo_h17600c1:1 routing_h17600c1:1 emissions_h17600c1:1" vType="default_016" speedFactor="1.02" vaporized="">
        <emissions CO_abs="3488.946243" CO2_abs="353005.498399" HC_abs="24.093418" PMx_abs="5.322839" NOx_abs="135.706975" fuel_abs="151.741980" electricity_abs="0"/>
    </tripinfo>
    <tripinfo id="carIn81860:1" depart="57712.00" departLane="128361102#0_1" departPos="5.10" departSpeed="0.00" departDelay="0.60" arrival="57826.00" arrivalLane="-24634517#17_1" arrivalPos="6.43" arrivalSpeed="7.39" duration="114.00" routeLength="1229.64" waitingTime="5.00" waitingCount="1" stopTime="0.00" timeLoss="21.79" rerouteNo="1" devices="tripinfo_carIn81860:1 routing_carIn81860:1 emissions_carIn81860:1" vType="default_016" speedFactor="0.98" vaporized="">
        <emissions CO_abs="3230.561447" CO2_abs="238550.902656" HC_abs="20.270917" PMx_abs="3.867039" NOx_abs="94.538538" fuel_abs="102.543062" electricity_abs="0"/>
    </tripinfo>
    <tripinfo id="carIn102915:1" depart="57643.00" departLane="128361102#0_1" departPos="5.10" departSpeed="0.00" departDelay="0.40" arrival="57827.00" arrivalLane="201956811#0_1" arrivalPos="40.40" arrivalSpeed="11.99" duration="184.00" routeLength="2067.33" waitingTime="0.00" waitingCount="0" stopTime="0.00" timeLoss="16.94" rerouteNo="1" devices="tripinfo_carIn102915:1 routing_carIn102915:1 emissions_carIn102915:1" vType="default_016" speedFactor="0.91" vaporized="">
        <emissions CO_abs="4825.433452" CO2_abs="398309.703046" HC_abs="31.213345" PMx_abs="6.100387" NOx_abs="155.814173" fuel_abs="171.216725" electricity_abs="0"/>
    </tripinfo>
    <tripinfo id="carIn107282:1" depart="57749.00" departLane="-447569998#1_1" departPos="5.10" departSpeed="0.00" departDelay="0.00" arrival="57827.00" arrivalLane="315358242#0_1" arrivalPos="165.37" arrivalSpeed="12.61" duration="78.00" routeLength="448.50" waitingTime="24.00" waitingCount="1" stopTime="0.00" timeLoss="32.94" rerouteNo="1" devices="tripinfo_carIn107282:1 routing_carIn107282:1 emissions_carIn107282:1" vType="default_016" speedFactor="0.93" vaporized="">
        <emissions CO_abs="5045.274672" CO2_abs="162454.529464" HC_abs="26.750663" PMx_abs="3.078511" NOx_abs="68.138856" fuel_abs="69.834075" electricity_abs="0"/>
    </tripinfo>
    <tripinfo id="carIn3969:1" depart="57629.00" departLane="124812856#0_1" departPos="5.10" departSpeed="0.00" departDelay="5.30" arrival="57830.00" arrivalLane="-128361102#1_1" arrivalPos="274.68" arrivalSpeed="12.53" duration="201.00" routeLength="2250.49" waitingTime="0.00" waitingCount="0" stopTime="0.00" timeLoss="19.05" rerouteNo="1" devices="tripinfo_carIn3969:1 routing_carIn3969:1 emissions_carIn3969:1" vType="default_016" speedFactor="0.90" vaporized="">
        <emissions CO_abs="5258.985282" CO2_abs="430244.114680" HC_abs="33.911488" PMx_abs="6.514135" NOx_abs="167.882088" fuel_abs="184.944145" electricity_abs="0"/>
    </tripinfo>
    <tripinfo id="carIn56649:1" depart="57632.00" departLane="124812856#0_1" departPos="5.10" departSpeed="0.00" departDelay="8.10" arrival="57832.00" arrivalLane="-128361102#1_1" arrivalPos="274.68" arrivalSpeed="12.90" duration="200.00" routeLength="2250.49" waitingTime="0.00" waitingCount="0" stopTime="0.00" timeLoss="24.04" rerouteNo="1" devices="tripinfo_carIn56649:1 routing_carIn56649:1 emissions_carIn56649:1" vType="default_016" speedFactor="0.94" vaporized="">
        <emissions CO_abs="6135.627647" CO2_abs="480108.688545" HC_abs="39.120569" PMx_abs="7.642789" NOx_abs="189.854799" fuel_abs="206.378509" electricity_abs="0"/>
    </tripinfo>