<?xml version="1.0" encoding="UTF-8"?>

<!-- generated on 2021-10-26 13:19:48 by Eclipse SUMO sumo Version 1.10.0
<configuration xmlns:xsi="http://www.w3.org/2001/XMLSchema-instance" xsi:noNamespaceSchemaLocation="http://sumo.dlr.de/xsd/sumoConfiguration.xsd">

    <input>
        <net-file value="/Users/behradkoohy/sumo-scratchpad/RESCO/environments/ingolstadt21/ingolstadt21.net.xml"/>
        <route-files value="/Users/behradkoohy/sumo-scratchpad/RESCO/environments/ingolstadt21/ingolstadt21.rou.xml"/>
    </input>

    <output>
        <tripinfo-output value="/Users/behradkoohy/sumo-scratchpad/RESCO/logs/MAXPRESSURE-tr0-ingolstadt21-21-mplight-wait/tripinfo_52.xml"/>
        <tripinfo-output.write-unfinished value="true"/>
    </output>

    <time>
        <begin value="57600"/>
        <end value="61200"/>
    </time>

    <processing>
        <time-to-teleport value="-1"/>
    </processing>

    <report>
        <no-warnings value="true"/>
        <no-step-log value="true"/>
    </report>

    <emissions>
        <device.emissions.probability value="1"/>
    </emissions>

    <traci_server>
        <remote-port value="58813"/>
    </traci_server>

    <random_number>
        <random value="true"/>
    </random_number>

</configuration>
-->

<tripinfos xmlns:xsi="http://www.w3.org/2001/XMLSchema-instance" xsi:noNamespaceSchemaLocation="http://sumo.dlr.de/xsd/tripinfo_file.xsd">
    <tripinfo id="carIn60260:1" depart="57606.00" departLane="315358254#0_1" departPos="5.10" departSpeed="0.00" departDelay="0.90" arrival="57652.00" arrivalLane="399835085#1_1" arrivalPos="212.23" arrivalSpeed="8.79" duration="46.00" routeLength="430.98" waitingTime="0.00" waitingCount="0" stopTime="0.00" timeLoss="6.31" rerouteNo="1" devices="tripinfo_carIn60260:1 routing_carIn60260:1 emissions_carIn60260:1" vType="default_016" speedFactor="1.17" vaporized="">
        <emissions CO_abs="1996.380208" CO2_abs="117157.744568" HC_abs="11.811677" PMx_abs="1.943844" NOx_abs="47.331065" fuel_abs="50.361437" electricity_abs="0"/>
    </tripinfo>
    <tripinfo id="h15454c2:3" depart="57612.00" departLane="24608844_1" departPos="5.10" departSpeed="0.00" departDelay="0.50" arrival="57664.00" arrivalLane="32978638#0_1" arrivalPos="49.29" arrivalSpeed="10.16" duration="52.00" routeLength="354.79" waitingTime="1.00" waitingCount="1" stopTime="0.00" timeLoss="9.95" rerouteNo="1" devices="tripinfo_h15454c2:3 routing_h15454c2:3 emissions_h15454c2:3" vType="default_016" speedFactor="0.81" vaporized="">
        <emissions CO_abs="2564.460877" CO2_abs="114058.495142" HC_abs="14.314747" PMx_abs="1.962266" NOx_abs="46.939388" fuel_abs="49.029575" electricity_abs="0"/>
    </tripinfo>
    <tripinfo id="h12244c1:3" depart="57612.00" departLane="315358244_1" departPos="5.10" departSpeed="0.00" departDelay="0.40" arrival="57693.00" arrivalLane="386687235_1" arrivalPos="80.84" arrivalSpeed="16.20" duration="81.00" routeLength="1186.14" waitingTime="0.00" waitingCount="0" stopTime="0.00" timeLoss="8.04" rerouteNo="1" devices="tripinfo_h12244c1:3 routing_h12244c1:3 emissions_h12244c1:3" vType="default_016" speedFactor="1.19" vaporized="">
        <emissions CO_abs="2530.300565" CO2_abs="229683.522746" HC_abs="16.668891" PMx_abs="3.888378" NOx_abs="90.429345" fuel_abs="98.730717" electricity_abs="0"/>
    </tripinfo>
    <tripinfo id="carIn53971:1" depart="57640.00" departLane="272042143_1" departPos="5.10" departSpeed="0.00" departDelay="0.80" arrival="57703.00" arrivalLane="24634414#1_1" arrivalPos="162.19" arrivalSpeed="6.70" duration="63.00" routeLength="493.04" waitingTime="0.00" waitingCount="0" stopTime="0.00" timeLoss="8.95" rerouteNo="1" devices="tripinfo_carIn53971:1 routing_carIn53971:1 emissions_carIn53971:1" vType="default_016" speedFactor="0.85" vaporized="">
        <emissions CO_abs="2848.534473" CO2_abs="138918.533002" HC_abs="16.182513" PMx_abs="2.332601" NOx_abs="56.665067" fuel_abs="59.715862" electricity_abs="0"/>
    </tripinfo>
    <tripinfo id="S5R_frequency1.2" depart="57616.00" departLane="315358250#0_1" departPos="12.10" departSpeed="0.00" departDelay="4.40" arrival="57710.00" arrivalLane="386687235_1" arrivalPos="80.84" arrivalSpeed="13.62" duration="94.00" routeLength="1115.62" waitingTime="0.00" waitingCount="0" stopTime="0.00" timeLoss="12.64" rerouteNo="1" devices="tripinfo_S5R_frequency1.2 routing_S5R_frequency1.2 emissions_S5R_frequency1.2" vType="bus" speedFactor="1.00" vaporized="">
        <emissions CO_abs="1810.912500" CO2_abs="1143107.908556" HC_abs="383.550845" PMx_abs="194.466916" NOx_abs="8843.986284" fuel_abs="487.528025" electricity_abs="0"/>
    </tripinfo>
    <tripinfo id="h9563c2:5" depart="57631.00" departLane="315358244_1" departPos="5.10" departSpeed="0.00" departDelay="0.70" arrival="57719.00" arrivalLane="386687235_1" arrivalPos="80.84" arrivalSpeed="14.04" duration="88.00" routeLength="1186.14" waitingTime="0.00" waitingCount="0" stopTime="0.00" timeLoss="7.40" rerouteNo="1" devices="tripinfo_h9563c2:5 routing_h9563c2:5 emissions_h9563c2:5" vType="default_016" speedFactor="1.08" vaporized="">
        <emissions CO_abs="2381.475061" CO2_abs="219351.893347" HC_abs="15.892991" PMx_abs="3.547861" NOx_abs="85.831342" fuel_abs="94.289809" electricity_abs="0"/>
    </tripinfo>
    <tripinfo id="carIn22761:1" depart="57616.00" departLane="-306240162#1_0" departPos="5.10" departSpeed="0.00" departDelay="2.10" arrival="57723.00" arrivalLane="399835085#1_1" arrivalPos="212.23" arrivalSpeed="7.60" duration="107.00" routeLength="1093.26" waitingTime="10.00" waitingCount="1" stopTime="0.00" timeLoss="31.15" rerouteNo="1" devices="tripinfo_carIn22761:1 routing_carIn22761:1 emissions_carIn22761:1" vType="default_016" speedFactor="1.02" vaporized="">
        <emissions CO_abs="5797.046510" CO2_abs="309895.850535" HC_abs="33.753737" PMx_abs="5.958377" NOx_abs="128.532791" fuel_abs="133.211247" electricity_abs="0"/>
    </tripinfo>
    <tripinfo id="h7800c1:5" depart="57696.00" departLane="-447569998#1_1" departPos="5.10" departSpeed="0.00" departDelay="0.00" arrival="57724.00" arrivalLane="-447569998#1_1" arrivalPos="180.76" arrivalSpeed="6.81" duration="28.00" routeLength="175.66" waitingTime="0.00" waitingCount="0" stopTime="0.00" timeLoss="3.53" rerouteNo="1" devices="tripinfo_h7800c1:5 routing_h7800c1:5 emissions_h7800c1:5" vType="default_016" speedFactor="0.87" vaporized="">
        <emissions CO_abs="1304.713322" CO2_abs="50815.703295" HC_abs="7.099598" PMx_abs="0.822706" NOx_abs="20.683327" fuel_abs="21.844019" electricity_abs="0"/>
    </tripinfo>
    <tripinfo id="h3688c1:1" depart="57625.00" departLane="201201950#1_1" departPos="5.10" departSpeed="0.00" departDelay="0.00" arrival="57730.00" arrivalLane="32978638#0_1" arrivalPos="49.29" arrivalSpeed="13.63" duration="105.00" routeLength="1089.75" waitingTime="11.00" waitingCount="1" stopTime="0.00" timeLoss="26.97" rerouteNo="1" devices="tripinfo_h3688c1:1 routing_h3688c1:1 emissions_h3688c1:1" vType="default_016" speedFactor="1.02" vaporized="">
        <emissions CO_abs="4604.635409" CO2_abs="273220.627341" HC_abs="27.369998" PMx_abs="4.868264" NOx_abs="111.294826" fuel_abs="117.446208" electricity_abs="0"/>
    </tripinfo>
    <tripinfo id="h3568c1:3" depart="57656.00" departLane="266565295#5_1" departPos="5.10" departSpeed="0.00" departDelay="0.80" arrival="57733.00" arrivalLane="-24634415_1" arrivalPos="62.03" arrivalSpeed="13.57" duration="77.00" routeLength="807.40" waitingTime="0.00" waitingCount="0" stopTime="0.00" timeLoss="11.74" rerouteNo="1" devices="tripinfo_h3568c1:3 routing_h3568c1:3 emissions_h3568c1:3" vType="default_016" speedFactor="0.99" vaporized="">
        <emissions CO_abs="3100.229675" CO2_abs="208738.715054" HC_abs="18.998170" PMx_abs="3.529789" NOx_abs="84.121105" fuel_abs="89.728013" electricity_abs="0"/>
    </tripinfo>
    <tripinfo id="h7181c1:1" depart="57660.00" departLane="315358254#0_1" departPos="5.10" departSpeed="0.00" departDelay="0.10" arrival="57744.00" arrivalLane="306240162#0_0" arrivalPos="220.43" arrivalSpeed="12.92" duration="84.00" routeLength="932.35" waitingTime="11.00" waitingCount="1" stopTime="0.00" timeLoss="22.43" rerouteNo="1" devices="tripinfo_h7181c1:1 routing_h7181c1:1 emissions_h7181c1:1" vType="default_016" speedFactor="0.83" vaporized="">
        <emissions CO_abs="3648.540394" CO2_abs="225836.329381" HC_abs="21.900490" PMx_abs="4.047969" NOx_abs="91.336787" fuel_abs="97.077573" electricity_abs="0"/>
    </tripinfo>
    <tripinfo id="carIn30817:1" depart="57681.00" departLane="315358244_1" departPos="5.10" departSpeed="0.00" departDelay="0.20" arrival="57747.00" arrivalLane="447569997#1_1" arrivalPos="180.93" arrivalSpeed="9.38" duration="66.00" routeLength="718.04" waitingTime="3.00" waitingCount="1" stopTime="0.00" timeLoss="12.81" rerouteNo="1" devices="tripinfo_carIn30817:1 routing_carIn30817:1 emissions_carIn30817:1" vType="default_016" speedFactor="1.15" vaporized="">
        <emissions CO_abs="2501.943923" CO2_abs="166405.517492" HC_abs="15.250647" PMx_abs="2.797375" NOx_abs="66.509813" fuel_abs="71.530839" electricity_abs="0"/>
    </tripinfo>
    <tripinfo id="carIn80064:1" depart="57603.00" departLane="128361109#1_1" departPos="5.10" departSpeed="0.00" departDelay="0.40" arrival="57749.00" arrivalLane="-315358254#1_1" arrivalPos="137.16" arrivalSpeed="14.48" duration="146.00" routeLength="1587.97" waitingTime="30.00" waitingCount="1" stopTime="0.00" timeLoss="60.70" rerouteNo="1" devices="tripinfo_carIn80064:1 routing_carIn80064:1 emissions_carIn80064:1" vType="default_016" speedFactor="1.05" vaporized="">
        <emissions CO_abs="11358.509498" CO2_abs="545171.340865" HC_abs="64.764904" PMx_abs="11.237466" NOx_abs="229.899026" fuel_abs="234.346274" electricity_abs="0"/>
    </tripinfo>
    <tripinfo id="h5979c1:5" depart="57669.00" departLane="399835085#1_1" departPos="5.10" departSpeed="0.00" departDelay="0.00" arrival="57756.00" arrivalLane="-315358254#1_1" arrivalPos="137.16" arrivalSpeed="14.29" duration="87.00" routeLength="659.33" waitingTime="6.00" waitingCount="1" stopTime="0.00" timeLoss="18.67" rerouteNo="1" devices="tripinfo_h5979c1:5 routing_h5979c1:5 emissions_h5979c1:5" vType="default_016" speedFactor="1.07" vaporized="">
        <emissions CO_abs="3712.341770" CO2_abs="178076.320512" HC_abs="21.047215" PMx_abs="3.127001" NOx_abs="73.422679" fuel_abs="76.548178" electricity_abs="0"/>
    </tripinfo>
    <tripinfo id="h317c2:1" depart="57707.00" departLane="-32978638#0_1" departPos="5.10" departSpeed="0.00" departDelay="0.10" arrival="57756.00" arrivalLane="-266565295#5_1" arrivalPos="172.76" arrivalSpeed="12.50" duration="49.00" routeLength="370.53" waitingTime="11.00" waitingCount="1" stopTime="0.00" timeLoss="20.23" rerouteNo="1" devices="tripinfo_h317c2:1 routing_h317c2:1 emissions_h317c2:1" vType="default_016" speedFactor="0.96" vaporized="">
        <emissions CO_abs="2662.211737" CO2_abs="120972.685471" HC_abs="14.970801" PMx_abs="2.296464" NOx_abs="50.661491" fuel_abs="52.001408" electricity_abs="0"/>
    </tripinfo>
    <tripinfo id="h3326c1:2" depart="57656.00" departLane="22716069#0_1" departPos="5.10" departSpeed="0.00" departDelay="0.00" arrival="57770.00" arrivalLane="24634517#13_1" arrivalPos="111.62" arrivalSpeed="14.03" duration="114.00" routeLength="1312.81" waitingTime="2.00" waitingCount="1" stopTime="0.00" timeLoss="18.72" rerouteNo="1" devices="tripinfo_h3326c1:2 routing_h3326c1:2 emissions_h3326c1:2" vType="default_016" speedFactor="1.03" vaporized="">
        <emissions CO_abs="4161.113760" CO2_abs="304611.383912" HC_abs="26.009516" PMx_abs="5.196377" NOx_abs="122.386017" fuel_abs="130.939321" electricity_abs="0"/>
    </tripinfo>
    <tripinfo id="h645c1:1" depart="57622.00" departLane="266565295#5_1" departPos="5.10" departSpeed="0.00" departDelay="0.40" arrival="57782.00" arrivalLane="-315358244_1" arrivalPos="33.95" arrivalSpeed="12.03" duration="160.00" routeLength="1910.83" waitingTime="0.00" waitingCount="0" stopTime="0.00" timeLoss="11.71" rerouteNo="1" devices="tripinfo_h645c1:1 routing_h645c1:1 emissions_h645c1:1" vType="default_016" speedFactor="0.94" vaporized="">
        <emissions CO_abs="3438.207833" CO2_abs="342255.069624" HC_abs="23.547170" PMx_abs="4.805610" NOx_abs="129.948534" fuel_abs="147.121353" electricity_abs="0"/>
    </tripinfo>
    <tripinfo id="h3154c1:1" depart="57658.00" departLane="24634507_1" departPos="5.10" departSpeed="0.00" departDelay="0.00" arrival="57783.00" arrivalLane="-266565295#5_1" arrivalPos="172.76" arrivalSpeed="12.74" duration="125.00" routeLength="1206.22" waitingTime="10.00" waitingCount="2" stopTime="0.00" timeLoss="28.82" rerouteNo="1" devices="tripinfo_h3154c1:1 routing_h3154c1:1 emissions_h3154c1:1" vType="default_016" speedFactor="0.93" vaporized="">
        <emissions CO_abs="4707.162071" CO2_abs="305417.641485" HC_abs="28.561330" PMx_abs="5.097088" NOx_abs="122.747793" fuel_abs="131.286465" electricity_abs="0"/>
    </tripinfo>
    <tripinfo id="carIn118591:1" depart="57689.00" departLane="315358244_1" departPos="5.10" departSpeed="0.00" departDelay="0.20" arrival="57784.00" arrivalLane="386687235_1" arrivalPos="80.84" arrivalSpeed="13.19" duration="95.00" routeLength="1186.14" waitingTime="0.00" waitingCount="0" stopTime="0.00" timeLoss="7.71" rerouteNo="1" devices="tripinfo_carIn118591:1 routing_carIn118591:1 emissions_carIn118591:1" vType="default_016" speedFactor="0.99" vaporized="">
        <emissions CO_abs="2453.614740" CO2_abs="218387.990929" HC_abs="16.203318" PMx_abs="3.384348" NOx_abs="85.060726" fuel_abs="93.875716" electricity_abs="0"/>
    </tripinfo>
    <tripinfo id="carIn12365:1" depart="57713.00" departLane="315358244_1" departPos="5.10" departSpeed="0.00" departDelay="0.50" arrival="57784.00" arrivalLane="447569997#1_1" arrivalPos="180.93" arrivalSpeed="7.73" duration="71.00" routeLength="718.04" waitingTime="0.00" waitingCount="0" stopTime="0.00" timeLoss="6.89" rerouteNo="1" devices="tripinfo_carIn12365:1 routing_carIn12365:1 emissions_carIn12365:1" vType="default_016" speedFactor="0.95" vaporized="">
        <emissions CO_abs="2477.691062" CO2_abs="154710.474998" HC_abs="14.855643" PMx_abs="2.419107" NOx_abs="61.298019" fuel_abs="66.503972" electricity_abs="0"/>
    </tripinfo>
    <tripinfo id="carIn107084:1" depart="57601.00" departLane="124812856#0_1" departPos="5.10" departSpeed="0.00" departDelay="0.70" arrival="57785.00" arrivalLane="-128361102#1_1" arrivalPos="274.68" arrivalSpeed="14.22" duration="184.00" routeLength="2250.49" waitingTime="3.00" waitingCount="1" stopTime="0.00" timeLoss="25.17" rerouteNo="1" devices="tripinfo_carIn107084:1 routing_carIn107084:1 emissions_carIn107084:1" vType="default_016" speedFactor="1.04" vaporized="">
        <emissions CO_abs="5517.696717" CO2_abs="465838.880345" HC_abs="35.866883" PMx_abs="7.618443" NOx_abs="183.950796" fuel_abs="200.243966" electricity_abs="0"/>
    </tripinfo>
    <tripinfo id="h330c1:1" depart="57736.00" departLane="-32978638#0_1" departPos="5.10" departSpeed="0.00" departDelay="0.20" arrival="57785.00" arrivalLane="-266565295#5_1" arrivalPos="172.76" arrivalSpeed="13.90" duration="49.00" routeLength="370.53" waitingTime="13.00" waitingCount="1" stopTime="0.00" timeLoss="23.76" rerouteNo="1" devices="tripinfo_h330c1:1 routing_h330c1:1 emissions_h330c1:1" vType="default_016" speedFactor="1.09" vaporized="">
        <emissions CO_abs="3539.459041" CO2_abs="153251.856031" HC_abs="19.658357" PMx_abs="2.964001" NOx_abs="64.229110" fuel_abs="65.877032" electricity_abs="0"/>
    </tripinfo>
    <tripinfo id="carIn27009:1" depart="57673.00" departLane="-447569998#1_1" departPos="5.10" departSpeed="0.00" departDelay="0.50" arrival="57789.00" arrivalLane="-26677539_1" arrivalPos="152.75" arrivalSpeed="7.68" duration="116.00" routeLength="699.63" waitingTime="11.00" waitingCount="1" stopTime="0.00" timeLoss="25.34" rerouteNo="1" devices="tripinfo_carIn27009:1 routing_carIn27009:1 emissions_carIn27009:1" vType="default_015" speedFactor="0.92" vaporized="">
        <emissions CO_abs="5821.999017" CO2_abs="216815.934814" HC_abs="31.474807" PMx_abs="3.641862" NOx_abs="88.875266" fuel_abs="93.202162" electricity_abs="0"/>
    </tripinfo>
    <tripinfo id="carIn86816:1" depart="57617.00" departLane="128361102#0_1" departPos="5.10" departSpeed="0.00" departDelay="0.80" arrival="57796.00" arrivalLane="201956811#0_1" arrivalPos="40.40" arrivalSpeed="13.00" duration="179.00" routeLength="2067.33" waitingTime="0.00" waitingCount="0" stopTime="0.00" timeLoss="18.12" rerouteNo="1" devices="tripinfo_carIn86816:1 routing_carIn86816:1 emissions_carIn86816:1" vType="default_016" speedFactor="0.94" vaporized="">
        <emissions CO_abs="4804.458556" CO2_abs="393517.404687" HC_abs="31.025078" PMx_abs="6.113394" NOx_abs="154.306656" fuel_abs="169.156635" electricity_abs="0"/>
    </tripinfo>
    <tripinfo id="h11737c1:1" depart="57665.00" departLane="272042143_1" departPos="5.10" departSpeed="0.00" departDelay="1.50" arrival="57796.00" arrivalLane="-315358254#1_1" arrivalPos="137.16" arrivalSpeed="16.02" duration="131.00" routeLength="1596.88" waitingTime="13.00" waitingCount="1" stopTime="0.00" timeLoss="33.77" rerouteNo="1" devices="tripinfo_h11737c1:1 routing_h11737c1:1 emissions_h11737c1:1" vType="default_016" speedFactor="1.20" vaporized="">
        <emissions CO_abs="5386.149573" CO2_abs="363909.769730" HC_abs="33.041203" PMx_abs="6.474000" NOx_abs="146.294592" fuel_abs="156.429266" electricity_abs="0"/>
    </tripinfo>
    <tripinfo id="carIn102915:1" depart="57643.00" departLane="128361102#0_1" departPos="5.10" departSpeed="0.00" departDelay="0.40" arrival="57799.00" arrivalLane="201956811#0_1" arrivalPos="40.40" arrivalSpeed="15.40" duration="156.00" routeLength="2067.33" waitingTime="0.00" waitingCount="0" stopTime="0.00" timeLoss="23.72" rerouteNo="1" devices="tripinfo_carIn102915:1 routing_carIn102915:1 emissions_carIn102915:1" vType="default_016" speedFactor="1.14" vaporized="">
        <emissions CO_abs="5478.243276" CO2_abs="459245.720553" HC_abs="35.519038" PMx_abs="7.860374" NOx_abs="182.841223" fuel_abs="197.409413" electricity_abs="0"/>
    </tripinfo>
    <tripinfo id="carIn129809:1" depart="57729.00" departLane="-447569998#1_1" departPos="5.10" departSpeed="0.00" departDelay="1.00" arrival="57805.00" arrivalLane="-315358244_1" arrivalPos="33.95" arrivalSpeed="14.07" duration="76.00" routeLength="706.49" waitingTime="8.00" waitingCount="1" stopTime="0.00" timeLoss="19.35" rerouteNo="1" devices="tripinfo_carIn129809:1 routing_carIn129809:1 emissions_carIn129809:1" vType="default_015" speedFactor="1.08" vaporized="">
        <emissions CO_abs="2648.631810" CO2_abs="167050.973929" HC_abs="15.944445" PMx_abs="2.713161" NOx_abs="66.097138" fuel_abs="71.808568" electricity_abs="0"/>
    </tripinfo>
    <tripinfo id="carIn82278:1" depart="57702.00" departLane="-306240162#1_0" departPos="5.10" departSpeed="0.00" departDelay="0.70" arrival="57807.00" arrivalLane="399835085#1_1" arrivalPos="212.23" arrivalSpeed="8.97" duration="105.00" routeLength="1093.26" waitingTime="13.00" waitingCount="2" stopTime="0.00" timeLoss="41.05" rerouteNo="1" devices="tripinfo_carIn82278:1 routing_carIn82278:1 emissions_carIn82278:1" vType="default_016" speedFactor="1.22" vaporized="">
        <emissions CO_abs="7070.784321" CO2_abs="394775.277618" HC_abs="41.690508" PMx_abs="8.081681" NOx_abs="166.772473" fuel_abs="169.696355" electricity_abs="0"/>
    </tripinfo>
    <tripinfo id="carIn82220:1" depart="57619.00" departLane="-306240162#1_0" departPos="5.10" departSpeed="0.00" departDelay="3.50" arrival="57813.00" arrivalLane="386687235_1" arrivalPos="80.84" arrivalSpeed="12.22" duration="194.00" routeLength="2257.41" waitingTime="6.00" waitingCount="1" stopTime="0.00" timeLoss="40.54" rerouteNo="1" devices="tripinfo_carIn82220:1 routing_carIn82220:1 emissions_carIn82220:1" vType="default_016" speedFactor="0.97" vaporized="">
        <emissions CO_abs="6850.834076" CO2_abs="526143.989703" HC_abs="43.543855" PMx_abs="8.994319" NOx_abs="210.630469" fuel_abs="226.166451" electricity_abs="0"/>
    </tripinfo>
    <tripinfo id="carIn77943:1" depart="57608.00" departLane="124812856#0_1" departPos="5.10" departSpeed="0.00" departDelay="2.50" arrival="57814.00" arrivalLane="-128361102#1_1" arrivalPos="274.68" arrivalSpeed="13.05" duration="206.00" routeLength="2250.49" waitingTime="0.00" waitingCount="0" stopTime="0.00" timeLoss="34.11" rerouteNo="1" devices="tripinfo_carIn77943:1 routing_carIn77943:1 emissions_carIn77943:1" vType="default_016" speedFactor="0.96" vaporized="">
        <emissions CO_abs="6775.754796" CO2_abs="510503.870216" HC_abs="42.750882" PMx_abs="8.249196" NOx_abs="203.220221" fuel_abs="219.444088" electricity_abs="0"/>
    </tripinfo>
    <tripinfo id="carIn462:1" depart="57622.00" departLane="-306240162#1_0" departPos="5.10" departSpeed="0.00" departDelay="4.80" arrival="57815.00" arrivalLane="386687235_2" arrivalPos="80.84" arrivalSpeed="13.02" duration="193.00" routeLength="2257.41" waitingTime="3.00" waitingCount="1" stopTime="0.00" timeLoss="34.76" rerouteNo="1" devices="tripinfo_carIn462:1 routing_carIn462:1 emissions_carIn462:1" vType="default_016" speedFactor="0.94" vaporized="">
        <emissions CO_abs="7533.559319" CO2_abs="538503.635584" HC_abs="47.005165" PMx_abs="9.654962" NOx_abs="218.865604" fuel_abs="231.479045" electricity_abs="0"/>
    </tripinfo>
    <tripinfo id="carIn81046:1" depart="57611.00" departLane="124812856#0_1" departPos="5.10" departSpeed="0.00" departDelay="2.50" arrival="57816.00" arrivalLane="-128361102#1_1" arrivalPos="274.68" arrivalSpeed="13.71" duration="205.00" routeLength="2250.49" waitingTime="0.00" waitingCount="0" stopTime="0.00" timeLoss="47.89" rerouteNo="1" devices="tripinfo_carIn81046:1 routing_carIn81046:1 emissions_carIn81046:1" vType="default_016" speedFactor="1.05" vaporized="">
        <emissions CO_abs="8152.296131" CO2_abs="571549.422565" HC_abs="50.546631" PMx_abs="9.992356" NOx_abs="232.857810" fuel_abs="245.684276" electricity_abs="0"/>
    </tripinfo>
    <tripinfo id="carIn48184:1" depart="57613.00" departLane="-306240162#1_0" departPos="5.10" departSpeed="0.00" departDelay="0.70" arrival="57817.00" arrivalLane="386687235_1" arrivalPos="80.84" arrivalSpeed="11.27" duration="204.00" routeLength="2257.41" waitingTime="2.00" waitingCount="1" stopTime="0.00" timeLoss="25.97" rerouteNo="1" devices="tripinfo_carIn48184:1 routing_carIn48184:1 emissions_carIn48184:1" vType="default_016" speedFactor="0.84" vaporized="">
        <emissions CO_abs="6163.402995" CO2_abs="453826.457267" HC_abs="38.610342" PMx_abs="7.344272" NOx_abs="179.924755" fuel_abs="195.081037" electricity_abs="0"/>
    </tripinfo>
    <tripinfo id="h16072c2:3" depart="57663.00" departLane="315358254#0_1" departPos="5.10" departSpeed="0.00" departDelay="2.50" arrival="57817.00" arrivalLane="386687235_2" arrivalPos="80.84" arrivalSpeed="14.31" duration="154.00" routeLength="1611.92" waitingTime="10.00" waitingCount="2" stopTime="0.00" timeLoss="43.34" rerouteNo="1" devices="tripinfo_h16072c2:3 routing_h16072c2:3 emissions_h16072c2:3" vType="default_016" speedFactor="1.06" vaporized="">
        <emissions CO_abs="6555.105348" CO2_abs="431243.409472" HC_abs="39.903762" PMx_abs="7.636813" NOx_abs="175.625583" fuel_abs="185.373067" electricity_abs="0"/>
    </tripinfo>
    <tripinfo id="carIn77438:1" depart="57614.00" departLane="124812856#0_1" departPos="5.10" departSpeed="0.00" departDelay="1.10" arrival="57818.00" arrivalLane="-128361102#1_1" arrivalPos="274.68" arrivalSpeed="12.29" duration="204.00" routeLength="2250.49" waitingTime="0.00" waitingCount="0" stopTime="0.00" timeLoss="33.67" rerouteNo="1" devices="tripinfo_carIn77438:1 routing_carIn77438:1 emissions_carIn77438:1" vType="default_016" speedFactor="0.97" vaporized="">
        <emissions CO_abs="7793.071365" CO2_abs="564463.681162" HC_abs="48.757255" PMx_abs="9.788181" NOx_abs="229.210359" fuel_abs="242.638354" electricity_abs="0"/>
    </tripinfo>
    <tripinfo id="carIn116184:1" depart="57627.00" departLane="-306240162#1_0" departPos="5.10" departSpeed="0.00" departDelay="0.10" arrival="57819.00" arrivalLane="386687235_1" arrivalPos="80.84" arrivalSpeed="13.90" duration="192.00" routeLength="2257.41" waitingTime="10.00" waitingCount="1" stopTime="0.00" timeLoss="47.13" rerouteNo="1" devices="tripinfo_carIn116184:1 routing_carIn116184:1 emissions_carIn116184:1" vType="default_016" speedFactor="1.03" vaporized="">
        <emissions CO_abs="8331.201420" CO2_abs="576970.311577" HC_abs="51.522361" PMx_abs="10.539806" NOx_abs="235.531607" fuel_abs="248.014116" electricity_abs="0"/>
    </tripinfo>
    <tripinfo id="randUni33724:1" depart="57646.00" departLane="128361102#0_1" departPos="5.10" departSpeed="0.00" departDelay="1.20" arrival="57820.00" arrivalLane="201956811#0_1" arrivalPos="40.40" arrivalSpeed="12.82" duration="174.00" routeLength="2067.33" waitingTime="0.00" waitingCount="0" stopTime="0.00" timeLoss="15.86" rerouteNo="1" devices="tripinfo_randUni33724:1 routing_randUni33724:1 emissions_randUni33724:1" vType="random_016" speedFactor="0.96" vaporized="">
        <emissions CO_abs="4658.064453" CO2_abs="389921.881381" HC_abs="30.304556" PMx_abs="6.222852" NOx_abs="153.749401" fuel_abs="167.610751" electricity_abs="0"/>
    </tripinfo>
    <tripinfo id="h19804c1:3" depart="57617.00" departLane="124812856#0_1" departPos="5.10" departSpeed="0.00" departDelay="1.50" arrival="57821.00" arrivalLane="-128361102#1_1" arrivalPos="274.68" arrivalSpeed="11.54" duration="204.00" routeLength="2250.49" waitingTime="0.00" waitingCount="0" stopTime="0.00" timeLoss="25.57" rerouteNo="1" devices="tripinfo_h19804c1:3 routing_h19804c1:3 emissions_h19804c1:3" vType="default_016" speedFactor="0.92" vaporized="">
        <emissions CO_abs="6678.196263" CO2_abs="498209.633444" HC_abs="42.063988" PMx_abs="8.294775" NOx_abs="199.987444" fuel_abs="214.158989" electricity_abs="0"/>
    </tripinfo>
    <tripinfo id="carIn50326:1" depart="57651.00" departLane="128361102#0_1" departPos="5.10" departSpeed="0.00" departDelay="0.30" arrival="57827.00" arrivalLane="18809673#0_1" arrivalPos="473.56" arrivalSpeed="11.81" duration="176.00" routeLength="1591.07" waitingTime="8.00" waitingCount="1" stopTime="0.00" timeLoss="28.87" rerouteNo="1" devices="tripinfo_carIn50326:1 routing_carIn50326:1 emissions_carIn50326:1" vType="default_016" speedFactor="0.88" vaporized="">
        <emissions CO_abs="5796.231674" CO2_abs="352005.031710" HC_abs="34.532971" PMx_abs="5.584717" NOx_abs="140.083557" fuel_abs="151.313175" electricity_abs="0"/>
    </tripinfo>
    <tripinfo id="carIn107842:1" depart="57623.00" departLane="124812856#0_1" departPos="5.10" departSpeed="0.00" departDelay="1.90" arrival="57828.00" arrivalLane="-128361102#1_1" arrivalPos="274.68" arrivalSpeed="11.66" duration="205.00" routeLength="2250.49" waitingTime="0.00" waitingCount="0" stopTime="0.00" timeLoss="16.76" rerouteNo="1" devices="tripinfo_carIn107842:1 routing_carIn107842:1 emissions_carIn107842:1" vType="default_016" speedFactor="0.87" vaporized="">
        <emissions CO_abs="5250.885400" CO2_abs="424457.882961" HC_abs="33.713717" PMx_abs="6.312927" NOx_abs="165.091646" fuel_abs="182.457089" electricity_abs="0"/>
    </tripinfo>
    <tripinfo id="carIn126288:1" depart="57674.00" departLane="272042143_1" departPos="5.10" departSpeed="0.00" departDelay="0.00" arrival="57828.00" arrivalLane="-315358254#1_1" arrivalPos="137.16" arrivalSpeed="12.08" duration="154.00" routeLength="1596.88" waitingTime="7.00" waitingCount="1" stopTime="0.00" timeLoss="22.79" rerouteNo="1" devices="tripinfo_carIn126288:1 routing_carIn126288:1 emissions_carIn126288:1" vType="default_016" speedFactor="0.89" vaporized="">
        <emissions CO_abs="4029.286735" CO2_abs="315460.851542" HC_abs="25.649300" PMx_abs="4.787950" NOx_abs="123.252721" fuel_abs="135.603691" electricity_abs="0"/>
    </tripinfo>
    <tripinfo id="carIn12152:1" depart="57647.00" departLane="24599188#0.94_1" departPos="5.10" departSpeed="0.00" departDelay="0.50" arrival="57829.00" arrivalLane="-315358254#1_1" arrivalPos="137.16" arrivalSpeed="14.30" duration="182.00" routeLength="2034.31" waitingTime="13.00" waitingCount="2" stopTime="0.00" timeLoss="48.96" rerouteNo="1" devices="tripinfo_carIn12152:1 routing_carIn12152:1 emissions_carIn12152:1" vType="default_016" speedFactor="1.19" vaporized="">
        <emissions CO_abs="6973.965749" CO2_abs="493844.746455" HC_abs="43.179783" PMx_abs="8.514750" NOx_abs="197.920968" fuel_abs="212.282757" electricity_abs="0"/>
    </tripinfo>
    <tripinfo id="h15382c1:3" depart="57626.00" departLane="124812856#0_1" departPos="5.10" departSpeed="0.00" departDelay="3.80" arrival="57830.00" arrivalLane="-128361102#1_1" arrivalPos="274.68" arrivalSpeed="12.77" duration="204.00" routeLength="2250.49" waitingTime="0.00" waitingCount="0" stopTime="0.00" timeLoss="25.09" rerouteNo="1" devices="tripinfo_h15382c1:3 routing_h15382c1:3 emissions_h15382c1:3" vType="default_016" speedFactor="0.92" vaporized="">
        <emissions CO_abs="6271.333790" CO2_abs="456989.092789" HC_abs="39.243235" PMx_abs="7.621930" NOx_abs="183.657090" fuel_abs="196.440134" electricity_abs="0"/>
    </tripinfo>
    <tripinfo id="h17549c1:1" depart="57680.00" departLane="-447569998#1_1" departPos="5.10" departSpeed="0.00" departDelay="0.00" arrival="57831.00" arrivalLane="-315358254#1_1" arrivalPos="137.16" arrivalSpeed="14.54" duration="151.00" routeLength="1746.60" waitingTime="7.00" waitingCount="1" stopTime="0.00" timeLoss="28.15" rerouteNo="1" devices="tripinfo_h17549c1:1 routing_h17549c1:1 emissions_h17549c1:1" vType="default_016" speedFactor="1.11" vaporized="">
        <emissions CO_abs="5229.993176" CO2_abs="384060.582200" HC_abs="32.564328" PMx_abs="6.467673" NOx_abs="152.912177" fuel_abs="165.091286" electricity_abs="0"/>
    </tripinfo>