<?xml version="1.0" encoding="UTF-8"?>

<!-- generated on 2021-10-26 13:25:56 by Eclipse SUMO sumo Version 1.10.0
<configuration xmlns:xsi="http://www.w3.org/2001/XMLSchema-instance" xsi:noNamespaceSchemaLocation="http://sumo.dlr.de/xsd/sumoConfiguration.xsd">

    <input>
        <net-file value="/Users/behradkoohy/sumo-scratchpad/RESCO/environments/ingolstadt21/ingolstadt21.net.xml"/>
        <route-files value="/Users/behradkoohy/sumo-scratchpad/RESCO/environments/ingolstadt21/ingolstadt21.rou.xml"/>
    </input>

    <output>
        <tripinfo-output value="/Users/behradkoohy/sumo-scratchpad/RESCO/logs/MAXPRESSURE-tr0-ingolstadt21-21-mplight-wait/tripinfo_59.xml"/>
        <tripinfo-output.write-unfinished value="true"/>
    </output>

    <time>
        <begin value="57600"/>
        <end value="61200"/>
    </time>

    <processing>
        <time-to-teleport value="-1"/>
    </processing>

    <report>
        <no-warnings value="true"/>
        <no-step-log value="true"/>
    </report>

    <emissions>
        <device.emissions.probability value="1"/>
    </emissions>

    <traci_server>
        <remote-port value="58944"/>
    </traci_server>

    <random_number>
        <random value="true"/>
    </random_number>

</configuration>
-->

<tripinfos xmlns:xsi="http://www.w3.org/2001/XMLSchema-instance" xsi:noNamespaceSchemaLocation="http://sumo.dlr.de/xsd/tripinfo_file.xsd">
    <tripinfo id="h15454c2:3" depart="57612.00" departLane="24608844_1" departPos="5.10" departSpeed="0.00" departDelay="0.50" arrival="57648.00" arrivalLane="32978638#0_1" arrivalPos="49.29" arrivalSpeed="15.57" duration="36.00" routeLength="354.79" waitingTime="0.00" waitingCount="0" stopTime="0.00" timeLoss="6.59" rerouteNo="1" devices="tripinfo_h15454c2:3 routing_h15454c2:3 emissions_h15454c2:3" vType="default_016" speedFactor="1.16" vaporized="">
        <emissions CO_abs="2168.806545" CO2_abs="132168.597868" HC_abs="12.968299" PMx_abs="2.415922" NOx_abs="54.592854" fuel_abs="56.813611" electricity_abs="0"/>
    </tripinfo>
    <tripinfo id="carIn60260:1" depart="57606.00" departLane="315358254#0_1" departPos="5.10" departSpeed="0.00" departDelay="0.90" arrival="57664.00" arrivalLane="399835085#1_1" arrivalPos="212.23" arrivalSpeed="7.49" duration="58.00" routeLength="430.98" waitingTime="0.00" waitingCount="0" stopTime="0.00" timeLoss="8.18" rerouteNo="1" devices="tripinfo_carIn60260:1 routing_carIn60260:1 emissions_carIn60260:1" vType="default_016" speedFactor="0.93" vaporized="">
        <emissions CO_abs="2495.810567" CO2_abs="115568.038579" HC_abs="14.023340" PMx_abs="1.899696" NOx_abs="46.973354" fuel_abs="49.678522" electricity_abs="0"/>
    </tripinfo>
    <tripinfo id="h12244c1:3" depart="57612.00" departLane="315358244_1" departPos="5.10" departSpeed="0.00" departDelay="0.40" arrival="57691.00" arrivalLane="386687235_1" arrivalPos="80.84" arrivalSpeed="16.61" duration="79.00" routeLength="1186.14" waitingTime="0.00" waitingCount="0" stopTime="0.00" timeLoss="8.98" rerouteNo="1" devices="tripinfo_h12244c1:3 routing_h12244c1:3 emissions_h12244c1:3" vType="default_016" speedFactor="1.24" vaporized="">
        <emissions CO_abs="2788.159668" CO2_abs="249848.417110" HC_abs="18.532769" PMx_abs="4.371855" NOx_abs="98.950845" fuel_abs="107.398595" electricity_abs="0"/>
    </tripinfo>
    <tripinfo id="carIn53971:1" depart="57640.00" departLane="272042143_1" departPos="5.10" departSpeed="0.00" departDelay="0.80" arrival="57700.00" arrivalLane="24634414#1_1" arrivalPos="162.19" arrivalSpeed="6.98" duration="60.00" routeLength="493.04" waitingTime="0.00" waitingCount="0" stopTime="0.00" timeLoss="8.34" rerouteNo="1" devices="tripinfo_carIn53971:1 routing_carIn53971:1 emissions_carIn53971:1" vType="default_016" speedFactor="0.89" vaporized="">
        <emissions CO_abs="2553.682908" CO2_abs="131111.475910" HC_abs="14.672290" PMx_abs="2.237796" NOx_abs="53.598898" fuel_abs="56.359743" electricity_abs="0"/>
    </tripinfo>
    <tripinfo id="S5R_frequency1.2" depart="57615.00" departLane="315358250#0_1" departPos="12.10" departSpeed="0.00" departDelay="3.40" arrival="57708.00" arrivalLane="386687235_1" arrivalPos="80.84" arrivalSpeed="13.56" duration="93.00" routeLength="1115.62" waitingTime="0.00" waitingCount="0" stopTime="0.00" timeLoss="11.06" rerouteNo="1" devices="tripinfo_S5R_frequency1.2 routing_S5R_frequency1.2 emissions_S5R_frequency1.2" vType="bus" speedFactor="1.00" vaporized="">
        <emissions CO_abs="1763.467097" CO2_abs="1117146.886165" HC_abs="375.962181" PMx_abs="189.635659" NOx_abs="8629.061047" fuel_abs="476.459989" electricity_abs="0"/>
    </tripinfo>
    <tripinfo id="h9563c2:5" depart="57631.00" departLane="315358244_1" departPos="5.10" departSpeed="0.00" departDelay="0.70" arrival="57722.00" arrivalLane="386687235_1" arrivalPos="80.84" arrivalSpeed="13.59" duration="91.00" routeLength="1186.14" waitingTime="0.00" waitingCount="0" stopTime="0.00" timeLoss="8.35" rerouteNo="1" devices="tripinfo_h9563c2:5 routing_h9563c2:5 emissions_h9563c2:5" vType="default_016" speedFactor="1.05" vaporized="">
        <emissions CO_abs="2521.588159" CO2_abs="228230.998060" HC_abs="16.778836" PMx_abs="3.655642" NOx_abs="89.354031" fuel_abs="98.106623" electricity_abs="0"/>
    </tripinfo>
    <tripinfo id="h7800c1:5" depart="57696.00" departLane="-447569998#1_1" departPos="5.10" departSpeed="0.00" departDelay="0.00" arrival="57725.00" arrivalLane="-447569998#1_2" arrivalPos="180.76" arrivalSpeed="4.49" duration="29.00" routeLength="175.66" waitingTime="2.00" waitingCount="1" stopTime="0.00" timeLoss="9.18" rerouteNo="1" devices="tripinfo_h7800c1:5 routing_h7800c1:5 emissions_h7800c1:5" vType="default_016" speedFactor="1.08" vaporized="">
        <emissions CO_abs="1251.777840" CO2_abs="51834.690012" HC_abs="6.897404" PMx_abs="0.902610" NOx_abs="21.444083" fuel_abs="22.281890" electricity_abs="0"/>
    </tripinfo>
    <tripinfo id="carIn22761:1" depart="57616.00" departLane="-306240162#1_0" departPos="5.10" departSpeed="0.00" departDelay="2.10" arrival="57727.00" arrivalLane="399835085#1_1" arrivalPos="212.23" arrivalSpeed="7.90" duration="111.00" routeLength="1093.26" waitingTime="11.00" waitingCount="1" stopTime="0.00" timeLoss="28.65" rerouteNo="1" devices="tripinfo_carIn22761:1 routing_carIn22761:1 emissions_carIn22761:1" vType="default_016" speedFactor="0.95" vaporized="">
        <emissions CO_abs="6138.950328" CO2_abs="315075.375232" HC_abs="35.366990" PMx_abs="5.921572" NOx_abs="129.488819" fuel_abs="135.438151" electricity_abs="0"/>
    </tripinfo>
    <tripinfo id="h3688c1:1" depart="57625.00" departLane="201201950#1_1" departPos="5.10" departSpeed="0.00" departDelay="0.00" arrival="57730.00" arrivalLane="32978638#0_1" arrivalPos="49.29" arrivalSpeed="13.84" duration="105.00" routeLength="1089.75" waitingTime="11.00" waitingCount="1" stopTime="0.00" timeLoss="27.64" rerouteNo="1" devices="tripinfo_h3688c1:1 routing_h3688c1:1 emissions_h3688c1:1" vType="default_016" speedFactor="1.03" vaporized="">
        <emissions CO_abs="4930.202967" CO2_abs="290512.611269" HC_abs="29.244993" PMx_abs="5.137037" NOx_abs="118.047399" fuel_abs="124.879406" electricity_abs="0"/>
    </tripinfo>
    <tripinfo id="h7181c1:1" depart="57660.00" departLane="315358254#0_1" departPos="5.10" departSpeed="0.00" departDelay="0.10" arrival="57731.00" arrivalLane="306240162#0_0" arrivalPos="220.43" arrivalSpeed="16.13" duration="71.00" routeLength="932.35" waitingTime="6.00" waitingCount="1" stopTime="0.00" timeLoss="18.40" rerouteNo="1" devices="tripinfo_h7181c1:1 routing_h7181c1:1 emissions_h7181c1:1" vType="default_016" speedFactor="0.98" vaporized="">
        <emissions CO_abs="3384.128677" CO2_abs="244035.825253" HC_abs="21.134466" PMx_abs="4.531817" NOx_abs="98.521178" fuel_abs="104.900169" electricity_abs="0"/>
    </tripinfo>
    <tripinfo id="h3568c1:3" depart="57656.00" departLane="266565295#5_1" departPos="5.10" departSpeed="0.00" departDelay="0.80" arrival="57736.00" arrivalLane="-24634415_1" arrivalPos="62.03" arrivalSpeed="12.49" duration="80.00" routeLength="807.40" waitingTime="0.00" waitingCount="0" stopTime="0.00" timeLoss="12.16" rerouteNo="1" devices="tripinfo_h3568c1:3 routing_h3568c1:3 emissions_h3568c1:3" vType="default_016" speedFactor="0.94" vaporized="">
        <emissions CO_abs="3263.628866" CO2_abs="205457.626056" HC_abs="19.642497" PMx_abs="3.392329" NOx_abs="82.536596" fuel_abs="88.317890" electricity_abs="0"/>
    </tripinfo>
    <tripinfo id="carIn80064:1" depart="57603.00" departLane="128361109#1_1" departPos="5.10" departSpeed="0.00" departDelay="0.40" arrival="57749.00" arrivalLane="-315358254#1_1" arrivalPos="137.16" arrivalSpeed="14.05" duration="146.00" routeLength="1587.97" waitingTime="30.00" waitingCount="1" stopTime="0.00" timeLoss="59.47" rerouteNo="1" devices="tripinfo_carIn80064:1 routing_carIn80064:1 emissions_carIn80064:1" vType="default_016" speedFactor="1.05" vaporized="">
        <emissions CO_abs="11078.901048" CO2_abs="546024.955504" HC_abs="63.507811" PMx_abs="11.173832" NOx_abs="229.670389" fuel_abs="234.713084" electricity_abs="0"/>
    </tripinfo>
    <tripinfo id="h317c2:1" depart="57707.00" departLane="-32978638#0_1" departPos="5.10" departSpeed="0.00" departDelay="0.10" arrival="57757.00" arrivalLane="-266565295#5_1" arrivalPos="172.76" arrivalSpeed="11.23" duration="50.00" routeLength="370.53" waitingTime="12.00" waitingCount="1" stopTime="0.00" timeLoss="19.27" rerouteNo="1" devices="tripinfo_h317c2:1 routing_h317c2:1 emissions_h317c2:1" vType="default_016" speedFactor="0.89" vaporized="">
        <emissions CO_abs="2618.869893" CO2_abs="122203.038226" HC_abs="14.781599" PMx_abs="2.199628" NOx_abs="50.385525" fuel_abs="52.530413" electricity_abs="0"/>
    </tripinfo>
    <tripinfo id="h3326c1:2" depart="57656.00" departLane="22716069#0_1" departPos="5.10" departSpeed="0.00" departDelay="0.00" arrival="57762.00" arrivalLane="24634517#13_1" arrivalPos="111.62" arrivalSpeed="13.62" duration="106.00" routeLength="1312.81" waitingTime="0.00" waitingCount="0" stopTime="0.00" timeLoss="14.59" rerouteNo="1" devices="tripinfo_h3326c1:2 routing_h3326c1:2 emissions_h3326c1:2" vType="default_016" speedFactor="1.06" vaporized="">
        <emissions CO_abs="4034.991930" CO2_abs="307501.273348" HC_abs="25.572446" PMx_abs="5.370446" NOx_abs="124.238033" fuel_abs="132.181247" electricity_abs="0"/>
    </tripinfo>
    <tripinfo id="carIn30817:1" depart="57681.00" departLane="315358244_1" departPos="5.10" departSpeed="0.00" departDelay="0.20" arrival="57764.00" arrivalLane="447569997#1_1" arrivalPos="180.93" arrivalSpeed="6.65" duration="83.00" routeLength="718.04" waitingTime="4.00" waitingCount="1" stopTime="0.00" timeLoss="16.04" rerouteNo="1" devices="tripinfo_carIn30817:1 routing_carIn30817:1 emissions_carIn30817:1" vType="default_016" speedFactor="0.92" vaporized="">
        <emissions CO_abs="2656.707346" CO2_abs="159435.537660" HC_abs="15.770528" PMx_abs="2.459656" NOx_abs="62.942269" fuel_abs="68.535232" electricity_abs="0"/>
    </tripinfo>
    <tripinfo id="h3154c1:1" depart="57658.00" departLane="24634507_1" departPos="5.10" departSpeed="0.00" departDelay="0.00" arrival="57775.00" arrivalLane="-266565295#5_1" arrivalPos="172.76" arrivalSpeed="12.96" duration="117.00" routeLength="1206.22" waitingTime="6.00" waitingCount="1" stopTime="0.00" timeLoss="22.16" rerouteNo="1" devices="tripinfo_h3154c1:1 routing_h3154c1:1 emissions_h3154c1:1" vType="default_016" speedFactor="0.94" vaporized="">
        <emissions CO_abs="3867.398103" CO2_abs="276260.855016" HC_abs="24.031769" PMx_abs="4.381285" NOx_abs="109.085947" fuel_abs="118.753228" electricity_abs="0"/>
    </tripinfo>
    <tripinfo id="carIn12365:1" depart="57713.00" departLane="315358244_1" departPos="5.10" departSpeed="0.00" departDelay="0.50" arrival="57781.00" arrivalLane="447569997#1_1" arrivalPos="180.93" arrivalSpeed="7.72" duration="68.00" routeLength="718.04" waitingTime="0.00" waitingCount="0" stopTime="0.00" timeLoss="8.57" rerouteNo="1" devices="tripinfo_carIn12365:1 routing_carIn12365:1 emissions_carIn12365:1" vType="default_016" speedFactor="1.04" vaporized="">
        <emissions CO_abs="2157.238653" CO2_abs="156194.098171" HC_abs="13.402937" PMx_abs="2.410135" NOx_abs="61.095198" fuel_abs="67.141531" electricity_abs="0"/>
    </tripinfo>
    <tripinfo id="h330c1:1" depart="57736.00" departLane="-32978638#0_1" departPos="5.10" departSpeed="0.00" departDelay="0.20" arrival="57783.00" arrivalLane="-266565295#5_1" arrivalPos="172.76" arrivalSpeed="15.58" duration="47.00" routeLength="370.53" waitingTime="13.00" waitingCount="1" stopTime="0.00" timeLoss="22.68" rerouteNo="1" devices="tripinfo_h330c1:1 routing_h330c1:1 emissions_h330c1:1" vType="default_016" speedFactor="1.16" vaporized="">
        <emissions CO_abs="3241.706285" CO2_abs="148306.609299" HC_abs="18.286499" PMx_abs="2.961706" NOx_abs="62.759269" fuel_abs="63.750977" electricity_abs="0"/>
    </tripinfo>
    <tripinfo id="carIn118591:1" depart="57689.00" departLane="315358244_1" departPos="5.10" departSpeed="0.00" departDelay="0.20" arrival="57788.00" arrivalLane="386687235_1" arrivalPos="80.84" arrivalSpeed="12.72" duration="99.00" routeLength="1186.14" waitingTime="0.00" waitingCount="0" stopTime="0.00" timeLoss="9.41" rerouteNo="1" devices="tripinfo_carIn118591:1 routing_carIn118591:1 emissions_carIn118591:1" vType="default_016" speedFactor="0.97" vaporized="">
        <emissions CO_abs="2811.792443" CO2_abs="234901.703423" HC_abs="18.277017" PMx_abs="3.712216" NOx_abs="92.260432" fuel_abs="100.974276" electricity_abs="0"/>
    </tripinfo>
    <tripinfo id="h645c1:1" depart="57622.00" departLane="266565295#5_1" departPos="5.10" departSpeed="0.00" departDelay="0.40" arrival="57792.00" arrivalLane="-315358244_1" arrivalPos="33.95" arrivalSpeed="11.70" duration="170.00" routeLength="1910.83" waitingTime="0.00" waitingCount="0" stopTime="0.00" timeLoss="12.95" rerouteNo="1" devices="tripinfo_h645c1:1 routing_h645c1:1 emissions_h645c1:1" vType="default_016" speedFactor="0.89" vaporized="">
        <emissions CO_abs="3785.468839" CO2_abs="342808.244582" HC_abs="25.102882" PMx_abs="4.709495" NOx_abs="130.227543" fuel_abs="147.359515" electricity_abs="0"/>
    </tripinfo>
    <tripinfo id="carIn27009:1" depart="57673.00" departLane="-447569998#1_1" departPos="5.10" departSpeed="0.00" departDelay="0.50" arrival="57794.00" arrivalLane="-26677539_1" arrivalPos="152.75" arrivalSpeed="7.05" duration="121.00" routeLength="699.63" waitingTime="20.00" waitingCount="1" stopTime="0.00" timeLoss="36.99" rerouteNo="1" devices="tripinfo_carIn27009:1 routing_carIn27009:1 emissions_carIn27009:1" vType="default_015" speedFactor="1.00" vaporized="">
        <emissions CO_abs="6792.493039" CO2_abs="229570.245168" HC_abs="36.229950" PMx_abs="4.162288" NOx_abs="95.810085" fuel_abs="98.684926" electricity_abs="0"/>
    </tripinfo>
    <tripinfo id="carIn86816:1" depart="57617.00" departLane="128361102#0_1" departPos="5.10" departSpeed="0.00" departDelay="0.80" arrival="57798.00" arrivalLane="201956811#0_1" arrivalPos="40.40" arrivalSpeed="12.84" duration="181.00" routeLength="2067.33" waitingTime="3.00" waitingCount="2" stopTime="0.00" timeLoss="29.18" rerouteNo="1" devices="tripinfo_carIn86816:1 routing_carIn86816:1 emissions_carIn86816:1" vType="default_016" speedFactor="0.99" vaporized="">
        <emissions CO_abs="5459.647412" CO2_abs="423138.162148" HC_abs="34.759953" PMx_abs="6.924720" NOx_abs="167.918093" fuel_abs="181.889100" electricity_abs="0"/>
    </tripinfo>
    <tripinfo id="carIn107084:1" depart="57601.00" departLane="124812856#0_1" departPos="5.10" departSpeed="0.00" departDelay="0.70" arrival="57804.00" arrivalLane="-128361102#1_1" arrivalPos="274.68" arrivalSpeed="11.38" duration="203.00" routeLength="2250.49" waitingTime="0.00" waitingCount="0" stopTime="0.00" timeLoss="17.42" rerouteNo="1" devices="tripinfo_carIn107084:1 routing_carIn107084:1 emissions_carIn107084:1" vType="default_016" speedFactor="0.88" vaporized="">
        <emissions CO_abs="4854.406380" CO2_abs="411998.804738" HC_abs="31.579352" PMx_abs="5.846202" NOx_abs="158.052971" fuel_abs="177.101703" electricity_abs="0"/>
    </tripinfo>
    <tripinfo id="carIn102915:1" depart="57643.00" departLane="128361102#0_1" departPos="5.10" departSpeed="0.00" departDelay="0.40" arrival="57805.00" arrivalLane="201956811#0_1" arrivalPos="40.40" arrivalSpeed="13.54" duration="162.00" routeLength="2067.33" waitingTime="0.00" waitingCount="0" stopTime="0.00" timeLoss="18.52" rerouteNo="1" devices="tripinfo_carIn102915:1 routing_carIn102915:1 emissions_carIn102915:1" vType="default_016" speedFactor="1.06" vaporized="">
        <emissions CO_abs="5014.428069" CO2_abs="450322.428827" HC_abs="33.205915" PMx_abs="7.277484" NOx_abs="176.786074" fuel_abs="193.574022" electricity_abs="0"/>
    </tripinfo>
    <tripinfo id="carIn77943:1" depart="57608.00" departLane="124812856#0_1" departPos="5.10" departSpeed="0.00" departDelay="2.50" arrival="57806.00" arrivalLane="-128361102#1_1" arrivalPos="274.68" arrivalSpeed="12.49" duration="198.00" routeLength="2250.49" waitingTime="0.00" waitingCount="0" stopTime="0.00" timeLoss="23.41" rerouteNo="1" devices="tripinfo_carIn77943:1 routing_carIn77943:1 emissions_carIn77943:1" vType="default_016" speedFactor="0.94" vaporized="">
        <emissions CO_abs="5738.076610" CO2_abs="457647.531274" HC_abs="36.815353" PMx_abs="7.430585" NOx_abs="181.908916" fuel_abs="196.723087" electricity_abs="0"/>
    </tripinfo>
    <tripinfo id="carIn81046:1" depart="57611.00" departLane="124812856#0_1" departPos="5.10" departSpeed="0.00" departDelay="2.50" arrival="57808.00" arrivalLane="-128361102#1_1" arrivalPos="274.68" arrivalSpeed="13.15" duration="197.00" routeLength="2250.49" waitingTime="0.00" waitingCount="0" stopTime="0.00" timeLoss="30.36" rerouteNo="1" devices="tripinfo_carIn81046:1 routing_carIn81046:1 emissions_carIn81046:1" vType="default_016" speedFactor="0.99" vaporized="">
        <emissions CO_abs="6826.569180" CO2_abs="512462.791355" HC_abs="43.101820" PMx_abs="8.714533" NOx_abs="206.542751" fuel_abs="220.285529" electricity_abs="0"/>
    </tripinfo>
    <tripinfo id="h11737c1:1" depart="57665.00" departLane="272042143_1" departPos="5.10" departSpeed="0.00" departDelay="1.50" arrival="57808.00" arrivalLane="-315358254#1_1" arrivalPos="137.16" arrivalSpeed="12.43" duration="143.00" routeLength="1596.88" waitingTime="5.00" waitingCount="1" stopTime="0.00" timeLoss="20.50" rerouteNo="1" devices="tripinfo_h11737c1:1 routing_h11737c1:1 emissions_h11737c1:1" vType="default_016" speedFactor="0.96" vaporized="">
        <emissions CO_abs="3932.863226" CO2_abs="325758.001405" HC_abs="25.475383" PMx_abs="5.027582" NOx_abs="127.244267" fuel_abs="140.029749" electricity_abs="0"/>
    </tripinfo>
    <tripinfo id="carIn77438:1" depart="57614.00" departLane="124812856#0_1" departPos="5.10" departSpeed="0.00" departDelay="1.10" arrival="57809.00" arrivalLane="-128361102#1_1" arrivalPos="274.68" arrivalSpeed="12.48" duration="195.00" routeLength="2250.49" waitingTime="0.00" waitingCount="0" stopTime="0.00" timeLoss="28.76" rerouteNo="1" devices="tripinfo_carIn77438:1 routing_carIn77438:1 emissions_carIn77438:1" vType="default_016" speedFactor="0.99" vaporized="">
        <emissions CO_abs="7133.981363" CO2_abs="538304.515993" HC_abs="45.146565" PMx_abs="9.299010" NOx_abs="217.828275" fuel_abs="231.393522" electricity_abs="0"/>
    </tripinfo>
    <tripinfo id="h5979c1:5" depart="57669.00" departLane="399835085#1_1" departPos="5.10" departSpeed="0.00" departDelay="0.00" arrival="57811.00" arrivalLane="-315358254#1_1" arrivalPos="137.16" arrivalSpeed="11.35" duration="142.00" routeLength="659.33" waitingTime="40.00" waitingCount="1" stopTime="0.00" timeLoss="54.20" rerouteNo="1" devices="tripinfo_h5979c1:5 routing_h5979c1:5 emissions_h5979c1:5" vType="default_016" speedFactor="0.83" vaporized="">
        <emissions CO_abs="10031.832175" CO2_abs="266015.936622" HC_abs="51.832499" PMx_abs="5.212602" NOx_abs="113.423714" fuel_abs="114.353032" electricity_abs="0"/>
    </tripinfo>
    <tripinfo id="carIn82278:1" depart="57702.00" departLane="-306240162#1_0" departPos="5.10" departSpeed="0.00" departDelay="0.70" arrival="57811.00" arrivalLane="399835085#1_1" arrivalPos="212.23" arrivalSpeed="8.92" duration="109.00" routeLength="1093.26" waitingTime="12.00" waitingCount="2" stopTime="0.00" timeLoss="36.81" rerouteNo="1" devices="tripinfo_carIn82278:1 routing_carIn82278:1 emissions_carIn82278:1" vType="default_016" speedFactor="1.08" vaporized="">
        <emissions CO_abs="5821.123016" CO2_abs="354270.606473" HC_abs="34.898404" PMx_abs="6.700709" NOx_abs="145.922013" fuel_abs="152.285602" electricity_abs="0"/>
    </tripinfo>
    <tripinfo id="carIn50326:1" depart="57651.00" departLane="128361102#0_1" departPos="5.10" departSpeed="0.00" departDelay="0.30" arrival="57812.00" arrivalLane="18809673#0_1" arrivalPos="473.56" arrivalSpeed="13.50" duration="161.00" routeLength="1591.07" waitingTime="9.00" waitingCount="1" stopTime="0.00" timeLoss="29.87" rerouteNo="1" devices="tripinfo_carIn50326:1 routing_carIn50326:1 emissions_carIn50326:1" vType="default_016" speedFactor="0.99" vaporized="">
        <emissions CO_abs="5407.472764" CO2_abs="345814.126117" HC_abs="32.652892" PMx_abs="5.597193" NOx_abs="137.423411" fuel_abs="148.651626" electricity_abs="0"/>
    </tripinfo>
    <tripinfo id="h19804c1:3" depart="57617.00" departLane="124812856#0_1" departPos="5.10" departSpeed="0.00" departDelay="1.50" arrival="57814.00" arrivalLane="-128361102#1_1" arrivalPos="274.68" arrivalSpeed="12.28" duration="197.00" routeLength="2250.49" waitingTime="0.00" waitingCount="0" stopTime="0.00" timeLoss="17.33" rerouteNo="1" devices="tripinfo_h19804c1:3 routing_h19804c1:3 emissions_h19804c1:3" vType="default_016" speedFactor="0.91" vaporized="">
        <emissions CO_abs="4766.272795" CO2_abs="416958.527171" HC_abs="31.333292" PMx_abs="6.080233" NOx_abs="160.673060" fuel_abs="179.233348" electricity_abs="0"/>
    </tripinfo>
    <tripinfo id="carIn82220:1" depart="57619.00" departLane="-306240162#1_0" departPos="5.10" departSpeed="0.00" departDelay="3.50" arrival="57814.00" arrivalLane="386687235_1" arrivalPos="80.84" arrivalSpeed="14.13" duration="195.00" routeLength="2257.41" waitingTime="10.00" waitingCount="1" stopTime="0.00" timeLoss="52.18" rerouteNo="1" devices="tripinfo_carIn82220:1 routing_carIn82220:1 emissions_carIn82220:1" vType="default_016" speedFactor="1.04" vaporized="">
        <emissions CO_abs="9090.821912" CO2_abs="589460.203208" HC_abs="55.274693" PMx_abs="10.745067" NOx_abs="240.164520" fuel_abs="253.383537" electricity_abs="0"/>
    </tripinfo>
    <tripinfo id="carIn462:1" depart="57622.00" departLane="-306240162#1_0" departPos="5.10" departSpeed="0.00" departDelay="4.80" arrival="57814.00" arrivalLane="386687235_2" arrivalPos="80.84" arrivalSpeed="13.31" duration="192.00" routeLength="2257.41" waitingTime="7.00" waitingCount="1" stopTime="0.00" timeLoss="49.37" rerouteNo="1" devices="tripinfo_carIn462:1 routing_carIn462:1 emissions_carIn462:1" vType="default_016" speedFactor="1.04" vaporized="">
        <emissions CO_abs="8745.715851" CO2_abs="582261.630468" HC_abs="53.560528" PMx_abs="10.843114" NOx_abs="239.071170" fuel_abs="250.288589" electricity_abs="0"/>
    </tripinfo>
    <tripinfo id="carIn126288:1" depart="57674.00" departLane="272042143_1" departPos="5.10" departSpeed="0.00" departDelay="0.00" arrival="57814.00" arrivalLane="-315358254#1_1" arrivalPos="137.16" arrivalSpeed="12.31" duration="140.00" routeLength="1596.88" waitingTime="0.00" waitingCount="0" stopTime="0.00" timeLoss="12.40" rerouteNo="1" devices="tripinfo_carIn126288:1 routing_carIn126288:1 emissions_carIn126288:1" vType="default_016" speedFactor="0.92" vaporized="">
        <emissions CO_abs="3755.053831" CO2_abs="317546.310629" HC_abs="24.466530" PMx_abs="4.835433" NOx_abs="123.811150" fuel_abs="136.499900" electricity_abs="0"/>
    </tripinfo>
    <tripinfo id="carIn48184:1" depart="57613.00" departLane="-306240162#1_0" departPos="5.10" departSpeed="0.00" departDelay="0.70" arrival="57816.00" arrivalLane="386687235_1" arrivalPos="80.84" arrivalSpeed="11.73" duration="203.00" routeLength="2257.41" waitingTime="9.00" waitingCount="2" stopTime="0.00" timeLoss="36.41" rerouteNo="1" devices="tripinfo_carIn48184:1 routing_carIn48184:1 emissions_carIn48184:1" vType="default_016" speedFactor="0.89" vaporized="">
        <emissions CO_abs="7399.780866" CO2_abs="486323.620430" HC_abs="45.053482" PMx_abs="8.241837" NOx_abs="194.959892" fuel_abs="209.050350" electricity_abs="0"/>
    </tripinfo>
    <tripinfo id="carIn107842:1" depart="57623.00" departLane="124812856#0_1" departPos="5.10" departSpeed="0.00" departDelay="1.90" arrival="57816.00" arrivalLane="-128361102#1_1" arrivalPos="274.68" arrivalSpeed="12.62" duration="193.00" routeLength="2250.49" waitingTime="0.00" waitingCount="0" stopTime="0.00" timeLoss="28.29" rerouteNo="1" devices="tripinfo_carIn107842:1 routing_carIn107842:1 emissions_carIn107842:1" vType="default_016" speedFactor="1.00" vaporized="">
        <emissions CO_abs="6753.898004" CO2_abs="512971.793808" HC_abs="42.765546" PMx_abs="8.713120" NOx_abs="206.395339" fuel_abs="220.504301" electricity_abs="0"/>
    </tripinfo>
    <tripinfo id="carIn3969:1" depart="57629.00" departLane="124812856#0_1" departPos="5.10" departSpeed="0.00" departDelay="5.30" arrival="57817.00" arrivalLane="-128361102#1_1" arrivalPos="274.68" arrivalSpeed="14.07" duration="188.00" routeLength="2250.49" waitingTime="0.00" waitingCount="0" stopTime="0.00" timeLoss="31.15" rerouteNo="1" devices="tripinfo_carIn3969:1 routing_carIn3969:1 emissions_carIn3969:1" vType="default_016" speedFactor="1.04" vaporized="">
        <emissions CO_abs="7488.583307" CO2_abs="564463.715462" HC_abs="47.375175" PMx_abs="9.947183" NOx_abs="229.364853" fuel_abs="242.637947" electricity_abs="0"/>
    </tripinfo>
    <tripinfo id="carIn116184:1" depart="57627.00" departLane="-306240162#1_0" departPos="5.10" departSpeed="0.00" departDelay="0.10" arrival="57817.00" arrivalLane="386687235_2" arrivalPos="80.84" arrivalSpeed="15.15" duration="190.00" routeLength="2257.41" waitingTime="10.00" waitingCount="1" stopTime="0.00" timeLoss="56.40" rerouteNo="1" devices="tripinfo_carIn116184:1 routing_carIn116184:1 emissions_carIn116184:1" vType="default_016" speedFactor="1.12" vaporized="">
        <emissions CO_abs="9564.194381" CO2_abs="621088.443204" HC_abs="58.227073" PMx_abs="11.815812" NOx_abs="256.426464" fuel_abs="266.978360" electricity_abs="0"/>
    </tripinfo>
    <tripinfo id="carIn56649:1" depart="57632.00" departLane="124812856#0_1" departPos="5.10" departSpeed="0.00" departDelay="8.10" arrival="57819.00" arrivalLane="-128361102#1_1" arrivalPos="274.68" arrivalSpeed="14.54" duration="187.00" routeLength="2250.49" waitingTime="0.00" waitingCount="0" stopTime="0.00" timeLoss="29.70" rerouteNo="1" devices="tripinfo_carIn56649:1 routing_carIn56649:1 emissions_carIn56649:1" vType="default_016" speedFactor="1.05" vaporized="">
        <emissions CO_abs="7209.585698" CO2_abs="560233.093755" HC_abs="45.940558" PMx_abs="9.752511" NOx_abs="226.491878" fuel_abs="240.819412" electricity_abs="0"/>
    </tripinfo>
    <tripinfo id="carIn28951:1" depart="57606.00" departLane="10425609#0_1" departPos="5.10" departSpeed="0.00" departDelay="0.20" arrival="57820.00" arrivalLane="-128361102#1_1" arrivalPos="274.68" arrivalSpeed="15.26" duration="214.00" routeLength="2113.04" waitingTime="37.00" waitingCount="1" stopTime="0.00" timeLoss="73.69" rerouteNo="1" devices="tripinfo_carIn28951:1 routing_carIn28951:1 emissions_carIn28951:1" vType="default_016" speedFactor="1.10" vaporized="">
        <emissions CO_abs="12979.867702" CO2_abs="657388.562401" HC_abs="74.604099" PMx_abs="12.488000" NOx_abs="273.279175" fuel_abs="282.584452" electricity_abs="0"/>
    </tripinfo>
    <tripinfo id="h15382c1:3" depart="57626.00" departLane="124812856#0_1" departPos="5.10" departSpeed="0.00" departDelay="3.80" arrival="57822.00" arrivalLane="-128361102#1_1" arrivalPos="274.68" arrivalSpeed="15.98" duration="196.00" routeLength="2232.46" waitingTime="10.00" waitingCount="1" stopTime="0.00" timeLoss="62.41" rerouteNo="1" devices="tripinfo_h15382c1:3 routing_h15382c1:3 emissions_h15382c1:3" vType="default_016" speedFactor="1.22" vaporized="">
        <emissions CO_abs="9690.248263" CO2_abs="634146.987495" HC_abs="59.077642" PMx_abs="11.701059" NOx_abs="260.951467" fuel_abs="272.591996" electricity_abs="0"/>
    </tripinfo>
    <tripinfo id="h17600c1:1" depart="57662.00" departLane="272042143_1" departPos="5.10" departSpeed="0.00" departDelay="0.30" arrival="57822.00" arrivalLane="201238729#3_1" arrivalPos="431.02" arrivalSpeed="13.62" duration="160.00" routeLength="2100.26" waitingTime="0.00" waitingCount="0" stopTime="0.00" timeLoss="11.13" rerouteNo="1" devices="tripinfo_h17600c1:1 routing_h17600c1:1 emissions_h17600c1:1" vType="default_016" speedFactor="1.02" vaporized="">
        <emissions CO_abs="3124.364458" CO2_abs="339532.964686" HC_abs="22.111146" PMx_abs="4.984965" NOx_abs="129.360387" fuel_abs="145.950753" electricity_abs="0"/>
    </tripinfo>
    <tripinfo id="carIn129809:1" depart="57729.00" departLane="-447569998#1_1" departPos="5.10" departSpeed="0.00" departDelay="1.00" arrival="57823.00" arrivalLane="-315358244_1" arrivalPos="33.95" arrivalSpeed="12.07" duration="94.00" routeLength="706.49" waitingTime="13.00" waitingCount="2" stopTime="0.00" timeLoss="29.97" rerouteNo="1" devices="tripinfo_carIn129809:1 routing_carIn129809:1 emissions_carIn129809:1" vType="default_015" speedFactor="0.94" vaporized="">
        <emissions CO_abs="4464.721029" CO2_abs="193906.742710" HC_abs="24.840435" PMx_abs="3.432905" NOx_abs="79.700620" fuel_abs="83.353433" electricity_abs="0"/>
    </tripinfo>