<?xml version="1.0" encoding="UTF-8"?>

<!-- generated on 2021-10-26 13:44:03 by Eclipse SUMO sumo Version 1.10.0
<configuration xmlns:xsi="http://www.w3.org/2001/XMLSchema-instance" xsi:noNamespaceSchemaLocation="http://sumo.dlr.de/xsd/sumoConfiguration.xsd">

    <input>
        <net-file value="/Users/behradkoohy/sumo-scratchpad/RESCO/environments/ingolstadt21/ingolstadt21.net.xml"/>
        <route-files value="/Users/behradkoohy/sumo-scratchpad/RESCO/environments/ingolstadt21/ingolstadt21.rou.xml"/>
    </input>

    <output>
        <tripinfo-output value="/Users/behradkoohy/sumo-scratchpad/RESCO/logs/MAXPRESSURE-tr0-ingolstadt21-21-mplight-wait/tripinfo_84.xml"/>
        <tripinfo-output.write-unfinished value="true"/>
    </output>

    <time>
        <begin value="57600"/>
        <end value="61200"/>
    </time>

    <processing>
        <time-to-teleport value="-1"/>
    </processing>

    <report>
        <no-warnings value="true"/>
        <no-step-log value="true"/>
    </report>

    <emissions>
        <device.emissions.probability value="1"/>
    </emissions>

    <traci_server>
        <remote-port value="59658"/>
    </traci_server>

    <random_number>
        <random value="true"/>
    </random_number>

</configuration>
-->

<tripinfos xmlns:xsi="http://www.w3.org/2001/XMLSchema-instance" xsi:noNamespaceSchemaLocation="http://sumo.dlr.de/xsd/tripinfo_file.xsd">
    <tripinfo id="h15454c2:3" depart="57612.00" departLane="24608844_1" departPos="5.10" departSpeed="0.00" departDelay="0.50" arrival="57652.00" arrivalLane="32978638#0_1" arrivalPos="49.29" arrivalSpeed="13.35" duration="40.00" routeLength="354.79" waitingTime="0.00" waitingCount="0" stopTime="0.00" timeLoss="5.44" rerouteNo="1" devices="tripinfo_h15454c2:3 routing_h15454c2:3 emissions_h15454c2:3" vType="default_016" speedFactor="0.98" vaporized="">
        <emissions CO_abs="2011.959180" CO2_abs="112771.776168" HC_abs="11.795273" PMx_abs="1.966362" NOx_abs="46.247258" fuel_abs="48.476008" electricity_abs="0"/>
    </tripinfo>
    <tripinfo id="carIn60260:1" depart="57606.00" departLane="315358254#0_1" departPos="5.10" departSpeed="0.00" departDelay="0.90" arrival="57668.00" arrivalLane="399835085#1_1" arrivalPos="212.23" arrivalSpeed="7.04" duration="62.00" routeLength="430.98" waitingTime="0.00" waitingCount="0" stopTime="0.00" timeLoss="7.21" rerouteNo="1" devices="tripinfo_carIn60260:1 routing_carIn60260:1 emissions_carIn60260:1" vType="default_016" speedFactor="0.85" vaporized="">
        <emissions CO_abs="2673.351764" CO2_abs="117033.189926" HC_abs="14.849469" PMx_abs="1.869916" NOx_abs="47.297273" fuel_abs="50.308536" electricity_abs="0"/>
    </tripinfo>
    <tripinfo id="carIn53971:1" depart="57640.00" departLane="272042143_1" departPos="5.10" departSpeed="0.00" departDelay="0.80" arrival="57693.00" arrivalLane="24634414#1_1" arrivalPos="162.19" arrivalSpeed="7.35" duration="53.00" routeLength="493.04" waitingTime="0.00" waitingCount="0" stopTime="0.00" timeLoss="7.26" rerouteNo="1" devices="tripinfo_carIn53971:1 routing_carIn53971:1 emissions_carIn53971:1" vType="default_016" speedFactor="0.99" vaporized="">
        <emissions CO_abs="2377.139527" CO2_abs="136315.014587" HC_abs="14.002816" PMx_abs="2.335171" NOx_abs="55.553123" fuel_abs="58.596315" electricity_abs="0"/>
    </tripinfo>
    <tripinfo id="h12244c1:3" depart="57612.00" departLane="315358244_1" departPos="5.10" departSpeed="0.00" departDelay="0.40" arrival="57701.00" arrivalLane="386687235_1" arrivalPos="80.84" arrivalSpeed="13.80" duration="89.00" routeLength="1186.14" waitingTime="0.00" waitingCount="0" stopTime="0.00" timeLoss="7.62" rerouteNo="1" devices="tripinfo_h12244c1:3 routing_h12244c1:3 emissions_h12244c1:3" vType="default_016" speedFactor="1.07" vaporized="">
        <emissions CO_abs="2142.473930" CO2_abs="211645.295358" HC_abs="14.603443" PMx_abs="3.252957" NOx_abs="81.516104" fuel_abs="90.977227" electricity_abs="0"/>
    </tripinfo>
    <tripinfo id="S5R_frequency1.2" depart="57615.00" departLane="315358250#0_1" departPos="12.10" departSpeed="0.00" departDelay="3.40" arrival="57707.00" arrivalLane="386687235_1" arrivalPos="80.84" arrivalSpeed="13.33" duration="92.00" routeLength="1115.62" waitingTime="0.00" waitingCount="0" stopTime="0.00" timeLoss="10.28" rerouteNo="1" devices="tripinfo_S5R_frequency1.2 routing_S5R_frequency1.2 emissions_S5R_frequency1.2" vType="bus" speedFactor="1.00" vaporized="">
        <emissions CO_abs="1883.153308" CO2_abs="1197377.220208" HC_abs="402.806963" PMx_abs="202.708284" NOx_abs="9235.000553" fuel_abs="510.681124" electricity_abs="0"/>
    </tripinfo>
    <tripinfo id="carIn22761:1" depart="57616.00" departLane="-306240162#1_0" departPos="5.10" departSpeed="0.00" departDelay="2.10" arrival="57710.00" arrivalLane="399835085#1_1" arrivalPos="212.23" arrivalSpeed="8.97" duration="94.00" routeLength="1093.26" waitingTime="6.00" waitingCount="1" stopTime="0.00" timeLoss="23.53" rerouteNo="1" devices="tripinfo_carIn22761:1 routing_carIn22761:1 emissions_carIn22761:1" vType="default_016" speedFactor="1.11" vaporized="">
        <emissions CO_abs="4932.819698" CO2_abs="300463.210569" HC_abs="29.631638" PMx_abs="5.731001" NOx_abs="123.281141" fuel_abs="129.156142" electricity_abs="0"/>
    </tripinfo>
    <tripinfo id="carIn80064:1" depart="57603.00" departLane="128361109#1_1" departPos="5.10" departSpeed="0.00" departDelay="0.40" arrival="57723.00" arrivalLane="-315358254#1_1" arrivalPos="137.16" arrivalSpeed="13.06" duration="120.00" routeLength="1587.97" waitingTime="8.00" waitingCount="1" stopTime="0.00" timeLoss="30.56" rerouteNo="1" devices="tripinfo_carIn80064:1 routing_carIn80064:1 emissions_carIn80064:1" vType="default_016" speedFactor="1.00" vaporized="">
        <emissions CO_abs="6362.501815" CO2_abs="437718.729333" HC_abs="39.441510" PMx_abs="8.428856" NOx_abs="179.380067" fuel_abs="188.155599" electricity_abs="0"/>
    </tripinfo>
    <tripinfo id="h7800c1:5" depart="57696.00" departLane="-447569998#1_1" departPos="5.10" departSpeed="0.00" departDelay="0.00" arrival="57725.00" arrivalLane="-447569998#1_2" arrivalPos="180.76" arrivalSpeed="4.31" duration="29.00" routeLength="175.66" waitingTime="2.00" waitingCount="1" stopTime="0.00" timeLoss="10.13" rerouteNo="1" devices="tripinfo_h7800c1:5 routing_h7800c1:5 emissions_h7800c1:5" vType="default_016" speedFactor="1.14" vaporized="">
        <emissions CO_abs="1305.624163" CO2_abs="54582.873808" HC_abs="7.218181" PMx_abs="1.010536" NOx_abs="22.960634" fuel_abs="23.463135" electricity_abs="0"/>
    </tripinfo>
    <tripinfo id="h9563c2:5" depart="57631.00" departLane="315358244_1" departPos="5.10" departSpeed="0.00" departDelay="0.70" arrival="57732.00" arrivalLane="386687235_1" arrivalPos="80.84" arrivalSpeed="12.67" duration="101.00" routeLength="1186.14" waitingTime="0.00" waitingCount="0" stopTime="0.00" timeLoss="7.75" rerouteNo="1" devices="tripinfo_h9563c2:5 routing_h9563c2:5 emissions_h9563c2:5" vType="default_016" speedFactor="0.93" vaporized="">
        <emissions CO_abs="2411.583193" CO2_abs="211810.182976" HC_abs="15.880680" PMx_abs="3.122696" NOx_abs="81.685898" fuel_abs="91.048455" electricity_abs="0"/>
    </tripinfo>
    <tripinfo id="h3568c1:3" depart="57656.00" departLane="266565295#5_1" departPos="5.10" departSpeed="0.00" departDelay="0.80" arrival="57732.00" arrivalLane="-24634415_1" arrivalPos="62.03" arrivalSpeed="12.97" duration="76.00" routeLength="807.40" waitingTime="0.00" waitingCount="0" stopTime="0.00" timeLoss="11.36" rerouteNo="1" devices="tripinfo_h3568c1:3 routing_h3568c1:3 emissions_h3568c1:3" vType="default_016" speedFactor="1.01" vaporized="">
        <emissions CO_abs="3135.407002" CO2_abs="203067.960369" HC_abs="19.047857" PMx_abs="3.603129" NOx_abs="83.025072" fuel_abs="87.290226" electricity_abs="0"/>
    </tripinfo>
    <tripinfo id="h3688c1:1" depart="57625.00" departLane="201201950#1_1" departPos="5.10" departSpeed="0.00" departDelay="0.00" arrival="57745.00" arrivalLane="32978638#0_1" arrivalPos="49.29" arrivalSpeed="11.10" duration="120.00" routeLength="1089.75" waitingTime="13.00" waitingCount="1" stopTime="0.00" timeLoss="27.42" rerouteNo="1" devices="tripinfo_h3688c1:1 routing_h3688c1:1 emissions_h3688c1:1" vType="default_016" speedFactor="0.87" vaporized="">
        <emissions CO_abs="5072.627121" CO2_abs="261257.876315" HC_abs="29.181549" PMx_abs="4.480149" NOx_abs="106.077715" fuel_abs="112.304681" electricity_abs="0"/>
    </tripinfo>
    <tripinfo id="h7181c1:1" depart="57660.00" departLane="315358254#0_1" departPos="5.10" departSpeed="0.00" departDelay="0.10" arrival="57754.00" arrivalLane="306240162#0_0" arrivalPos="220.43" arrivalSpeed="12.89" duration="94.00" routeLength="932.35" waitingTime="16.00" waitingCount="2" stopTime="0.00" timeLoss="30.09" rerouteNo="1" devices="tripinfo_h7181c1:1 routing_h7181c1:1 emissions_h7181c1:1" vType="default_016" speedFactor="0.80" vaporized="">
        <emissions CO_abs="4930.021365" CO2_abs="256645.077365" HC_abs="28.450955" PMx_abs="4.816787" NOx_abs="105.882520" fuel_abs="110.321228" electricity_abs="0"/>
    </tripinfo>
    <tripinfo id="h317c2:1" depart="57707.00" departLane="-32978638#0_1" departPos="5.10" departSpeed="0.00" departDelay="0.10" arrival="57754.00" arrivalLane="-266565295#5_1" arrivalPos="172.76" arrivalSpeed="13.91" duration="47.00" routeLength="370.53" waitingTime="11.00" waitingCount="1" stopTime="0.00" timeLoss="21.13" rerouteNo="1" devices="tripinfo_h317c2:1 routing_h317c2:1 emissions_h317c2:1" vType="default_016" speedFactor="1.08" vaporized="">
        <emissions CO_abs="3105.352641" CO2_abs="144502.658197" HC_abs="17.556338" PMx_abs="2.773741" NOx_abs="60.351083" fuel_abs="62.115946" electricity_abs="0"/>
    </tripinfo>
    <tripinfo id="carIn30817:1" depart="57681.00" departLane="315358244_1" departPos="5.10" departSpeed="0.00" departDelay="0.20" arrival="57765.00" arrivalLane="447569997#1_1" arrivalPos="180.93" arrivalSpeed="7.59" duration="84.00" routeLength="718.04" waitingTime="9.00" waitingCount="2" stopTime="0.00" timeLoss="22.25" rerouteNo="1" devices="tripinfo_carIn30817:1 routing_carIn30817:1 emissions_carIn30817:1" vType="default_016" speedFactor="1.00" vaporized="">
        <emissions CO_abs="3862.329334" CO2_abs="186611.624953" HC_abs="21.879726" PMx_abs="3.080914" NOx_abs="74.914907" fuel_abs="80.217529" electricity_abs="0"/>
    </tripinfo>
    <tripinfo id="h3154c1:1" depart="57658.00" departLane="24634507_1" departPos="5.10" departSpeed="0.00" departDelay="0.00" arrival="57766.00" arrivalLane="-266565295#5_1" arrivalPos="172.76" arrivalSpeed="14.44" duration="108.00" routeLength="1206.22" waitingTime="11.00" waitingCount="1" stopTime="0.00" timeLoss="26.32" rerouteNo="1" devices="tripinfo_h3154c1:1 routing_h3154c1:1 emissions_h3154c1:1" vType="default_016" speedFactor="1.09" vaporized="">
        <emissions CO_abs="4724.806719" CO2_abs="307050.846479" HC_abs="28.533266" PMx_abs="5.395017" NOx_abs="123.764473" fuel_abs="131.988196" electricity_abs="0"/>
    </tripinfo>
    <tripinfo id="h5979c1:5" depart="57669.00" departLane="399835085#1_1" departPos="5.10" departSpeed="0.00" departDelay="0.00" arrival="57771.00" arrivalLane="-315358254#1_1" arrivalPos="137.16" arrivalSpeed="14.54" duration="102.00" routeLength="659.33" waitingTime="4.00" waitingCount="1" stopTime="0.00" timeLoss="34.96" rerouteNo="1" devices="tripinfo_h5979c1:5 routing_h5979c1:5 emissions_h5979c1:5" vType="default_016" speedFactor="1.09" vaporized="">
        <emissions CO_abs="4720.929308" CO2_abs="209636.868088" HC_abs="26.370162" PMx_abs="3.729396" NOx_abs="86.912665" fuel_abs="90.115056" electricity_abs="0"/>
    </tripinfo>
    <tripinfo id="h645c1:1" depart="57622.00" departLane="266565295#5_1" departPos="5.10" departSpeed="0.00" departDelay="0.40" arrival="57775.00" arrivalLane="-315358244_1" arrivalPos="33.95" arrivalSpeed="13.47" duration="153.00" routeLength="1910.83" waitingTime="4.00" waitingCount="1" stopTime="0.00" timeLoss="19.70" rerouteNo="1" devices="tripinfo_h645c1:1 routing_h645c1:1 emissions_h645c1:1" vType="default_016" speedFactor="1.04" vaporized="">
        <emissions CO_abs="3824.482610" CO2_abs="346783.623168" HC_abs="25.325689" PMx_abs="5.393030" NOx_abs="134.382810" fuel_abs="149.067518" electricity_abs="0"/>
    </tripinfo>
    <tripinfo id="carIn12365:1" depart="57713.00" departLane="315358244_1" departPos="5.10" departSpeed="0.00" departDelay="0.50" arrival="57777.00" arrivalLane="447569997#1_1" arrivalPos="180.93" arrivalSpeed="8.71" duration="64.00" routeLength="718.04" waitingTime="0.00" waitingCount="0" stopTime="0.00" timeLoss="7.55" rerouteNo="1" devices="tripinfo_carIn12365:1 routing_carIn12365:1 emissions_carIn12365:1" vType="default_016" speedFactor="1.09" vaporized="">
        <emissions CO_abs="2149.107821" CO2_abs="149577.757313" HC_abs="13.242048" PMx_abs="2.380482" NOx_abs="59.044768" fuel_abs="64.297390" electricity_abs="0"/>
    </tripinfo>
    <tripinfo id="h3326c1:2" depart="57656.00" departLane="22716069#0_1" departPos="5.10" departSpeed="0.00" departDelay="0.00" arrival="57778.00" arrivalLane="24634517#13_1" arrivalPos="111.62" arrivalSpeed="12.53" duration="122.00" routeLength="1312.81" waitingTime="3.00" waitingCount="1" stopTime="0.00" timeLoss="20.32" rerouteNo="1" devices="tripinfo_h3326c1:2 routing_h3326c1:2 emissions_h3326c1:2" vType="default_016" speedFactor="0.96" vaporized="">
        <emissions CO_abs="4105.200842" CO2_abs="289752.422114" HC_abs="25.487373" PMx_abs="4.933713" NOx_abs="116.907521" fuel_abs="124.552193" electricity_abs="0"/>
    </tripinfo>
    <tripinfo id="carIn118591:1" depart="57689.00" departLane="315358244_1" departPos="5.10" departSpeed="0.00" departDelay="0.20" arrival="57785.00" arrivalLane="386687235_1" arrivalPos="80.84" arrivalSpeed="13.96" duration="96.00" routeLength="1186.14" waitingTime="1.00" waitingCount="1" stopTime="0.00" timeLoss="14.34" rerouteNo="1" devices="tripinfo_carIn118591:1 routing_carIn118591:1 emissions_carIn118591:1" vType="default_016" speedFactor="1.06" vaporized="">
        <emissions CO_abs="3053.185901" CO2_abs="251379.850799" HC_abs="19.643512" PMx_abs="4.025510" NOx_abs="98.513641" fuel_abs="108.057523" electricity_abs="0"/>
    </tripinfo>
    <tripinfo id="h330c1:1" depart="57736.00" departLane="-32978638#0_1" departPos="5.10" departSpeed="0.00" departDelay="0.20" arrival="57786.00" arrivalLane="-266565295#5_1" arrivalPos="172.76" arrivalSpeed="13.56" duration="50.00" routeLength="370.53" waitingTime="12.00" waitingCount="1" stopTime="0.00" timeLoss="21.83" rerouteNo="1" devices="tripinfo_h330c1:1 routing_h330c1:1 emissions_h330c1:1" vType="default_016" speedFactor="0.99" vaporized="">
        <emissions CO_abs="3007.823655" CO2_abs="133563.310851" HC_abs="16.836635" PMx_abs="2.513873" NOx_abs="55.669135" fuel_abs="57.413728" electricity_abs="0"/>
    </tripinfo>
    <tripinfo id="carIn27009:1" depart="57673.00" departLane="-447569998#1_1" departPos="5.10" departSpeed="0.00" departDelay="0.50" arrival="57787.00" arrivalLane="-26677539_1" arrivalPos="152.75" arrivalSpeed="8.36" duration="114.00" routeLength="699.63" waitingTime="24.00" waitingCount="1" stopTime="0.00" timeLoss="39.98" rerouteNo="1" devices="tripinfo_carIn27009:1 routing_carIn27009:1 emissions_carIn27009:1" vType="default_015" speedFactor="1.13" vaporized="">
        <emissions CO_abs="7172.387626" CO2_abs="250228.286797" HC_abs="38.471766" PMx_abs="4.663355" NOx_abs="105.015838" fuel_abs="107.564792" electricity_abs="0"/>
    </tripinfo>
    <tripinfo id="carIn86816:1" depart="57617.00" departLane="128361102#0_1" departPos="5.10" departSpeed="0.00" departDelay="0.80" arrival="57799.00" arrivalLane="201956811#0_1" arrivalPos="40.40" arrivalSpeed="12.40" duration="182.00" routeLength="2067.33" waitingTime="3.00" waitingCount="1" stopTime="0.00" timeLoss="24.63" rerouteNo="1" devices="tripinfo_carIn86816:1 routing_carIn86816:1 emissions_carIn86816:1" vType="default_016" speedFactor="0.96" vaporized="">
        <emissions CO_abs="5342.934005" CO2_abs="416814.238595" HC_abs="34.049709" PMx_abs="6.676957" NOx_abs="164.746241" fuel_abs="179.170877" electricity_abs="0"/>
    </tripinfo>
    <tripinfo id="carIn48184:1" depart="57613.00" departLane="-306240162#1_0" departPos="5.10" departSpeed="0.00" departDelay="0.70" arrival="57803.00" arrivalLane="386687235_1" arrivalPos="80.84" arrivalSpeed="14.12" duration="190.00" routeLength="2257.41" waitingTime="25.00" waitingCount="2" stopTime="0.00" timeLoss="51.99" rerouteNo="1" devices="tripinfo_carIn48184:1 routing_carIn48184:1 emissions_carIn48184:1" vType="default_016" speedFactor="1.08" vaporized="">
        <emissions CO_abs="9560.673374" CO2_abs="558086.136681" HC_abs="56.711904" PMx_abs="10.416142" NOx_abs="227.360352" fuel_abs="239.897787" electricity_abs="0"/>
    </tripinfo>
    <tripinfo id="carIn102915:1" depart="57643.00" departLane="128361102#0_1" departPos="5.10" departSpeed="0.00" departDelay="0.40" arrival="57803.00" arrivalLane="201956811#0_1" arrivalPos="40.40" arrivalSpeed="14.74" duration="160.00" routeLength="2067.33" waitingTime="0.00" waitingCount="0" stopTime="0.00" timeLoss="18.17" rerouteNo="1" devices="tripinfo_carIn102915:1 routing_carIn102915:1 emissions_carIn102915:1" vType="default_016" speedFactor="1.07" vaporized="">
        <emissions CO_abs="4760.268220" CO2_abs="439910.158833" HC_abs="31.813590" PMx_abs="7.001130" NOx_abs="171.693179" fuel_abs="189.098323" electricity_abs="0"/>
    </tripinfo>
    <tripinfo id="carIn82220:1" depart="57619.00" departLane="-306240162#1_0" departPos="5.10" departSpeed="0.00" departDelay="3.50" arrival="57804.00" arrivalLane="386687235_2" arrivalPos="80.84" arrivalSpeed="13.83" duration="185.00" routeLength="2257.41" waitingTime="8.00" waitingCount="3" stopTime="0.00" timeLoss="42.14" rerouteNo="1" devices="tripinfo_carIn82220:1 routing_carIn82220:1 emissions_carIn82220:1" vType="default_016" speedFactor="1.04" vaporized="">
        <emissions CO_abs="7479.147192" CO2_abs="532400.495615" HC_abs="46.671603" PMx_abs="9.756359" NOx_abs="216.230777" fuel_abs="228.855435" electricity_abs="0"/>
    </tripinfo>
    <tripinfo id="carIn462:1" depart="57622.00" departLane="-306240162#1_0" departPos="5.10" departSpeed="0.00" departDelay="4.80" arrival="57805.00" arrivalLane="386687235_1" arrivalPos="80.84" arrivalSpeed="15.14" duration="183.00" routeLength="2257.41" waitingTime="14.00" waitingCount="2" stopTime="0.00" timeLoss="49.62" rerouteNo="1" devices="tripinfo_carIn462:1 routing_carIn462:1 emissions_carIn462:1" vType="default_016" speedFactor="1.12" vaporized="">
        <emissions CO_abs="9161.071726" CO2_abs="581985.526851" HC_abs="55.431545" PMx_abs="11.054457" NOx_abs="238.842472" fuel_abs="250.170078" electricity_abs="0"/>
    </tripinfo>
    <tripinfo id="h11737c1:1" depart="57665.00" departLane="272042143_1" departPos="5.10" departSpeed="0.00" departDelay="1.50" arrival="57807.00" arrivalLane="-315358254#1_1" arrivalPos="137.16" arrivalSpeed="12.33" duration="142.00" routeLength="1596.88" waitingTime="4.00" waitingCount="1" stopTime="0.00" timeLoss="22.66" rerouteNo="1" devices="tripinfo_h11737c1:1 routing_h11737c1:1 emissions_h11737c1:1" vType="default_016" speedFactor="0.98" vaporized="">
        <emissions CO_abs="4255.102774" CO2_abs="325929.772695" HC_abs="26.973774" PMx_abs="5.263537" NOx_abs="129.058215" fuel_abs="140.103478" electricity_abs="0"/>
    </tripinfo>
    <tripinfo id="h16072c2:3" depart="57663.00" departLane="315358254#0_1" departPos="5.10" departSpeed="0.00" departDelay="2.50" arrival="57808.00" arrivalLane="386687235_1" arrivalPos="80.84" arrivalSpeed="13.95" duration="145.00" routeLength="1611.92" waitingTime="11.00" waitingCount="1" stopTime="0.00" timeLoss="30.26" rerouteNo="1" devices="tripinfo_h16072c2:3 routing_h16072c2:3 emissions_h16072c2:3" vType="default_016" speedFactor="1.03" vaporized="">
        <emissions CO_abs="5027.088405" CO2_abs="342478.288548" HC_abs="30.889285" PMx_abs="5.643453" NOx_abs="135.593352" fuel_abs="147.217369" electricity_abs="0"/>
    </tripinfo>
    <tripinfo id="carIn107084:1" depart="57601.00" departLane="124812856#0_1" departPos="5.10" departSpeed="0.00" departDelay="0.70" arrival="57809.00" arrivalLane="-128361102#1_1" arrivalPos="274.68" arrivalSpeed="11.80" duration="208.00" routeLength="2250.49" waitingTime="0.00" waitingCount="0" stopTime="0.00" timeLoss="18.41" rerouteNo="1" devices="tripinfo_carIn107084:1 routing_carIn107084:1 emissions_carIn107084:1" vType="default_016" speedFactor="0.86" vaporized="">
        <emissions CO_abs="5625.163947" CO2_abs="438903.238471" HC_abs="35.748723" PMx_abs="6.563295" NOx_abs="171.190506" fuel_abs="188.666644" electricity_abs="0"/>
    </tripinfo>
    <tripinfo id="carIn77943:1" depart="57608.00" departLane="124812856#0_1" departPos="5.10" departSpeed="0.00" departDelay="2.50" arrival="57811.00" arrivalLane="-128361102#1_1" arrivalPos="274.68" arrivalSpeed="12.30" duration="203.00" routeLength="2250.49" waitingTime="0.00" waitingCount="0" stopTime="0.00" timeLoss="33.54" rerouteNo="1" devices="tripinfo_carIn77943:1 routing_carIn77943:1 emissions_carIn77943:1" vType="default_016" speedFactor="0.97" vaporized="">
        <emissions CO_abs="6471.239996" CO2_abs="478148.177401" HC_abs="40.645423" PMx_abs="7.969509" NOx_abs="192.018560" fuel_abs="205.535463" electricity_abs="0"/>
    </tripinfo>
    <tripinfo id="carIn81046:1" depart="57611.00" departLane="124812856#0_1" departPos="5.10" departSpeed="0.00" departDelay="2.50" arrival="57813.00" arrivalLane="-128361102#1_1" arrivalPos="274.68" arrivalSpeed="11.82" duration="202.00" routeLength="2250.49" waitingTime="0.00" waitingCount="0" stopTime="0.00" timeLoss="25.17" rerouteNo="1" devices="tripinfo_carIn81046:1 routing_carIn81046:1 emissions_carIn81046:1" vType="default_016" speedFactor="0.93" vaporized="">
        <emissions CO_abs="6096.718117" CO2_abs="479834.979489" HC_abs="38.964638" PMx_abs="7.797011" NOx_abs="191.040029" fuel_abs="206.260553" electricity_abs="0"/>
    </tripinfo>
    <tripinfo id="carIn82278:1" depart="57702.00" departLane="-306240162#1_0" departPos="5.10" departSpeed="0.00" departDelay="0.70" arrival="57813.00" arrivalLane="399835085#1_1" arrivalPos="212.23" arrivalSpeed="7.44" duration="111.00" routeLength="1093.26" waitingTime="12.00" waitingCount="1" stopTime="0.00" timeLoss="36.13" rerouteNo="1" devices="tripinfo_carIn82278:1 routing_carIn82278:1 emissions_carIn82278:1" vType="default_016" speedFactor="1.05" vaporized="">
        <emissions CO_abs="6802.825166" CO2_abs="362956.232348" HC_abs="39.511111" PMx_abs="7.055708" NOx_abs="150.801548" fuel_abs="156.019582" electricity_abs="0"/>
    </tripinfo>
    <tripinfo id="carIn129809:1" depart="57729.00" departLane="-447569998#1_1" departPos="5.10" departSpeed="0.00" departDelay="1.00" arrival="57813.00" arrivalLane="-315358244_1" arrivalPos="33.95" arrivalSpeed="13.99" duration="84.00" routeLength="706.49" waitingTime="10.00" waitingCount="2" stopTime="0.00" timeLoss="24.97" rerouteNo="1" devices="tripinfo_carIn129809:1 routing_carIn129809:1 emissions_carIn129809:1" vType="default_015" speedFactor="1.02" vaporized="">
        <emissions CO_abs="3874.694634" CO2_abs="197831.944387" HC_abs="22.260759" PMx_abs="3.455253" NOx_abs="80.745419" fuel_abs="85.040251" electricity_abs="0"/>
    </tripinfo>
    <tripinfo id="h19804c1:3" depart="57617.00" departLane="124812856#0_1" departPos="5.10" departSpeed="0.00" departDelay="1.50" arrival="57814.00" arrivalLane="-128361102#1_1" arrivalPos="274.68" arrivalSpeed="13.59" duration="197.00" routeLength="2250.49" waitingTime="0.00" waitingCount="0" stopTime="0.00" timeLoss="46.76" rerouteNo="1" devices="tripinfo_h19804c1:3 routing_h19804c1:3 emissions_h19804c1:3" vType="default_016" speedFactor="1.09" vaporized="">
        <emissions CO_abs="7826.401326" CO2_abs="564259.992333" HC_abs="48.889875" PMx_abs="9.980298" NOx_abs="230.200138" fuel_abs="242.550538" electricity_abs="0"/>
    </tripinfo>
    <tripinfo id="carIn107842:1" depart="57623.00" departLane="124812856#0_1" departPos="5.10" departSpeed="0.00" departDelay="1.90" arrival="57816.00" arrivalLane="-128361102#1_1" arrivalPos="274.68" arrivalSpeed="14.46" duration="193.00" routeLength="2250.49" waitingTime="0.00" waitingCount="0" stopTime="0.00" timeLoss="41.84" rerouteNo="1" devices="tripinfo_carIn107842:1 routing_carIn107842:1 emissions_carIn107842:1" vType="default_016" speedFactor="1.09" vaporized="">
        <emissions CO_abs="7353.352720" CO2_abs="554688.160787" HC_abs="46.549959" PMx_abs="9.636628" NOx_abs="224.530934" fuel_abs="238.436081" electricity_abs="0"/>
    </tripinfo>
    <tripinfo id="carIn50326:1" depart="57651.00" departLane="128361102#0_1" departPos="5.10" departSpeed="0.00" departDelay="0.30" arrival="57816.00" arrivalLane="18809673#0_1" arrivalPos="473.56" arrivalSpeed="12.11" duration="165.00" routeLength="1591.07" waitingTime="4.00" waitingCount="1" stopTime="0.00" timeLoss="23.07" rerouteNo="1" devices="tripinfo_carIn50326:1 routing_carIn50326:1 emissions_carIn50326:1" vType="default_016" speedFactor="0.92" vaporized="">
        <emissions CO_abs="5327.653568" CO2_abs="359533.173416" HC_abs="32.574651" PMx_abs="5.579373" NOx_abs="141.795577" fuel_abs="154.548962" electricity_abs="0"/>
    </tripinfo>
    <tripinfo id="carIn77438:1" depart="57614.00" departLane="124812856#0_1" departPos="5.10" departSpeed="0.00" departDelay="1.10" arrival="57818.00" arrivalLane="-128361102#1_1" arrivalPos="274.68" arrivalSpeed="15.97" duration="204.00" routeLength="2232.46" waitingTime="13.00" waitingCount="1" stopTime="0.00" timeLoss="67.16" rerouteNo="1" devices="tripinfo_carIn77438:1 routing_carIn77438:1 emissions_carIn77438:1" vType="default_016" speedFactor="1.20" vaporized="">
        <emissions CO_abs="10681.968570" CO2_abs="655494.051389" HC_abs="64.115378" PMx_abs="12.466328" NOx_abs="273.094852" fuel_abs="281.768062" electricity_abs="0"/>
    </tripinfo>
    <tripinfo id="carIn81860:1" depart="57712.00" departLane="128361102#0_1" departPos="5.10" departSpeed="0.00" departDelay="0.60" arrival="57819.00" arrivalLane="-24634517#17_1" arrivalPos="6.43" arrivalSpeed="8.01" duration="107.00" routeLength="1229.64" waitingTime="0.00" waitingCount="0" stopTime="0.00" timeLoss="12.82" rerouteNo="1" devices="tripinfo_carIn81860:1 routing_carIn81860:1 emissions_carIn81860:1" vType="default_016" speedFactor="0.95" vaporized="">
        <emissions CO_abs="3409.082511" CO2_abs="267507.405660" HC_abs="21.756210" PMx_abs="4.254697" NOx_abs="105.536152" fuel_abs="114.990190" electricity_abs="0"/>
    </tripinfo>
    <tripinfo id="h15382c1:3" depart="57626.00" departLane="124812856#0_1" departPos="5.10" departSpeed="0.00" departDelay="3.80" arrival="57820.00" arrivalLane="-128361102#1_1" arrivalPos="274.68" arrivalSpeed="12.00" duration="194.00" routeLength="2250.49" waitingTime="0.00" waitingCount="0" stopTime="0.00" timeLoss="18.79" rerouteNo="1" devices="tripinfo_h15382c1:3 routing_h15382c1:3 emissions_h15382c1:3" vType="default_016" speedFactor="0.94" vaporized="">
        <emissions CO_abs="5275.241230" CO2_abs="432076.875401" HC_abs="34.093392" PMx_abs="6.858716" NOx_abs="170.371864" fuel_abs="185.731512" electricity_abs="0"/>
    </tripinfo>
    <tripinfo id="carIn12858:1" depart="57661.00" departLane="128361109#1_1" departPos="5.10" departSpeed="0.00" departDelay="0.90" arrival="57820.00" arrivalLane="399835085#1_1" arrivalPos="212.23" arrivalSpeed="6.97" duration="159.00" routeLength="1738.12" waitingTime="6.00" waitingCount="1" stopTime="0.00" timeLoss="36.55" rerouteNo="1" devices="tripinfo_carIn12858:1 routing_carIn12858:1 emissions_carIn12858:1" vType="default_016" speedFactor="0.94" vaporized="">
        <emissions CO_abs="7925.613366" CO2_abs="484917.472919" HC_abs="47.608583" PMx_abs="9.058272" NOx_abs="199.092842" fuel_abs="208.445174" electricity_abs="0"/>
    </tripinfo>
    <tripinfo id="randUni33724:1" depart="57646.00" departLane="128361102#0_1" departPos="5.10" departSpeed="0.00" departDelay="1.20" arrival="57821.00" arrivalLane="201956811#0_1" arrivalPos="40.40" arrivalSpeed="12.37" duration="175.00" routeLength="2067.33" waitingTime="0.00" waitingCount="0" stopTime="0.00" timeLoss="18.18" rerouteNo="1" devices="tripinfo_randUni33724:1 routing_randUni33724:1 emissions_randUni33724:1" vType="random_016" speedFactor="0.96" vaporized="">
        <emissions CO_abs="5140.882809" CO2_abs="426979.291517" HC_abs="33.336471" PMx_abs="6.760543" NOx_abs="167.960420" fuel_abs="183.540266" electricity_abs="0"/>
    </tripinfo>
    <tripinfo id="carIn3969:1" depart="57629.00" departLane="124812856#0_1" departPos="5.10" departSpeed="0.00" departDelay="5.30" arrival="57822.00" arrivalLane="-128361102#1_1" arrivalPos="274.68" arrivalSpeed="13.35" duration="193.00" routeLength="2250.49" waitingTime="0.00" waitingCount="0" stopTime="0.00" timeLoss="24.14" rerouteNo="1" devices="tripinfo_carIn3969:1 routing_carIn3969:1 emissions_carIn3969:1" vType="default_016" speedFactor="0.98" vaporized="">
        <emissions CO_abs="6329.863420" CO2_abs="489885.547089" HC_abs="40.316855" PMx_abs="8.266265" NOx_abs="196.690005" fuel_abs="210.580518" electricity_abs="0"/>
    </tripinfo>
    <tripinfo id="carIn56649:1" depart="57632.00" departLane="124812856#0_1" departPos="5.10" departSpeed="0.00" departDelay="8.10" arrival="57823.00" arrivalLane="-128361102#1_1" arrivalPos="274.68" arrivalSpeed="14.12" duration="191.00" routeLength="2250.49" waitingTime="0.00" waitingCount="0" stopTime="0.00" timeLoss="40.39" rerouteNo="1" devices="tripinfo_carIn56649:1 routing_carIn56649:1 emissions_carIn56649:1" vType="default_016" speedFactor="1.09" vaporized="">
        <emissions CO_abs="7388.748029" CO2_abs="550162.914240" HC_abs="46.605002" PMx_abs="9.659956" NOx_abs="223.444163" fuel_abs="236.490790" electricity_abs="0"/>
    </tripinfo>