<?xml version="1.0" encoding="UTF-8"?>

<!-- generated on 2021-10-26 13:45:17 by Eclipse SUMO sumo Version 1.10.0
<configuration xmlns:xsi="http://www.w3.org/2001/XMLSchema-instance" xsi:noNamespaceSchemaLocation="http://sumo.dlr.de/xsd/sumoConfiguration.xsd">

    <input>
        <net-file value="/Users/behradkoohy/sumo-scratchpad/RESCO/environments/ingolstadt21/ingolstadt21.net.xml"/>
        <route-files value="/Users/behradkoohy/sumo-scratchpad/RESCO/environments/ingolstadt21/ingolstadt21.rou.xml"/>
    </input>

    <output>
        <tripinfo-output value="/Users/behradkoohy/sumo-scratchpad/RESCO/logs/MAXPRESSURE-tr0-ingolstadt21-21-mplight-wait/tripinfo_86.xml"/>
        <tripinfo-output.write-unfinished value="true"/>
    </output>

    <time>
        <begin value="57600"/>
        <end value="61200"/>
    </time>

    <processing>
        <time-to-teleport value="-1"/>
    </processing>

    <report>
        <no-warnings value="true"/>
        <no-step-log value="true"/>
    </report>

    <emissions>
        <device.emissions.probability value="1"/>
    </emissions>

    <traci_server>
        <remote-port value="59692"/>
    </traci_server>

    <random_number>
        <random value="true"/>
    </random_number>

</configuration>
-->

<tripinfos xmlns:xsi="http://www.w3.org/2001/XMLSchema-instance" xsi:noNamespaceSchemaLocation="http://sumo.dlr.de/xsd/tripinfo_file.xsd">
    <tripinfo id="h15454c2:3" depart="57612.00" departLane="24608844_1" departPos="5.10" departSpeed="0.00" departDelay="0.50" arrival="57654.00" arrivalLane="32978638#0_1" arrivalPos="49.29" arrivalSpeed="12.92" duration="42.00" routeLength="354.79" waitingTime="0.00" waitingCount="0" stopTime="0.00" timeLoss="5.62" rerouteNo="1" devices="tripinfo_h15454c2:3 routing_h15454c2:3 emissions_h15454c2:3" vType="default_016" speedFactor="0.95" vaporized="">
        <emissions CO_abs="2138.260154" CO2_abs="112063.662289" HC_abs="12.354009" PMx_abs="1.985521" NOx_abs="46.270721" fuel_abs="48.171678" electricity_abs="0"/>
    </tripinfo>
    <tripinfo id="carIn60260:1" depart="57606.00" departLane="315358254#0_1" departPos="5.10" departSpeed="0.00" departDelay="0.90" arrival="57661.00" arrivalLane="399835085#1_1" arrivalPos="212.23" arrivalSpeed="7.35" duration="55.00" routeLength="430.98" waitingTime="0.00" waitingCount="0" stopTime="0.00" timeLoss="7.19" rerouteNo="1" devices="tripinfo_carIn60260:1 routing_carIn60260:1 emissions_carIn60260:1" vType="default_016" speedFactor="0.98" vaporized="">
        <emissions CO_abs="2326.300148" CO2_abs="115947.251081" HC_abs="13.266337" PMx_abs="1.898560" NOx_abs="46.939279" fuel_abs="49.841405" electricity_abs="0"/>
    </tripinfo>
    <tripinfo id="carIn53971:1" depart="57640.00" departLane="272042143_1" departPos="5.10" departSpeed="0.00" departDelay="0.80" arrival="57691.00" arrivalLane="24634414#1_1" arrivalPos="162.19" arrivalSpeed="7.83" duration="51.00" routeLength="493.04" waitingTime="0.00" waitingCount="0" stopTime="0.00" timeLoss="8.72" rerouteNo="1" devices="tripinfo_carIn53971:1 routing_carIn53971:1 emissions_carIn53971:1" vType="default_016" speedFactor="1.08" vaporized="">
        <emissions CO_abs="2485.426197" CO2_abs="148068.563890" HC_abs="14.797063" PMx_abs="2.648225" NOx_abs="60.893423" fuel_abs="63.648456" electricity_abs="0"/>
    </tripinfo>
    <tripinfo id="h12244c1:3" depart="57612.00" departLane="315358244_1" departPos="5.10" departSpeed="0.00" departDelay="0.40" arrival="57697.00" arrivalLane="386687235_1" arrivalPos="80.84" arrivalSpeed="15.21" duration="85.00" routeLength="1186.14" waitingTime="0.00" waitingCount="0" stopTime="0.00" timeLoss="7.89" rerouteNo="1" devices="tripinfo_h12244c1:3 routing_h12244c1:3 emissions_h12244c1:3" vType="default_016" speedFactor="1.12" vaporized="">
        <emissions CO_abs="2432.892452" CO2_abs="234950.425302" HC_abs="16.459173" PMx_abs="3.788757" NOx_abs="91.451785" fuel_abs="100.994890" electricity_abs="0"/>
    </tripinfo>
    <tripinfo id="S5R_frequency1.2" depart="57616.00" departLane="315358250#0_1" departPos="12.10" departSpeed="0.00" departDelay="4.40" arrival="57710.00" arrivalLane="386687235_1" arrivalPos="80.84" arrivalSpeed="13.69" duration="94.00" routeLength="1115.62" waitingTime="0.00" waitingCount="0" stopTime="0.00" timeLoss="12.31" rerouteNo="1" devices="tripinfo_S5R_frequency1.2 routing_S5R_frequency1.2 emissions_S5R_frequency1.2" vType="bus" speedFactor="1.00" vaporized="">
        <emissions CO_abs="1880.559991" CO2_abs="1193314.377542" HC_abs="398.275549" PMx_abs="202.109541" NOx_abs="9215.209615" fuel_abs="508.943184" electricity_abs="0"/>
    </tripinfo>
    <tripinfo id="h9563c2:5" depart="57631.00" departLane="315358244_1" departPos="5.10" departSpeed="0.00" departDelay="0.70" arrival="57712.00" arrivalLane="386687235_1" arrivalPos="80.84" arrivalSpeed="16.57" duration="81.00" routeLength="1186.14" waitingTime="0.00" waitingCount="0" stopTime="0.00" timeLoss="11.04" rerouteNo="1" devices="tripinfo_h9563c2:5 routing_h9563c2:5 emissions_h9563c2:5" vType="default_016" speedFactor="1.25" vaporized="">
        <emissions CO_abs="2748.696342" CO2_abs="247503.888620" HC_abs="18.287780" PMx_abs="4.270325" NOx_abs="97.753326" fuel_abs="106.390856" electricity_abs="0"/>
    </tripinfo>
    <tripinfo id="h7800c1:5" depart="57696.00" departLane="-447569998#1_1" departPos="5.10" departSpeed="0.00" departDelay="0.00" arrival="57717.00" arrivalLane="-447569998#1_2" arrivalPos="180.76" arrivalSpeed="8.54" duration="21.00" routeLength="175.66" waitingTime="0.00" waitingCount="0" stopTime="0.00" timeLoss="4.00" rerouteNo="1" devices="tripinfo_h7800c1:5 routing_h7800c1:5 emissions_h7800c1:5" vType="default_016" speedFactor="1.26" vaporized="">
        <emissions CO_abs="1131.655402" CO2_abs="58782.073307" HC_abs="6.512434" PMx_abs="0.974839" NOx_abs="23.863421" fuel_abs="25.268166" electricity_abs="0"/>
    </tripinfo>
    <tripinfo id="carIn22761:1" depart="57616.00" departLane="-306240162#1_0" departPos="5.10" departSpeed="0.00" departDelay="2.10" arrival="57721.00" arrivalLane="399835085#1_1" arrivalPos="212.23" arrivalSpeed="9.00" duration="105.00" routeLength="1093.26" waitingTime="9.00" waitingCount="1" stopTime="0.00" timeLoss="33.06" rerouteNo="1" devices="tripinfo_carIn22761:1 routing_carIn22761:1 emissions_carIn22761:1" vType="default_016" speedFactor="1.09" vaporized="">
        <emissions CO_abs="5046.047444" CO2_abs="296479.612719" HC_abs="29.998121" PMx_abs="5.601172" NOx_abs="122.398436" fuel_abs="127.443882" electricity_abs="0"/>
    </tripinfo>
    <tripinfo id="h3688c1:1" depart="57625.00" departLane="201201950#1_1" departPos="5.10" departSpeed="0.00" departDelay="0.00" arrival="57730.00" arrivalLane="32978638#0_1" arrivalPos="49.29" arrivalSpeed="13.93" duration="105.00" routeLength="1089.75" waitingTime="13.00" waitingCount="1" stopTime="0.00" timeLoss="27.63" rerouteNo="1" devices="tripinfo_h3688c1:1 routing_h3688c1:1 emissions_h3688c1:1" vType="default_016" speedFactor="1.03" vaporized="">
        <emissions CO_abs="5301.651833" CO2_abs="302150.530552" HC_abs="31.228990" PMx_abs="5.380732" NOx_abs="122.934466" fuel_abs="129.882172" electricity_abs="0"/>
    </tripinfo>
    <tripinfo id="h3568c1:3" depart="57656.00" departLane="266565295#5_1" departPos="5.10" departSpeed="0.00" departDelay="0.80" arrival="57731.00" arrivalLane="-24634415_1" arrivalPos="62.03" arrivalSpeed="13.87" duration="75.00" routeLength="807.40" waitingTime="0.00" waitingCount="0" stopTime="0.00" timeLoss="12.94" rerouteNo="1" devices="tripinfo_h3568c1:3 routing_h3568c1:3 emissions_h3568c1:3" vType="default_016" speedFactor="1.03" vaporized="">
        <emissions CO_abs="3199.205338" CO2_abs="211963.121222" HC_abs="19.526193" PMx_abs="3.667360" NOx_abs="85.782308" fuel_abs="91.113982" electricity_abs="0"/>
    </tripinfo>
    <tripinfo id="h7181c1:1" depart="57660.00" departLane="315358254#0_1" departPos="5.10" departSpeed="0.00" departDelay="0.10" arrival="57742.00" arrivalLane="306240162#0_0" arrivalPos="220.43" arrivalSpeed="14.64" duration="82.00" routeLength="932.35" waitingTime="13.00" waitingCount="1" stopTime="0.00" timeLoss="25.83" rerouteNo="1" devices="tripinfo_h7181c1:1 routing_h7181c1:1 emissions_h7181c1:1" vType="default_016" speedFactor="0.92" vaporized="">
        <emissions CO_abs="4259.757705" CO2_abs="242898.605042" HC_abs="25.036183" PMx_abs="4.494685" NOx_abs="98.447597" fuel_abs="104.412061" electricity_abs="0"/>
    </tripinfo>
    <tripinfo id="h5979c1:5" depart="57669.00" departLane="399835085#1_1" departPos="5.10" departSpeed="0.00" departDelay="0.00" arrival="57749.00" arrivalLane="-315358254#1_1" arrivalPos="137.16" arrivalSpeed="13.62" duration="80.00" routeLength="659.33" waitingTime="0.00" waitingCount="0" stopTime="0.00" timeLoss="9.44" rerouteNo="1" devices="tripinfo_h5979c1:5 routing_h5979c1:5 emissions_h5979c1:5" vType="default_016" speedFactor="1.03" vaporized="">
        <emissions CO_abs="3297.960411" CO2_abs="172199.828256" HC_abs="18.966021" PMx_abs="2.739777" NOx_abs="69.122117" fuel_abs="74.022286" electricity_abs="0"/>
    </tripinfo>
    <tripinfo id="carIn30817:1" depart="57681.00" departLane="315358244_1" departPos="5.10" departSpeed="0.00" departDelay="0.20" arrival="57751.00" arrivalLane="447569997#1_1" arrivalPos="180.93" arrivalSpeed="7.38" duration="70.00" routeLength="718.04" waitingTime="0.00" waitingCount="0" stopTime="0.00" timeLoss="7.08" rerouteNo="1" devices="tripinfo_carIn30817:1 routing_carIn30817:1 emissions_carIn30817:1" vType="default_016" speedFactor="0.98" vaporized="">
        <emissions CO_abs="1968.716727" CO2_abs="141364.755130" HC_abs="12.213920" PMx_abs="2.049146" NOx_abs="54.555584" fuel_abs="60.767207" electricity_abs="0"/>
    </tripinfo>
    <tripinfo id="h317c2:1" depart="57707.00" departLane="-32978638#0_1" departPos="5.10" departSpeed="0.00" departDelay="0.10" arrival="57759.00" arrivalLane="-266565295#5_1" arrivalPos="172.76" arrivalSpeed="11.21" duration="52.00" routeLength="370.53" waitingTime="9.00" waitingCount="1" stopTime="0.00" timeLoss="18.65" rerouteNo="1" devices="tripinfo_h317c2:1 routing_h317c2:1 emissions_h317c2:1" vType="default_016" speedFactor="0.82" vaporized="">
        <emissions CO_abs="2669.203802" CO2_abs="113239.344027" HC_abs="14.795248" PMx_abs="2.061647" NOx_abs="47.046213" fuel_abs="48.677414" electricity_abs="0"/>
    </tripinfo>
    <tripinfo id="carIn80064:1" depart="57603.00" departLane="128361109#1_1" departPos="5.10" departSpeed="0.00" departDelay="0.40" arrival="57760.00" arrivalLane="-315358254#1_1" arrivalPos="137.16" arrivalSpeed="13.02" duration="157.00" routeLength="1587.97" waitingTime="35.00" waitingCount="2" stopTime="0.00" timeLoss="64.14" rerouteNo="1" devices="tripinfo_carIn80064:1 routing_carIn80064:1 emissions_carIn80064:1" vType="default_016" speedFactor="0.97" vaporized="">
        <emissions CO_abs="11177.094181" CO2_abs="533681.959506" HC_abs="63.622288" PMx_abs="10.552788" NOx_abs="222.079176" fuel_abs="229.408222" electricity_abs="0"/>
    </tripinfo>
    <tripinfo id="h645c1:1" depart="57622.00" departLane="266565295#5_1" departPos="5.10" departSpeed="0.00" departDelay="0.40" arrival="57761.00" arrivalLane="-315358244_1" arrivalPos="33.95" arrivalSpeed="13.98" duration="139.00" routeLength="1910.83" waitingTime="0.00" waitingCount="0" stopTime="0.00" timeLoss="10.68" rerouteNo="1" devices="tripinfo_h645c1:1 routing_h645c1:1 emissions_h645c1:1" vType="default_016" speedFactor="1.08" vaporized="">
        <emissions CO_abs="3294.485327" CO2_abs="335110.061358" HC_abs="22.751236" PMx_abs="5.314013" NOx_abs="129.922654" fuel_abs="144.049125" electricity_abs="0"/>
    </tripinfo>
    <tripinfo id="h3326c1:2" depart="57656.00" departLane="22716069#0_1" departPos="5.10" departSpeed="0.00" departDelay="0.00" arrival="57772.00" arrivalLane="24634517#13_1" arrivalPos="111.62" arrivalSpeed="12.42" duration="116.00" routeLength="1312.81" waitingTime="0.00" waitingCount="0" stopTime="0.00" timeLoss="16.33" rerouteNo="1" devices="tripinfo_h3326c1:2 routing_h3326c1:2 emissions_h3326c1:2" vType="default_016" speedFactor="0.98" vaporized="">
        <emissions CO_abs="4042.886172" CO2_abs="297984.782266" HC_abs="25.381196" PMx_abs="4.949662" NOx_abs="119.096821" fuel_abs="128.091004" electricity_abs="0"/>
    </tripinfo>
    <tripinfo id="carIn107084:1" depart="57601.00" departLane="124812856#0_1" departPos="5.10" departSpeed="0.00" departDelay="0.70" arrival="57773.00" arrivalLane="-128361102#1_1" arrivalPos="274.68" arrivalSpeed="14.55" duration="172.00" routeLength="2250.49" waitingTime="0.00" waitingCount="0" stopTime="0.00" timeLoss="15.75" rerouteNo="1" devices="tripinfo_carIn107084:1 routing_carIn107084:1 emissions_carIn107084:1" vType="default_016" speedFactor="1.06" vaporized="">
        <emissions CO_abs="4624.647899" CO2_abs="449186.913881" HC_abs="31.362247" PMx_abs="7.015008" NOx_abs="174.150806" fuel_abs="193.086025" electricity_abs="0"/>
    </tripinfo>
    <tripinfo id="h3154c1:1" depart="57658.00" departLane="24634507_1" departPos="5.10" departSpeed="0.00" departDelay="0.00" arrival="57778.00" arrivalLane="-266565295#5_1" arrivalPos="172.76" arrivalSpeed="11.69" duration="120.00" routeLength="1206.22" waitingTime="4.00" waitingCount="1" stopTime="0.00" timeLoss="20.60" rerouteNo="1" devices="tripinfo_h3154c1:1 routing_h3154c1:1 emissions_h3154c1:1" vType="default_016" speedFactor="0.90" vaporized="">
        <emissions CO_abs="4040.895318" CO2_abs="271677.981217" HC_abs="24.715794" PMx_abs="4.391269" NOx_abs="108.349656" fuel_abs="116.783259" electricity_abs="0"/>
    </tripinfo>
    <tripinfo id="carIn27009:1" depart="57673.00" departLane="-447569998#1_1" departPos="5.10" departSpeed="0.00" departDelay="0.50" arrival="57781.00" arrivalLane="-26677539_1" arrivalPos="152.75" arrivalSpeed="8.03" duration="108.00" routeLength="699.63" waitingTime="14.00" waitingCount="1" stopTime="0.00" timeLoss="28.62" rerouteNo="1" devices="tripinfo_carIn27009:1 routing_carIn27009:1 emissions_carIn27009:1" vType="default_015" speedFactor="1.06" vaporized="">
        <emissions CO_abs="5131.351924" CO2_abs="197973.634544" HC_abs="27.941838" PMx_abs="3.503715" NOx_abs="82.088519" fuel_abs="85.102058" electricity_abs="0"/>
    </tripinfo>
    <tripinfo id="h330c1:1" depart="57736.00" departLane="-32978638#0_1" departPos="5.10" departSpeed="0.00" departDelay="0.20" arrival="57782.00" arrivalLane="-266565295#5_1" arrivalPos="172.76" arrivalSpeed="16.00" duration="46.00" routeLength="370.53" waitingTime="12.00" waitingCount="1" stopTime="0.00" timeLoss="22.60" rerouteNo="1" devices="tripinfo_h330c1:1 routing_h330c1:1 emissions_h330c1:1" vType="default_016" speedFactor="1.17" vaporized="">
        <emissions CO_abs="3329.224166" CO2_abs="152993.851784" HC_abs="18.739804" PMx_abs="3.014679" NOx_abs="64.281477" fuel_abs="65.765892" electricity_abs="0"/>
    </tripinfo>
    <tripinfo id="carIn12365:1" depart="57713.00" departLane="315358244_1" departPos="5.10" departSpeed="0.00" departDelay="0.50" arrival="57784.00" arrivalLane="447569997#1_1" arrivalPos="180.93" arrivalSpeed="6.96" duration="71.00" routeLength="718.04" waitingTime="0.00" waitingCount="0" stopTime="0.00" timeLoss="7.59" rerouteNo="1" devices="tripinfo_carIn12365:1 routing_carIn12365:1 emissions_carIn12365:1" vType="default_016" speedFactor="0.97" vaporized="">
        <emissions CO_abs="2057.120123" CO2_abs="132097.564208" HC_abs="12.427450" PMx_abs="2.094714" NOx_abs="52.410235" fuel_abs="56.783485" electricity_abs="0"/>
    </tripinfo>
    <tripinfo id="carIn118591:1" depart="57689.00" departLane="315358244_1" departPos="5.10" departSpeed="0.00" departDelay="0.20" arrival="57797.00" arrivalLane="386687235_1" arrivalPos="80.84" arrivalSpeed="10.80" duration="108.00" routeLength="1186.14" waitingTime="0.00" waitingCount="0" stopTime="0.00" timeLoss="8.79" rerouteNo="1" devices="tripinfo_carIn118591:1 routing_carIn118591:1 emissions_carIn118591:1" vType="default_016" speedFactor="0.87" vaporized="">
        <emissions CO_abs="2699.384891" CO2_abs="213709.368570" HC_abs="17.227828" PMx_abs="3.189579" NOx_abs="83.217128" fuel_abs="91.864948" electricity_abs="0"/>
    </tripinfo>
    <tripinfo id="carIn86816:1" depart="57617.00" departLane="128361102#0_1" departPos="5.10" departSpeed="0.00" departDelay="0.80" arrival="57799.00" arrivalLane="201956811#0_1" arrivalPos="40.40" arrivalSpeed="13.07" duration="182.00" routeLength="2067.33" waitingTime="0.00" waitingCount="0" stopTime="0.00" timeLoss="23.44" rerouteNo="1" devices="tripinfo_carIn86816:1 routing_carIn86816:1 emissions_carIn86816:1" vType="default_016" speedFactor="0.95" vaporized="">
        <emissions CO_abs="5186.102432" CO2_abs="425461.222035" HC_abs="33.493662" PMx_abs="6.526736" NOx_abs="165.999084" fuel_abs="182.888094" electricity_abs="0"/>
    </tripinfo>
    <tripinfo id="carIn50326:1" depart="57651.00" departLane="128361102#0_1" departPos="5.10" departSpeed="0.00" departDelay="0.30" arrival="57799.00" arrivalLane="18809673#0_1" arrivalPos="473.56" arrivalSpeed="14.35" duration="148.00" routeLength="1591.07" waitingTime="12.00" waitingCount="1" stopTime="0.00" timeLoss="30.92" rerouteNo="1" devices="tripinfo_carIn50326:1 routing_carIn50326:1 emissions_carIn50326:1" vType="default_016" speedFactor="1.11" vaporized="">
        <emissions CO_abs="5808.936849" CO2_abs="371499.691374" HC_abs="35.047394" PMx_abs="6.368738" NOx_abs="149.267971" fuel_abs="159.692325" electricity_abs="0"/>
    </tripinfo>
    <tripinfo id="carIn102915:1" depart="57643.00" departLane="128361102#0_1" departPos="5.10" departSpeed="0.00" departDelay="0.40" arrival="57803.00" arrivalLane="201956811#0_1" arrivalPos="40.40" arrivalSpeed="13.42" duration="160.00" routeLength="2067.33" waitingTime="0.00" waitingCount="0" stopTime="0.00" timeLoss="16.69" rerouteNo="1" devices="tripinfo_carIn102915:1 routing_carIn102915:1 emissions_carIn102915:1" vType="default_016" speedFactor="1.06" vaporized="">
        <emissions CO_abs="4749.981848" CO2_abs="425087.579532" HC_abs="31.463400" PMx_abs="6.866675" NOx_abs="166.836495" fuel_abs="182.726688" electricity_abs="0"/>
    </tripinfo>
    <tripinfo id="carIn129809:1" depart="57729.00" departLane="-447569998#1_1" departPos="5.10" departSpeed="0.00" departDelay="1.00" arrival="57803.00" arrivalLane="-315358244_1" arrivalPos="33.95" arrivalSpeed="14.90" duration="74.00" routeLength="706.49" waitingTime="10.00" waitingCount="1" stopTime="0.00" timeLoss="20.99" rerouteNo="1" devices="tripinfo_carIn129809:1 routing_carIn129809:1 emissions_carIn129809:1" vType="default_015" speedFactor="1.15" vaporized="">
        <emissions CO_abs="3530.049746" CO2_abs="179286.705385" HC_abs="20.192316" PMx_abs="3.142694" NOx_abs="72.605414" fuel_abs="77.068426" electricity_abs="0"/>
    </tripinfo>
    <tripinfo id="randUni33724:1" depart="57646.00" departLane="128361102#0_1" departPos="5.10" departSpeed="0.00" departDelay="1.20" arrival="57806.00" arrivalLane="201956811#0_1" arrivalPos="40.40" arrivalSpeed="15.88" duration="160.00" routeLength="2067.33" waitingTime="0.00" waitingCount="0" stopTime="0.00" timeLoss="29.15" rerouteNo="1" devices="tripinfo_randUni33724:1 routing_randUni33724:1 emissions_randUni33724:1" vType="random_016" speedFactor="1.16" vaporized="">
        <emissions CO_abs="5670.758698" CO2_abs="483319.902395" HC_abs="37.126290" PMx_abs="8.189478" NOx_abs="192.316478" fuel_abs="207.757877" electricity_abs="0"/>
    </tripinfo>
    <tripinfo id="carIn77943:1" depart="57608.00" departLane="124812856#0_1" departPos="5.10" departSpeed="0.00" departDelay="2.50" arrival="57808.00" arrivalLane="-128361102#1_1" arrivalPos="274.68" arrivalSpeed="12.08" duration="200.00" routeLength="2250.49" waitingTime="0.00" waitingCount="0" stopTime="0.00" timeLoss="18.76" rerouteNo="1" devices="tripinfo_carIn77943:1 routing_carIn77943:1 emissions_carIn77943:1" vType="default_016" speedFactor="0.90" vaporized="">
        <emissions CO_abs="5102.581629" CO2_abs="414446.770855" HC_abs="32.849148" PMx_abs="6.363470" NOx_abs="162.305516" fuel_abs="178.153415" electricity_abs="0"/>
    </tripinfo>
    <tripinfo id="carIn81046:1" depart="57611.00" departLane="124812856#0_1" departPos="5.10" departSpeed="0.00" departDelay="2.50" arrival="57810.00" arrivalLane="-128361102#1_1" arrivalPos="274.68" arrivalSpeed="14.24" duration="199.00" routeLength="2232.46" waitingTime="6.00" waitingCount="1" stopTime="0.00" timeLoss="56.61" rerouteNo="1" devices="tripinfo_carIn81046:1 routing_carIn81046:1 emissions_carIn81046:1" vType="default_016" speedFactor="1.15" vaporized="">
        <emissions CO_abs="8088.989257" CO2_abs="564882.979304" HC_abs="50.170361" PMx_abs="10.088834" NOx_abs="230.742993" fuel_abs="242.818447" electricity_abs="0"/>
    </tripinfo>
    <tripinfo id="carIn100288:1" depart="57664.00" departLane="128361102#0_1" departPos="5.10" departSpeed="0.00" departDelay="0.60" arrival="57811.00" arrivalLane="201956811#0_1" arrivalPos="40.40" arrivalSpeed="15.76" duration="147.00" routeLength="2067.33" waitingTime="0.00" waitingCount="0" stopTime="0.00" timeLoss="17.42" rerouteNo="1" devices="tripinfo_carIn100288:1 routing_carIn100288:1 emissions_carIn100288:1" vType="default_016" speedFactor="1.17" vaporized="">
        <emissions CO_abs="4721.752765" CO2_abs="416079.765435" HC_abs="31.297420" PMx_abs="7.183768" NOx_abs="165.489803" fuel_abs="178.854072" electricity_abs="0"/>
    </tripinfo>
    <tripinfo id="h11737c1:1" depart="57665.00" departLane="272042143_1" departPos="5.10" departSpeed="0.00" departDelay="1.50" arrival="57818.00" arrivalLane="-315358254#1_1" arrivalPos="137.16" arrivalSpeed="12.16" duration="153.00" routeLength="1596.88" waitingTime="6.00" waitingCount="1" stopTime="0.00" timeLoss="22.66" rerouteNo="1" devices="tripinfo_h11737c1:1 routing_h11737c1:1 emissions_h11737c1:1" vType="default_016" speedFactor="0.89" vaporized="">
        <emissions CO_abs="4022.324571" CO2_abs="308717.078986" HC_abs="25.459280" PMx_abs="4.685554" NOx_abs="120.603714" fuel_abs="132.704888" electricity_abs="0"/>
    </tripinfo>
    <tripinfo id="carIn126288:1" depart="57674.00" departLane="272042143_1" departPos="5.10" departSpeed="0.00" departDelay="0.00" arrival="57820.00" arrivalLane="-315358254#1_1" arrivalPos="137.16" arrivalSpeed="13.51" duration="146.00" routeLength="1596.88" waitingTime="5.00" waitingCount="1" stopTime="0.00" timeLoss="26.61" rerouteNo="1" devices="tripinfo_carIn126288:1 routing_carIn126288:1 emissions_carIn126288:1" vType="default_016" speedFactor="0.98" vaporized="">
        <emissions CO_abs="4325.574461" CO2_abs="338561.743227" HC_abs="27.580871" PMx_abs="5.360224" NOx_abs="133.380798" fuel_abs="145.533514" electricity_abs="0"/>
    </tripinfo>
    <tripinfo id="carIn77438:1" depart="57614.00" departLane="124812856#0_1" departPos="5.10" departSpeed="0.00" departDelay="1.10" arrival="57827.00" arrivalLane="-128361102#1_1" arrivalPos="274.68" arrivalSpeed="11.64" duration="213.00" routeLength="2250.49" waitingTime="0.00" waitingCount="0" stopTime="0.00" timeLoss="17.48" rerouteNo="1" devices="tripinfo_carIn77438:1 routing_carIn77438:1 emissions_carIn77438:1" vType="default_016" speedFactor="0.84" vaporized="">
        <emissions CO_abs="5462.976024" CO2_abs="430603.287694" HC_abs="34.772364" PMx_abs="6.197093" NOx_abs="166.467386" fuel_abs="185.099147" electricity_abs="0"/>
    </tripinfo>
    <tripinfo id="carIn82278:1" depart="57702.00" departLane="-306240162#1_0" departPos="5.10" departSpeed="0.00" departDelay="0.70" arrival="57827.00" arrivalLane="399835085#1_1" arrivalPos="212.23" arrivalSpeed="7.33" duration="125.00" routeLength="1093.26" waitingTime="17.00" waitingCount="2" stopTime="0.00" timeLoss="42.15" rerouteNo="1" devices="tripinfo_carIn82278:1 routing_carIn82278:1 emissions_carIn82278:1" vType="default_016" speedFactor="0.94" vaporized="">
        <emissions CO_abs="6917.185266" CO2_abs="344322.319005" HC_abs="39.583782" PMx_abs="6.491594" NOx_abs="142.731665" fuel_abs="148.010262" electricity_abs="0"/>
    </tripinfo>
    <tripinfo id="h19804c1:3" depart="57617.00" departLane="124812856#0_1" departPos="5.10" departSpeed="0.00" departDelay="1.50" arrival="57829.00" arrivalLane="-128361102#1_1" arrivalPos="274.68" arrivalSpeed="13.59" duration="212.00" routeLength="2250.49" waitingTime="0.00" waitingCount="0" stopTime="0.00" timeLoss="57.59" rerouteNo="1" devices="tripinfo_h19804c1:3 routing_h19804c1:3 emissions_h19804c1:3" vType="default_016" speedFactor="1.06" vaporized="">
        <emissions CO_abs="7337.449572" CO2_abs="526690.818757" HC_abs="45.714078" PMx_abs="8.759021" NOx_abs="211.864497" fuel_abs="226.402030" electricity_abs="0"/>
    </tripinfo>
    <tripinfo id="carIn12858:1" depart="57661.00" departLane="128361109#1_1" departPos="5.10" departSpeed="0.00" departDelay="0.90" arrival="57829.00" arrivalLane="399835085#1_1" arrivalPos="212.23" arrivalSpeed="9.13" duration="168.00" routeLength="1738.12" waitingTime="25.00" waitingCount="2" stopTime="0.00" timeLoss="65.25" rerouteNo="1" devices="tripinfo_carIn12858:1 routing_carIn12858:1 emissions_carIn12858:1" vType="default_016" speedFactor="1.12" vaporized="">
        <emissions CO_abs="10988.674176" CO2_abs="579600.711182" HC_abs="63.866369" PMx_abs="11.554319" NOx_abs="241.560328" fuel_abs="249.145718" electricity_abs="0"/>
    </tripinfo>
    <tripinfo id="carIn107842:1" depart="57622.00" departLane="124812856#0_1" departPos="5.10" departSpeed="0.00" departDelay="0.90" arrival="57831.00" arrivalLane="-128361102#1_1" arrivalPos="274.68" arrivalSpeed="13.02" duration="209.00" routeLength="2250.49" waitingTime="0.00" waitingCount="0" stopTime="0.00" timeLoss="40.02" rerouteNo="1" devices="tripinfo_carIn107842:1 routing_carIn107842:1 emissions_carIn107842:1" vType="default_016" speedFactor="0.97" vaporized="">
        <emissions CO_abs="8352.219696" CO2_abs="576396.537757" HC_abs="51.561411" PMx_abs="9.966456" NOx_abs="234.194765" fuel_abs="247.768117" electricity_abs="0"/>
    </tripinfo>
    <tripinfo id="h15382c1:3" depart="57626.00" departLane="124812856#0_1" departPos="5.10" departSpeed="0.00" departDelay="3.80" arrival="57833.00" arrivalLane="-128361102#1_1" arrivalPos="274.68" arrivalSpeed="13.05" duration="207.00" routeLength="2250.49" waitingTime="0.00" waitingCount="0" stopTime="0.00" timeLoss="44.86" rerouteNo="1" devices="tripinfo_h15382c1:3 routing_h15382c1:3 emissions_h15382c1:3" vType="default_016" speedFactor="1.02" vaporized="">
        <emissions CO_abs="7940.318517" CO2_abs="556966.544184" HC_abs="49.246668" PMx_abs="9.739413" NOx_abs="227.016906" fuel_abs="239.415716" electricity_abs="0"/>
    </tripinfo>
    <tripinfo id="carIn29531:1" depart="57667.00" departLane="128361102#0_1" departPos="5.10" departSpeed="0.00" departDelay="1.60" arrival="57834.00" arrivalLane="201956811#0_1" arrivalPos="40.40" arrivalSpeed="12.80" duration="167.00" routeLength="2067.33" waitingTime="0.00" waitingCount="0" stopTime="0.00" timeLoss="17.55" rerouteNo="1" devices="tripinfo_carIn29531:1 routing_carIn29531:1 emissions_carIn29531:1" vType="default_016" speedFactor="1.01" vaporized="">
        <emissions CO_abs="4976.351621" CO2_abs="429904.381157" HC_abs="32.708833" PMx_abs="6.905871" NOx_abs="169.141507" fuel_abs="184.797383" electricity_abs="0"/>
    </tripinfo>
    <tripinfo id="carIn81860:1" depart="57712.00" departLane="128361102#0_1" departPos="5.10" departSpeed="0.00" departDelay="0.60" arrival="57834.00" arrivalLane="-24634517#17_1" arrivalPos="6.43" arrivalSpeed="7.93" duration="122.00" routeLength="1229.64" waitingTime="13.00" waitingCount="1" stopTime="0.00" timeLoss="27.46" rerouteNo="1" devices="tripinfo_carIn81860:1 routing_carIn81860:1 emissions_carIn81860:1" vType="default_016" speedFactor="0.95" vaporized="">
        <emissions CO_abs="4791.874530" CO2_abs="277786.758995" HC_abs="28.291943" PMx_abs="4.620029" NOx_abs="110.986207" fuel_abs="119.409606" electricity_abs="0"/>
    </tripinfo>
    <tripinfo id="carIn3969:1" depart="57629.00" departLane="124812856#0_1" departPos="5.10" departSpeed="0.00" departDelay="5.30" arrival="57835.00" arrivalLane="-128361102#1_1" arrivalPos="274.68" arrivalSpeed="11.18" duration="206.00" routeLength="2250.49" waitingTime="0.00" waitingCount="0" stopTime="0.00" timeLoss="18.36" rerouteNo="1" devices="tripinfo_carIn3969:1 routing_carIn3969:1 emissions_carIn3969:1" vType="default_016" speedFactor="0.88" vaporized="">
        <emissions CO_abs="5478.925144" CO2_abs="430597.791005" HC_abs="34.899771" PMx_abs="6.466047" NOx_abs="167.972427" fuel_abs="185.096411" electricity_abs="0"/>
    </tripinfo>
    <tripinfo id="h17549c1:1" depart="57680.00" departLane="-447569998#1_1" departPos="5.10" departSpeed="0.00" departDelay="0.00" arrival="57835.00" arrivalLane="-315358254#1_1" arrivalPos="137.16" arrivalSpeed="14.00" duration="155.00" routeLength="1746.60" waitingTime="6.00" waitingCount="1" stopTime="0.00" timeLoss="24.12" rerouteNo="1" devices="tripinfo_h17549c1:1 routing_h17549c1:1 emissions_h17549c1:1" vType="default_016" speedFactor="1.05" vaporized="">
        <emissions CO_abs="5087.747962" CO2_abs="366472.832649" HC_abs="31.643920" PMx_abs="5.946604" NOx_abs="144.999039" fuel_abs="157.531466" electricity_abs="0"/>
    </tripinfo>
    <tripinfo id="carIn56649:1" depart="57632.00" departLane="124812856#0_1" departPos="5.10" departSpeed="0.00" departDelay="8.10" arrival="57836.00" arrivalLane="-128361102#1_1" arrivalPos="274.68" arrivalSpeed="12.95" duration="204.00" routeLength="2250.49" waitingTime="0.00" waitingCount="0" stopTime="0.00" timeLoss="43.53" rerouteNo="1" devices="tripinfo_carIn56649:1 routing_carIn56649:1 emissions_carIn56649:1" vType="default_016" speedFactor="1.02" vaporized="">
        <emissions CO_abs="6772.122222" CO2_abs="499953.504100" HC_abs="42.517725" PMx_abs="8.284568" NOx_abs="200.448438" fuel_abs="214.908722" electricity_abs="0"/>
    </tripinfo>