<?xml version="1.0" encoding="UTF-8"?>

<!-- generated on 2021-10-26 13:32:35 by Eclipse SUMO sumo Version 1.10.0
<configuration xmlns:xsi="http://www.w3.org/2001/XMLSchema-instance" xsi:noNamespaceSchemaLocation="http://sumo.dlr.de/xsd/sumoConfiguration.xsd">

    <input>
        <net-file value="/Users/behradkoohy/sumo-scratchpad/RESCO/environments/ingolstadt21/ingolstadt21.net.xml"/>
        <route-files value="/Users/behradkoohy/sumo-scratchpad/RESCO/environments/ingolstadt21/ingolstadt21.rou.xml"/>
    </input>

    <output>
        <tripinfo-output value="/Users/behradkoohy/sumo-scratchpad/RESCO/logs/MAXPRESSURE-tr0-ingolstadt21-21-mplight-wait/tripinfo_67.xml"/>
        <tripinfo-output.write-unfinished value="true"/>
    </output>

    <time>
        <begin value="57600"/>
        <end value="61200"/>
    </time>

    <processing>
        <time-to-teleport value="-1"/>
    </processing>

    <report>
        <no-warnings value="true"/>
        <no-step-log value="true"/>
    </report>

    <emissions>
        <device.emissions.probability value="1"/>
    </emissions>

    <traci_server>
        <remote-port value="59123"/>
    </traci_server>

    <random_number>
        <random value="true"/>
    </random_number>

</configuration>
-->

<tripinfos xmlns:xsi="http://www.w3.org/2001/XMLSchema-instance" xsi:noNamespaceSchemaLocation="http://sumo.dlr.de/xsd/tripinfo_file.xsd">
    <tripinfo id="h15454c2:3" depart="57612.00" departLane="24608844_1" departPos="5.10" departSpeed="0.00" departDelay="0.50" arrival="57649.00" arrivalLane="32978638#0_1" arrivalPos="49.29" arrivalSpeed="15.86" duration="37.00" routeLength="354.79" waitingTime="0.00" waitingCount="0" stopTime="0.00" timeLoss="7.31" rerouteNo="1" devices="tripinfo_h15454c2:3 routing_h15454c2:3 emissions_h15454c2:3" vType="default_016" speedFactor="1.15" vaporized="">
        <emissions CO_abs="2245.524274" CO2_abs="130195.247315" HC_abs="13.253465" PMx_abs="2.428385" NOx_abs="54.230128" fuel_abs="55.965353" electricity_abs="0"/>
    </tripinfo>
    <tripinfo id="carIn60260:1" depart="57606.00" departLane="315358254#0_1" departPos="5.10" departSpeed="0.00" departDelay="0.90" arrival="57667.00" arrivalLane="399835085#1_1" arrivalPos="212.23" arrivalSpeed="6.94" duration="61.00" routeLength="430.98" waitingTime="0.00" waitingCount="0" stopTime="0.00" timeLoss="8.39" rerouteNo="1" devices="tripinfo_carIn60260:1 routing_carIn60260:1 emissions_carIn60260:1" vType="default_016" speedFactor="0.87" vaporized="">
        <emissions CO_abs="2658.808084" CO2_abs="120276.517249" HC_abs="14.863450" PMx_abs="1.933374" NOx_abs="48.611774" fuel_abs="51.702645" electricity_abs="0"/>
    </tripinfo>
    <tripinfo id="carIn53971:1" depart="57640.00" departLane="272042143_1" departPos="5.10" departSpeed="0.00" departDelay="0.80" arrival="57691.00" arrivalLane="24634414#1_1" arrivalPos="162.19" arrivalSpeed="7.60" duration="51.00" routeLength="493.04" waitingTime="0.00" waitingCount="0" stopTime="0.00" timeLoss="8.20" rerouteNo="1" devices="tripinfo_carIn53971:1 routing_carIn53971:1 emissions_carIn53971:1" vType="default_016" speedFactor="1.06" vaporized="">
        <emissions CO_abs="2271.188228" CO2_abs="139427.353489" HC_abs="13.578732" PMx_abs="2.447189" NOx_abs="56.942241" fuel_abs="59.933978" electricity_abs="0"/>
    </tripinfo>
    <tripinfo id="h12244c1:3" depart="57612.00" departLane="315358244_1" departPos="5.10" departSpeed="0.00" departDelay="0.40" arrival="57704.00" arrivalLane="386687235_1" arrivalPos="80.84" arrivalSpeed="13.99" duration="92.00" routeLength="1186.14" waitingTime="0.00" waitingCount="0" stopTime="0.00" timeLoss="8.14" rerouteNo="1" devices="tripinfo_h12244c1:3 routing_h12244c1:3 emissions_h12244c1:3" vType="default_016" speedFactor="1.04" vaporized="">
        <emissions CO_abs="2383.401927" CO2_abs="212769.041915" HC_abs="15.753538" PMx_abs="3.366386" NOx_abs="83.068487" fuel_abs="91.460280" electricity_abs="0"/>
    </tripinfo>
    <tripinfo id="S5R_frequency1.2" depart="57616.00" departLane="315358250#0_1" departPos="12.10" departSpeed="0.00" departDelay="4.40" arrival="57709.00" arrivalLane="386687235_1" arrivalPos="80.84" arrivalSpeed="13.61" duration="93.00" routeLength="1115.62" waitingTime="0.00" waitingCount="0" stopTime="0.00" timeLoss="10.95" rerouteNo="1" devices="tripinfo_S5R_frequency1.2 routing_S5R_frequency1.2 emissions_S5R_frequency1.2" vType="bus" speedFactor="1.00" vaporized="">
        <emissions CO_abs="1829.403619" CO2_abs="1157730.212811" HC_abs="389.500289" PMx_abs="196.661392" NOx_abs="8946.443443" fuel_abs="493.767652" electricity_abs="0"/>
    </tripinfo>
    <tripinfo id="carIn22761:1" depart="57616.00" departLane="-306240162#1_0" departPos="5.10" departSpeed="0.00" departDelay="2.10" arrival="57711.00" arrivalLane="399835085#1_1" arrivalPos="212.23" arrivalSpeed="8.26" duration="95.00" routeLength="1093.26" waitingTime="6.00" waitingCount="1" stopTime="0.00" timeLoss="23.98" rerouteNo="1" devices="tripinfo_carIn22761:1 routing_carIn22761:1 emissions_carIn22761:1" vType="default_016" speedFactor="1.09" vaporized="">
        <emissions CO_abs="4927.562584" CO2_abs="295925.586199" HC_abs="29.494976" PMx_abs="5.644946" NOx_abs="121.189386" fuel_abs="127.205695" electricity_abs="0"/>
    </tripinfo>
    <tripinfo id="carIn80064:1" depart="57603.00" departLane="128361109#1_1" departPos="5.10" departSpeed="0.00" departDelay="0.40" arrival="57722.00" arrivalLane="-315358254#1_1" arrivalPos="137.16" arrivalSpeed="15.10" duration="119.00" routeLength="1587.97" waitingTime="13.00" waitingCount="1" stopTime="0.00" timeLoss="38.28" rerouteNo="1" devices="tripinfo_carIn80064:1 routing_carIn80064:1 emissions_carIn80064:1" vType="default_016" speedFactor="1.11" vaporized="">
        <emissions CO_abs="8406.901675" CO2_abs="494231.660083" HC_abs="50.144729" PMx_abs="10.093812" NOx_abs="206.340554" fuel_abs="212.448118" electricity_abs="0"/>
    </tripinfo>
    <tripinfo id="h9563c2:5" depart="57631.00" departLane="315358244_1" departPos="5.10" departSpeed="0.00" departDelay="0.70" arrival="57722.00" arrivalLane="386687235_1" arrivalPos="80.84" arrivalSpeed="13.65" duration="91.00" routeLength="1186.14" waitingTime="0.00" waitingCount="0" stopTime="0.00" timeLoss="8.00" rerouteNo="1" devices="tripinfo_h9563c2:5 routing_h9563c2:5 emissions_h9563c2:5" vType="default_016" speedFactor="1.04" vaporized="">
        <emissions CO_abs="2178.887779" CO2_abs="221414.168053" HC_abs="15.032235" PMx_abs="3.282368" NOx_abs="84.616014" fuel_abs="95.176577" electricity_abs="0"/>
    </tripinfo>
    <tripinfo id="h7800c1:5" depart="57696.00" departLane="-447569998#1_1" departPos="5.10" departSpeed="0.00" departDelay="0.00" arrival="57725.00" arrivalLane="-447569998#1_2" arrivalPos="180.76" arrivalSpeed="4.07" duration="29.00" routeLength="175.66" waitingTime="3.00" waitingCount="1" stopTime="0.00" timeLoss="8.96" rerouteNo="1" devices="tripinfo_h7800c1:5 routing_h7800c1:5 emissions_h7800c1:5" vType="default_016" speedFactor="1.07" vaporized="">
        <emissions CO_abs="1372.161218" CO2_abs="56255.476080" HC_abs="7.549567" PMx_abs="0.990983" NOx_abs="23.340537" fuel_abs="24.182224" electricity_abs="0"/>
    </tripinfo>
    <tripinfo id="h3568c1:3" depart="57656.00" departLane="266565295#5_1" departPos="5.10" departSpeed="0.00" departDelay="0.80" arrival="57730.00" arrivalLane="-24634415_1" arrivalPos="62.03" arrivalSpeed="14.49" duration="74.00" routeLength="807.40" waitingTime="0.00" waitingCount="0" stopTime="0.00" timeLoss="13.68" rerouteNo="1" devices="tripinfo_h3568c1:3 routing_h3568c1:3 emissions_h3568c1:3" vType="default_016" speedFactor="1.08" vaporized="">
        <emissions CO_abs="3372.240562" CO2_abs="224652.412226" HC_abs="20.542760" PMx_abs="3.900319" NOx_abs="90.989666" fuel_abs="96.568523" electricity_abs="0"/>
    </tripinfo>
    <tripinfo id="h645c1:1" depart="57622.00" departLane="266565295#5_1" departPos="5.10" departSpeed="0.00" departDelay="0.40" arrival="57744.00" arrivalLane="-315358244_1" arrivalPos="33.95" arrivalSpeed="17.17" duration="122.00" routeLength="1910.83" waitingTime="0.00" waitingCount="0" stopTime="0.00" timeLoss="10.35" rerouteNo="1" devices="tripinfo_h645c1:1 routing_h645c1:1 emissions_h645c1:1" vType="default_016" speedFactor="1.25" vaporized="">
        <emissions CO_abs="3417.921583" CO2_abs="360249.059634" HC_abs="23.695403" PMx_abs="5.974847" NOx_abs="139.163653" fuel_abs="154.854947" electricity_abs="0"/>
    </tripinfo>
    <tripinfo id="h3688c1:1" depart="57625.00" departLane="201201950#1_1" departPos="5.10" departSpeed="0.00" departDelay="0.00" arrival="57745.00" arrivalLane="32978638#0_1" arrivalPos="49.29" arrivalSpeed="11.40" duration="120.00" routeLength="1089.75" waitingTime="11.00" waitingCount="1" stopTime="0.00" timeLoss="27.57" rerouteNo="1" devices="tripinfo_h3688c1:1 routing_h3688c1:1 emissions_h3688c1:1" vType="default_016" speedFactor="0.86" vaporized="">
        <emissions CO_abs="4688.656270" CO2_abs="263926.156940" HC_abs="27.494311" PMx_abs="4.454324" NOx_abs="106.730222" fuel_abs="113.451405" electricity_abs="0"/>
    </tripinfo>
    <tripinfo id="h7181c1:1" depart="57660.00" departLane="315358254#0_1" departPos="5.10" departSpeed="0.00" departDelay="0.10" arrival="57750.00" arrivalLane="306240162#0_0" arrivalPos="220.43" arrivalSpeed="17.05" duration="90.00" routeLength="932.35" waitingTime="18.00" waitingCount="2" stopTime="0.00" timeLoss="41.39" rerouteNo="1" devices="tripinfo_h7181c1:1 routing_h7181c1:1 emissions_h7181c1:1" vType="default_016" speedFactor="1.06" vaporized="">
        <emissions CO_abs="6895.890320" CO2_abs="353669.321385" HC_abs="39.876192" PMx_abs="7.298336" NOx_abs="149.725132" fuel_abs="152.027124" electricity_abs="0"/>
    </tripinfo>
    <tripinfo id="h317c2:1" depart="57707.00" departLane="-32978638#0_1" departPos="5.10" departSpeed="0.00" departDelay="0.10" arrival="57755.00" arrivalLane="-266565295#5_1" arrivalPos="172.76" arrivalSpeed="12.95" duration="48.00" routeLength="370.53" waitingTime="12.00" waitingCount="1" stopTime="0.00" timeLoss="19.98" rerouteNo="1" devices="tripinfo_h317c2:1 routing_h317c2:1 emissions_h317c2:1" vType="default_016" speedFactor="0.98" vaporized="">
        <emissions CO_abs="2825.125647" CO2_abs="132351.886279" HC_abs="15.984213" PMx_abs="2.507571" NOx_abs="55.268148" fuel_abs="56.892825" electricity_abs="0"/>
    </tripinfo>
    <tripinfo id="carIn30817:1" depart="57681.00" departLane="315358244_1" departPos="5.10" departSpeed="0.00" departDelay="0.20" arrival="57760.00" arrivalLane="447569997#1_1" arrivalPos="180.93" arrivalSpeed="7.82" duration="79.00" routeLength="718.04" waitingTime="7.00" waitingCount="1" stopTime="0.00" timeLoss="19.09" rerouteNo="1" devices="tripinfo_carIn30817:1 routing_carIn30817:1 emissions_carIn30817:1" vType="default_016" speedFactor="1.02" vaporized="">
        <emissions CO_abs="3036.441424" CO2_abs="169620.499681" HC_abs="17.758770" PMx_abs="2.755817" NOx_abs="67.548368" fuel_abs="72.913357" electricity_abs="0"/>
    </tripinfo>
    <tripinfo id="carIn12365:1" depart="57713.00" departLane="315358244_1" departPos="5.10" departSpeed="0.00" departDelay="0.50" arrival="57774.00" arrivalLane="447569997#1_1" arrivalPos="180.93" arrivalSpeed="8.35" duration="61.00" routeLength="718.04" waitingTime="0.00" waitingCount="0" stopTime="0.00" timeLoss="6.78" rerouteNo="1" devices="tripinfo_carIn12365:1 routing_carIn12365:1 emissions_carIn12365:1" vType="default_016" speedFactor="1.14" vaporized="">
        <emissions CO_abs="2038.223805" CO2_abs="144559.462082" HC_abs="12.607476" PMx_abs="2.431519" NOx_abs="57.729632" fuel_abs="62.140007" electricity_abs="0"/>
    </tripinfo>
    <tripinfo id="h3154c1:1" depart="57658.00" departLane="24634507_1" departPos="5.10" departSpeed="0.00" departDelay="0.00" arrival="57778.00" arrivalLane="-266565295#5_1" arrivalPos="172.76" arrivalSpeed="14.81" duration="120.00" routeLength="1206.22" waitingTime="15.00" waitingCount="2" stopTime="0.00" timeLoss="37.35" rerouteNo="1" devices="tripinfo_h3154c1:1 routing_h3154c1:1 emissions_h3154c1:1" vType="default_016" speedFactor="1.08" vaporized="">
        <emissions CO_abs="5637.662885" CO2_abs="337185.969338" HC_abs="33.597199" PMx_abs="6.152625" NOx_abs="138.281931" fuel_abs="144.941994" electricity_abs="0"/>
    </tripinfo>
    <tripinfo id="carIn118591:1" depart="57689.00" departLane="315358244_1" departPos="5.10" departSpeed="0.00" departDelay="0.20" arrival="57783.00" arrivalLane="386687235_1" arrivalPos="80.84" arrivalSpeed="15.54" duration="94.00" routeLength="1186.14" waitingTime="1.00" waitingCount="1" stopTime="0.00" timeLoss="16.93" rerouteNo="1" devices="tripinfo_carIn118591:1 routing_carIn118591:1 emissions_carIn118591:1" vType="default_016" speedFactor="1.12" vaporized="">
        <emissions CO_abs="3714.417062" CO2_abs="273807.854363" HC_abs="23.295356" PMx_abs="4.892907" NOx_abs="110.888979" fuel_abs="117.697903" electricity_abs="0"/>
    </tripinfo>
    <tripinfo id="h330c1:1" depart="57736.00" departLane="-32978638#0_1" departPos="5.10" departSpeed="0.00" departDelay="0.20" arrival="57785.00" arrivalLane="-266565295#5_1" arrivalPos="172.76" arrivalSpeed="13.56" duration="49.00" routeLength="370.53" waitingTime="12.00" waitingCount="1" stopTime="0.00" timeLoss="21.15" rerouteNo="1" devices="tripinfo_h330c1:1 routing_h330c1:1 emissions_h330c1:1" vType="default_016" speedFactor="1.00" vaporized="">
        <emissions CO_abs="2956.355719" CO2_abs="137415.278752" HC_abs="16.690117" PMx_abs="2.543510" NOx_abs="56.910962" fuel_abs="59.069497" electricity_abs="0"/>
    </tripinfo>
    <tripinfo id="carIn107084:1" depart="57601.00" departLane="124812856#0_1" departPos="5.10" departSpeed="0.00" departDelay="0.70" arrival="57786.00" arrivalLane="-128361102#1_1" arrivalPos="274.68" arrivalSpeed="13.35" duration="185.00" routeLength="2250.49" waitingTime="0.00" waitingCount="0" stopTime="0.00" timeLoss="24.26" rerouteNo="1" devices="tripinfo_carIn107084:1 routing_carIn107084:1 emissions_carIn107084:1" vType="default_016" speedFactor="1.02" vaporized="">
        <emissions CO_abs="5588.882163" CO2_abs="479020.280390" HC_abs="36.574881" PMx_abs="7.623966" NOx_abs="187.848682" fuel_abs="205.910345" electricity_abs="0"/>
    </tripinfo>
    <tripinfo id="h3326c1:2" depart="57656.00" departLane="22716069#0_1" departPos="5.10" departSpeed="0.00" departDelay="0.00" arrival="57786.00" arrivalLane="24634517#13_1" arrivalPos="111.62" arrivalSpeed="12.75" duration="130.00" routeLength="1312.81" waitingTime="14.00" waitingCount="1" stopTime="0.00" timeLoss="32.34" rerouteNo="1" devices="tripinfo_h3326c1:2 routing_h3326c1:2 emissions_h3326c1:2" vType="default_016" speedFactor="0.99" vaporized="">
        <emissions CO_abs="6243.102668" CO2_abs="347302.040759" HC_abs="36.560496" PMx_abs="6.166347" NOx_abs="141.592859" fuel_abs="149.291075" electricity_abs="0"/>
    </tripinfo>
    <tripinfo id="carIn27009:1" depart="57673.00" departLane="-447569998#1_1" departPos="5.10" departSpeed="0.00" departDelay="0.50" arrival="57789.00" arrivalLane="-26677539_1" arrivalPos="152.75" arrivalSpeed="8.81" duration="116.00" routeLength="699.63" waitingTime="23.00" waitingCount="1" stopTime="0.00" timeLoss="39.64" rerouteNo="1" devices="tripinfo_carIn27009:1 routing_carIn27009:1 emissions_carIn27009:1" vType="default_015" speedFactor="1.10" vaporized="">
        <emissions CO_abs="7276.879355" CO2_abs="248191.835663" HC_abs="38.891816" PMx_abs="4.613969" NOx_abs="104.170826" fuel_abs="106.689538" electricity_abs="0"/>
    </tripinfo>
    <tripinfo id="carIn77943:1" depart="57608.00" departLane="124812856#0_1" departPos="5.10" departSpeed="0.00" departDelay="2.50" arrival="57790.00" arrivalLane="-128361102#1_1" arrivalPos="274.68" arrivalSpeed="12.91" duration="182.00" routeLength="2250.49" waitingTime="0.00" waitingCount="0" stopTime="0.00" timeLoss="18.10" rerouteNo="1" devices="tripinfo_carIn77943:1 routing_carIn77943:1 emissions_carIn77943:1" vType="default_016" speedFactor="1.00" vaporized="">
        <emissions CO_abs="4967.952148" CO2_abs="452860.233356" HC_abs="33.144220" PMx_abs="7.122665" NOx_abs="177.009657" fuel_abs="194.665124" electricity_abs="0"/>
    </tripinfo>
    <tripinfo id="carIn81046:1" depart="57611.00" departLane="124812856#0_1" departPos="5.10" departSpeed="0.00" departDelay="2.50" arrival="57791.00" arrivalLane="-128361102#1_1" arrivalPos="274.68" arrivalSpeed="14.72" duration="180.00" routeLength="2250.49" waitingTime="0.00" waitingCount="0" stopTime="0.00" timeLoss="32.77" rerouteNo="1" devices="tripinfo_carIn81046:1 routing_carIn81046:1 emissions_carIn81046:1" vType="default_016" speedFactor="1.12" vaporized="">
        <emissions CO_abs="5765.464954" CO2_abs="477036.541618" HC_abs="37.428634" PMx_abs="8.094017" NOx_abs="190.729346" fuel_abs="205.056983" electricity_abs="0"/>
    </tripinfo>
    <tripinfo id="carIn107282:1" depart="57749.00" departLane="-447569998#1_1" departPos="5.10" departSpeed="0.00" departDelay="0.00" arrival="57794.00" arrivalLane="315358242#0_1" arrivalPos="165.37" arrivalSpeed="14.46" duration="45.00" routeLength="448.50" waitingTime="0.00" waitingCount="0" stopTime="0.00" timeLoss="4.88" rerouteNo="1" devices="tripinfo_carIn107282:1 routing_carIn107282:1 emissions_carIn107282:1" vType="default_016" speedFactor="1.06" vaporized="">
        <emissions CO_abs="1630.040942" CO2_abs="103192.527095" HC_abs="9.804569" PMx_abs="1.708008" NOx_abs="41.370244" fuel_abs="44.358270" electricity_abs="0"/>
    </tripinfo>
    <tripinfo id="carIn86816:1" depart="57617.00" departLane="128361102#0_1" departPos="5.10" departSpeed="0.00" departDelay="0.80" arrival="57799.00" arrivalLane="201956811#0_1" arrivalPos="40.40" arrivalSpeed="11.82" duration="182.00" routeLength="2067.33" waitingTime="0.00" waitingCount="0" stopTime="0.00" timeLoss="18.51" rerouteNo="1" devices="tripinfo_carIn86816:1 routing_carIn86816:1 emissions_carIn86816:1" vType="default_016" speedFactor="0.93" vaporized="">
        <emissions CO_abs="5057.313752" CO2_abs="406491.933279" HC_abs="32.490646" PMx_abs="6.409840" NOx_abs="160.195305" fuel_abs="174.733758" electricity_abs="0"/>
    </tripinfo>
    <tripinfo id="carIn50326:1" depart="57651.00" departLane="128361102#0_1" departPos="5.10" departSpeed="0.00" departDelay="0.30" arrival="57799.00" arrivalLane="18809673#0_1" arrivalPos="473.56" arrivalSpeed="15.07" duration="148.00" routeLength="1591.07" waitingTime="11.00" waitingCount="1" stopTime="0.00" timeLoss="31.80" rerouteNo="1" devices="tripinfo_carIn50326:1 routing_carIn50326:1 emissions_carIn50326:1" vType="default_016" speedFactor="1.12" vaporized="">
        <emissions CO_abs="5654.818613" CO2_abs="362217.835961" HC_abs="34.193685" PMx_abs="6.245608" NOx_abs="145.785794" fuel_abs="155.702387" electricity_abs="0"/>
    </tripinfo>
    <tripinfo id="carIn77438:1" depart="57614.00" departLane="124812856#0_1" departPos="5.10" departSpeed="0.00" departDelay="1.10" arrival="57802.00" arrivalLane="-128361102#1_1" arrivalPos="274.68" arrivalSpeed="12.85" duration="188.00" routeLength="2250.49" waitingTime="0.00" waitingCount="0" stopTime="0.00" timeLoss="18.77" rerouteNo="1" devices="tripinfo_carIn77438:1 routing_carIn77438:1 emissions_carIn77438:1" vType="default_016" speedFactor="0.97" vaporized="">
        <emissions CO_abs="4918.649352" CO2_abs="435058.130081" HC_abs="32.513764" PMx_abs="6.658061" NOx_abs="169.254413" fuel_abs="187.013141" electricity_abs="0"/>
    </tripinfo>
    <tripinfo id="carIn82220:1" depart="57619.00" departLane="-306240162#1_0" departPos="5.10" departSpeed="0.00" departDelay="3.50" arrival="57803.00" arrivalLane="386687235_2" arrivalPos="80.84" arrivalSpeed="14.44" duration="184.00" routeLength="2257.41" waitingTime="16.00" waitingCount="3" stopTime="0.00" timeLoss="49.68" rerouteNo="1" devices="tripinfo_carIn82220:1 routing_carIn82220:1 emissions_carIn82220:1" vType="default_016" speedFactor="1.10" vaporized="">
        <emissions CO_abs="8208.286547" CO2_abs="567697.924489" HC_abs="50.661593" PMx_abs="10.390250" NOx_abs="229.753023" fuel_abs="244.028503" electricity_abs="0"/>
    </tripinfo>
    <tripinfo id="carIn48184:1" depart="57613.00" departLane="-306240162#1_0" departPos="5.10" departSpeed="0.00" departDelay="0.70" arrival="57804.00" arrivalLane="386687235_1" arrivalPos="80.84" arrivalSpeed="14.66" duration="191.00" routeLength="2257.41" waitingTime="20.00" waitingCount="3" stopTime="0.00" timeLoss="53.72" rerouteNo="1" devices="tripinfo_carIn48184:1 routing_carIn48184:1 emissions_carIn48184:1" vType="default_016" speedFactor="1.08" vaporized="">
        <emissions CO_abs="8711.703213" CO2_abs="568301.824198" HC_abs="53.044305" PMx_abs="10.546795" NOx_abs="231.218090" fuel_abs="244.288278" electricity_abs="0"/>
    </tripinfo>
    <tripinfo id="carIn462:1" depart="57621.00" departLane="-306240162#1_0" departPos="5.10" departSpeed="0.00" departDelay="3.80" arrival="57805.00" arrivalLane="386687235_2" arrivalPos="80.84" arrivalSpeed="15.28" duration="184.00" routeLength="2257.41" waitingTime="18.00" waitingCount="2" stopTime="0.00" timeLoss="58.17" rerouteNo="1" devices="tripinfo_carIn462:1 routing_carIn462:1 emissions_carIn462:1" vType="default_016" speedFactor="1.19" vaporized="">
        <emissions CO_abs="8881.474210" CO2_abs="575214.268951" HC_abs="54.059219" PMx_abs="10.938960" NOx_abs="235.351969" fuel_abs="247.259333" electricity_abs="0"/>
    </tripinfo>
    <tripinfo id="h11737c1:1" depart="57665.00" departLane="272042143_1" departPos="5.10" departSpeed="0.00" departDelay="1.50" arrival="57807.00" arrivalLane="-315358254#1_1" arrivalPos="137.16" arrivalSpeed="12.82" duration="142.00" routeLength="1596.88" waitingTime="9.00" waitingCount="1" stopTime="0.00" timeLoss="25.86" rerouteNo="1" devices="tripinfo_h11737c1:1 routing_h11737c1:1 emissions_h11737c1:1" vType="default_016" speedFactor="1.01" vaporized="">
        <emissions CO_abs="4653.367770" CO2_abs="342927.369537" HC_abs="29.219941" PMx_abs="5.707479" NOx_abs="136.531124" fuel_abs="147.409959" electricity_abs="0"/>
    </tripinfo>
    <tripinfo id="carIn126288:1" depart="57674.00" departLane="272042143_1" departPos="5.10" departSpeed="0.00" departDelay="0.00" arrival="57808.00" arrivalLane="-315358254#1_1" arrivalPos="137.16" arrivalSpeed="15.53" duration="134.00" routeLength="1596.88" waitingTime="9.00" waitingCount="1" stopTime="0.00" timeLoss="34.92" rerouteNo="1" devices="tripinfo_carIn126288:1 routing_carIn126288:1 emissions_carIn126288:1" vType="default_016" speedFactor="1.18" vaporized="">
        <emissions CO_abs="5688.796380" CO2_abs="378940.569927" HC_abs="34.836870" PMx_abs="6.932623" NOx_abs="154.922973" fuel_abs="162.890011" electricity_abs="0"/>
    </tripinfo>
    <tripinfo id="h19804c1:3" depart="57617.00" departLane="124812856#0_1" departPos="5.10" departSpeed="0.00" departDelay="1.50" arrival="57809.00" arrivalLane="-128361102#1_1" arrivalPos="274.68" arrivalSpeed="12.06" duration="192.00" routeLength="2250.49" waitingTime="0.00" waitingCount="0" stopTime="0.00" timeLoss="17.40" rerouteNo="1" devices="tripinfo_h19804c1:3 routing_h19804c1:3 emissions_h19804c1:3" vType="default_016" speedFactor="0.94" vaporized="">
        <emissions CO_abs="4872.314148" CO2_abs="415031.762239" HC_abs="31.840231" PMx_abs="6.435866" NOx_abs="162.437339" fuel_abs="178.404631" electricity_abs="0"/>
    </tripinfo>
    <tripinfo id="carIn102915:1" depart="57643.00" departLane="128361102#0_1" departPos="5.10" departSpeed="0.00" departDelay="0.40" arrival="57810.00" arrivalLane="201956811#0_1" arrivalPos="40.40" arrivalSpeed="13.08" duration="167.00" routeLength="2067.33" waitingTime="0.00" waitingCount="0" stopTime="0.00" timeLoss="18.35" rerouteNo="1" devices="tripinfo_carIn102915:1 routing_carIn102915:1 emissions_carIn102915:1" vType="default_016" speedFactor="1.02" vaporized="">
        <emissions CO_abs="5217.352171" CO2_abs="452173.786584" HC_abs="34.274635" PMx_abs="7.215968" NOx_abs="177.509022" fuel_abs="194.370100" electricity_abs="0"/>
    </tripinfo>
    <tripinfo id="h5979c1:5" depart="57669.00" departLane="399835085#1_1" departPos="5.10" departSpeed="0.00" departDelay="0.00" arrival="57812.00" arrivalLane="-315358254#1_1" arrivalPos="137.16" arrivalSpeed="14.43" duration="143.00" routeLength="659.33" waitingTime="56.00" waitingCount="1" stopTime="0.00" timeLoss="73.86" rerouteNo="1" devices="tripinfo_h5979c1:5 routing_h5979c1:5 emissions_h5979c1:5" vType="default_016" speedFactor="1.06" vaporized="">
        <emissions CO_abs="12155.434930" CO2_abs="318818.265175" HC_abs="62.770263" PMx_abs="6.460583" NOx_abs="136.680949" fuel_abs="137.051173" electricity_abs="0"/>
    </tripinfo>
    <tripinfo id="carIn82278:1" depart="57702.00" departLane="-306240162#1_0" departPos="5.10" departSpeed="0.00" departDelay="0.70" arrival="57812.00" arrivalLane="399835085#1_1" arrivalPos="212.23" arrivalSpeed="8.61" duration="110.00" routeLength="1093.26" waitingTime="10.00" waitingCount="1" stopTime="0.00" timeLoss="35.90" rerouteNo="1" devices="tripinfo_carIn82278:1 routing_carIn82278:1 emissions_carIn82278:1" vType="default_016" speedFactor="1.05" vaporized="">
        <emissions CO_abs="7019.212967" CO2_abs="382672.206773" HC_abs="41.085014" PMx_abs="7.500245" NOx_abs="160.176956" fuel_abs="164.494364" electricity_abs="0"/>
    </tripinfo>
    <tripinfo id="randUni33724:1" depart="57646.00" departLane="128361102#0_1" departPos="5.10" departSpeed="0.00" departDelay="1.20" arrival="57814.00" arrivalLane="201956811#0_1" arrivalPos="40.40" arrivalSpeed="13.59" duration="168.00" routeLength="2067.33" waitingTime="0.00" waitingCount="0" stopTime="0.00" timeLoss="19.11" rerouteNo="1" devices="tripinfo_randUni33724:1 routing_randUni33724:1 emissions_randUni33724:1" vType="random_016" speedFactor="1.01" vaporized="">
        <emissions CO_abs="5137.624471" CO2_abs="436236.977427" HC_abs="33.523288" PMx_abs="7.040155" NOx_abs="171.908647" fuel_abs="187.519499" electricity_abs="0"/>
    </tripinfo>
    <tripinfo id="carIn107842:1" depart="57623.00" departLane="124812856#0_1" departPos="5.10" departSpeed="0.00" departDelay="1.90" arrival="57818.00" arrivalLane="-128361102#1_1" arrivalPos="274.68" arrivalSpeed="13.91" duration="195.00" routeLength="2250.49" waitingTime="0.00" waitingCount="0" stopTime="0.00" timeLoss="33.40" rerouteNo="1" devices="tripinfo_carIn107842:1 routing_carIn107842:1 emissions_carIn107842:1" vType="default_016" speedFactor="1.01" vaporized="">
        <emissions CO_abs="6316.155979" CO2_abs="481449.040808" HC_abs="40.041659" PMx_abs="8.052431" NOx_abs="192.881922" fuel_abs="206.954218" electricity_abs="0"/>
    </tripinfo>
    <tripinfo id="carIn12858:1" depart="57661.00" departLane="128361109#1_1" departPos="5.10" departSpeed="0.00" departDelay="0.90" arrival="57819.00" arrivalLane="399835085#1_1" arrivalPos="212.23" arrivalSpeed="6.57" duration="158.00" routeLength="1738.12" waitingTime="7.00" waitingCount="1" stopTime="0.00" timeLoss="35.72" rerouteNo="1" devices="tripinfo_carIn12858:1 routing_carIn12858:1 emissions_carIn12858:1" vType="default_016" speedFactor="0.94" vaporized="">
        <emissions CO_abs="7578.822436" CO2_abs="472978.301115" HC_abs="45.769596" PMx_abs="8.913026" NOx_abs="194.164075" fuel_abs="203.312843" electricity_abs="0"/>
    </tripinfo>
    <tripinfo id="h15382c1:3" depart="57626.00" departLane="124812856#0_1" departPos="5.10" departSpeed="0.00" departDelay="3.80" arrival="57820.00" arrivalLane="-128361102#1_1" arrivalPos="274.68" arrivalSpeed="14.07" duration="194.00" routeLength="2250.49" waitingTime="0.00" waitingCount="0" stopTime="0.00" timeLoss="32.42" rerouteNo="1" devices="tripinfo_h15382c1:3 routing_h15382c1:3 emissions_h15382c1:3" vType="default_016" speedFactor="1.02" vaporized="">
        <emissions CO_abs="6561.539807" CO2_abs="499986.736886" HC_abs="41.541500" PMx_abs="8.357485" NOx_abs="200.194964" fuel_abs="214.922783" electricity_abs="0"/>
    </tripinfo>
    <tripinfo id="carIn81860:1" depart="57712.00" departLane="128361102#0_1" departPos="5.10" departSpeed="0.00" departDelay="0.60" arrival="57820.00" arrivalLane="-24634517#17_1" arrivalPos="6.43" arrivalSpeed="8.75" duration="108.00" routeLength="1229.64" waitingTime="8.00" waitingCount="1" stopTime="0.00" timeLoss="24.96" rerouteNo="1" devices="tripinfo_carIn81860:1 routing_carIn81860:1 emissions_carIn81860:1" vType="default_016" speedFactor="1.09" vaporized="">
        <emissions CO_abs="3980.554560" CO2_abs="292629.818196" HC_abs="24.919938" PMx_abs="5.059651" NOx_abs="117.596908" fuel_abs="125.788885" electricity_abs="0"/>
    </tripinfo>
    <tripinfo id="carIn3969:1" depart="57629.00" departLane="124812856#0_1" departPos="5.10" departSpeed="0.00" departDelay="5.30" arrival="57822.00" arrivalLane="-128361102#1_1" arrivalPos="274.68" arrivalSpeed="13.91" duration="193.00" routeLength="2250.49" waitingTime="0.00" waitingCount="0" stopTime="0.00" timeLoss="38.18" rerouteNo="1" devices="tripinfo_carIn3969:1 routing_carIn3969:1 emissions_carIn3969:1" vType="default_016" speedFactor="1.06" vaporized="">
        <emissions CO_abs="6791.219028" CO2_abs="521822.414551" HC_abs="43.128300" PMx_abs="8.807561" NOx_abs="209.266348" fuel_abs="224.308848" electricity_abs="0"/>
    </tripinfo>
    <tripinfo id="carIn56649:1" depart="57632.00" departLane="124812856#0_1" departPos="5.10" departSpeed="0.00" departDelay="8.10" arrival="57824.00" arrivalLane="-128361102#1_1" arrivalPos="274.68" arrivalSpeed="13.18" duration="192.00" routeLength="2250.49" waitingTime="0.00" waitingCount="0" stopTime="0.00" timeLoss="27.58" rerouteNo="1" devices="tripinfo_carIn56649:1 routing_carIn56649:1 emissions_carIn56649:1" vType="default_016" speedFactor="1.00" vaporized="">
        <emissions CO_abs="5884.701662" CO2_abs="486094.418809" HC_abs="38.139334" PMx_abs="7.792593" NOx_abs="191.799601" fuel_abs="208.951238" electricity_abs="0"/>
    </tripinfo>