<?xml version="1.0" encoding="UTF-8"?>

<!-- generated on 2021-10-26 13:22:49 by Eclipse SUMO sumo Version 1.10.0
<configuration xmlns:xsi="http://www.w3.org/2001/XMLSchema-instance" xsi:noNamespaceSchemaLocation="http://sumo.dlr.de/xsd/sumoConfiguration.xsd">

    <input>
        <net-file value="/Users/behradkoohy/sumo-scratchpad/RESCO/environments/ingolstadt21/ingolstadt21.net.xml"/>
        <route-files value="/Users/behradkoohy/sumo-scratchpad/RESCO/environments/ingolstadt21/ingolstadt21.rou.xml"/>
    </input>

    <output>
        <tripinfo-output value="/Users/behradkoohy/sumo-scratchpad/RESCO/logs/MAXPRESSURE-tr0-ingolstadt21-21-mplight-wait/tripinfo_55.xml"/>
        <tripinfo-output.write-unfinished value="true"/>
    </output>

    <time>
        <begin value="57600"/>
        <end value="61200"/>
    </time>

    <processing>
        <time-to-teleport value="-1"/>
    </processing>

    <report>
        <no-warnings value="true"/>
        <no-step-log value="true"/>
    </report>

    <emissions>
        <device.emissions.probability value="1"/>
    </emissions>

    <traci_server>
        <remote-port value="58920"/>
    </traci_server>

    <random_number>
        <random value="true"/>
    </random_number>

</configuration>
-->

<tripinfos xmlns:xsi="http://www.w3.org/2001/XMLSchema-instance" xsi:noNamespaceSchemaLocation="http://sumo.dlr.de/xsd/tripinfo_file.xsd">
    <tripinfo id="carIn60260:1" depart="57606.00" departLane="315358254#0_1" departPos="5.10" departSpeed="0.00" departDelay="0.90" arrival="57658.00" arrivalLane="399835085#1_1" arrivalPos="212.23" arrivalSpeed="7.41" duration="52.00" routeLength="430.98" waitingTime="0.00" waitingCount="0" stopTime="0.00" timeLoss="6.65" rerouteNo="1" devices="tripinfo_carIn60260:1 routing_carIn60260:1 emissions_carIn60260:1" vType="default_016" speedFactor="1.01" vaporized="">
        <emissions CO_abs="2059.389896" CO2_abs="112951.033434" HC_abs="11.965502" PMx_abs="1.728218" NOx_abs="44.781796" fuel_abs="48.553468" electricity_abs="0"/>
    </tripinfo>
    <tripinfo id="h15454c2:3" depart="57612.00" departLane="24608844_1" departPos="5.10" departSpeed="0.00" departDelay="0.50" arrival="57662.00" arrivalLane="32978638#0_1" arrivalPos="49.29" arrivalSpeed="11.38" duration="50.00" routeLength="354.79" waitingTime="2.00" waitingCount="1" stopTime="0.00" timeLoss="10.07" rerouteNo="1" devices="tripinfo_h15454c2:3 routing_h15454c2:3 emissions_h15454c2:3" vType="default_016" speedFactor="0.87" vaporized="">
        <emissions CO_abs="2343.796918" CO2_abs="113998.085104" HC_abs="13.305760" PMx_abs="1.900684" NOx_abs="46.379378" fuel_abs="49.003527" electricity_abs="0"/>
    </tripinfo>
    <tripinfo id="carIn53971:1" depart="57640.00" departLane="272042143_1" departPos="5.10" departSpeed="0.00" departDelay="0.80" arrival="57696.00" arrivalLane="24634414#1_1" arrivalPos="162.19" arrivalSpeed="7.95" duration="56.00" routeLength="493.04" waitingTime="0.00" waitingCount="0" stopTime="0.00" timeLoss="9.12" rerouteNo="1" devices="tripinfo_carIn53971:1 routing_carIn53971:1 emissions_carIn53971:1" vType="default_016" speedFactor="0.98" vaporized="">
        <emissions CO_abs="2531.649171" CO2_abs="142516.562811" HC_abs="14.825662" PMx_abs="2.394351" NOx_abs="57.828932" fuel_abs="61.262214" electricity_abs="0"/>
    </tripinfo>
    <tripinfo id="h12244c1:3" depart="57612.00" departLane="315358244_1" departPos="5.10" departSpeed="0.00" departDelay="0.40" arrival="57705.00" arrivalLane="386687235_1" arrivalPos="80.84" arrivalSpeed="13.08" duration="93.00" routeLength="1186.14" waitingTime="0.00" waitingCount="0" stopTime="0.00" timeLoss="8.70" rerouteNo="1" devices="tripinfo_h12244c1:3 routing_h12244c1:3 emissions_h12244c1:3" vType="default_016" speedFactor="1.03" vaporized="">
        <emissions CO_abs="2638.319304" CO2_abs="229626.723637" HC_abs="17.327862" PMx_abs="3.710662" NOx_abs="90.301956" fuel_abs="98.706599" electricity_abs="0"/>
    </tripinfo>
    <tripinfo id="S5R_frequency1.2" depart="57615.00" departLane="315358250#0_1" departPos="12.10" departSpeed="0.00" departDelay="3.40" arrival="57708.00" arrivalLane="386687235_1" arrivalPos="80.84" arrivalSpeed="13.74" duration="93.00" routeLength="1115.62" waitingTime="0.00" waitingCount="0" stopTime="0.00" timeLoss="11.15" rerouteNo="1" devices="tripinfo_S5R_frequency1.2 routing_S5R_frequency1.2 emissions_S5R_frequency1.2" vType="bus" speedFactor="1.00" vaporized="">
        <emissions CO_abs="1906.534983" CO2_abs="1233652.127929" HC_abs="395.310904" PMx_abs="204.987884" NOx_abs="9471.654846" fuel_abs="526.147448" electricity_abs="0"/>
    </tripinfo>
    <tripinfo id="carIn22761:1" depart="57616.00" departLane="-306240162#1_0" departPos="5.10" departSpeed="0.00" departDelay="2.10" arrival="57711.00" arrivalLane="399835085#1_1" arrivalPos="212.23" arrivalSpeed="8.46" duration="95.00" routeLength="1093.26" waitingTime="5.00" waitingCount="1" stopTime="0.00" timeLoss="23.09" rerouteNo="1" devices="tripinfo_carIn22761:1 routing_carIn22761:1 emissions_carIn22761:1" vType="default_016" speedFactor="1.08" vaporized="">
        <emissions CO_abs="5477.610334" CO2_abs="332627.376810" HC_abs="32.840132" PMx_abs="6.431307" NOx_abs="137.345229" fuel_abs="142.981966" electricity_abs="0"/>
    </tripinfo>
    <tripinfo id="h9563c2:5" depart="57631.00" departLane="315358244_1" departPos="5.10" departSpeed="0.00" departDelay="0.70" arrival="57722.00" arrivalLane="386687235_1" arrivalPos="80.84" arrivalSpeed="13.87" duration="91.00" routeLength="1186.14" waitingTime="0.00" waitingCount="0" stopTime="0.00" timeLoss="8.41" rerouteNo="1" devices="tripinfo_h9563c2:5 routing_h9563c2:5 emissions_h9563c2:5" vType="default_016" speedFactor="1.05" vaporized="">
        <emissions CO_abs="2482.355516" CO2_abs="228958.975728" HC_abs="16.624994" PMx_abs="3.626098" NOx_abs="89.302182" fuel_abs="98.419581" electricity_abs="0"/>
    </tripinfo>
    <tripinfo id="h7800c1:5" depart="57696.00" departLane="-447569998#1_1" departPos="5.10" departSpeed="0.00" departDelay="0.00" arrival="57725.00" arrivalLane="-447569998#1_2" arrivalPos="180.76" arrivalSpeed="4.71" duration="29.00" routeLength="175.66" waitingTime="0.00" waitingCount="0" stopTime="0.00" timeLoss="7.30" rerouteNo="1" devices="tripinfo_h7800c1:5 routing_h7800c1:5 emissions_h7800c1:5" vType="default_016" speedFactor="0.99" vaporized="">
        <emissions CO_abs="1510.609441" CO2_abs="61267.734883" HC_abs="8.290761" PMx_abs="1.058269" NOx_abs="25.326544" fuel_abs="26.336857" electricity_abs="0"/>
    </tripinfo>
    <tripinfo id="h3688c1:1" depart="57625.00" departLane="201201950#1_1" departPos="5.10" departSpeed="0.00" departDelay="0.00" arrival="57731.00" arrivalLane="32978638#0_1" arrivalPos="49.29" arrivalSpeed="14.18" duration="106.00" routeLength="1089.75" waitingTime="13.00" waitingCount="1" stopTime="0.00" timeLoss="28.05" rerouteNo="1" devices="tripinfo_h3688c1:1 routing_h3688c1:1 emissions_h3688c1:1" vType="default_016" speedFactor="1.03" vaporized="">
        <emissions CO_abs="4807.681162" CO2_abs="286626.051454" HC_abs="28.569902" PMx_abs="5.061280" NOx_abs="116.282209" fuel_abs="123.208706" electricity_abs="0"/>
    </tripinfo>
    <tripinfo id="h3568c1:3" depart="57656.00" departLane="266565295#5_1" departPos="5.10" departSpeed="0.00" departDelay="0.80" arrival="57731.00" arrivalLane="-24634415_1" arrivalPos="62.03" arrivalSpeed="14.35" duration="75.00" routeLength="807.40" waitingTime="0.00" waitingCount="0" stopTime="0.00" timeLoss="14.81" rerouteNo="1" devices="tripinfo_h3568c1:3 routing_h3568c1:3 emissions_h3568c1:3" vType="default_016" speedFactor="1.06" vaporized="">
        <emissions CO_abs="3408.551365" CO2_abs="204865.124956" HC_abs="20.335132" PMx_abs="3.718256" NOx_abs="84.367255" fuel_abs="88.062824" electricity_abs="0"/>
    </tripinfo>
    <tripinfo id="carIn80064:1" depart="57603.00" departLane="128361109#1_1" departPos="5.10" departSpeed="0.00" departDelay="0.40" arrival="57748.00" arrivalLane="-315358254#1_1" arrivalPos="137.16" arrivalSpeed="13.52" duration="145.00" routeLength="1587.97" waitingTime="24.00" waitingCount="2" stopTime="0.00" timeLoss="55.30" rerouteNo="1" devices="tripinfo_carIn80064:1 routing_carIn80064:1 emissions_carIn80064:1" vType="default_016" speedFactor="1.00" vaporized="">
        <emissions CO_abs="9021.252477" CO2_abs="502305.998498" HC_abs="53.069747" PMx_abs="9.983785" NOx_abs="209.476856" fuel_abs="215.919588" electricity_abs="0"/>
    </tripinfo>
    <tripinfo id="h7181c1:1" depart="57660.00" departLane="315358254#0_1" departPos="5.10" departSpeed="0.00" departDelay="0.10" arrival="57753.00" arrivalLane="306240162#0_0" arrivalPos="220.43" arrivalSpeed="13.92" duration="93.00" routeLength="932.35" waitingTime="16.00" waitingCount="2" stopTime="0.00" timeLoss="35.43" rerouteNo="1" devices="tripinfo_h7181c1:1 routing_h7181c1:1 emissions_h7181c1:1" vType="default_016" speedFactor="0.89" vaporized="">
        <emissions CO_abs="5156.643727" CO2_abs="278601.045545" HC_abs="30.069549" PMx_abs="5.484823" NOx_abs="116.455686" fuel_abs="119.758661" electricity_abs="0"/>
    </tripinfo>
    <tripinfo id="h317c2:1" depart="57707.00" departLane="-32978638#0_1" departPos="5.10" departSpeed="0.00" departDelay="0.10" arrival="57754.00" arrivalLane="-266565295#5_1" arrivalPos="172.76" arrivalSpeed="14.59" duration="47.00" routeLength="370.53" waitingTime="12.00" waitingCount="1" stopTime="0.00" timeLoss="20.96" rerouteNo="1" devices="tripinfo_h317c2:1 routing_h317c2:1 emissions_h317c2:1" vType="default_016" speedFactor="1.07" vaporized="">
        <emissions CO_abs="3596.388324" CO2_abs="148876.978363" HC_abs="19.883894" PMx_abs="2.964650" NOx_abs="63.057343" fuel_abs="63.996446" electricity_abs="0"/>
    </tripinfo>
    <tripinfo id="carIn30817:1" depart="57681.00" departLane="315358244_1" departPos="5.10" departSpeed="0.00" departDelay="0.20" arrival="57762.00" arrivalLane="447569997#1_1" arrivalPos="180.93" arrivalSpeed="7.41" duration="81.00" routeLength="718.04" waitingTime="7.00" waitingCount="1" stopTime="0.00" timeLoss="21.95" rerouteNo="1" devices="tripinfo_carIn30817:1 routing_carIn30817:1 emissions_carIn30817:1" vType="default_016" speedFactor="1.04" vaporized="">
        <emissions CO_abs="2915.781999" CO2_abs="166798.198186" HC_abs="17.141486" PMx_abs="2.803946" NOx_abs="67.097743" fuel_abs="71.699943" electricity_abs="0"/>
    </tripinfo>
    <tripinfo id="h5979c1:5" depart="57669.00" departLane="399835085#1_1" departPos="5.10" departSpeed="0.00" departDelay="0.00" arrival="57767.00" arrivalLane="-315358254#1_1" arrivalPos="137.16" arrivalSpeed="14.33" duration="98.00" routeLength="659.33" waitingTime="13.00" waitingCount="1" stopTime="0.00" timeLoss="28.49" rerouteNo="1" devices="tripinfo_h5979c1:5 routing_h5979c1:5 emissions_h5979c1:5" vType="default_016" speedFactor="1.05" vaporized="">
        <emissions CO_abs="5380.792567" CO2_abs="207877.263141" HC_abs="29.330924" PMx_abs="3.786145" NOx_abs="86.659949" fuel_abs="89.359141" electricity_abs="0"/>
    </tripinfo>
    <tripinfo id="h3326c1:2" depart="57656.00" departLane="22716069#0_1" departPos="5.10" departSpeed="0.00" departDelay="0.00" arrival="57768.00" arrivalLane="24634517#13_1" arrivalPos="111.62" arrivalSpeed="13.79" duration="112.00" routeLength="1312.81" waitingTime="0.00" waitingCount="0" stopTime="0.00" timeLoss="15.05" rerouteNo="1" devices="tripinfo_h3326c1:2 routing_h3326c1:2 emissions_h3326c1:2" vType="default_016" speedFactor="1.01" vaporized="">
        <emissions CO_abs="4140.686064" CO2_abs="319789.815511" HC_abs="26.320939" PMx_abs="5.392251" NOx_abs="128.125527" fuel_abs="137.463783" electricity_abs="0"/>
    </tripinfo>
    <tripinfo id="h3154c1:1" depart="57658.00" departLane="24634507_1" departPos="5.10" departSpeed="0.00" departDelay="0.00" arrival="57770.00" arrivalLane="-266565295#5_1" arrivalPos="172.76" arrivalSpeed="13.06" duration="112.00" routeLength="1206.22" waitingTime="9.00" waitingCount="1" stopTime="0.00" timeLoss="25.41" rerouteNo="1" devices="tripinfo_h3154c1:1 routing_h3154c1:1 emissions_h3154c1:1" vType="default_016" speedFactor="1.03" vaporized="">
        <emissions CO_abs="4807.486899" CO2_abs="286352.491892" HC_abs="28.575009" PMx_abs="5.052230" NOx_abs="116.254357" fuel_abs="123.091116" electricity_abs="0"/>
    </tripinfo>
    <tripinfo id="h645c1:1" depart="57622.00" departLane="266565295#5_1" departPos="5.10" departSpeed="0.00" departDelay="0.40" arrival="57772.00" arrivalLane="-315358244_1" arrivalPos="33.95" arrivalSpeed="15.06" duration="150.00" routeLength="1910.83" waitingTime="8.00" waitingCount="1" stopTime="0.00" timeLoss="23.57" rerouteNo="1" devices="tripinfo_h645c1:1 routing_h645c1:1 emissions_h645c1:1" vType="default_016" speedFactor="1.10" vaporized="">
        <emissions CO_abs="4881.783808" CO2_abs="369437.084379" HC_abs="30.782057" PMx_abs="6.250103" NOx_abs="146.462842" fuel_abs="158.805202" electricity_abs="0"/>
    </tripinfo>
    <tripinfo id="carIn12365:1" depart="57713.00" departLane="315358244_1" departPos="5.10" departSpeed="0.00" departDelay="0.50" arrival="57775.00" arrivalLane="447569997#1_1" arrivalPos="180.93" arrivalSpeed="9.13" duration="62.00" routeLength="718.04" waitingTime="0.00" waitingCount="0" stopTime="0.00" timeLoss="7.83" rerouteNo="1" devices="tripinfo_carIn12365:1 routing_carIn12365:1 emissions_carIn12365:1" vType="default_016" speedFactor="1.13" vaporized="">
        <emissions CO_abs="2218.777419" CO2_abs="161830.589163" HC_abs="13.834177" PMx_abs="2.659393" NOx_abs="64.162451" fuel_abs="69.564186" electricity_abs="0"/>
    </tripinfo>
    <tripinfo id="carIn86816:1" depart="57617.00" departLane="128361102#0_1" departPos="5.10" departSpeed="0.00" departDelay="0.80" arrival="57782.00" arrivalLane="201956811#0_1" arrivalPos="40.40" arrivalSpeed="13.19" duration="165.00" routeLength="2067.33" waitingTime="0.00" waitingCount="0" stopTime="0.00" timeLoss="17.90" rerouteNo="1" devices="tripinfo_carIn86816:1 routing_carIn86816:1 emissions_carIn86816:1" vType="default_016" speedFactor="1.03" vaporized="">
        <emissions CO_abs="4780.359510" CO2_abs="425391.242346" HC_abs="31.598691" PMx_abs="6.833036" NOx_abs="167.025653" fuel_abs="182.857269" electricity_abs="0"/>
    </tripinfo>
    <tripinfo id="h330c1:1" depart="57736.00" departLane="-32978638#0_1" departPos="5.10" departSpeed="0.00" departDelay="0.20" arrival="57786.00" arrivalLane="-266565295#5_1" arrivalPos="172.76" arrivalSpeed="12.18" duration="50.00" routeLength="370.53" waitingTime="12.00" waitingCount="1" stopTime="0.00" timeLoss="21.01" rerouteNo="1" devices="tripinfo_h330c1:1 routing_h330c1:1 emissions_h330c1:1" vType="default_016" speedFactor="0.94" vaporized="">
        <emissions CO_abs="3174.565895" CO2_abs="131216.863599" HC_abs="17.533159" PMx_abs="2.474954" NOx_abs="54.847996" fuel_abs="56.405248" electricity_abs="0"/>
    </tripinfo>
    <tripinfo id="carIn27009:1" depart="57673.00" departLane="-447569998#1_1" departPos="5.10" departSpeed="0.00" departDelay="0.50" arrival="57793.00" arrivalLane="-26677539_1" arrivalPos="152.75" arrivalSpeed="7.58" duration="120.00" routeLength="699.63" waitingTime="23.00" waitingCount="1" stopTime="0.00" timeLoss="38.88" rerouteNo="1" devices="tripinfo_carIn27009:1 routing_carIn27009:1 emissions_carIn27009:1" vType="default_015" speedFactor="1.03" vaporized="">
        <emissions CO_abs="7167.980076" CO2_abs="240524.488180" HC_abs="38.174978" PMx_abs="4.276435" NOx_abs="99.822544" fuel_abs="103.393980" electricity_abs="0"/>
    </tripinfo>
    <tripinfo id="carIn118591:1" depart="57689.00" departLane="315358244_1" departPos="5.10" departSpeed="0.00" departDelay="0.20" arrival="57793.00" arrivalLane="386687235_1" arrivalPos="80.84" arrivalSpeed="13.18" duration="104.00" routeLength="1186.14" waitingTime="1.00" waitingCount="1" stopTime="0.00" timeLoss="13.57" rerouteNo="1" devices="tripinfo_carIn118591:1 routing_carIn118591:1 emissions_carIn118591:1" vType="default_016" speedFactor="0.96" vaporized="">
        <emissions CO_abs="3171.270834" CO2_abs="247538.540481" HC_abs="20.208653" PMx_abs="3.928366" NOx_abs="97.440806" fuel_abs="106.406459" electricity_abs="0"/>
    </tripinfo>
    <tripinfo id="carIn129809:1" depart="57729.00" departLane="-447569998#1_1" departPos="5.10" departSpeed="0.00" departDelay="1.00" arrival="57800.00" arrivalLane="-315358244_1" arrivalPos="33.95" arrivalSpeed="17.15" duration="71.00" routeLength="706.49" waitingTime="10.00" waitingCount="1" stopTime="0.00" timeLoss="23.03" rerouteNo="1" devices="tripinfo_carIn129809:1 routing_carIn129809:1 emissions_carIn129809:1" vType="default_015" speedFactor="1.27" vaporized="">
        <emissions CO_abs="3302.214426" CO2_abs="184703.538416" HC_abs="19.230161" PMx_abs="3.238044" NOx_abs="74.267551" fuel_abs="79.396669" electricity_abs="0"/>
    </tripinfo>
    <tripinfo id="carIn82278:1" depart="57702.00" departLane="-306240162#1_0" departPos="5.10" departSpeed="0.00" departDelay="0.70" arrival="57802.00" arrivalLane="399835085#1_1" arrivalPos="212.23" arrivalSpeed="8.60" duration="100.00" routeLength="1093.26" waitingTime="9.00" waitingCount="1" stopTime="0.00" timeLoss="29.89" rerouteNo="1" devices="tripinfo_carIn82278:1 routing_carIn82278:1 emissions_carIn82278:1" vType="default_016" speedFactor="1.11" vaporized="">
        <emissions CO_abs="5978.956347" CO2_abs="352012.082541" HC_abs="35.658099" PMx_abs="6.939953" NOx_abs="146.389358" fuel_abs="151.314548" electricity_abs="0"/>
    </tripinfo>
    <tripinfo id="h16072c2:3" depart="57663.00" departLane="315358254#0_1" departPos="5.10" departSpeed="0.00" departDelay="2.50" arrival="57813.00" arrivalLane="386687235_2" arrivalPos="80.84" arrivalSpeed="14.83" duration="150.00" routeLength="1611.92" waitingTime="20.00" waitingCount="3" stopTime="0.00" timeLoss="44.91" rerouteNo="1" devices="tripinfo_h16072c2:3 routing_h16072c2:3 emissions_h16072c2:3" vType="default_016" speedFactor="1.12" vaporized="">
        <emissions CO_abs="6660.203806" CO2_abs="398191.707529" HC_abs="39.604707" PMx_abs="7.152132" NOx_abs="161.603064" fuel_abs="171.166043" electricity_abs="0"/>
    </tripinfo>
    <tripinfo id="carIn48184:1" depart="57613.00" departLane="-306240162#1_0" departPos="5.10" departSpeed="0.00" departDelay="0.70" arrival="57814.00" arrivalLane="386687235_1" arrivalPos="80.84" arrivalSpeed="12.11" duration="201.00" routeLength="2257.41" waitingTime="17.00" waitingCount="2" stopTime="0.00" timeLoss="46.14" rerouteNo="1" devices="tripinfo_carIn48184:1 routing_carIn48184:1 emissions_carIn48184:1" vType="default_016" speedFactor="0.96" vaporized="">
        <emissions CO_abs="7578.245960" CO2_abs="506677.858352" HC_abs="46.460784" PMx_abs="8.972029" NOx_abs="204.579527" fuel_abs="217.799204" electricity_abs="0"/>
    </tripinfo>
    <tripinfo id="carIn50326:1" depart="57651.00" departLane="128361102#0_1" departPos="5.10" departSpeed="0.00" departDelay="0.30" arrival="57815.00" arrivalLane="18809673#0_1" arrivalPos="473.56" arrivalSpeed="12.77" duration="164.00" routeLength="1591.07" waitingTime="5.00" waitingCount="1" stopTime="0.00" timeLoss="24.18" rerouteNo="1" devices="tripinfo_carIn50326:1 routing_carIn50326:1 emissions_carIn50326:1" vType="default_016" speedFactor="0.93" vaporized="">
        <emissions CO_abs="5192.305391" CO2_abs="344782.458311" HC_abs="31.620504" PMx_abs="5.383667" NOx_abs="136.228879" fuel_abs="148.208235" electricity_abs="0"/>
    </tripinfo>
    <tripinfo id="carIn107084:1" depart="57601.00" departLane="124812856#0_1" departPos="5.10" departSpeed="0.00" departDelay="0.70" arrival="57817.00" arrivalLane="-128361102#1_1" arrivalPos="274.68" arrivalSpeed="10.45" duration="216.00" routeLength="2232.46" waitingTime="0.00" waitingCount="0" stopTime="0.00" timeLoss="18.51" rerouteNo="1" devices="tripinfo_carIn107084:1 routing_carIn107084:1 emissions_carIn107084:1" vType="default_016" speedFactor="0.83" vaporized="">
        <emissions CO_abs="5468.781344" CO2_abs="415317.301687" HC_abs="34.438594" PMx_abs="5.985771" NOx_abs="160.908058" fuel_abs="178.528439" electricity_abs="0"/>
    </tripinfo>
    <tripinfo id="carIn46110:1" depart="57684.00" departLane="315358244_1" departPos="5.10" departSpeed="0.00" departDelay="1.20" arrival="57818.00" arrivalLane="32978638#0_1" arrivalPos="49.29" arrivalSpeed="16.19" duration="134.00" routeLength="1764.04" waitingTime="12.00" waitingCount="1" stopTime="0.00" timeLoss="29.72" rerouteNo="1" devices="tripinfo_carIn46110:1 routing_carIn46110:1 emissions_carIn46110:1" vType="default_016" speedFactor="1.23" vaporized="">
        <emissions CO_abs="5496.210587" CO2_abs="386091.312011" HC_abs="33.863438" PMx_abs="6.909483" NOx_abs="154.619993" fuel_abs="165.963961" electricity_abs="0"/>
    </tripinfo>
    <tripinfo id="h11737c1:1" depart="57665.00" departLane="272042143_1" departPos="5.10" departSpeed="0.00" departDelay="1.50" arrival="57819.00" arrivalLane="-315358254#1_1" arrivalPos="137.16" arrivalSpeed="11.60" duration="154.00" routeLength="1596.88" waitingTime="4.00" waitingCount="1" stopTime="0.00" timeLoss="20.22" rerouteNo="1" devices="tripinfo_h11737c1:1 routing_h11737c1:1 emissions_h11737c1:1" vType="default_016" speedFactor="0.87" vaporized="">
        <emissions CO_abs="4536.184294" CO2_abs="333222.258380" HC_abs="28.377728" PMx_abs="5.177692" NOx_abs="131.330631" fuel_abs="143.238610" electricity_abs="0"/>
    </tripinfo>
    <tripinfo id="carIn102915:1" depart="57643.00" departLane="128361102#0_1" departPos="5.10" departSpeed="0.00" departDelay="0.40" arrival="57821.00" arrivalLane="201956811#0_1" arrivalPos="40.40" arrivalSpeed="12.71" duration="178.00" routeLength="2067.33" waitingTime="0.00" waitingCount="0" stopTime="0.00" timeLoss="16.94" rerouteNo="1" devices="tripinfo_carIn102915:1 routing_carIn102915:1 emissions_carIn102915:1" vType="default_016" speedFactor="0.94" vaporized="">
        <emissions CO_abs="4933.064167" CO2_abs="413905.212760" HC_abs="32.075182" PMx_abs="6.390986" NOx_abs="161.899474" fuel_abs="177.920470" electricity_abs="0"/>
    </tripinfo>
    <tripinfo id="carIn77943:1" depart="57608.00" departLane="124812856#0_1" departPos="5.10" departSpeed="0.00" departDelay="2.50" arrival="57822.00" arrivalLane="-128361102#1_1" arrivalPos="274.68" arrivalSpeed="11.21" duration="214.00" routeLength="2250.49" waitingTime="0.00" waitingCount="0" stopTime="0.00" timeLoss="18.81" rerouteNo="1" devices="tripinfo_carIn77943:1 routing_carIn77943:1 emissions_carIn77943:1" vType="default_016" speedFactor="0.84" vaporized="">
        <emissions CO_abs="5449.849433" CO2_abs="426377.409722" HC_abs="34.621577" PMx_abs="6.178200" NOx_abs="165.153641" fuel_abs="183.282576" electricity_abs="0"/>
    </tripinfo>
    <tripinfo id="carIn121703:1" depart="57647.00" departLane="386687232#0_1" departPos="5.10" departSpeed="0.00" departDelay="0.30" arrival="57823.00" arrivalLane="-315358244_1" arrivalPos="33.95" arrivalSpeed="15.24" duration="176.00" routeLength="1157.39" waitingTime="79.00" waitingCount="2" stopTime="0.00" timeLoss="103.78" rerouteNo="1" devices="tripinfo_carIn121703:1 routing_carIn121703:1 emissions_carIn121703:1" vType="default_016" speedFactor="1.17" vaporized="">
        <emissions CO_abs="15936.281199" CO2_abs="481708.109268" HC_abs="83.883381" PMx_abs="10.126216" NOx_abs="206.547944" fuel_abs="207.070614" electricity_abs="0"/>
    </tripinfo>
    <tripinfo id="carIn81046:1" depart="57611.00" departLane="124812856#0_1" departPos="5.10" departSpeed="0.00" departDelay="2.50" arrival="57824.00" arrivalLane="-128361102#1_1" arrivalPos="274.68" arrivalSpeed="12.80" duration="213.00" routeLength="2250.49" waitingTime="0.00" waitingCount="0" stopTime="0.00" timeLoss="36.30" rerouteNo="1" devices="tripinfo_carIn81046:1 routing_carIn81046:1 emissions_carIn81046:1" vType="default_016" speedFactor="0.93" vaporized="">
        <emissions CO_abs="6779.395407" CO2_abs="487746.734666" HC_abs="42.246989" PMx_abs="8.022104" NOx_abs="195.592045" fuel_abs="209.661748" electricity_abs="0"/>
    </tripinfo>
    <tripinfo id="randUni33724:1" depart="57646.00" departLane="128361102#0_1" departPos="5.10" departSpeed="0.00" departDelay="1.20" arrival="57824.00" arrivalLane="201956811#0_1" arrivalPos="40.40" arrivalSpeed="12.98" duration="178.00" routeLength="2067.33" waitingTime="0.00" waitingCount="0" stopTime="0.00" timeLoss="21.66" rerouteNo="1" devices="tripinfo_randUni33724:1 routing_randUni33724:1 emissions_randUni33724:1" vType="random_016" speedFactor="0.97" vaporized="">
        <emissions CO_abs="5384.013606" CO2_abs="432158.298360" HC_abs="34.599984" PMx_abs="6.928191" NOx_abs="170.874927" fuel_abs="185.766497" electricity_abs="0"/>
    </tripinfo>
    <tripinfo id="carIn77438:1" depart="57614.00" departLane="124812856#0_1" departPos="5.10" departSpeed="0.00" departDelay="1.10" arrival="57826.00" arrivalLane="-128361102#1_1" arrivalPos="274.68" arrivalSpeed="12.77" duration="212.00" routeLength="2250.49" waitingTime="0.00" waitingCount="0" stopTime="0.00" timeLoss="38.06" rerouteNo="1" devices="tripinfo_carIn77438:1 routing_carIn77438:1 emissions_carIn77438:1" vType="default_016" speedFactor="0.95" vaporized="">
        <emissions CO_abs="7216.345960" CO2_abs="524454.952810" HC_abs="45.081205" PMx_abs="8.541093" NOx_abs="209.559768" fuel_abs="225.441150" electricity_abs="0"/>
    </tripinfo>
    <tripinfo id="h19804c1:3" depart="57617.00" departLane="124812856#0_1" departPos="5.10" departSpeed="0.00" departDelay="1.50" arrival="57827.00" arrivalLane="-128361102#1_1" arrivalPos="274.68" arrivalSpeed="12.30" duration="210.00" routeLength="2250.49" waitingTime="0.00" waitingCount="0" stopTime="0.00" timeLoss="41.97" rerouteNo="1" devices="tripinfo_h19804c1:3 routing_h19804c1:3 emissions_h19804c1:3" vType="default_016" speedFactor="0.98" vaporized="">
        <emissions CO_abs="7151.933951" CO2_abs="513849.337077" HC_abs="44.542398" PMx_abs="8.523055" NOx_abs="206.333123" fuel_abs="220.882069" electricity_abs="0"/>
    </tripinfo>
    <tripinfo id="carIn107842:1" depart="57623.00" departLane="124812856#0_1" departPos="5.10" departSpeed="0.00" departDelay="1.90" arrival="57829.00" arrivalLane="-128361102#1_1" arrivalPos="274.68" arrivalSpeed="12.33" duration="206.00" routeLength="2250.49" waitingTime="0.00" waitingCount="0" stopTime="0.00" timeLoss="35.06" rerouteNo="1" devices="tripinfo_carIn107842:1 routing_carIn107842:1 emissions_carIn107842:1" vType="default_016" speedFactor="0.96" vaporized="">
        <emissions CO_abs="7294.852011" CO2_abs="535771.715918" HC_abs="45.762729" PMx_abs="9.021423" NOx_abs="215.776178" fuel_abs="230.305255" electricity_abs="0"/>
    </tripinfo>
    <tripinfo id="h15382c1:3" depart="57626.00" departLane="124812856#0_1" departPos="5.10" departSpeed="0.00" departDelay="3.80" arrival="57831.00" arrivalLane="-128361102#1_1" arrivalPos="274.68" arrivalSpeed="12.60" duration="205.00" routeLength="2250.49" waitingTime="0.00" waitingCount="0" stopTime="0.00" timeLoss="39.82" rerouteNo="1" devices="tripinfo_h15382c1:3 routing_h15382c1:3 emissions_h15382c1:3" vType="default_016" speedFactor="1.00" vaporized="">
        <emissions CO_abs="7937.736875" CO2_abs="554968.933579" HC_abs="49.227673" PMx_abs="9.989389" NOx_abs="228.024989" fuel_abs="238.556616" electricity_abs="0"/>
    </tripinfo>
    <tripinfo id="carIn3969:1" depart="57629.00" departLane="124812856#0_1" departPos="5.10" departSpeed="0.00" departDelay="5.30" arrival="57833.00" arrivalLane="-128361102#1_1" arrivalPos="274.68" arrivalSpeed="12.95" duration="204.00" routeLength="2250.49" waitingTime="0.00" waitingCount="0" stopTime="0.00" timeLoss="41.12" rerouteNo="1" devices="tripinfo_carIn3969:1 routing_carIn3969:1 emissions_carIn3969:1" vType="default_016" speedFactor="1.01" vaporized="">
        <emissions CO_abs="7989.421391" CO2_abs="569610.682681" HC_abs="49.777608" PMx_abs="9.948636" NOx_abs="231.826692" fuel_abs="244.850816" electricity_abs="0"/>
    </tripinfo>
    <tripinfo id="carIn462:1" depart="57622.00" departLane="-306240162#1_0" departPos="5.10" departSpeed="0.00" departDelay="4.80" arrival="57834.00" arrivalLane="386687235_1" arrivalPos="80.84" arrivalSpeed="13.88" duration="212.00" routeLength="2257.41" waitingTime="21.00" waitingCount="3" stopTime="0.00" timeLoss="67.78" rerouteNo="1" devices="tripinfo_carIn462:1 routing_carIn462:1 emissions_carIn462:1" vType="default_016" speedFactor="1.03" vaporized="">
        <emissions CO_abs="9094.448713" CO2_abs="576718.009917" HC_abs="55.035993" PMx_abs="10.720588" NOx_abs="236.842924" fuel_abs="247.906019" electricity_abs="0"/>
    </tripinfo>
    <tripinfo id="carIn116184:1" depart="57627.00" departLane="-306240162#1_0" departPos="5.10" departSpeed="0.00" departDelay="0.10" arrival="57834.00" arrivalLane="386687235_2" arrivalPos="80.84" arrivalSpeed="13.38" duration="207.00" routeLength="2257.41" waitingTime="17.00" waitingCount="3" stopTime="0.00" timeLoss="61.12" rerouteNo="1" devices="tripinfo_carIn116184:1 routing_carIn116184:1 emissions_carIn116184:1" vType="default_016" speedFactor="1.02" vaporized="">
        <emissions CO_abs="8177.497690" CO2_abs="565102.977965" HC_abs="50.617933" PMx_abs="10.162144" NOx_abs="229.306281" fuel_abs="242.913188" electricity_abs="0"/>
    </tripinfo>
    <tripinfo id="h3864c1:3" depart="57678.00" departLane="24693977#1_1" departPos="5.10" departSpeed="0.00" departDelay="0.00" arrival="57834.00" arrivalLane="201956820_2" arrivalPos="48.33" arrivalSpeed="14.01" duration="156.00" routeLength="1574.85" waitingTime="8.00" waitingCount="1" stopTime="0.00" timeLoss="32.44" rerouteNo="1" devices="tripinfo_h3864c1:3 routing_h3864c1:3 emissions_h3864c1:3" vType="default_016" speedFactor="1.05" vaporized="">
        <emissions CO_abs="6231.219711" CO2_abs="386767.843032" HC_abs="37.309933" PMx_abs="6.616372" NOx_abs="156.449997" fuel_abs="166.255533" electricity_abs="0"/>
    </tripinfo>