<?xml version="1.0" encoding="UTF-8"?>

<!-- generated on 2021-10-26 13:37:28 by Eclipse SUMO sumo Version 1.10.0
<configuration xmlns:xsi="http://www.w3.org/2001/XMLSchema-instance" xsi:noNamespaceSchemaLocation="http://sumo.dlr.de/xsd/sumoConfiguration.xsd">

    <input>
        <net-file value="/Users/behradkoohy/sumo-scratchpad/RESCO/environments/ingolstadt21/ingolstadt21.net.xml"/>
        <route-files value="/Users/behradkoohy/sumo-scratchpad/RESCO/environments/ingolstadt21/ingolstadt21.rou.xml"/>
    </input>

    <output>
        <tripinfo-output value="/Users/behradkoohy/sumo-scratchpad/RESCO/logs/MAXPRESSURE-tr0-ingolstadt21-21-mplight-wait/tripinfo_74.xml"/>
        <tripinfo-output.write-unfinished value="true"/>
    </output>

    <time>
        <begin value="57600"/>
        <end value="61200"/>
    </time>

    <processing>
        <time-to-teleport value="-1"/>
    </processing>

    <report>
        <no-warnings value="true"/>
        <no-step-log value="true"/>
    </report>

    <emissions>
        <device.emissions.probability value="1"/>
    </emissions>

    <traci_server>
        <remote-port value="59428"/>
    </traci_server>

    <random_number>
        <random value="true"/>
    </random_number>

</configuration>
-->

<tripinfos xmlns:xsi="http://www.w3.org/2001/XMLSchema-instance" xsi:noNamespaceSchemaLocation="http://sumo.dlr.de/xsd/tripinfo_file.xsd">
    <tripinfo id="h15454c2:3" depart="57612.00" departLane="24608844_1" departPos="5.10" departSpeed="0.00" departDelay="0.50" arrival="57651.00" arrivalLane="32978638#0_1" arrivalPos="49.29" arrivalSpeed="13.71" duration="39.00" routeLength="354.79" waitingTime="0.00" waitingCount="0" stopTime="0.00" timeLoss="6.10" rerouteNo="1" devices="tripinfo_h15454c2:3 routing_h15454c2:3 emissions_h15454c2:3" vType="default_016" speedFactor="1.04" vaporized="">
        <emissions CO_abs="2073.043652" CO2_abs="120391.532998" HC_abs="12.232629" PMx_abs="2.069616" NOx_abs="49.048139" fuel_abs="51.751424" electricity_abs="0"/>
    </tripinfo>
    <tripinfo id="carIn60260:1" depart="57606.00" departLane="315358254#0_1" departPos="5.10" departSpeed="0.00" departDelay="0.90" arrival="57662.00" arrivalLane="399835085#1_1" arrivalPos="212.23" arrivalSpeed="7.57" duration="56.00" routeLength="430.98" waitingTime="0.00" waitingCount="0" stopTime="0.00" timeLoss="7.28" rerouteNo="1" devices="tripinfo_carIn60260:1 routing_carIn60260:1 emissions_carIn60260:1" vType="default_016" speedFactor="0.94" vaporized="">
        <emissions CO_abs="2424.131486" CO2_abs="119051.386365" HC_abs="13.761962" PMx_abs="1.844345" NOx_abs="47.521916" fuel_abs="51.175948" electricity_abs="0"/>
    </tripinfo>
    <tripinfo id="carIn53971:1" depart="57640.00" departLane="272042143_1" departPos="5.10" departSpeed="0.00" departDelay="0.80" arrival="57695.00" arrivalLane="24634414#1_1" arrivalPos="162.19" arrivalSpeed="7.20" duration="55.00" routeLength="493.04" waitingTime="0.00" waitingCount="0" stopTime="0.00" timeLoss="8.73" rerouteNo="1" devices="tripinfo_carIn53971:1 routing_carIn53971:1 emissions_carIn53971:1" vType="default_016" speedFactor="1.00" vaporized="">
        <emissions CO_abs="2672.700700" CO2_abs="153264.817807" HC_abs="15.730181" PMx_abs="2.549779" NOx_abs="61.910585" fuel_abs="65.882473" electricity_abs="0"/>
    </tripinfo>
    <tripinfo id="h12244c1:3" depart="57612.00" departLane="315358244_1" departPos="5.10" departSpeed="0.00" departDelay="0.40" arrival="57715.00" arrivalLane="386687235_1" arrivalPos="80.84" arrivalSpeed="11.73" duration="103.00" routeLength="1186.14" waitingTime="0.00" waitingCount="0" stopTime="0.00" timeLoss="8.77" rerouteNo="1" devices="tripinfo_h12244c1:3 routing_h12244c1:3 emissions_h12244c1:3" vType="default_016" speedFactor="0.92" vaporized="">
        <emissions CO_abs="2619.896422" CO2_abs="225738.618403" HC_abs="17.141547" PMx_abs="3.283805" NOx_abs="86.873294" fuel_abs="97.035814" electricity_abs="0"/>
    </tripinfo>
    <tripinfo id="S5R_frequency1.2" depart="57616.00" departLane="315358250#0_1" departPos="12.10" departSpeed="0.00" departDelay="4.40" arrival="57719.00" arrivalLane="386687235_1" arrivalPos="80.84" arrivalSpeed="13.30" duration="103.00" routeLength="1115.62" waitingTime="0.00" waitingCount="0" stopTime="0.00" timeLoss="21.39" rerouteNo="1" devices="tripinfo_S5R_frequency1.2 routing_S5R_frequency1.2 emissions_S5R_frequency1.2" vType="bus" speedFactor="1.00" vaporized="">
        <emissions CO_abs="2042.961808" CO2_abs="1309381.765510" HC_abs="413.741183" PMx_abs="218.690459" NOx_abs="10099.240125" fuel_abs="558.430492" electricity_abs="0"/>
    </tripinfo>
    <tripinfo id="carIn80064:1" depart="57603.00" departLane="128361109#1_1" departPos="5.10" departSpeed="0.00" departDelay="0.40" arrival="57722.00" arrivalLane="-315358254#1_1" arrivalPos="137.16" arrivalSpeed="13.79" duration="119.00" routeLength="1587.97" waitingTime="10.00" waitingCount="1" stopTime="0.00" timeLoss="32.99" rerouteNo="1" devices="tripinfo_carIn80064:1 routing_carIn80064:1 emissions_carIn80064:1" vType="default_016" speedFactor="1.03" vaporized="">
        <emissions CO_abs="7011.288523" CO2_abs="460384.323877" HC_abs="42.964437" PMx_abs="9.021626" NOx_abs="189.603704" fuel_abs="197.898562" electricity_abs="0"/>
    </tripinfo>
    <tripinfo id="h7800c1:5" depart="57696.00" departLane="-447569998#1_1" departPos="5.10" departSpeed="0.00" departDelay="0.00" arrival="57724.00" arrivalLane="-447569998#1_2" arrivalPos="180.76" arrivalSpeed="4.76" duration="28.00" routeLength="175.66" waitingTime="0.00" waitingCount="0" stopTime="0.00" timeLoss="4.33" rerouteNo="1" devices="tripinfo_h7800c1:5 routing_h7800c1:5 emissions_h7800c1:5" vType="default_016" speedFactor="0.90" vaporized="">
        <emissions CO_abs="1396.961276" CO2_abs="56192.447273" HC_abs="7.659872" PMx_abs="0.994066" NOx_abs="23.418781" fuel_abs="24.155138" electricity_abs="0"/>
    </tripinfo>
    <tripinfo id="carIn22761:1" depart="57616.00" departLane="-306240162#1_0" departPos="5.10" departSpeed="0.00" departDelay="2.10" arrival="57726.00" arrivalLane="399835085#1_1" arrivalPos="212.23" arrivalSpeed="7.25" duration="110.00" routeLength="1093.26" waitingTime="13.00" waitingCount="1" stopTime="0.00" timeLoss="29.16" rerouteNo="1" devices="tripinfo_carIn22761:1 routing_carIn22761:1 emissions_carIn22761:1" vType="default_016" speedFactor="0.96" vaporized="">
        <emissions CO_abs="5772.913517" CO2_abs="292241.917787" HC_abs="33.176395" PMx_abs="5.460606" NOx_abs="119.759970" fuel_abs="125.623106" electricity_abs="0"/>
    </tripinfo>
    <tripinfo id="h7181c1:1" depart="57660.00" departLane="315358254#0_1" departPos="5.10" departSpeed="0.00" departDelay="0.10" arrival="57729.00" arrivalLane="306240162#0_0" arrivalPos="220.43" arrivalSpeed="18.78" duration="69.00" routeLength="932.35" waitingTime="13.00" waitingCount="1" stopTime="0.00" timeLoss="24.87" rerouteNo="1" devices="tripinfo_h7181c1:1 routing_h7181c1:1 emissions_h7181c1:1" vType="default_016" speedFactor="1.17" vaporized="">
        <emissions CO_abs="5629.550412" CO2_abs="310904.722589" HC_abs="33.178620" PMx_abs="6.514953" NOx_abs="129.624933" fuel_abs="133.644232" electricity_abs="0"/>
    </tripinfo>
    <tripinfo id="h9563c2:5" depart="57631.00" departLane="315358244_1" departPos="5.10" departSpeed="0.00" departDelay="0.70" arrival="57731.00" arrivalLane="386687235_1" arrivalPos="80.84" arrivalSpeed="12.39" duration="100.00" routeLength="1186.14" waitingTime="0.00" waitingCount="0" stopTime="0.00" timeLoss="8.70" rerouteNo="1" devices="tripinfo_h9563c2:5 routing_h9563c2:5 emissions_h9563c2:5" vType="default_016" speedFactor="0.95" vaporized="">
        <emissions CO_abs="2538.500161" CO2_abs="225925.313997" HC_abs="16.782792" PMx_abs="3.341893" NOx_abs="87.144541" fuel_abs="97.115926" electricity_abs="0"/>
    </tripinfo>
    <tripinfo id="h3568c1:3" depart="57656.00" departLane="266565295#5_1" departPos="5.10" departSpeed="0.00" departDelay="0.80" arrival="57731.00" arrivalLane="-24634415_1" arrivalPos="62.03" arrivalSpeed="12.90" duration="75.00" routeLength="807.40" waitingTime="0.00" waitingCount="0" stopTime="0.00" timeLoss="11.77" rerouteNo="1" devices="tripinfo_h3568c1:3 routing_h3568c1:3 emissions_h3568c1:3" vType="default_016" speedFactor="1.02" vaporized="">
        <emissions CO_abs="3224.896041" CO2_abs="214600.969553" HC_abs="19.697839" PMx_abs="3.722732" NOx_abs="87.050686" fuel_abs="92.247838" electricity_abs="0"/>
    </tripinfo>
    <tripinfo id="h3688c1:1" depart="57625.00" departLane="201201950#1_1" departPos="5.10" departSpeed="0.00" departDelay="0.00" arrival="57733.00" arrivalLane="32978638#0_1" arrivalPos="49.29" arrivalSpeed="12.48" duration="108.00" routeLength="1089.75" waitingTime="6.00" waitingCount="1" stopTime="0.00" timeLoss="20.89" rerouteNo="1" devices="tripinfo_h3688c1:1 routing_h3688c1:1 emissions_h3688c1:1" vType="default_016" speedFactor="0.92" vaporized="">
        <emissions CO_abs="3460.243457" CO2_abs="245815.014232" HC_abs="21.477297" PMx_abs="3.957518" NOx_abs="97.684487" fuel_abs="105.665709" electricity_abs="0"/>
    </tripinfo>
    <tripinfo id="carIn30817:1" depart="57681.00" departLane="315358244_1" departPos="5.10" departSpeed="0.00" departDelay="0.20" arrival="57745.00" arrivalLane="447569997#1_1" arrivalPos="180.93" arrivalSpeed="8.70" duration="64.00" routeLength="718.04" waitingTime="0.00" waitingCount="0" stopTime="0.00" timeLoss="6.22" rerouteNo="1" devices="tripinfo_carIn30817:1 routing_carIn30817:1 emissions_carIn30817:1" vType="default_016" speedFactor="1.06" vaporized="">
        <emissions CO_abs="1957.522611" CO2_abs="146689.068060" HC_abs="12.189735" PMx_abs="2.266455" NOx_abs="57.228864" fuel_abs="63.055640" electricity_abs="0"/>
    </tripinfo>
    <tripinfo id="h317c2:1" depart="57707.00" departLane="-32978638#0_1" departPos="5.10" departSpeed="0.00" departDelay="0.10" arrival="57757.00" arrivalLane="-266565295#5_1" arrivalPos="172.76" arrivalSpeed="12.27" duration="50.00" routeLength="370.53" waitingTime="11.00" waitingCount="1" stopTime="0.00" timeLoss="19.45" rerouteNo="1" devices="tripinfo_h317c2:1 routing_h317c2:1 emissions_h317c2:1" vType="default_016" speedFactor="0.90" vaporized="">
        <emissions CO_abs="2999.006474" CO2_abs="130619.797954" HC_abs="16.720615" PMx_abs="2.445344" NOx_abs="54.514211" fuel_abs="56.148478" electricity_abs="0"/>
    </tripinfo>
    <tripinfo id="h5979c1:5" depart="57669.00" departLane="399835085#1_1" departPos="5.10" departSpeed="0.00" departDelay="0.00" arrival="57769.00" arrivalLane="-315358254#1_1" arrivalPos="137.16" arrivalSpeed="12.39" duration="100.00" routeLength="659.33" waitingTime="4.00" waitingCount="1" stopTime="0.00" timeLoss="19.00" rerouteNo="1" devices="tripinfo_h5979c1:5 routing_h5979c1:5 emissions_h5979c1:5" vType="default_016" speedFactor="0.90" vaporized="">
        <emissions CO_abs="4344.899751" CO2_abs="188144.786617" HC_abs="24.077844" PMx_abs="2.960020" NOx_abs="75.664735" fuel_abs="80.877080" electricity_abs="0"/>
    </tripinfo>
    <tripinfo id="h645c1:1" depart="57622.00" departLane="266565295#5_1" departPos="5.10" departSpeed="0.00" departDelay="0.40" arrival="57772.00" arrivalLane="-315358244_1" arrivalPos="33.95" arrivalSpeed="14.94" duration="150.00" routeLength="1910.83" waitingTime="6.00" waitingCount="1" stopTime="0.00" timeLoss="21.42" rerouteNo="1" devices="tripinfo_h645c1:1 routing_h645c1:1 emissions_h645c1:1" vType="default_016" speedFactor="1.08" vaporized="">
        <emissions CO_abs="4079.903405" CO2_abs="374000.781570" HC_abs="27.071005" PMx_abs="6.032277" NOx_abs="146.097287" fuel_abs="160.766655" electricity_abs="0"/>
    </tripinfo>
    <tripinfo id="h3154c1:1" depart="57658.00" departLane="24634507_1" departPos="5.10" departSpeed="0.00" departDelay="0.00" arrival="57775.00" arrivalLane="-266565295#5_1" arrivalPos="172.76" arrivalSpeed="13.02" duration="117.00" routeLength="1206.22" waitingTime="7.00" waitingCount="1" stopTime="0.00" timeLoss="22.00" rerouteNo="1" devices="tripinfo_h3154c1:1 routing_h3154c1:1 emissions_h3154c1:1" vType="default_016" speedFactor="0.94" vaporized="">
        <emissions CO_abs="4061.333120" CO2_abs="277149.501790" HC_abs="24.953549" PMx_abs="4.526079" NOx_abs="110.388842" fuel_abs="119.135165" electricity_abs="0"/>
    </tripinfo>
    <tripinfo id="h3326c1:2" depart="57656.00" departLane="22716069#0_1" departPos="5.10" departSpeed="0.00" departDelay="0.00" arrival="57778.00" arrivalLane="24634517#13_1" arrivalPos="111.62" arrivalSpeed="12.50" duration="122.00" routeLength="1312.81" waitingTime="1.00" waitingCount="1" stopTime="0.00" timeLoss="19.24" rerouteNo="1" devices="tripinfo_h3326c1:2 routing_h3326c1:2 emissions_h3326c1:2" vType="default_016" speedFactor="0.94" vaporized="">
        <emissions CO_abs="4414.796347" CO2_abs="302583.854973" HC_abs="27.189750" PMx_abs="5.137559" NOx_abs="122.090256" fuel_abs="130.067999" electricity_abs="0"/>
    </tripinfo>
    <tripinfo id="carIn118591:1" depart="57689.00" departLane="315358244_1" departPos="5.10" departSpeed="0.00" departDelay="0.20" arrival="57784.00" arrivalLane="386687235_1" arrivalPos="80.84" arrivalSpeed="14.81" duration="95.00" routeLength="1186.14" waitingTime="2.00" waitingCount="1" stopTime="0.00" timeLoss="15.77" rerouteNo="1" devices="tripinfo_carIn118591:1 routing_carIn118591:1 emissions_carIn118591:1" vType="default_016" speedFactor="1.10" vaporized="">
        <emissions CO_abs="3402.083838" CO2_abs="267164.352087" HC_abs="21.795096" PMx_abs="4.638875" NOx_abs="107.181719" fuel_abs="114.842204" electricity_abs="0"/>
    </tripinfo>
    <tripinfo id="carIn12365:1" depart="57713.00" departLane="315358244_1" departPos="5.10" departSpeed="0.00" departDelay="0.50" arrival="57784.00" arrivalLane="447569997#1_1" arrivalPos="180.93" arrivalSpeed="7.26" duration="71.00" routeLength="718.04" waitingTime="0.00" waitingCount="0" stopTime="0.00" timeLoss="7.18" rerouteNo="1" devices="tripinfo_carIn12365:1 routing_carIn12365:1 emissions_carIn12365:1" vType="default_016" speedFactor="0.96" vaporized="">
        <emissions CO_abs="2202.889673" CO2_abs="150379.827452" HC_abs="13.505998" PMx_abs="2.332599" NOx_abs="59.184433" fuel_abs="64.642277" electricity_abs="0"/>
    </tripinfo>
    <tripinfo id="h330c1:1" depart="57736.00" departLane="-32978638#0_1" departPos="5.10" departSpeed="0.00" departDelay="0.20" arrival="57785.00" arrivalLane="-266565295#5_1" arrivalPos="172.76" arrivalSpeed="13.02" duration="49.00" routeLength="370.53" waitingTime="12.00" waitingCount="1" stopTime="0.00" timeLoss="21.20" rerouteNo="1" devices="tripinfo_h330c1:1 routing_h330c1:1 emissions_h330c1:1" vType="default_016" speedFactor="0.98" vaporized="">
        <emissions CO_abs="3302.498270" CO2_abs="136022.201792" HC_abs="18.235111" PMx_abs="2.649545" NOx_abs="57.315325" fuel_abs="58.470772" electricity_abs="0"/>
    </tripinfo>
    <tripinfo id="carIn86816:1" depart="57617.00" departLane="128361102#0_1" departPos="5.10" departSpeed="0.00" departDelay="0.80" arrival="57790.00" arrivalLane="201956811#0_1" arrivalPos="40.40" arrivalSpeed="13.54" duration="173.00" routeLength="2067.33" waitingTime="8.00" waitingCount="1" stopTime="0.00" timeLoss="29.73" rerouteNo="1" devices="tripinfo_carIn86816:1 routing_carIn86816:1 emissions_carIn86816:1" vType="default_016" speedFactor="1.05" vaporized="">
        <emissions CO_abs="5946.368829" CO2_abs="465188.099220" HC_abs="37.913385" PMx_abs="7.710128" NOx_abs="184.196547" fuel_abs="199.964476" electricity_abs="0"/>
    </tripinfo>
    <tripinfo id="carIn102915:1" depart="57643.00" departLane="128361102#0_1" departPos="5.10" departSpeed="0.00" departDelay="0.40" arrival="57798.00" arrivalLane="201956811#0_1" arrivalPos="40.40" arrivalSpeed="14.86" duration="155.00" routeLength="2067.33" waitingTime="0.00" waitingCount="0" stopTime="0.00" timeLoss="17.45" rerouteNo="1" devices="tripinfo_carIn102915:1 routing_carIn102915:1 emissions_carIn102915:1" vType="default_016" speedFactor="1.10" vaporized="">
        <emissions CO_abs="4927.528469" CO2_abs="435948.641857" HC_abs="32.483251" PMx_abs="7.293986" NOx_abs="172.437713" fuel_abs="187.395063" electricity_abs="0"/>
    </tripinfo>
    <tripinfo id="carIn50326:1" depart="57651.00" departLane="128361102#0_1" departPos="5.10" departSpeed="0.00" departDelay="0.30" arrival="57800.00" arrivalLane="18809673#0_1" arrivalPos="473.56" arrivalSpeed="14.12" duration="149.00" routeLength="1591.07" waitingTime="8.00" waitingCount="1" stopTime="0.00" timeLoss="28.29" rerouteNo="1" devices="tripinfo_carIn50326:1 routing_carIn50326:1 emissions_carIn50326:1" vType="default_016" speedFactor="1.07" vaporized="">
        <emissions CO_abs="5261.718425" CO2_abs="363037.702212" HC_abs="32.248173" PMx_abs="6.026966" NOx_abs="144.582496" fuel_abs="156.054797" electricity_abs="0"/>
    </tripinfo>
    <tripinfo id="carIn48184:1" depart="57613.00" departLane="-306240162#1_0" departPos="5.10" departSpeed="0.00" departDelay="0.70" arrival="57804.00" arrivalLane="386687235_1" arrivalPos="80.84" arrivalSpeed="13.53" duration="191.00" routeLength="2257.41" waitingTime="15.00" waitingCount="2" stopTime="0.00" timeLoss="44.46" rerouteNo="1" devices="tripinfo_carIn48184:1 routing_carIn48184:1 emissions_carIn48184:1" vType="default_016" speedFactor="1.02" vaporized="">
        <emissions CO_abs="7586.841914" CO2_abs="533438.933207" HC_abs="47.014653" PMx_abs="9.401319" NOx_abs="213.335758" fuel_abs="229.302538" electricity_abs="0"/>
    </tripinfo>
    <tripinfo id="randUni33724:1" depart="57646.00" departLane="128361102#0_1" departPos="5.10" departSpeed="0.00" departDelay="1.20" arrival="57805.00" arrivalLane="201956811#0_1" arrivalPos="40.40" arrivalSpeed="13.81" duration="159.00" routeLength="2067.33" waitingTime="0.00" waitingCount="0" stopTime="0.00" timeLoss="17.41" rerouteNo="1" devices="tripinfo_randUni33724:1 routing_randUni33724:1 emissions_randUni33724:1" vType="random_016" speedFactor="1.07" vaporized="">
        <emissions CO_abs="4945.059472" CO2_abs="429712.637769" HC_abs="32.462793" PMx_abs="7.154994" NOx_abs="170.253382" fuel_abs="184.714567" electricity_abs="0"/>
    </tripinfo>
    <tripinfo id="carIn12858:1" depart="57661.00" departLane="128361109#1_1" departPos="5.10" departSpeed="0.00" departDelay="0.90" arrival="57806.00" arrivalLane="399835085#1_1" arrivalPos="212.23" arrivalSpeed="10.09" duration="145.00" routeLength="1738.12" waitingTime="15.00" waitingCount="2" stopTime="0.00" timeLoss="50.41" rerouteNo="1" devices="tripinfo_carIn12858:1 routing_carIn12858:1 emissions_carIn12858:1" vType="default_016" speedFactor="1.22" vaporized="">
        <emissions CO_abs="8537.539068" CO2_abs="551792.234625" HC_abs="52.089778" PMx_abs="10.969283" NOx_abs="229.036936" fuel_abs="237.190510" electricity_abs="0"/>
    </tripinfo>
    <tripinfo id="carIn27009:1" depart="57673.00" departLane="-447569998#1_1" departPos="5.10" departSpeed="0.00" departDelay="0.50" arrival="57810.00" arrivalLane="-26677539_1" arrivalPos="152.75" arrivalSpeed="6.47" duration="137.00" routeLength="699.63" waitingTime="16.00" waitingCount="1" stopTime="0.00" timeLoss="33.25" rerouteNo="1" devices="tripinfo_carIn27009:1 routing_carIn27009:1 emissions_carIn27009:1" vType="default_015" speedFactor="0.81" vaporized="">
        <emissions CO_abs="7189.561056" CO2_abs="227181.364630" HC_abs="37.924972" PMx_abs="3.925420" NOx_abs="93.974020" fuel_abs="97.658675" electricity_abs="0"/>
    </tripinfo>
    <tripinfo id="carIn77943:1" depart="57608.00" departLane="124812856#0_1" departPos="5.10" departSpeed="0.00" departDelay="2.50" arrival="57811.00" arrivalLane="-128361102#1_1" arrivalPos="274.68" arrivalSpeed="12.03" duration="203.00" routeLength="2250.49" waitingTime="0.00" waitingCount="0" stopTime="0.00" timeLoss="18.58" rerouteNo="1" devices="tripinfo_carIn77943:1 routing_carIn77943:1 emissions_carIn77943:1" vType="default_016" speedFactor="0.89" vaporized="">
        <emissions CO_abs="4985.186752" CO2_abs="421072.215757" HC_abs="32.407075" PMx_abs="6.104783" NOx_abs="162.423457" fuel_abs="181.001814" electricity_abs="0"/>
    </tripinfo>
    <tripinfo id="h17600c1:1" depart="57662.00" departLane="272042143_1" departPos="5.10" departSpeed="0.00" departDelay="0.30" arrival="57811.00" arrivalLane="201238729#3_1" arrivalPos="431.02" arrivalSpeed="15.28" duration="149.00" routeLength="2100.26" waitingTime="0.00" waitingCount="0" stopTime="0.00" timeLoss="11.58" rerouteNo="1" devices="tripinfo_h17600c1:1 routing_h17600c1:1 emissions_h17600c1:1" vType="default_016" speedFactor="1.11" vaporized="">
        <emissions CO_abs="3276.118116" CO2_abs="349065.795123" HC_abs="22.807795" PMx_abs="5.426959" NOx_abs="134.023513" fuel_abs="150.048146" electricity_abs="0"/>
    </tripinfo>
    <tripinfo id="carIn81046:1" depart="57611.00" departLane="124812856#0_1" departPos="5.10" departSpeed="0.00" departDelay="2.50" arrival="57813.00" arrivalLane="-128361102#1_1" arrivalPos="274.68" arrivalSpeed="14.09" duration="202.00" routeLength="2250.49" waitingTime="0.00" waitingCount="0" stopTime="0.00" timeLoss="49.99" rerouteNo="1" devices="tripinfo_carIn81046:1 routing_carIn81046:1 emissions_carIn81046:1" vType="default_016" speedFactor="1.09" vaporized="">
        <emissions CO_abs="6905.298145" CO2_abs="510357.293138" HC_abs="43.405877" PMx_abs="8.616319" NOx_abs="205.465316" fuel_abs="219.380638" electricity_abs="0"/>
    </tripinfo>
    <tripinfo id="carIn82278:1" depart="57702.00" departLane="-306240162#1_0" departPos="5.10" departSpeed="0.00" departDelay="0.70" arrival="57814.00" arrivalLane="399835085#1_1" arrivalPos="212.23" arrivalSpeed="8.71" duration="112.00" routeLength="1093.26" waitingTime="6.00" waitingCount="2" stopTime="0.00" timeLoss="37.68" rerouteNo="1" devices="tripinfo_carIn82278:1 routing_carIn82278:1 emissions_carIn82278:1" vType="default_016" speedFactor="1.05" vaporized="">
        <emissions CO_abs="5959.036799" CO2_abs="348086.042945" HC_abs="35.337314" PMx_abs="6.578833" NOx_abs="144.224980" fuel_abs="149.627242" electricity_abs="0"/>
    </tripinfo>
    <tripinfo id="carIn77438:1" depart="57614.00" departLane="124812856#0_1" departPos="5.10" departSpeed="0.00" departDelay="1.10" arrival="57815.00" arrivalLane="-128361102#1_1" arrivalPos="274.68" arrivalSpeed="13.42" duration="201.00" routeLength="2250.49" waitingTime="0.00" waitingCount="0" stopTime="0.00" timeLoss="42.60" rerouteNo="1" devices="tripinfo_carIn77438:1 routing_carIn77438:1 emissions_carIn77438:1" vType="default_016" speedFactor="1.04" vaporized="">
        <emissions CO_abs="7520.331931" CO2_abs="557077.061744" HC_abs="47.295837" PMx_abs="9.534615" NOx_abs="224.979939" fuel_abs="239.463251" electricity_abs="0"/>
    </tripinfo>
    <tripinfo id="h19804c1:3" depart="57617.00" departLane="124812856#0_1" departPos="5.10" departSpeed="0.00" departDelay="1.50" arrival="57816.00" arrivalLane="-128361102#1_1" arrivalPos="274.68" arrivalSpeed="12.14" duration="199.00" routeLength="2250.49" waitingTime="0.00" waitingCount="0" stopTime="0.00" timeLoss="21.28" rerouteNo="1" devices="tripinfo_h19804c1:3 routing_h19804c1:3 emissions_h19804c1:3" vType="default_016" speedFactor="0.92" vaporized="">
        <emissions CO_abs="5454.833018" CO2_abs="430108.173804" HC_abs="34.845570" PMx_abs="6.785370" NOx_abs="169.677554" fuel_abs="184.885452" electricity_abs="0"/>
    </tripinfo>
    <tripinfo id="carIn107842:1" depart="57623.00" departLane="124812856#0_1" departPos="5.10" departSpeed="0.00" departDelay="1.90" arrival="57818.00" arrivalLane="-128361102#1_1" arrivalPos="274.68" arrivalSpeed="13.60" duration="195.00" routeLength="2250.49" waitingTime="0.00" waitingCount="0" stopTime="0.00" timeLoss="29.70" rerouteNo="1" devices="tripinfo_carIn107842:1 routing_carIn107842:1 emissions_carIn107842:1" vType="default_016" speedFactor="0.99" vaporized="">
        <emissions CO_abs="6814.341319" CO2_abs="526126.898453" HC_abs="43.362809" PMx_abs="8.822179" NOx_abs="210.867586" fuel_abs="226.159202" electricity_abs="0"/>
    </tripinfo>
    <tripinfo id="h3864c1:3" depart="57678.00" departLane="24693977#1_1" departPos="5.10" departSpeed="0.00" departDelay="0.00" arrival="57819.00" arrivalLane="201956820_2" arrivalPos="48.33" arrivalSpeed="15.67" duration="141.00" routeLength="1574.85" waitingTime="13.00" waitingCount="1" stopTime="0.00" timeLoss="34.52" rerouteNo="1" devices="tripinfo_h3864c1:3 routing_h3864c1:3 emissions_h3864c1:3" vType="default_016" speedFactor="1.21" vaporized="">
        <emissions CO_abs="6854.354991" CO2_abs="441954.810980" HC_abs="41.571402" PMx_abs="8.091467" NOx_abs="180.741519" fuel_abs="189.977250" electricity_abs="0"/>
    </tripinfo>
    <tripinfo id="carIn121703:1" depart="57647.00" departLane="386687232#0_1" departPos="5.10" departSpeed="0.00" departDelay="0.30" arrival="57824.00" arrivalLane="-315358244_2" arrivalPos="33.95" arrivalSpeed="12.08" duration="177.00" routeLength="1157.39" waitingTime="74.00" waitingCount="1" stopTime="0.00" timeLoss="88.55" rerouteNo="1" devices="tripinfo_carIn121703:1 routing_carIn121703:1 emissions_carIn121703:1" vType="default_016" speedFactor="0.95" vaporized="">
        <emissions CO_abs="15301.201281" CO2_abs="438571.645642" HC_abs="79.948167" PMx_abs="8.891473" NOx_abs="186.581640" fuel_abs="188.528778" electricity_abs="0"/>
    </tripinfo>
    <tripinfo id="carIn129809:1" depart="57729.00" departLane="-447569998#1_1" departPos="5.10" departSpeed="0.00" departDelay="1.00" arrival="57824.00" arrivalLane="-315358244_1" arrivalPos="33.95" arrivalSpeed="10.98" duration="95.00" routeLength="706.49" waitingTime="10.00" waitingCount="2" stopTime="0.00" timeLoss="24.84" rerouteNo="1" devices="tripinfo_carIn129809:1 routing_carIn129809:1 emissions_carIn129809:1" vType="default_015" speedFactor="0.86" vaporized="">
        <emissions CO_abs="3233.919900" CO2_abs="171683.598049" HC_abs="18.705434" PMx_abs="2.865038" NOx_abs="69.570142" fuel_abs="73.800152" electricity_abs="0"/>
    </tripinfo>
    <tripinfo id="h15382c1:3" depart="57626.00" departLane="124812856#0_1" departPos="5.10" departSpeed="0.00" departDelay="3.80" arrival="57825.00" arrivalLane="-128361102#1_1" arrivalPos="274.68" arrivalSpeed="11.44" duration="199.00" routeLength="2250.49" waitingTime="0.00" waitingCount="0" stopTime="0.00" timeLoss="19.28" rerouteNo="1" devices="tripinfo_h15382c1:3 routing_h15382c1:3 emissions_h15382c1:3" vType="default_016" speedFactor="0.91" vaporized="">
        <emissions CO_abs="5273.604611" CO2_abs="433436.485493" HC_abs="34.067087" PMx_abs="6.625669" NOx_abs="169.393652" fuel_abs="186.316310" electricity_abs="0"/>
    </tripinfo>
    <tripinfo id="carIn81860:1" depart="57712.00" departLane="128361102#0_1" departPos="5.10" departSpeed="0.00" departDelay="0.60" arrival="57825.00" arrivalLane="-24634517#17_1" arrivalPos="6.43" arrivalSpeed="7.63" duration="113.00" routeLength="1229.64" waitingTime="2.00" waitingCount="1" stopTime="0.00" timeLoss="17.86" rerouteNo="1" devices="tripinfo_carIn81860:1 routing_carIn81860:1 emissions_carIn81860:1" vType="default_016" speedFactor="0.95" vaporized="">
        <emissions CO_abs="3415.418903" CO2_abs="237344.251450" HC_abs="21.090927" PMx_abs="3.922034" NOx_abs="94.852776" fuel_abs="102.024399" electricity_abs="0"/>
    </tripinfo>
    <tripinfo id="carIn3969:1" depart="57629.00" departLane="124812856#0_1" departPos="5.10" departSpeed="0.00" departDelay="5.30" arrival="57827.00" arrivalLane="-128361102#1_1" arrivalPos="274.68" arrivalSpeed="14.08" duration="198.00" routeLength="2250.49" waitingTime="0.00" waitingCount="0" stopTime="0.00" timeLoss="36.69" rerouteNo="1" devices="tripinfo_carIn3969:1 routing_carIn3969:1 emissions_carIn3969:1" vType="default_016" speedFactor="1.02" vaporized="">
        <emissions CO_abs="7029.813242" CO2_abs="520605.960090" HC_abs="44.170556" PMx_abs="8.864628" NOx_abs="209.910711" fuel_abs="223.785978" electricity_abs="0"/>
    </tripinfo>
    <tripinfo id="h11737c1:1" depart="57665.00" departLane="272042143_1" departPos="5.10" departSpeed="0.00" departDelay="1.50" arrival="57828.00" arrivalLane="-315358254#1_1" arrivalPos="137.16" arrivalSpeed="11.82" duration="163.00" routeLength="1596.88" waitingTime="13.00" waitingCount="1" stopTime="0.00" timeLoss="30.37" rerouteNo="1" devices="tripinfo_h11737c1:1 routing_h11737c1:1 emissions_h11737c1:1" vType="default_016" speedFactor="0.88" vaporized="">
        <emissions CO_abs="5774.743805" CO2_abs="351634.411986" HC_abs="34.442757" PMx_abs="5.601027" NOx_abs="139.321597" fuel_abs="151.153892" electricity_abs="0"/>
    </tripinfo>
    <tripinfo id="carIn107282:1" depart="57749.00" departLane="-447569998#1_1" departPos="5.10" departSpeed="0.00" departDelay="0.00" arrival="57828.00" arrivalLane="315358242#0_1" arrivalPos="165.37" arrivalSpeed="11.87" duration="79.00" routeLength="448.50" waitingTime="23.00" waitingCount="1" stopTime="0.00" timeLoss="31.95" rerouteNo="1" devices="tripinfo_carIn107282:1 routing_carIn107282:1 emissions_carIn107282:1" vType="default_016" speedFactor="0.88" vaporized="">
        <emissions CO_abs="4803.415481" CO2_abs="148538.875229" HC_abs="25.327755" PMx_abs="2.865522" NOx_abs="62.764246" fuel_abs="63.852246" electricity_abs="0"/>
    </tripinfo>
    <tripinfo id="carIn56649:1" depart="57632.00" departLane="124812856#0_1" departPos="5.10" departSpeed="0.00" departDelay="8.10" arrival="57829.00" arrivalLane="-128361102#1_1" arrivalPos="274.68" arrivalSpeed="14.81" duration="197.00" routeLength="2250.49" waitingTime="0.00" waitingCount="0" stopTime="0.00" timeLoss="51.37" rerouteNo="1" devices="tripinfo_carIn56649:1 routing_carIn56649:1 emissions_carIn56649:1" vType="default_016" speedFactor="1.13" vaporized="">
        <emissions CO_abs="7892.742639" CO2_abs="562315.798549" HC_abs="49.173665" PMx_abs="10.143167" NOx_abs="230.660572" fuel_abs="241.714594" electricity_abs="0"/>
    </tripinfo>