<?xml version="1.0" encoding="UTF-8"?>

<!-- generated on 2021-10-26 13:27:43 by Eclipse SUMO sumo Version 1.10.0
<configuration xmlns:xsi="http://www.w3.org/2001/XMLSchema-instance" xsi:noNamespaceSchemaLocation="http://sumo.dlr.de/xsd/sumoConfiguration.xsd">

    <input>
        <net-file value="/Users/behradkoohy/sumo-scratchpad/RESCO/environments/ingolstadt21/ingolstadt21.net.xml"/>
        <route-files value="/Users/behradkoohy/sumo-scratchpad/RESCO/environments/ingolstadt21/ingolstadt21.rou.xml"/>
    </input>

    <output>
        <tripinfo-output value="/Users/behradkoohy/sumo-scratchpad/RESCO/logs/MAXPRESSURE-tr0-ingolstadt21-21-mplight-wait/tripinfo_61.xml"/>
        <tripinfo-output.write-unfinished value="true"/>
    </output>

    <time>
        <begin value="57600"/>
        <end value="61200"/>
    </time>

    <processing>
        <time-to-teleport value="-1"/>
    </processing>

    <report>
        <no-warnings value="true"/>
        <no-step-log value="true"/>
    </report>

    <emissions>
        <device.emissions.probability value="1"/>
    </emissions>

    <traci_server>
        <remote-port value="58977"/>
    </traci_server>

    <random_number>
        <random value="true"/>
    </random_number>

</configuration>
-->

<tripinfos xmlns:xsi="http://www.w3.org/2001/XMLSchema-instance" xsi:noNamespaceSchemaLocation="http://sumo.dlr.de/xsd/tripinfo_file.xsd">
    <tripinfo id="h15454c2:3" depart="57612.00" departLane="24608844_1" departPos="5.10" departSpeed="0.00" departDelay="0.50" arrival="57651.00" arrivalLane="32978638#0_1" arrivalPos="49.29" arrivalSpeed="13.75" duration="39.00" routeLength="354.79" waitingTime="0.00" waitingCount="0" stopTime="0.00" timeLoss="5.80" rerouteNo="1" devices="tripinfo_h15454c2:3 routing_h15454c2:3 emissions_h15454c2:3" vType="default_016" speedFactor="1.03" vaporized="">
        <emissions CO_abs="2065.059860" CO2_abs="117521.461644" HC_abs="12.146205" PMx_abs="2.044533" NOx_abs="48.087274" fuel_abs="50.517693" electricity_abs="0"/>
    </tripinfo>
    <tripinfo id="carIn60260:1" depart="57606.00" departLane="315358254#0_1" departPos="5.10" departSpeed="0.00" departDelay="0.90" arrival="57656.00" arrivalLane="399835085#1_1" arrivalPos="212.23" arrivalSpeed="8.49" duration="50.00" routeLength="430.98" waitingTime="0.00" waitingCount="0" stopTime="0.00" timeLoss="6.89" rerouteNo="1" devices="tripinfo_carIn60260:1 routing_carIn60260:1 emissions_carIn60260:1" vType="default_016" speedFactor="1.06" vaporized="">
        <emissions CO_abs="2065.911563" CO2_abs="112222.463799" HC_abs="11.995759" PMx_abs="1.859566" NOx_abs="45.440076" fuel_abs="48.240077" electricity_abs="0"/>
    </tripinfo>
    <tripinfo id="carIn53971:1" depart="57640.00" departLane="272042143_1" departPos="5.10" departSpeed="0.00" departDelay="0.80" arrival="57697.00" arrivalLane="24634414#1_1" arrivalPos="162.19" arrivalSpeed="6.89" duration="57.00" routeLength="493.04" waitingTime="0.00" waitingCount="0" stopTime="0.00" timeLoss="9.44" rerouteNo="1" devices="tripinfo_carIn53971:1 routing_carIn53971:1 emissions_carIn53971:1" vType="default_016" speedFactor="0.96" vaporized="">
        <emissions CO_abs="2417.344287" CO2_abs="132790.975120" HC_abs="14.098528" PMx_abs="2.271997" NOx_abs="54.200625" fuel_abs="57.081554" electricity_abs="0"/>
    </tripinfo>
    <tripinfo id="h12244c1:3" depart="57612.00" departLane="315358244_1" departPos="5.10" departSpeed="0.00" departDelay="0.40" arrival="57707.00" arrivalLane="386687235_1" arrivalPos="80.84" arrivalSpeed="13.67" duration="95.00" routeLength="1186.14" waitingTime="0.00" waitingCount="0" stopTime="0.00" timeLoss="8.40" rerouteNo="1" devices="tripinfo_h12244c1:3 routing_h12244c1:3 emissions_h12244c1:3" vType="default_016" speedFactor="1.00" vaporized="">
        <emissions CO_abs="2515.454786" CO2_abs="229784.345219" HC_abs="16.750255" PMx_abs="3.465040" NOx_abs="88.629160" fuel_abs="98.774643" electricity_abs="0"/>
    </tripinfo>
    <tripinfo id="S5R_frequency1.2" depart="57616.00" departLane="315358250#0_1" departPos="12.10" departSpeed="0.00" departDelay="4.40" arrival="57711.00" arrivalLane="386687235_1" arrivalPos="80.84" arrivalSpeed="13.47" duration="95.00" routeLength="1115.62" waitingTime="0.00" waitingCount="0" stopTime="0.00" timeLoss="13.82" rerouteNo="1" devices="tripinfo_S5R_frequency1.2 routing_S5R_frequency1.2 emissions_S5R_frequency1.2" vType="bus" speedFactor="1.00" vaporized="">
        <emissions CO_abs="2075.081435" CO2_abs="1337093.974726" HC_abs="429.429593" PMx_abs="222.907818" NOx_abs="10282.072917" fuel_abs="570.261887" electricity_abs="0"/>
    </tripinfo>
    <tripinfo id="h7800c1:5" depart="57696.00" departLane="-447569998#1_1" departPos="5.10" departSpeed="0.00" departDelay="0.00" arrival="57725.00" arrivalLane="-447569998#1_2" arrivalPos="180.76" arrivalSpeed="4.16" duration="29.00" routeLength="175.66" waitingTime="3.00" waitingCount="1" stopTime="0.00" timeLoss="8.96" rerouteNo="1" devices="tripinfo_h7800c1:5 routing_h7800c1:5 emissions_h7800c1:5" vType="default_016" speedFactor="1.07" vaporized="">
        <emissions CO_abs="1303.476505" CO2_abs="53581.005197" HC_abs="7.176690" PMx_abs="0.952987" NOx_abs="22.297363" fuel_abs="23.032546" electricity_abs="0"/>
    </tripinfo>
    <tripinfo id="h3568c1:3" depart="57656.00" departLane="266565295#5_1" departPos="5.10" departSpeed="0.00" departDelay="0.80" arrival="57727.00" arrivalLane="-24634415_1" arrivalPos="62.03" arrivalSpeed="14.21" duration="71.00" routeLength="807.40" waitingTime="0.00" waitingCount="0" stopTime="0.00" timeLoss="11.24" rerouteNo="1" devices="tripinfo_h3568c1:3 routing_h3568c1:3 emissions_h3568c1:3" vType="default_016" speedFactor="1.10" vaporized="">
        <emissions CO_abs="3206.011061" CO2_abs="212433.261811" HC_abs="19.624069" PMx_abs="3.897479" NOx_abs="87.431856" fuel_abs="91.315736" electricity_abs="0"/>
    </tripinfo>
    <tripinfo id="h9563c2:5" depart="57631.00" departLane="315358244_1" departPos="5.10" departSpeed="0.00" departDelay="0.70" arrival="57729.00" arrivalLane="386687235_1" arrivalPos="80.84" arrivalSpeed="12.53" duration="98.00" routeLength="1186.14" waitingTime="0.00" waitingCount="0" stopTime="0.00" timeLoss="9.07" rerouteNo="1" devices="tripinfo_h9563c2:5 routing_h9563c2:5 emissions_h9563c2:5" vType="default_016" speedFactor="0.98" vaporized="">
        <emissions CO_abs="2410.538131" CO2_abs="231352.739157" HC_abs="16.308049" PMx_abs="3.355157" NOx_abs="88.441654" fuel_abs="99.448927" electricity_abs="0"/>
    </tripinfo>
    <tripinfo id="h7181c1:1" depart="57660.00" departLane="315358254#0_1" departPos="5.10" departSpeed="0.00" departDelay="0.10" arrival="57729.00" arrivalLane="306240162#0_0" arrivalPos="220.43" arrivalSpeed="18.51" duration="69.00" routeLength="932.35" waitingTime="11.00" waitingCount="1" stopTime="0.00" timeLoss="23.65" rerouteNo="1" devices="tripinfo_h7181c1:1 routing_h7181c1:1 emissions_h7181c1:1" vType="default_016" speedFactor="1.13" vaporized="">
        <emissions CO_abs="4662.266840" CO2_abs="271166.288249" HC_abs="27.678310" PMx_abs="5.548314" NOx_abs="112.828899" fuel_abs="116.562338" electricity_abs="0"/>
    </tripinfo>
    <tripinfo id="carIn22761:1" depart="57616.00" departLane="-306240162#1_0" departPos="5.10" departSpeed="0.00" departDelay="2.10" arrival="57730.00" arrivalLane="399835085#1_1" arrivalPos="212.23" arrivalSpeed="6.07" duration="114.00" routeLength="1093.26" waitingTime="6.00" waitingCount="1" stopTime="0.00" timeLoss="25.19" rerouteNo="1" devices="tripinfo_carIn22761:1 routing_carIn22761:1 emissions_carIn22761:1" vType="default_016" speedFactor="0.88" vaporized="">
        <emissions CO_abs="4414.020335" CO2_abs="266649.535416" HC_abs="26.323798" PMx_abs="4.754193" NOx_abs="108.487833" fuel_abs="114.621505" electricity_abs="0"/>
    </tripinfo>
    <tripinfo id="h3688c1:1" depart="57625.00" departLane="201201950#1_1" departPos="5.10" departSpeed="0.00" departDelay="0.00" arrival="57745.00" arrivalLane="32978638#0_1" arrivalPos="49.29" arrivalSpeed="10.81" duration="120.00" routeLength="1089.75" waitingTime="11.00" waitingCount="1" stopTime="0.00" timeLoss="23.77" rerouteNo="1" devices="tripinfo_h3688c1:1 routing_h3688c1:1 emissions_h3688c1:1" vType="default_016" speedFactor="0.83" vaporized="">
        <emissions CO_abs="4332.453181" CO2_abs="248626.186363" HC_abs="25.492837" PMx_abs="4.070047" NOx_abs="99.831995" fuel_abs="106.874663" electricity_abs="0"/>
    </tripinfo>
    <tripinfo id="carIn80064:1" depart="57603.00" departLane="128361109#1_1" departPos="5.10" departSpeed="0.00" departDelay="0.40" arrival="57749.00" arrivalLane="-315358254#1_1" arrivalPos="137.16" arrivalSpeed="13.17" duration="146.00" routeLength="1587.97" waitingTime="30.00" waitingCount="1" stopTime="0.00" timeLoss="59.79" rerouteNo="1" devices="tripinfo_carIn80064:1 routing_carIn80064:1 emissions_carIn80064:1" vType="default_016" speedFactor="1.04" vaporized="">
        <emissions CO_abs="11305.760155" CO2_abs="546133.978905" HC_abs="64.586657" PMx_abs="11.207733" NOx_abs="229.992519" fuel_abs="234.760093" electricity_abs="0"/>
    </tripinfo>
    <tripinfo id="h317c2:1" depart="57707.00" departLane="-32978638#0_1" departPos="5.10" departSpeed="0.00" departDelay="0.10" arrival="57753.00" arrivalLane="-266565295#5_1" arrivalPos="172.76" arrivalSpeed="14.96" duration="46.00" routeLength="370.53" waitingTime="10.00" waitingCount="1" stopTime="0.00" timeLoss="22.24" rerouteNo="1" devices="tripinfo_h317c2:1 routing_h317c2:1 emissions_h317c2:1" vType="default_016" speedFactor="1.15" vaporized="">
        <emissions CO_abs="2759.926320" CO2_abs="140378.093284" HC_abs="15.839664" PMx_abs="2.694089" NOx_abs="58.575749" fuel_abs="60.342736" electricity_abs="0"/>
    </tripinfo>
    <tripinfo id="h3326c1:2" depart="57656.00" departLane="22716069#0_1" departPos="5.10" departSpeed="0.00" departDelay="0.00" arrival="57759.00" arrivalLane="24634517#13_1" arrivalPos="111.62" arrivalSpeed="14.66" duration="103.00" routeLength="1312.81" waitingTime="0.00" waitingCount="0" stopTime="0.00" timeLoss="14.17" rerouteNo="1" devices="tripinfo_h3326c1:2 routing_h3326c1:2 emissions_h3326c1:2" vType="default_016" speedFactor="1.10" vaporized="">
        <emissions CO_abs="4049.294920" CO2_abs="309809.132823" HC_abs="25.680703" PMx_abs="5.463091" NOx_abs="125.347973" fuel_abs="133.173213" electricity_abs="0"/>
    </tripinfo>
    <tripinfo id="h5979c1:5" depart="57669.00" departLane="399835085#1_1" departPos="5.10" departSpeed="0.00" departDelay="0.00" arrival="57766.00" arrivalLane="-315358254#1_1" arrivalPos="137.16" arrivalSpeed="14.26" duration="97.00" routeLength="659.33" waitingTime="8.00" waitingCount="1" stopTime="0.00" timeLoss="30.25" rerouteNo="1" devices="tripinfo_h5979c1:5 routing_h5979c1:5 emissions_h5979c1:5" vType="default_016" speedFactor="1.09" vaporized="">
        <emissions CO_abs="4956.477035" CO2_abs="221819.553666" HC_abs="27.687567" PMx_abs="3.865652" NOx_abs="91.319551" fuel_abs="95.352035" electricity_abs="0"/>
    </tripinfo>
    <tripinfo id="carIn30817:1" depart="57681.00" departLane="315358244_1" departPos="5.10" departSpeed="0.00" departDelay="0.20" arrival="57767.00" arrivalLane="447569997#1_1" arrivalPos="180.93" arrivalSpeed="7.29" duration="86.00" routeLength="718.04" waitingTime="3.00" waitingCount="1" stopTime="0.00" timeLoss="18.56" rerouteNo="1" devices="tripinfo_carIn30817:1 routing_carIn30817:1 emissions_carIn30817:1" vType="default_016" speedFactor="0.92" vaporized="">
        <emissions CO_abs="3077.329217" CO2_abs="170882.056989" HC_abs="17.947389" PMx_abs="2.668374" NOx_abs="67.756172" fuel_abs="73.455791" electricity_abs="0"/>
    </tripinfo>
    <tripinfo id="h3154c1:1" depart="57658.00" departLane="24634507_1" departPos="5.10" departSpeed="0.00" departDelay="0.00" arrival="57770.00" arrivalLane="-266565295#5_1" arrivalPos="172.76" arrivalSpeed="13.15" duration="112.00" routeLength="1206.22" waitingTime="8.00" waitingCount="1" stopTime="0.00" timeLoss="25.46" rerouteNo="1" devices="tripinfo_h3154c1:1 routing_h3154c1:1 emissions_h3154c1:1" vType="default_016" speedFactor="1.03" vaporized="">
        <emissions CO_abs="4433.265412" CO2_abs="288271.606330" HC_abs="26.891509" PMx_abs="4.950587" NOx_abs="115.939017" fuel_abs="123.915943" electricity_abs="0"/>
    </tripinfo>
    <tripinfo id="h645c1:1" depart="57622.00" departLane="266565295#5_1" departPos="5.10" departSpeed="0.00" departDelay="0.40" arrival="57774.00" arrivalLane="-315358244_1" arrivalPos="33.95" arrivalSpeed="14.55" duration="152.00" routeLength="1910.83" waitingTime="5.00" waitingCount="1" stopTime="0.00" timeLoss="20.22" rerouteNo="1" devices="tripinfo_h645c1:1 routing_h645c1:1 emissions_h645c1:1" vType="default_016" speedFactor="1.05" vaporized="">
        <emissions CO_abs="4126.619761" CO2_abs="370547.667938" HC_abs="27.400991" PMx_abs="5.900034" NOx_abs="144.677584" fuel_abs="159.282498" electricity_abs="0"/>
    </tripinfo>
    <tripinfo id="h330c1:1" depart="57736.00" departLane="-32978638#0_1" departPos="5.10" departSpeed="0.00" departDelay="0.20" arrival="57785.00" arrivalLane="-266565295#5_1" arrivalPos="172.76" arrivalSpeed="13.69" duration="49.00" routeLength="370.53" waitingTime="12.00" waitingCount="1" stopTime="0.00" timeLoss="22.03" rerouteNo="1" devices="tripinfo_h330c1:1 routing_h330c1:1 emissions_h330c1:1" vType="default_016" speedFactor="1.03" vaporized="">
        <emissions CO_abs="3108.559112" CO2_abs="139621.824747" HC_abs="17.447355" PMx_abs="2.668490" NOx_abs="58.414014" fuel_abs="60.017962" electricity_abs="0"/>
    </tripinfo>
    <tripinfo id="carIn77943:1" depart="57608.00" departLane="124812856#0_1" departPos="5.10" departSpeed="0.00" departDelay="2.50" arrival="57787.00" arrivalLane="-128361102#1_1" arrivalPos="274.68" arrivalSpeed="14.57" duration="179.00" routeLength="2250.49" waitingTime="0.00" waitingCount="0" stopTime="0.00" timeLoss="24.13" rerouteNo="1" devices="tripinfo_carIn77943:1 routing_carIn77943:1 emissions_carIn77943:1" vType="default_016" speedFactor="1.07" vaporized="">
        <emissions CO_abs="5283.611212" CO2_abs="468147.725830" HC_abs="34.864594" PMx_abs="7.535372" NOx_abs="183.799729" fuel_abs="201.236433" electricity_abs="0"/>
    </tripinfo>
    <tripinfo id="carIn118591:1" depart="57689.00" departLane="315358244_1" departPos="5.10" departSpeed="0.00" departDelay="0.20" arrival="57787.00" arrivalLane="386687235_1" arrivalPos="80.84" arrivalSpeed="14.95" duration="98.00" routeLength="1186.14" waitingTime="2.00" waitingCount="1" stopTime="0.00" timeLoss="20.05" rerouteNo="1" devices="tripinfo_carIn118591:1 routing_carIn118591:1 emissions_carIn118591:1" vType="default_016" speedFactor="1.11" vaporized="">
        <emissions CO_abs="3788.331550" CO2_abs="278833.949200" HC_abs="23.668174" PMx_abs="4.835694" NOx_abs="111.885431" fuel_abs="119.858628" electricity_abs="0"/>
    </tripinfo>
    <tripinfo id="carIn12365:1" depart="57713.00" departLane="315358244_1" departPos="5.10" departSpeed="0.00" departDelay="0.50" arrival="57790.00" arrivalLane="447569997#1_1" arrivalPos="180.93" arrivalSpeed="6.76" duration="77.00" routeLength="718.04" waitingTime="0.00" waitingCount="0" stopTime="0.00" timeLoss="7.58" rerouteNo="1" devices="tripinfo_carIn12365:1 routing_carIn12365:1 emissions_carIn12365:1" vType="default_016" speedFactor="0.89" vaporized="">
        <emissions CO_abs="2340.449088" CO2_abs="147183.065135" HC_abs="14.042953" PMx_abs="2.225918" NOx_abs="57.817121" fuel_abs="63.268336" electricity_abs="0"/>
    </tripinfo>
    <tripinfo id="carIn81046:1" depart="57611.00" departLane="124812856#0_1" departPos="5.10" departSpeed="0.00" departDelay="2.50" arrival="57791.00" arrivalLane="-128361102#1_1" arrivalPos="274.68" arrivalSpeed="14.00" duration="180.00" routeLength="2250.49" waitingTime="0.00" waitingCount="0" stopTime="0.00" timeLoss="23.31" rerouteNo="1" devices="tripinfo_carIn81046:1 routing_carIn81046:1 emissions_carIn81046:1" vType="default_016" speedFactor="1.05" vaporized="">
        <emissions CO_abs="5207.693217" CO2_abs="437879.858389" HC_abs="33.954994" PMx_abs="7.284733" NOx_abs="173.822908" fuel_abs="188.225434" electricity_abs="0"/>
    </tripinfo>
    <tripinfo id="carIn27009:1" depart="57673.00" departLane="-447569998#1_1" departPos="5.10" departSpeed="0.00" departDelay="0.50" arrival="57801.00" arrivalLane="-26677539_1" arrivalPos="152.75" arrivalSpeed="7.47" duration="128.00" routeLength="699.63" waitingTime="21.00" waitingCount="1" stopTime="0.00" timeLoss="35.71" rerouteNo="1" devices="tripinfo_carIn27009:1 routing_carIn27009:1 emissions_carIn27009:1" vType="default_015" speedFactor="0.92" vaporized="">
        <emissions CO_abs="7745.599134" CO2_abs="245123.414320" HC_abs="40.885885" PMx_abs="4.314599" NOx_abs="101.663455" fuel_abs="105.371336" electricity_abs="0"/>
    </tripinfo>
    <tripinfo id="carIn77438:1" depart="57614.00" departLane="124812856#0_1" departPos="5.10" departSpeed="0.00" departDelay="1.10" arrival="57804.00" arrivalLane="-128361102#1_1" arrivalPos="274.68" arrivalSpeed="12.24" duration="190.00" routeLength="2250.49" waitingTime="0.00" waitingCount="0" stopTime="0.00" timeLoss="20.98" rerouteNo="1" devices="tripinfo_carIn77438:1 routing_carIn77438:1 emissions_carIn77438:1" vType="default_016" speedFactor="0.97" vaporized="">
        <emissions CO_abs="4972.026227" CO2_abs="438420.003628" HC_abs="32.825726" PMx_abs="6.813510" NOx_abs="171.241665" fuel_abs="188.458117" electricity_abs="0"/>
    </tripinfo>
    <tripinfo id="h19804c1:3" depart="57617.00" departLane="124812856#0_1" departPos="5.10" departSpeed="0.00" departDelay="1.50" arrival="57805.00" arrivalLane="-128361102#1_1" arrivalPos="274.68" arrivalSpeed="14.05" duration="188.00" routeLength="2250.49" waitingTime="0.00" waitingCount="0" stopTime="0.00" timeLoss="33.03" rerouteNo="1" devices="tripinfo_h19804c1:3 routing_h19804c1:3 emissions_h19804c1:3" vType="default_016" speedFactor="1.06" vaporized="">
        <emissions CO_abs="5959.965777" CO2_abs="489895.029780" HC_abs="38.624464" PMx_abs="8.078079" NOx_abs="194.689125" fuel_abs="210.584649" electricity_abs="0"/>
    </tripinfo>
    <tripinfo id="carIn86816:1" depart="57617.00" departLane="128361102#0_1" departPos="5.10" departSpeed="0.00" departDelay="0.80" arrival="57807.00" arrivalLane="201956811#0_1" arrivalPos="40.40" arrivalSpeed="12.12" duration="190.00" routeLength="2067.33" waitingTime="0.00" waitingCount="0" stopTime="0.00" timeLoss="18.67" rerouteNo="1" devices="tripinfo_carIn86816:1 routing_carIn86816:1 emissions_carIn86816:1" vType="default_016" speedFactor="0.88" vaporized="">
        <emissions CO_abs="5165.401322" CO2_abs="416374.208693" HC_abs="33.132183" PMx_abs="6.161561" NOx_abs="161.688064" fuel_abs="178.982314" electricity_abs="0"/>
    </tripinfo>
    <tripinfo id="carIn102915:1" depart="57643.00" departLane="128361102#0_1" departPos="5.10" departSpeed="0.00" departDelay="0.40" arrival="57809.00" arrivalLane="201956811#0_1" arrivalPos="40.40" arrivalSpeed="14.47" duration="166.00" routeLength="2067.33" waitingTime="0.00" waitingCount="0" stopTime="0.00" timeLoss="31.89" rerouteNo="1" devices="tripinfo_carIn102915:1 routing_carIn102915:1 emissions_carIn102915:1" vType="default_016" speedFactor="1.13" vaporized="">
        <emissions CO_abs="4993.330405" CO2_abs="436005.161242" HC_abs="32.839320" PMx_abs="7.053918" NOx_abs="171.230427" fuel_abs="187.419769" electricity_abs="0"/>
    </tripinfo>
    <tripinfo id="randUni33724:1" depart="57646.00" departLane="128361102#0_1" departPos="5.10" departSpeed="0.00" departDelay="1.20" arrival="57812.00" arrivalLane="201956811#0_1" arrivalPos="40.40" arrivalSpeed="14.03" duration="166.00" routeLength="2067.33" waitingTime="0.00" waitingCount="0" stopTime="0.00" timeLoss="23.82" rerouteNo="1" devices="tripinfo_randUni33724:1 routing_randUni33724:1 emissions_randUni33724:1" vType="random_016" speedFactor="1.06" vaporized="">
        <emissions CO_abs="5072.529497" CO2_abs="424428.796846" HC_abs="32.919049" PMx_abs="7.003599" NOx_abs="167.994014" fuel_abs="182.443513" electricity_abs="0"/>
    </tripinfo>
    <tripinfo id="carIn50326:1" depart="57651.00" departLane="128361102#0_1" departPos="5.10" departSpeed="0.00" departDelay="0.30" arrival="57813.00" arrivalLane="18809673#0_1" arrivalPos="473.56" arrivalSpeed="13.53" duration="162.00" routeLength="1591.07" waitingTime="13.00" waitingCount="1" stopTime="0.00" timeLoss="32.72" rerouteNo="1" devices="tripinfo_carIn50326:1 routing_carIn50326:1 emissions_carIn50326:1" vType="default_016" speedFactor="1.00" vaporized="">
        <emissions CO_abs="6644.599291" CO2_abs="393771.383362" HC_abs="39.398763" PMx_abs="6.542387" NOx_abs="157.558140" fuel_abs="169.266685" electricity_abs="0"/>
    </tripinfo>
    <tripinfo id="carIn129809:1" depart="57729.00" departLane="-447569998#1_1" departPos="5.10" departSpeed="0.00" departDelay="1.00" arrival="57813.00" arrivalLane="-315358244_1" arrivalPos="33.95" arrivalSpeed="14.79" duration="84.00" routeLength="706.49" waitingTime="10.00" waitingCount="2" stopTime="0.00" timeLoss="27.37" rerouteNo="1" devices="tripinfo_carIn129809:1 routing_carIn129809:1 emissions_carIn129809:1" vType="default_015" speedFactor="1.07" vaporized="">
        <emissions CO_abs="3618.796516" CO2_abs="195104.247676" HC_abs="20.997902" PMx_abs="3.434347" NOx_abs="79.683933" fuel_abs="83.867510" electricity_abs="0"/>
    </tripinfo>
    <tripinfo id="carIn100288:1" depart="57664.00" departLane="128361102#0_1" departPos="5.10" departSpeed="0.00" departDelay="0.60" arrival="57814.00" arrivalLane="201956811#0_1" arrivalPos="40.40" arrivalSpeed="16.59" duration="150.00" routeLength="2067.33" waitingTime="0.00" waitingCount="0" stopTime="0.00" timeLoss="23.95" rerouteNo="1" devices="tripinfo_carIn100288:1 routing_carIn100288:1 emissions_carIn100288:1" vType="default_016" speedFactor="1.20" vaporized="">
        <emissions CO_abs="5477.216149" CO2_abs="445811.678615" HC_abs="35.247522" PMx_abs="7.850093" NOx_abs="178.645893" fuel_abs="191.634541" electricity_abs="0"/>
    </tripinfo>
    <tripinfo id="carIn121703:1" depart="57647.00" departLane="386687232#0_1" departPos="5.10" departSpeed="0.00" departDelay="0.30" arrival="57815.00" arrivalLane="-315358244_1" arrivalPos="33.95" arrivalSpeed="13.96" duration="168.00" routeLength="1157.39" waitingTime="74.00" waitingCount="1" stopTime="0.00" timeLoss="89.37" rerouteNo="1" devices="tripinfo_carIn121703:1 routing_carIn121703:1 emissions_carIn121703:1" vType="default_016" speedFactor="1.07" vaporized="">
        <emissions CO_abs="14721.362457" CO2_abs="440203.821457" HC_abs="77.257872" PMx_abs="8.786923" NOx_abs="185.321591" fuel_abs="189.230159" electricity_abs="0"/>
    </tripinfo>
    <tripinfo id="h11737c1:1" depart="57665.00" departLane="272042143_1" departPos="5.10" departSpeed="0.00" departDelay="1.50" arrival="57817.00" arrivalLane="-315358254#1_1" arrivalPos="137.16" arrivalSpeed="12.54" duration="152.00" routeLength="1596.88" waitingTime="13.00" waitingCount="1" stopTime="0.00" timeLoss="30.96" rerouteNo="1" devices="tripinfo_h11737c1:1 routing_h11737c1:1 emissions_h11737c1:1" vType="default_016" speedFactor="0.96" vaporized="">
        <emissions CO_abs="5689.120332" CO2_abs="362879.738220" HC_abs="34.370208" PMx_abs="6.002509" NOx_abs="144.804801" fuel_abs="155.987290" electricity_abs="0"/>
    </tripinfo>
    <tripinfo id="carIn107842:1" depart="57623.00" departLane="124812856#0_1" departPos="5.10" departSpeed="0.00" departDelay="1.90" arrival="57820.00" arrivalLane="-128361102#1_1" arrivalPos="274.68" arrivalSpeed="11.92" duration="197.00" routeLength="2250.49" waitingTime="0.00" waitingCount="0" stopTime="0.00" timeLoss="18.06" rerouteNo="1" devices="tripinfo_carIn107842:1 routing_carIn107842:1 emissions_carIn107842:1" vType="default_016" speedFactor="0.92" vaporized="">
        <emissions CO_abs="5195.713107" CO2_abs="443610.471214" HC_abs="33.923812" PMx_abs="6.601455" NOx_abs="171.948803" fuel_abs="190.689813" electricity_abs="0"/>
    </tripinfo>
    <tripinfo id="carIn126288:1" depart="57674.00" departLane="272042143_1" departPos="5.10" departSpeed="0.00" departDelay="0.00" arrival="57820.00" arrivalLane="-315358254#1_1" arrivalPos="137.16" arrivalSpeed="12.27" duration="146.00" routeLength="1596.88" waitingTime="8.00" waitingCount="1" stopTime="0.00" timeLoss="24.99" rerouteNo="1" devices="tripinfo_carIn126288:1 routing_carIn126288:1 emissions_carIn126288:1" vType="default_016" speedFactor="0.97" vaporized="">
        <emissions CO_abs="4830.521526" CO2_abs="344021.696939" HC_abs="29.987900" PMx_abs="5.482764" NOx_abs="135.598588" fuel_abs="147.880851" electricity_abs="0"/>
    </tripinfo>
    <tripinfo id="carIn12152:1" depart="57647.00" departLane="24599188#0.94_1" departPos="5.10" departSpeed="0.00" departDelay="0.50" arrival="57821.00" arrivalLane="-315358254#1_1" arrivalPos="137.16" arrivalSpeed="14.83" duration="174.00" routeLength="2034.31" waitingTime="7.00" waitingCount="2" stopTime="0.00" timeLoss="33.90" rerouteNo="1" devices="tripinfo_carIn12152:1 routing_carIn12152:1 emissions_carIn12152:1" vType="default_016" speedFactor="1.13" vaporized="">
        <emissions CO_abs="6063.331214" CO2_abs="438415.535719" HC_abs="37.600497" PMx_abs="7.457164" NOx_abs="175.201002" fuel_abs="188.456113" electricity_abs="0"/>
    </tripinfo>
    <tripinfo id="carIn56649:1" depart="57632.00" departLane="124812856#0_1" departPos="5.10" departSpeed="0.00" departDelay="8.10" arrival="57822.00" arrivalLane="-128361102#1_1" arrivalPos="274.68" arrivalSpeed="13.30" duration="190.00" routeLength="2250.49" waitingTime="0.00" waitingCount="0" stopTime="0.00" timeLoss="29.57" rerouteNo="1" devices="tripinfo_carIn56649:1 routing_carIn56649:1 emissions_carIn56649:1" vType="default_016" speedFactor="1.02" vaporized="">
        <emissions CO_abs="5720.892065" CO2_abs="478006.463903" HC_abs="37.152157" PMx_abs="7.645598" NOx_abs="188.552938" fuel_abs="205.474526" electricity_abs="0"/>
    </tripinfo>
    <tripinfo id="carIn82278:1" depart="57702.00" departLane="-306240162#1_0" departPos="5.10" departSpeed="0.00" departDelay="0.70" arrival="57825.00" arrivalLane="399835085#1_1" arrivalPos="212.23" arrivalSpeed="7.17" duration="123.00" routeLength="1093.26" waitingTime="14.00" waitingCount="2" stopTime="0.00" timeLoss="43.80" rerouteNo="1" devices="tripinfo_carIn82278:1 routing_carIn82278:1 emissions_carIn82278:1" vType="default_016" speedFactor="0.99" vaporized="">
        <emissions CO_abs="7687.075746" CO2_abs="370173.194967" HC_abs="43.789570" PMx_abs="7.217005" NOx_abs="154.945970" fuel_abs="159.122375" electricity_abs="0"/>
    </tripinfo>
    <tripinfo id="carIn107282:1" depart="57749.00" departLane="-447569998#1_1" departPos="5.10" departSpeed="0.00" departDelay="0.00" arrival="57825.00" arrivalLane="315358242#0_1" arrivalPos="165.37" arrivalSpeed="14.52" duration="76.00" routeLength="448.50" waitingTime="28.00" waitingCount="1" stopTime="0.00" timeLoss="36.65" rerouteNo="1" devices="tripinfo_carIn107282:1 routing_carIn107282:1 emissions_carIn107282:1" vType="default_016" speedFactor="1.06" vaporized="">
        <emissions CO_abs="5729.759537" CO2_abs="182222.438160" HC_abs="30.333521" PMx_abs="3.475422" NOx_abs="76.288692" fuel_abs="78.331732" electricity_abs="0"/>
    </tripinfo>
    <tripinfo id="carIn12858:1" depart="57661.00" departLane="128361109#1_1" departPos="5.10" departSpeed="0.00" departDelay="0.90" arrival="57827.00" arrivalLane="399835085#1_1" arrivalPos="212.23" arrivalSpeed="8.22" duration="166.00" routeLength="1738.12" waitingTime="22.00" waitingCount="2" stopTime="0.00" timeLoss="54.88" rerouteNo="1" devices="tripinfo_carIn12858:1 routing_carIn12858:1 emissions_carIn12858:1" vType="default_016" speedFactor="1.04" vaporized="">
        <emissions CO_abs="9610.106601" CO2_abs="528723.756986" HC_abs="56.324158" PMx_abs="10.299761" NOx_abs="219.161160" fuel_abs="227.275851" electricity_abs="0"/>
    </tripinfo>
    <tripinfo id="carIn462:1" depart="57622.00" departLane="-306240162#1_0" departPos="5.10" departSpeed="0.00" departDelay="4.80" arrival="57833.00" arrivalLane="386687235_2" arrivalPos="80.84" arrivalSpeed="15.75" duration="211.00" routeLength="2257.41" waitingTime="12.00" waitingCount="2" stopTime="0.00" timeLoss="86.65" rerouteNo="1" devices="tripinfo_carIn462:1 routing_carIn462:1 emissions_carIn462:1" vType="default_016" speedFactor="1.19" vaporized="">
        <emissions CO_abs="9708.372118" CO2_abs="633283.878324" HC_abs="59.039274" PMx_abs="11.650347" NOx_abs="260.268099" fuel_abs="272.221056" electricity_abs="0"/>
    </tripinfo>
    <tripinfo id="carIn82220:1" depart="57619.00" departLane="-306240162#1_0" departPos="5.10" departSpeed="0.00" departDelay="3.50" arrival="57834.00" arrivalLane="386687235_1" arrivalPos="80.84" arrivalSpeed="11.77" duration="215.00" routeLength="2257.41" waitingTime="11.00" waitingCount="2" stopTime="0.00" timeLoss="56.45" rerouteNo="1" devices="tripinfo_carIn82220:1 routing_carIn82220:1 emissions_carIn82220:1" vType="default_016" speedFactor="0.94" vaporized="">
        <emissions CO_abs="8007.021021" CO2_abs="552437.502953" HC_abs="49.377230" PMx_abs="9.636330" NOx_abs="223.847348" fuel_abs="237.469134" electricity_abs="0"/>
    </tripinfo>
    <tripinfo id="h3864c1:3" depart="57678.00" departLane="24693977#1_1" departPos="5.10" departSpeed="0.00" departDelay="0.00" arrival="57834.00" arrivalLane="201956820_2" arrivalPos="48.33" arrivalSpeed="13.98" duration="156.00" routeLength="1574.85" waitingTime="9.00" waitingCount="1" stopTime="0.00" timeLoss="33.75" rerouteNo="1" devices="tripinfo_h3864c1:3 routing_h3864c1:3 emissions_h3864c1:3" vType="default_016" speedFactor="1.06" vaporized="">
        <emissions CO_abs="6232.367832" CO2_abs="386260.363244" HC_abs="37.372470" PMx_abs="6.614598" NOx_abs="156.194950" fuel_abs="166.037409" electricity_abs="0"/>
    </tripinfo>