<?xml version="1.0" encoding="UTF-8"?>

<!-- generated on 2021-10-26 12:26:48 by Eclipse SUMO sumo Version 1.10.0
<configuration xmlns:xsi="http://www.w3.org/2001/XMLSchema-instance" xsi:noNamespaceSchemaLocation="http://sumo.dlr.de/xsd/sumoConfiguration.xsd">

    <input>
        <net-file value="/Users/behradkoohy/sumo-scratchpad/RESCO/environments/ingolstadt21/ingolstadt21.net.xml"/>
        <route-files value="/Users/behradkoohy/sumo-scratchpad/RESCO/environments/ingolstadt21/ingolstadt21.rou.xml"/>
    </input>

    <output>
        <tripinfo-output value="/Users/behradkoohy/sumo-scratchpad/RESCO/logs/MAXPRESSURE-tr0-ingolstadt21-21-mplight-wait/tripinfo_1.xml"/>
        <tripinfo-output.write-unfinished value="true"/>
    </output>

    <time>
        <begin value="57600"/>
        <end value="61200"/>
    </time>

    <processing>
        <time-to-teleport value="-1"/>
    </processing>

    <report>
        <no-warnings value="true"/>
        <no-step-log value="true"/>
    </report>

    <emissions>
        <device.emissions.probability value="1"/>
    </emissions>

    <traci_server>
        <remote-port value="58257"/>
    </traci_server>

    <random_number>
        <random value="true"/>
    </random_number>

</configuration>
-->

<tripinfos xmlns:xsi="http://www.w3.org/2001/XMLSchema-instance" xsi:noNamespaceSchemaLocation="http://sumo.dlr.de/xsd/tripinfo_file.xsd">
    <tripinfo id="carIn60260:1" depart="57606.00" departLane="315358254#0_1" departPos="5.10" departSpeed="0.00" departDelay="0.90" arrival="57653.00" arrivalLane="399835085#1_1" arrivalPos="212.23" arrivalSpeed="8.92" duration="47.00" routeLength="430.98" waitingTime="0.00" waitingCount="0" stopTime="0.00" timeLoss="6.50" rerouteNo="1" devices="tripinfo_carIn60260:1 routing_carIn60260:1 emissions_carIn60260:1" vType="default_016" speedFactor="1.15" vaporized="">
        <emissions CO_abs="1946.081865" CO2_abs="115147.084455" HC_abs="11.533930" PMx_abs="1.925813" NOx_abs="46.577514" fuel_abs="49.497100" electricity_abs="0"/>
    </tripinfo>
    <tripinfo id="h15454c2:3" depart="57612.00" departLane="24608844_1" departPos="5.10" departSpeed="0.00" departDelay="0.50" arrival="57660.00" arrivalLane="32978638#0_1" arrivalPos="49.29" arrivalSpeed="11.28" duration="48.00" routeLength="354.79" waitingTime="0.00" waitingCount="0" stopTime="0.00" timeLoss="6.42" rerouteNo="1" devices="tripinfo_h15454c2:3 routing_h15454c2:3 emissions_h15454c2:3" vType="default_016" speedFactor="0.82" vaporized="">
        <emissions CO_abs="2170.049949" CO2_abs="102525.555968" HC_abs="12.255874" PMx_abs="1.759718" NOx_abs="42.138161" fuel_abs="44.071880" electricity_abs="0"/>
    </tripinfo>
    <tripinfo id="carIn53971:1" depart="57640.00" departLane="272042143_1" departPos="5.10" departSpeed="0.00" departDelay="0.80" arrival="57699.00" arrivalLane="24634414#1_1" arrivalPos="162.19" arrivalSpeed="6.95" duration="59.00" routeLength="493.04" waitingTime="0.00" waitingCount="0" stopTime="0.00" timeLoss="10.00" rerouteNo="1" devices="tripinfo_carIn53971:1 routing_carIn53971:1 emissions_carIn53971:1" vType="default_016" speedFactor="0.93" vaporized="">
        <emissions CO_abs="2511.733582" CO2_abs="132794.684155" HC_abs="14.508755" PMx_abs="2.189040" NOx_abs="53.715875" fuel_abs="57.083351" electricity_abs="0"/>
    </tripinfo>
    <tripinfo id="S5R_frequency1.2" depart="57615.00" departLane="315358250#0_1" departPos="12.10" departSpeed="0.00" departDelay="3.40" arrival="57709.00" arrivalLane="386687235_1" arrivalPos="80.84" arrivalSpeed="13.22" duration="94.00" routeLength="1115.62" waitingTime="0.00" waitingCount="0" stopTime="0.00" timeLoss="12.54" rerouteNo="1" devices="tripinfo_S5R_frequency1.2 routing_S5R_frequency1.2 emissions_S5R_frequency1.2" vType="bus" speedFactor="1.00" vaporized="">
        <emissions CO_abs="1828.864729" CO2_abs="1152162.708792" HC_abs="388.829551" PMx_abs="196.429431" NOx_abs="8918.500960" fuel_abs="491.390502" electricity_abs="0"/>
    </tripinfo>
    <tripinfo id="carIn22761:1" depart="57616.00" departLane="-306240162#1_0" departPos="5.10" departSpeed="0.00" departDelay="2.10" arrival="57710.00" arrivalLane="399835085#1_1" arrivalPos="212.23" arrivalSpeed="9.41" duration="94.00" routeLength="1093.26" waitingTime="6.00" waitingCount="1" stopTime="0.00" timeLoss="24.63" rerouteNo="1" devices="tripinfo_carIn22761:1 routing_carIn22761:1 emissions_carIn22761:1" vType="default_016" speedFactor="1.13" vaporized="">
        <emissions CO_abs="5105.476612" CO2_abs="328552.230292" HC_abs="31.095186" PMx_abs="6.240875" NOx_abs="133.982440" fuel_abs="141.230257" electricity_abs="0"/>
    </tripinfo>
    <tripinfo id="h12244c1:3" depart="57612.00" departLane="315358244_1" departPos="5.10" departSpeed="0.00" departDelay="0.40" arrival="57716.00" arrivalLane="386687235_1" arrivalPos="80.84" arrivalSpeed="12.78" duration="104.00" routeLength="1186.14" waitingTime="0.00" waitingCount="0" stopTime="0.00" timeLoss="10.04" rerouteNo="1" devices="tripinfo_h12244c1:3 routing_h12244c1:3 emissions_h12244c1:3" vType="default_016" speedFactor="0.92" vaporized="">
        <emissions CO_abs="2848.415335" CO2_abs="230573.732511" HC_abs="18.315918" PMx_abs="3.514646" NOx_abs="90.003906" fuel_abs="99.114110" electricity_abs="0"/>
    </tripinfo>
    <tripinfo id="h9563c2:5" depart="57631.00" departLane="315358244_1" departPos="5.10" departSpeed="0.00" departDelay="0.70" arrival="57719.00" arrivalLane="386687235_1" arrivalPos="80.84" arrivalSpeed="14.76" duration="88.00" routeLength="1186.14" waitingTime="0.00" waitingCount="0" stopTime="0.00" timeLoss="9.30" rerouteNo="1" devices="tripinfo_h9563c2:5 routing_h9563c2:5 emissions_h9563c2:5" vType="default_016" speedFactor="1.11" vaporized="">
        <emissions CO_abs="2719.209271" CO2_abs="237009.723529" HC_abs="17.878163" PMx_abs="3.973386" NOx_abs="93.735711" fuel_abs="101.880046" electricity_abs="0"/>
    </tripinfo>
    <tripinfo id="h7800c1:5" depart="57696.00" departLane="-447569998#1_1" departPos="5.10" departSpeed="0.00" departDelay="0.00" arrival="57725.00" arrivalLane="-447569998#1_2" arrivalPos="180.76" arrivalSpeed="4.67" duration="29.00" routeLength="175.66" waitingTime="2.00" waitingCount="1" stopTime="0.00" timeLoss="8.80" rerouteNo="1" devices="tripinfo_h7800c1:5 routing_h7800c1:5 emissions_h7800c1:5" vType="default_016" speedFactor="1.06" vaporized="">
        <emissions CO_abs="1511.513865" CO2_abs="64261.444737" HC_abs="8.368997" PMx_abs="1.120603" NOx_abs="26.577549" fuel_abs="27.623675" electricity_abs="0"/>
    </tripinfo>
    <tripinfo id="carIn80064:1" depart="57603.00" departLane="128361109#1_1" departPos="5.10" departSpeed="0.00" departDelay="0.40" arrival="57726.00" arrivalLane="-315358254#1_1" arrivalPos="137.16" arrivalSpeed="12.12" duration="123.00" routeLength="1587.97" waitingTime="4.00" waitingCount="1" stopTime="0.00" timeLoss="26.34" rerouteNo="1" devices="tripinfo_carIn80064:1 routing_carIn80064:1 emissions_carIn80064:1" vType="default_016" speedFactor="0.94" vaporized="">
        <emissions CO_abs="5953.307357" CO2_abs="424188.791380" HC_abs="37.236072" PMx_abs="8.059681" NOx_abs="174.157345" fuel_abs="182.339567" electricity_abs="0"/>
    </tripinfo>
    <tripinfo id="h3688c1:1" depart="57625.00" departLane="201201950#1_1" departPos="5.10" departSpeed="0.00" departDelay="0.00" arrival="57734.00" arrivalLane="32978638#0_1" arrivalPos="49.29" arrivalSpeed="12.14" duration="109.00" routeLength="1089.75" waitingTime="5.00" waitingCount="1" stopTime="0.00" timeLoss="20.50" rerouteNo="1" devices="tripinfo_h3688c1:1 routing_h3688c1:1 emissions_h3688c1:1" vType="default_016" speedFactor="0.91" vaporized="">
        <emissions CO_abs="3643.703540" CO2_abs="243058.726645" HC_abs="22.250706" PMx_abs="3.981664" NOx_abs="97.313071" fuel_abs="104.480951" electricity_abs="0"/>
    </tripinfo>
    <tripinfo id="h3568c1:3" depart="57656.00" departLane="266565295#5_1" departPos="5.10" departSpeed="0.00" departDelay="0.80" arrival="57747.00" arrivalLane="-24634415_1" arrivalPos="62.03" arrivalSpeed="10.83" duration="91.00" routeLength="807.40" waitingTime="0.00" waitingCount="0" stopTime="0.00" timeLoss="14.28" rerouteNo="1" devices="tripinfo_h3568c1:3 routing_h3568c1:3 emissions_h3568c1:3" vType="default_016" speedFactor="0.85" vaporized="">
        <emissions CO_abs="3349.822313" CO2_abs="186219.967551" HC_abs="19.577491" PMx_abs="3.120250" NOx_abs="75.538209" fuel_abs="80.048622" electricity_abs="0"/>
    </tripinfo>
    <tripinfo id="h7181c1:1" depart="57660.00" departLane="315358254#0_1" departPos="5.10" departSpeed="0.00" departDelay="0.10" arrival="57751.00" arrivalLane="306240162#0_0" arrivalPos="220.43" arrivalSpeed="15.93" duration="91.00" routeLength="932.35" waitingTime="18.00" waitingCount="2" stopTime="0.00" timeLoss="39.58" rerouteNo="1" devices="tripinfo_h7181c1:1 routing_h7181c1:1 emissions_h7181c1:1" vType="default_016" speedFactor="1.01" vaporized="">
        <emissions CO_abs="6472.704792" CO2_abs="339448.307442" HC_abs="37.583659" PMx_abs="6.820252" NOx_abs="142.200107" fuel_abs="145.914316" electricity_abs="0"/>
    </tripinfo>
    <tripinfo id="h317c2:1" depart="57707.00" departLane="-32978638#0_1" departPos="5.10" departSpeed="0.00" departDelay="0.10" arrival="57759.00" arrivalLane="-266565295#5_1" arrivalPos="172.76" arrivalSpeed="10.99" duration="52.00" routeLength="370.53" waitingTime="10.00" waitingCount="1" stopTime="0.00" timeLoss="19.06" rerouteNo="1" devices="tripinfo_h317c2:1 routing_h317c2:1 emissions_h317c2:1" vType="default_016" speedFactor="0.84" vaporized="">
        <emissions CO_abs="2950.558229" CO2_abs="124389.879199" HC_abs="16.330720" PMx_abs="2.229292" NOx_abs="51.340721" fuel_abs="53.470699" electricity_abs="0"/>
    </tripinfo>
    <tripinfo id="carIn30817:1" depart="57681.00" departLane="315358244_1" departPos="5.10" departSpeed="0.00" departDelay="0.20" arrival="57771.00" arrivalLane="447569997#1_1" arrivalPos="180.93" arrivalSpeed="5.31" duration="90.00" routeLength="718.04" waitingTime="0.00" waitingCount="0" stopTime="0.00" timeLoss="9.94" rerouteNo="1" devices="tripinfo_carIn30817:1 routing_carIn30817:1 emissions_carIn30817:1" vType="default_016" speedFactor="0.77" vaporized="">
        <emissions CO_abs="3254.016712" CO2_abs="165265.017790" HC_abs="18.593461" PMx_abs="2.514137" NOx_abs="65.615380" fuel_abs="71.041522" electricity_abs="0"/>
    </tripinfo>
    <tripinfo id="h645c1:1" depart="57622.00" departLane="266565295#5_1" departPos="5.10" departSpeed="0.00" departDelay="0.40" arrival="57773.00" arrivalLane="-315358244_1" arrivalPos="33.95" arrivalSpeed="14.57" duration="151.00" routeLength="1910.83" waitingTime="9.00" waitingCount="1" stopTime="0.00" timeLoss="26.09" rerouteNo="1" devices="tripinfo_h645c1:1 routing_h645c1:1 emissions_h645c1:1" vType="default_016" speedFactor="1.11" vaporized="">
        <emissions CO_abs="4681.920560" CO2_abs="371081.649240" HC_abs="30.006221" PMx_abs="6.368400" NOx_abs="147.856965" fuel_abs="159.511800" electricity_abs="0"/>
    </tripinfo>
    <tripinfo id="h3154c1:1" depart="57658.00" departLane="24634507_1" departPos="5.10" departSpeed="0.00" departDelay="0.00" arrival="57774.00" arrivalLane="-266565295#5_1" arrivalPos="172.76" arrivalSpeed="12.23" duration="116.00" routeLength="1206.22" waitingTime="7.00" waitingCount="1" stopTime="0.00" timeLoss="24.15" rerouteNo="1" devices="tripinfo_h3154c1:1 routing_h3154c1:1 emissions_h3154c1:1" vType="default_016" speedFactor="0.96" vaporized="">
        <emissions CO_abs="4318.171478" CO2_abs="283918.867532" HC_abs="26.317839" PMx_abs="4.882185" NOx_abs="114.774875" fuel_abs="122.044785" electricity_abs="0"/>
    </tripinfo>
    <tripinfo id="carIn107084:1" depart="57601.00" departLane="124812856#0_1" departPos="5.10" departSpeed="0.00" departDelay="0.70" arrival="57779.00" arrivalLane="-128361102#1_1" arrivalPos="274.68" arrivalSpeed="14.05" duration="178.00" routeLength="2250.49" waitingTime="0.00" waitingCount="0" stopTime="0.00" timeLoss="17.23" rerouteNo="1" devices="tripinfo_carIn107084:1 routing_carIn107084:1 emissions_carIn107084:1" vType="default_016" speedFactor="1.02" vaporized="">
        <emissions CO_abs="4725.659395" CO2_abs="431098.376334" HC_abs="31.467023" PMx_abs="6.755806" NOx_abs="168.086639" fuel_abs="185.310686" electricity_abs="0"/>
    </tripinfo>
    <tripinfo id="carIn12365:1" depart="57713.00" departLane="315358244_1" departPos="5.10" departSpeed="0.00" departDelay="0.50" arrival="57780.00" arrivalLane="447569997#1_1" arrivalPos="180.93" arrivalSpeed="7.70" duration="67.00" routeLength="718.04" waitingTime="0.00" waitingCount="0" stopTime="0.00" timeLoss="7.65" rerouteNo="1" devices="tripinfo_carIn12365:1 routing_carIn12365:1 emissions_carIn12365:1" vType="default_016" speedFactor="1.03" vaporized="">
        <emissions CO_abs="2114.403055" CO2_abs="140314.643992" HC_abs="12.903558" PMx_abs="2.355604" NOx_abs="56.404733" fuel_abs="60.315431" electricity_abs="0"/>
    </tripinfo>
    <tripinfo id="h330c1:1" depart="57736.00" departLane="-32978638#0_1" departPos="5.10" departSpeed="0.00" departDelay="0.20" arrival="57783.00" arrivalLane="-266565295#5_1" arrivalPos="172.76" arrivalSpeed="14.17" duration="47.00" routeLength="370.53" waitingTime="11.00" waitingCount="1" stopTime="0.00" timeLoss="21.67" rerouteNo="1" devices="tripinfo_h330c1:1 routing_h330c1:1 emissions_h330c1:1" vType="default_016" speedFactor="1.08" vaporized="">
        <emissions CO_abs="2720.964677" CO2_abs="131304.668788" HC_abs="15.463915" PMx_abs="2.494457" NOx_abs="54.757702" fuel_abs="56.442595" electricity_abs="0"/>
    </tripinfo>
    <tripinfo id="h3326c1:2" depart="57656.00" departLane="22716069#0_1" departPos="5.10" departSpeed="0.00" departDelay="0.00" arrival="57784.00" arrivalLane="24634517#13_1" arrivalPos="111.62" arrivalSpeed="12.13" duration="128.00" routeLength="1312.81" waitingTime="5.00" waitingCount="1" stopTime="0.00" timeLoss="24.72" rerouteNo="1" devices="tripinfo_h3326c1:2 routing_h3326c1:2 emissions_h3326c1:2" vType="default_016" speedFactor="0.94" vaporized="">
        <emissions CO_abs="4342.305746" CO2_abs="290167.972516" HC_abs="26.584701" PMx_abs="5.039137" NOx_abs="117.973774" fuel_abs="124.730840" electricity_abs="0"/>
    </tripinfo>
    <tripinfo id="carIn27009:1" depart="57673.00" departLane="-447569998#1_1" departPos="5.10" departSpeed="0.00" departDelay="0.50" arrival="57787.00" arrivalLane="-26677539_1" arrivalPos="152.75" arrivalSpeed="8.92" duration="114.00" routeLength="699.63" waitingTime="24.00" waitingCount="1" stopTime="0.00" timeLoss="38.50" rerouteNo="1" devices="tripinfo_carIn27009:1 routing_carIn27009:1 emissions_carIn27009:1" vType="default_015" speedFactor="1.11" vaporized="">
        <emissions CO_abs="7095.628787" CO2_abs="243186.935875" HC_abs="37.948305" PMx_abs="4.498616" NOx_abs="101.850202" fuel_abs="104.538108" electricity_abs="0"/>
    </tripinfo>
    <tripinfo id="carIn86816:1" depart="57617.00" departLane="128361102#0_1" departPos="5.10" departSpeed="0.00" departDelay="0.80" arrival="57791.00" arrivalLane="201956811#0_1" arrivalPos="40.40" arrivalSpeed="12.44" duration="174.00" routeLength="2067.33" waitingTime="0.00" waitingCount="0" stopTime="0.00" timeLoss="19.67" rerouteNo="1" devices="tripinfo_carIn86816:1 routing_carIn86816:1 emissions_carIn86816:1" vType="default_016" speedFactor="0.98" vaporized="">
        <emissions CO_abs="4957.811783" CO2_abs="412198.573874" HC_abs="32.190138" PMx_abs="6.522911" NOx_abs="161.927067" fuel_abs="177.186690" electricity_abs="0"/>
    </tripinfo>
    <tripinfo id="carIn118591:1" depart="57689.00" departLane="315358244_1" departPos="5.10" departSpeed="0.00" departDelay="0.20" arrival="57794.00" arrivalLane="386687235_1" arrivalPos="80.84" arrivalSpeed="12.21" duration="105.00" routeLength="1186.14" waitingTime="0.00" waitingCount="0" stopTime="0.00" timeLoss="8.97" rerouteNo="1" devices="tripinfo_carIn118591:1 routing_carIn118591:1 emissions_carIn118591:1" vType="default_016" speedFactor="0.90" vaporized="">
        <emissions CO_abs="2647.551099" CO2_abs="222864.311973" HC_abs="17.193384" PMx_abs="3.226022" NOx_abs="85.847893" fuel_abs="95.800325" electricity_abs="0"/>
    </tripinfo>
    <tripinfo id="h17600c1:1" depart="57662.00" departLane="272042143_1" departPos="5.10" departSpeed="0.00" departDelay="0.30" arrival="57798.00" arrivalLane="201238729#3_1" arrivalPos="431.02" arrivalSpeed="16.10" duration="136.00" routeLength="2100.26" waitingTime="0.00" waitingCount="0" stopTime="0.00" timeLoss="11.52" rerouteNo="1" devices="tripinfo_h17600c1:1 routing_h17600c1:1 emissions_h17600c1:1" vType="default_016" speedFactor="1.22" vaporized="">
        <emissions CO_abs="3667.023788" CO2_abs="381223.998293" HC_abs="25.381492" PMx_abs="6.357415" NOx_abs="148.117670" fuel_abs="163.871074" electricity_abs="0"/>
    </tripinfo>
    <tripinfo id="carIn77943:1" depart="57608.00" departLane="124812856#0_1" departPos="5.10" departSpeed="0.00" departDelay="2.50" arrival="57803.00" arrivalLane="-128361102#1_1" arrivalPos="274.68" arrivalSpeed="12.70" duration="195.00" routeLength="2250.49" waitingTime="0.00" waitingCount="0" stopTime="0.00" timeLoss="25.01" rerouteNo="1" devices="tripinfo_carIn77943:1 routing_carIn77943:1 emissions_carIn77943:1" vType="default_016" speedFactor="0.97" vaporized="">
        <emissions CO_abs="5038.948505" CO2_abs="431074.819429" HC_abs="32.937916" PMx_abs="6.524987" NOx_abs="167.597342" fuel_abs="185.301097" electricity_abs="0"/>
    </tripinfo>
    <tripinfo id="carIn81046:1" depart="57611.00" departLane="124812856#0_1" departPos="5.10" departSpeed="0.00" departDelay="2.50" arrival="57805.00" arrivalLane="-128361102#1_1" arrivalPos="274.68" arrivalSpeed="15.16" duration="194.00" routeLength="2250.49" waitingTime="0.00" waitingCount="0" stopTime="0.00" timeLoss="47.84" rerouteNo="1" devices="tripinfo_carIn81046:1 routing_carIn81046:1 emissions_carIn81046:1" vType="default_016" speedFactor="1.13" vaporized="">
        <emissions CO_abs="6805.318486" CO2_abs="523389.268223" HC_abs="43.257896" PMx_abs="8.912517" NOx_abs="210.529542" fuel_abs="224.982235" electricity_abs="0"/>
    </tripinfo>
    <tripinfo id="carIn77438:1" depart="57614.00" departLane="124812856#0_1" departPos="5.10" departSpeed="0.00" departDelay="1.10" arrival="57806.00" arrivalLane="-128361102#1_1" arrivalPos="274.68" arrivalSpeed="14.03" duration="192.00" routeLength="2250.49" waitingTime="0.00" waitingCount="0" stopTime="0.00" timeLoss="30.28" rerouteNo="1" devices="tripinfo_carIn77438:1 routing_carIn77438:1 emissions_carIn77438:1" vType="default_016" speedFactor="1.01" vaporized="">
        <emissions CO_abs="6132.030290" CO2_abs="486200.156635" HC_abs="39.321198" PMx_abs="8.080178" NOx_abs="193.885706" fuel_abs="208.996445" electricity_abs="0"/>
    </tripinfo>
    <tripinfo id="h19804c1:3" depart="57617.00" departLane="124812856#0_1" departPos="5.10" departSpeed="0.00" departDelay="1.50" arrival="57811.00" arrivalLane="-128361102#1_1" arrivalPos="274.68" arrivalSpeed="13.16" duration="194.00" routeLength="2250.49" waitingTime="0.00" waitingCount="0" stopTime="0.00" timeLoss="26.44" rerouteNo="1" devices="tripinfo_h19804c1:3 routing_h19804c1:3 emissions_h19804c1:3" vType="default_016" speedFactor="0.98" vaporized="">
        <emissions CO_abs="5266.394257" CO2_abs="444624.532254" HC_abs="34.304531" PMx_abs="6.912880" NOx_abs="173.850195" fuel_abs="191.125351" electricity_abs="0"/>
    </tripinfo>
    <tripinfo id="carIn129809:1" depart="57729.00" departLane="-447569998#1_1" departPos="5.10" departSpeed="0.00" departDelay="1.00" arrival="57812.00" arrivalLane="-315358244_1" arrivalPos="33.95" arrivalSpeed="12.23" duration="83.00" routeLength="706.49" waitingTime="7.00" waitingCount="1" stopTime="0.00" timeLoss="19.75" rerouteNo="1" devices="tripinfo_carIn129809:1 routing_carIn129809:1 emissions_carIn129809:1" vType="default_015" speedFactor="0.95" vaporized="">
        <emissions CO_abs="3740.483198" CO2_abs="195752.512668" HC_abs="21.572189" PMx_abs="3.260466" NOx_abs="78.951570" fuel_abs="84.146539" electricity_abs="0"/>
    </tripinfo>
    <tripinfo id="carIn50326:1" depart="57651.00" departLane="128361102#0_1" departPos="5.10" departSpeed="0.00" departDelay="0.30" arrival="57813.00" arrivalLane="18809673#0_1" arrivalPos="473.56" arrivalSpeed="13.23" duration="162.00" routeLength="1591.07" waitingTime="10.00" waitingCount="1" stopTime="0.00" timeLoss="30.33" rerouteNo="1" devices="tripinfo_carIn50326:1 routing_carIn50326:1 emissions_carIn50326:1" vType="default_016" speedFactor="0.99" vaporized="">
        <emissions CO_abs="6045.714690" CO2_abs="352641.178055" HC_abs="35.730010" PMx_abs="5.881534" NOx_abs="141.492729" fuel_abs="151.586467" electricity_abs="0"/>
    </tripinfo>
    <tripinfo id="h16072c2:3" depart="57663.00" departLane="315358254#0_1" departPos="5.10" departSpeed="0.00" departDelay="2.50" arrival="57813.00" arrivalLane="386687235_1" arrivalPos="80.84" arrivalSpeed="14.48" duration="150.00" routeLength="1611.92" waitingTime="16.00" waitingCount="2" stopTime="0.00" timeLoss="40.12" rerouteNo="1" devices="tripinfo_h16072c2:3 routing_h16072c2:3 emissions_h16072c2:3" vType="default_016" speedFactor="1.07" vaporized="">
        <emissions CO_abs="5397.190948" CO2_abs="362986.140927" HC_abs="33.040100" PMx_abs="6.263393" NOx_abs="145.946544" fuel_abs="156.032428" electricity_abs="0"/>
    </tripinfo>
    <tripinfo id="carIn121703:1" depart="57647.00" departLane="386687232#0_1" departPos="5.10" departSpeed="0.00" departDelay="0.30" arrival="57814.00" arrivalLane="-315358244_1" arrivalPos="33.95" arrivalSpeed="14.32" duration="167.00" routeLength="1157.39" waitingTime="74.00" waitingCount="1" stopTime="0.00" timeLoss="85.85" rerouteNo="1" devices="tripinfo_carIn121703:1 routing_carIn121703:1 emissions_carIn121703:1" vType="default_016" speedFactor="1.04" vaporized="">
        <emissions CO_abs="14174.290248" CO2_abs="411657.034734" HC_abs="74.159015" PMx_abs="8.295796" NOx_abs="173.921247" fuel_abs="176.958996" electricity_abs="0"/>
    </tripinfo>
    <tripinfo id="randUni14624:1" depart="57606.00" departLane="315358244_1" departPos="5.10" departSpeed="0.00" departDelay="0.80" arrival="57815.00" arrivalLane="-25149001#4_1" arrivalPos="105.67" arrivalSpeed="9.00" duration="209.00" routeLength="2803.98" waitingTime="7.00" waitingCount="1" stopTime="0.00" timeLoss="29.32" rerouteNo="1" devices="tripinfo_randUni14624:1 routing_randUni14624:1 emissions_randUni14624:1" vType="random_016" speedFactor="1.18" vaporized="">
        <emissions CO_abs="6803.323721" CO2_abs="569924.717961" HC_abs="44.061826" PMx_abs="9.632673" NOx_abs="224.778177" fuel_abs="244.985739" electricity_abs="0"/>
    </tripinfo>
    <tripinfo id="carIn48184:1" depart="57613.00" departLane="-306240162#1_0" departPos="5.10" departSpeed="0.00" departDelay="0.70" arrival="57815.00" arrivalLane="386687235_1" arrivalPos="80.84" arrivalSpeed="12.89" duration="202.00" routeLength="2257.41" waitingTime="20.00" waitingCount="2" stopTime="0.00" timeLoss="49.92" rerouteNo="1" devices="tripinfo_carIn48184:1 routing_carIn48184:1 emissions_carIn48184:1" vType="default_016" speedFactor="0.98" vaporized="">
        <emissions CO_abs="8206.383386" CO2_abs="530271.530933" HC_abs="49.801482" PMx_abs="9.415820" NOx_abs="213.450612" fuel_abs="227.941383" electricity_abs="0"/>
    </tripinfo>
    <tripinfo id="h11737c1:1" depart="57665.00" departLane="272042143_1" departPos="5.10" departSpeed="0.00" departDelay="1.50" arrival="57816.00" arrivalLane="-315358254#1_1" arrivalPos="137.16" arrivalSpeed="13.88" duration="151.00" routeLength="1596.88" waitingTime="25.00" waitingCount="1" stopTime="0.00" timeLoss="40.77" rerouteNo="1" devices="tripinfo_h11737c1:1 routing_h11737c1:1 emissions_h11737c1:1" vType="default_016" speedFactor="1.05" vaporized="">
        <emissions CO_abs="7311.432129" CO2_abs="392294.407848" HC_abs="42.478870" PMx_abs="6.867179" NOx_abs="158.103271" fuel_abs="168.631969" electricity_abs="0"/>
    </tripinfo>
    <tripinfo id="carIn46110:1" depart="57684.00" departLane="315358244_1" departPos="5.10" departSpeed="0.00" departDelay="1.20" arrival="57817.00" arrivalLane="32978638#0_1" arrivalPos="49.29" arrivalSpeed="16.84" duration="133.00" routeLength="1764.04" waitingTime="12.00" waitingCount="1" stopTime="0.00" timeLoss="27.64" rerouteNo="1" devices="tripinfo_carIn46110:1 routing_carIn46110:1 emissions_carIn46110:1" vType="default_016" speedFactor="1.22" vaporized="">
        <emissions CO_abs="5042.625823" CO2_abs="372307.998032" HC_abs="31.492829" PMx_abs="6.507500" NOx_abs="147.687147" fuel_abs="160.039175" electricity_abs="0"/>
    </tripinfo>
    <tripinfo id="carIn126288:1" depart="57674.00" departLane="272042143_1" departPos="5.10" departSpeed="0.00" departDelay="0.00" arrival="57819.00" arrivalLane="-315358254#1_1" arrivalPos="137.16" arrivalSpeed="13.36" duration="145.00" routeLength="1596.88" waitingTime="11.00" waitingCount="1" stopTime="0.00" timeLoss="28.53" rerouteNo="1" devices="tripinfo_carIn126288:1 routing_carIn126288:1 emissions_carIn126288:1" vType="default_016" speedFactor="1.00" vaporized="">
        <emissions CO_abs="4933.361416" CO2_abs="353546.055634" HC_abs="30.735716" PMx_abs="5.857876" NOx_abs="140.714277" fuel_abs="151.974626" electricity_abs="0"/>
    </tripinfo>
    <tripinfo id="carIn81860:1" depart="57712.00" departLane="128361102#0_1" departPos="5.10" departSpeed="0.00" departDelay="0.60" arrival="57819.00" arrivalLane="-24634517#17_1" arrivalPos="6.43" arrivalSpeed="8.98" duration="107.00" routeLength="1229.64" waitingTime="9.00" waitingCount="1" stopTime="0.00" timeLoss="24.46" rerouteNo="1" devices="tripinfo_carIn81860:1 routing_carIn81860:1 emissions_carIn81860:1" vType="default_016" speedFactor="1.10" vaporized="">
        <emissions CO_abs="4307.677071" CO2_abs="290518.206142" HC_abs="26.358706" PMx_abs="5.150032" NOx_abs="117.565678" fuel_abs="124.881303" electricity_abs="0"/>
    </tripinfo>
    <tripinfo id="h3864c1:3" depart="57678.00" departLane="24693977#1_1" departPos="5.10" departSpeed="0.00" departDelay="0.00" arrival="57821.00" arrivalLane="201956820_2" arrivalPos="48.33" arrivalSpeed="15.60" duration="143.00" routeLength="1574.85" waitingTime="9.00" waitingCount="1" stopTime="0.00" timeLoss="33.08" rerouteNo="1" devices="tripinfo_h3864c1:3 routing_h3864c1:3 emissions_h3864c1:3" vType="default_016" speedFactor="1.17" vaporized="">
        <emissions CO_abs="6673.725212" CO2_abs="418696.129455" HC_abs="40.230330" PMx_abs="7.655621" NOx_abs="171.635361" fuel_abs="179.979477" electricity_abs="0"/>
    </tripinfo>
    <tripinfo id="carIn12152:1" depart="57647.00" departLane="24599188#0.94_1" departPos="5.10" departSpeed="0.00" departDelay="0.50" arrival="57822.00" arrivalLane="-315358254#1_1" arrivalPos="137.16" arrivalSpeed="13.13" duration="175.00" routeLength="2034.31" waitingTime="0.00" waitingCount="0" stopTime="0.00" timeLoss="18.15" rerouteNo="1" devices="tripinfo_carIn12152:1 routing_carIn12152:1 emissions_carIn12152:1" vType="default_016" speedFactor="1.01" vaporized="">
        <emissions CO_abs="4847.590416" CO2_abs="402031.575767" HC_abs="31.363338" PMx_abs="6.106704" NOx_abs="156.042865" fuel_abs="172.816747" electricity_abs="0"/>
    </tripinfo>
    <tripinfo id="carIn107842:1" depart="57623.00" departLane="124812856#0_1" departPos="5.10" departSpeed="0.00" departDelay="1.90" arrival="57823.00" arrivalLane="-128361102#1_1" arrivalPos="274.68" arrivalSpeed="12.11" duration="200.00" routeLength="2250.49" waitingTime="0.00" waitingCount="0" stopTime="0.00" timeLoss="26.80" rerouteNo="1" devices="tripinfo_carIn107842:1 routing_carIn107842:1 emissions_carIn107842:1" vType="default_016" speedFactor="0.95" vaporized="">
        <emissions CO_abs="6288.212367" CO2_abs="458141.121916" HC_abs="39.350384" PMx_abs="7.629047" NOx_abs="183.663403" fuel_abs="196.935401" electricity_abs="0"/>
    </tripinfo>
    <tripinfo id="carIn82278:1" depart="57702.00" departLane="-306240162#1_0" departPos="5.10" departSpeed="0.00" departDelay="0.70" arrival="57824.00" arrivalLane="399835085#1_1" arrivalPos="212.23" arrivalSpeed="7.21" duration="122.00" routeLength="1093.26" waitingTime="20.00" waitingCount="2" stopTime="0.00" timeLoss="44.18" rerouteNo="1" devices="tripinfo_carIn82278:1 routing_carIn82278:1 emissions_carIn82278:1" vType="default_016" speedFactor="1.00" vaporized="">
        <emissions CO_abs="7662.970292" CO2_abs="375610.889216" HC_abs="43.757392" PMx_abs="7.262501" NOx_abs="156.373937" fuel_abs="161.459832" electricity_abs="0"/>
    </tripinfo>
    <tripinfo id="carIn102915:1" depart="57643.00" departLane="128361102#0_1" departPos="5.10" departSpeed="0.00" departDelay="0.40" arrival="57825.00" arrivalLane="201956811#0_1" arrivalPos="40.40" arrivalSpeed="11.52" duration="182.00" routeLength="2067.33" waitingTime="0.00" waitingCount="0" stopTime="0.00" timeLoss="17.58" rerouteNo="1" devices="tripinfo_carIn102915:1 routing_carIn102915:1 emissions_carIn102915:1" vType="default_016" speedFactor="0.92" vaporized="">
        <emissions CO_abs="4911.922823" CO2_abs="399225.897002" HC_abs="31.645537" PMx_abs="6.216899" NOx_abs="156.858434" fuel_abs="171.610464" electricity_abs="0"/>
    </tripinfo>
    <tripinfo id="h15382c1:3" depart="57626.00" departLane="124812856#0_1" departPos="5.10" departSpeed="0.00" departDelay="3.80" arrival="57827.00" arrivalLane="-128361102#1_1" arrivalPos="274.68" arrivalSpeed="12.58" duration="201.00" routeLength="2250.49" waitingTime="0.00" waitingCount="0" stopTime="0.00" timeLoss="24.01" rerouteNo="1" devices="tripinfo_h15382c1:3 routing_h15382c1:3 emissions_h15382c1:3" vType="default_016" speedFactor="0.93" vaporized="">
        <emissions CO_abs="5467.348781" CO2_abs="430902.833959" HC_abs="34.902716" PMx_abs="6.700460" NOx_abs="169.247489" fuel_abs="185.227206" electricity_abs="0"/>
    </tripinfo>