<?xml version="1.0" encoding="UTF-8"?>

<!-- generated on 2021-10-26 12:55:10 by Eclipse SUMO sumo Version 1.10.0
<configuration xmlns:xsi="http://www.w3.org/2001/XMLSchema-instance" xsi:noNamespaceSchemaLocation="http://sumo.dlr.de/xsd/sumoConfiguration.xsd">

    <input>
        <net-file value="/Users/behradkoohy/sumo-scratchpad/RESCO/environments/ingolstadt21/ingolstadt21.net.xml"/>
        <route-files value="/Users/behradkoohy/sumo-scratchpad/RESCO/environments/ingolstadt21/ingolstadt21.rou.xml"/>
    </input>

    <output>
        <tripinfo-output value="/Users/behradkoohy/sumo-scratchpad/RESCO/logs/MAXPRESSURE-tr0-ingolstadt21-21-mplight-wait/tripinfo_20.xml"/>
        <tripinfo-output.write-unfinished value="true"/>
    </output>

    <time>
        <begin value="57600"/>
        <end value="61200"/>
    </time>

    <processing>
        <time-to-teleport value="-1"/>
    </processing>

    <report>
        <no-warnings value="true"/>
        <no-step-log value="true"/>
    </report>

    <emissions>
        <device.emissions.probability value="1"/>
    </emissions>

    <traci_server>
        <remote-port value="58623"/>
    </traci_server>

    <random_number>
        <random value="true"/>
    </random_number>

</configuration>
-->

<tripinfos xmlns:xsi="http://www.w3.org/2001/XMLSchema-instance" xsi:noNamespaceSchemaLocation="http://sumo.dlr.de/xsd/tripinfo_file.xsd">
    <tripinfo id="h15454c2:3" depart="57612.00" departLane="24608844_1" departPos="5.10" departSpeed="0.00" departDelay="0.50" arrival="57655.00" arrivalLane="32978638#0_1" arrivalPos="49.29" arrivalSpeed="12.70" duration="43.00" routeLength="354.79" waitingTime="0.00" waitingCount="0" stopTime="0.00" timeLoss="6.22" rerouteNo="1" devices="tripinfo_h15454c2:3 routing_h15454c2:3 emissions_h15454c2:3" vType="default_016" speedFactor="0.93" vaporized="">
        <emissions CO_abs="2005.953520" CO2_abs="104858.864364" HC_abs="11.578695" PMx_abs="1.836507" NOx_abs="43.177419" fuel_abs="45.074659" electricity_abs="0"/>
    </tripinfo>
    <tripinfo id="carIn60260:1" depart="57606.00" departLane="315358254#0_1" departPos="5.10" departSpeed="0.00" departDelay="0.90" arrival="57662.00" arrivalLane="399835085#1_1" arrivalPos="212.23" arrivalSpeed="7.90" duration="56.00" routeLength="430.98" waitingTime="0.00" waitingCount="0" stopTime="0.00" timeLoss="7.83" rerouteNo="1" devices="tripinfo_carIn60260:1 routing_carIn60260:1 emissions_carIn60260:1" vType="default_016" speedFactor="0.96" vaporized="">
        <emissions CO_abs="2226.513485" CO2_abs="108690.262899" HC_abs="12.644527" PMx_abs="1.792546" NOx_abs="44.161616" fuel_abs="46.721908" electricity_abs="0"/>
    </tripinfo>
    <tripinfo id="carIn53971:1" depart="57640.00" departLane="272042143_1" departPos="5.10" departSpeed="0.00" departDelay="0.80" arrival="57698.00" arrivalLane="24634414#1_1" arrivalPos="162.19" arrivalSpeed="7.16" duration="58.00" routeLength="493.04" waitingTime="0.00" waitingCount="0" stopTime="0.00" timeLoss="9.14" rerouteNo="1" devices="tripinfo_carIn53971:1 routing_carIn53971:1 emissions_carIn53971:1" vType="default_016" speedFactor="0.94" vaporized="">
        <emissions CO_abs="2414.253582" CO2_abs="136894.570704" HC_abs="14.158879" PMx_abs="2.212261" NOx_abs="54.930602" fuel_abs="58.845669" electricity_abs="0"/>
    </tripinfo>
    <tripinfo id="S5R_frequency1.2" depart="57615.00" departLane="315358250#0_1" departPos="12.10" departSpeed="0.00" departDelay="3.40" arrival="57710.00" arrivalLane="386687235_1" arrivalPos="80.84" arrivalSpeed="13.32" duration="95.00" routeLength="1115.62" waitingTime="0.00" waitingCount="0" stopTime="0.00" timeLoss="13.16" rerouteNo="1" devices="tripinfo_S5R_frequency1.2 routing_S5R_frequency1.2 emissions_S5R_frequency1.2" vType="bus" speedFactor="1.00" vaporized="">
        <emissions CO_abs="1882.013807" CO2_abs="1183303.233429" HC_abs="401.113601" PMx_abs="202.139222" NOx_abs="9164.809558" fuel_abs="504.671868" electricity_abs="0"/>
    </tripinfo>
    <tripinfo id="h12244c1:3" depart="57612.00" departLane="315358244_1" departPos="5.10" departSpeed="0.00" departDelay="0.40" arrival="57716.00" arrivalLane="386687235_1" arrivalPos="80.84" arrivalSpeed="12.08" duration="104.00" routeLength="1186.14" waitingTime="0.00" waitingCount="0" stopTime="0.00" timeLoss="9.97" rerouteNo="1" devices="tripinfo_h12244c1:3 routing_h12244c1:3 emissions_h12244c1:3" vType="default_016" speedFactor="0.92" vaporized="">
        <emissions CO_abs="2893.747108" CO2_abs="230767.629437" HC_abs="18.540606" PMx_abs="3.601932" NOx_abs="90.702753" fuel_abs="99.197358" electricity_abs="0"/>
    </tripinfo>
    <tripinfo id="h3688c1:1" depart="57625.00" departLane="201201950#1_1" departPos="5.10" departSpeed="0.00" departDelay="0.00" arrival="57719.00" arrivalLane="32978638#0_1" arrivalPos="49.29" arrivalSpeed="14.95" duration="94.00" routeLength="1089.75" waitingTime="5.00" waitingCount="1" stopTime="0.00" timeLoss="21.57" rerouteNo="1" devices="tripinfo_h3688c1:1 routing_h3688c1:1 emissions_h3688c1:1" vType="default_016" speedFactor="1.11" vaporized="">
        <emissions CO_abs="4182.030495" CO2_abs="268901.743808" HC_abs="25.377949" PMx_abs="5.018865" NOx_abs="110.948553" fuel_abs="115.589054" electricity_abs="0"/>
    </tripinfo>
    <tripinfo id="h7800c1:5" depart="57696.00" departLane="-447569998#1_1" departPos="5.10" departSpeed="0.00" departDelay="0.00" arrival="57725.00" arrivalLane="-447569998#1_2" arrivalPos="180.76" arrivalSpeed="4.02" duration="29.00" routeLength="175.66" waitingTime="2.00" waitingCount="1" stopTime="0.00" timeLoss="8.10" rerouteNo="1" devices="tripinfo_h7800c1:5 routing_h7800c1:5 emissions_h7800c1:5" vType="default_016" speedFactor="1.02" vaporized="">
        <emissions CO_abs="1441.183399" CO2_abs="59075.582704" HC_abs="7.920116" PMx_abs="0.994876" NOx_abs="24.224297" fuel_abs="25.394556" electricity_abs="0"/>
    </tripinfo>
    <tripinfo id="carIn22761:1" depart="57616.00" departLane="-306240162#1_0" departPos="5.10" departSpeed="0.00" departDelay="2.10" arrival="57726.00" arrivalLane="399835085#1_1" arrivalPos="212.23" arrivalSpeed="6.68" duration="110.00" routeLength="1093.26" waitingTime="10.00" waitingCount="1" stopTime="0.00" timeLoss="26.97" rerouteNo="1" devices="tripinfo_carIn22761:1 routing_carIn22761:1 emissions_carIn22761:1" vType="default_016" speedFactor="0.94" vaporized="">
        <emissions CO_abs="5304.499269" CO2_abs="301071.057885" HC_abs="31.185314" PMx_abs="5.450251" NOx_abs="122.529943" fuel_abs="129.418079" electricity_abs="0"/>
    </tripinfo>
    <tripinfo id="h9563c2:5" depart="57631.00" departLane="315358244_1" departPos="5.10" departSpeed="0.00" departDelay="0.70" arrival="57726.00" arrivalLane="386687235_1" arrivalPos="80.84" arrivalSpeed="13.48" duration="95.00" routeLength="1186.14" waitingTime="0.00" waitingCount="0" stopTime="0.00" timeLoss="8.66" rerouteNo="1" devices="tripinfo_h9563c2:5 routing_h9563c2:5 emissions_h9563c2:5" vType="default_016" speedFactor="1.00" vaporized="">
        <emissions CO_abs="2543.426657" CO2_abs="219219.039041" HC_abs="16.664059" PMx_abs="3.465772" NOx_abs="85.837250" fuel_abs="94.232916" electricity_abs="0"/>
    </tripinfo>
    <tripinfo id="h7181c1:1" depart="57660.00" departLane="315358254#0_1" departPos="5.10" departSpeed="0.00" departDelay="0.10" arrival="57731.00" arrivalLane="306240162#0_0" arrivalPos="220.43" arrivalSpeed="15.07" duration="71.00" routeLength="932.35" waitingTime="5.00" waitingCount="1" stopTime="0.00" timeLoss="17.43" rerouteNo="1" devices="tripinfo_h7181c1:1 routing_h7181c1:1 emissions_h7181c1:1" vType="default_016" speedFactor="0.96" vaporized="">
        <emissions CO_abs="3437.127956" CO2_abs="235083.976392" HC_abs="21.158908" PMx_abs="4.354510" NOx_abs="95.042546" fuel_abs="101.052314" electricity_abs="0"/>
    </tripinfo>
    <tripinfo id="h3568c1:3" depart="57656.00" departLane="266565295#5_1" departPos="5.10" departSpeed="0.00" departDelay="0.80" arrival="57746.00" arrivalLane="-24634415_1" arrivalPos="62.03" arrivalSpeed="13.05" duration="90.00" routeLength="807.40" waitingTime="7.00" waitingCount="1" stopTime="0.00" timeLoss="26.57" rerouteNo="1" devices="tripinfo_h3568c1:3 routing_h3568c1:3 emissions_h3568c1:3" vType="default_016" speedFactor="1.01" vaporized="">
        <emissions CO_abs="4741.988146" CO2_abs="253552.797360" HC_abs="27.532419" PMx_abs="4.691422" NOx_abs="105.293442" fuel_abs="108.991866" electricity_abs="0"/>
    </tripinfo>
    <tripinfo id="carIn80064:1" depart="57603.00" departLane="128361109#1_1" departPos="5.10" departSpeed="0.00" departDelay="0.40" arrival="57748.00" arrivalLane="-315358254#1_1" arrivalPos="137.16" arrivalSpeed="14.75" duration="145.00" routeLength="1587.97" waitingTime="34.00" waitingCount="1" stopTime="0.00" timeLoss="65.62" rerouteNo="1" devices="tripinfo_carIn80064:1 routing_carIn80064:1 emissions_carIn80064:1" vType="default_016" speedFactor="1.12" vaporized="">
        <emissions CO_abs="12390.680091" CO2_abs="592113.199977" HC_abs="70.646914" PMx_abs="12.329699" NOx_abs="249.575398" fuel_abs="254.524565" electricity_abs="0"/>
    </tripinfo>
    <tripinfo id="h317c2:1" depart="57707.00" departLane="-32978638#0_1" departPos="5.10" departSpeed="0.00" departDelay="0.10" arrival="57755.00" arrivalLane="-266565295#5_1" arrivalPos="172.76" arrivalSpeed="13.56" duration="48.00" routeLength="370.53" waitingTime="11.00" waitingCount="1" stopTime="0.00" timeLoss="20.10" rerouteNo="1" devices="tripinfo_h317c2:1 routing_h317c2:1 emissions_h317c2:1" vType="default_016" speedFactor="0.98" vaporized="">
        <emissions CO_abs="2744.373461" CO2_abs="133815.223168" HC_abs="15.649805" PMx_abs="2.512447" NOx_abs="55.745946" fuel_abs="57.521793" electricity_abs="0"/>
    </tripinfo>
    <tripinfo id="carIn30817:1" depart="57681.00" departLane="315358244_1" departPos="5.10" departSpeed="0.00" departDelay="0.20" arrival="57762.00" arrivalLane="447569997#1_1" arrivalPos="180.93" arrivalSpeed="7.06" duration="81.00" routeLength="718.04" waitingTime="6.00" waitingCount="1" stopTime="0.00" timeLoss="16.58" rerouteNo="1" devices="tripinfo_carIn30817:1 routing_carIn30817:1 emissions_carIn30817:1" vType="default_016" speedFactor="0.96" vaporized="">
        <emissions CO_abs="2684.945707" CO2_abs="164676.235363" HC_abs="16.044076" PMx_abs="2.650390" NOx_abs="65.640688" fuel_abs="70.787797" electricity_abs="0"/>
    </tripinfo>
    <tripinfo id="h3154c1:1" depart="57658.00" departLane="24634507_1" departPos="5.10" departSpeed="0.00" departDelay="0.00" arrival="57765.00" arrivalLane="-266565295#5_1" arrivalPos="172.76" arrivalSpeed="14.57" duration="107.00" routeLength="1206.22" waitingTime="11.00" waitingCount="1" stopTime="0.00" timeLoss="28.71" rerouteNo="1" devices="tripinfo_h3154c1:1 routing_h3154c1:1 emissions_h3154c1:1" vType="default_016" speedFactor="1.13" vaporized="">
        <emissions CO_abs="5156.058160" CO2_abs="316810.381894" HC_abs="30.883613" PMx_abs="5.832712" NOx_abs="129.631147" fuel_abs="136.183243" electricity_abs="0"/>
    </tripinfo>
    <tripinfo id="carIn107084:1" depart="57601.00" departLane="124812856#0_1" departPos="5.10" departSpeed="0.00" departDelay="0.70" arrival="57776.00" arrivalLane="-128361102#1_1" arrivalPos="274.68" arrivalSpeed="13.27" duration="175.00" routeLength="2250.49" waitingTime="0.00" waitingCount="0" stopTime="0.00" timeLoss="16.38" rerouteNo="1" devices="tripinfo_carIn107084:1 routing_carIn107084:1 emissions_carIn107084:1" vType="default_016" speedFactor="1.04" vaporized="">
        <emissions CO_abs="4780.563077" CO2_abs="445479.095072" HC_abs="31.985759" PMx_abs="7.038969" NOx_abs="173.721232" fuel_abs="191.492184" electricity_abs="0"/>
    </tripinfo>
    <tripinfo id="h3326c1:2" depart="57656.00" departLane="22716069#0_1" departPos="5.10" departSpeed="0.00" departDelay="0.00" arrival="57782.00" arrivalLane="24634517#13_1" arrivalPos="111.62" arrivalSpeed="13.20" duration="126.00" routeLength="1312.81" waitingTime="8.00" waitingCount="1" stopTime="0.00" timeLoss="27.51" rerouteNo="1" devices="tripinfo_h3326c1:2 routing_h3326c1:2 emissions_h3326c1:2" vType="default_016" speedFactor="0.98" vaporized="">
        <emissions CO_abs="4916.654517" CO2_abs="316334.368652" HC_abs="29.776397" PMx_abs="5.533836" NOx_abs="128.540145" fuel_abs="135.978780" electricity_abs="0"/>
    </tripinfo>
    <tripinfo id="h330c1:1" depart="57736.00" departLane="-32978638#0_1" departPos="5.10" departSpeed="0.00" departDelay="0.20" arrival="57785.00" arrivalLane="-266565295#5_1" arrivalPos="172.76" arrivalSpeed="12.84" duration="49.00" routeLength="370.53" waitingTime="13.00" waitingCount="1" stopTime="0.00" timeLoss="20.91" rerouteNo="1" devices="tripinfo_h330c1:1 routing_h330c1:1 emissions_h330c1:1" vType="default_016" speedFactor="0.97" vaporized="">
        <emissions CO_abs="2825.276838" CO2_abs="126269.019953" HC_abs="15.840785" PMx_abs="2.416895" NOx_abs="52.985146" fuel_abs="54.278106" electricity_abs="0"/>
    </tripinfo>
    <tripinfo id="h645c1:1" depart="57622.00" departLane="266565295#5_1" departPos="5.10" departSpeed="0.00" departDelay="0.40" arrival="57786.00" arrivalLane="-315358244_1" arrivalPos="33.95" arrivalSpeed="13.55" duration="164.00" routeLength="1910.83" waitingTime="9.00" waitingCount="1" stopTime="0.00" timeLoss="24.96" rerouteNo="1" devices="tripinfo_h645c1:1 routing_h645c1:1 emissions_h645c1:1" vType="default_016" speedFactor="1.00" vaporized="">
        <emissions CO_abs="4908.435978" CO2_abs="383285.174824" HC_abs="31.271853" PMx_abs="6.051904" NOx_abs="149.813757" fuel_abs="164.758388" electricity_abs="0"/>
    </tripinfo>
    <tripinfo id="carIn118591:1" depart="57689.00" departLane="315358244_1" departPos="5.10" departSpeed="0.00" departDelay="0.20" arrival="57786.00" arrivalLane="386687235_1" arrivalPos="80.84" arrivalSpeed="14.07" duration="97.00" routeLength="1186.14" waitingTime="1.00" waitingCount="1" stopTime="0.00" timeLoss="16.33" rerouteNo="1" devices="tripinfo_carIn118591:1 routing_carIn118591:1 emissions_carIn118591:1" vType="default_016" speedFactor="1.08" vaporized="">
        <emissions CO_abs="3408.489018" CO2_abs="257221.476579" HC_abs="21.471000" PMx_abs="4.352118" NOx_abs="102.604657" fuel_abs="110.568455" electricity_abs="0"/>
    </tripinfo>
    <tripinfo id="carIn12365:1" depart="57713.00" departLane="315358244_1" departPos="5.10" departSpeed="0.00" departDelay="0.50" arrival="57786.00" arrivalLane="447569997#1_1" arrivalPos="180.93" arrivalSpeed="7.52" duration="73.00" routeLength="718.04" waitingTime="0.00" waitingCount="0" stopTime="0.00" timeLoss="7.77" rerouteNo="1" devices="tripinfo_carIn12365:1 routing_carIn12365:1 emissions_carIn12365:1" vType="default_016" speedFactor="0.95" vaporized="">
        <emissions CO_abs="2408.437023" CO2_abs="149618.663946" HC_abs="14.434490" PMx_abs="2.403876" NOx_abs="59.712610" fuel_abs="64.315112" electricity_abs="0"/>
    </tripinfo>
    <tripinfo id="carIn86816:1" depart="57617.00" departLane="128361102#0_1" departPos="5.10" departSpeed="0.00" departDelay="0.80" arrival="57790.00" arrivalLane="201956811#0_1" arrivalPos="40.40" arrivalSpeed="12.93" duration="173.00" routeLength="2067.33" waitingTime="0.00" waitingCount="0" stopTime="0.00" timeLoss="17.30" rerouteNo="1" devices="tripinfo_carIn86816:1 routing_carIn86816:1 emissions_carIn86816:1" vType="default_016" speedFactor="0.97" vaporized="">
        <emissions CO_abs="4840.683801" CO2_abs="406126.024728" HC_abs="31.511601" PMx_abs="6.468614" NOx_abs="159.902082" fuel_abs="174.576246" electricity_abs="0"/>
    </tripinfo>
    <tripinfo id="carIn27009:1" depart="57673.00" departLane="-447569998#1_1" departPos="5.10" departSpeed="0.00" departDelay="0.50" arrival="57790.00" arrivalLane="-26677539_1" arrivalPos="152.75" arrivalSpeed="8.74" duration="117.00" routeLength="699.63" waitingTime="24.00" waitingCount="1" stopTime="0.00" timeLoss="37.77" rerouteNo="1" devices="tripinfo_carIn27009:1 routing_carIn27009:1 emissions_carIn27009:1" vType="default_015" speedFactor="1.06" vaporized="">
        <emissions CO_abs="6700.502963" CO2_abs="233113.201094" HC_abs="35.910483" PMx_abs="4.281341" NOx_abs="97.575866" fuel_abs="100.207684" electricity_abs="0"/>
    </tripinfo>
    <tripinfo id="carIn77943:1" depart="57608.00" departLane="124812856#0_1" departPos="5.10" departSpeed="0.00" departDelay="2.50" arrival="57796.00" arrivalLane="-128361102#1_1" arrivalPos="274.68" arrivalSpeed="12.92" duration="188.00" routeLength="2250.49" waitingTime="3.00" waitingCount="1" stopTime="0.00" timeLoss="25.46" rerouteNo="1" devices="tripinfo_carIn77943:1 routing_carIn77943:1 emissions_carIn77943:1" vType="default_016" speedFactor="1.01" vaporized="">
        <emissions CO_abs="5911.734588" CO2_abs="476061.079889" HC_abs="38.053488" PMx_abs="7.964098" NOx_abs="189.827938" fuel_abs="204.637963" electricity_abs="0"/>
    </tripinfo>
    <tripinfo id="carIn50326:1" depart="57651.00" departLane="128361102#0_1" departPos="5.10" departSpeed="0.00" departDelay="0.30" arrival="57799.00" arrivalLane="18809673#0_1" arrivalPos="473.56" arrivalSpeed="14.06" duration="148.00" routeLength="1591.07" waitingTime="11.00" waitingCount="1" stopTime="0.00" timeLoss="30.64" rerouteNo="1" devices="tripinfo_carIn50326:1 routing_carIn50326:1 emissions_carIn50326:1" vType="default_016" speedFactor="1.11" vaporized="">
        <emissions CO_abs="5915.003032" CO2_abs="365609.755203" HC_abs="35.494179" PMx_abs="6.456872" NOx_abs="148.387376" fuel_abs="157.160353" electricity_abs="0"/>
    </tripinfo>
    <tripinfo id="carIn48184:1" depart="57613.00" departLane="-306240162#1_0" departPos="5.10" departSpeed="0.00" departDelay="0.70" arrival="57803.00" arrivalLane="386687235_1" arrivalPos="80.84" arrivalSpeed="15.01" duration="190.00" routeLength="2257.41" waitingTime="25.00" waitingCount="2" stopTime="0.00" timeLoss="54.02" rerouteNo="1" devices="tripinfo_carIn48184:1 routing_carIn48184:1 emissions_carIn48184:1" vType="default_016" speedFactor="1.09" vaporized="">
        <emissions CO_abs="9623.252767" CO2_abs="578254.038970" HC_abs="57.461403" PMx_abs="10.920947" NOx_abs="236.378810" fuel_abs="248.566677" electricity_abs="0"/>
    </tripinfo>
    <tripinfo id="carIn462:1" depart="57622.00" departLane="-306240162#1_0" departPos="5.10" departSpeed="0.00" departDelay="4.80" arrival="57803.00" arrivalLane="386687235_2" arrivalPos="80.84" arrivalSpeed="16.05" duration="181.00" routeLength="2257.41" waitingTime="10.00" waitingCount="2" stopTime="0.00" timeLoss="54.79" rerouteNo="1" devices="tripinfo_carIn462:1 routing_carIn462:1 emissions_carIn462:1" vType="default_016" speedFactor="1.18" vaporized="">
        <emissions CO_abs="9322.620010" CO2_abs="606042.104491" HC_abs="56.769914" PMx_abs="11.680431" NOx_abs="250.465148" fuel_abs="260.510435" electricity_abs="0"/>
    </tripinfo>
    <tripinfo id="carIn82220:1" depart="57619.00" departLane="-306240162#1_0" departPos="5.10" departSpeed="0.00" departDelay="3.50" arrival="57805.00" arrivalLane="386687235_1" arrivalPos="80.84" arrivalSpeed="13.61" duration="186.00" routeLength="2257.41" waitingTime="13.00" waitingCount="2" stopTime="0.00" timeLoss="46.48" rerouteNo="1" devices="tripinfo_carIn82220:1 routing_carIn82220:1 emissions_carIn82220:1" vType="default_016" speedFactor="1.06" vaporized="">
        <emissions CO_abs="8260.917379" CO2_abs="561484.518633" HC_abs="50.872154" PMx_abs="10.353907" NOx_abs="228.780318" fuel_abs="241.357550" electricity_abs="0"/>
    </tripinfo>
    <tripinfo id="h16072c2:3" depart="57663.00" departLane="315358254#0_1" departPos="5.10" departSpeed="0.00" departDelay="2.50" arrival="57807.00" arrivalLane="386687235_1" arrivalPos="80.84" arrivalSpeed="14.67" duration="144.00" routeLength="1611.92" waitingTime="10.00" waitingCount="1" stopTime="0.00" timeLoss="36.04" rerouteNo="1" devices="tripinfo_h16072c2:3 routing_h16072c2:3 emissions_h16072c2:3" vType="default_016" speedFactor="1.10" vaporized="">
        <emissions CO_abs="6082.352768" CO2_abs="390817.799962" HC_abs="36.687879" PMx_abs="6.854218" NOx_abs="157.645172" fuel_abs="167.996143" electricity_abs="0"/>
    </tripinfo>
    <tripinfo id="carIn102915:1" depart="57643.00" departLane="128361102#0_1" departPos="5.10" departSpeed="0.00" departDelay="0.40" arrival="57812.00" arrivalLane="201956811#0_1" arrivalPos="40.40" arrivalSpeed="13.72" duration="169.00" routeLength="2067.33" waitingTime="0.00" waitingCount="0" stopTime="0.00" timeLoss="16.15" rerouteNo="1" devices="tripinfo_carIn102915:1 routing_carIn102915:1 emissions_carIn102915:1" vType="default_016" speedFactor="0.99" vaporized="">
        <emissions CO_abs="4945.731329" CO2_abs="424964.111323" HC_abs="32.403009" PMx_abs="6.784767" NOx_abs="167.133081" fuel_abs="182.673832" electricity_abs="0"/>
    </tripinfo>
    <tripinfo id="carIn82278:1" depart="57702.00" departLane="-306240162#1_0" departPos="5.10" departSpeed="0.00" departDelay="0.70" arrival="57812.00" arrivalLane="399835085#1_1" arrivalPos="212.23" arrivalSpeed="7.91" duration="110.00" routeLength="1093.26" waitingTime="16.00" waitingCount="2" stopTime="0.00" timeLoss="36.74" rerouteNo="1" devices="tripinfo_carIn82278:1 routing_carIn82278:1 emissions_carIn82278:1" vType="default_016" speedFactor="1.06" vaporized="">
        <emissions CO_abs="6120.770048" CO2_abs="335396.796531" HC_abs="35.861975" PMx_abs="6.569718" NOx_abs="139.134849" fuel_abs="144.172796" electricity_abs="0"/>
    </tripinfo>
    <tripinfo id="carIn81046:1" depart="57611.00" departLane="124812856#0_1" departPos="5.10" departSpeed="0.00" departDelay="2.50" arrival="57813.00" arrivalLane="-128361102#1_1" arrivalPos="274.68" arrivalSpeed="11.75" duration="202.00" routeLength="2250.49" waitingTime="0.00" waitingCount="0" stopTime="0.00" timeLoss="17.02" rerouteNo="1" devices="tripinfo_carIn81046:1 routing_carIn81046:1 emissions_carIn81046:1" vType="default_016" speedFactor="0.89" vaporized="">
        <emissions CO_abs="4910.016206" CO2_abs="416380.118793" HC_abs="31.968796" PMx_abs="6.096211" NOx_abs="160.990694" fuel_abs="178.984765" electricity_abs="0"/>
    </tripinfo>
    <tripinfo id="carIn77438:1" depart="57614.00" departLane="124812856#0_1" departPos="5.10" departSpeed="0.00" departDelay="1.10" arrival="57815.00" arrivalLane="-128361102#1_1" arrivalPos="274.68" arrivalSpeed="12.04" duration="201.00" routeLength="2250.49" waitingTime="0.00" waitingCount="0" stopTime="0.00" timeLoss="27.48" rerouteNo="1" devices="tripinfo_carIn77438:1 routing_carIn77438:1 emissions_carIn77438:1" vType="default_016" speedFactor="0.95" vaporized="">
        <emissions CO_abs="6076.403271" CO2_abs="475846.267783" HC_abs="38.757526" PMx_abs="7.641815" NOx_abs="188.736931" fuel_abs="204.546153" electricity_abs="0"/>
    </tripinfo>
    <tripinfo id="carIn12858:1" depart="57661.00" departLane="128361109#1_1" departPos="5.10" departSpeed="0.00" departDelay="0.90" arrival="57815.00" arrivalLane="399835085#1_1" arrivalPos="212.23" arrivalSpeed="8.15" duration="154.00" routeLength="1738.12" waitingTime="11.00" waitingCount="1" stopTime="0.00" timeLoss="43.68" rerouteNo="1" devices="tripinfo_carIn12858:1 routing_carIn12858:1 emissions_carIn12858:1" vType="default_016" speedFactor="1.05" vaporized="">
        <emissions CO_abs="9485.262940" CO2_abs="545476.678085" HC_abs="56.227848" PMx_abs="10.618615" NOx_abs="225.838839" fuel_abs="234.476897" electricity_abs="0"/>
    </tripinfo>
    <tripinfo id="h19804c1:3" depart="57617.00" departLane="124812856#0_1" departPos="5.10" departSpeed="0.00" departDelay="1.50" arrival="57816.00" arrivalLane="-128361102#1_1" arrivalPos="274.68" arrivalSpeed="14.56" duration="199.00" routeLength="2250.49" waitingTime="0.00" waitingCount="0" stopTime="0.00" timeLoss="45.13" rerouteNo="1" devices="tripinfo_h19804c1:3 routing_h19804c1:3 emissions_h19804c1:3" vType="default_016" speedFactor="1.07" vaporized="">
        <emissions CO_abs="7255.864037" CO2_abs="532641.527569" HC_abs="45.563422" PMx_abs="9.242632" NOx_abs="216.155855" fuel_abs="228.959319" electricity_abs="0"/>
    </tripinfo>
    <tripinfo id="carIn107842:1" depart="57623.00" departLane="124812856#0_1" departPos="5.10" departSpeed="0.00" departDelay="1.90" arrival="57818.00" arrivalLane="-128361102#1_1" arrivalPos="274.68" arrivalSpeed="14.48" duration="195.00" routeLength="2250.49" waitingTime="0.00" waitingCount="0" stopTime="0.00" timeLoss="43.93" rerouteNo="1" devices="tripinfo_carIn107842:1 routing_carIn107842:1 emissions_carIn107842:1" vType="default_016" speedFactor="1.09" vaporized="">
        <emissions CO_abs="7455.518937" CO2_abs="553168.689461" HC_abs="46.908107" PMx_abs="9.620563" NOx_abs="224.268589" fuel_abs="237.782974" electricity_abs="0"/>
    </tripinfo>
    <tripinfo id="h11737c1:1" depart="57665.00" departLane="272042143_1" departPos="5.10" departSpeed="0.00" departDelay="1.50" arrival="57818.00" arrivalLane="-315358254#1_1" arrivalPos="137.16" arrivalSpeed="11.95" duration="153.00" routeLength="1596.88" waitingTime="12.00" waitingCount="1" stopTime="0.00" timeLoss="26.80" rerouteNo="1" devices="tripinfo_h11737c1:1 routing_h11737c1:1 emissions_h11737c1:1" vType="default_016" speedFactor="0.93" vaporized="">
        <emissions CO_abs="5260.444331" CO2_abs="339692.979726" HC_abs="31.882532" PMx_abs="5.648547" NOx_abs="135.946188" fuel_abs="146.020121" electricity_abs="0"/>
    </tripinfo>
    <tripinfo id="carIn126288:1" depart="57674.00" departLane="272042143_1" departPos="5.10" departSpeed="0.00" departDelay="0.00" arrival="57819.00" arrivalLane="-315358254#1_1" arrivalPos="137.16" arrivalSpeed="13.61" duration="145.00" routeLength="1596.88" waitingTime="11.00" waitingCount="1" stopTime="0.00" timeLoss="31.99" rerouteNo="1" devices="tripinfo_carIn126288:1 routing_carIn126288:1 emissions_carIn126288:1" vType="default_016" speedFactor="1.03" vaporized="">
        <emissions CO_abs="5593.597325" CO2_abs="362287.140005" HC_abs="33.950046" PMx_abs="6.229099" NOx_abs="145.748127" fuel_abs="155.732153" electricity_abs="0"/>
    </tripinfo>
    <tripinfo id="h15382c1:3" depart="57625.00" departLane="124812856#0_1" departPos="5.10" departSpeed="0.00" departDelay="2.80" arrival="57820.00" arrivalLane="-128361102#1_1" arrivalPos="274.68" arrivalSpeed="13.49" duration="195.00" routeLength="2250.49" waitingTime="0.00" waitingCount="0" stopTime="0.00" timeLoss="38.05" rerouteNo="1" devices="tripinfo_h15382c1:3 routing_h15382c1:3 emissions_h15382c1:3" vType="default_016" speedFactor="1.05" vaporized="">
        <emissions CO_abs="7520.775723" CO2_abs="543475.696989" HC_abs="47.039648" PMx_abs="9.589529" NOx_abs="221.277249" fuel_abs="233.616341" electricity_abs="0"/>
    </tripinfo>
    <tripinfo id="carIn56649:1" depart="57632.00" departLane="124812856#0_1" departPos="5.10" departSpeed="0.00" departDelay="8.10" arrival="57822.00" arrivalLane="-128361102#1_1" arrivalPos="274.68" arrivalSpeed="12.31" duration="190.00" routeLength="2250.49" waitingTime="0.00" waitingCount="0" stopTime="0.00" timeLoss="18.09" rerouteNo="1" devices="tripinfo_carIn56649:1 routing_carIn56649:1 emissions_carIn56649:1" vType="default_016" speedFactor="0.96" vaporized="">
        <emissions CO_abs="5245.635770" CO2_abs="442872.974106" HC_abs="34.192291" PMx_abs="6.972407" NOx_abs="173.935983" fuel_abs="190.372277" electricity_abs="0"/>
    </tripinfo>
    <tripinfo id="h5979c1:5" depart="57669.00" departLane="399835085#1_1" departPos="5.10" departSpeed="0.00" departDelay="0.00" arrival="57822.00" arrivalLane="-315358254#1_1" arrivalPos="137.16" arrivalSpeed="12.68" duration="153.00" routeLength="659.33" waitingTime="64.00" waitingCount="2" stopTime="0.00" timeLoss="80.00" rerouteNo="1" devices="tripinfo_h5979c1:5 routing_h5979c1:5 emissions_h5979c1:5" vType="default_016" speedFactor="1.01" vaporized="">
        <emissions CO_abs="13263.733957" CO2_abs="338091.680714" HC_abs="68.265521" PMx_abs="6.920811" NOx_abs="145.525222" fuel_abs="145.336482" electricity_abs="0"/>
    </tripinfo>
    <tripinfo id="carIn81860:1" depart="57712.00" departLane="128361102#0_1" departPos="5.10" departSpeed="0.00" departDelay="0.60" arrival="57822.00" arrivalLane="-24634517#17_1" arrivalPos="6.43" arrivalSpeed="8.45" duration="110.00" routeLength="1229.64" waitingTime="10.00" waitingCount="1" stopTime="0.00" timeLoss="25.91" rerouteNo="1" devices="tripinfo_carIn81860:1 routing_carIn81860:1 emissions_carIn81860:1" vType="default_016" speedFactor="1.08" vaporized="">
        <emissions CO_abs="4225.125879" CO2_abs="279024.470825" HC_abs="25.720921" PMx_abs="4.720845" NOx_abs="111.221358" fuel_abs="119.941093" electricity_abs="0"/>
    </tripinfo>
    <tripinfo id="carIn28951:1" depart="57606.00" departLane="10425609#0_1" departPos="5.10" departSpeed="0.00" departDelay="0.20" arrival="57823.00" arrivalLane="-128361102#1_1" arrivalPos="274.68" arrivalSpeed="14.73" duration="217.00" routeLength="2113.04" waitingTime="38.00" waitingCount="1" stopTime="0.00" timeLoss="78.70" rerouteNo="1" devices="tripinfo_carIn28951:1 routing_carIn28951:1 emissions_carIn28951:1" vType="default_016" speedFactor="1.12" vaporized="">
        <emissions CO_abs="12103.990078" CO2_abs="595944.580820" HC_abs="69.137870" PMx_abs="11.122410" NOx_abs="246.463619" fuel_abs="256.172793" electricity_abs="0"/>
    </tripinfo>
    <tripinfo id="h17600c1:1" depart="57662.00" departLane="272042143_1" departPos="5.10" departSpeed="0.00" departDelay="0.30" arrival="57823.00" arrivalLane="201238729#3_1" arrivalPos="431.02" arrivalSpeed="13.31" duration="161.00" routeLength="2100.26" waitingTime="0.00" waitingCount="0" stopTime="0.00" timeLoss="11.91" rerouteNo="1" devices="tripinfo_h17600c1:1 routing_h17600c1:1 emissions_h17600c1:1" vType="default_016" speedFactor="1.02" vaporized="">
        <emissions CO_abs="3739.680822" CO2_abs="377140.434128" HC_abs="25.775643" PMx_abs="5.747579" NOx_abs="145.358936" fuel_abs="162.116471" electricity_abs="0"/>
    </tripinfo>