<?xml version="1.0" encoding="UTF-8"?>

<!-- generated on 2021-10-26 12:54:25 by Eclipse SUMO sumo Version 1.10.0
<configuration xmlns:xsi="http://www.w3.org/2001/XMLSchema-instance" xsi:noNamespaceSchemaLocation="http://sumo.dlr.de/xsd/sumoConfiguration.xsd">

    <input>
        <net-file value="/Users/behradkoohy/sumo-scratchpad/RESCO/environments/ingolstadt21/ingolstadt21.net.xml"/>
        <route-files value="/Users/behradkoohy/sumo-scratchpad/RESCO/environments/ingolstadt21/ingolstadt21.rou.xml"/>
    </input>

    <output>
        <tripinfo-output value="/Users/behradkoohy/sumo-scratchpad/RESCO/logs/MAXPRESSURE-tr0-ingolstadt21-21-mplight-wait/tripinfo_19.xml"/>
        <tripinfo-output.write-unfinished value="true"/>
    </output>

    <time>
        <begin value="57600"/>
        <end value="61200"/>
    </time>

    <processing>
        <time-to-teleport value="-1"/>
    </processing>

    <report>
        <no-warnings value="true"/>
        <no-step-log value="true"/>
    </report>

    <emissions>
        <device.emissions.probability value="1"/>
    </emissions>

    <traci_server>
        <remote-port value="58617"/>
    </traci_server>

    <random_number>
        <random value="true"/>
    </random_number>

</configuration>
-->

<tripinfos xmlns:xsi="http://www.w3.org/2001/XMLSchema-instance" xsi:noNamespaceSchemaLocation="http://sumo.dlr.de/xsd/tripinfo_file.xsd">
    <tripinfo id="h15454c2:3" depart="57612.00" departLane="24608844_1" departPos="5.10" departSpeed="0.00" departDelay="0.50" arrival="57651.00" arrivalLane="32978638#0_1" arrivalPos="49.29" arrivalSpeed="13.86" duration="39.00" routeLength="354.79" waitingTime="0.00" waitingCount="0" stopTime="0.00" timeLoss="5.95" rerouteNo="1" devices="tripinfo_h15454c2:3 routing_h15454c2:3 emissions_h15454c2:3" vType="default_016" speedFactor="1.04" vaporized="">
        <emissions CO_abs="2117.297802" CO2_abs="122672.135635" HC_abs="12.514447" PMx_abs="2.164365" NOx_abs="50.391094" fuel_abs="52.731679" electricity_abs="0"/>
    </tripinfo>
    <tripinfo id="carIn60260:1" depart="57606.00" departLane="315358254#0_1" departPos="5.10" departSpeed="0.00" departDelay="0.90" arrival="57659.00" arrivalLane="399835085#1_1" arrivalPos="212.23" arrivalSpeed="8.03" duration="53.00" routeLength="430.98" waitingTime="0.00" waitingCount="0" stopTime="0.00" timeLoss="6.28" rerouteNo="1" devices="tripinfo_carIn60260:1 routing_carIn60260:1 emissions_carIn60260:1" vType="default_016" speedFactor="0.98" vaporized="">
        <emissions CO_abs="2257.356320" CO2_abs="116033.193779" HC_abs="12.959265" PMx_abs="1.915392" NOx_abs="47.090653" fuel_abs="49.878263" electricity_abs="0"/>
    </tripinfo>
    <tripinfo id="carIn53971:1" depart="57640.00" departLane="272042143_1" departPos="5.10" departSpeed="0.00" departDelay="0.80" arrival="57694.00" arrivalLane="24634414#1_1" arrivalPos="162.19" arrivalSpeed="7.88" duration="54.00" routeLength="493.04" waitingTime="0.00" waitingCount="0" stopTime="0.00" timeLoss="8.73" rerouteNo="1" devices="tripinfo_carIn53971:1 routing_carIn53971:1 emissions_carIn53971:1" vType="default_016" speedFactor="1.01" vaporized="">
        <emissions CO_abs="2385.370851" CO2_abs="134817.902540" HC_abs="14.005399" PMx_abs="2.342634" NOx_abs="55.178979" fuel_abs="57.952743" electricity_abs="0"/>
    </tripinfo>
    <tripinfo id="S5R_frequency1.2" depart="57615.00" departLane="315358250#0_1" departPos="12.10" departSpeed="0.00" departDelay="3.40" arrival="57707.00" arrivalLane="386687235_1" arrivalPos="80.84" arrivalSpeed="13.35" duration="92.00" routeLength="1115.62" waitingTime="0.00" waitingCount="0" stopTime="0.00" timeLoss="10.40" rerouteNo="1" devices="tripinfo_S5R_frequency1.2 routing_S5R_frequency1.2 emissions_S5R_frequency1.2" vType="bus" speedFactor="1.00" vaporized="">
        <emissions CO_abs="1953.610665" CO2_abs="1244921.972456" HC_abs="417.221469" PMx_abs="210.322954" NOx_abs="9594.994258" fuel_abs="530.959320" electricity_abs="0"/>
    </tripinfo>
    <tripinfo id="h12244c1:3" depart="57612.00" departLane="315358244_1" departPos="5.10" departSpeed="0.00" departDelay="0.40" arrival="57711.00" arrivalLane="386687235_1" arrivalPos="80.84" arrivalSpeed="12.46" duration="99.00" routeLength="1186.14" waitingTime="0.00" waitingCount="0" stopTime="0.00" timeLoss="8.54" rerouteNo="1" devices="tripinfo_h12244c1:3 routing_h12244c1:3 emissions_h12244c1:3" vType="default_016" speedFactor="0.96" vaporized="">
        <emissions CO_abs="2601.783997" CO2_abs="229890.293632" HC_abs="17.172187" PMx_abs="3.445821" NOx_abs="88.869809" fuel_abs="98.820263" electricity_abs="0"/>
    </tripinfo>
    <tripinfo id="h3688c1:1" depart="57625.00" departLane="201201950#1_1" departPos="5.10" departSpeed="0.00" departDelay="0.00" arrival="57721.00" arrivalLane="32978638#0_1" arrivalPos="49.29" arrivalSpeed="14.59" duration="96.00" routeLength="1089.75" waitingTime="5.00" waitingCount="1" stopTime="0.00" timeLoss="21.28" rerouteNo="1" devices="tripinfo_h3688c1:1 routing_h3688c1:1 emissions_h3688c1:1" vType="default_016" speedFactor="1.07" vaporized="">
        <emissions CO_abs="3819.359395" CO2_abs="276734.001448" HC_abs="23.883159" PMx_abs="4.864336" NOx_abs="111.924151" fuel_abs="118.955877" electricity_abs="0"/>
    </tripinfo>
    <tripinfo id="h9563c2:5" depart="57631.00" departLane="315358244_1" departPos="5.10" departSpeed="0.00" departDelay="0.70" arrival="57722.00" arrivalLane="386687235_1" arrivalPos="80.84" arrivalSpeed="13.59" duration="91.00" routeLength="1186.14" waitingTime="0.00" waitingCount="0" stopTime="0.00" timeLoss="8.23" rerouteNo="1" devices="tripinfo_h9563c2:5 routing_h9563c2:5 emissions_h9563c2:5" vType="default_016" speedFactor="1.04" vaporized="">
        <emissions CO_abs="2527.992667" CO2_abs="237097.060604" HC_abs="16.897213" PMx_abs="3.657515" NOx_abs="91.759424" fuel_abs="101.917894" electricity_abs="0"/>
    </tripinfo>
    <tripinfo id="h7800c1:5" depart="57696.00" departLane="-447569998#1_1" departPos="5.10" departSpeed="0.00" departDelay="0.00" arrival="57725.00" arrivalLane="-447569998#1_2" arrivalPos="180.76" arrivalSpeed="4.72" duration="29.00" routeLength="175.66" waitingTime="0.00" waitingCount="0" stopTime="0.00" timeLoss="5.35" rerouteNo="1" devices="tripinfo_h7800c1:5 routing_h7800c1:5 emissions_h7800c1:5" vType="default_016" speedFactor="0.91" vaporized="">
        <emissions CO_abs="1494.643902" CO2_abs="58566.073888" HC_abs="8.151236" PMx_abs="0.998306" NOx_abs="24.152840" fuel_abs="25.175568" electricity_abs="0"/>
    </tripinfo>
    <tripinfo id="carIn22761:1" depart="57616.00" departLane="-306240162#1_0" departPos="5.10" departSpeed="0.00" departDelay="2.10" arrival="57727.00" arrivalLane="399835085#1_1" arrivalPos="212.23" arrivalSpeed="7.71" duration="111.00" routeLength="1093.26" waitingTime="12.00" waitingCount="1" stopTime="0.00" timeLoss="26.95" rerouteNo="1" devices="tripinfo_carIn22761:1 routing_carIn22761:1 emissions_carIn22761:1" vType="default_016" speedFactor="0.93" vaporized="">
        <emissions CO_abs="5706.738163" CO2_abs="302009.650688" HC_abs="33.088122" PMx_abs="5.655125" NOx_abs="124.366456" fuel_abs="129.821565" electricity_abs="0"/>
    </tripinfo>
    <tripinfo id="h7181c1:1" depart="57660.00" departLane="315358254#0_1" departPos="5.10" departSpeed="0.00" departDelay="0.10" arrival="57730.00" arrivalLane="306240162#0_0" arrivalPos="220.43" arrivalSpeed="16.63" duration="70.00" routeLength="932.35" waitingTime="9.00" waitingCount="1" stopTime="0.00" timeLoss="21.61" rerouteNo="1" devices="tripinfo_h7181c1:1 routing_h7181c1:1 emissions_h7181c1:1" vType="default_016" speedFactor="1.06" vaporized="">
        <emissions CO_abs="4335.545757" CO2_abs="271021.721954" HC_abs="26.225373" PMx_abs="5.415609" NOx_abs="111.902530" fuel_abs="116.500129" electricity_abs="0"/>
    </tripinfo>
    <tripinfo id="carIn30817:1" depart="57681.00" departLane="315358244_1" departPos="5.10" departSpeed="0.00" departDelay="0.20" arrival="57743.00" arrivalLane="447569997#1_1" arrivalPos="180.93" arrivalSpeed="8.26" duration="62.00" routeLength="718.04" waitingTime="0.00" waitingCount="0" stopTime="0.00" timeLoss="6.60" rerouteNo="1" devices="tripinfo_carIn30817:1 routing_carIn30817:1 emissions_carIn30817:1" vType="default_016" speedFactor="1.11" vaporized="">
        <emissions CO_abs="1812.271512" CO2_abs="137958.752062" HC_abs="11.425732" PMx_abs="2.164162" NOx_abs="53.922379" fuel_abs="59.302787" electricity_abs="0"/>
    </tripinfo>
    <tripinfo id="h3568c1:3" depart="57656.00" departLane="266565295#5_1" departPos="5.10" departSpeed="0.00" departDelay="0.80" arrival="57745.00" arrivalLane="-24634415_1" arrivalPos="62.03" arrivalSpeed="14.12" duration="89.00" routeLength="807.40" waitingTime="9.00" waitingCount="1" stopTime="0.00" timeLoss="27.06" rerouteNo="1" devices="tripinfo_h3568c1:3 routing_h3568c1:3 emissions_h3568c1:3" vType="default_016" speedFactor="1.04" vaporized="">
        <emissions CO_abs="4924.846770" CO2_abs="260252.494466" HC_abs="28.549375" PMx_abs="4.823029" NOx_abs="107.808018" fuel_abs="111.871864" electricity_abs="0"/>
    </tripinfo>
    <tripinfo id="carIn80064:1" depart="57603.00" departLane="128361109#1_1" departPos="5.10" departSpeed="0.00" departDelay="0.40" arrival="57750.00" arrivalLane="-315358254#1_1" arrivalPos="137.16" arrivalSpeed="13.43" duration="147.00" routeLength="1587.97" waitingTime="31.00" waitingCount="1" stopTime="0.00" timeLoss="58.00" rerouteNo="1" devices="tripinfo_carIn80064:1 routing_carIn80064:1 emissions_carIn80064:1" vType="default_016" speedFactor="1.01" vaporized="">
        <emissions CO_abs="11262.090817" CO2_abs="557021.455954" HC_abs="64.636257" PMx_abs="11.289129" NOx_abs="233.239575" fuel_abs="239.440194" electricity_abs="0"/>
    </tripinfo>
    <tripinfo id="h317c2:1" depart="57707.00" departLane="-32978638#0_1" departPos="5.10" departSpeed="0.00" departDelay="0.10" arrival="57755.00" arrivalLane="-266565295#5_1" arrivalPos="172.76" arrivalSpeed="12.96" duration="48.00" routeLength="370.53" waitingTime="11.00" waitingCount="1" stopTime="0.00" timeLoss="20.14" rerouteNo="1" devices="tripinfo_h317c2:1 routing_h317c2:1 emissions_h317c2:1" vType="default_016" speedFactor="0.99" vaporized="">
        <emissions CO_abs="2448.524008" CO2_abs="124192.835563" HC_abs="14.056914" PMx_abs="2.266278" NOx_abs="51.274067" fuel_abs="53.385533" electricity_abs="0"/>
    </tripinfo>
    <tripinfo id="h5979c1:5" depart="57669.00" departLane="399835085#1_1" departPos="5.10" departSpeed="0.00" departDelay="0.00" arrival="57769.00" arrivalLane="-315358254#1_1" arrivalPos="137.16" arrivalSpeed="12.91" duration="100.00" routeLength="659.33" waitingTime="2.00" waitingCount="1" stopTime="0.00" timeLoss="22.35" rerouteNo="1" devices="tripinfo_h5979c1:5 routing_h5979c1:5 emissions_h5979c1:5" vType="default_016" speedFactor="0.94" vaporized="">
        <emissions CO_abs="4220.781658" CO2_abs="185829.090703" HC_abs="23.516333" PMx_abs="3.204648" NOx_abs="76.541868" fuel_abs="79.881152" electricity_abs="0"/>
    </tripinfo>
    <tripinfo id="h3154c1:1" depart="57658.00" departLane="24634507_1" departPos="5.10" departSpeed="0.00" departDelay="0.00" arrival="57774.00" arrivalLane="-266565295#5_1" arrivalPos="172.76" arrivalSpeed="12.34" duration="116.00" routeLength="1206.22" waitingTime="5.00" waitingCount="1" stopTime="0.00" timeLoss="23.25" rerouteNo="1" devices="tripinfo_h3154c1:1 routing_h3154c1:1 emissions_h3154c1:1" vType="default_016" speedFactor="0.97" vaporized="">
        <emissions CO_abs="3817.337698" CO2_abs="279484.666743" HC_abs="23.898970" PMx_abs="4.541130" NOx_abs="111.058599" fuel_abs="120.138765" electricity_abs="0"/>
    </tripinfo>
    <tripinfo id="h3326c1:2" depart="57656.00" departLane="22716069#0_1" departPos="5.10" departSpeed="0.00" departDelay="0.00" arrival="57775.00" arrivalLane="24634517#13_1" arrivalPos="111.62" arrivalSpeed="13.56" duration="119.00" routeLength="1312.81" waitingTime="2.00" waitingCount="1" stopTime="0.00" timeLoss="19.92" rerouteNo="1" devices="tripinfo_h3326c1:2 routing_h3326c1:2 emissions_h3326c1:2" vType="default_016" speedFactor="0.98" vaporized="">
        <emissions CO_abs="4393.206859" CO2_abs="319371.744038" HC_abs="27.480692" PMx_abs="5.380475" NOx_abs="128.131181" fuel_abs="137.284285" electricity_abs="0"/>
    </tripinfo>
    <tripinfo id="h645c1:1" depart="57622.00" departLane="266565295#5_1" departPos="5.10" departSpeed="0.00" departDelay="0.40" arrival="57776.00" arrivalLane="-315358244_1" arrivalPos="33.95" arrivalSpeed="13.57" duration="154.00" routeLength="1910.83" waitingTime="2.00" waitingCount="1" stopTime="0.00" timeLoss="18.28" rerouteNo="1" devices="tripinfo_h645c1:1 routing_h645c1:1 emissions_h645c1:1" vType="default_016" speedFactor="1.03" vaporized="">
        <emissions CO_abs="4446.621914" CO2_abs="383875.388818" HC_abs="29.223553" PMx_abs="6.218217" NOx_abs="151.024434" fuel_abs="165.011458" electricity_abs="0"/>
    </tripinfo>
    <tripinfo id="carIn12365:1" depart="57713.00" departLane="315358244_1" departPos="5.10" departSpeed="0.00" departDelay="0.50" arrival="57780.00" arrivalLane="447569997#1_1" arrivalPos="180.93" arrivalSpeed="8.51" duration="67.00" routeLength="718.04" waitingTime="0.00" waitingCount="0" stopTime="0.00" timeLoss="7.27" rerouteNo="1" devices="tripinfo_carIn12365:1 routing_carIn12365:1 emissions_carIn12365:1" vType="default_016" speedFactor="1.04" vaporized="">
        <emissions CO_abs="2295.755305" CO2_abs="156880.732711" HC_abs="14.106300" PMx_abs="2.568573" NOx_abs="62.537925" fuel_abs="67.436556" electricity_abs="0"/>
    </tripinfo>
    <tripinfo id="carIn86816:1" depart="57617.00" departLane="128361102#0_1" departPos="5.10" departSpeed="0.00" departDelay="0.80" arrival="57781.00" arrivalLane="201956811#0_1" arrivalPos="40.40" arrivalSpeed="14.30" duration="164.00" routeLength="2067.33" waitingTime="0.00" waitingCount="0" stopTime="0.00" timeLoss="21.62" rerouteNo="1" devices="tripinfo_carIn86816:1 routing_carIn86816:1 emissions_carIn86816:1" vType="default_016" speedFactor="1.06" vaporized="">
        <emissions CO_abs="5280.353313" CO2_abs="458154.364110" HC_abs="34.612468" PMx_abs="7.405528" NOx_abs="179.981221" fuel_abs="196.940774" electricity_abs="0"/>
    </tripinfo>
    <tripinfo id="carIn48184:1" depart="57613.00" departLane="-306240162#1_0" departPos="5.10" departSpeed="0.00" departDelay="0.70" arrival="57783.00" arrivalLane="386687235_1" arrivalPos="80.84" arrivalSpeed="16.83" duration="170.00" routeLength="2257.41" waitingTime="19.00" waitingCount="2" stopTime="0.00" timeLoss="50.28" rerouteNo="1" devices="tripinfo_carIn48184:1 routing_carIn48184:1 emissions_carIn48184:1" vType="default_016" speedFactor="1.25" vaporized="">
        <emissions CO_abs="9864.725317" CO2_abs="623150.884077" HC_abs="59.758806" PMx_abs="12.343124" NOx_abs="256.880831" fuel_abs="267.864761" electricity_abs="0"/>
    </tripinfo>
    <tripinfo id="carIn77943:1" depart="57607.00" departLane="124812856#0_1" departPos="5.10" departSpeed="0.00" departDelay="1.50" arrival="57785.00" arrivalLane="-128361102#1_1" arrivalPos="274.68" arrivalSpeed="15.63" duration="178.00" routeLength="2250.49" waitingTime="0.00" waitingCount="0" stopTime="0.00" timeLoss="33.31" rerouteNo="1" devices="tripinfo_carIn77943:1 routing_carIn77943:1 emissions_carIn77943:1" vType="default_016" speedFactor="1.14" vaporized="">
        <emissions CO_abs="5826.693930" CO2_abs="466795.904442" HC_abs="37.388417" PMx_abs="8.026666" NOx_abs="186.792262" fuel_abs="200.655016" electricity_abs="0"/>
    </tripinfo>
    <tripinfo id="h330c1:1" depart="57736.00" departLane="-32978638#0_1" departPos="5.10" departSpeed="0.00" departDelay="0.20" arrival="57786.00" arrivalLane="-266565295#5_1" arrivalPos="172.76" arrivalSpeed="13.29" duration="50.00" routeLength="370.53" waitingTime="12.00" waitingCount="1" stopTime="0.00" timeLoss="21.64" rerouteNo="1" devices="tripinfo_h330c1:1 routing_h330c1:1 emissions_h330c1:1" vType="default_016" speedFactor="0.98" vaporized="">
        <emissions CO_abs="3340.324187" CO2_abs="136387.858188" HC_abs="18.413927" PMx_abs="2.596305" NOx_abs="57.074158" fuel_abs="58.628074" electricity_abs="0"/>
    </tripinfo>
    <tripinfo id="carIn118591:1" depart="57689.00" departLane="315358244_1" departPos="5.10" departSpeed="0.00" departDelay="0.20" arrival="57797.00" arrivalLane="386687235_1" arrivalPos="80.84" arrivalSpeed="12.56" duration="108.00" routeLength="1186.14" waitingTime="3.00" waitingCount="2" stopTime="0.00" timeLoss="16.61" rerouteNo="1" devices="tripinfo_carIn118591:1 routing_carIn118591:1 emissions_carIn118591:1" vType="default_016" speedFactor="0.95" vaporized="">
        <emissions CO_abs="3547.662807" CO2_abs="252704.975012" HC_abs="22.023433" PMx_abs="4.032919" NOx_abs="99.709401" fuel_abs="108.627512" electricity_abs="0"/>
    </tripinfo>
    <tripinfo id="carIn50326:1" depart="57651.00" departLane="128361102#0_1" departPos="5.10" departSpeed="0.00" departDelay="0.30" arrival="57799.00" arrivalLane="18809673#0_1" arrivalPos="473.56" arrivalSpeed="14.80" duration="148.00" routeLength="1591.07" waitingTime="11.00" waitingCount="1" stopTime="0.00" timeLoss="30.05" rerouteNo="1" devices="tripinfo_carIn50326:1 routing_carIn50326:1 emissions_carIn50326:1" vType="default_016" speedFactor="1.11" vaporized="">
        <emissions CO_abs="5787.065835" CO2_abs="394882.494953" HC_abs="35.410511" PMx_abs="6.665689" NOx_abs="157.650874" fuel_abs="169.743472" electricity_abs="0"/>
    </tripinfo>
    <tripinfo id="carIn102915:1" depart="57643.00" departLane="128361102#0_1" departPos="5.10" departSpeed="0.00" departDelay="0.40" arrival="57800.00" arrivalLane="201956811#0_1" arrivalPos="40.40" arrivalSpeed="14.94" duration="157.00" routeLength="2067.33" waitingTime="0.00" waitingCount="0" stopTime="0.00" timeLoss="18.78" rerouteNo="1" devices="tripinfo_carIn102915:1 routing_carIn102915:1 emissions_carIn102915:1" vType="default_016" speedFactor="1.10" vaporized="">
        <emissions CO_abs="5456.947608" CO2_abs="458673.267013" HC_abs="35.467098" PMx_abs="7.761335" NOx_abs="182.370792" fuel_abs="197.163445" electricity_abs="0"/>
    </tripinfo>
    <tripinfo id="carIn27009:1" depart="57673.00" departLane="-447569998#1_1" departPos="5.10" departSpeed="0.00" departDelay="0.50" arrival="57801.00" arrivalLane="-26677539_1" arrivalPos="152.75" arrivalSpeed="6.21" duration="128.00" routeLength="699.63" waitingTime="20.00" waitingCount="1" stopTime="0.00" timeLoss="34.03" rerouteNo="1" devices="tripinfo_carIn27009:1 routing_carIn27009:1 emissions_carIn27009:1" vType="default_015" speedFactor="0.89" vaporized="">
        <emissions CO_abs="6853.927963" CO2_abs="222690.107573" HC_abs="36.324791" PMx_abs="3.961280" NOx_abs="92.659807" fuel_abs="95.727695" electricity_abs="0"/>
    </tripinfo>
    <tripinfo id="carIn129809:1" depart="57729.00" departLane="-447569998#1_1" departPos="5.10" departSpeed="0.00" departDelay="1.00" arrival="57806.00" arrivalLane="-315358244_1" arrivalPos="33.95" arrivalSpeed="13.66" duration="77.00" routeLength="706.49" waitingTime="7.00" waitingCount="1" stopTime="0.00" timeLoss="19.47" rerouteNo="1" devices="tripinfo_carIn129809:1 routing_carIn129809:1 emissions_carIn129809:1" vType="default_015" speedFactor="1.04" vaporized="">
        <emissions CO_abs="3293.196568" CO2_abs="172365.027434" HC_abs="19.000928" PMx_abs="2.959438" NOx_abs="69.694725" fuel_abs="74.093054" electricity_abs="0"/>
    </tripinfo>
    <tripinfo id="carIn82220:1" depart="57618.00" departLane="-306240162#1_0" departPos="5.10" departSpeed="0.00" departDelay="2.50" arrival="57814.00" arrivalLane="386687235_1" arrivalPos="80.84" arrivalSpeed="13.40" duration="196.00" routeLength="2257.41" waitingTime="20.00" waitingCount="2" stopTime="0.00" timeLoss="48.88" rerouteNo="1" devices="tripinfo_carIn82220:1 routing_carIn82220:1 emissions_carIn82220:1" vType="default_016" speedFactor="1.01" vaporized="">
        <emissions CO_abs="8885.968302" CO2_abs="570535.201865" HC_abs="53.797415" PMx_abs="10.208981" NOx_abs="230.553233" fuel_abs="245.248917" electricity_abs="0"/>
    </tripinfo>
    <tripinfo id="carIn462:1" depart="57622.00" departLane="-306240162#1_0" departPos="5.10" departSpeed="0.00" departDelay="4.80" arrival="57814.00" arrivalLane="386687235_2" arrivalPos="80.84" arrivalSpeed="13.32" duration="192.00" routeLength="2257.41" waitingTime="7.00" waitingCount="3" stopTime="0.00" timeLoss="40.78" rerouteNo="1" devices="tripinfo_carIn462:1 routing_carIn462:1 emissions_carIn462:1" vType="default_016" speedFactor="0.98" vaporized="">
        <emissions CO_abs="7484.980972" CO2_abs="521206.237485" HC_abs="46.358275" PMx_abs="9.105137" NOx_abs="209.398509" fuel_abs="224.044282" electricity_abs="0"/>
    </tripinfo>
    <tripinfo id="randUni10474:1" depart="57605.00" departLane="124812856#0_1" departPos="5.10" departSpeed="0.00" departDelay="0.20" arrival="57817.00" arrivalLane="306240162#0_0" arrivalPos="220.43" arrivalSpeed="18.30" duration="212.00" routeLength="3031.29" waitingTime="7.00" waitingCount="1" stopTime="0.00" timeLoss="40.82" rerouteNo="1" devices="tripinfo_randUni10474:1 routing_randUni10474:1 emissions_randUni10474:1" vType="random_016" speedFactor="1.14" vaporized="">
        <emissions CO_abs="10175.904168" CO2_abs="788892.062204" HC_abs="64.726711" PMx_abs="14.938695" NOx_abs="321.488943" fuel_abs="339.108433" electricity_abs="0"/>
    </tripinfo>
    <tripinfo id="h11737c1:1" depart="57665.00" departLane="272042143_1" departPos="5.10" departSpeed="0.00" departDelay="1.50" arrival="57817.00" arrivalLane="-315358254#1_1" arrivalPos="137.16" arrivalSpeed="13.85" duration="152.00" routeLength="1596.88" waitingTime="20.00" waitingCount="1" stopTime="0.00" timeLoss="37.11" rerouteNo="1" devices="tripinfo_h11737c1:1 routing_h11737c1:1 emissions_h11737c1:1" vType="default_016" speedFactor="1.01" vaporized="">
        <emissions CO_abs="6969.437697" CO2_abs="398233.709423" HC_abs="41.048077" PMx_abs="6.837840" NOx_abs="159.942244" fuel_abs="171.184827" electricity_abs="0"/>
    </tripinfo>
    <tripinfo id="carIn116184:1" depart="57627.00" departLane="-306240162#1_0" departPos="5.10" departSpeed="0.00" departDelay="0.10" arrival="57819.00" arrivalLane="386687235_1" arrivalPos="80.84" arrivalSpeed="12.60" duration="192.00" routeLength="2257.41" waitingTime="9.00" waitingCount="2" stopTime="0.00" timeLoss="40.36" rerouteNo="1" devices="tripinfo_carIn116184:1 routing_carIn116184:1 emissions_carIn116184:1" vType="default_016" speedFactor="0.98" vaporized="">
        <emissions CO_abs="7035.447985" CO2_abs="519373.685544" HC_abs="44.074546" PMx_abs="8.846132" NOx_abs="206.338319" fuel_abs="223.256587" electricity_abs="0"/>
    </tripinfo>
    <tripinfo id="carIn82278:1" depart="57702.00" departLane="-306240162#1_0" departPos="5.10" departSpeed="0.00" departDelay="0.70" arrival="57819.00" arrivalLane="399835085#1_1" arrivalPos="212.23" arrivalSpeed="6.00" duration="117.00" routeLength="1093.26" waitingTime="0.00" waitingCount="0" stopTime="0.00" timeLoss="20.68" rerouteNo="1" devices="tripinfo_carIn82278:1 routing_carIn82278:1 emissions_carIn82278:1" vType="default_016" speedFactor="0.81" vaporized="">
        <emissions CO_abs="5012.946443" CO2_abs="290867.153355" HC_abs="29.526640" PMx_abs="4.899751" NOx_abs="116.891674" fuel_abs="125.032209" electricity_abs="0"/>
    </tripinfo>
    <tripinfo id="carIn12858:1" depart="57661.00" departLane="128361109#1_1" departPos="5.10" departSpeed="0.00" departDelay="0.90" arrival="57822.00" arrivalLane="399835085#1_1" arrivalPos="212.23" arrivalSpeed="8.38" duration="161.00" routeLength="1738.12" waitingTime="20.00" waitingCount="2" stopTime="0.00" timeLoss="53.02" rerouteNo="1" devices="tripinfo_carIn12858:1 routing_carIn12858:1 emissions_carIn12858:1" vType="default_016" speedFactor="1.06" vaporized="">
        <emissions CO_abs="9164.301853" CO2_abs="529618.339521" HC_abs="54.348729" PMx_abs="10.277961" NOx_abs="218.795878" fuel_abs="227.660113" electricity_abs="0"/>
    </tripinfo>
    <tripinfo id="carIn126288:1" depart="57674.00" departLane="272042143_1" departPos="5.10" departSpeed="0.00" departDelay="0.00" arrival="57822.00" arrivalLane="-315358254#1_1" arrivalPos="137.16" arrivalSpeed="11.24" duration="148.00" routeLength="1596.88" waitingTime="0.00" waitingCount="0" stopTime="0.00" timeLoss="13.47" rerouteNo="1" devices="tripinfo_carIn126288:1 routing_carIn126288:1 emissions_carIn126288:1" vType="default_016" speedFactor="0.87" vaporized="">
        <emissions CO_abs="3962.102015" CO2_abs="305988.384876" HC_abs="25.116729" PMx_abs="4.636554" NOx_abs="119.785102" fuel_abs="131.531894" electricity_abs="0"/>
    </tripinfo>
    <tripinfo id="carIn81046:1" depart="57610.00" departLane="124812856#0_1" departPos="5.10" departSpeed="0.00" departDelay="1.50" arrival="57823.00" arrivalLane="-128361102#1_1" arrivalPos="274.68" arrivalSpeed="11.02" duration="213.00" routeLength="2250.49" waitingTime="0.00" waitingCount="0" stopTime="0.00" timeLoss="25.31" rerouteNo="1" devices="tripinfo_carIn81046:1 routing_carIn81046:1 emissions_carIn81046:1" vType="default_016" speedFactor="0.88" vaporized="">
        <emissions CO_abs="6137.420981" CO2_abs="450701.546427" HC_abs="38.397792" PMx_abs="7.052260" NOx_abs="178.154412" fuel_abs="193.738052" electricity_abs="0"/>
    </tripinfo>
    <tripinfo id="h3864c1:3" depart="57678.00" departLane="24693977#1_1" departPos="5.10" departSpeed="0.00" departDelay="0.00" arrival="57823.00" arrivalLane="201956820_2" arrivalPos="48.33" arrivalSpeed="14.99" duration="145.00" routeLength="1574.85" waitingTime="5.00" waitingCount="1" stopTime="0.00" timeLoss="28.23" rerouteNo="1" devices="tripinfo_h3864c1:3 routing_h3864c1:3 emissions_h3864c1:3" vType="default_016" speedFactor="1.11" vaporized="">
        <emissions CO_abs="6171.637332" CO2_abs="426042.770230" HC_abs="38.000478" PMx_abs="7.462411" NOx_abs="172.673521" fuel_abs="183.137425" electricity_abs="0"/>
    </tripinfo>
    <tripinfo id="carIn77438:1" depart="57613.00" departLane="124812856#0_1" departPos="5.10" departSpeed="0.00" departDelay="0.10" arrival="57824.00" arrivalLane="-128361102#1_1" arrivalPos="274.68" arrivalSpeed="13.11" duration="211.00" routeLength="2250.49" waitingTime="0.00" waitingCount="0" stopTime="0.00" timeLoss="59.25" rerouteNo="1" devices="tripinfo_carIn77438:1 routing_carIn77438:1 emissions_carIn77438:1" vType="default_016" speedFactor="1.08" vaporized="">
        <emissions CO_abs="8078.342718" CO2_abs="554656.226511" HC_abs="49.797431" PMx_abs="9.616573" NOx_abs="225.745016" fuel_abs="238.422862" electricity_abs="0"/>
    </tripinfo>
    <tripinfo id="randUni33724:1" depart="57646.00" departLane="128361102#0_1" departPos="5.10" departSpeed="0.00" departDelay="1.20" arrival="57824.00" arrivalLane="201956811#0_1" arrivalPos="40.40" arrivalSpeed="10.45" duration="178.00" routeLength="2067.33" waitingTime="1.00" waitingCount="1" stopTime="0.00" timeLoss="23.56" rerouteNo="1" devices="tripinfo_randUni33724:1 routing_randUni33724:1 emissions_randUni33724:1" vType="random_016" speedFactor="0.98" vaporized="">
        <emissions CO_abs="5695.547578" CO2_abs="441708.963500" HC_abs="36.273311" PMx_abs="7.292488" NOx_abs="175.925664" fuel_abs="189.871773" electricity_abs="0"/>
    </tripinfo>
    <tripinfo id="carIn107282:1" depart="57749.00" departLane="-447569998#1_1" departPos="5.10" departSpeed="0.00" departDelay="0.00" arrival="57824.00" arrivalLane="315358242#0_1" arrivalPos="165.37" arrivalSpeed="15.15" duration="75.00" routeLength="448.50" waitingTime="28.00" waitingCount="1" stopTime="0.00" timeLoss="37.39" rerouteNo="1" devices="tripinfo_carIn107282:1 routing_carIn107282:1 emissions_carIn107282:1" vType="default_016" speedFactor="1.12" vaporized="">
        <emissions CO_abs="6527.245834" CO2_abs="197356.896238" HC_abs="34.338160" PMx_abs="3.951351" NOx_abs="83.738388" fuel_abs="84.837560" electricity_abs="0"/>
    </tripinfo>
    <tripinfo id="carIn100288:1" depart="57664.00" departLane="128361102#0_1" departPos="5.10" departSpeed="0.00" departDelay="0.60" arrival="57825.00" arrivalLane="201956811#0_1" arrivalPos="40.40" arrivalSpeed="10.61" duration="161.00" routeLength="2067.33" waitingTime="0.00" waitingCount="0" stopTime="0.00" timeLoss="21.62" rerouteNo="1" devices="tripinfo_carIn100288:1 routing_carIn100288:1 emissions_carIn100288:1" vType="default_016" speedFactor="1.08" vaporized="">
        <emissions CO_abs="5086.305468" CO2_abs="438782.430165" HC_abs="33.286630" PMx_abs="7.203520" NOx_abs="173.106035" fuel_abs="188.613467" electricity_abs="0"/>
    </tripinfo>
    <tripinfo id="randUni14624:1" depart="57606.00" departLane="315358244_1" departPos="5.10" departSpeed="0.00" departDelay="0.80" arrival="57826.00" arrivalLane="-25149001#4_1" arrivalPos="105.67" arrivalSpeed="8.47" duration="220.00" routeLength="2803.98" waitingTime="10.00" waitingCount="2" stopTime="0.00" timeLoss="36.81" rerouteNo="1" devices="tripinfo_randUni14624:1 routing_randUni14624:1 emissions_randUni14624:1" vType="random_016" speedFactor="1.15" vaporized="">
        <emissions CO_abs="6382.296807" CO2_abs="576577.214198" HC_abs="41.992658" PMx_abs="9.303640" NOx_abs="224.459901" fuel_abs="247.845568" electricity_abs="0"/>
    </tripinfo>
    <tripinfo id="h19804c1:3" depart="57616.00" departLane="124812856#0_1" departPos="5.10" departSpeed="0.00" departDelay="0.50" arrival="57826.00" arrivalLane="-128361102#1_1" arrivalPos="274.68" arrivalSpeed="14.90" duration="210.00" routeLength="2250.49" waitingTime="0.00" waitingCount="0" stopTime="0.00" timeLoss="56.50" rerouteNo="1" devices="tripinfo_h19804c1:3 routing_h19804c1:3 emissions_h19804c1:3" vType="default_016" speedFactor="1.08" vaporized="">
        <emissions CO_abs="8712.146543" CO2_abs="600880.149342" HC_abs="53.813891" PMx_abs="10.602152" NOx_abs="245.644187" fuel_abs="258.292236" electricity_abs="0"/>
    </tripinfo>