<?xml version="1.0" encoding="UTF-8"?>

<!-- generated on 2021-10-26 13:33:52 by Eclipse SUMO sumo Version 1.10.0
<configuration xmlns:xsi="http://www.w3.org/2001/XMLSchema-instance" xsi:noNamespaceSchemaLocation="http://sumo.dlr.de/xsd/sumoConfiguration.xsd">

    <input>
        <net-file value="/Users/behradkoohy/sumo-scratchpad/RESCO/environments/ingolstadt21/ingolstadt21.net.xml"/>
        <route-files value="/Users/behradkoohy/sumo-scratchpad/RESCO/environments/ingolstadt21/ingolstadt21.rou.xml"/>
    </input>

    <output>
        <tripinfo-output value="/Users/behradkoohy/sumo-scratchpad/RESCO/logs/MAXPRESSURE-tr0-ingolstadt21-21-mplight-wait/tripinfo_69.xml"/>
        <tripinfo-output.write-unfinished value="true"/>
    </output>

    <time>
        <begin value="57600"/>
        <end value="61200"/>
    </time>

    <processing>
        <time-to-teleport value="-1"/>
    </processing>

    <report>
        <no-warnings value="true"/>
        <no-step-log value="true"/>
    </report>

    <emissions>
        <device.emissions.probability value="1"/>
    </emissions>

    <traci_server>
        <remote-port value="59175"/>
    </traci_server>

    <random_number>
        <random value="true"/>
    </random_number>

</configuration>
-->

<tripinfos xmlns:xsi="http://www.w3.org/2001/XMLSchema-instance" xsi:noNamespaceSchemaLocation="http://sumo.dlr.de/xsd/tripinfo_file.xsd">
    <tripinfo id="h15454c2:3" depart="57612.00" departLane="24608844_1" departPos="5.10" departSpeed="0.00" departDelay="0.50" arrival="57651.00" arrivalLane="32978638#0_1" arrivalPos="49.29" arrivalSpeed="13.84" duration="39.00" routeLength="354.79" waitingTime="0.00" waitingCount="0" stopTime="0.00" timeLoss="5.41" rerouteNo="1" devices="tripinfo_h15454c2:3 routing_h15454c2:3 emissions_h15454c2:3" vType="default_016" speedFactor="1.02" vaporized="">
        <emissions CO_abs="2012.128293" CO2_abs="113488.664217" HC_abs="11.789996" PMx_abs="2.015778" NOx_abs="46.767509" fuel_abs="48.784097" electricity_abs="0"/>
    </tripinfo>
    <tripinfo id="carIn60260:1" depart="57606.00" departLane="315358254#0_1" departPos="5.10" departSpeed="0.00" departDelay="0.90" arrival="57657.00" arrivalLane="399835085#1_1" arrivalPos="212.23" arrivalSpeed="7.70" duration="51.00" routeLength="430.98" waitingTime="0.00" waitingCount="0" stopTime="0.00" timeLoss="6.09" rerouteNo="1" devices="tripinfo_carIn60260:1 routing_carIn60260:1 emissions_carIn60260:1" vType="default_016" speedFactor="1.04" vaporized="">
        <emissions CO_abs="2028.865390" CO2_abs="108540.662558" HC_abs="11.752233" PMx_abs="1.807855" NOx_abs="44.098960" fuel_abs="46.657419" electricity_abs="0"/>
    </tripinfo>
    <tripinfo id="carIn53971:1" depart="57640.00" departLane="272042143_1" departPos="5.10" departSpeed="0.00" departDelay="0.80" arrival="57697.00" arrivalLane="24634414#1_1" arrivalPos="162.19" arrivalSpeed="7.49" duration="57.00" routeLength="493.04" waitingTime="0.00" waitingCount="0" stopTime="0.00" timeLoss="8.57" rerouteNo="1" devices="tripinfo_carIn53971:1 routing_carIn53971:1 emissions_carIn53971:1" vType="default_016" speedFactor="0.95" vaporized="">
        <emissions CO_abs="2636.350713" CO2_abs="144647.750989" HC_abs="15.340150" PMx_abs="2.357089" NOx_abs="58.288710" fuel_abs="62.178490" electricity_abs="0"/>
    </tripinfo>
    <tripinfo id="h12244c1:3" depart="57612.00" departLane="315358244_1" departPos="5.10" departSpeed="0.00" departDelay="0.40" arrival="57703.00" arrivalLane="386687235_1" arrivalPos="80.84" arrivalSpeed="14.22" duration="91.00" routeLength="1186.14" waitingTime="0.00" waitingCount="0" stopTime="0.00" timeLoss="10.43" rerouteNo="1" devices="tripinfo_h12244c1:3 routing_h12244c1:3 emissions_h12244c1:3" vType="default_016" speedFactor="1.08" vaporized="">
        <emissions CO_abs="2819.532962" CO2_abs="239518.082423" HC_abs="18.142861" PMx_abs="3.927798" NOx_abs="94.227613" fuel_abs="102.958423" electricity_abs="0"/>
    </tripinfo>
    <tripinfo id="S5R_frequency1.2" depart="57615.00" departLane="315358250#0_1" departPos="12.10" departSpeed="0.00" departDelay="3.40" arrival="57707.00" arrivalLane="386687235_1" arrivalPos="80.84" arrivalSpeed="13.40" duration="92.00" routeLength="1115.62" waitingTime="0.00" waitingCount="0" stopTime="0.00" timeLoss="10.33" rerouteNo="1" devices="tripinfo_S5R_frequency1.2 routing_S5R_frequency1.2 emissions_S5R_frequency1.2" vType="bus" speedFactor="1.00" vaporized="">
        <emissions CO_abs="1804.894145" CO2_abs="1155437.404686" HC_abs="380.945127" PMx_abs="194.161742" NOx_abs="8896.470211" fuel_abs="492.791417" electricity_abs="0"/>
    </tripinfo>
    <tripinfo id="h9563c2:5" depart="57631.00" departLane="315358244_1" departPos="5.10" departSpeed="0.00" departDelay="0.70" arrival="57715.00" arrivalLane="386687235_1" arrivalPos="80.84" arrivalSpeed="14.97" duration="84.00" routeLength="1186.14" waitingTime="0.00" waitingCount="0" stopTime="0.00" timeLoss="8.34" rerouteNo="1" devices="tripinfo_h9563c2:5 routing_h9563c2:5 emissions_h9563c2:5" vType="default_016" speedFactor="1.14" vaporized="">
        <emissions CO_abs="2572.477661" CO2_abs="245969.397270" HC_abs="17.202419" PMx_abs="3.984357" NOx_abs="95.620668" fuel_abs="105.731454" electricity_abs="0"/>
    </tripinfo>
    <tripinfo id="h7800c1:5" depart="57696.00" departLane="-447569998#1_1" departPos="5.10" departSpeed="0.00" departDelay="0.00" arrival="57719.00" arrivalLane="-447569998#1_1" arrivalPos="180.76" arrivalSpeed="8.12" duration="23.00" routeLength="175.66" waitingTime="0.00" waitingCount="0" stopTime="0.00" timeLoss="2.95" rerouteNo="1" devices="tripinfo_h7800c1:5 routing_h7800c1:5 emissions_h7800c1:5" vType="default_016" speedFactor="1.09" vaporized="">
        <emissions CO_abs="1052.362676" CO2_abs="50548.285667" HC_abs="5.960500" PMx_abs="0.855021" NOx_abs="20.712151" fuel_abs="21.728809" electricity_abs="0"/>
    </tripinfo>
    <tripinfo id="carIn22761:1" depart="57616.00" departLane="-306240162#1_0" departPos="5.10" departSpeed="0.00" departDelay="2.10" arrival="57722.00" arrivalLane="399835085#1_1" arrivalPos="212.23" arrivalSpeed="7.67" duration="106.00" routeLength="1093.26" waitingTime="13.00" waitingCount="1" stopTime="0.00" timeLoss="30.92" rerouteNo="1" devices="tripinfo_carIn22761:1 routing_carIn22761:1 emissions_carIn22761:1" vType="default_016" speedFactor="1.04" vaporized="">
        <emissions CO_abs="5744.298894" CO2_abs="320615.631310" HC_abs="33.710528" PMx_abs="6.032026" NOx_abs="131.642487" fuel_abs="137.819258" electricity_abs="0"/>
    </tripinfo>
    <tripinfo id="h3568c1:3" depart="57656.00" departLane="266565295#5_1" departPos="5.10" departSpeed="0.00" departDelay="0.80" arrival="57727.00" arrivalLane="-24634415_1" arrivalPos="62.03" arrivalSpeed="14.86" duration="71.00" routeLength="807.40" waitingTime="0.00" waitingCount="0" stopTime="0.00" timeLoss="12.28" rerouteNo="1" devices="tripinfo_h3568c1:3 routing_h3568c1:3 emissions_h3568c1:3" vType="default_016" speedFactor="1.10" vaporized="">
        <emissions CO_abs="3062.406785" CO2_abs="204449.463806" HC_abs="18.742897" PMx_abs="3.621866" NOx_abs="83.217988" fuel_abs="87.884036" electricity_abs="0"/>
    </tripinfo>
    <tripinfo id="h7181c1:1" depart="57660.00" departLane="315358254#0_1" departPos="5.10" departSpeed="0.00" departDelay="0.10" arrival="57730.00" arrivalLane="306240162#0_0" arrivalPos="220.43" arrivalSpeed="16.29" duration="70.00" routeLength="932.35" waitingTime="6.00" waitingCount="1" stopTime="0.00" timeLoss="18.72" rerouteNo="1" devices="tripinfo_h7181c1:1 routing_h7181c1:1 emissions_h7181c1:1" vType="default_016" speedFactor="0.99" vaporized="">
        <emissions CO_abs="3505.927986" CO2_abs="260959.689556" HC_abs="22.155940" PMx_abs="4.863477" NOx_abs="105.112042" fuel_abs="112.174912" electricity_abs="0"/>
    </tripinfo>
    <tripinfo id="h3688c1:1" depart="57625.00" departLane="201201950#1_1" departPos="5.10" departSpeed="0.00" departDelay="0.00" arrival="57746.00" arrivalLane="32978638#0_1" arrivalPos="49.29" arrivalSpeed="10.95" duration="121.00" routeLength="1089.75" waitingTime="8.00" waitingCount="1" stopTime="0.00" timeLoss="23.86" rerouteNo="1" devices="tripinfo_h3688c1:1 routing_h3688c1:1 emissions_h3688c1:1" vType="default_016" speedFactor="0.82" vaporized="">
        <emissions CO_abs="4131.564998" CO2_abs="260156.528424" HC_abs="24.814144" PMx_abs="4.027343" NOx_abs="102.896364" fuel_abs="111.831123" electricity_abs="0"/>
    </tripinfo>
    <tripinfo id="carIn30817:1" depart="57681.00" departLane="315358244_1" departPos="5.10" departSpeed="0.00" departDelay="0.20" arrival="57748.00" arrivalLane="447569997#1_1" arrivalPos="180.93" arrivalSpeed="8.21" duration="67.00" routeLength="718.04" waitingTime="0.00" waitingCount="0" stopTime="0.00" timeLoss="11.08" rerouteNo="1" devices="tripinfo_carIn30817:1 routing_carIn30817:1 emissions_carIn30817:1" vType="default_016" speedFactor="1.11" vaporized="">
        <emissions CO_abs="2344.239862" CO2_abs="157347.460039" HC_abs="14.253547" PMx_abs="2.559104" NOx_abs="62.401943" fuel_abs="67.637251" electricity_abs="0"/>
    </tripinfo>
    <tripinfo id="carIn80064:1" depart="57603.00" departLane="128361109#1_1" departPos="5.10" departSpeed="0.00" departDelay="0.40" arrival="57749.00" arrivalLane="-315358254#1_1" arrivalPos="137.16" arrivalSpeed="12.92" duration="146.00" routeLength="1587.97" waitingTime="25.00" waitingCount="1" stopTime="0.00" timeLoss="53.03" rerouteNo="1" devices="tripinfo_carIn80064:1 routing_carIn80064:1 emissions_carIn80064:1" vType="default_016" speedFactor="0.96" vaporized="">
        <emissions CO_abs="10049.347124" CO2_abs="518853.280897" HC_abs="58.100306" PMx_abs="10.250736" NOx_abs="216.373949" fuel_abs="223.033226" electricity_abs="0"/>
    </tripinfo>
    <tripinfo id="h317c2:1" depart="57707.00" departLane="-32978638#0_1" departPos="5.10" departSpeed="0.00" departDelay="0.10" arrival="57753.00" arrivalLane="-266565295#5_1" arrivalPos="172.76" arrivalSpeed="14.76" duration="46.00" routeLength="370.53" waitingTime="11.00" waitingCount="1" stopTime="0.00" timeLoss="20.99" rerouteNo="1" devices="tripinfo_h317c2:1 routing_h317c2:1 emissions_h317c2:1" vType="default_016" speedFactor="1.09" vaporized="">
        <emissions CO_abs="3534.502845" CO2_abs="152400.497500" HC_abs="19.669459" PMx_abs="3.018728" NOx_abs="64.385267" fuel_abs="65.510972" electricity_abs="0"/>
    </tripinfo>
    <tripinfo id="h5979c1:5" depart="57669.00" departLane="399835085#1_1" departPos="5.10" departSpeed="0.00" departDelay="0.00" arrival="57756.00" arrivalLane="-315358254#1_1" arrivalPos="137.16" arrivalSpeed="14.76" duration="87.00" routeLength="659.33" waitingTime="9.00" waitingCount="1" stopTime="0.00" timeLoss="20.75" rerouteNo="1" devices="tripinfo_h5979c1:5 routing_h5979c1:5 emissions_h5979c1:5" vType="default_016" speedFactor="1.10" vaporized="">
        <emissions CO_abs="4127.523205" CO2_abs="192059.820620" HC_abs="23.206785" PMx_abs="3.285037" NOx_abs="78.370470" fuel_abs="82.559407" electricity_abs="0"/>
    </tripinfo>
    <tripinfo id="h3326c1:2" depart="57656.00" departLane="22716069#0_1" departPos="5.10" departSpeed="0.00" departDelay="0.00" arrival="57759.00" arrivalLane="24634517#13_1" arrivalPos="111.62" arrivalSpeed="14.92" duration="103.00" routeLength="1312.81" waitingTime="0.00" waitingCount="0" stopTime="0.00" timeLoss="15.47" rerouteNo="1" devices="tripinfo_h3326c1:2 routing_h3326c1:2 emissions_h3326c1:2" vType="default_016" speedFactor="1.12" vaporized="">
        <emissions CO_abs="4129.680318" CO2_abs="317901.491847" HC_abs="26.165235" PMx_abs="5.692300" NOx_abs="128.942947" fuel_abs="136.651613" electricity_abs="0"/>
    </tripinfo>
    <tripinfo id="h3154c1:1" depart="57658.00" departLane="24634507_1" departPos="5.10" departSpeed="0.00" departDelay="0.00" arrival="57763.00" arrivalLane="-266565295#5_1" arrivalPos="172.76" arrivalSpeed="16.54" duration="105.00" routeLength="1206.22" waitingTime="13.00" waitingCount="1" stopTime="0.00" timeLoss="29.30" rerouteNo="1" devices="tripinfo_h3154c1:1 routing_h3154c1:1 emissions_h3154c1:1" vType="default_016" speedFactor="1.19" vaporized="">
        <emissions CO_abs="5333.975282" CO2_abs="329148.182959" HC_abs="31.947693" PMx_abs="6.113720" NOx_abs="134.641280" fuel_abs="141.486665" electricity_abs="0"/>
    </tripinfo>
    <tripinfo id="carIn12365:1" depart="57713.00" departLane="315358244_1" departPos="5.10" departSpeed="0.00" departDelay="0.50" arrival="57781.00" arrivalLane="447569997#1_1" arrivalPos="180.93" arrivalSpeed="7.58" duration="68.00" routeLength="718.04" waitingTime="0.00" waitingCount="0" stopTime="0.00" timeLoss="7.31" rerouteNo="1" devices="tripinfo_carIn12365:1 routing_carIn12365:1 emissions_carIn12365:1" vType="default_016" speedFactor="1.02" vaporized="">
        <emissions CO_abs="2252.019269" CO2_abs="156312.416388" HC_abs="13.851492" PMx_abs="2.434175" NOx_abs="61.480856" fuel_abs="67.192420" electricity_abs="0"/>
    </tripinfo>
    <tripinfo id="h645c1:1" depart="57622.00" departLane="266565295#5_1" departPos="5.10" departSpeed="0.00" departDelay="0.40" arrival="57783.00" arrivalLane="-315358244_1" arrivalPos="33.95" arrivalSpeed="12.67" duration="161.00" routeLength="1910.83" waitingTime="0.00" waitingCount="0" stopTime="0.00" timeLoss="11.87" rerouteNo="1" devices="tripinfo_h645c1:1 routing_h645c1:1 emissions_h645c1:1" vType="default_016" speedFactor="0.93" vaporized="">
        <emissions CO_abs="3503.286700" CO2_abs="337762.017338" HC_abs="23.728352" PMx_abs="4.796281" NOx_abs="128.804207" fuel_abs="145.189962" electricity_abs="0"/>
    </tripinfo>
    <tripinfo id="h330c1:1" depart="57736.00" departLane="-32978638#0_1" departPos="5.10" departSpeed="0.00" departDelay="0.20" arrival="57783.00" arrivalLane="-266565295#5_1" arrivalPos="172.76" arrivalSpeed="14.84" duration="47.00" routeLength="370.53" waitingTime="12.00" waitingCount="1" stopTime="0.00" timeLoss="21.97" rerouteNo="1" devices="tripinfo_h330c1:1 routing_h330c1:1 emissions_h330c1:1" vType="default_016" speedFactor="1.11" vaporized="">
        <emissions CO_abs="3246.840473" CO2_abs="148606.011484" HC_abs="18.297680" PMx_abs="2.966950" NOx_abs="62.909451" fuel_abs="63.879671" electricity_abs="0"/>
    </tripinfo>
    <tripinfo id="carIn107084:1" depart="57601.00" departLane="124812856#0_1" departPos="5.10" departSpeed="0.00" departDelay="0.70" arrival="57786.00" arrivalLane="-128361102#1_1" arrivalPos="274.68" arrivalSpeed="12.74" duration="185.00" routeLength="2250.49" waitingTime="0.00" waitingCount="0" stopTime="0.00" timeLoss="16.81" rerouteNo="1" devices="tripinfo_carIn107084:1 routing_carIn107084:1 emissions_carIn107084:1" vType="default_016" speedFactor="0.98" vaporized="">
        <emissions CO_abs="4965.981884" CO2_abs="432032.593516" HC_abs="32.656033" PMx_abs="6.861071" NOx_abs="169.716996" fuel_abs="185.712268" electricity_abs="0"/>
    </tripinfo>
    <tripinfo id="carIn27009:1" depart="57673.00" departLane="-447569998#1_1" departPos="5.10" departSpeed="0.00" departDelay="0.50" arrival="57787.00" arrivalLane="-26677539_1" arrivalPos="152.75" arrivalSpeed="7.46" duration="114.00" routeLength="699.63" waitingTime="11.00" waitingCount="1" stopTime="0.00" timeLoss="25.37" rerouteNo="1" devices="tripinfo_carIn27009:1 routing_carIn27009:1 emissions_carIn27009:1" vType="default_015" speedFactor="0.95" vaporized="">
        <emissions CO_abs="5099.406929" CO2_abs="204476.167085" HC_abs="27.906562" PMx_abs="3.396850" NOx_abs="83.578028" fuel_abs="87.897417" electricity_abs="0"/>
    </tripinfo>
    <tripinfo id="carIn86816:1" depart="57617.00" departLane="128361102#0_1" departPos="5.10" departSpeed="0.00" departDelay="0.80" arrival="57790.00" arrivalLane="201956811#0_1" arrivalPos="40.40" arrivalSpeed="13.41" duration="173.00" routeLength="2067.33" waitingTime="0.00" waitingCount="0" stopTime="0.00" timeLoss="23.51" rerouteNo="1" devices="tripinfo_carIn86816:1 routing_carIn86816:1 emissions_carIn86816:1" vType="default_016" speedFactor="1.01" vaporized="">
        <emissions CO_abs="5328.713401" CO2_abs="428264.719473" HC_abs="34.155926" PMx_abs="6.960219" NOx_abs="169.261545" fuel_abs="184.092709" electricity_abs="0"/>
    </tripinfo>
    <tripinfo id="carIn118591:1" depart="57689.00" departLane="315358244_1" departPos="5.10" departSpeed="0.00" departDelay="0.20" arrival="57798.00" arrivalLane="386687235_1" arrivalPos="80.84" arrivalSpeed="11.08" duration="109.00" routeLength="1186.14" waitingTime="0.00" waitingCount="0" stopTime="0.00" timeLoss="9.78" rerouteNo="1" devices="tripinfo_carIn118591:1 routing_carIn118591:1 emissions_carIn118591:1" vType="default_016" speedFactor="0.87" vaporized="">
        <emissions CO_abs="2839.273743" CO2_abs="211800.638623" HC_abs="17.838810" PMx_abs="3.294833" NOx_abs="83.516788" fuel_abs="91.044380" electricity_abs="0"/>
    </tripinfo>
    <tripinfo id="carIn77943:1" depart="57608.00" departLane="124812856#0_1" departPos="5.10" departSpeed="0.00" departDelay="2.50" arrival="57802.00" arrivalLane="-128361102#1_1" arrivalPos="274.68" arrivalSpeed="12.85" duration="194.00" routeLength="2250.49" waitingTime="0.00" waitingCount="0" stopTime="0.00" timeLoss="16.51" rerouteNo="1" devices="tripinfo_carIn77943:1 routing_carIn77943:1 emissions_carIn77943:1" vType="default_016" speedFactor="0.93" vaporized="">
        <emissions CO_abs="5162.475769" CO2_abs="444858.216794" HC_abs="33.823125" PMx_abs="6.732110" NOx_abs="173.004409" fuel_abs="191.225970" electricity_abs="0"/>
    </tripinfo>
    <tripinfo id="carIn81046:1" depart="57611.00" departLane="124812856#0_1" departPos="5.10" departSpeed="0.00" departDelay="2.50" arrival="57803.00" arrivalLane="-128361102#1_1" arrivalPos="274.68" arrivalSpeed="13.74" duration="192.00" routeLength="2250.49" waitingTime="0.00" waitingCount="0" stopTime="0.00" timeLoss="47.24" rerouteNo="1" devices="tripinfo_carIn81046:1 routing_carIn81046:1 emissions_carIn81046:1" vType="default_016" speedFactor="1.13" vaporized="">
        <emissions CO_abs="6724.865146" CO2_abs="525063.060735" HC_abs="42.941814" PMx_abs="8.817180" NOx_abs="210.354455" fuel_abs="225.701838" electricity_abs="0"/>
    </tripinfo>
    <tripinfo id="h17600c1:1" depart="57662.00" departLane="272042143_1" departPos="5.10" departSpeed="0.00" departDelay="0.30" arrival="57804.00" arrivalLane="201238729#3_1" arrivalPos="431.02" arrivalSpeed="15.76" duration="142.00" routeLength="2100.26" waitingTime="0.00" waitingCount="0" stopTime="0.00" timeLoss="10.42" rerouteNo="1" devices="tripinfo_h17600c1:1 routing_h17600c1:1 emissions_h17600c1:1" vType="default_016" speedFactor="1.16" vaporized="">
        <emissions CO_abs="3277.974580" CO2_abs="343543.820175" HC_abs="22.652865" PMx_abs="5.543426" NOx_abs="132.787929" fuel_abs="147.674255" electricity_abs="0"/>
    </tripinfo>
    <tripinfo id="carIn77438:1" depart="57614.00" departLane="124812856#0_1" departPos="5.10" departSpeed="0.00" departDelay="1.10" arrival="57805.00" arrivalLane="-128361102#1_1" arrivalPos="274.68" arrivalSpeed="14.45" duration="191.00" routeLength="2232.46" waitingTime="4.00" waitingCount="1" stopTime="0.00" timeLoss="50.62" rerouteNo="1" devices="tripinfo_carIn77438:1 routing_carIn77438:1 emissions_carIn77438:1" vType="default_016" speedFactor="1.16" vaporized="">
        <emissions CO_abs="7998.580178" CO2_abs="582397.706513" HC_abs="50.125796" PMx_abs="10.540182" NOx_abs="238.320395" fuel_abs="250.346790" electricity_abs="0"/>
    </tripinfo>
    <tripinfo id="h11737c1:1" depart="57665.00" departLane="272042143_1" departPos="5.10" departSpeed="0.00" departDelay="1.50" arrival="57806.00" arrivalLane="-315358254#1_1" arrivalPos="137.16" arrivalSpeed="13.39" duration="141.00" routeLength="1596.88" waitingTime="11.00" waitingCount="1" stopTime="0.00" timeLoss="26.73" rerouteNo="1" devices="tripinfo_h11737c1:1 routing_h11737c1:1 emissions_h11737c1:1" vType="default_016" speedFactor="1.02" vaporized="">
        <emissions CO_abs="4788.588156" CO2_abs="350073.619758" HC_abs="29.921832" PMx_abs="5.616303" NOx_abs="137.598586" fuel_abs="150.482218" electricity_abs="0"/>
    </tripinfo>
    <tripinfo id="h19804c1:3" depart="57617.00" departLane="124812856#0_1" departPos="5.10" departSpeed="0.00" departDelay="1.50" arrival="57808.00" arrivalLane="-128361102#1_1" arrivalPos="274.68" arrivalSpeed="12.61" duration="191.00" routeLength="2250.49" waitingTime="0.00" waitingCount="0" stopTime="0.00" timeLoss="17.28" rerouteNo="1" devices="tripinfo_h19804c1:3 routing_h19804c1:3 emissions_h19804c1:3" vType="default_016" speedFactor="0.95" vaporized="">
        <emissions CO_abs="5036.436201" CO2_abs="433986.211885" HC_abs="33.023283" PMx_abs="6.695622" NOx_abs="169.486357" fuel_abs="186.552366" electricity_abs="0"/>
    </tripinfo>
    <tripinfo id="carIn126288:1" depart="57674.00" departLane="272042143_1" departPos="5.10" departSpeed="0.00" departDelay="0.00" arrival="57809.00" arrivalLane="-315358254#1_1" arrivalPos="137.16" arrivalSpeed="13.64" duration="135.00" routeLength="1596.88" waitingTime="0.00" waitingCount="0" stopTime="0.00" timeLoss="16.56" rerouteNo="1" devices="tripinfo_carIn126288:1 routing_carIn126288:1 emissions_carIn126288:1" vType="default_016" speedFactor="0.98" vaporized="">
        <emissions CO_abs="3966.002678" CO2_abs="328850.135810" HC_abs="25.725274" PMx_abs="5.216854" NOx_abs="129.189868" fuel_abs="141.358727" electricity_abs="0"/>
    </tripinfo>
    <tripinfo id="carIn102915:1" depart="57643.00" departLane="128361102#0_1" departPos="5.10" departSpeed="0.00" departDelay="0.40" arrival="57812.00" arrivalLane="201956811#0_1" arrivalPos="40.40" arrivalSpeed="13.78" duration="169.00" routeLength="2067.33" waitingTime="0.00" waitingCount="0" stopTime="0.00" timeLoss="20.22" rerouteNo="1" devices="tripinfo_carIn102915:1 routing_carIn102915:1 emissions_carIn102915:1" vType="default_016" speedFactor="1.01" vaporized="">
        <emissions CO_abs="5007.280705" CO2_abs="407054.409370" HC_abs="32.301716" PMx_abs="6.686147" NOx_abs="161.461447" fuel_abs="174.975149" electricity_abs="0"/>
    </tripinfo>
    <tripinfo id="carIn82278:1" depart="57702.00" departLane="-306240162#1_0" departPos="5.10" departSpeed="0.00" departDelay="0.70" arrival="57812.00" arrivalLane="399835085#1_1" arrivalPos="212.23" arrivalSpeed="7.49" duration="110.00" routeLength="1093.26" waitingTime="9.00" waitingCount="2" stopTime="0.00" timeLoss="35.44" rerouteNo="1" devices="tripinfo_carIn82278:1 routing_carIn82278:1 emissions_carIn82278:1" vType="default_016" speedFactor="1.05" vaporized="">
        <emissions CO_abs="5810.583626" CO2_abs="341848.606821" HC_abs="34.477244" PMx_abs="6.405833" NOx_abs="140.339334" fuel_abs="146.946175" electricity_abs="0"/>
    </tripinfo>
    <tripinfo id="carIn12858:1" depart="57661.00" departLane="128361109#1_1" departPos="5.10" departSpeed="0.00" departDelay="0.90" arrival="57814.00" arrivalLane="399835085#1_1" arrivalPos="212.23" arrivalSpeed="8.65" duration="153.00" routeLength="1738.12" waitingTime="8.00" waitingCount="2" stopTime="0.00" timeLoss="44.57" rerouteNo="1" devices="tripinfo_carIn12858:1 routing_carIn12858:1 emissions_carIn12858:1" vType="default_016" speedFactor="1.06" vaporized="">
        <emissions CO_abs="8754.104338" CO2_abs="524120.945159" HC_abs="52.398908" PMx_abs="10.244139" NOx_abs="217.464123" fuel_abs="225.296596" electricity_abs="0"/>
    </tripinfo>
    <tripinfo id="randUni33724:1" depart="57646.00" departLane="128361102#0_1" departPos="5.10" departSpeed="0.00" departDelay="1.20" arrival="57818.00" arrivalLane="201956811#0_1" arrivalPos="40.40" arrivalSpeed="12.42" duration="172.00" routeLength="2067.33" waitingTime="0.00" waitingCount="0" stopTime="0.00" timeLoss="17.85" rerouteNo="1" devices="tripinfo_randUni33724:1 routing_randUni33724:1 emissions_randUni33724:1" vType="random_016" speedFactor="0.98" vaporized="">
        <emissions CO_abs="4820.128595" CO2_abs="408289.997405" HC_abs="31.452636" PMx_abs="6.474962" NOx_abs="160.430707" fuel_abs="175.506461" electricity_abs="0"/>
    </tripinfo>
    <tripinfo id="carIn82220:1" depart="57619.00" departLane="-306240162#1_0" departPos="5.10" departSpeed="0.00" departDelay="3.50" arrival="57823.00" arrivalLane="386687235_1" arrivalPos="80.84" arrivalSpeed="14.43" duration="204.00" routeLength="2257.41" waitingTime="19.00" waitingCount="2" stopTime="0.00" timeLoss="62.76" rerouteNo="1" devices="tripinfo_carIn82220:1 routing_carIn82220:1 emissions_carIn82220:1" vType="default_016" speedFactor="1.05" vaporized="">
        <emissions CO_abs="8538.926528" CO2_abs="567316.277481" HC_abs="52.215752" PMx_abs="10.108055" NOx_abs="229.194672" fuel_abs="243.865041" electricity_abs="0"/>
    </tripinfo>
    <tripinfo id="carIn462:1" depart="57622.00" departLane="-306240162#1_0" departPos="5.10" departSpeed="0.00" departDelay="4.80" arrival="57823.00" arrivalLane="386687235_2" arrivalPos="80.84" arrivalSpeed="14.56" duration="201.00" routeLength="2257.41" waitingTime="17.00" waitingCount="2" stopTime="0.00" timeLoss="60.73" rerouteNo="1" devices="tripinfo_carIn462:1 routing_carIn462:1 emissions_carIn462:1" vType="default_016" speedFactor="1.06" vaporized="">
        <emissions CO_abs="9201.364747" CO2_abs="606276.745788" HC_abs="56.225175" PMx_abs="11.211489" NOx_abs="247.659528" fuel_abs="260.611915" electricity_abs="0"/>
    </tripinfo>
    <tripinfo id="carIn129809:1" depart="57729.00" departLane="-447569998#1_1" departPos="5.10" departSpeed="0.00" departDelay="1.00" arrival="57823.00" arrivalLane="-315358244_1" arrivalPos="33.95" arrivalSpeed="11.47" duration="94.00" routeLength="706.49" waitingTime="13.00" waitingCount="2" stopTime="0.00" timeLoss="26.85" rerouteNo="1" devices="tripinfo_carIn129809:1 routing_carIn129809:1 emissions_carIn129809:1" vType="default_015" speedFactor="0.90" vaporized="">
        <emissions CO_abs="3401.242117" CO2_abs="178923.203532" HC_abs="19.636450" PMx_abs="2.991409" NOx_abs="72.462354" fuel_abs="76.912205" electricity_abs="0"/>
    </tripinfo>
    <tripinfo id="carIn81860:1" depart="57712.00" departLane="128361102#0_1" departPos="5.10" departSpeed="0.00" departDelay="0.60" arrival="57824.00" arrivalLane="-24634517#17_1" arrivalPos="6.43" arrivalSpeed="8.96" duration="112.00" routeLength="1229.64" waitingTime="11.00" waitingCount="1" stopTime="0.00" timeLoss="30.69" rerouteNo="1" devices="tripinfo_carIn81860:1 routing_carIn81860:1 emissions_carIn81860:1" vType="default_016" speedFactor="1.11" vaporized="">
        <emissions CO_abs="5085.584289" CO2_abs="311266.432033" HC_abs="30.268525" PMx_abs="5.444442" NOx_abs="125.297542" fuel_abs="133.800592" electricity_abs="0"/>
    </tripinfo>
    <tripinfo id="carIn48184:1" depart="57613.00" departLane="-306240162#1_0" departPos="5.10" departSpeed="0.00" departDelay="0.70" arrival="57826.00" arrivalLane="386687235_1" arrivalPos="80.84" arrivalSpeed="11.74" duration="213.00" routeLength="2257.41" waitingTime="16.00" waitingCount="2" stopTime="0.00" timeLoss="42.45" rerouteNo="1" devices="tripinfo_carIn48184:1 routing_carIn48184:1 emissions_carIn48184:1" vType="default_016" speedFactor="0.87" vaporized="">
        <emissions CO_abs="7697.475724" CO2_abs="497669.084879" HC_abs="46.632415" PMx_abs="8.483569" NOx_abs="199.903769" fuel_abs="213.927310" electricity_abs="0"/>
    </tripinfo>
    <tripinfo id="carIn107842:1" depart="57623.00" departLane="124812856#0_1" departPos="5.10" departSpeed="0.00" departDelay="1.90" arrival="57826.00" arrivalLane="-128361102#1_1" arrivalPos="274.68" arrivalSpeed="12.22" duration="203.00" routeLength="2250.49" waitingTime="0.00" waitingCount="0" stopTime="0.00" timeLoss="29.53" rerouteNo="1" devices="tripinfo_carIn107842:1 routing_carIn107842:1 emissions_carIn107842:1" vType="default_016" speedFactor="0.95" vaporized="">
        <emissions CO_abs="6370.485438" CO2_abs="489882.326347" HC_abs="40.423098" PMx_abs="7.865073" NOx_abs="194.417731" fuel_abs="210.579749" electricity_abs="0"/>
    </tripinfo>
    <tripinfo id="h15382c1:3" depart="57626.00" departLane="124812856#0_1" departPos="5.10" departSpeed="0.00" departDelay="3.80" arrival="57828.00" arrivalLane="-128361102#1_1" arrivalPos="274.68" arrivalSpeed="11.94" duration="202.00" routeLength="2250.49" waitingTime="0.00" waitingCount="0" stopTime="0.00" timeLoss="26.91" rerouteNo="1" devices="tripinfo_h15382c1:3 routing_h15382c1:3 emissions_h15382c1:3" vType="default_016" speedFactor="0.94" vaporized="">
        <emissions CO_abs="6473.143359" CO2_abs="493366.460766" HC_abs="40.979437" PMx_abs="7.967820" NOx_abs="196.074876" fuel_abs="212.077412" electricity_abs="0"/>
    </tripinfo>
    <tripinfo id="carIn116184:1" depart="57627.00" departLane="-306240162#1_0" departPos="5.10" departSpeed="0.00" departDelay="0.10" arrival="57828.00" arrivalLane="386687235_1" arrivalPos="80.84" arrivalSpeed="13.97" duration="201.00" routeLength="2257.41" waitingTime="16.00" waitingCount="2" stopTime="0.00" timeLoss="60.39" rerouteNo="1" devices="tripinfo_carIn116184:1 routing_carIn116184:1 emissions_carIn116184:1" vType="default_016" speedFactor="1.06" vaporized="">
        <emissions CO_abs="9037.626345" CO2_abs="603228.585719" HC_abs="55.374191" PMx_abs="11.088815" NOx_abs="245.294750" fuel_abs="259.301710" electricity_abs="0"/>
    </tripinfo>
    <tripinfo id="carIn50326:1" depart="57651.00" departLane="128361102#0_1" departPos="5.10" departSpeed="0.00" departDelay="0.30" arrival="57829.00" arrivalLane="18809673#0_1" arrivalPos="473.56" arrivalSpeed="11.67" duration="178.00" routeLength="1591.07" waitingTime="4.00" waitingCount="1" stopTime="0.00" timeLoss="24.85" rerouteNo="1" devices="tripinfo_carIn50326:1 routing_carIn50326:1 emissions_carIn50326:1" vType="default_016" speedFactor="0.85" vaporized="">
        <emissions CO_abs="5840.474404" CO2_abs="351900.337992" HC_abs="34.713608" PMx_abs="5.513522" NOx_abs="139.829522" fuel_abs="151.268293" electricity_abs="0"/>
    </tripinfo>