<?xml version="1.0" encoding="UTF-8"?>

<!-- generated on 2021-10-26 13:04:58 by Eclipse SUMO sumo Version 1.10.0
<configuration xmlns:xsi="http://www.w3.org/2001/XMLSchema-instance" xsi:noNamespaceSchemaLocation="http://sumo.dlr.de/xsd/sumoConfiguration.xsd">

    <input>
        <net-file value="/Users/behradkoohy/sumo-scratchpad/RESCO/environments/ingolstadt21/ingolstadt21.net.xml"/>
        <route-files value="/Users/behradkoohy/sumo-scratchpad/RESCO/environments/ingolstadt21/ingolstadt21.rou.xml"/>
    </input>

    <output>
        <tripinfo-output value="/Users/behradkoohy/sumo-scratchpad/RESCO/logs/MAXPRESSURE-tr0-ingolstadt21-21-mplight-wait/tripinfo_33.xml"/>
        <tripinfo-output.write-unfinished value="true"/>
    </output>

    <time>
        <begin value="57600"/>
        <end value="61200"/>
    </time>

    <processing>
        <time-to-teleport value="-1"/>
    </processing>

    <report>
        <no-warnings value="true"/>
        <no-step-log value="true"/>
    </report>

    <emissions>
        <device.emissions.probability value="1"/>
    </emissions>

    <traci_server>
        <remote-port value="58690"/>
    </traci_server>

    <random_number>
        <random value="true"/>
    </random_number>

</configuration>
-->

<tripinfos xmlns:xsi="http://www.w3.org/2001/XMLSchema-instance" xsi:noNamespaceSchemaLocation="http://sumo.dlr.de/xsd/tripinfo_file.xsd">
    <tripinfo id="carIn60260:1" depart="57606.00" departLane="315358254#0_1" departPos="5.10" departSpeed="0.00" departDelay="0.90" arrival="57656.00" arrivalLane="399835085#1_1" arrivalPos="212.23" arrivalSpeed="8.05" duration="50.00" routeLength="430.98" waitingTime="0.00" waitingCount="0" stopTime="0.00" timeLoss="7.71" rerouteNo="1" devices="tripinfo_carIn60260:1 routing_carIn60260:1 emissions_carIn60260:1" vType="default_016" speedFactor="1.09" vaporized="">
        <emissions CO_abs="2129.145442" CO2_abs="118045.471845" HC_abs="12.419038" PMx_abs="1.889777" NOx_abs="47.306897" fuel_abs="50.743234" electricity_abs="0"/>
    </tripinfo>
    <tripinfo id="h15454c2:3" depart="57612.00" departLane="24608844_1" departPos="5.10" departSpeed="0.00" departDelay="0.50" arrival="57656.00" arrivalLane="32978638#0_1" arrivalPos="49.29" arrivalSpeed="12.11" duration="44.00" routeLength="354.79" waitingTime="0.00" waitingCount="0" stopTime="0.00" timeLoss="7.20" rerouteNo="1" devices="tripinfo_h15454c2:3 routing_h15454c2:3 emissions_h15454c2:3" vType="default_016" speedFactor="0.93" vaporized="">
        <emissions CO_abs="2209.308972" CO2_abs="113589.513686" HC_abs="12.695006" PMx_abs="1.927151" NOx_abs="46.375503" fuel_abs="48.827744" electricity_abs="0"/>
    </tripinfo>
    <tripinfo id="carIn53971:1" depart="57640.00" departLane="272042143_1" departPos="5.10" departSpeed="0.00" departDelay="0.80" arrival="57694.00" arrivalLane="24634414#1_1" arrivalPos="162.19" arrivalSpeed="8.21" duration="54.00" routeLength="493.04" waitingTime="0.00" waitingCount="0" stopTime="0.00" timeLoss="7.98" rerouteNo="1" devices="tripinfo_carIn53971:1 routing_carIn53971:1 emissions_carIn53971:1" vType="default_016" speedFactor="1.00" vaporized="">
        <emissions CO_abs="2438.895497" CO2_abs="136280.850381" HC_abs="14.276840" PMx_abs="2.314802" NOx_abs="55.455110" fuel_abs="58.581709" electricity_abs="0"/>
    </tripinfo>
    <tripinfo id="S5R_frequency1.2" depart="57612.00" departLane="315358250#0_1" departPos="12.10" departSpeed="0.00" departDelay="0.40" arrival="57705.00" arrivalLane="386687235_1" arrivalPos="80.84" arrivalSpeed="13.56" duration="93.00" routeLength="1115.62" waitingTime="0.00" waitingCount="0" stopTime="0.00" timeLoss="10.95" rerouteNo="1" devices="tripinfo_S5R_frequency1.2 routing_S5R_frequency1.2 emissions_S5R_frequency1.2" vType="bus" speedFactor="1.00" vaporized="">
        <emissions CO_abs="1961.979736" CO2_abs="1241650.024235" HC_abs="420.932841" PMx_abs="211.120021" NOx_abs="9590.908779" fuel_abs="529.562537" electricity_abs="0"/>
    </tripinfo>
    <tripinfo id="h12244c1:3" depart="57612.00" departLane="315358244_1" departPos="5.10" departSpeed="0.00" departDelay="0.40" arrival="57709.00" arrivalLane="386687235_1" arrivalPos="80.84" arrivalSpeed="13.26" duration="97.00" routeLength="1186.14" waitingTime="0.00" waitingCount="0" stopTime="0.00" timeLoss="9.46" rerouteNo="1" devices="tripinfo_h12244c1:3 routing_h12244c1:3 emissions_h12244c1:3" vType="default_016" speedFactor="0.99" vaporized="">
        <emissions CO_abs="2316.831316" CO2_abs="214849.359193" HC_abs="15.530984" PMx_abs="3.170519" NOx_abs="82.527812" fuel_abs="92.354793" electricity_abs="0"/>
    </tripinfo>
    <tripinfo id="h3688c1:1" depart="57625.00" departLane="201201950#1_1" departPos="5.10" departSpeed="0.00" departDelay="0.00" arrival="57720.00" arrivalLane="32978638#0_1" arrivalPos="49.29" arrivalSpeed="14.56" duration="95.00" routeLength="1089.75" waitingTime="4.00" waitingCount="1" stopTime="0.00" timeLoss="19.09" rerouteNo="1" devices="tripinfo_h3688c1:1 routing_h3688c1:1 emissions_h3688c1:1" vType="default_016" speedFactor="1.05" vaporized="">
        <emissions CO_abs="3694.622626" CO2_abs="268713.017197" HC_abs="23.142554" PMx_abs="4.659478" NOx_abs="108.408919" fuel_abs="115.508082" electricity_abs="0"/>
    </tripinfo>
    <tripinfo id="h7800c1:5" depart="57696.00" departLane="-447569998#1_1" departPos="5.10" departSpeed="0.00" departDelay="0.00" arrival="57725.00" arrivalLane="-447569998#1_2" arrivalPos="180.76" arrivalSpeed="4.43" duration="29.00" routeLength="175.66" waitingTime="1.00" waitingCount="1" stopTime="0.00" timeLoss="8.09" rerouteNo="1" devices="tripinfo_h7800c1:5 routing_h7800c1:5 emissions_h7800c1:5" vType="default_016" speedFactor="1.03" vaporized="">
        <emissions CO_abs="1345.805515" CO2_abs="55848.864429" HC_abs="7.411577" PMx_abs="0.937923" NOx_abs="22.889907" fuel_abs="24.007490" electricity_abs="0"/>
    </tripinfo>
    <tripinfo id="carIn22761:1" depart="57616.00" departLane="-306240162#1_0" departPos="5.10" departSpeed="0.00" departDelay="2.10" arrival="57726.00" arrivalLane="399835085#1_1" arrivalPos="212.23" arrivalSpeed="6.70" duration="110.00" routeLength="1093.26" waitingTime="6.00" waitingCount="1" stopTime="0.00" timeLoss="27.74" rerouteNo="1" devices="tripinfo_carIn22761:1 routing_carIn22761:1 emissions_carIn22761:1" vType="default_016" speedFactor="0.95" vaporized="">
        <emissions CO_abs="4759.213302" CO2_abs="281918.110996" HC_abs="28.195277" PMx_abs="5.134452" NOx_abs="115.218858" fuel_abs="121.184747" electricity_abs="0"/>
    </tripinfo>
    <tripinfo id="h7181c1:1" depart="57660.00" departLane="315358254#0_1" departPos="5.10" departSpeed="0.00" departDelay="0.10" arrival="57730.00" arrivalLane="306240162#0_0" arrivalPos="220.43" arrivalSpeed="16.20" duration="70.00" routeLength="932.35" waitingTime="9.00" waitingCount="1" stopTime="0.00" timeLoss="20.32" rerouteNo="1" devices="tripinfo_h7181c1:1 routing_h7181c1:1 emissions_h7181c1:1" vType="default_016" speedFactor="1.04" vaporized="">
        <emissions CO_abs="4408.129753" CO2_abs="266381.490294" HC_abs="26.486603" PMx_abs="5.306937" NOx_abs="109.914168" fuel_abs="114.505657" electricity_abs="0"/>
    </tripinfo>
    <tripinfo id="h3568c1:3" depart="57656.00" departLane="266565295#5_1" departPos="5.10" departSpeed="0.00" departDelay="0.80" arrival="57747.00" arrivalLane="-24634415_1" arrivalPos="62.03" arrivalSpeed="12.18" duration="91.00" routeLength="807.40" waitingTime="7.00" waitingCount="1" stopTime="0.00" timeLoss="24.26" rerouteNo="1" devices="tripinfo_h3568c1:3 routing_h3568c1:3 emissions_h3568c1:3" vType="default_016" speedFactor="0.96" vaporized="">
        <emissions CO_abs="4231.694028" CO2_abs="237660.733930" HC_abs="24.834176" PMx_abs="4.183864" NOx_abs="97.286046" fuel_abs="102.160678" electricity_abs="0"/>
    </tripinfo>
    <tripinfo id="carIn80064:1" depart="57603.00" departLane="128361109#1_1" departPos="5.10" departSpeed="0.00" departDelay="0.40" arrival="57749.00" arrivalLane="-315358254#1_1" arrivalPos="137.16" arrivalSpeed="14.38" duration="146.00" routeLength="1587.97" waitingTime="31.00" waitingCount="1" stopTime="0.00" timeLoss="61.02" rerouteNo="1" devices="tripinfo_carIn80064:1 routing_carIn80064:1 emissions_carIn80064:1" vType="default_016" speedFactor="1.06" vaporized="">
        <emissions CO_abs="11262.285350" CO2_abs="560762.300736" HC_abs="64.736482" PMx_abs="11.460416" NOx_abs="235.788694" fuel_abs="241.047977" electricity_abs="0"/>
    </tripinfo>
    <tripinfo id="h9563c2:5" depart="57631.00" departLane="315358244_1" departPos="5.10" departSpeed="0.00" departDelay="0.70" arrival="57751.00" arrivalLane="386687235_1" arrivalPos="80.84" arrivalSpeed="10.47" duration="120.00" routeLength="1186.14" waitingTime="0.00" waitingCount="0" stopTime="0.00" timeLoss="10.44" rerouteNo="1" devices="tripinfo_h9563c2:5 routing_h9563c2:5 emissions_h9563c2:5" vType="default_016" speedFactor="0.79" vaporized="">
        <emissions CO_abs="3251.636740" CO2_abs="227615.887739" HC_abs="20.007862" PMx_abs="3.213621" NOx_abs="88.037195" fuel_abs="97.843335" electricity_abs="0"/>
    </tripinfo>
    <tripinfo id="h317c2:1" depart="57707.00" departLane="-32978638#0_1" departPos="5.10" departSpeed="0.00" departDelay="0.10" arrival="57757.00" arrivalLane="-266565295#5_1" arrivalPos="172.76" arrivalSpeed="12.32" duration="50.00" routeLength="370.53" waitingTime="10.00" waitingCount="1" stopTime="0.00" timeLoss="19.06" rerouteNo="1" devices="tripinfo_h317c2:1 routing_h317c2:1 emissions_h317c2:1" vType="default_016" speedFactor="0.90" vaporized="">
        <emissions CO_abs="2514.066332" CO2_abs="122382.892702" HC_abs="14.313204" PMx_abs="2.208739" NOx_abs="50.486630" fuel_abs="52.607625" electricity_abs="0"/>
    </tripinfo>
    <tripinfo id="h3154c1:1" depart="57658.00" departLane="24634507_1" departPos="5.10" departSpeed="0.00" departDelay="0.00" arrival="57768.00" arrivalLane="-266565295#5_1" arrivalPos="172.76" arrivalSpeed="13.57" duration="110.00" routeLength="1206.22" waitingTime="11.00" waitingCount="1" stopTime="0.00" timeLoss="26.56" rerouteNo="1" devices="tripinfo_h3154c1:1 routing_h3154c1:1 emissions_h3154c1:1" vType="default_016" speedFactor="1.07" vaporized="">
        <emissions CO_abs="4817.971094" CO2_abs="302866.080193" HC_abs="28.999715" PMx_abs="5.362021" NOx_abs="122.873119" fuel_abs="130.189386" electricity_abs="0"/>
    </tripinfo>
    <tripinfo id="h3326c1:2" depart="57656.00" departLane="22716069#0_1" departPos="5.10" departSpeed="0.00" departDelay="0.00" arrival="57773.00" arrivalLane="24634517#13_1" arrivalPos="111.62" arrivalSpeed="13.44" duration="117.00" routeLength="1312.81" waitingTime="3.00" waitingCount="1" stopTime="0.00" timeLoss="20.76" rerouteNo="1" devices="tripinfo_h3326c1:2 routing_h3326c1:2 emissions_h3326c1:2" vType="default_016" speedFactor="1.01" vaporized="">
        <emissions CO_abs="3997.650026" CO2_abs="303316.123066" HC_abs="25.269169" PMx_abs="5.158672" NOx_abs="121.788396" fuel_abs="130.382447" electricity_abs="0"/>
    </tripinfo>
    <tripinfo id="carIn30817:1" depart="57681.00" departLane="315358244_1" departPos="5.10" departSpeed="0.00" departDelay="0.20" arrival="57773.00" arrivalLane="447569997#1_1" arrivalPos="180.93" arrivalSpeed="5.19" duration="92.00" routeLength="718.04" waitingTime="0.00" waitingCount="0" stopTime="0.00" timeLoss="9.36" rerouteNo="1" devices="tripinfo_carIn30817:1 routing_carIn30817:1 emissions_carIn30817:1" vType="default_016" speedFactor="0.74" vaporized="">
        <emissions CO_abs="3307.453106" CO2_abs="166094.908601" HC_abs="18.857067" PMx_abs="2.544358" NOx_abs="66.120812" fuel_abs="71.398261" electricity_abs="0"/>
    </tripinfo>
    <tripinfo id="h645c1:1" depart="57622.00" departLane="266565295#5_1" departPos="5.10" departSpeed="0.00" departDelay="0.40" arrival="57774.00" arrivalLane="-315358244_1" arrivalPos="33.95" arrivalSpeed="13.64" duration="152.00" routeLength="1910.83" waitingTime="0.00" waitingCount="0" stopTime="0.00" timeLoss="13.56" rerouteNo="1" devices="tripinfo_h645c1:1 routing_h645c1:1 emissions_h645c1:1" vType="default_016" speedFactor="1.00" vaporized="">
        <emissions CO_abs="3467.794587" CO2_abs="331525.407151" HC_abs="23.452931" PMx_abs="5.002652" NOx_abs="127.855637" fuel_abs="142.508718" electricity_abs="0"/>
    </tripinfo>
    <tripinfo id="carIn12365:1" depart="57713.00" departLane="315358244_1" departPos="5.10" departSpeed="0.00" departDelay="0.50" arrival="57779.00" arrivalLane="447569997#1_1" arrivalPos="180.93" arrivalSpeed="7.90" duration="66.00" routeLength="718.04" waitingTime="0.00" waitingCount="0" stopTime="0.00" timeLoss="8.06" rerouteNo="1" devices="tripinfo_carIn12365:1 routing_carIn12365:1 emissions_carIn12365:1" vType="default_016" speedFactor="1.07" vaporized="">
        <emissions CO_abs="2213.454379" CO2_abs="151447.360716" HC_abs="13.552519" PMx_abs="2.542987" NOx_abs="60.662675" fuel_abs="65.100874" electricity_abs="0"/>
    </tripinfo>
    <tripinfo id="carIn86816:1" depart="57617.00" departLane="128361102#0_1" departPos="5.10" departSpeed="0.00" departDelay="0.80" arrival="57782.00" arrivalLane="201956811#0_1" arrivalPos="40.40" arrivalSpeed="14.64" duration="165.00" routeLength="2067.33" waitingTime="0.00" waitingCount="0" stopTime="0.00" timeLoss="21.66" rerouteNo="1" devices="tripinfo_carIn86816:1 routing_carIn86816:1 emissions_carIn86816:1" vType="default_016" speedFactor="1.05" vaporized="">
        <emissions CO_abs="5436.078444" CO2_abs="449412.964935" HC_abs="35.199357" PMx_abs="7.445301" NOx_abs="178.059000" fuel_abs="193.183142" electricity_abs="0"/>
    </tripinfo>
    <tripinfo id="carIn107084:1" depart="57601.00" departLane="124812856#0_1" departPos="5.10" departSpeed="0.00" departDelay="0.70" arrival="57784.00" arrivalLane="-128361102#1_1" arrivalPos="274.68" arrivalSpeed="14.06" duration="183.00" routeLength="2250.49" waitingTime="5.00" waitingCount="1" stopTime="0.00" timeLoss="30.32" rerouteNo="1" devices="tripinfo_carIn107084:1 routing_carIn107084:1 emissions_carIn107084:1" vType="default_016" speedFactor="1.08" vaporized="">
        <emissions CO_abs="5927.298396" CO2_abs="491685.972615" HC_abs="38.176743" PMx_abs="7.992834" NOx_abs="193.247760" fuel_abs="211.354709" electricity_abs="0"/>
    </tripinfo>
    <tripinfo id="carIn118591:1" depart="57689.00" departLane="315358244_1" departPos="5.10" departSpeed="0.00" departDelay="0.20" arrival="57785.00" arrivalLane="386687235_1" arrivalPos="80.84" arrivalSpeed="14.89" duration="96.00" routeLength="1186.14" waitingTime="1.00" waitingCount="1" stopTime="0.00" timeLoss="15.63" rerouteNo="1" devices="tripinfo_carIn118591:1 routing_carIn118591:1 emissions_carIn118591:1" vType="default_016" speedFactor="1.08" vaporized="">
        <emissions CO_abs="3647.325132" CO2_abs="286141.616505" HC_abs="23.315048" PMx_abs="4.913875" NOx_abs="114.523831" fuel_abs="122.999767" electricity_abs="0"/>
    </tripinfo>
    <tripinfo id="h330c1:1" depart="57736.00" departLane="-32978638#0_1" departPos="5.10" departSpeed="0.00" departDelay="0.20" arrival="57787.00" arrivalLane="-266565295#5_1" arrivalPos="172.76" arrivalSpeed="12.68" duration="51.00" routeLength="370.53" waitingTime="12.00" waitingCount="1" stopTime="0.00" timeLoss="20.37" rerouteNo="1" devices="tripinfo_h330c1:1 routing_h330c1:1 emissions_h330c1:1" vType="default_016" speedFactor="0.91" vaporized="">
        <emissions CO_abs="3496.959976" CO2_abs="139478.013121" HC_abs="19.197634" PMx_abs="2.665180" NOx_abs="58.537112" fuel_abs="59.956459" electricity_abs="0"/>
    </tripinfo>
    <tripinfo id="h11737c1:1" depart="57665.00" departLane="272042143_1" departPos="5.10" departSpeed="0.00" departDelay="1.50" arrival="57796.00" arrivalLane="-315358254#1_1" arrivalPos="137.16" arrivalSpeed="14.93" duration="131.00" routeLength="1596.88" waitingTime="6.00" waitingCount="1" stopTime="0.00" timeLoss="25.26" rerouteNo="1" devices="tripinfo_h11737c1:1 routing_h11737c1:1 emissions_h11737c1:1" vType="default_016" speedFactor="1.10" vaporized="">
        <emissions CO_abs="4274.398663" CO2_abs="335066.762996" HC_abs="27.131056" PMx_abs="5.701857" NOx_abs="133.502276" fuel_abs="144.030624" electricity_abs="0"/>
    </tripinfo>
    <tripinfo id="h5979c1:5" depart="57669.00" departLane="399835085#1_1" departPos="5.10" departSpeed="0.00" departDelay="0.00" arrival="57800.00" arrivalLane="-315358254#1_1" arrivalPos="137.16" arrivalSpeed="13.42" duration="131.00" routeLength="659.33" waitingTime="43.00" waitingCount="1" stopTime="0.00" timeLoss="58.91" rerouteNo="1" devices="tripinfo_h5979c1:5 routing_h5979c1:5 emissions_h5979c1:5" vType="default_016" speedFactor="1.02" vaporized="">
        <emissions CO_abs="10198.465258" CO2_abs="291623.327014" HC_abs="53.216339" PMx_abs="5.755909" NOx_abs="124.206660" fuel_abs="125.360248" electricity_abs="0"/>
    </tripinfo>
    <tripinfo id="carIn27009:1" depart="57673.00" departLane="-447569998#1_1" departPos="5.10" departSpeed="0.00" departDelay="0.50" arrival="57801.00" arrivalLane="-26677539_1" arrivalPos="152.75" arrivalSpeed="6.34" duration="128.00" routeLength="699.63" waitingTime="20.00" waitingCount="1" stopTime="0.00" timeLoss="34.89" rerouteNo="1" devices="tripinfo_carIn27009:1 routing_carIn27009:1 emissions_carIn27009:1" vType="default_015" speedFactor="0.90" vaporized="">
        <emissions CO_abs="7332.175960" CO2_abs="234836.294971" HC_abs="38.769281" PMx_abs="4.129603" NOx_abs="97.393235" fuel_abs="100.949135" electricity_abs="0"/>
    </tripinfo>
    <tripinfo id="carIn129809:1" depart="57729.00" departLane="-447569998#1_1" departPos="5.10" departSpeed="0.00" departDelay="1.00" arrival="57812.00" arrivalLane="-315358244_1" arrivalPos="33.95" arrivalSpeed="12.22" duration="83.00" routeLength="706.49" waitingTime="5.00" waitingCount="1" stopTime="0.00" timeLoss="16.19" rerouteNo="1" devices="tripinfo_carIn129809:1 routing_carIn129809:1 emissions_carIn129809:1" vType="default_015" speedFactor="0.91" vaporized="">
        <emissions CO_abs="2904.553716" CO2_abs="166122.492544" HC_abs="17.060026" PMx_abs="2.628610" NOx_abs="66.116481" fuel_abs="71.409703" electricity_abs="0"/>
    </tripinfo>
    <tripinfo id="carIn82278:1" depart="57702.00" departLane="-306240162#1_0" departPos="5.10" departSpeed="0.00" departDelay="0.70" arrival="57813.00" arrivalLane="399835085#1_1" arrivalPos="212.23" arrivalSpeed="7.33" duration="111.00" routeLength="1093.26" waitingTime="7.00" waitingCount="2" stopTime="0.00" timeLoss="34.26" rerouteNo="1" devices="tripinfo_carIn82278:1 routing_carIn82278:1 emissions_carIn82278:1" vType="default_016" speedFactor="1.01" vaporized="">
        <emissions CO_abs="6441.356777" CO2_abs="355725.920266" HC_abs="37.735256" PMx_abs="6.842054" NOx_abs="148.185914" fuel_abs="152.911415" electricity_abs="0"/>
    </tripinfo>
    <tripinfo id="carIn12858:1" depart="57661.00" departLane="128361109#1_1" departPos="5.10" departSpeed="0.00" departDelay="0.90" arrival="57815.00" arrivalLane="399835085#1_1" arrivalPos="212.23" arrivalSpeed="8.82" duration="154.00" routeLength="1738.12" waitingTime="13.00" waitingCount="1" stopTime="0.00" timeLoss="45.59" rerouteNo="1" devices="tripinfo_carIn12858:1 routing_carIn12858:1 emissions_carIn12858:1" vType="default_016" speedFactor="1.06" vaporized="">
        <emissions CO_abs="8861.587627" CO2_abs="533100.782183" HC_abs="53.098365" PMx_abs="10.330682" NOx_abs="220.227406" fuel_abs="229.156775" electricity_abs="0"/>
    </tripinfo>
    <tripinfo id="carIn102915:1" depart="57643.00" departLane="128361102#0_1" departPos="5.10" departSpeed="0.00" departDelay="0.40" arrival="57817.00" arrivalLane="201956811#0_1" arrivalPos="40.40" arrivalSpeed="12.28" duration="174.00" routeLength="2067.33" waitingTime="0.00" waitingCount="0" stopTime="0.00" timeLoss="16.36" rerouteNo="1" devices="tripinfo_carIn102915:1 routing_carIn102915:1 emissions_carIn102915:1" vType="default_016" speedFactor="0.96" vaporized="">
        <emissions CO_abs="4636.903575" CO2_abs="397003.966223" HC_abs="30.343487" PMx_abs="6.222075" NOx_abs="155.614877" fuel_abs="170.655138" electricity_abs="0"/>
    </tripinfo>
    <tripinfo id="carIn126288:1" depart="57674.00" departLane="272042143_1" departPos="5.10" departSpeed="0.00" departDelay="0.00" arrival="57817.00" arrivalLane="-315358254#1_1" arrivalPos="137.16" arrivalSpeed="12.29" duration="143.00" routeLength="1596.88" waitingTime="5.00" waitingCount="1" stopTime="0.00" timeLoss="21.18" rerouteNo="1" devices="tripinfo_carIn126288:1 routing_carIn126288:1 emissions_carIn126288:1" vType="default_016" speedFactor="0.96" vaporized="">
        <emissions CO_abs="4538.982648" CO2_abs="334018.257830" HC_abs="28.466709" PMx_abs="5.508618" NOx_abs="133.119954" fuel_abs="143.580342" electricity_abs="0"/>
    </tripinfo>
    <tripinfo id="h17600c1:1" depart="57662.00" departLane="272042143_1" departPos="5.10" departSpeed="0.00" departDelay="0.30" arrival="57825.00" arrivalLane="201238729#3_1" arrivalPos="431.02" arrivalSpeed="12.57" duration="163.00" routeLength="2100.26" waitingTime="0.00" waitingCount="0" stopTime="0.00" timeLoss="10.36" rerouteNo="1" devices="tripinfo_h17600c1:1 routing_h17600c1:1 emissions_h17600c1:1" vType="default_016" speedFactor="1.00" vaporized="">
        <emissions CO_abs="3303.960249" CO2_abs="347983.370462" HC_abs="23.093850" PMx_abs="5.126174" NOx_abs="132.995594" fuel_abs="149.583247" electricity_abs="0"/>
    </tripinfo>
    <tripinfo id="randUni33724:1" depart="57646.00" departLane="128361102#0_1" departPos="5.10" departSpeed="0.00" departDelay="1.20" arrival="57827.00" arrivalLane="201956811#0_1" arrivalPos="40.40" arrivalSpeed="11.83" duration="181.00" routeLength="2067.33" waitingTime="0.00" waitingCount="0" stopTime="0.00" timeLoss="17.04" rerouteNo="1" devices="tripinfo_randUni33724:1 routing_randUni33724:1 emissions_randUni33724:1" vType="random_016" speedFactor="0.92" vaporized="">
        <emissions CO_abs="5058.412957" CO2_abs="405141.697264" HC_abs="32.475218" PMx_abs="6.453116" NOx_abs="160.140835" fuel_abs="174.153258" electricity_abs="0"/>
    </tripinfo>
    <tripinfo id="h3864c1:3" depart="57678.00" departLane="24693977#1_1" departPos="5.10" departSpeed="0.00" departDelay="0.00" arrival="57827.00" arrivalLane="201956820_2" arrivalPos="48.33" arrivalSpeed="13.19" duration="149.00" routeLength="1574.85" waitingTime="1.00" waitingCount="1" stopTime="0.00" timeLoss="24.37" rerouteNo="1" devices="tripinfo_h3864c1:3 routing_h3864c1:3 emissions_h3864c1:3" vType="default_016" speedFactor="1.04" vaporized="">
        <emissions CO_abs="6142.866766" CO2_abs="399663.792073" HC_abs="37.314978" PMx_abs="6.889847" NOx_abs="162.113012" fuel_abs="171.798642" electricity_abs="0"/>
    </tripinfo>
    <tripinfo id="carIn50326:1" depart="57651.00" departLane="128361102#0_1" departPos="5.10" departSpeed="0.00" departDelay="0.30" arrival="57828.00" arrivalLane="18809673#0_1" arrivalPos="473.56" arrivalSpeed="11.67" duration="177.00" routeLength="1591.07" waitingTime="9.00" waitingCount="1" stopTime="0.00" timeLoss="28.83" rerouteNo="1" devices="tripinfo_carIn50326:1 routing_carIn50326:1 emissions_carIn50326:1" vType="default_016" speedFactor="0.87" vaporized="">
        <emissions CO_abs="6435.641844" CO2_abs="371588.526132" HC_abs="37.865894" PMx_abs="5.775556" NOx_abs="147.013894" fuel_abs="159.731816" electricity_abs="0"/>
    </tripinfo>
    <tripinfo id="h16072c2:3" depart="57663.00" departLane="315358254#0_1" departPos="5.10" departSpeed="0.00" departDelay="2.50" arrival="57833.00" arrivalLane="386687235_2" arrivalPos="80.84" arrivalSpeed="14.31" duration="170.00" routeLength="1611.92" waitingTime="14.00" waitingCount="2" stopTime="0.00" timeLoss="64.94" rerouteNo="1" devices="tripinfo_h16072c2:3 routing_h16072c2:3 emissions_h16072c2:3" vType="default_016" speedFactor="1.12" vaporized="">
        <emissions CO_abs="7432.210969" CO2_abs="444797.126861" HC_abs="44.274291" PMx_abs="7.905805" NOx_abs="181.830885" fuel_abs="191.199723" electricity_abs="0"/>
    </tripinfo>
    <tripinfo id="carIn107282:1" depart="57749.00" departLane="-447569998#1_1" departPos="5.10" departSpeed="0.00" departDelay="0.00" arrival="57833.00" arrivalLane="315358242#0_1" arrivalPos="165.37" arrivalSpeed="15.40" duration="84.00" routeLength="448.50" waitingTime="39.00" waitingCount="1" stopTime="0.00" timeLoss="47.45" rerouteNo="1" devices="tripinfo_carIn107282:1 routing_carIn107282:1 emissions_carIn107282:1" vType="default_016" speedFactor="1.16" vaporized="">
        <emissions CO_abs="8044.904441" CO2_abs="218252.240815" HC_abs="41.715862" PMx_abs="4.572507" NOx_abs="93.905166" fuel_abs="93.820207" electricity_abs="0"/>
    </tripinfo>
    <tripinfo id="carIn82220:1" depart="57619.00" departLane="-306240162#1_0" departPos="5.10" departSpeed="0.00" departDelay="3.50" arrival="57834.00" arrivalLane="386687235_1" arrivalPos="80.84" arrivalSpeed="12.67" duration="215.00" routeLength="2257.41" waitingTime="13.00" waitingCount="2" stopTime="0.00" timeLoss="63.82" rerouteNo="1" devices="tripinfo_carIn82220:1 routing_carIn82220:1 emissions_carIn82220:1" vType="default_016" speedFactor="0.99" vaporized="">
        <emissions CO_abs="8339.243097" CO2_abs="569976.291764" HC_abs="51.286677" PMx_abs="9.941718" NOx_abs="230.134995" fuel_abs="245.008454" electricity_abs="0"/>
    </tripinfo>
    <tripinfo id="carIn100288:1" depart="57664.00" departLane="128361102#0_1" departPos="5.10" departSpeed="0.00" departDelay="0.60" arrival="57834.00" arrivalLane="201956811#0_1" arrivalPos="40.40" arrivalSpeed="13.09" duration="170.00" routeLength="2067.33" waitingTime="0.00" waitingCount="0" stopTime="0.00" timeLoss="18.63" rerouteNo="1" devices="tripinfo_carIn100288:1 routing_carIn100288:1 emissions_carIn100288:1" vType="default_016" speedFactor="1.00" vaporized="">
        <emissions CO_abs="4773.194059" CO2_abs="411127.985774" HC_abs="31.317548" PMx_abs="6.489843" NOx_abs="161.189023" fuel_abs="176.726387" electricity_abs="0"/>
    </tripinfo>
    <tripinfo id="carIn75660:1" depart="57679.00" departLane="128361109#1_1" departPos="5.10" departSpeed="0.00" departDelay="3.40" arrival="57835.00" arrivalLane="386687235_2" arrivalPos="80.84" arrivalSpeed="16.27" duration="156.00" routeLength="2088.57" waitingTime="4.00" waitingCount="1" stopTime="0.00" timeLoss="30.30" rerouteNo="1" devices="tripinfo_carIn75660:1 routing_carIn75660:1 emissions_carIn75660:1" vType="default_016" speedFactor="1.20" vaporized="">
        <emissions CO_abs="5429.569811" CO2_abs="445935.842157" HC_abs="35.053088" PMx_abs="7.788117" NOx_abs="177.751751" fuel_abs="191.688029" electricity_abs="0"/>
    </tripinfo>
    <tripinfo id="carIn48184:1" depart="57613.00" departLane="-306240162#1_0" departPos="5.10" departSpeed="0.00" departDelay="0.70" arrival="57837.00" arrivalLane="386687235_1" arrivalPos="80.84" arrivalSpeed="11.05" duration="224.00" routeLength="2257.41" waitingTime="11.00" waitingCount="2" stopTime="0.00" timeLoss="39.85" rerouteNo="1" devices="tripinfo_carIn48184:1 routing_carIn48184:1 emissions_carIn48184:1" vType="default_016" speedFactor="0.81" vaporized="">
        <emissions CO_abs="7072.731290" CO2_abs="482062.866476" HC_abs="43.361123" PMx_abs="7.814300" NOx_abs="191.498716" fuel_abs="207.219084" electricity_abs="0"/>
    </tripinfo>
    <tripinfo id="50R_frequency3.17" depart="57674.00" departLane="-18809673#6_1" departPos="12.10" departSpeed="0.00" departDelay="0.70" arrival="57837.00" arrivalLane="201956811#0_1" arrivalPos="40.40" arrivalSpeed="13.68" duration="163.00" routeLength="1954.47" waitingTime="0.00" waitingCount="0" stopTime="0.00" timeLoss="17.83" rerouteNo="1" devices="tripinfo_50R_frequency3.17 routing_50R_frequency3.17 emissions_50R_frequency3.17" vType="bus" speedFactor="1.00" vaporized="">
        <emissions CO_abs="2946.109663" CO2_abs="1876599.380343" HC_abs="627.087706" PMx_abs="317.018448" NOx_abs="14468.269212" fuel_abs="800.367266" electricity_abs="0"/>
    </tripinfo>
    <tripinfo id="carIn77943:1" depart="57608.00" departLane="124812856#0_1" departPos="5.10" departSpeed="0.00" departDelay="2.50" arrival="57840.00" arrivalLane="-128361102#1_1" arrivalPos="274.68" arrivalSpeed="9.83" duration="232.00" routeLength="2232.46" waitingTime="0.00" waitingCount="0" stopTime="0.00" timeLoss="20.28" rerouteNo="1" devices="tripinfo_carIn77943:1 routing_carIn77943:1 emissions_carIn77943:1" vType="default_016" speedFactor="0.77" vaporized="">
        <emissions CO_abs="6378.602906" CO2_abs="441082.420635" HC_abs="39.171042" PMx_abs="6.496065" NOx_abs="172.542531" fuel_abs="189.604040" electricity_abs="0"/>
    </tripinfo>
    <tripinfo id="carIn46110:1" depart="57684.00" departLane="315358244_1" departPos="5.10" departSpeed="0.00" departDelay="1.20" arrival="57840.00" arrivalLane="32978638#0_1" arrivalPos="49.29" arrivalSpeed="13.79" duration="156.00" routeLength="1764.04" waitingTime="16.00" waitingCount="2" stopTime="0.00" timeLoss="36.32" rerouteNo="1" devices="tripinfo_carIn46110:1 routing_carIn46110:1 emissions_carIn46110:1" vType="default_016" speedFactor="1.07" vaporized="">
        <emissions CO_abs="5680.124765" CO2_abs="404587.580966" HC_abs="35.087349" PMx_abs="6.816304" NOx_abs="160.794991" fuel_abs="173.915143" electricity_abs="0"/>
    </tripinfo>
    <tripinfo id="carIn77438:1" depart="57614.00" departLane="124812856#0_1" departPos="5.10" departSpeed="0.00" departDelay="1.10" arrival="57841.00" arrivalLane="-128361102#1_1" arrivalPos="274.68" arrivalSpeed="10.46" duration="227.00" routeLength="2250.49" waitingTime="0.00" waitingCount="0" stopTime="0.00" timeLoss="32.27" rerouteNo="1" devices="tripinfo_carIn77438:1 routing_carIn77438:1 emissions_carIn77438:1" vType="default_016" speedFactor="0.84" vaporized="">
        <emissions CO_abs="7702.243422" CO2_abs="518694.566128" HC_abs="47.109764" PMx_abs="8.349846" NOx_abs="207.575626" fuel_abs="222.965536" electricity_abs="0"/>
    </tripinfo>