<?xml version="1.0" encoding="UTF-8"?>

<!-- generated on 2021-10-26 12:44:14 by Eclipse SUMO sumo Version 1.10.0
<configuration xmlns:xsi="http://www.w3.org/2001/XMLSchema-instance" xsi:noNamespaceSchemaLocation="http://sumo.dlr.de/xsd/sumoConfiguration.xsd">

    <input>
        <net-file value="/Users/behradkoohy/sumo-scratchpad/RESCO/environments/ingolstadt21/ingolstadt21.net.xml"/>
        <route-files value="/Users/behradkoohy/sumo-scratchpad/RESCO/environments/ingolstadt21/ingolstadt21.rou.xml"/>
    </input>

    <output>
        <tripinfo-output value="/Users/behradkoohy/sumo-scratchpad/RESCO/logs/MAXPRESSURE-tr0-ingolstadt21-21-mplight-wait/tripinfo_8.xml"/>
        <tripinfo-output.write-unfinished value="true"/>
    </output>

    <time>
        <begin value="57600"/>
        <end value="61200"/>
    </time>

    <processing>
        <time-to-teleport value="-1"/>
    </processing>

    <report>
        <no-warnings value="true"/>
        <no-step-log value="true"/>
    </report>

    <emissions>
        <device.emissions.probability value="1"/>
    </emissions>

    <traci_server>
        <remote-port value="58414"/>
    </traci_server>

    <random_number>
        <random value="true"/>
    </random_number>

</configuration>
-->

<tripinfos xmlns:xsi="http://www.w3.org/2001/XMLSchema-instance" xsi:noNamespaceSchemaLocation="http://sumo.dlr.de/xsd/tripinfo_file.xsd">
    <tripinfo id="h15454c2:3" depart="57612.00" departLane="24608844_1" departPos="5.10" departSpeed="0.00" departDelay="0.50" arrival="57661.00" arrivalLane="32978638#0_1" arrivalPos="49.29" arrivalSpeed="11.38" duration="49.00" routeLength="354.79" waitingTime="1.00" waitingCount="1" stopTime="0.00" timeLoss="8.84" rerouteNo="1" devices="tripinfo_h15454c2:3 routing_h15454c2:3 emissions_h15454c2:3" vType="default_016" speedFactor="0.87" vaporized="">
        <emissions CO_abs="2269.688305" CO2_abs="104251.995110" HC_abs="12.760973" PMx_abs="1.859920" NOx_abs="43.321895" fuel_abs="44.813955" electricity_abs="0"/>
    </tripinfo>
    <tripinfo id="carIn60260:1" depart="57606.00" departLane="315358254#0_1" departPos="5.10" departSpeed="0.00" departDelay="0.90" arrival="57662.00" arrivalLane="399835085#1_1" arrivalPos="212.23" arrivalSpeed="7.22" duration="56.00" routeLength="430.98" waitingTime="0.00" waitingCount="0" stopTime="0.00" timeLoss="5.84" rerouteNo="1" devices="tripinfo_carIn60260:1 routing_carIn60260:1 emissions_carIn60260:1" vType="default_016" speedFactor="0.93" vaporized="">
        <emissions CO_abs="2112.801781" CO2_abs="99629.639332" HC_abs="11.914677" PMx_abs="1.645645" NOx_abs="40.591771" fuel_abs="42.827130" electricity_abs="0"/>
    </tripinfo>
    <tripinfo id="carIn53971:1" depart="57640.00" departLane="272042143_1" departPos="5.10" departSpeed="0.00" departDelay="0.80" arrival="57694.00" arrivalLane="24634414#1_1" arrivalPos="162.19" arrivalSpeed="7.04" duration="54.00" routeLength="493.04" waitingTime="0.00" waitingCount="0" stopTime="0.00" timeLoss="7.48" rerouteNo="1" devices="tripinfo_carIn53971:1 routing_carIn53971:1 emissions_carIn53971:1" vType="default_016" speedFactor="0.98" vaporized="">
        <emissions CO_abs="2011.845812" CO2_abs="119637.171573" HC_abs="11.951263" PMx_abs="2.036924" NOx_abs="48.619774" fuel_abs="51.427146" electricity_abs="0"/>
    </tripinfo>
    <tripinfo id="h12244c1:3" depart="57612.00" departLane="315358244_1" departPos="5.10" departSpeed="0.00" departDelay="0.40" arrival="57699.00" arrivalLane="386687235_1" arrivalPos="80.84" arrivalSpeed="15.15" duration="87.00" routeLength="1186.14" waitingTime="0.00" waitingCount="0" stopTime="0.00" timeLoss="8.80" rerouteNo="1" devices="tripinfo_h12244c1:3 routing_h12244c1:3 emissions_h12244c1:3" vType="default_016" speedFactor="1.11" vaporized="">
        <emissions CO_abs="2504.724728" CO2_abs="226955.082279" HC_abs="16.542896" PMx_abs="3.671344" NOx_abs="88.585383" fuel_abs="97.558129" electricity_abs="0"/>
    </tripinfo>
    <tripinfo id="S5R_frequency1.2" depart="57614.00" departLane="315358250#0_1" departPos="12.10" departSpeed="0.00" departDelay="2.40" arrival="57706.00" arrivalLane="386687235_1" arrivalPos="80.84" arrivalSpeed="13.48" duration="92.00" routeLength="1115.62" waitingTime="0.00" waitingCount="0" stopTime="0.00" timeLoss="10.27" rerouteNo="1" devices="tripinfo_S5R_frequency1.2 routing_S5R_frequency1.2 emissions_S5R_frequency1.2" vType="bus" speedFactor="1.00" vaporized="">
        <emissions CO_abs="1883.375230" CO2_abs="1184268.444682" HC_abs="409.283061" PMx_abs="202.795024" NOx_abs="9162.206986" fuel_abs="505.091896" electricity_abs="0"/>
    </tripinfo>
    <tripinfo id="h7800c1:5" depart="57696.00" departLane="-447569998#1_1" departPos="5.10" departSpeed="0.00" departDelay="0.00" arrival="57721.00" arrivalLane="-447569998#1_1" arrivalPos="180.76" arrivalSpeed="7.78" duration="25.00" routeLength="175.66" waitingTime="0.00" waitingCount="0" stopTime="0.00" timeLoss="3.35" rerouteNo="1" devices="tripinfo_h7800c1:5 routing_h7800c1:5 emissions_h7800c1:5" vType="default_016" speedFactor="1.00" vaporized="">
        <emissions CO_abs="1246.386025" CO2_abs="55175.164042" HC_abs="6.932882" PMx_abs="0.858469" NOx_abs="22.167129" fuel_abs="23.717924" electricity_abs="0"/>
    </tripinfo>
    <tripinfo id="h3568c1:3" depart="57656.00" departLane="266565295#5_1" departPos="5.10" departSpeed="0.00" departDelay="0.80" arrival="57726.00" arrivalLane="-24634415_1" arrivalPos="62.03" arrivalSpeed="14.78" duration="70.00" routeLength="807.40" waitingTime="0.00" waitingCount="0" stopTime="0.00" timeLoss="13.33" rerouteNo="1" devices="tripinfo_h3568c1:3 routing_h3568c1:3 emissions_h3568c1:3" vType="default_016" speedFactor="1.14" vaporized="">
        <emissions CO_abs="3243.363340" CO2_abs="220643.710005" HC_abs="19.827888" PMx_abs="3.931496" NOx_abs="89.778293" fuel_abs="94.845153" electricity_abs="0"/>
    </tripinfo>
    <tripinfo id="carIn22761:1" depart="57616.00" departLane="-306240162#1_0" departPos="5.10" departSpeed="0.00" departDelay="2.10" arrival="57730.00" arrivalLane="399835085#1_1" arrivalPos="212.23" arrivalSpeed="7.01" duration="114.00" routeLength="1093.26" waitingTime="8.00" waitingCount="1" stopTime="0.00" timeLoss="25.41" rerouteNo="1" devices="tripinfo_carIn22761:1 routing_carIn22761:1 emissions_carIn22761:1" vType="default_016" speedFactor="0.87" vaporized="">
        <emissions CO_abs="4981.348097" CO2_abs="273430.015819" HC_abs="29.003952" PMx_abs="4.736752" NOx_abs="110.258552" fuel_abs="117.536757" electricity_abs="0"/>
    </tripinfo>
    <tripinfo id="h7181c1:1" depart="57660.00" departLane="315358254#0_1" departPos="5.10" departSpeed="0.00" departDelay="0.10" arrival="57732.00" arrivalLane="306240162#0_0" arrivalPos="220.43" arrivalSpeed="15.42" duration="72.00" routeLength="932.35" waitingTime="5.00" waitingCount="1" stopTime="0.00" timeLoss="17.76" rerouteNo="1" devices="tripinfo_h7181c1:1 routing_h7181c1:1 emissions_h7181c1:1" vType="default_016" speedFactor="0.96" vaporized="">
        <emissions CO_abs="3189.339950" CO2_abs="231423.334532" HC_abs="19.934791" PMx_abs="4.307036" NOx_abs="93.838382" fuel_abs="99.478549" electricity_abs="0"/>
    </tripinfo>
    <tripinfo id="h3688c1:1" depart="57625.00" departLane="201201950#1_1" departPos="5.10" departSpeed="0.00" departDelay="0.00" arrival="57733.00" arrivalLane="32978638#0_1" arrivalPos="49.29" arrivalSpeed="11.88" duration="108.00" routeLength="1089.75" waitingTime="5.00" waitingCount="1" stopTime="0.00" timeLoss="20.46" rerouteNo="1" devices="tripinfo_h3688c1:1 routing_h3688c1:1 emissions_h3688c1:1" vType="default_016" speedFactor="0.91" vaporized="">
        <emissions CO_abs="3620.816718" CO2_abs="242070.143194" HC_abs="22.138907" PMx_abs="4.033217" NOx_abs="97.214986" fuel_abs="104.055904" electricity_abs="0"/>
    </tripinfo>
    <tripinfo id="h9563c2:5" depart="57631.00" departLane="315358244_1" departPos="5.10" departSpeed="0.00" departDelay="0.70" arrival="57736.00" arrivalLane="386687235_1" arrivalPos="80.84" arrivalSpeed="11.79" duration="105.00" routeLength="1186.14" waitingTime="0.00" waitingCount="0" stopTime="0.00" timeLoss="11.94" rerouteNo="1" devices="tripinfo_h9563c2:5 routing_h9563c2:5 emissions_h9563c2:5" vType="default_016" speedFactor="0.93" vaporized="">
        <emissions CO_abs="2977.222036" CO2_abs="221516.224188" HC_abs="18.706601" PMx_abs="3.511368" NOx_abs="87.406833" fuel_abs="95.220655" electricity_abs="0"/>
    </tripinfo>
    <tripinfo id="carIn80064:1" depart="57603.00" departLane="128361109#1_1" departPos="5.10" departSpeed="0.00" departDelay="0.40" arrival="57749.00" arrivalLane="-315358254#1_1" arrivalPos="137.16" arrivalSpeed="13.90" duration="146.00" routeLength="1587.97" waitingTime="30.00" waitingCount="1" stopTime="0.00" timeLoss="60.02" rerouteNo="1" devices="tripinfo_carIn80064:1 routing_carIn80064:1 emissions_carIn80064:1" vType="default_016" speedFactor="1.04" vaporized="">
        <emissions CO_abs="11570.041226" CO2_abs="552806.787351" HC_abs="65.936908" PMx_abs="11.454129" NOx_abs="233.616673" fuel_abs="237.628378" electricity_abs="0"/>
    </tripinfo>
    <tripinfo id="carIn30817:1" depart="57681.00" departLane="315358244_1" departPos="5.10" departSpeed="0.00" departDelay="0.20" arrival="57751.00" arrivalLane="447569997#1_1" arrivalPos="180.93" arrivalSpeed="8.38" duration="70.00" routeLength="718.04" waitingTime="0.00" waitingCount="0" stopTime="0.00" timeLoss="11.77" rerouteNo="1" devices="tripinfo_carIn30817:1 routing_carIn30817:1 emissions_carIn30817:1" vType="default_016" speedFactor="1.07" vaporized="">
        <emissions CO_abs="2672.366656" CO2_abs="160747.492323" HC_abs="15.893154" PMx_abs="2.716458" NOx_abs="64.769170" fuel_abs="69.098842" electricity_abs="0"/>
    </tripinfo>
    <tripinfo id="carIn107084:1" depart="57601.00" departLane="124812856#0_1" departPos="5.10" departSpeed="0.00" departDelay="0.70" arrival="57754.00" arrivalLane="-128361102#1_1" arrivalPos="274.68" arrivalSpeed="16.12" duration="153.00" routeLength="2232.46" waitingTime="0.00" waitingCount="0" stopTime="0.00" timeLoss="16.93" rerouteNo="1" devices="tripinfo_carIn107084:1 routing_carIn107084:1 emissions_carIn107084:1" vType="default_016" speedFactor="1.20" vaporized="">
        <emissions CO_abs="5277.094684" CO2_abs="459843.081106" HC_abs="34.421492" PMx_abs="8.056116" NOx_abs="183.225028" fuel_abs="197.665791" electricity_abs="0"/>
    </tripinfo>
    <tripinfo id="h5979c1:5" depart="57669.00" departLane="399835085#1_1" departPos="5.10" departSpeed="0.00" departDelay="0.00" arrival="57757.00" arrivalLane="-315358254#1_1" arrivalPos="137.16" arrivalSpeed="13.90" duration="88.00" routeLength="659.33" waitingTime="2.00" waitingCount="1" stopTime="0.00" timeLoss="16.13" rerouteNo="1" devices="tripinfo_h5979c1:5 routing_h5979c1:5 emissions_h5979c1:5" vType="default_016" speedFactor="1.02" vaporized="">
        <emissions CO_abs="3530.200271" CO2_abs="172755.945604" HC_abs="20.067688" PMx_abs="2.890215" NOx_abs="70.361183" fuel_abs="74.261305" electricity_abs="0"/>
    </tripinfo>
    <tripinfo id="h317c2:1" depart="57707.00" departLane="-32978638#0_1" departPos="5.10" departSpeed="0.00" departDelay="0.10" arrival="57757.00" arrivalLane="-266565295#5_1" arrivalPos="172.76" arrivalSpeed="11.63" duration="50.00" routeLength="370.53" waitingTime="11.00" waitingCount="1" stopTime="0.00" timeLoss="19.89" rerouteNo="1" devices="tripinfo_h317c2:1 routing_h317c2:1 emissions_h317c2:1" vType="default_016" speedFactor="0.92" vaporized="">
        <emissions CO_abs="3127.573362" CO2_abs="136514.201115" HC_abs="17.435196" PMx_abs="2.498256" NOx_abs="56.488549" fuel_abs="58.682351" electricity_abs="0"/>
    </tripinfo>
    <tripinfo id="h645c1:1" depart="57622.00" departLane="266565295#5_1" departPos="5.10" departSpeed="0.00" departDelay="0.40" arrival="57761.00" arrivalLane="-315358244_1" arrivalPos="33.95" arrivalSpeed="14.90" duration="139.00" routeLength="1910.83" waitingTime="0.00" waitingCount="0" stopTime="0.00" timeLoss="12.63" rerouteNo="1" devices="tripinfo_h645c1:1 routing_h645c1:1 emissions_h645c1:1" vType="default_016" speedFactor="1.10" vaporized="">
        <emissions CO_abs="3534.271736" CO2_abs="340332.898656" HC_abs="23.960279" PMx_abs="5.520051" NOx_abs="132.963934" fuel_abs="146.294140" electricity_abs="0"/>
    </tripinfo>
    <tripinfo id="h3326c1:2" depart="57656.00" departLane="22716069#0_1" departPos="5.10" departSpeed="0.00" departDelay="0.00" arrival="57769.00" arrivalLane="24634517#13_1" arrivalPos="111.62" arrivalSpeed="12.86" duration="113.00" routeLength="1312.81" waitingTime="0.00" waitingCount="0" stopTime="0.00" timeLoss="15.34" rerouteNo="1" devices="tripinfo_h3326c1:2 routing_h3326c1:2 emissions_h3326c1:2" vType="default_016" speedFactor="1.00" vaporized="">
        <emissions CO_abs="3939.670988" CO2_abs="294705.718792" HC_abs="24.819955" PMx_abs="4.924575" NOx_abs="117.944734" fuel_abs="126.681377" electricity_abs="0"/>
    </tripinfo>
    <tripinfo id="h3154c1:1" depart="57658.00" departLane="24634507_1" departPos="5.10" departSpeed="0.00" departDelay="0.00" arrival="57769.00" arrivalLane="-266565295#5_1" arrivalPos="172.76" arrivalSpeed="13.47" duration="111.00" routeLength="1206.22" waitingTime="11.00" waitingCount="1" stopTime="0.00" timeLoss="26.42" rerouteNo="1" devices="tripinfo_h3154c1:1 routing_h3154c1:1 emissions_h3154c1:1" vType="default_016" speedFactor="1.06" vaporized="">
        <emissions CO_abs="4626.640068" CO2_abs="304925.882307" HC_abs="28.244558" PMx_abs="5.320007" NOx_abs="123.081393" fuel_abs="131.074763" electricity_abs="0"/>
    </tripinfo>
    <tripinfo id="carIn81046:1" depart="57611.00" departLane="124812856#0_1" departPos="5.10" departSpeed="0.00" departDelay="2.50" arrival="57780.00" arrivalLane="-128361102#1_1" arrivalPos="274.68" arrivalSpeed="15.71" duration="169.00" routeLength="2232.46" waitingTime="0.00" waitingCount="0" stopTime="0.00" timeLoss="28.57" rerouteNo="1" devices="tripinfo_carIn81046:1 routing_carIn81046:1 emissions_carIn81046:1" vType="default_016" speedFactor="1.16" vaporized="">
        <emissions CO_abs="5799.776983" CO2_abs="487670.316300" HC_abs="37.581456" PMx_abs="8.351361" NOx_abs="194.257133" fuel_abs="209.627849" electricity_abs="0"/>
    </tripinfo>
    <tripinfo id="carIn27009:1" depart="57673.00" departLane="-447569998#1_1" departPos="5.10" departSpeed="0.00" departDelay="0.50" arrival="57780.00" arrivalLane="-26677539_1" arrivalPos="152.75" arrivalSpeed="8.18" duration="107.00" routeLength="699.63" waitingTime="14.00" waitingCount="1" stopTime="0.00" timeLoss="29.07" rerouteNo="1" devices="tripinfo_carIn27009:1 routing_carIn27009:1 emissions_carIn27009:1" vType="default_015" speedFactor="1.08" vaporized="">
        <emissions CO_abs="5364.767379" CO2_abs="220289.619743" HC_abs="29.527727" PMx_abs="3.877391" NOx_abs="91.155362" fuel_abs="94.694675" electricity_abs="0"/>
    </tripinfo>
    <tripinfo id="h330c1:1" depart="57736.00" departLane="-32978638#0_1" departPos="5.10" departSpeed="0.00" departDelay="0.20" arrival="57785.00" arrivalLane="-266565295#5_1" arrivalPos="172.76" arrivalSpeed="13.16" duration="49.00" routeLength="370.53" waitingTime="13.00" waitingCount="1" stopTime="0.00" timeLoss="20.89" rerouteNo="1" devices="tripinfo_h330c1:1 routing_h330c1:1 emissions_h330c1:1" vType="default_016" speedFactor="1.00" vaporized="">
        <emissions CO_abs="3049.911564" CO2_abs="129598.129920" HC_abs="16.945300" PMx_abs="2.517066" NOx_abs="54.568530" fuel_abs="55.709238" electricity_abs="0"/>
    </tripinfo>
    <tripinfo id="carIn118591:1" depart="57689.00" departLane="315358244_1" departPos="5.10" departSpeed="0.00" departDelay="0.20" arrival="57790.00" arrivalLane="386687235_1" arrivalPos="80.84" arrivalSpeed="12.82" duration="101.00" routeLength="1186.14" waitingTime="0.00" waitingCount="0" stopTime="0.00" timeLoss="9.33" rerouteNo="1" devices="tripinfo_carIn118591:1 routing_carIn118591:1 emissions_carIn118591:1" vType="default_016" speedFactor="0.95" vaporized="">
        <emissions CO_abs="2759.014241" CO2_abs="230553.982854" HC_abs="17.911731" PMx_abs="3.533438" NOx_abs="89.869105" fuel_abs="99.105540" electricity_abs="0"/>
    </tripinfo>
    <tripinfo id="carIn12365:1" depart="57713.00" departLane="315358244_1" departPos="5.10" departSpeed="0.00" departDelay="0.50" arrival="57790.00" arrivalLane="447569997#1_1" arrivalPos="180.93" arrivalSpeed="6.81" duration="77.00" routeLength="718.04" waitingTime="0.00" waitingCount="0" stopTime="0.00" timeLoss="8.15" rerouteNo="1" devices="tripinfo_carIn12365:1 routing_carIn12365:1 emissions_carIn12365:1" vType="default_016" speedFactor="0.89" vaporized="">
        <emissions CO_abs="2551.116713" CO2_abs="157621.589256" HC_abs="15.241025" PMx_abs="2.388788" NOx_abs="62.011088" fuel_abs="67.755480" electricity_abs="0"/>
    </tripinfo>
    <tripinfo id="carIn86816:1" depart="57617.00" departLane="128361102#0_1" departPos="5.10" departSpeed="0.00" departDelay="0.80" arrival="57799.00" arrivalLane="201956811#0_1" arrivalPos="40.40" arrivalSpeed="13.27" duration="182.00" routeLength="2067.33" waitingTime="2.00" waitingCount="1" stopTime="0.00" timeLoss="24.14" rerouteNo="1" devices="tripinfo_carIn86816:1 routing_carIn86816:1 emissions_carIn86816:1" vType="default_016" speedFactor="0.96" vaporized="">
        <emissions CO_abs="5069.150469" CO2_abs="412208.023025" HC_abs="32.666471" PMx_abs="6.436520" NOx_abs="161.626500" fuel_abs="177.190952" electricity_abs="0"/>
    </tripinfo>
    <tripinfo id="carIn50326:1" depart="57651.00" departLane="128361102#0_1" departPos="5.10" departSpeed="0.00" departDelay="0.30" arrival="57800.00" arrivalLane="18809673#0_1" arrivalPos="473.56" arrivalSpeed="13.90" duration="149.00" routeLength="1591.07" waitingTime="7.00" waitingCount="1" stopTime="0.00" timeLoss="28.39" rerouteNo="1" devices="tripinfo_carIn50326:1 routing_carIn50326:1 emissions_carIn50326:1" vType="default_016" speedFactor="1.07" vaporized="">
        <emissions CO_abs="5735.181320" CO2_abs="367798.662509" HC_abs="34.551319" PMx_abs="6.149049" NOx_abs="147.022929" fuel_abs="158.101597" electricity_abs="0"/>
    </tripinfo>
    <tripinfo id="carIn107282:1" depart="57749.00" departLane="-447569998#1_1" departPos="5.10" departSpeed="0.00" departDelay="0.00" arrival="57801.00" arrivalLane="315358242#0_1" arrivalPos="165.37" arrivalSpeed="12.01" duration="52.00" routeLength="448.50" waitingTime="0.00" waitingCount="0" stopTime="0.00" timeLoss="5.08" rerouteNo="1" devices="tripinfo_carIn107282:1 routing_carIn107282:1 emissions_carIn107282:1" vType="default_016" speedFactor="0.90" vaporized="">
        <emissions CO_abs="1957.836071" CO2_abs="108332.669281" HC_abs="11.411410" PMx_abs="1.715949" NOx_abs="43.281784" fuel_abs="46.568105" electricity_abs="0"/>
    </tripinfo>
    <tripinfo id="carIn102915:1" depart="57643.00" departLane="128361102#0_1" departPos="5.10" departSpeed="0.00" departDelay="0.40" arrival="57808.00" arrivalLane="201956811#0_1" arrivalPos="40.40" arrivalSpeed="13.00" duration="165.00" routeLength="2067.33" waitingTime="0.00" waitingCount="0" stopTime="0.00" timeLoss="17.30" rerouteNo="1" devices="tripinfo_carIn102915:1 routing_carIn102915:1 emissions_carIn102915:1" vType="default_016" speedFactor="1.02" vaporized="">
        <emissions CO_abs="4980.140932" CO2_abs="435363.171048" HC_abs="32.827312" PMx_abs="6.985869" NOx_abs="171.103700" fuel_abs="187.143851" electricity_abs="0"/>
    </tripinfo>
    <tripinfo id="randUni33724:1" depart="57646.00" departLane="128361102#0_1" departPos="5.10" departSpeed="0.00" departDelay="1.20" arrival="57811.00" arrivalLane="201956811#0_1" arrivalPos="40.40" arrivalSpeed="14.38" duration="165.00" routeLength="2067.33" waitingTime="0.00" waitingCount="0" stopTime="0.00" timeLoss="26.79" rerouteNo="1" devices="tripinfo_randUni33724:1 routing_randUni33724:1 emissions_randUni33724:1" vType="random_016" speedFactor="1.10" vaporized="">
        <emissions CO_abs="5904.697030" CO2_abs="472828.172422" HC_abs="37.957943" PMx_abs="8.118593" NOx_abs="189.736619" fuel_abs="203.247996" electricity_abs="0"/>
    </tripinfo>
    <tripinfo id="h11737c1:1" depart="57665.00" departLane="272042143_1" departPos="5.10" departSpeed="0.00" departDelay="1.50" arrival="57816.00" arrivalLane="-315358254#1_1" arrivalPos="137.16" arrivalSpeed="13.97" duration="151.00" routeLength="1596.88" waitingTime="17.00" waitingCount="1" stopTime="0.00" timeLoss="37.89" rerouteNo="1" devices="tripinfo_h11737c1:1 routing_h11737c1:1 emissions_h11737c1:1" vType="default_016" speedFactor="1.03" vaporized="">
        <emissions CO_abs="6097.684733" CO2_abs="345305.506623" HC_abs="35.795025" PMx_abs="6.029822" NOx_abs="139.529363" fuel_abs="148.432960" electricity_abs="0"/>
    </tripinfo>
    <tripinfo id="carIn126288:1" depart="57674.00" departLane="272042143_1" departPos="5.10" departSpeed="0.00" departDelay="0.00" arrival="57818.00" arrivalLane="-315358254#1_1" arrivalPos="137.16" arrivalSpeed="15.85" duration="144.00" routeLength="1596.88" waitingTime="17.00" waitingCount="1" stopTime="0.00" timeLoss="43.40" rerouteNo="1" devices="tripinfo_carIn126288:1 routing_carIn126288:1 emissions_carIn126288:1" vType="default_016" speedFactor="1.16" vaporized="">
        <emissions CO_abs="6378.135180" CO2_abs="401947.584253" HC_abs="38.392917" PMx_abs="7.147254" NOx_abs="162.567961" fuel_abs="172.780361" electricity_abs="0"/>
    </tripinfo>
    <tripinfo id="carIn77943:1" depart="57608.00" departLane="124812856#0_1" departPos="5.10" departSpeed="0.00" departDelay="2.50" arrival="57820.00" arrivalLane="-128361102#1_1" arrivalPos="274.68" arrivalSpeed="11.26" duration="212.00" routeLength="2250.49" waitingTime="0.00" waitingCount="0" stopTime="0.00" timeLoss="18.15" rerouteNo="1" devices="tripinfo_carIn77943:1 routing_carIn77943:1 emissions_carIn77943:1" vType="default_016" speedFactor="0.85" vaporized="">
        <emissions CO_abs="5463.916926" CO2_abs="428879.348732" HC_abs="34.743631" PMx_abs="6.202611" NOx_abs="165.900889" fuel_abs="184.358078" electricity_abs="0"/>
    </tripinfo>
    <tripinfo id="h3864c1:3" depart="57678.00" departLane="24693977#1_1" departPos="5.10" departSpeed="0.00" departDelay="0.00" arrival="57821.00" arrivalLane="201956820_2" arrivalPos="48.33" arrivalSpeed="14.88" duration="143.00" routeLength="1574.85" waitingTime="5.00" waitingCount="1" stopTime="0.00" timeLoss="29.12" rerouteNo="1" devices="tripinfo_h3864c1:3 routing_h3864c1:3 emissions_h3864c1:3" vType="default_016" speedFactor="1.14" vaporized="">
        <emissions CO_abs="6036.941805" CO2_abs="410693.022050" HC_abs="37.133190" PMx_abs="7.359855" NOx_abs="167.773546" fuel_abs="176.539039" electricity_abs="0"/>
    </tripinfo>
    <tripinfo id="carIn77438:1" depart="57614.00" departLane="124812856#0_1" departPos="5.10" departSpeed="0.00" departDelay="1.10" arrival="57822.00" arrivalLane="-128361102#1_1" arrivalPos="274.68" arrivalSpeed="12.92" duration="208.00" routeLength="2250.49" waitingTime="0.00" waitingCount="0" stopTime="0.00" timeLoss="43.64" rerouteNo="1" devices="tripinfo_carIn77438:1 routing_carIn77438:1 emissions_carIn77438:1" vType="default_016" speedFactor="1.00" vaporized="">
        <emissions CO_abs="6990.541346" CO2_abs="511393.573812" HC_abs="43.771907" PMx_abs="8.537398" NOx_abs="205.632505" fuel_abs="219.826256" electricity_abs="0"/>
    </tripinfo>
    <tripinfo id="carIn82220:1" depart="57619.00" departLane="-306240162#1_0" departPos="5.10" departSpeed="0.00" departDelay="3.50" arrival="57823.00" arrivalLane="386687235_1" arrivalPos="80.84" arrivalSpeed="14.71" duration="204.00" routeLength="2257.41" waitingTime="20.00" waitingCount="2" stopTime="0.00" timeLoss="68.02" rerouteNo="1" devices="tripinfo_carIn82220:1 routing_carIn82220:1 emissions_carIn82220:1" vType="default_016" speedFactor="1.09" vaporized="">
        <emissions CO_abs="8997.925561" CO2_abs="563873.576873" HC_abs="54.259419" PMx_abs="10.356577" NOx_abs="230.741638" fuel_abs="242.385038" electricity_abs="0"/>
    </tripinfo>
    <tripinfo id="carIn107842:1" depart="57623.00" departLane="124812856#0_1" departPos="5.10" departSpeed="0.00" departDelay="1.90" arrival="57823.00" arrivalLane="-128361102#1_1" arrivalPos="274.68" arrivalSpeed="13.45" duration="200.00" routeLength="2250.49" waitingTime="0.00" waitingCount="0" stopTime="0.00" timeLoss="41.63" rerouteNo="1" devices="tripinfo_carIn107842:1 routing_carIn107842:1 emissions_carIn107842:1" vType="default_016" speedFactor="1.04" vaporized="">
        <emissions CO_abs="7688.782974" CO2_abs="547711.122822" HC_abs="47.925484" PMx_abs="9.778333" NOx_abs="224.270867" fuel_abs="235.436831" electricity_abs="0"/>
    </tripinfo>
    <tripinfo id="carIn462:1" depart="57622.00" departLane="-306240162#1_0" departPos="5.10" departSpeed="0.00" departDelay="4.80" arrival="57824.00" arrivalLane="386687235_2" arrivalPos="80.84" arrivalSpeed="13.91" duration="202.00" routeLength="2257.41" waitingTime="17.00" waitingCount="2" stopTime="0.00" timeLoss="57.34" rerouteNo="1" devices="tripinfo_carIn462:1 routing_carIn462:1 emissions_carIn462:1" vType="default_016" speedFactor="1.03" vaporized="">
        <emissions CO_abs="9723.124035" CO2_abs="610185.332643" HC_abs="58.559978" PMx_abs="10.989122" NOx_abs="247.800287" fuel_abs="262.292834" electricity_abs="0"/>
    </tripinfo>
    <tripinfo id="carIn48184:1" depart="57613.00" departLane="-306240162#1_0" departPos="5.10" departSpeed="0.00" departDelay="0.70" arrival="57826.00" arrivalLane="386687235_1" arrivalPos="80.84" arrivalSpeed="12.07" duration="213.00" routeLength="2257.41" waitingTime="15.00" waitingCount="2" stopTime="0.00" timeLoss="43.56" rerouteNo="1" devices="tripinfo_carIn48184:1 routing_carIn48184:1 emissions_carIn48184:1" vType="default_016" speedFactor="0.87" vaporized="">
        <emissions CO_abs="7701.871964" CO2_abs="489548.923426" HC_abs="46.550432" PMx_abs="8.429557" NOx_abs="197.290121" fuel_abs="210.436775" electricity_abs="0"/>
    </tripinfo>
    <tripinfo id="carIn81860:1" depart="57712.00" departLane="128361102#0_1" departPos="5.10" departSpeed="0.00" departDelay="0.60" arrival="57826.00" arrivalLane="-24634517#17_1" arrivalPos="6.43" arrivalSpeed="7.99" duration="114.00" routeLength="1229.64" waitingTime="7.00" waitingCount="1" stopTime="0.00" timeLoss="26.04" rerouteNo="1" devices="tripinfo_carIn81860:1 routing_carIn81860:1 emissions_carIn81860:1" vType="default_016" speedFactor="1.04" vaporized="">
        <emissions CO_abs="4228.647932" CO2_abs="286454.121919" HC_abs="26.002159" PMx_abs="5.028876" NOx_abs="116.155971" fuel_abs="123.134350" electricity_abs="0"/>
    </tripinfo>
    <tripinfo id="randUni14624:1" depart="57606.00" departLane="315358244_1" departPos="5.10" departSpeed="0.00" departDelay="0.80" arrival="57827.00" arrivalLane="-25149001#4_1" arrivalPos="105.67" arrivalSpeed="9.23" duration="221.00" routeLength="2803.98" waitingTime="12.00" waitingCount="1" stopTime="0.00" timeLoss="32.15" rerouteNo="1" devices="tripinfo_randUni14624:1 routing_randUni14624:1 emissions_randUni14624:1" vType="random_016" speedFactor="1.12" vaporized="">
        <emissions CO_abs="5771.371783" CO2_abs="512266.615405" HC_abs="37.602984" PMx_abs="8.082072" NOx_abs="198.166547" fuel_abs="220.201578" electricity_abs="0"/>
    </tripinfo>
    <tripinfo id="h16072c2:3" depart="57663.00" departLane="315358254#0_1" departPos="5.10" departSpeed="0.00" departDelay="2.50" arrival="57827.00" arrivalLane="386687235_2" arrivalPos="80.84" arrivalSpeed="14.79" duration="164.00" routeLength="1611.92" waitingTime="16.00" waitingCount="2" stopTime="0.00" timeLoss="54.52" rerouteNo="1" devices="tripinfo_h16072c2:3 routing_h16072c2:3 emissions_h16072c2:3" vType="default_016" speedFactor="1.08" vaporized="">
        <emissions CO_abs="6754.039753" CO2_abs="414231.025394" HC_abs="40.416824" PMx_abs="7.300849" NOx_abs="167.916954" fuel_abs="178.060677" electricity_abs="0"/>
    </tripinfo>
    <tripinfo id="carIn116184:1" depart="57627.00" departLane="-306240162#1_0" departPos="5.10" departSpeed="0.00" departDelay="0.10" arrival="57829.00" arrivalLane="386687235_1" arrivalPos="80.84" arrivalSpeed="13.10" duration="202.00" routeLength="2257.41" waitingTime="19.00" waitingCount="2" stopTime="0.00" timeLoss="50.08" rerouteNo="1" devices="tripinfo_carIn116184:1 routing_carIn116184:1 emissions_carIn116184:1" vType="default_016" speedFactor="0.98" vaporized="">
        <emissions CO_abs="7563.116113" CO2_abs="524994.967159" HC_abs="46.780085" PMx_abs="9.064211" NOx_abs="210.129999" fuel_abs="225.673089" electricity_abs="0"/>
    </tripinfo>
    <tripinfo id="carIn82278:1" depart="57702.00" departLane="-306240162#1_0" departPos="5.10" departSpeed="0.00" departDelay="0.70" arrival="57829.00" arrivalLane="399835085#1_1" arrivalPos="212.23" arrivalSpeed="6.36" duration="127.00" routeLength="1093.26" waitingTime="12.00" waitingCount="1" stopTime="0.00" timeLoss="38.85" rerouteNo="1" devices="tripinfo_carIn82278:1 routing_carIn82278:1 emissions_carIn82278:1" vType="default_016" speedFactor="0.88" vaporized="">
        <emissions CO_abs="6397.511921" CO2_abs="324195.547721" HC_abs="36.746507" PMx_abs="6.030381" NOx_abs="134.019960" fuel_abs="139.358589" electricity_abs="0"/>
    </tripinfo>
    <tripinfo id="carIn100288:1" depart="57664.00" departLane="128361102#0_1" departPos="5.10" departSpeed="0.00" departDelay="0.60" arrival="57830.00" arrivalLane="201956811#0_1" arrivalPos="40.40" arrivalSpeed="13.78" duration="166.00" routeLength="2067.33" waitingTime="0.00" waitingCount="0" stopTime="0.00" timeLoss="16.42" rerouteNo="1" devices="tripinfo_carIn100288:1 routing_carIn100288:1 emissions_carIn100288:1" vType="default_016" speedFactor="1.01" vaporized="">
        <emissions CO_abs="4618.836201" CO2_abs="414585.757258" HC_abs="30.649366" PMx_abs="6.596869" NOx_abs="162.529971" fuel_abs="178.212514" electricity_abs="0"/>
    </tripinfo>