<?xml version="1.0" encoding="UTF-8"?>

<!-- generated on 2021-10-26 12:45:37 by Eclipse SUMO sumo Version 1.10.0
<configuration xmlns:xsi="http://www.w3.org/2001/XMLSchema-instance" xsi:noNamespaceSchemaLocation="http://sumo.dlr.de/xsd/sumoConfiguration.xsd">

    <input>
        <net-file value="/Users/behradkoohy/sumo-scratchpad/RESCO/environments/ingolstadt21/ingolstadt21.net.xml"/>
        <route-files value="/Users/behradkoohy/sumo-scratchpad/RESCO/environments/ingolstadt21/ingolstadt21.rou.xml"/>
    </input>

    <output>
        <tripinfo-output value="/Users/behradkoohy/sumo-scratchpad/RESCO/logs/MAXPRESSURE-tr0-ingolstadt21-21-mplight-wait/tripinfo_10.xml"/>
        <tripinfo-output.write-unfinished value="true"/>
    </output>

    <time>
        <begin value="57600"/>
        <end value="61200"/>
    </time>

    <processing>
        <time-to-teleport value="-1"/>
    </processing>

    <report>
        <no-warnings value="true"/>
        <no-step-log value="true"/>
    </report>

    <emissions>
        <device.emissions.probability value="1"/>
    </emissions>

    <traci_server>
        <remote-port value="58426"/>
    </traci_server>

    <random_number>
        <random value="true"/>
    </random_number>

</configuration>
-->

<tripinfos xmlns:xsi="http://www.w3.org/2001/XMLSchema-instance" xsi:noNamespaceSchemaLocation="http://sumo.dlr.de/xsd/tripinfo_file.xsd">
    <tripinfo id="h15454c2:3" depart="57612.00" departLane="24608844_1" departPos="5.10" departSpeed="0.00" departDelay="0.50" arrival="57648.00" arrivalLane="32978638#0_1" arrivalPos="49.29" arrivalSpeed="15.97" duration="36.00" routeLength="354.79" waitingTime="0.00" waitingCount="0" stopTime="0.00" timeLoss="7.29" rerouteNo="1" devices="tripinfo_h15454c2:3 routing_h15454c2:3 emissions_h15454c2:3" vType="default_016" speedFactor="1.22" vaporized="">
        <emissions CO_abs="2127.302191" CO2_abs="134671.761562" HC_abs="12.843125" PMx_abs="2.421115" NOx_abs="55.296176" fuel_abs="57.889614" electricity_abs="0"/>
    </tripinfo>
    <tripinfo id="carIn60260:1" depart="57606.00" departLane="315358254#0_1" departPos="5.10" departSpeed="0.00" departDelay="0.90" arrival="57663.00" arrivalLane="399835085#1_1" arrivalPos="212.23" arrivalSpeed="6.69" duration="57.00" routeLength="430.98" waitingTime="0.00" waitingCount="0" stopTime="0.00" timeLoss="7.60" rerouteNo="1" devices="tripinfo_carIn60260:1 routing_carIn60260:1 emissions_carIn60260:1" vType="default_016" speedFactor="0.94" vaporized="">
        <emissions CO_abs="2296.205295" CO2_abs="113308.770583" HC_abs="13.049481" PMx_abs="1.762604" NOx_abs="45.297353" fuel_abs="48.707379" electricity_abs="0"/>
    </tripinfo>
    <tripinfo id="carIn53971:1" depart="57640.00" departLane="272042143_1" departPos="5.10" departSpeed="0.00" departDelay="0.80" arrival="57700.00" arrivalLane="24634414#1_1" arrivalPos="162.19" arrivalSpeed="6.16" duration="60.00" routeLength="493.04" waitingTime="0.00" waitingCount="0" stopTime="0.00" timeLoss="8.47" rerouteNo="1" devices="tripinfo_carIn53971:1 routing_carIn53971:1 emissions_carIn53971:1" vType="default_016" speedFactor="0.89" vaporized="">
        <emissions CO_abs="2535.943897" CO2_abs="136993.097179" HC_abs="14.701734" PMx_abs="2.172726" NOx_abs="54.832476" fuel_abs="58.888174" electricity_abs="0"/>
    </tripinfo>
    <tripinfo id="S5R_frequency1.2" depart="57615.00" departLane="315358250#0_1" departPos="12.10" departSpeed="0.00" departDelay="3.40" arrival="57708.00" arrivalLane="386687235_1" arrivalPos="80.84" arrivalSpeed="13.69" duration="93.00" routeLength="1115.62" waitingTime="0.00" waitingCount="0" stopTime="0.00" timeLoss="11.08" rerouteNo="1" devices="tripinfo_S5R_frequency1.2 routing_S5R_frequency1.2 emissions_S5R_frequency1.2" vType="bus" speedFactor="1.00" vaporized="">
        <emissions CO_abs="1725.126828" CO2_abs="1092782.950259" HC_abs="364.633335" PMx_abs="185.307832" NOx_abs="8444.991271" fuel_abs="466.065476" electricity_abs="0"/>
    </tripinfo>
    <tripinfo id="carIn22761:1" depart="57616.00" departLane="-306240162#1_0" departPos="5.10" departSpeed="0.00" departDelay="2.10" arrival="57708.00" arrivalLane="399835085#1_1" arrivalPos="212.23" arrivalSpeed="9.55" duration="92.00" routeLength="1093.26" waitingTime="6.00" waitingCount="1" stopTime="0.00" timeLoss="25.08" rerouteNo="1" devices="tripinfo_carIn22761:1 routing_carIn22761:1 emissions_carIn22761:1" vType="default_016" speedFactor="1.17" vaporized="">
        <emissions CO_abs="5402.191178" CO2_abs="324075.755790" HC_abs="32.377752" PMx_abs="6.401523" NOx_abs="134.209502" fuel_abs="139.305907" electricity_abs="0"/>
    </tripinfo>
    <tripinfo id="h12244c1:3" depart="57612.00" departLane="315358244_1" departPos="5.10" departSpeed="0.00" departDelay="0.40" arrival="57716.00" arrivalLane="386687235_1" arrivalPos="80.84" arrivalSpeed="12.08" duration="104.00" routeLength="1186.14" waitingTime="0.00" waitingCount="0" stopTime="0.00" timeLoss="8.88" rerouteNo="1" devices="tripinfo_h12244c1:3 routing_h12244c1:3 emissions_h12244c1:3" vType="default_016" speedFactor="0.91" vaporized="">
        <emissions CO_abs="2443.600363" CO2_abs="213376.410233" HC_abs="16.036872" PMx_abs="3.014315" NOx_abs="81.549680" fuel_abs="91.721913" electricity_abs="0"/>
    </tripinfo>
    <tripinfo id="carIn80064:1" depart="57603.00" departLane="128361109#1_1" departPos="5.10" departSpeed="0.00" departDelay="0.40" arrival="57723.00" arrivalLane="-315358254#1_1" arrivalPos="137.16" arrivalSpeed="13.66" duration="120.00" routeLength="1587.97" waitingTime="8.00" waitingCount="1" stopTime="0.00" timeLoss="31.06" rerouteNo="1" devices="tripinfo_carIn80064:1 routing_carIn80064:1 emissions_carIn80064:1" vType="default_016" speedFactor="1.01" vaporized="">
        <emissions CO_abs="6833.429568" CO2_abs="462145.078307" HC_abs="42.116217" PMx_abs="9.078008" NOx_abs="191.240263" fuel_abs="198.655128" electricity_abs="0"/>
    </tripinfo>
    <tripinfo id="h7800c1:5" depart="57696.00" departLane="-447569998#1_1" departPos="5.10" departSpeed="0.00" departDelay="0.00" arrival="57725.00" arrivalLane="-447569998#1_2" arrivalPos="180.76" arrivalSpeed="4.14" duration="29.00" routeLength="175.66" waitingTime="3.00" waitingCount="1" stopTime="0.00" timeLoss="9.45" rerouteNo="1" devices="tripinfo_h7800c1:5 routing_h7800c1:5 emissions_h7800c1:5" vType="default_016" speedFactor="1.10" vaporized="">
        <emissions CO_abs="1332.061853" CO2_abs="56301.548493" HC_abs="7.360547" PMx_abs="0.944453" NOx_abs="23.028707" fuel_abs="24.202068" electricity_abs="0"/>
    </tripinfo>
    <tripinfo id="h3568c1:3" depart="57656.00" departLane="266565295#5_1" departPos="5.10" departSpeed="0.00" departDelay="0.80" arrival="57729.00" arrivalLane="-24634415_1" arrivalPos="62.03" arrivalSpeed="13.89" duration="73.00" routeLength="807.40" waitingTime="0.00" waitingCount="0" stopTime="0.00" timeLoss="12.83" rerouteNo="1" devices="tripinfo_h3568c1:3 routing_h3568c1:3 emissions_h3568c1:3" vType="default_016" speedFactor="1.07" vaporized="">
        <emissions CO_abs="3032.527167" CO2_abs="203621.300226" HC_abs="18.548418" PMx_abs="3.552365" NOx_abs="82.663712" fuel_abs="87.528093" electricity_abs="0"/>
    </tripinfo>
    <tripinfo id="h3688c1:1" depart="57625.00" departLane="201201950#1_1" departPos="5.10" departSpeed="0.00" departDelay="0.00" arrival="57733.00" arrivalLane="32978638#0_1" arrivalPos="49.29" arrivalSpeed="12.54" duration="108.00" routeLength="1089.75" waitingTime="7.00" waitingCount="1" stopTime="0.00" timeLoss="22.29" rerouteNo="1" devices="tripinfo_h3688c1:1 routing_h3688c1:1 emissions_h3688c1:1" vType="default_016" speedFactor="0.93" vaporized="">
        <emissions CO_abs="4252.694145" CO2_abs="270276.728420" HC_abs="25.676931" PMx_abs="4.542932" NOx_abs="108.733683" fuel_abs="116.180870" electricity_abs="0"/>
    </tripinfo>
    <tripinfo id="h9563c2:5" depart="57631.00" departLane="315358244_1" departPos="5.10" departSpeed="0.00" departDelay="0.70" arrival="57733.00" arrivalLane="386687235_1" arrivalPos="80.84" arrivalSpeed="12.80" duration="102.00" routeLength="1186.14" waitingTime="3.00" waitingCount="1" stopTime="0.00" timeLoss="14.65" rerouteNo="1" devices="tripinfo_h9563c2:5 routing_h9563c2:5 emissions_h9563c2:5" vType="default_016" speedFactor="0.99" vaporized="">
        <emissions CO_abs="2813.777920" CO2_abs="231594.379390" HC_abs="18.175716" PMx_abs="3.614020" NOx_abs="90.490610" fuel_abs="99.552717" electricity_abs="0"/>
    </tripinfo>
    <tripinfo id="h7181c1:1" depart="57660.00" departLane="315358254#0_1" departPos="5.10" departSpeed="0.00" departDelay="0.10" arrival="57750.00" arrivalLane="306240162#0_0" arrivalPos="220.43" arrivalSpeed="17.15" duration="90.00" routeLength="932.35" waitingTime="19.00" waitingCount="2" stopTime="0.00" timeLoss="41.49" rerouteNo="1" devices="tripinfo_h7181c1:1 routing_h7181c1:1 emissions_h7181c1:1" vType="default_016" speedFactor="1.06" vaporized="">
        <emissions CO_abs="6850.488967" CO2_abs="363721.388841" HC_abs="39.917486" PMx_abs="7.528594" NOx_abs="154.075027" fuel_abs="156.347835" electricity_abs="0"/>
    </tripinfo>
    <tripinfo id="h317c2:1" depart="57707.00" departLane="-32978638#0_1" departPos="5.10" departSpeed="0.00" departDelay="0.10" arrival="57755.00" arrivalLane="-266565295#5_1" arrivalPos="172.76" arrivalSpeed="12.93" duration="48.00" routeLength="370.53" waitingTime="10.00" waitingCount="1" stopTime="0.00" timeLoss="20.18" rerouteNo="1" devices="tripinfo_h317c2:1 routing_h317c2:1 emissions_h317c2:1" vType="default_016" speedFactor="1.00" vaporized="">
        <emissions CO_abs="2663.425772" CO2_abs="126052.510870" HC_abs="15.102281" PMx_abs="2.402479" NOx_abs="52.777257" fuel_abs="54.184924" electricity_abs="0"/>
    </tripinfo>
    <tripinfo id="h5979c1:5" depart="57669.00" departLane="399835085#1_1" departPos="5.10" departSpeed="0.00" departDelay="0.00" arrival="57757.00" arrivalLane="-315358254#1_1" arrivalPos="137.16" arrivalSpeed="13.05" duration="88.00" routeLength="659.33" waitingTime="3.00" waitingCount="1" stopTime="0.00" timeLoss="16.81" rerouteNo="1" devices="tripinfo_h5979c1:5 routing_h5979c1:5 emissions_h5979c1:5" vType="default_016" speedFactor="1.03" vaporized="">
        <emissions CO_abs="3578.189735" CO2_abs="178143.201326" HC_abs="20.412207" PMx_abs="2.977024" NOx_abs="72.519066" fuel_abs="76.577038" electricity_abs="0"/>
    </tripinfo>
    <tripinfo id="carIn107084:1" depart="57601.00" departLane="124812856#0_1" departPos="5.10" departSpeed="0.00" departDelay="0.70" arrival="57762.00" arrivalLane="-128361102#1_1" arrivalPos="274.68" arrivalSpeed="15.67" duration="161.00" routeLength="2250.49" waitingTime="0.00" waitingCount="0" stopTime="0.00" timeLoss="15.88" rerouteNo="1" devices="tripinfo_carIn107084:1 routing_carIn107084:1 emissions_carIn107084:1" vType="default_016" speedFactor="1.13" vaporized="">
        <emissions CO_abs="4858.954203" CO2_abs="463330.672765" HC_abs="32.693829" PMx_abs="7.646080" NOx_abs="181.668234" fuel_abs="199.165301" electricity_abs="0"/>
    </tripinfo>
    <tripinfo id="carIn30817:1" depart="57681.00" departLane="315358244_1" departPos="5.10" departSpeed="0.00" departDelay="0.20" arrival="57762.00" arrivalLane="447569997#1_1" arrivalPos="180.93" arrivalSpeed="7.54" duration="81.00" routeLength="718.04" waitingTime="5.00" waitingCount="1" stopTime="0.00" timeLoss="17.07" rerouteNo="1" devices="tripinfo_carIn30817:1 routing_carIn30817:1 emissions_carIn30817:1" vType="default_016" speedFactor="0.97" vaporized="">
        <emissions CO_abs="2649.067999" CO2_abs="153233.641215" HC_abs="15.616538" PMx_abs="2.509838" NOx_abs="61.537877" fuel_abs="65.869123" electricity_abs="0"/>
    </tripinfo>
    <tripinfo id="h3326c1:2" depart="57656.00" departLane="22716069#0_1" departPos="5.10" departSpeed="0.00" departDelay="0.00" arrival="57769.00" arrivalLane="24634517#13_1" arrivalPos="111.62" arrivalSpeed="14.33" duration="113.00" routeLength="1312.81" waitingTime="0.00" waitingCount="0" stopTime="0.00" timeLoss="18.24" rerouteNo="1" devices="tripinfo_h3326c1:2 routing_h3326c1:2 emissions_h3326c1:2" vType="default_016" speedFactor="1.04" vaporized="">
        <emissions CO_abs="4452.623410" CO2_abs="325995.015368" HC_abs="27.867435" PMx_abs="5.609387" NOx_abs="131.354827" fuel_abs="140.131148" electricity_abs="0"/>
    </tripinfo>
    <tripinfo id="h3154c1:1" depart="57658.00" departLane="24634507_1" departPos="5.10" departSpeed="0.00" departDelay="0.00" arrival="57776.00" arrivalLane="-266565295#5_1" arrivalPos="172.76" arrivalSpeed="12.08" duration="118.00" routeLength="1206.22" waitingTime="5.00" waitingCount="1" stopTime="0.00" timeLoss="21.55" rerouteNo="1" devices="tripinfo_h3154c1:1 routing_h3154c1:1 emissions_h3154c1:1" vType="default_016" speedFactor="0.93" vaporized="">
        <emissions CO_abs="4350.700841" CO2_abs="279208.320378" HC_abs="26.329484" PMx_abs="4.680136" NOx_abs="112.260897" fuel_abs="120.020176" electricity_abs="0"/>
    </tripinfo>
    <tripinfo id="carIn12365:1" depart="57713.00" departLane="315358244_1" departPos="5.10" departSpeed="0.00" departDelay="0.50" arrival="57781.00" arrivalLane="447569997#1_1" arrivalPos="180.93" arrivalSpeed="8.18" duration="68.00" routeLength="718.04" waitingTime="0.00" waitingCount="0" stopTime="0.00" timeLoss="7.55" rerouteNo="1" devices="tripinfo_carIn12365:1 routing_carIn12365:1 emissions_carIn12365:1" vType="default_016" speedFactor="1.02" vaporized="">
        <emissions CO_abs="2321.716101" CO2_abs="156570.863064" HC_abs="14.159795" PMx_abs="2.528436" NOx_abs="62.235988" fuel_abs="67.303421" electricity_abs="0"/>
    </tripinfo>
    <tripinfo id="carIn86816:1" depart="57617.00" departLane="128361102#0_1" departPos="5.10" departSpeed="0.00" departDelay="0.80" arrival="57784.00" arrivalLane="201956811#0_1" arrivalPos="40.40" arrivalSpeed="13.34" duration="167.00" routeLength="2067.33" waitingTime="0.00" waitingCount="0" stopTime="0.00" timeLoss="16.01" rerouteNo="1" devices="tripinfo_carIn86816:1 routing_carIn86816:1 emissions_carIn86816:1" vType="default_016" speedFactor="1.00" vaporized="">
        <emissions CO_abs="4696.089702" CO2_abs="410224.866957" HC_abs="30.895234" PMx_abs="6.522991" NOx_abs="160.989137" fuel_abs="176.338050" electricity_abs="0"/>
    </tripinfo>
    <tripinfo id="h645c1:1" depart="57622.00" departLane="266565295#5_1" departPos="5.10" departSpeed="0.00" departDelay="0.40" arrival="57785.00" arrivalLane="-315358244_1" arrivalPos="33.95" arrivalSpeed="13.40" duration="163.00" routeLength="1910.83" waitingTime="12.00" waitingCount="1" stopTime="0.00" timeLoss="29.42" rerouteNo="1" devices="tripinfo_h645c1:1 routing_h645c1:1 emissions_h645c1:1" vType="default_016" speedFactor="1.04" vaporized="">
        <emissions CO_abs="4854.683741" CO2_abs="371448.766216" HC_abs="30.644996" PMx_abs="5.870835" NOx_abs="144.920556" fuel_abs="159.670493" electricity_abs="0"/>
    </tripinfo>
    <tripinfo id="h330c1:1" depart="57736.00" departLane="-32978638#0_1" departPos="5.10" departSpeed="0.00" departDelay="0.20" arrival="57786.00" arrivalLane="-266565295#5_1" arrivalPos="172.76" arrivalSpeed="13.04" duration="50.00" routeLength="370.53" waitingTime="12.00" waitingCount="1" stopTime="0.00" timeLoss="21.49" rerouteNo="1" devices="tripinfo_h330c1:1 routing_h330c1:1 emissions_h330c1:1" vType="default_016" speedFactor="0.95" vaporized="">
        <emissions CO_abs="2679.223004" CO2_abs="119128.196089" HC_abs="15.002127" PMx_abs="2.261665" NOx_abs="49.955545" fuel_abs="51.208576" electricity_abs="0"/>
    </tripinfo>
    <tripinfo id="carIn118591:1" depart="57689.00" departLane="315358244_1" departPos="5.10" departSpeed="0.00" departDelay="0.20" arrival="57787.00" arrivalLane="386687235_1" arrivalPos="80.84" arrivalSpeed="13.95" duration="98.00" routeLength="1186.14" waitingTime="1.00" waitingCount="1" stopTime="0.00" timeLoss="18.69" rerouteNo="1" devices="tripinfo_carIn118591:1 routing_carIn118591:1 emissions_carIn118591:1" vType="default_016" speedFactor="1.09" vaporized="">
        <emissions CO_abs="3653.004297" CO2_abs="271579.738307" HC_abs="22.885834" PMx_abs="4.646391" NOx_abs="108.593479" fuel_abs="116.740422" electricity_abs="0"/>
    </tripinfo>
    <tripinfo id="carIn50326:1" depart="57651.00" departLane="128361102#0_1" departPos="5.10" departSpeed="0.00" departDelay="0.30" arrival="57798.00" arrivalLane="18809673#0_1" arrivalPos="473.56" arrivalSpeed="14.81" duration="147.00" routeLength="1591.07" waitingTime="10.00" waitingCount="1" stopTime="0.00" timeLoss="34.09" rerouteNo="1" devices="tripinfo_carIn50326:1 routing_carIn50326:1 emissions_carIn50326:1" vType="default_016" speedFactor="1.15" vaporized="">
        <emissions CO_abs="6355.346964" CO2_abs="405847.248792" HC_abs="38.274281" PMx_abs="7.013327" NOx_abs="163.349141" fuel_abs="174.456835" electricity_abs="0"/>
    </tripinfo>
    <tripinfo id="carIn27009:1" depart="57673.00" departLane="-447569998#1_1" departPos="5.10" departSpeed="0.00" departDelay="0.50" arrival="57800.00" arrivalLane="-26677539_1" arrivalPos="152.75" arrivalSpeed="7.37" duration="127.00" routeLength="699.63" waitingTime="20.00" waitingCount="1" stopTime="0.00" timeLoss="35.43" rerouteNo="1" devices="tripinfo_carIn27009:1 routing_carIn27009:1 emissions_carIn27009:1" vType="default_015" speedFactor="0.92" vaporized="">
        <emissions CO_abs="6878.757990" CO2_abs="227447.090777" HC_abs="36.555292" PMx_abs="4.065636" NOx_abs="94.724557" fuel_abs="97.772447" electricity_abs="0"/>
    </tripinfo>
    <tripinfo id="carIn129809:1" depart="57729.00" departLane="-447569998#1_1" departPos="5.10" departSpeed="0.00" departDelay="1.00" arrival="57801.00" arrivalLane="-315358244_1" arrivalPos="33.95" arrivalSpeed="16.01" duration="72.00" routeLength="706.49" waitingTime="6.00" waitingCount="1" stopTime="0.00" timeLoss="21.30" rerouteNo="1" devices="tripinfo_carIn129809:1 routing_carIn129809:1 emissions_carIn129809:1" vType="default_015" speedFactor="1.19" vaporized="">
        <emissions CO_abs="3192.392431" CO2_abs="185901.095841" HC_abs="18.858428" PMx_abs="3.333076" NOx_abs="75.519439" fuel_abs="79.911212" electricity_abs="0"/>
    </tripinfo>
    <tripinfo id="h16072c2:3" depart="57663.00" departLane="315358254#0_1" departPos="5.10" departSpeed="0.00" departDelay="2.50" arrival="57803.00" arrivalLane="386687235_2" arrivalPos="80.84" arrivalSpeed="13.23" duration="140.00" routeLength="1611.92" waitingTime="3.00" waitingCount="1" stopTime="0.00" timeLoss="22.32" rerouteNo="1" devices="tripinfo_h16072c2:3 routing_h16072c2:3 emissions_h16072c2:3" vType="default_016" speedFactor="1.00" vaporized="">
        <emissions CO_abs="4316.359582" CO2_abs="348315.714778" HC_abs="27.767624" PMx_abs="5.611707" NOx_abs="137.330390" fuel_abs="149.726124" electricity_abs="0"/>
    </tripinfo>
    <tripinfo id="carIn48184:1" depart="57613.00" departLane="-306240162#1_0" departPos="5.10" departSpeed="0.00" departDelay="0.70" arrival="57804.00" arrivalLane="386687235_1" arrivalPos="80.84" arrivalSpeed="13.68" duration="191.00" routeLength="2257.41" waitingTime="16.00" waitingCount="2" stopTime="0.00" timeLoss="51.80" rerouteNo="1" devices="tripinfo_carIn48184:1 routing_carIn48184:1 emissions_carIn48184:1" vType="default_016" speedFactor="1.07" vaporized="">
        <emissions CO_abs="8482.348584" CO2_abs="569485.004366" HC_abs="52.010148" PMx_abs="10.370291" NOx_abs="230.089199" fuel_abs="244.797003" electricity_abs="0"/>
    </tripinfo>
    <tripinfo id="carIn82220:1" depart="57619.00" departLane="-306240162#1_0" departPos="5.10" departSpeed="0.00" departDelay="3.50" arrival="57806.00" arrivalLane="386687235_2" arrivalPos="80.84" arrivalSpeed="13.04" duration="187.00" routeLength="2257.41" waitingTime="5.00" waitingCount="1" stopTime="0.00" timeLoss="33.41" rerouteNo="1" devices="tripinfo_carIn82220:1 routing_carIn82220:1 emissions_carIn82220:1" vType="default_016" speedFactor="0.97" vaporized="">
        <emissions CO_abs="6521.507175" CO2_abs="520119.155168" HC_abs="41.932530" PMx_abs="8.747497" NOx_abs="206.139850" fuel_abs="223.576767" electricity_abs="0"/>
    </tripinfo>
    <tripinfo id="carIn102915:1" depart="57643.00" departLane="128361102#0_1" departPos="5.10" departSpeed="0.00" departDelay="0.40" arrival="57810.00" arrivalLane="201956811#0_1" arrivalPos="40.40" arrivalSpeed="13.59" duration="167.00" routeLength="2067.33" waitingTime="0.00" waitingCount="0" stopTime="0.00" timeLoss="17.65" rerouteNo="1" devices="tripinfo_carIn102915:1 routing_carIn102915:1 emissions_carIn102915:1" vType="default_016" speedFactor="1.02" vaporized="">
        <emissions CO_abs="5112.625757" CO2_abs="436960.688019" HC_abs="33.464252" PMx_abs="7.088809" NOx_abs="172.357644" fuel_abs="187.830519" electricity_abs="0"/>
    </tripinfo>
    <tripinfo id="carIn77943:1" depart="57608.00" departLane="124812856#0_1" departPos="5.10" departSpeed="0.00" departDelay="2.50" arrival="57811.00" arrivalLane="-128361102#1_1" arrivalPos="274.68" arrivalSpeed="12.17" duration="203.00" routeLength="2250.49" waitingTime="0.00" waitingCount="0" stopTime="0.00" timeLoss="18.64" rerouteNo="1" devices="tripinfo_carIn77943:1 routing_carIn77943:1 emissions_carIn77943:1" vType="default_016" speedFactor="0.89" vaporized="">
        <emissions CO_abs="5184.445494" CO2_abs="421346.629809" HC_abs="33.357822" PMx_abs="6.345461" NOx_abs="164.229178" fuel_abs="181.119561" electricity_abs="0"/>
    </tripinfo>
    <tripinfo id="h11737c1:1" depart="57665.00" departLane="272042143_1" departPos="5.10" departSpeed="0.00" departDelay="1.50" arrival="57816.00" arrivalLane="-315358254#1_1" arrivalPos="137.16" arrivalSpeed="14.22" duration="151.00" routeLength="1596.88" waitingTime="30.00" waitingCount="1" stopTime="0.00" timeLoss="46.09" rerouteNo="1" devices="tripinfo_h11737c1:1 routing_h11737c1:1 emissions_h11737c1:1" vType="default_016" speedFactor="1.12" vaporized="">
        <emissions CO_abs="8548.926600" CO2_abs="407575.901073" HC_abs="48.319144" PMx_abs="7.549448" NOx_abs="166.628516" fuel_abs="175.201058" electricity_abs="0"/>
    </tripinfo>
    <tripinfo id="carIn81860:1" depart="57712.00" departLane="128361102#0_1" departPos="5.10" departSpeed="0.00" departDelay="0.60" arrival="57818.00" arrivalLane="-24634517#17_1" arrivalPos="6.43" arrivalSpeed="6.94" duration="106.00" routeLength="1229.64" waitingTime="1.00" waitingCount="1" stopTime="0.00" timeLoss="17.38" rerouteNo="1" devices="tripinfo_carIn81860:1 routing_carIn81860:1 emissions_carIn81860:1" vType="default_016" speedFactor="1.01" vaporized="">
        <emissions CO_abs="3566.932296" CO2_abs="263999.762869" HC_abs="22.406803" PMx_abs="4.383897" NOx_abs="105.122761" fuel_abs="113.482313" electricity_abs="0"/>
    </tripinfo>
    <tripinfo id="h19804c1:3" depart="57617.00" departLane="124812856#0_1" departPos="5.10" departSpeed="0.00" departDelay="1.50" arrival="57819.00" arrivalLane="-128361102#1_1" arrivalPos="274.68" arrivalSpeed="12.38" duration="202.00" routeLength="2250.49" waitingTime="0.00" waitingCount="0" stopTime="0.00" timeLoss="19.36" rerouteNo="1" devices="tripinfo_h19804c1:3 routing_h19804c1:3 emissions_h19804c1:3" vType="default_016" speedFactor="0.90" vaporized="">
        <emissions CO_abs="5355.294739" CO2_abs="426851.831683" HC_abs="34.288325" PMx_abs="6.579419" NOx_abs="167.406848" fuel_abs="183.485873" electricity_abs="0"/>
    </tripinfo>
    <tripinfo id="carIn126288:1" depart="57674.00" departLane="272042143_1" departPos="5.10" departSpeed="0.00" departDelay="0.00" arrival="57819.00" arrivalLane="-315358254#1_1" arrivalPos="137.16" arrivalSpeed="13.11" duration="145.00" routeLength="1596.88" waitingTime="5.00" waitingCount="1" stopTime="0.00" timeLoss="22.76" rerouteNo="1" devices="tripinfo_carIn126288:1 routing_carIn126288:1 emissions_carIn126288:1" vType="default_016" speedFactor="0.95" vaporized="">
        <emissions CO_abs="4603.382060" CO2_abs="342219.690732" HC_abs="28.927370" PMx_abs="5.445637" NOx_abs="134.985269" fuel_abs="147.106069" electricity_abs="0"/>
    </tripinfo>
    <tripinfo id="carIn12152:1" depart="57647.00" departLane="24599188#0.94_1" departPos="5.10" departSpeed="0.00" departDelay="0.50" arrival="57821.00" arrivalLane="-315358254#1_1" arrivalPos="137.16" arrivalSpeed="13.80" duration="174.00" routeLength="2034.31" waitingTime="4.00" waitingCount="1" stopTime="0.00" timeLoss="25.79" rerouteNo="1" devices="tripinfo_carIn12152:1 routing_carIn12152:1 emissions_carIn12152:1" vType="default_016" speedFactor="1.07" vaporized="">
        <emissions CO_abs="5105.066841" CO2_abs="410360.213918" HC_abs="32.640835" PMx_abs="6.574603" NOx_abs="161.184092" fuel_abs="176.396498" electricity_abs="0"/>
    </tripinfo>
    <tripinfo id="carIn12858:1" depart="57661.00" departLane="128361109#1_1" departPos="5.10" departSpeed="0.00" departDelay="0.90" arrival="57824.00" arrivalLane="399835085#1_1" arrivalPos="212.23" arrivalSpeed="7.65" duration="163.00" routeLength="1738.12" waitingTime="20.00" waitingCount="2" stopTime="0.00" timeLoss="50.20" rerouteNo="1" devices="tripinfo_carIn12858:1 routing_carIn12858:1 emissions_carIn12858:1" vType="default_016" speedFactor="1.02" vaporized="">
        <emissions CO_abs="9296.574092" CO2_abs="530441.852950" HC_abs="54.969573" PMx_abs="10.230723" NOx_abs="218.610940" fuel_abs="228.014318" electricity_abs="0"/>
    </tripinfo>
    <tripinfo id="carIn107842:1" depart="57623.00" departLane="124812856#0_1" departPos="5.10" departSpeed="0.00" departDelay="1.90" arrival="57825.00" arrivalLane="-128361102#1_1" arrivalPos="274.68" arrivalSpeed="11.68" duration="202.00" routeLength="2250.49" waitingTime="0.00" waitingCount="0" stopTime="0.00" timeLoss="18.69" rerouteNo="1" devices="tripinfo_carIn107842:1 routing_carIn107842:1 emissions_carIn107842:1" vType="default_016" speedFactor="0.90" vaporized="">
        <emissions CO_abs="5110.145336" CO2_abs="449725.832569" HC_abs="33.633289" PMx_abs="6.446304" NOx_abs="172.709870" fuel_abs="193.318797" electricity_abs="0"/>
    </tripinfo>
    <tripinfo id="h15382c1:3" depart="57626.00" departLane="124812856#0_1" departPos="5.10" departSpeed="0.00" departDelay="3.80" arrival="57826.00" arrivalLane="-128361102#1_1" arrivalPos="274.68" arrivalSpeed="13.76" duration="200.00" routeLength="2250.49" waitingTime="0.00" waitingCount="0" stopTime="0.00" timeLoss="34.77" rerouteNo="1" devices="tripinfo_h15382c1:3 routing_h15382c1:3 emissions_h15382c1:3" vType="default_016" speedFactor="1.00" vaporized="">
        <emissions CO_abs="7027.774357" CO2_abs="524392.330991" HC_abs="44.289160" PMx_abs="8.937546" NOx_abs="211.642200" fuel_abs="225.413508" electricity_abs="0"/>
    </tripinfo>
    <tripinfo id="randUni15030:1" depart="57735.00" departLane="386687232#0_1" departPos="5.10" departSpeed="0.00" departDelay="0.10" arrival="57826.00" arrivalLane="26677539_1" arrivalPos="151.98" arrivalSpeed="7.72" duration="91.00" routeLength="919.89" waitingTime="0.00" waitingCount="0" stopTime="0.00" timeLoss="12.06" rerouteNo="1" devices="tripinfo_randUni15030:1 routing_randUni15030:1 emissions_randUni15030:1" vType="random_016" speedFactor="1.05" vaporized="">
        <emissions CO_abs="3512.510449" CO2_abs="226133.236517" HC_abs="21.257499" PMx_abs="3.710515" NOx_abs="90.521603" fuel_abs="97.205480" electricity_abs="0"/>
    </tripinfo>
    <tripinfo id="randUni10474:1" depart="57605.00" departLane="124812856#0_1" departPos="5.10" departSpeed="0.00" departDelay="0.20" arrival="57827.00" arrivalLane="306240162#0_0" arrivalPos="220.43" arrivalSpeed="18.44" duration="222.00" routeLength="3049.32" waitingTime="10.00" waitingCount="1" stopTime="0.00" timeLoss="45.79" rerouteNo="1" devices="tripinfo_randUni10474:1 routing_randUni10474:1 emissions_randUni10474:1" vType="random_016" speedFactor="1.12" vaporized="">
        <emissions CO_abs="11148.080559" CO2_abs="787187.046346" HC_abs="69.275370" PMx_abs="14.946858" NOx_abs="322.123514" fuel_abs="338.376241" electricity_abs="0"/>
    </tripinfo>
    <tripinfo id="carIn82278:1" depart="57702.00" departLane="-306240162#1_0" departPos="5.10" departSpeed="0.00" departDelay="0.70" arrival="57827.00" arrivalLane="399835085#1_1" arrivalPos="212.23" arrivalSpeed="7.17" duration="125.00" routeLength="1093.26" waitingTime="16.00" waitingCount="2" stopTime="0.00" timeLoss="45.20" rerouteNo="1" devices="tripinfo_carIn82278:1 routing_carIn82278:1 emissions_carIn82278:1" vType="default_016" speedFactor="0.99" vaporized="">
        <emissions CO_abs="6878.565017" CO2_abs="367376.148370" HC_abs="40.032498" PMx_abs="7.016662" NOx_abs="153.094773" fuel_abs="157.919592" electricity_abs="0"/>
    </tripinfo>
    <tripinfo id="carIn46110:1" depart="57684.00" departLane="315358244_1" departPos="5.10" departSpeed="0.00" departDelay="1.20" arrival="57828.00" arrivalLane="32978638#0_1" arrivalPos="49.29" arrivalSpeed="16.33" duration="144.00" routeLength="1764.04" waitingTime="12.00" waitingCount="2" stopTime="0.00" timeLoss="39.75" rerouteNo="1" devices="tripinfo_carIn46110:1 routing_carIn46110:1 emissions_carIn46110:1" vType="default_016" speedFactor="1.24" vaporized="">
        <emissions CO_abs="6164.756779" CO2_abs="450684.246120" HC_abs="38.526941" PMx_abs="8.193105" NOx_abs="182.258486" fuel_abs="193.729186" electricity_abs="0"/>
    </tripinfo>
    <tripinfo id="h3864c1:3" depart="57678.00" departLane="24693977#1_1" departPos="5.10" departSpeed="0.00" departDelay="0.00" arrival="57830.00" arrivalLane="201956820_2" arrivalPos="48.33" arrivalSpeed="12.84" duration="152.00" routeLength="1574.85" waitingTime="0.00" waitingCount="0" stopTime="0.00" timeLoss="19.31" rerouteNo="1" devices="tripinfo_h3864c1:3 routing_h3864c1:3 emissions_h3864c1:3" vType="default_016" speedFactor="0.98" vaporized="">
        <emissions CO_abs="5643.079225" CO2_abs="386298.720947" HC_abs="34.699646" PMx_abs="6.436118" NOx_abs="155.166572" fuel_abs="166.053659" electricity_abs="0"/>
    </tripinfo>