<?xml version="1.0" encoding="UTF-8"?>

<!-- generated on 2021-10-26 13:15:58 by Eclipse SUMO sumo Version 1.10.0
<configuration xmlns:xsi="http://www.w3.org/2001/XMLSchema-instance" xsi:noNamespaceSchemaLocation="http://sumo.dlr.de/xsd/sumoConfiguration.xsd">

    <input>
        <net-file value="/Users/behradkoohy/sumo-scratchpad/RESCO/environments/ingolstadt21/ingolstadt21.net.xml"/>
        <route-files value="/Users/behradkoohy/sumo-scratchpad/RESCO/environments/ingolstadt21/ingolstadt21.rou.xml"/>
    </input>

    <output>
        <tripinfo-output value="/Users/behradkoohy/sumo-scratchpad/RESCO/logs/MAXPRESSURE-tr0-ingolstadt21-21-mplight-wait/tripinfo_47.xml"/>
        <tripinfo-output.write-unfinished value="true"/>
    </output>

    <time>
        <begin value="57600"/>
        <end value="61200"/>
    </time>

    <processing>
        <time-to-teleport value="-1"/>
    </processing>

    <report>
        <no-warnings value="true"/>
        <no-step-log value="true"/>
    </report>

    <emissions>
        <device.emissions.probability value="1"/>
    </emissions>

    <traci_server>
        <remote-port value="58780"/>
    </traci_server>

    <random_number>
        <random value="true"/>
    </random_number>

</configuration>
-->

<tripinfos xmlns:xsi="http://www.w3.org/2001/XMLSchema-instance" xsi:noNamespaceSchemaLocation="http://sumo.dlr.de/xsd/tripinfo_file.xsd">
    <tripinfo id="h15454c2:3" depart="57612.00" departLane="24608844_1" departPos="5.10" departSpeed="0.00" departDelay="0.50" arrival="57651.00" arrivalLane="32978638#0_1" arrivalPos="49.29" arrivalSpeed="13.67" duration="39.00" routeLength="354.79" waitingTime="0.00" waitingCount="0" stopTime="0.00" timeLoss="6.42" rerouteNo="1" devices="tripinfo_h15454c2:3 routing_h15454c2:3 emissions_h15454c2:3" vType="default_016" speedFactor="1.06" vaporized="">
        <emissions CO_abs="2049.331352" CO2_abs="111105.359724" HC_abs="11.925000" PMx_abs="2.049856" NOx_abs="46.342527" fuel_abs="47.759559" electricity_abs="0"/>
    </tripinfo>
    <tripinfo id="carIn60260:1" depart="57606.00" departLane="315358254#0_1" departPos="5.10" departSpeed="0.00" departDelay="0.90" arrival="57660.00" arrivalLane="399835085#1_1" arrivalPos="212.23" arrivalSpeed="8.05" duration="54.00" routeLength="430.98" waitingTime="0.00" waitingCount="0" stopTime="0.00" timeLoss="7.16" rerouteNo="1" devices="tripinfo_carIn60260:1 routing_carIn60260:1 emissions_carIn60260:1" vType="default_016" speedFactor="1.00" vaporized="">
        <emissions CO_abs="2162.123924" CO2_abs="108818.874011" HC_abs="12.368089" PMx_abs="1.851015" NOx_abs="44.520195" fuel_abs="46.777055" electricity_abs="0"/>
    </tripinfo>
    <tripinfo id="carIn53971:1" depart="57640.00" departLane="272042143_1" departPos="5.10" departSpeed="0.00" departDelay="0.80" arrival="57696.00" arrivalLane="24634414#1_1" arrivalPos="162.19" arrivalSpeed="7.54" duration="56.00" routeLength="493.04" waitingTime="0.00" waitingCount="0" stopTime="0.00" timeLoss="10.24" rerouteNo="1" devices="tripinfo_carIn53971:1 routing_carIn53971:1 emissions_carIn53971:1" vType="default_016" speedFactor="1.00" vaporized="">
        <emissions CO_abs="2744.287455" CO2_abs="149618.458880" HC_abs="15.979436" PMx_abs="2.564173" NOx_abs="61.079074" fuel_abs="64.315032" electricity_abs="0"/>
    </tripinfo>
    <tripinfo id="S5R_frequency1.2" depart="57616.00" departLane="315358250#0_1" departPos="12.10" departSpeed="0.00" departDelay="4.40" arrival="57710.00" arrivalLane="386687235_1" arrivalPos="80.84" arrivalSpeed="13.54" duration="94.00" routeLength="1115.62" waitingTime="0.00" waitingCount="0" stopTime="0.00" timeLoss="12.03" rerouteNo="1" devices="tripinfo_S5R_frequency1.2 routing_S5R_frequency1.2 emissions_S5R_frequency1.2" vType="bus" speedFactor="1.00" vaporized="">
        <emissions CO_abs="1888.611180" CO2_abs="1193359.211273" HC_abs="402.380240" PMx_abs="202.995154" NOx_abs="9226.496241" fuel_abs="508.962858" electricity_abs="0"/>
    </tripinfo>
    <tripinfo id="h12244c1:3" depart="57612.00" departLane="315358244_1" departPos="5.10" departSpeed="0.00" departDelay="0.40" arrival="57717.00" arrivalLane="386687235_1" arrivalPos="80.84" arrivalSpeed="11.35" duration="105.00" routeLength="1186.14" waitingTime="0.00" waitingCount="0" stopTime="0.00" timeLoss="9.58" rerouteNo="1" devices="tripinfo_h12244c1:3 routing_h12244c1:3 emissions_h12244c1:3" vType="default_016" speedFactor="0.90" vaporized="">
        <emissions CO_abs="2682.872877" CO2_abs="231891.833237" HC_abs="17.557873" PMx_abs="3.315061" NOx_abs="88.965617" fuel_abs="99.680901" electricity_abs="0"/>
    </tripinfo>
    <tripinfo id="h7800c1:5" depart="57696.00" departLane="-447569998#1_1" departPos="5.10" departSpeed="0.00" departDelay="0.00" arrival="57725.00" arrivalLane="-447569998#1_2" arrivalPos="180.76" arrivalSpeed="4.55" duration="29.00" routeLength="175.66" waitingTime="0.00" waitingCount="0" stopTime="0.00" timeLoss="6.94" rerouteNo="1" devices="tripinfo_h7800c1:5 routing_h7800c1:5 emissions_h7800c1:5" vType="default_016" speedFactor="0.97" vaporized="">
        <emissions CO_abs="1441.538251" CO2_abs="58127.262012" HC_abs="7.904982" PMx_abs="1.011200" NOx_abs="24.075093" fuel_abs="24.986873" electricity_abs="0"/>
    </tripinfo>
    <tripinfo id="h9563c2:5" depart="57631.00" departLane="315358244_1" departPos="5.10" departSpeed="0.00" departDelay="0.70" arrival="57726.00" arrivalLane="386687235_1" arrivalPos="80.84" arrivalSpeed="13.29" duration="95.00" routeLength="1186.14" waitingTime="0.00" waitingCount="0" stopTime="0.00" timeLoss="8.99" rerouteNo="1" devices="tripinfo_h9563c2:5 routing_h9563c2:5 emissions_h9563c2:5" vType="default_016" speedFactor="1.00" vaporized="">
        <emissions CO_abs="2567.912924" CO2_abs="235734.101661" HC_abs="17.148410" PMx_abs="3.566265" NOx_abs="91.035481" fuel_abs="101.332165" electricity_abs="0"/>
    </tripinfo>
    <tripinfo id="h7181c1:1" depart="57660.00" departLane="315358254#0_1" departPos="5.10" departSpeed="0.00" departDelay="0.10" arrival="57730.00" arrivalLane="306240162#0_0" arrivalPos="220.43" arrivalSpeed="17.16" duration="70.00" routeLength="932.35" waitingTime="9.00" waitingCount="1" stopTime="0.00" timeLoss="22.91" rerouteNo="1" devices="tripinfo_h7181c1:1 routing_h7181c1:1 emissions_h7181c1:1" vType="default_016" speedFactor="1.10" vaporized="">
        <emissions CO_abs="4325.205390" CO2_abs="280045.317543" HC_abs="26.368327" PMx_abs="5.621871" NOx_abs="115.155726" fuel_abs="120.378856" electricity_abs="0"/>
    </tripinfo>
    <tripinfo id="h3688c1:1" depart="57625.00" departLane="201201950#1_1" departPos="5.10" departSpeed="0.00" departDelay="0.00" arrival="57731.00" arrivalLane="32978638#0_1" arrivalPos="49.29" arrivalSpeed="13.49" duration="106.00" routeLength="1089.75" waitingTime="10.00" waitingCount="1" stopTime="0.00" timeLoss="25.80" rerouteNo="1" devices="tripinfo_h3688c1:1 routing_h3688c1:1 emissions_h3688c1:1" vType="default_016" speedFactor="0.99" vaporized="">
        <emissions CO_abs="4476.793673" CO2_abs="266120.407000" HC_abs="26.603763" PMx_abs="4.608986" NOx_abs="107.646864" fuel_abs="114.394305" electricity_abs="0"/>
    </tripinfo>
    <tripinfo id="h3568c1:3" depart="57656.00" departLane="266565295#5_1" departPos="5.10" departSpeed="0.00" departDelay="0.80" arrival="57732.00" arrivalLane="-24634415_1" arrivalPos="62.03" arrivalSpeed="13.83" duration="76.00" routeLength="807.40" waitingTime="0.00" waitingCount="0" stopTime="0.00" timeLoss="13.97" rerouteNo="1" devices="tripinfo_h3568c1:3 routing_h3568c1:3 emissions_h3568c1:3" vType="default_016" speedFactor="1.04" vaporized="">
        <emissions CO_abs="3564.953498" CO2_abs="227625.927045" HC_abs="21.578383" PMx_abs="4.050460" NOx_abs="93.073144" fuel_abs="97.846676" electricity_abs="0"/>
    </tripinfo>
    <tripinfo id="carIn22761:1" depart="57616.00" departLane="-306240162#1_0" departPos="5.10" departSpeed="0.00" departDelay="2.10" arrival="57735.00" arrivalLane="399835085#1_1" arrivalPos="212.23" arrivalSpeed="5.66" duration="119.00" routeLength="1093.26" waitingTime="4.00" waitingCount="1" stopTime="0.00" timeLoss="20.78" rerouteNo="1" devices="tripinfo_carIn22761:1 routing_carIn22761:1 emissions_carIn22761:1" vType="default_016" speedFactor="0.79" vaporized="">
        <emissions CO_abs="4536.017679" CO2_abs="259769.399115" HC_abs="26.557337" PMx_abs="4.274188" NOx_abs="103.541418" fuel_abs="111.664737" electricity_abs="0"/>
    </tripinfo>
    <tripinfo id="carIn80064:1" depart="57603.00" departLane="128361109#1_1" departPos="5.10" departSpeed="0.00" departDelay="0.40" arrival="57752.00" arrivalLane="-315358254#1_1" arrivalPos="137.16" arrivalSpeed="12.68" duration="149.00" routeLength="1587.97" waitingTime="22.00" waitingCount="1" stopTime="0.00" timeLoss="51.83" rerouteNo="1" devices="tripinfo_carIn80064:1 routing_carIn80064:1 emissions_carIn80064:1" vType="default_016" speedFactor="0.92" vaporized="">
        <emissions CO_abs="9644.572758" CO2_abs="504557.831229" HC_abs="55.850899" PMx_abs="9.715880" NOx_abs="209.038556" fuel_abs="216.888459" electricity_abs="0"/>
    </tripinfo>
    <tripinfo id="h317c2:1" depart="57707.00" departLane="-32978638#0_1" departPos="5.10" departSpeed="0.00" departDelay="0.10" arrival="57756.00" arrivalLane="-266565295#5_1" arrivalPos="172.76" arrivalSpeed="12.48" duration="49.00" routeLength="370.53" waitingTime="10.00" waitingCount="1" stopTime="0.00" timeLoss="20.07" rerouteNo="1" devices="tripinfo_h317c2:1 routing_h317c2:1 emissions_h317c2:1" vType="default_016" speedFactor="0.94" vaporized="">
        <emissions CO_abs="2735.441588" CO2_abs="128882.860389" HC_abs="15.480010" PMx_abs="2.371472" NOx_abs="53.427717" fuel_abs="55.401716" electricity_abs="0"/>
    </tripinfo>
    <tripinfo id="h5979c1:5" depart="57669.00" departLane="399835085#1_1" departPos="5.10" departSpeed="0.00" departDelay="0.00" arrival="57758.00" arrivalLane="-315358254#1_1" arrivalPos="137.16" arrivalSpeed="13.98" duration="89.00" routeLength="659.33" waitingTime="2.00" waitingCount="1" stopTime="0.00" timeLoss="17.08" rerouteNo="1" devices="tripinfo_h5979c1:5 routing_h5979c1:5 emissions_h5979c1:5" vType="default_016" speedFactor="1.02" vaporized="">
        <emissions CO_abs="3629.651735" CO2_abs="179368.720341" HC_abs="20.684826" PMx_abs="3.053455" NOx_abs="73.380999" fuel_abs="77.103780" electricity_abs="0"/>
    </tripinfo>
    <tripinfo id="carIn30817:1" depart="57681.00" departLane="315358244_1" departPos="5.10" departSpeed="0.00" departDelay="0.20" arrival="57761.00" arrivalLane="447569997#1_1" arrivalPos="180.93" arrivalSpeed="7.91" duration="80.00" routeLength="718.04" waitingTime="7.00" waitingCount="1" stopTime="0.00" timeLoss="18.36" rerouteNo="1" devices="tripinfo_carIn30817:1 routing_carIn30817:1 emissions_carIn30817:1" vType="default_016" speedFactor="1.00" vaporized="">
        <emissions CO_abs="2737.963753" CO2_abs="159132.413081" HC_abs="16.137220" PMx_abs="2.591045" NOx_abs="63.568310" fuel_abs="68.404806" electricity_abs="0"/>
    </tripinfo>
    <tripinfo id="h3154c1:1" depart="57658.00" departLane="24634507_1" departPos="5.10" departSpeed="0.00" departDelay="0.00" arrival="57768.00" arrivalLane="-266565295#5_1" arrivalPos="172.76" arrivalSpeed="14.26" duration="110.00" routeLength="1206.22" waitingTime="11.00" waitingCount="1" stopTime="0.00" timeLoss="26.58" rerouteNo="1" devices="tripinfo_h3154c1:1 routing_h3154c1:1 emissions_h3154c1:1" vType="default_016" speedFactor="1.07" vaporized="">
        <emissions CO_abs="4258.480239" CO2_abs="292598.976070" HC_abs="26.241639" PMx_abs="5.033153" NOx_abs="117.532258" fuel_abs="125.775907" electricity_abs="0"/>
    </tripinfo>
    <tripinfo id="h330c1:1" depart="57736.00" departLane="-32978638#0_1" departPos="5.10" departSpeed="0.00" departDelay="0.20" arrival="57782.00" arrivalLane="-266565295#5_1" arrivalPos="172.76" arrivalSpeed="16.95" duration="46.00" routeLength="370.53" waitingTime="11.00" waitingCount="1" stopTime="0.00" timeLoss="24.08" rerouteNo="1" devices="tripinfo_h330c1:1 routing_h330c1:1 emissions_h330c1:1" vType="default_016" speedFactor="1.24" vaporized="">
        <emissions CO_abs="3386.833816" CO2_abs="158530.226070" HC_abs="19.145056" PMx_abs="3.179043" NOx_abs="67.014530" fuel_abs="68.145613" electricity_abs="0"/>
    </tripinfo>
    <tripinfo id="carIn107084:1" depart="57601.00" departLane="124812856#0_1" departPos="5.10" departSpeed="0.00" departDelay="0.70" arrival="57785.00" arrivalLane="-128361102#1_1" arrivalPos="274.68" arrivalSpeed="14.25" duration="184.00" routeLength="2250.49" waitingTime="5.00" waitingCount="1" stopTime="0.00" timeLoss="29.61" rerouteNo="1" devices="tripinfo_carIn107084:1 routing_carIn107084:1 emissions_carIn107084:1" vType="default_016" speedFactor="1.07" vaporized="">
        <emissions CO_abs="6000.900860" CO2_abs="474431.669444" HC_abs="38.309125" PMx_abs="8.008025" NOx_abs="189.067943" fuel_abs="203.937570" electricity_abs="0"/>
    </tripinfo>
    <tripinfo id="carIn86816:1" depart="57617.00" departLane="128361102#0_1" departPos="5.10" departSpeed="0.00" departDelay="0.80" arrival="57785.00" arrivalLane="201956811#0_1" arrivalPos="40.40" arrivalSpeed="14.17" duration="168.00" routeLength="2067.33" waitingTime="2.00" waitingCount="1" stopTime="0.00" timeLoss="24.37" rerouteNo="1" devices="tripinfo_carIn86816:1 routing_carIn86816:1 emissions_carIn86816:1" vType="default_016" speedFactor="1.05" vaporized="">
        <emissions CO_abs="5200.082948" CO2_abs="426192.616892" HC_abs="33.536391" PMx_abs="7.037414" NOx_abs="168.824156" fuel_abs="183.201776" electricity_abs="0"/>
    </tripinfo>
    <tripinfo id="carIn27009:1" depart="57673.00" departLane="-447569998#1_1" departPos="5.10" departSpeed="0.00" departDelay="0.50" arrival="57785.00" arrivalLane="-26677539_1" arrivalPos="152.75" arrivalSpeed="8.43" duration="112.00" routeLength="699.63" waitingTime="23.00" waitingCount="1" stopTime="0.00" timeLoss="38.53" rerouteNo="1" devices="tripinfo_carIn27009:1 routing_carIn27009:1 emissions_carIn27009:1" vType="default_015" speedFactor="1.15" vaporized="">
        <emissions CO_abs="6300.611815" CO2_abs="224722.753276" HC_abs="33.906336" PMx_abs="4.145892" NOx_abs="94.008544" fuel_abs="96.600761" electricity_abs="0"/>
    </tripinfo>
    <tripinfo id="carIn12365:1" depart="57713.00" departLane="315358244_1" departPos="5.10" departSpeed="0.00" departDelay="0.50" arrival="57786.00" arrivalLane="447569997#1_1" arrivalPos="180.93" arrivalSpeed="7.64" duration="73.00" routeLength="718.04" waitingTime="0.00" waitingCount="0" stopTime="0.00" timeLoss="8.51" rerouteNo="1" devices="tripinfo_carIn12365:1 routing_carIn12365:1 emissions_carIn12365:1" vType="default_016" speedFactor="0.95" vaporized="">
        <emissions CO_abs="2269.305710" CO2_abs="147360.384049" HC_abs="13.738139" PMx_abs="2.285745" NOx_abs="58.138850" fuel_abs="63.344420" electricity_abs="0"/>
    </tripinfo>
    <tripinfo id="carIn118591:1" depart="57689.00" departLane="315358244_1" departPos="5.10" departSpeed="0.00" departDelay="0.20" arrival="57787.00" arrivalLane="386687235_1" arrivalPos="80.84" arrivalSpeed="13.49" duration="98.00" routeLength="1186.14" waitingTime="0.00" waitingCount="0" stopTime="0.00" timeLoss="11.26" rerouteNo="1" devices="tripinfo_carIn118591:1 routing_carIn118591:1 emissions_carIn118591:1" vType="default_016" speedFactor="1.00" vaporized="">
        <emissions CO_abs="3120.611526" CO2_abs="257404.752841" HC_abs="20.180427" PMx_abs="4.121303" NOx_abs="101.321088" fuel_abs="110.647340" electricity_abs="0"/>
    </tripinfo>
    <tripinfo id="carIn77943:1" depart="57608.00" departLane="124812856#0_1" departPos="5.10" departSpeed="0.00" departDelay="2.50" arrival="57788.00" arrivalLane="-128361102#1_1" arrivalPos="274.68" arrivalSpeed="14.68" duration="180.00" routeLength="2250.49" waitingTime="0.00" waitingCount="0" stopTime="0.00" timeLoss="24.40" rerouteNo="1" devices="tripinfo_carIn77943:1 routing_carIn77943:1 emissions_carIn77943:1" vType="default_016" speedFactor="1.06" vaporized="">
        <emissions CO_abs="5583.468764" CO2_abs="474140.868707" HC_abs="36.491665" PMx_abs="7.809080" NOx_abs="187.766447" fuel_abs="203.812524" electricity_abs="0"/>
    </tripinfo>
    <tripinfo id="h645c1:1" depart="57622.00" departLane="266565295#5_1" departPos="5.10" departSpeed="0.00" departDelay="0.40" arrival="57788.00" arrivalLane="-315358244_1" arrivalPos="33.95" arrivalSpeed="12.23" duration="166.00" routeLength="1910.83" waitingTime="0.00" waitingCount="0" stopTime="0.00" timeLoss="14.75" rerouteNo="1" devices="tripinfo_h645c1:1 routing_h645c1:1 emissions_h645c1:1" vType="default_016" speedFactor="0.92" vaporized="">
        <emissions CO_abs="3860.132802" CO2_abs="334479.208160" HC_abs="25.317574" PMx_abs="4.962606" NOx_abs="129.437869" fuel_abs="143.778777" electricity_abs="0"/>
    </tripinfo>
    <tripinfo id="carIn81046:1" depart="57611.00" departLane="124812856#0_1" departPos="5.10" departSpeed="0.00" departDelay="2.50" arrival="57791.00" arrivalLane="-128361102#1_1" arrivalPos="274.68" arrivalSpeed="13.17" duration="180.00" routeLength="2250.49" waitingTime="0.00" waitingCount="0" stopTime="0.00" timeLoss="18.02" rerouteNo="1" devices="tripinfo_carIn81046:1 routing_carIn81046:1 emissions_carIn81046:1" vType="default_016" speedFactor="1.01" vaporized="">
        <emissions CO_abs="4721.723124" CO2_abs="425719.901086" HC_abs="31.393043" PMx_abs="6.680606" NOx_abs="166.169029" fuel_abs="182.998745" electricity_abs="0"/>
    </tripinfo>
    <tripinfo id="h19804c1:3" depart="57617.00" departLane="124812856#0_1" departPos="5.10" departSpeed="0.00" departDelay="1.50" arrival="57793.00" arrivalLane="-128361102#1_1" arrivalPos="274.68" arrivalSpeed="16.75" duration="176.00" routeLength="2232.46" waitingTime="0.00" waitingCount="0" stopTime="0.00" timeLoss="46.18" rerouteNo="1" devices="tripinfo_h19804c1:3 routing_h19804c1:3 emissions_h19804c1:3" vType="default_016" speedFactor="1.26" vaporized="">
        <emissions CO_abs="7201.415230" CO2_abs="547434.594781" HC_abs="45.699583" PMx_abs="9.877782" NOx_abs="223.001804" fuel_abs="235.317569" electricity_abs="0"/>
    </tripinfo>
    <tripinfo id="h3326c1:2" depart="57656.00" departLane="22716069#0_1" departPos="5.10" departSpeed="0.00" departDelay="0.00" arrival="57793.00" arrivalLane="24634517#13_1" arrivalPos="111.62" arrivalSpeed="12.32" duration="137.00" routeLength="1312.81" waitingTime="16.00" waitingCount="1" stopTime="0.00" timeLoss="34.59" rerouteNo="1" devices="tripinfo_h3326c1:2 routing_h3326c1:2 emissions_h3326c1:2" vType="default_016" speedFactor="0.95" vaporized="">
        <emissions CO_abs="6031.166120" CO2_abs="332255.630621" HC_abs="35.222592" PMx_abs="5.718755" NOx_abs="134.451966" fuel_abs="142.823546" electricity_abs="0"/>
    </tripinfo>
    <tripinfo id="h11737c1:1" depart="57665.00" departLane="272042143_1" departPos="5.10" departSpeed="0.00" departDelay="1.50" arrival="57805.00" arrivalLane="-315358254#1_1" arrivalPos="137.16" arrivalSpeed="16.75" duration="140.00" routeLength="1596.88" waitingTime="27.00" waitingCount="1" stopTime="0.00" timeLoss="45.70" rerouteNo="1" devices="tripinfo_h11737c1:1 routing_h11737c1:1 emissions_h11737c1:1" vType="default_016" speedFactor="1.23" vaporized="">
        <emissions CO_abs="7645.577232" CO2_abs="408866.984446" HC_abs="44.262606" PMx_abs="7.566536" NOx_abs="166.014519" fuel_abs="175.755370" electricity_abs="0"/>
    </tripinfo>
    <tripinfo id="h17600c1:1" depart="57662.00" departLane="272042143_1" departPos="5.10" departSpeed="0.00" departDelay="0.30" arrival="57807.00" arrivalLane="201238729#3_1" arrivalPos="431.02" arrivalSpeed="15.13" duration="145.00" routeLength="2100.26" waitingTime="0.00" waitingCount="0" stopTime="0.00" timeLoss="12.51" rerouteNo="1" devices="tripinfo_h17600c1:1 routing_h17600c1:1 emissions_h17600c1:1" vType="default_016" speedFactor="1.14" vaporized="">
        <emissions CO_abs="3430.859806" CO2_abs="361716.238711" HC_abs="23.841865" PMx_abs="5.711670" NOx_abs="139.154199" fuel_abs="155.485951" electricity_abs="0"/>
    </tripinfo>
    <tripinfo id="carIn126288:1" depart="57674.00" departLane="272042143_1" departPos="5.10" departSpeed="0.00" departDelay="0.00" arrival="57809.00" arrivalLane="-315358254#1_1" arrivalPos="137.16" arrivalSpeed="13.17" duration="135.00" routeLength="1596.88" waitingTime="6.00" waitingCount="1" stopTime="0.00" timeLoss="22.28" rerouteNo="1" devices="tripinfo_carIn126288:1 routing_carIn126288:1 emissions_carIn126288:1" vType="default_016" speedFactor="1.04" vaporized="">
        <emissions CO_abs="3984.739449" CO2_abs="329610.538768" HC_abs="25.834441" PMx_abs="5.361376" NOx_abs="129.950955" fuel_abs="141.685434" electricity_abs="0"/>
    </tripinfo>
    <tripinfo id="carIn12858:1" depart="57661.00" departLane="128361109#1_1" departPos="5.10" departSpeed="0.00" departDelay="0.90" arrival="57812.00" arrivalLane="399835085#1_1" arrivalPos="212.23" arrivalSpeed="8.13" duration="151.00" routeLength="1738.12" waitingTime="12.00" waitingCount="2" stopTime="0.00" timeLoss="42.97" rerouteNo="1" devices="tripinfo_carIn12858:1 routing_carIn12858:1 emissions_carIn12858:1" vType="default_016" speedFactor="1.07" vaporized="">
        <emissions CO_abs="8512.822144" CO2_abs="506833.284127" HC_abs="50.895951" PMx_abs="9.974039" NOx_abs="210.437934" fuel_abs="217.865355" electricity_abs="0"/>
    </tripinfo>
    <tripinfo id="carIn129809:1" depart="57729.00" departLane="-447569998#1_1" departPos="5.10" departSpeed="0.00" departDelay="1.00" arrival="57812.00" arrivalLane="-315358244_1" arrivalPos="33.95" arrivalSpeed="12.00" duration="83.00" routeLength="706.49" waitingTime="8.00" waitingCount="1" stopTime="0.00" timeLoss="19.74" rerouteNo="1" devices="tripinfo_carIn129809:1 routing_carIn129809:1 emissions_carIn129809:1" vType="default_015" speedFactor="0.95" vaporized="">
        <emissions CO_abs="3439.825598" CO2_abs="187555.764673" HC_abs="20.029290" PMx_abs="3.186215" NOx_abs="76.059730" fuel_abs="80.622850" electricity_abs="0"/>
    </tripinfo>
    <tripinfo id="carIn48184:1" depart="57613.00" departLane="-306240162#1_0" departPos="5.10" departSpeed="0.00" departDelay="0.70" arrival="57814.00" arrivalLane="386687235_1" arrivalPos="80.84" arrivalSpeed="13.12" duration="201.00" routeLength="2257.41" waitingTime="19.00" waitingCount="2" stopTime="0.00" timeLoss="46.10" rerouteNo="1" devices="tripinfo_carIn48184:1 routing_carIn48184:1 emissions_carIn48184:1" vType="default_016" speedFactor="0.96" vaporized="">
        <emissions CO_abs="7653.255028" CO2_abs="506394.407988" HC_abs="46.773503" PMx_abs="8.842091" NOx_abs="203.687410" fuel_abs="217.677617" electricity_abs="0"/>
    </tripinfo>
    <tripinfo id="carIn82220:1" depart="57619.00" departLane="-306240162#1_0" departPos="5.10" departSpeed="0.00" departDelay="3.50" arrival="57814.00" arrivalLane="386687235_2" arrivalPos="80.84" arrivalSpeed="13.12" duration="195.00" routeLength="2257.41" waitingTime="6.00" waitingCount="3" stopTime="0.00" timeLoss="45.12" rerouteNo="1" devices="tripinfo_carIn82220:1 routing_carIn82220:1 emissions_carIn82220:1" vType="default_016" speedFactor="0.99" vaporized="">
        <emissions CO_abs="7259.191322" CO2_abs="524949.430287" HC_abs="45.309128" PMx_abs="9.147673" NOx_abs="211.575342" fuel_abs="225.653012" electricity_abs="0"/>
    </tripinfo>
    <tripinfo id="carIn82278:1" depart="57702.00" departLane="-306240162#1_0" departPos="5.10" departSpeed="0.00" departDelay="0.70" arrival="57815.00" arrivalLane="399835085#1_1" arrivalPos="212.23" arrivalSpeed="7.60" duration="113.00" routeLength="1093.26" waitingTime="10.00" waitingCount="2" stopTime="0.00" timeLoss="37.68" rerouteNo="1" devices="tripinfo_carIn82278:1 routing_carIn82278:1 emissions_carIn82278:1" vType="default_016" speedFactor="1.05" vaporized="">
        <emissions CO_abs="5957.408721" CO2_abs="347168.223898" HC_abs="35.355219" PMx_abs="6.580706" NOx_abs="143.502268" fuel_abs="149.232749" electricity_abs="0"/>
    </tripinfo>
    <tripinfo id="carIn102915:1" depart="57643.00" departLane="128361102#0_1" departPos="5.10" departSpeed="0.00" departDelay="0.40" arrival="57825.00" arrivalLane="201956811#0_1" arrivalPos="40.40" arrivalSpeed="11.64" duration="182.00" routeLength="2067.33" waitingTime="0.00" waitingCount="0" stopTime="0.00" timeLoss="18.22" rerouteNo="1" devices="tripinfo_carIn102915:1 routing_carIn102915:1 emissions_carIn102915:1" vType="default_016" speedFactor="0.92" vaporized="">
        <emissions CO_abs="5086.527467" CO2_abs="408822.562620" HC_abs="32.674212" PMx_abs="6.428887" NOx_abs="161.018451" fuel_abs="175.735622" electricity_abs="0"/>
    </tripinfo>
    <tripinfo id="randUni33724:1" depart="57646.00" departLane="128361102#0_1" departPos="5.10" departSpeed="0.00" departDelay="1.20" arrival="57828.00" arrivalLane="201956811#0_1" arrivalPos="40.40" arrivalSpeed="13.03" duration="182.00" routeLength="2067.33" waitingTime="0.00" waitingCount="0" stopTime="0.00" timeLoss="25.44" rerouteNo="1" devices="tripinfo_randUni33724:1 routing_randUni33724:1 emissions_randUni33724:1" vType="random_016" speedFactor="0.97" vaporized="">
        <emissions CO_abs="5822.668776" CO2_abs="441607.381592" HC_abs="36.841074" PMx_abs="7.275928" NOx_abs="176.200516" fuel_abs="189.828198" electricity_abs="0"/>
    </tripinfo>
    <tripinfo id="carIn46110:1" depart="57684.00" departLane="315358244_1" departPos="5.10" departSpeed="0.00" departDelay="1.20" arrival="57828.00" arrivalLane="32978638#0_1" arrivalPos="49.29" arrivalSpeed="16.57" duration="144.00" routeLength="1764.04" waitingTime="15.00" waitingCount="2" stopTime="0.00" timeLoss="41.06" rerouteNo="1" devices="tripinfo_carIn46110:1 routing_carIn46110:1 emissions_carIn46110:1" vType="default_016" speedFactor="1.25" vaporized="">
        <emissions CO_abs="6557.550279" CO2_abs="454478.810802" HC_abs="40.460653" PMx_abs="8.323578" NOx_abs="184.087733" fuel_abs="195.360520" electricity_abs="0"/>
    </tripinfo>
    <tripinfo id="carIn77438:1" depart="57614.00" departLane="124812856#0_1" departPos="5.10" departSpeed="0.00" departDelay="1.10" arrival="57829.00" arrivalLane="-128361102#1_1" arrivalPos="274.68" arrivalSpeed="10.72" duration="215.00" routeLength="2250.49" waitingTime="0.00" waitingCount="0" stopTime="0.00" timeLoss="18.72" rerouteNo="1" devices="tripinfo_carIn77438:1 routing_carIn77438:1 emissions_carIn77438:1" vType="default_016" speedFactor="0.84" vaporized="">
        <emissions CO_abs="5754.758778" CO2_abs="429532.555530" HC_abs="36.131255" PMx_abs="6.540827" NOx_abs="168.710464" fuel_abs="184.638559" electricity_abs="0"/>
    </tripinfo>
    <tripinfo id="carIn107842:1" depart="57623.00" departLane="124812856#0_1" departPos="5.10" departSpeed="0.00" departDelay="1.90" arrival="57830.00" arrivalLane="-128361102#1_1" arrivalPos="274.68" arrivalSpeed="12.18" duration="207.00" routeLength="2250.49" waitingTime="0.00" waitingCount="0" stopTime="0.00" timeLoss="36.59" rerouteNo="1" devices="tripinfo_carIn107842:1 routing_carIn107842:1 emissions_carIn107842:1" vType="default_016" speedFactor="0.96" vaporized="">
        <emissions CO_abs="7325.792289" CO2_abs="534141.763542" HC_abs="45.863529" PMx_abs="8.990535" NOx_abs="215.279486" fuel_abs="229.604641" electricity_abs="0"/>
    </tripinfo>
    <tripinfo id="carIn50326:1" depart="57651.00" departLane="128361102#0_1" departPos="5.10" departSpeed="0.00" departDelay="0.30" arrival="57830.00" arrivalLane="18809673#0_1" arrivalPos="473.56" arrivalSpeed="11.29" duration="179.00" routeLength="1591.07" waitingTime="4.00" waitingCount="1" stopTime="0.00" timeLoss="24.61" rerouteNo="1" devices="tripinfo_carIn50326:1 routing_carIn50326:1 emissions_carIn50326:1" vType="default_016" speedFactor="0.84" vaporized="">
        <emissions CO_abs="5778.556759" CO2_abs="337923.932938" HC_abs="34.085954" PMx_abs="5.208521" NOx_abs="133.816133" fuel_abs="145.260646" electricity_abs="0"/>
    </tripinfo>
    <tripinfo id="h15382c1:3" depart="57626.00" departLane="124812856#0_1" departPos="5.10" departSpeed="0.00" departDelay="3.80" arrival="57832.00" arrivalLane="-128361102#1_1" arrivalPos="274.68" arrivalSpeed="15.54" duration="206.00" routeLength="2250.49" waitingTime="0.00" waitingCount="0" stopTime="0.00" timeLoss="59.49" rerouteNo="1" devices="tripinfo_h15382c1:3 routing_h15382c1:3 emissions_h15382c1:3" vType="default_016" speedFactor="1.12" vaporized="">
        <emissions CO_abs="8583.418699" CO2_abs="594987.797026" HC_abs="53.135460" PMx_abs="10.734370" NOx_abs="244.792707" fuel_abs="255.758969" electricity_abs="0"/>
    </tripinfo>
    <tripinfo id="carIn462:1" depart="57622.00" departLane="-306240162#1_0" departPos="5.10" departSpeed="0.00" departDelay="4.80" arrival="57834.00" arrivalLane="386687235_2" arrivalPos="80.84" arrivalSpeed="12.90" duration="212.00" routeLength="2257.41" waitingTime="20.00" waitingCount="3" stopTime="0.00" timeLoss="56.25" rerouteNo="1" devices="tripinfo_carIn462:1 routing_carIn462:1 emissions_carIn462:1" vType="default_016" speedFactor="0.96" vaporized="">
        <emissions CO_abs="7995.329455" CO2_abs="522176.953403" HC_abs="48.550178" PMx_abs="9.068151" NOx_abs="209.929755" fuel_abs="224.461985" electricity_abs="0"/>
    </tripinfo>
    <tripinfo id="carIn3969:1" depart="57629.00" departLane="124812856#0_1" departPos="5.10" departSpeed="0.00" departDelay="5.30" arrival="57834.00" arrivalLane="-128361102#1_1" arrivalPos="274.68" arrivalSpeed="13.12" duration="205.00" routeLength="2250.49" waitingTime="0.00" waitingCount="0" stopTime="0.00" timeLoss="37.76" rerouteNo="1" devices="tripinfo_carIn3969:1 routing_carIn3969:1 emissions_carIn3969:1" vType="default_016" speedFactor="0.98" vaporized="">
        <emissions CO_abs="7888.426494" CO2_abs="573447.679975" HC_abs="49.336342" PMx_abs="9.744808" NOx_abs="231.504641" fuel_abs="246.500465" electricity_abs="0"/>
    </tripinfo>