<?xml version="1.0" encoding="UTF-8"?>

<!-- generated on 2021-10-26 13:41:58 by Eclipse SUMO sumo Version 1.10.0
<configuration xmlns:xsi="http://www.w3.org/2001/XMLSchema-instance" xsi:noNamespaceSchemaLocation="http://sumo.dlr.de/xsd/sumoConfiguration.xsd">

    <input>
        <net-file value="/Users/behradkoohy/sumo-scratchpad/RESCO/environments/ingolstadt21/ingolstadt21.net.xml"/>
        <route-files value="/Users/behradkoohy/sumo-scratchpad/RESCO/environments/ingolstadt21/ingolstadt21.rou.xml"/>
    </input>

    <output>
        <tripinfo-output value="/Users/behradkoohy/sumo-scratchpad/RESCO/logs/MAXPRESSURE-tr0-ingolstadt21-21-mplight-wait/tripinfo_81.xml"/>
        <tripinfo-output.write-unfinished value="true"/>
    </output>

    <time>
        <begin value="57600"/>
        <end value="61200"/>
    </time>

    <processing>
        <time-to-teleport value="-1"/>
    </processing>

    <report>
        <no-warnings value="true"/>
        <no-step-log value="true"/>
    </report>

    <emissions>
        <device.emissions.probability value="1"/>
    </emissions>

    <traci_server>
        <remote-port value="59593"/>
    </traci_server>

    <random_number>
        <random value="true"/>
    </random_number>

</configuration>
-->

<tripinfos xmlns:xsi="http://www.w3.org/2001/XMLSchema-instance" xsi:noNamespaceSchemaLocation="http://sumo.dlr.de/xsd/tripinfo_file.xsd">
    <tripinfo id="h15454c2:3" depart="57612.00" departLane="24608844_1" departPos="5.10" departSpeed="0.00" departDelay="0.50" arrival="57652.00" arrivalLane="32978638#0_1" arrivalPos="49.29" arrivalSpeed="13.01" duration="40.00" routeLength="354.79" waitingTime="0.00" waitingCount="0" stopTime="0.00" timeLoss="6.67" rerouteNo="1" devices="tripinfo_h15454c2:3 routing_h15454c2:3 emissions_h15454c2:3" vType="default_016" speedFactor="1.02" vaporized="">
        <emissions CO_abs="2037.332765" CO2_abs="111213.754369" HC_abs="11.885538" PMx_abs="2.011975" NOx_abs="46.164754" fuel_abs="47.806203" electricity_abs="0"/>
    </tripinfo>
    <tripinfo id="carIn60260:1" depart="57606.00" departLane="315358254#0_1" departPos="5.10" departSpeed="0.00" departDelay="0.90" arrival="57653.00" arrivalLane="399835085#1_1" arrivalPos="212.23" arrivalSpeed="9.23" duration="47.00" routeLength="430.98" waitingTime="0.00" waitingCount="0" stopTime="0.00" timeLoss="6.56" rerouteNo="1" devices="tripinfo_carIn60260:1 routing_carIn60260:1 emissions_carIn60260:1" vType="default_016" speedFactor="1.14" vaporized="">
        <emissions CO_abs="2046.829025" CO2_abs="116100.648799" HC_abs="12.036081" PMx_abs="2.043529" NOx_abs="47.746468" fuel_abs="49.906904" electricity_abs="0"/>
    </tripinfo>
    <tripinfo id="carIn53971:1" depart="57640.00" departLane="272042143_1" departPos="5.10" departSpeed="0.00" departDelay="0.80" arrival="57702.00" arrivalLane="24634414#1_1" arrivalPos="162.19" arrivalSpeed="6.88" duration="62.00" routeLength="493.04" waitingTime="0.00" waitingCount="0" stopTime="0.00" timeLoss="7.83" rerouteNo="1" devices="tripinfo_carIn53971:1 routing_carIn53971:1 emissions_carIn53971:1" vType="default_016" speedFactor="0.85" vaporized="">
        <emissions CO_abs="2484.304465" CO2_abs="122997.025078" HC_abs="14.160657" PMx_abs="2.085171" NOx_abs="50.314909" fuel_abs="52.871739" electricity_abs="0"/>
    </tripinfo>
    <tripinfo id="S5R_frequency1.2" depart="57615.00" departLane="315358250#0_1" departPos="12.10" departSpeed="0.00" departDelay="3.40" arrival="57709.00" arrivalLane="386687235_1" arrivalPos="80.84" arrivalSpeed="13.60" duration="94.00" routeLength="1115.62" waitingTime="0.00" waitingCount="0" stopTime="0.00" timeLoss="12.63" rerouteNo="1" devices="tripinfo_S5R_frequency1.2 routing_S5R_frequency1.2 emissions_S5R_frequency1.2" vType="bus" speedFactor="1.00" vaporized="">
        <emissions CO_abs="1835.294182" CO2_abs="1165184.992235" HC_abs="386.428718" PMx_abs="197.115061" NOx_abs="8999.155452" fuel_abs="496.943973" electricity_abs="0"/>
    </tripinfo>
    <tripinfo id="h12244c1:3" depart="57612.00" departLane="315358244_1" departPos="5.10" departSpeed="0.00" departDelay="0.40" arrival="57720.00" arrivalLane="386687235_1" arrivalPos="80.84" arrivalSpeed="10.95" duration="108.00" routeLength="1186.14" waitingTime="0.00" waitingCount="0" stopTime="0.00" timeLoss="9.00" rerouteNo="1" devices="tripinfo_h12244c1:3 routing_h12244c1:3 emissions_h12244c1:3" vType="default_016" speedFactor="0.88" vaporized="">
        <emissions CO_abs="2722.534272" CO2_abs="217141.570160" HC_abs="17.411437" PMx_abs="3.230625" NOx_abs="84.470017" fuel_abs="93.340312" electricity_abs="0"/>
    </tripinfo>
    <tripinfo id="h7800c1:5" depart="57696.00" departLane="-447569998#1_1" departPos="5.10" departSpeed="0.00" departDelay="0.00" arrival="57725.00" arrivalLane="-447569998#1_2" arrivalPos="180.76" arrivalSpeed="3.91" duration="29.00" routeLength="175.66" waitingTime="0.00" waitingCount="0" stopTime="0.00" timeLoss="6.66" rerouteNo="1" devices="tripinfo_h7800c1:5 routing_h7800c1:5 emissions_h7800c1:5" vType="default_016" speedFactor="0.95" vaporized="">
        <emissions CO_abs="1508.559192" CO2_abs="58788.837301" HC_abs="8.213815" PMx_abs="0.971276" NOx_abs="24.025803" fuel_abs="25.271382" electricity_abs="0"/>
    </tripinfo>
    <tripinfo id="carIn22761:1" depart="57616.00" departLane="-306240162#1_0" departPos="5.10" departSpeed="0.00" departDelay="2.10" arrival="57731.00" arrivalLane="399835085#1_1" arrivalPos="212.23" arrivalSpeed="5.94" duration="115.00" routeLength="1093.26" waitingTime="8.00" waitingCount="1" stopTime="0.00" timeLoss="24.76" rerouteNo="1" devices="tripinfo_carIn22761:1 routing_carIn22761:1 emissions_carIn22761:1" vType="default_016" speedFactor="0.87" vaporized="">
        <emissions CO_abs="4785.276548" CO2_abs="272798.839090" HC_abs="28.101186" PMx_abs="4.776654" NOx_abs="110.257258" fuel_abs="117.265209" electricity_abs="0"/>
    </tripinfo>
    <tripinfo id="h3688c1:1" depart="57625.00" departLane="201201950#1_1" departPos="5.10" departSpeed="0.00" departDelay="0.00" arrival="57732.00" arrivalLane="32978638#0_1" arrivalPos="49.29" arrivalSpeed="12.25" duration="107.00" routeLength="1089.75" waitingTime="9.00" waitingCount="1" stopTime="0.00" timeLoss="23.65" rerouteNo="1" devices="tripinfo_h3688c1:1 routing_h3688c1:1 emissions_h3688c1:1" vType="default_016" speedFactor="0.96" vaporized="">
        <emissions CO_abs="3872.966016" CO2_abs="255671.682667" HC_abs="23.644674" PMx_abs="4.463704" NOx_abs="103.848209" fuel_abs="109.902387" electricity_abs="0"/>
    </tripinfo>
    <tripinfo id="h9563c2:5" depart="57631.00" departLane="315358244_1" departPos="5.10" departSpeed="0.00" departDelay="0.70" arrival="57733.00" arrivalLane="386687235_1" arrivalPos="80.84" arrivalSpeed="11.86" duration="102.00" routeLength="1186.14" waitingTime="0.00" waitingCount="0" stopTime="0.00" timeLoss="9.54" rerouteNo="1" devices="tripinfo_h9563c2:5 routing_h9563c2:5 emissions_h9563c2:5" vType="default_016" speedFactor="0.94" vaporized="">
        <emissions CO_abs="2820.913616" CO2_abs="226232.599582" HC_abs="18.112664" PMx_abs="3.565737" NOx_abs="89.014348" fuel_abs="97.247886" electricity_abs="0"/>
    </tripinfo>
    <tripinfo id="h3568c1:3" depart="57656.00" departLane="266565295#5_1" departPos="5.10" departSpeed="0.00" departDelay="0.80" arrival="57733.00" arrivalLane="-24634415_1" arrivalPos="62.03" arrivalSpeed="12.70" duration="77.00" routeLength="807.40" waitingTime="0.00" waitingCount="0" stopTime="0.00" timeLoss="11.84" rerouteNo="1" devices="tripinfo_h3568c1:3 routing_h3568c1:3 emissions_h3568c1:3" vType="default_016" speedFactor="0.99" vaporized="">
        <emissions CO_abs="3039.370623" CO2_abs="195819.827697" HC_abs="18.408153" PMx_abs="3.353202" NOx_abs="79.294090" fuel_abs="84.174759" electricity_abs="0"/>
    </tripinfo>
    <tripinfo id="h7181c1:1" depart="57660.00" departLane="315358254#0_1" departPos="5.10" departSpeed="0.00" departDelay="0.10" arrival="57743.00" arrivalLane="306240162#0_0" arrivalPos="220.43" arrivalSpeed="13.84" duration="83.00" routeLength="932.35" waitingTime="13.00" waitingCount="1" stopTime="0.00" timeLoss="23.54" rerouteNo="1" devices="tripinfo_h7181c1:1 routing_h7181c1:1 emissions_h7181c1:1" vType="default_016" speedFactor="0.87" vaporized="">
        <emissions CO_abs="4340.256844" CO2_abs="233278.006781" HC_abs="25.294503" PMx_abs="4.442174" NOx_abs="96.148705" fuel_abs="100.276524" electricity_abs="0"/>
    </tripinfo>
    <tripinfo id="h3326c1:2" depart="57656.00" departLane="22716069#0_1" departPos="5.10" departSpeed="0.00" departDelay="0.00" arrival="57755.00" arrivalLane="24634517#13_1" arrivalPos="111.62" arrivalSpeed="14.90" duration="99.00" routeLength="1312.81" waitingTime="0.00" waitingCount="0" stopTime="0.00" timeLoss="14.44" rerouteNo="1" devices="tripinfo_h3326c1:2 routing_h3326c1:2 emissions_h3326c1:2" vType="default_016" speedFactor="1.16" vaporized="">
        <emissions CO_abs="4155.372676" CO2_abs="315832.042811" HC_abs="26.340233" PMx_abs="5.741235" NOx_abs="128.540446" fuel_abs="135.761992" electricity_abs="0"/>
    </tripinfo>
    <tripinfo id="h317c2:1" depart="57707.00" departLane="-32978638#0_1" departPos="5.10" departSpeed="0.00" departDelay="0.10" arrival="57757.00" arrivalLane="-266565295#5_1" arrivalPos="172.76" arrivalSpeed="11.99" duration="50.00" routeLength="370.53" waitingTime="10.00" waitingCount="1" stopTime="0.00" timeLoss="18.97" rerouteNo="1" devices="tripinfo_h317c2:1 routing_h317c2:1 emissions_h317c2:1" vType="default_016" speedFactor="0.88" vaporized="">
        <emissions CO_abs="2916.907103" CO2_abs="121265.609848" HC_abs="16.121488" PMx_abs="2.265761" NOx_abs="50.640770" fuel_abs="52.127583" electricity_abs="0"/>
    </tripinfo>
    <tripinfo id="carIn30817:1" depart="57681.00" departLane="315358244_1" departPos="5.10" departSpeed="0.00" departDelay="0.20" arrival="57760.00" arrivalLane="447569997#1_1" arrivalPos="180.93" arrivalSpeed="7.88" duration="79.00" routeLength="718.04" waitingTime="7.00" waitingCount="1" stopTime="0.00" timeLoss="18.98" rerouteNo="1" devices="tripinfo_carIn30817:1 routing_carIn30817:1 emissions_carIn30817:1" vType="default_016" speedFactor="1.03" vaporized="">
        <emissions CO_abs="2804.767683" CO2_abs="159464.084293" HC_abs="16.493099" PMx_abs="2.725792" NOx_abs="64.605873" fuel_abs="68.547230" electricity_abs="0"/>
    </tripinfo>
    <tripinfo id="carIn80064:1" depart="57603.00" departLane="128361109#1_1" departPos="5.10" departSpeed="0.00" departDelay="0.40" arrival="57761.00" arrivalLane="-315358254#1_1" arrivalPos="137.16" arrivalSpeed="10.62" duration="158.00" routeLength="1587.97" waitingTime="23.00" waitingCount="2" stopTime="0.00" timeLoss="51.91" rerouteNo="1" devices="tripinfo_carIn80064:1 routing_carIn80064:1 emissions_carIn80064:1" vType="default_016" speedFactor="0.84" vaporized="">
        <emissions CO_abs="8517.871482" CO2_abs="439606.266729" HC_abs="49.097420" PMx_abs="8.413485" NOx_abs="182.610936" fuel_abs="188.968559" electricity_abs="0"/>
    </tripinfo>
    <tripinfo id="carIn12365:1" depart="57713.00" departLane="315358244_1" departPos="5.10" departSpeed="0.00" departDelay="0.50" arrival="57779.00" arrivalLane="447569997#1_1" arrivalPos="180.93" arrivalSpeed="8.10" duration="66.00" routeLength="718.04" waitingTime="0.00" waitingCount="0" stopTime="0.00" timeLoss="6.90" rerouteNo="1" devices="tripinfo_carIn12365:1 routing_carIn12365:1 emissions_carIn12365:1" vType="default_016" speedFactor="1.04" vaporized="">
        <emissions CO_abs="2034.868634" CO2_abs="141442.022990" HC_abs="12.538151" PMx_abs="2.215282" NOx_abs="55.662869" fuel_abs="60.800222" electricity_abs="0"/>
    </tripinfo>
    <tripinfo id="carIn86816:1" depart="57617.00" departLane="128361102#0_1" departPos="5.10" departSpeed="0.00" departDelay="0.80" arrival="57784.00" arrivalLane="201956811#0_1" arrivalPos="40.40" arrivalSpeed="14.05" duration="167.00" routeLength="2067.33" waitingTime="0.00" waitingCount="0" stopTime="0.00" timeLoss="17.07" rerouteNo="1" devices="tripinfo_carIn86816:1 routing_carIn86816:1 emissions_carIn86816:1" vType="default_016" speedFactor="1.01" vaporized="">
        <emissions CO_abs="4858.658204" CO2_abs="406311.435558" HC_abs="31.581472" PMx_abs="6.666362" NOx_abs="160.978671" fuel_abs="174.655678" electricity_abs="0"/>
    </tripinfo>
    <tripinfo id="h330c1:1" depart="57736.00" departLane="-32978638#0_1" departPos="5.10" departSpeed="0.00" departDelay="0.20" arrival="57784.00" arrivalLane="-266565295#5_1" arrivalPos="172.76" arrivalSpeed="13.62" duration="48.00" routeLength="370.53" waitingTime="13.00" waitingCount="1" stopTime="0.00" timeLoss="21.86" rerouteNo="1" devices="tripinfo_h330c1:1 routing_h330c1:1 emissions_h330c1:1" vType="default_016" speedFactor="1.05" vaporized="">
        <emissions CO_abs="3126.646559" CO2_abs="138709.779681" HC_abs="17.521083" PMx_abs="2.726804" NOx_abs="58.559230" fuel_abs="59.625823" electricity_abs="0"/>
    </tripinfo>
    <tripinfo id="carIn107084:1" depart="57601.00" departLane="124812856#0_1" departPos="5.10" departSpeed="0.00" departDelay="0.70" arrival="57785.00" arrivalLane="-128361102#1_1" arrivalPos="274.68" arrivalSpeed="13.05" duration="184.00" routeLength="2250.49" waitingTime="0.00" waitingCount="0" stopTime="0.00" timeLoss="21.69" rerouteNo="1" devices="tripinfo_carIn107084:1 routing_carIn107084:1 emissions_carIn107084:1" vType="default_016" speedFactor="1.01" vaporized="">
        <emissions CO_abs="5791.544688" CO2_abs="476566.334012" HC_abs="37.430996" PMx_abs="7.832264" NOx_abs="188.932950" fuel_abs="204.855263" electricity_abs="0"/>
    </tripinfo>
    <tripinfo id="h645c1:1" depart="57622.00" departLane="266565295#5_1" departPos="5.10" departSpeed="0.00" departDelay="0.40" arrival="57785.00" arrivalLane="-315358244_1" arrivalPos="33.95" arrivalSpeed="13.33" duration="163.00" routeLength="1910.83" waitingTime="13.00" waitingCount="1" stopTime="0.00" timeLoss="28.55" rerouteNo="1" devices="tripinfo_h645c1:1 routing_h645c1:1 emissions_h645c1:1" vType="default_016" speedFactor="1.04" vaporized="">
        <emissions CO_abs="5389.943547" CO2_abs="383250.577750" HC_abs="33.464154" PMx_abs="6.373547" NOx_abs="151.907809" fuel_abs="164.743425" electricity_abs="0"/>
    </tripinfo>
    <tripinfo id="carIn27009:1" depart="57673.00" departLane="-447569998#1_1" departPos="5.10" departSpeed="0.00" departDelay="0.50" arrival="57785.00" arrivalLane="-26677539_1" arrivalPos="152.75" arrivalSpeed="9.13" duration="112.00" routeLength="699.63" waitingTime="25.00" waitingCount="1" stopTime="0.00" timeLoss="39.67" rerouteNo="1" devices="tripinfo_carIn27009:1 routing_carIn27009:1 emissions_carIn27009:1" vType="default_015" speedFactor="1.16" vaporized="">
        <emissions CO_abs="6942.200141" CO2_abs="248069.330653" HC_abs="37.366576" PMx_abs="4.554293" NOx_abs="103.582526" fuel_abs="106.636699" electricity_abs="0"/>
    </tripinfo>
    <tripinfo id="carIn77943:1" depart="57608.00" departLane="124812856#0_1" departPos="5.10" departSpeed="0.00" departDelay="2.50" arrival="57787.00" arrivalLane="-128361102#1_1" arrivalPos="274.68" arrivalSpeed="15.48" duration="179.00" routeLength="2232.46" waitingTime="3.00" waitingCount="1" stopTime="0.00" timeLoss="43.68" rerouteNo="1" devices="tripinfo_carIn77943:1 routing_carIn77943:1 emissions_carIn77943:1" vType="default_016" speedFactor="1.21" vaporized="">
        <emissions CO_abs="6936.320878" CO2_abs="533577.659365" HC_abs="44.068854" PMx_abs="9.553273" NOx_abs="216.692078" fuel_abs="229.361140" electricity_abs="0"/>
    </tripinfo>
    <tripinfo id="carIn118591:1" depart="57689.00" departLane="315358244_1" departPos="5.10" departSpeed="0.00" departDelay="0.20" arrival="57790.00" arrivalLane="386687235_1" arrivalPos="80.84" arrivalSpeed="14.62" duration="101.00" routeLength="1186.14" waitingTime="8.00" waitingCount="2" stopTime="0.00" timeLoss="24.84" rerouteNo="1" devices="tripinfo_carIn118591:1 routing_carIn118591:1 emissions_carIn118591:1" vType="default_016" speedFactor="1.14" vaporized="">
        <emissions CO_abs="3919.299247" CO2_abs="279785.101751" HC_abs="24.360403" PMx_abs="5.041759" NOx_abs="113.520295" fuel_abs="120.267303" electricity_abs="0"/>
    </tripinfo>
    <tripinfo id="h3154c1:1" depart="57658.00" departLane="24634507_1" departPos="5.10" departSpeed="0.00" departDelay="0.00" arrival="57800.00" arrivalLane="-266565295#5_1" arrivalPos="172.76" arrivalSpeed="11.65" duration="142.00" routeLength="1206.22" waitingTime="17.00" waitingCount="2" stopTime="0.00" timeLoss="41.04" rerouteNo="1" devices="tripinfo_h3154c1:1 routing_h3154c1:1 emissions_h3154c1:1" vType="default_016" speedFactor="0.88" vaporized="">
        <emissions CO_abs="5928.534438" CO2_abs="306090.281468" HC_abs="34.126632" PMx_abs="5.275636" NOx_abs="124.572332" fuel_abs="131.576337" electricity_abs="0"/>
    </tripinfo>
    <tripinfo id="h11737c1:1" depart="57665.00" departLane="272042143_1" departPos="5.10" departSpeed="0.00" departDelay="1.50" arrival="57806.00" arrivalLane="-315358254#1_1" arrivalPos="137.16" arrivalSpeed="15.37" duration="141.00" routeLength="1596.88" waitingTime="21.00" waitingCount="1" stopTime="0.00" timeLoss="40.28" rerouteNo="1" devices="tripinfo_h11737c1:1 routing_h11737c1:1 emissions_h11737c1:1" vType="default_016" speedFactor="1.16" vaporized="">
        <emissions CO_abs="6575.739336" CO2_abs="375929.261888" HC_abs="38.761644" PMx_abs="6.869814" NOx_abs="152.991589" fuel_abs="161.596454" electricity_abs="0"/>
    </tripinfo>
    <tripinfo id="carIn82278:1" depart="57702.00" departLane="-306240162#1_0" departPos="5.10" departSpeed="0.00" departDelay="0.70" arrival="57808.00" arrivalLane="399835085#1_1" arrivalPos="212.23" arrivalSpeed="9.43" duration="106.00" routeLength="1093.26" waitingTime="11.00" waitingCount="2" stopTime="0.00" timeLoss="38.73" rerouteNo="1" devices="tripinfo_carIn82278:1 routing_carIn82278:1 emissions_carIn82278:1" vType="default_016" speedFactor="1.15" vaporized="">
        <emissions CO_abs="6185.109204" CO2_abs="357021.823516" HC_abs="36.641397" PMx_abs="7.060381" NOx_abs="149.618456" fuel_abs="153.467970" electricity_abs="0"/>
    </tripinfo>
    <tripinfo id="carIn102915:1" depart="57643.00" departLane="128361102#0_1" departPos="5.10" departSpeed="0.00" departDelay="0.40" arrival="57812.00" arrivalLane="201956811#0_1" arrivalPos="40.40" arrivalSpeed="13.34" duration="169.00" routeLength="2067.33" waitingTime="0.00" waitingCount="0" stopTime="0.00" timeLoss="16.06" rerouteNo="1" devices="tripinfo_carIn102915:1 routing_carIn102915:1 emissions_carIn102915:1" vType="default_016" speedFactor="0.99" vaporized="">
        <emissions CO_abs="4666.632044" CO2_abs="394345.842921" HC_abs="30.397694" PMx_abs="6.290005" NOx_abs="155.111837" fuel_abs="169.512418" electricity_abs="0"/>
    </tripinfo>
    <tripinfo id="carIn48184:1" depart="57613.00" departLane="-306240162#1_0" departPos="5.10" departSpeed="0.00" departDelay="0.70" arrival="57814.00" arrivalLane="386687235_1" arrivalPos="80.84" arrivalSpeed="13.03" duration="201.00" routeLength="2257.41" waitingTime="19.00" waitingCount="2" stopTime="0.00" timeLoss="46.49" rerouteNo="1" devices="tripinfo_carIn48184:1 routing_carIn48184:1 emissions_carIn48184:1" vType="default_016" speedFactor="0.96" vaporized="">
        <emissions CO_abs="7922.134318" CO2_abs="534235.047573" HC_abs="48.474227" PMx_abs="9.144171" NOx_abs="213.045910" fuel_abs="229.645324" electricity_abs="0"/>
    </tripinfo>
    <tripinfo id="carIn82220:1" depart="57619.00" departLane="-306240162#1_0" departPos="5.10" departSpeed="0.00" departDelay="3.50" arrival="57814.00" arrivalLane="386687235_2" arrivalPos="80.84" arrivalSpeed="12.22" duration="195.00" routeLength="2257.41" waitingTime="7.00" waitingCount="2" stopTime="0.00" timeLoss="41.09" rerouteNo="1" devices="tripinfo_carIn82220:1 routing_carIn82220:1 emissions_carIn82220:1" vType="default_016" speedFactor="0.97" vaporized="">
        <emissions CO_abs="7072.360656" CO2_abs="518580.318428" HC_abs="44.263235" PMx_abs="8.945257" NOx_abs="207.846034" fuel_abs="222.915314" electricity_abs="0"/>
    </tripinfo>
    <tripinfo id="carIn126288:1" depart="57674.00" departLane="272042143_1" departPos="5.10" departSpeed="0.00" departDelay="0.00" arrival="57815.00" arrivalLane="-315358254#1_1" arrivalPos="137.16" arrivalSpeed="11.98" duration="141.00" routeLength="1596.88" waitingTime="0.00" waitingCount="0" stopTime="0.00" timeLoss="13.10" rerouteNo="1" devices="tripinfo_carIn126288:1 routing_carIn126288:1 emissions_carIn126288:1" vType="default_016" speedFactor="0.91" vaporized="">
        <emissions CO_abs="4033.589346" CO2_abs="331970.389377" HC_abs="26.058430" PMx_abs="5.025526" NOx_abs="129.381992" fuel_abs="142.700332" electricity_abs="0"/>
    </tripinfo>
    <tripinfo id="carIn129809:1" depart="57729.00" departLane="-447569998#1_1" departPos="5.10" departSpeed="0.00" departDelay="1.00" arrival="57815.00" arrivalLane="-315358244_1" arrivalPos="33.95" arrivalSpeed="11.56" duration="86.00" routeLength="706.49" waitingTime="5.00" waitingCount="1" stopTime="0.00" timeLoss="15.38" rerouteNo="1" devices="tripinfo_carIn129809:1 routing_carIn129809:1 emissions_carIn129809:1" vType="default_015" speedFactor="0.86" vaporized="">
        <emissions CO_abs="2741.537541" CO2_abs="149414.923486" HC_abs="15.929688" PMx_abs="2.382259" NOx_abs="59.712858" fuel_abs="64.227828" electricity_abs="0"/>
    </tripinfo>
    <tripinfo id="carIn81046:1" depart="57611.00" departLane="124812856#0_1" departPos="5.10" departSpeed="0.00" departDelay="2.50" arrival="57816.00" arrivalLane="-128361102#1_1" arrivalPos="274.68" arrivalSpeed="11.16" duration="205.00" routeLength="2250.49" waitingTime="0.00" waitingCount="0" stopTime="0.00" timeLoss="18.22" rerouteNo="1" devices="tripinfo_carIn81046:1 routing_carIn81046:1 emissions_carIn81046:1" vType="default_016" speedFactor="0.88" vaporized="">
        <emissions CO_abs="5301.593165" CO2_abs="424835.377614" HC_abs="33.955914" PMx_abs="6.336955" NOx_abs="165.328593" fuel_abs="182.619373" electricity_abs="0"/>
    </tripinfo>
    <tripinfo id="carIn462:1" depart="57622.00" departLane="-306240162#1_0" departPos="5.10" departSpeed="0.00" departDelay="4.80" arrival="57816.00" arrivalLane="386687235_1" arrivalPos="80.84" arrivalSpeed="14.09" duration="194.00" routeLength="2257.41" waitingTime="14.00" waitingCount="2" stopTime="0.00" timeLoss="56.53" rerouteNo="1" devices="tripinfo_carIn462:1 routing_carIn462:1 emissions_carIn462:1" vType="default_016" speedFactor="1.08" vaporized="">
        <emissions CO_abs="8927.751736" CO2_abs="557400.479267" HC_abs="53.707899" PMx_abs="10.346583" NOx_abs="228.689760" fuel_abs="239.602386" electricity_abs="0"/>
    </tripinfo>
    <tripinfo id="carIn116184:1" depart="57627.00" departLane="-306240162#1_0" departPos="5.10" departSpeed="0.00" departDelay="0.10" arrival="57817.00" arrivalLane="386687235_1" arrivalPos="80.84" arrivalSpeed="14.69" duration="190.00" routeLength="2257.41" waitingTime="13.00" waitingCount="2" stopTime="0.00" timeLoss="54.59" rerouteNo="1" devices="tripinfo_carIn116184:1 routing_carIn116184:1 emissions_carIn116184:1" vType="default_016" speedFactor="1.10" vaporized="">
        <emissions CO_abs="8622.622035" CO2_abs="570053.661243" HC_abs="52.660586" PMx_abs="10.517113" NOx_abs="232.513202" fuel_abs="245.041210" electricity_abs="0"/>
    </tripinfo>
    <tripinfo id="h5979c1:5" depart="57669.00" departLane="399835085#1_1" departPos="5.10" departSpeed="0.00" departDelay="0.00" arrival="57818.00" arrivalLane="-315358254#1_1" arrivalPos="137.16" arrivalSpeed="12.49" duration="149.00" routeLength="659.33" waitingTime="51.00" waitingCount="2" stopTime="0.00" timeLoss="68.10" rerouteNo="1" devices="tripinfo_h5979c1:5 routing_h5979c1:5 emissions_h5979c1:5" vType="default_016" speedFactor="0.91" vaporized="">
        <emissions CO_abs="11199.553883" CO2_abs="298897.116371" HC_abs="57.910392" PMx_abs="5.830086" NOx_abs="127.062127" fuel_abs="128.487759" electricity_abs="0"/>
    </tripinfo>
    <tripinfo id="randUni33724:1" depart="57646.00" departLane="128361102#0_1" departPos="5.10" departSpeed="0.00" departDelay="1.20" arrival="57822.00" arrivalLane="201956811#0_1" arrivalPos="40.40" arrivalSpeed="12.93" duration="176.00" routeLength="2067.33" waitingTime="0.00" waitingCount="0" stopTime="0.00" timeLoss="17.87" rerouteNo="1" devices="tripinfo_randUni33724:1 routing_randUni33724:1 emissions_randUni33724:1" vType="random_016" speedFactor="0.96" vaporized="">
        <emissions CO_abs="4797.174456" CO2_abs="405680.259075" HC_abs="31.286999" PMx_abs="6.336260" NOx_abs="158.952123" fuel_abs="174.384787" electricity_abs="0"/>
    </tripinfo>
    <tripinfo id="carIn77438:1" depart="57614.00" departLane="124812856#0_1" departPos="5.10" departSpeed="0.00" departDelay="1.10" arrival="57825.00" arrivalLane="-128361102#1_1" arrivalPos="274.68" arrivalSpeed="11.45" duration="211.00" routeLength="2250.49" waitingTime="0.00" waitingCount="0" stopTime="0.00" timeLoss="18.66" rerouteNo="1" devices="tripinfo_carIn77438:1 routing_carIn77438:1 emissions_carIn77438:1" vType="default_016" speedFactor="0.86" vaporized="">
        <emissions CO_abs="5433.625746" CO2_abs="421427.460176" HC_abs="34.455492" PMx_abs="6.221056" NOx_abs="163.913128" fuel_abs="181.154663" electricity_abs="0"/>
    </tripinfo>
    <tripinfo id="h19804c1:3" depart="57617.00" departLane="124812856#0_1" departPos="5.10" departSpeed="0.00" departDelay="1.50" arrival="57827.00" arrivalLane="-128361102#1_1" arrivalPos="274.68" arrivalSpeed="13.66" duration="210.00" routeLength="2250.49" waitingTime="0.00" waitingCount="0" stopTime="0.00" timeLoss="43.33" rerouteNo="1" devices="tripinfo_h19804c1:3 routing_h19804c1:3 emissions_h19804c1:3" vType="default_016" speedFactor="0.99" vaporized="">
        <emissions CO_abs="7246.359148" CO2_abs="524865.623955" HC_abs="45.241872" PMx_abs="8.628517" NOx_abs="210.316191" fuel_abs="225.617571" electricity_abs="0"/>
    </tripinfo>
    <tripinfo id="carIn107842:1" depart="57623.00" departLane="124812856#0_1" departPos="5.10" departSpeed="0.00" departDelay="1.90" arrival="57828.00" arrivalLane="-128361102#1_1" arrivalPos="274.68" arrivalSpeed="14.25" duration="205.00" routeLength="2250.49" waitingTime="0.00" waitingCount="0" stopTime="0.00" timeLoss="58.98" rerouteNo="1" devices="tripinfo_carIn107842:1 routing_carIn107842:1 emissions_carIn107842:1" vType="default_016" speedFactor="1.13" vaporized="">
        <emissions CO_abs="8462.556519" CO2_abs="594287.063124" HC_abs="52.538896" PMx_abs="10.543557" NOx_abs="243.217838" fuel_abs="255.457946" electricity_abs="0"/>
    </tripinfo>
    <tripinfo id="h15382c1:3" depart="57626.00" departLane="124812856#0_1" departPos="5.10" departSpeed="0.00" departDelay="3.80" arrival="57830.00" arrivalLane="-128361102#1_1" arrivalPos="274.68" arrivalSpeed="11.67" duration="204.00" routeLength="2250.49" waitingTime="0.00" waitingCount="0" stopTime="0.00" timeLoss="20.36" rerouteNo="1" devices="tripinfo_h15382c1:3 routing_h15382c1:3 emissions_h15382c1:3" vType="default_016" speedFactor="0.89" vaporized="">
        <emissions CO_abs="5748.713046" CO2_abs="458953.530216" HC_abs="36.818520" PMx_abs="7.053442" NOx_abs="180.012856" fuel_abs="197.285068" electricity_abs="0"/>
    </tripinfo>
    <tripinfo id="carIn121703:1" depart="57647.00" departLane="386687232#0_1" departPos="5.10" departSpeed="0.00" departDelay="0.30" arrival="57833.00" arrivalLane="-315358244_1" arrivalPos="33.95" arrivalSpeed="13.78" duration="186.00" routeLength="1157.39" waitingTime="87.00" waitingCount="2" stopTime="0.00" timeLoss="102.65" rerouteNo="1" devices="tripinfo_carIn121703:1 routing_carIn121703:1 emissions_carIn121703:1" vType="default_016" speedFactor="1.01" vaporized="">
        <emissions CO_abs="16449.723145" CO2_abs="471411.904497" HC_abs="85.897547" PMx_abs="9.555620" NOx_abs="199.992781" fuel_abs="202.645870" electricity_abs="0"/>
    </tripinfo>
    <tripinfo id="carIn81860:1" depart="57712.00" departLane="128361102#0_1" departPos="5.10" departSpeed="0.00" departDelay="0.60" arrival="57834.00" arrivalLane="-24634517#17_1" arrivalPos="6.43" arrivalSpeed="7.28" duration="122.00" routeLength="1229.64" waitingTime="13.00" waitingCount="2" stopTime="0.00" timeLoss="34.76" rerouteNo="1" devices="tripinfo_carIn81860:1 routing_carIn81860:1 emissions_carIn81860:1" vType="default_016" speedFactor="1.03" vaporized="">
        <emissions CO_abs="4470.517201" CO2_abs="296929.525956" HC_abs="27.290524" PMx_abs="5.134298" NOx_abs="119.783738" fuel_abs="127.637476" electricity_abs="0"/>
    </tripinfo>
    <tripinfo id="50R_frequency3.17" depart="57674.00" departLane="-18809673#6_1" departPos="12.10" departSpeed="0.00" departDelay="0.70" arrival="57835.00" arrivalLane="201956811#0_1" arrivalPos="40.40" arrivalSpeed="13.41" duration="161.00" routeLength="1954.47" waitingTime="0.00" waitingCount="0" stopTime="0.00" timeLoss="16.23" rerouteNo="1" devices="tripinfo_50R_frequency3.17 routing_50R_frequency3.17 emissions_50R_frequency3.17" vType="bus" speedFactor="1.00" vaporized="">
        <emissions CO_abs="2931.613442" CO2_abs="1882519.671109" HC_abs="619.612414" PMx_abs="315.577211" NOx_abs="14477.902314" fuel_abs="802.893509" electricity_abs="0"/>
    </tripinfo>
    <tripinfo id="carIn107282:1" depart="57749.00" departLane="-447569998#1_1" departPos="5.10" departSpeed="0.00" departDelay="0.00" arrival="57835.00" arrivalLane="315358242#0_1" arrivalPos="165.37" arrivalSpeed="13.55" duration="86.00" routeLength="448.50" waitingTime="36.00" waitingCount="1" stopTime="0.00" timeLoss="45.15" rerouteNo="1" devices="tripinfo_carIn107282:1 routing_carIn107282:1 emissions_carIn107282:1" vType="default_016" speedFactor="1.03" vaporized="">
        <emissions CO_abs="6679.790744" CO2_abs="189693.640380" HC_abs="34.828165" PMx_abs="3.796407" NOx_abs="80.684532" fuel_abs="81.543692" electricity_abs="0"/>