<?xml version="1.0" encoding="UTF-8"?>

<!-- generated on 2021-10-26 13:10:17 by Eclipse SUMO sumo Version 1.10.0
<configuration xmlns:xsi="http://www.w3.org/2001/XMLSchema-instance" xsi:noNamespaceSchemaLocation="http://sumo.dlr.de/xsd/sumoConfiguration.xsd">

    <input>
        <net-file value="/Users/behradkoohy/sumo-scratchpad/RESCO/environments/ingolstadt21/ingolstadt21.net.xml"/>
        <route-files value="/Users/behradkoohy/sumo-scratchpad/RESCO/environments/ingolstadt21/ingolstadt21.rou.xml"/>
    </input>

    <output>
        <tripinfo-output value="/Users/behradkoohy/sumo-scratchpad/RESCO/logs/MAXPRESSURE-tr0-ingolstadt21-21-mplight-wait/tripinfo_40.xml"/>
        <tripinfo-output.write-unfinished value="true"/>
    </output>

    <time>
        <begin value="57600"/>
        <end value="61200"/>
    </time>

    <processing>
        <time-to-teleport value="-1"/>
    </processing>

    <report>
        <no-warnings value="true"/>
        <no-step-log value="true"/>
    </report>

    <emissions>
        <device.emissions.probability value="1"/>
    </emissions>

    <traci_server>
        <remote-port value="58742"/>
    </traci_server>

    <random_number>
        <random value="true"/>
    </random_number>

</configuration>
-->

<tripinfos xmlns:xsi="http://www.w3.org/2001/XMLSchema-instance" xsi:noNamespaceSchemaLocation="http://sumo.dlr.de/xsd/tripinfo_file.xsd">
    <tripinfo id="h15454c2:3" depart="57612.00" departLane="24608844_1" departPos="5.10" departSpeed="0.00" departDelay="0.50" arrival="57653.00" arrivalLane="32978638#0_1" arrivalPos="49.29" arrivalSpeed="13.29" duration="41.00" routeLength="354.79" waitingTime="0.00" waitingCount="0" stopTime="0.00" timeLoss="8.06" rerouteNo="1" devices="tripinfo_h15454c2:3 routing_h15454c2:3 emissions_h15454c2:3" vType="default_016" speedFactor="1.04" vaporized="">
        <emissions CO_abs="2230.788397" CO2_abs="119294.909124" HC_abs="12.962750" PMx_abs="2.197660" NOx_abs="49.738784" fuel_abs="51.279940" electricity_abs="0"/>
    </tripinfo>
    <tripinfo id="carIn60260:1" depart="57606.00" departLane="315358254#0_1" departPos="5.10" departSpeed="0.00" departDelay="0.90" arrival="57654.00" arrivalLane="399835085#1_1" arrivalPos="212.23" arrivalSpeed="8.68" duration="48.00" routeLength="430.98" waitingTime="0.00" waitingCount="0" stopTime="0.00" timeLoss="7.03" rerouteNo="1" devices="tripinfo_carIn60260:1 routing_carIn60260:1 emissions_carIn60260:1" vType="default_016" speedFactor="1.14" vaporized="">
        <emissions CO_abs="2120.896447" CO2_abs="120312.766759" HC_abs="12.465421" PMx_abs="2.079942" NOx_abs="49.180908" fuel_abs="51.717584" electricity_abs="0"/>
    </tripinfo>
    <tripinfo id="carIn53971:1" depart="57640.00" departLane="272042143_1" departPos="5.10" departSpeed="0.00" departDelay="0.80" arrival="57693.00" arrivalLane="24634414#1_1" arrivalPos="162.19" arrivalSpeed="7.72" duration="53.00" routeLength="493.04" waitingTime="0.00" waitingCount="0" stopTime="0.00" timeLoss="8.89" rerouteNo="1" devices="tripinfo_carIn53971:1 routing_carIn53971:1 emissions_carIn53971:1" vType="default_016" speedFactor="1.03" vaporized="">
        <emissions CO_abs="2470.502506" CO2_abs="141628.603285" HC_abs="14.537309" PMx_abs="2.397837" NOx_abs="57.512918" fuel_abs="60.880457" electricity_abs="0"/>
    </tripinfo>
    <tripinfo id="h12244c1:3" depart="57612.00" departLane="315358244_1" departPos="5.10" departSpeed="0.00" departDelay="0.40" arrival="57703.00" arrivalLane="386687235_1" arrivalPos="80.84" arrivalSpeed="14.54" duration="91.00" routeLength="1186.14" waitingTime="0.00" waitingCount="0" stopTime="0.00" timeLoss="10.45" rerouteNo="1" devices="tripinfo_h12244c1:3 routing_h12244c1:3 emissions_h12244c1:3" vType="default_016" speedFactor="1.07" vaporized="">
        <emissions CO_abs="2793.971358" CO2_abs="234926.606900" HC_abs="18.090627" PMx_abs="3.830982" NOx_abs="92.448042" fuel_abs="100.984820" electricity_abs="0"/>
    </tripinfo>
    <tripinfo id="S5R_frequency1.2" depart="57615.00" departLane="315358250#0_1" departPos="12.10" departSpeed="0.00" departDelay="3.40" arrival="57708.00" arrivalLane="386687235_1" arrivalPos="80.84" arrivalSpeed="13.59" duration="93.00" routeLength="1115.62" waitingTime="0.00" waitingCount="0" stopTime="0.00" timeLoss="11.27" rerouteNo="1" devices="tripinfo_S5R_frequency1.2 routing_S5R_frequency1.2 emissions_S5R_frequency1.2" vType="bus" speedFactor="1.00" vaporized="">
        <emissions CO_abs="1796.573105" CO2_abs="1143488.720052" HC_abs="379.435359" PMx_abs="193.107264" NOx_abs="8822.211827" fuel_abs="487.693012" electricity_abs="0"/>
    </tripinfo>
    <tripinfo id="h3688c1:1" depart="57625.00" departLane="201201950#1_1" departPos="5.10" departSpeed="0.00" departDelay="0.00" arrival="57721.00" arrivalLane="32978638#0_1" arrivalPos="49.29" arrivalSpeed="14.74" duration="96.00" routeLength="1089.75" waitingTime="5.00" waitingCount="1" stopTime="0.00" timeLoss="20.07" rerouteNo="1" devices="tripinfo_h3688c1:1 routing_h3688c1:1 emissions_h3688c1:1" vType="default_016" speedFactor="1.06" vaporized="">
        <emissions CO_abs="3922.716698" CO2_abs="291790.560243" HC_abs="24.695641" PMx_abs="5.023712" NOx_abs="117.262924" fuel_abs="125.428115" electricity_abs="0"/>
    </tripinfo>
    <tripinfo id="carIn22761:1" depart="57616.00" departLane="-306240162#1_0" departPos="5.10" departSpeed="0.00" departDelay="2.10" arrival="57723.00" arrivalLane="399835085#1_1" arrivalPos="212.23" arrivalSpeed="8.46" duration="107.00" routeLength="1093.26" waitingTime="11.00" waitingCount="1" stopTime="0.00" timeLoss="31.21" rerouteNo="1" devices="tripinfo_carIn22761:1 routing_carIn22761:1 emissions_carIn22761:1" vType="default_016" speedFactor="1.04" vaporized="">
        <emissions CO_abs="6014.622259" CO2_abs="324158.274333" HC_abs="35.059440" PMx_abs="6.028831" NOx_abs="133.021894" fuel_abs="139.342348" electricity_abs="0"/>
    </tripinfo>
    <tripinfo id="h3568c1:3" depart="57656.00" departLane="266565295#5_1" departPos="5.10" departSpeed="0.00" departDelay="0.80" arrival="57725.00" arrivalLane="-24634415_1" arrivalPos="62.03" arrivalSpeed="15.18" duration="69.00" routeLength="807.40" waitingTime="0.00" waitingCount="0" stopTime="0.00" timeLoss="13.09" rerouteNo="1" devices="tripinfo_h3568c1:3 routing_h3568c1:3 emissions_h3568c1:3" vType="default_016" speedFactor="1.14" vaporized="">
        <emissions CO_abs="3315.040909" CO2_abs="223013.168146" HC_abs="20.309445" PMx_abs="4.003282" NOx_abs="91.043573" fuel_abs="95.863674" electricity_abs="0"/>
    </tripinfo>
    <tripinfo id="h7800c1:5" depart="57696.00" departLane="-447569998#1_1" departPos="5.10" departSpeed="0.00" departDelay="0.00" arrival="57725.00" arrivalLane="-447569998#1_2" arrivalPos="180.76" arrivalSpeed="4.21" duration="29.00" routeLength="175.66" waitingTime="2.00" waitingCount="1" stopTime="0.00" timeLoss="9.93" rerouteNo="1" devices="tripinfo_h7800c1:5 routing_h7800c1:5 emissions_h7800c1:5" vType="default_016" speedFactor="1.13" vaporized="">
        <emissions CO_abs="1392.688453" CO2_abs="60681.084304" HC_abs="7.751854" PMx_abs="1.086650" NOx_abs="25.268519" fuel_abs="26.084535" electricity_abs="0"/>
    </tripinfo>
    <tripinfo id="h7181c1:1" depart="57660.00" departLane="315358254#0_1" departPos="5.10" departSpeed="0.00" departDelay="0.10" arrival="57731.00" arrivalLane="306240162#0_0" arrivalPos="220.43" arrivalSpeed="15.59" duration="71.00" routeLength="932.35" waitingTime="5.00" waitingCount="1" stopTime="0.00" timeLoss="18.34" rerouteNo="1" devices="tripinfo_h7181c1:1 routing_h7181c1:1 emissions_h7181c1:1" vType="default_016" speedFactor="0.97" vaporized="">
        <emissions CO_abs="3499.093298" CO2_abs="240637.235233" HC_abs="21.653014" PMx_abs="4.560454" NOx_abs="98.062893" fuel_abs="103.439244" electricity_abs="0"/>
    </tripinfo>
    <tripinfo id="carIn80064:1" depart="57603.00" departLane="128361109#1_1" departPos="5.10" departSpeed="0.00" departDelay="0.40" arrival="57749.00" arrivalLane="-315358254#1_1" arrivalPos="137.16" arrivalSpeed="13.30" duration="146.00" routeLength="1587.97" waitingTime="26.00" waitingCount="1" stopTime="0.00" timeLoss="57.20" rerouteNo="1" devices="tripinfo_carIn80064:1 routing_carIn80064:1 emissions_carIn80064:1" vType="default_016" speedFactor="1.00" vaporized="">
        <emissions CO_abs="10589.547030" CO2_abs="527694.262899" HC_abs="60.790007" PMx_abs="10.735360" NOx_abs="222.119370" fuel_abs="226.833423" electricity_abs="0"/>
    </tripinfo>
    <tripinfo id="h317c2:1" depart="57707.00" departLane="-32978638#0_1" departPos="5.10" departSpeed="0.00" departDelay="0.10" arrival="57756.00" arrivalLane="-266565295#5_1" arrivalPos="172.76" arrivalSpeed="13.24" duration="49.00" routeLength="370.53" waitingTime="11.00" waitingCount="1" stopTime="0.00" timeLoss="20.89" rerouteNo="1" devices="tripinfo_h317c2:1 routing_h317c2:1 emissions_h317c2:1" vType="default_016" speedFactor="0.99" vaporized="">
        <emissions CO_abs="2969.987371" CO2_abs="136307.735985" HC_abs="16.730262" PMx_abs="2.557717" NOx_abs="56.772970" fuel_abs="58.593376" electricity_abs="0"/>
    </tripinfo>
    <tripinfo id="h5979c1:5" depart="57669.00" departLane="399835085#1_1" departPos="5.10" departSpeed="0.00" departDelay="0.00" arrival="57757.00" arrivalLane="-315358254#1_1" arrivalPos="137.16" arrivalSpeed="15.82" duration="88.00" routeLength="659.33" waitingTime="6.00" waitingCount="1" stopTime="0.00" timeLoss="24.94" rerouteNo="1" devices="tripinfo_h5979c1:5 routing_h5979c1:5 emissions_h5979c1:5" vType="default_016" speedFactor="1.17" vaporized="">
        <emissions CO_abs="3927.743406" CO2_abs="199391.635743" HC_abs="22.525955" PMx_abs="3.450634" NOx_abs="81.568604" fuel_abs="85.710729" electricity_abs="0"/>
    </tripinfo>
    <tripinfo id="h9563c2:5" depart="57631.00" departLane="315358244_1" departPos="5.10" departSpeed="0.00" departDelay="0.70" arrival="57759.00" arrivalLane="386687235_1" arrivalPos="80.84" arrivalSpeed="10.47" duration="128.00" routeLength="1186.14" waitingTime="9.00" waitingCount="1" stopTime="0.00" timeLoss="23.39" rerouteNo="1" devices="tripinfo_h9563c2:5 routing_h9563c2:5 emissions_h9563c2:5" vType="default_016" speedFactor="0.83" vaporized="">
        <emissions CO_abs="4482.479886" CO2_abs="270209.311474" HC_abs="26.635288" PMx_abs="4.158796" NOx_abs="106.591873" fuel_abs="116.152635" electricity_abs="0"/>
    </tripinfo>
    <tripinfo id="h3326c1:2" depart="57656.00" departLane="22716069#0_1" departPos="5.10" departSpeed="0.00" departDelay="0.00" arrival="57761.00" arrivalLane="24634517#13_1" arrivalPos="111.62" arrivalSpeed="14.58" duration="105.00" routeLength="1312.81" waitingTime="0.00" waitingCount="0" stopTime="0.00" timeLoss="16.48" rerouteNo="1" devices="tripinfo_h3326c1:2 routing_h3326c1:2 emissions_h3326c1:2" vType="default_016" speedFactor="1.10" vaporized="">
        <emissions CO_abs="4176.704232" CO2_abs="311555.295336" HC_abs="26.240852" PMx_abs="5.568021" NOx_abs="126.548326" fuel_abs="133.923772" electricity_abs="0"/>
    </tripinfo>
    <tripinfo id="carIn30817:1" depart="57681.00" departLane="315358244_1" departPos="5.10" departSpeed="0.00" departDelay="0.20" arrival="57768.00" arrivalLane="447569997#1_1" arrivalPos="180.93" arrivalSpeed="6.27" duration="87.00" routeLength="718.04" waitingTime="0.00" waitingCount="0" stopTime="0.00" timeLoss="16.67" rerouteNo="1" devices="tripinfo_carIn30817:1 routing_carIn30817:1 emissions_carIn30817:1" vType="default_016" speedFactor="0.88" vaporized="">
        <emissions CO_abs="3209.460264" CO2_abs="165810.486400" HC_abs="18.429828" PMx_abs="2.631690" NOx_abs="66.271859" fuel_abs="71.275813" electricity_abs="0"/>
    </tripinfo>
    <tripinfo id="h645c1:1" depart="57622.00" departLane="266565295#5_1" departPos="5.10" departSpeed="0.00" departDelay="0.40" arrival="57774.00" arrivalLane="-315358244_1" arrivalPos="33.95" arrivalSpeed="13.42" duration="152.00" routeLength="1910.83" waitingTime="4.00" waitingCount="1" stopTime="0.00" timeLoss="20.65" rerouteNo="1" devices="tripinfo_h645c1:1 routing_h645c1:1 emissions_h645c1:1" vType="default_016" speedFactor="1.05" vaporized="">
        <emissions CO_abs="4129.944401" CO2_abs="363716.488251" HC_abs="27.167893" PMx_abs="5.823195" NOx_abs="142.323299" fuel_abs="156.346059" electricity_abs="0"/>
    </tripinfo>
    <tripinfo id="carIn86816:1" depart="57617.00" departLane="128361102#0_1" departPos="5.10" departSpeed="0.00" departDelay="0.80" arrival="57780.00" arrivalLane="201956811#0_1" arrivalPos="40.40" arrivalSpeed="14.26" duration="163.00" routeLength="2067.33" waitingTime="0.00" waitingCount="0" stopTime="0.00" timeLoss="21.37" rerouteNo="1" devices="tripinfo_carIn86816:1 routing_carIn86816:1 emissions_carIn86816:1" vType="default_016" speedFactor="1.07" vaporized="">
        <emissions CO_abs="5355.533151" CO2_abs="435088.305831" HC_abs="34.527867" PMx_abs="7.374819" NOx_abs="173.665186" fuel_abs="187.025396" electricity_abs="0"/>
    </tripinfo>
    <tripinfo id="carIn12365:1" depart="57713.00" departLane="315358244_1" departPos="5.10" departSpeed="0.00" departDelay="0.50" arrival="57785.00" arrivalLane="447569997#1_1" arrivalPos="180.93" arrivalSpeed="7.59" duration="72.00" routeLength="718.04" waitingTime="0.00" waitingCount="0" stopTime="0.00" timeLoss="7.18" rerouteNo="1" devices="tripinfo_carIn12365:1 routing_carIn12365:1 emissions_carIn12365:1" vType="default_016" speedFactor="0.96" vaporized="">
        <emissions CO_abs="2210.901618" CO2_abs="154890.452075" HC_abs="13.644276" PMx_abs="2.353865" NOx_abs="60.652767" fuel_abs="66.581239" electricity_abs="0"/>
    </tripinfo>
    <tripinfo id="h330c1:1" depart="57736.00" departLane="-32978638#0_1" departPos="5.10" departSpeed="0.00" departDelay="0.20" arrival="57786.00" arrivalLane="-266565295#5_1" arrivalPos="172.76" arrivalSpeed="11.68" duration="50.00" routeLength="370.53" waitingTime="13.00" waitingCount="1" stopTime="0.00" timeLoss="20.35" rerouteNo="1" devices="tripinfo_h330c1:1 routing_h330c1:1 emissions_h330c1:1" vType="default_016" speedFactor="0.92" vaporized="">
        <emissions CO_abs="3232.449957" CO2_abs="130323.085340" HC_abs="17.775701" PMx_abs="2.472915" NOx_abs="54.602968" fuel_abs="56.021088" electricity_abs="0"/>
    </tripinfo>
    <tripinfo id="carIn27009:1" depart="57673.00" departLane="-447569998#1_1" departPos="5.10" departSpeed="0.00" departDelay="0.50" arrival="57793.00" arrivalLane="-26677539_1" arrivalPos="152.75" arrivalSpeed="7.51" duration="120.00" routeLength="699.63" waitingTime="21.00" waitingCount="1" stopTime="0.00" timeLoss="37.43" rerouteNo="1" devices="tripinfo_carIn27009:1 routing_carIn27009:1 emissions_carIn27009:1" vType="default_015" speedFactor="1.02" vaporized="">
        <emissions CO_abs="6629.678754" CO2_abs="232692.441780" HC_abs="35.567195" PMx_abs="4.212477" NOx_abs="97.073892" fuel_abs="100.026850" electricity_abs="0"/>
    </tripinfo>
    <tripinfo id="carIn107084:1" depart="57601.00" departLane="124812856#0_1" departPos="5.10" departSpeed="0.00" departDelay="0.70" arrival="57797.00" arrivalLane="-128361102#1_1" arrivalPos="274.68" arrivalSpeed="13.03" duration="196.00" routeLength="2250.49" waitingTime="1.00" waitingCount="1" stopTime="0.00" timeLoss="24.58" rerouteNo="1" devices="tripinfo_carIn107084:1 routing_carIn107084:1 emissions_carIn107084:1" vType="default_016" speedFactor="0.96" vaporized="">
        <emissions CO_abs="5826.210119" CO2_abs="465906.339984" HC_abs="37.393692" PMx_abs="7.425650" NOx_abs="183.820113" fuel_abs="200.273444" electricity_abs="0"/>
    </tripinfo>
    <tripinfo id="carIn118591:1" depart="57689.00" departLane="315358244_1" departPos="5.10" departSpeed="0.00" departDelay="0.20" arrival="57797.00" arrivalLane="386687235_1" arrivalPos="80.84" arrivalSpeed="11.69" duration="108.00" routeLength="1186.14" waitingTime="0.00" waitingCount="0" stopTime="0.00" timeLoss="12.92" rerouteNo="1" devices="tripinfo_carIn118591:1 routing_carIn118591:1 emissions_carIn118591:1" vType="default_016" speedFactor="0.91" vaporized="">
        <emissions CO_abs="3226.572683" CO2_abs="235119.758803" HC_abs="20.147600" PMx_abs="3.675204" NOx_abs="92.593847" fuel_abs="101.068372" electricity_abs="0"/>
    </tripinfo>
    <tripinfo id="h3154c1:1" depart="57658.00" departLane="24634507_1" departPos="5.10" departSpeed="0.00" departDelay="0.00" arrival="57798.00" arrivalLane="-266565295#5_1" arrivalPos="172.76" arrivalSpeed="11.90" duration="140.00" routeLength="1206.22" waitingTime="14.00" waitingCount="3" stopTime="0.00" timeLoss="45.58" rerouteNo="1" devices="tripinfo_h3154c1:1 routing_h3154c1:1 emissions_h3154c1:1" vType="default_016" speedFactor="0.94" vaporized="">
        <emissions CO_abs="5861.027374" CO2_abs="330360.925135" HC_abs="34.420213" PMx_abs="5.820210" NOx_abs="135.239758" fuel_abs="142.008694" electricity_abs="0"/>
    </tripinfo>
    <tripinfo id="carIn77943:1" depart="57608.00" departLane="124812856#0_1" departPos="5.10" departSpeed="0.00" departDelay="2.50" arrival="57801.00" arrivalLane="-128361102#1_1" arrivalPos="274.68" arrivalSpeed="13.89" duration="193.00" routeLength="2250.49" waitingTime="0.00" waitingCount="0" stopTime="0.00" timeLoss="34.72" rerouteNo="1" devices="tripinfo_carIn77943:1 routing_carIn77943:1 emissions_carIn77943:1" vType="default_016" speedFactor="1.04" vaporized="">
        <emissions CO_abs="6145.105225" CO2_abs="485291.863651" HC_abs="39.314108" PMx_abs="8.052880" NOx_abs="193.698539" fuel_abs="208.606015" electricity_abs="0"/>
    </tripinfo>
    <tripinfo id="carIn81046:1" depart="57611.00" departLane="124812856#0_1" departPos="5.10" departSpeed="0.00" departDelay="2.50" arrival="57804.00" arrivalLane="-128361102#1_1" arrivalPos="274.68" arrivalSpeed="12.74" duration="193.00" routeLength="2250.49" waitingTime="0.00" waitingCount="0" stopTime="0.00" timeLoss="28.82" rerouteNo="1" devices="tripinfo_carIn81046:1 routing_carIn81046:1 emissions_carIn81046:1" vType="default_016" speedFactor="1.00" vaporized="">
        <emissions CO_abs="6254.791165" CO2_abs="499461.898067" HC_abs="40.130103" PMx_abs="8.120227" NOx_abs="198.278951" fuel_abs="214.697300" electricity_abs="0"/>
    </tripinfo>
    <tripinfo id="carIn81860:1" depart="57712.00" departLane="128361102#0_1" departPos="5.10" departSpeed="0.00" departDelay="0.60" arrival="57805.00" arrivalLane="-24634517#17_1" arrivalPos="6.43" arrivalSpeed="8.02" duration="93.00" routeLength="1229.64" waitingTime="2.00" waitingCount="1" stopTime="0.00" timeLoss="17.70" rerouteNo="1" devices="tripinfo_carIn81860:1 routing_carIn81860:1 emissions_carIn81860:1" vType="default_016" speedFactor="1.21" vaporized="">
        <emissions CO_abs="3402.302377" CO2_abs="262724.650677" HC_abs="21.514904" PMx_abs="4.600006" NOx_abs="104.935284" fuel_abs="112.933799" electricity_abs="0"/>
    </tripinfo>
    <tripinfo id="carIn102915:1" depart="57643.00" departLane="128361102#0_1" departPos="5.10" departSpeed="0.00" departDelay="0.40" arrival="57806.00" arrivalLane="201956811#0_1" arrivalPos="40.40" arrivalSpeed="14.34" duration="163.00" routeLength="2067.33" waitingTime="0.00" waitingCount="0" stopTime="0.00" timeLoss="16.54" rerouteNo="1" devices="tripinfo_carIn102915:1 routing_carIn102915:1 emissions_carIn102915:1" vType="default_016" speedFactor="1.04" vaporized="">
        <emissions CO_abs="4733.440111" CO2_abs="421776.280160" HC_abs="31.394050" PMx_abs="6.788590" NOx_abs="165.660799" fuel_abs="181.303347" electricity_abs="0"/>
    </tripinfo>
    <tripinfo id="randUni33724:1" depart="57646.00" departLane="128361102#0_1" departPos="5.10" departSpeed="0.00" departDelay="1.20" arrival="57807.00" arrivalLane="201956811#0_1" arrivalPos="40.40" arrivalSpeed="14.87" duration="161.00" routeLength="2067.33" waitingTime="0.00" waitingCount="0" stopTime="0.00" timeLoss="30.93" rerouteNo="1" devices="tripinfo_randUni33724:1 routing_randUni33724:1 emissions_randUni33724:1" vType="random_016" speedFactor="1.16" vaporized="">
        <emissions CO_abs="5805.545623" CO2_abs="469631.374095" HC_abs="37.434897" PMx_abs="8.148044" NOx_abs="188.583148" fuel_abs="201.873693" electricity_abs="0"/>
    </tripinfo>
    <tripinfo id="h17600c1:1" depart="57662.00" departLane="272042143_1" departPos="5.10" departSpeed="0.00" departDelay="0.30" arrival="57810.00" arrivalLane="201238729#3_1" arrivalPos="431.02" arrivalSpeed="14.53" duration="148.00" routeLength="2100.26" waitingTime="0.00" waitingCount="0" stopTime="0.00" timeLoss="11.26" rerouteNo="1" devices="tripinfo_h17600c1:1 routing_h17600c1:1 emissions_h17600c1:1" vType="default_016" speedFactor="1.11" vaporized="">
        <emissions CO_abs="3312.277809" CO2_abs="368254.094665" HC_abs="23.471017" PMx_abs="5.630572" NOx_abs="140.532237" fuel_abs="158.296419" electricity_abs="0"/>
    </tripinfo>
    <tripinfo id="carIn82278:1" depart="57702.00" departLane="-306240162#1_0" departPos="5.10" departSpeed="0.00" departDelay="0.70" arrival="57812.00" arrivalLane="399835085#1_1" arrivalPos="212.23" arrivalSpeed="7.99" duration="110.00" routeLength="1093.26" waitingTime="10.00" waitingCount="2" stopTime="0.00" timeLoss="36.69" rerouteNo="1" devices="tripinfo_carIn82278:1 routing_carIn82278:1 emissions_carIn82278:1" vType="default_016" speedFactor="1.07" vaporized="">
        <emissions CO_abs="6075.607049" CO2_abs="348106.650513" HC_abs="35.902518" PMx_abs="6.706820" NOx_abs="144.571979" fuel_abs="149.636057" electricity_abs="0"/>
    </tripinfo>
    <tripinfo id="carIn129809:1" depart="57729.00" departLane="-447569998#1_1" departPos="5.10" departSpeed="0.00" departDelay="1.00" arrival="57813.00" arrivalLane="-315358244_1" arrivalPos="33.95" arrivalSpeed="12.21" duration="84.00" routeLength="706.49" waitingTime="6.00" waitingCount="1" stopTime="0.00" timeLoss="20.91" rerouteNo="1" devices="tripinfo_carIn129809:1 routing_carIn129809:1 emissions_carIn129809:1" vType="default_015" speedFactor="0.97" vaporized="">
        <emissions CO_abs="3269.038944" CO2_abs="182028.543891" HC_abs="19.138145" PMx_abs="3.165954" NOx_abs="74.369024" fuel_abs="78.246735" electricity_abs="0"/>
    </tripinfo>
    <tripinfo id="carIn121703:1" depart="57647.00" departLane="386687232#0_1" departPos="5.10" departSpeed="0.00" departDelay="0.30" arrival="57814.00" arrivalLane="-315358244_1" arrivalPos="33.95" arrivalSpeed="14.17" duration="167.00" routeLength="1157.39" waitingTime="73.00" waitingCount="1" stopTime="0.00" timeLoss="94.19" rerouteNo="1" devices="tripinfo_carIn121703:1 routing_carIn121703:1 emissions_carIn121703:1" vType="default_016" speedFactor="1.16" vaporized="">
        <emissions CO_abs="15395.209510" CO2_abs="479203.879721" HC_abs="81.344144" PMx_abs="9.921441" NOx_abs="204.276340" fuel_abs="205.993989" electricity_abs="0"/>
    </tripinfo>
    <tripinfo id="carIn77438:1" depart="57614.00" departLane="124812856#0_1" departPos="5.10" departSpeed="0.00" departDelay="1.10" arrival="57815.00" arrivalLane="-128361102#1_1" arrivalPos="274.68" arrivalSpeed="11.35" duration="201.00" routeLength="2250.49" waitingTime="0.00" waitingCount="0" stopTime="0.00" timeLoss="18.59" rerouteNo="1" devices="tripinfo_carIn77438:1 routing_carIn77438:1 emissions_carIn77438:1" vType="default_016" speedFactor="0.90" vaporized="">
        <emissions CO_abs="5027.847234" CO2_abs="414995.188679" HC_abs="32.481279" PMx_abs="6.139207" NOx_abs="160.877001" fuel_abs="178.389457" electricity_abs="0"/>
    </tripinfo>
    <tripinfo id="h19804c1:3" depart="57617.00" departLane="124812856#0_1" departPos="5.10" departSpeed="0.00" departDelay="1.50" arrival="57816.00" arrivalLane="-128361102#1_1" arrivalPos="274.68" arrivalSpeed="11.83" duration="199.00" routeLength="2250.49" waitingTime="0.00" waitingCount="0" stopTime="0.00" timeLoss="22.41" rerouteNo="1" devices="tripinfo_h19804c1:3 routing_h19804c1:3 emissions_h19804c1:3" vType="default_016" speedFactor="0.93" vaporized="">
        <emissions CO_abs="5434.309558" CO2_abs="445741.473677" HC_abs="35.097286" PMx_abs="6.886427" NOx_abs="174.716620" fuel_abs="191.605607" electricity_abs="0"/>
    </tripinfo>
    <tripinfo id="carIn82220:1" depart="57619.00" departLane="-306240162#1_0" departPos="5.10" departSpeed="0.00" departDelay="3.50" arrival="57824.00" arrivalLane="386687235_2" arrivalPos="80.84" arrivalSpeed="12.53" duration="205.00" routeLength="2257.41" waitingTime="17.00" waitingCount="2" stopTime="0.00" timeLoss="44.15" rerouteNo="1" devices="tripinfo_carIn82220:1 routing_carIn82220:1 emissions_carIn82220:1" vType="default_016" speedFactor="0.93" vaporized="">
        <emissions CO_abs="7715.542771" CO2_abs="511221.381884" HC_abs="47.124051" PMx_abs="8.768853" NOx_abs="204.803983" fuel_abs="219.752739" electricity_abs="0"/>
    </tripinfo>
    <tripinfo id="carIn48184:1" depart="57613.00" departLane="-306240162#1_0" departPos="5.10" departSpeed="0.00" departDelay="0.70" arrival="57825.00" arrivalLane="386687235_1" arrivalPos="80.84" arrivalSpeed="12.31" duration="212.00" routeLength="2257.41" waitingTime="20.00" waitingCount="2" stopTime="0.00" timeLoss="47.81" rerouteNo="1" devices="tripinfo_carIn48184:1 routing_carIn48184:1 emissions_carIn48184:1" vType="default_016" speedFactor="0.91" vaporized="">
        <emissions CO_abs="8298.137974" CO2_abs="514046.606263" HC_abs="49.728677" PMx_abs="8.867910" NOx_abs="206.696814" fuel_abs="220.967505" electricity_abs="0"/>
    </tripinfo>
    <tripinfo id="carIn462:1" depart="57622.00" departLane="-306240162#1_0" departPos="5.10" departSpeed="0.00" departDelay="4.80" arrival="57826.00" arrivalLane="386687235_1" arrivalPos="80.84" arrivalSpeed="14.31" duration="204.00" routeLength="2257.41" waitingTime="14.00" waitingCount="2" stopTime="0.00" timeLoss="67.72" rerouteNo="1" devices="tripinfo_carIn462:1 routing_carIn462:1 emissions_carIn462:1" vType="default_016" speedFactor="1.09" vaporized="">
        <emissions CO_abs="9114.839705" CO2_abs="587447.824505" HC_abs="55.399717" PMx_abs="10.773551" NOx_abs="240.121556" fuel_abs="252.518423" electricity_abs="0"/>
    </tripinfo>
    <tripinfo id="carIn50326:1" depart="57651.00" departLane="128361102#0_1" departPos="5.10" departSpeed="0.00" departDelay="0.30" arrival="57826.00" arrivalLane="18809673#0_1" arrivalPos="473.56" arrivalSpeed="11.60" duration="175.00" routeLength="1591.07" waitingTime="9.00" waitingCount="1" stopTime="0.00" timeLoss="32.22" rerouteNo="1" devices="tripinfo_carIn50326:1 routing_carIn50326:1 emissions_carIn50326:1" vType="default_016" speedFactor="0.91" vaporized="">
        <emissions CO_abs="5920.250545" CO2_abs="347383.090358" HC_abs="34.975244" PMx_abs="5.457786" NOx_abs="137.838560" fuel_abs="149.326643" electricity_abs="0"/>
    </tripinfo>
    <tripinfo id="carIn116184:1" depart="57627.00" departLane="-306240162#1_0" departPos="5.10" departSpeed="0.00" departDelay="0.10" arrival="57828.00" arrivalLane="386687235_1" arrivalPos="80.84" arrivalSpeed="14.58" duration="201.00" routeLength="2257.41" waitingTime="17.00" waitingCount="2" stopTime="0.00" timeLoss="64.50" rerouteNo="1" devices="tripinfo_carIn116184:1 routing_carIn116184:1 emissions_carIn116184:1" vType="default_016" speedFactor="1.09" vaporized="">
        <emissions CO_abs="9534.765693" CO2_abs="610520.582050" HC_abs="57.900929" PMx_abs="11.389472" NOx_abs="250.343498" fuel_abs="262.436210" electricity_abs="0"/>
    </tripinfo>
    <tripinfo id="h11737c1:1" depart="57665.00" departLane="272042143_1" departPos="5.10" departSpeed="0.00" departDelay="1.50" arrival="57828.00" arrivalLane="-315358254#1_1" arrivalPos="137.16" arrivalSpeed="11.91" duration="163.00" routeLength="1596.88" waitingTime="13.00" waitingCount="1" stopTime="0.00" timeLoss="29.89" rerouteNo="1" devices="tripinfo_h11737c1:1 routing_h11737c1:1 emissions_h11737c1:1" vType="default_016" speedFactor="0.87" vaporized="">
        <emissions CO_abs="5705.646189" CO2_abs="341803.179199" HC_abs="33.901432" PMx_abs="5.481307" NOx_abs="135.875561" fuel_abs="146.927830" electricity_abs="0"/>
    </tripinfo>
    <tripinfo id="carIn126288:1" depart="57674.00" departLane="272042143_1" departPos="5.10" departSpeed="0.00" departDelay="0.00" arrival="57830.00" arrivalLane="-315358254#1_1" arrivalPos="137.16" arrivalSpeed="12.78" duration="156.00" routeLength="1596.88" waitingTime="12.00" waitingCount="1" stopTime="0.00" timeLoss="33.99" rerouteNo="1" devices="tripinfo_carIn126288:1 routing_carIn126288:1 emissions_carIn126288:1" vType="default_016" speedFactor="0.95" vaporized="">
        <emissions CO_abs="5456.600910" CO2_abs="365438.253295" HC_abs="33.375631" PMx_abs="6.045783" NOx_abs="146.135209" fuel_abs="157.086826" electricity_abs="0"/>
    </tripinfo>
    <tripinfo id="carIn12152:1" depart="57647.00" departLane="24599188#0.94_1" departPos="5.10" departSpeed="0.00" departDelay="0.50" arrival="57832.00" arrivalLane="-315358254#1_1" arrivalPos="137.16" arrivalSpeed="15.25" duration="185.00" routeLength="2034.31" waitingTime="12.00" waitingCount="1" stopTime="0.00" timeLoss="43.02" rerouteNo="1" devices="tripinfo_carIn12152:1 routing_carIn12152:1 emissions_carIn12152:1" vType="default_016" speedFactor="1.12" vaporized="">
        <emissions CO_abs="7720.620058" CO2_abs="498477.933900" HC_abs="46.770714" PMx_abs="8.835058" NOx_abs="202.321069" fuel_abs="214.274493" electricity_abs="0"/>
    </tripinfo>
    <tripinfo id="carIn100288:1" depart="57664.00" departLane="128361102#0_1" departPos="5.10" departSpeed="0.00" departDelay="0.60" arrival="57835.00" arrivalLane="201956811#0_1" arrivalPos="40.40" arrivalSpeed="12.80" duration="171.00" routeLength="2067.33" waitingTime="0.00" waitingCount="0" stopTime="0.00" timeLoss="15.61" rerouteNo="1" devices="tripinfo_carIn100288:1 routing_carIn100288:1 emissions_carIn100288:1" vType="default_016" speedFactor="0.98" vaporized="">
        <emissions CO_abs="4512.676241" CO2_abs="404344.201507" HC_abs="29.945070" PMx_abs="6.240323" NOx_abs="157.501500" fuel_abs="173.810400" electricity_abs="0"/>
    </tripinfo>