<?xml version="1.0" encoding="UTF-8"?>

<!-- generated on 2021-10-26 13:12:32 by Eclipse SUMO sumo Version 1.10.0
<configuration xmlns:xsi="http://www.w3.org/2001/XMLSchema-instance" xsi:noNamespaceSchemaLocation="http://sumo.dlr.de/xsd/sumoConfiguration.xsd">

    <input>
        <net-file value="/Users/behradkoohy/sumo-scratchpad/RESCO/environments/ingolstadt21/ingolstadt21.net.xml"/>
        <route-files value="/Users/behradkoohy/sumo-scratchpad/RESCO/environments/ingolstadt21/ingolstadt21.rou.xml"/>
    </input>

    <output>
        <tripinfo-output value="/Users/behradkoohy/sumo-scratchpad/RESCO/logs/MAXPRESSURE-tr0-ingolstadt21-21-mplight-wait/tripinfo_43.xml"/>
        <tripinfo-output.write-unfinished value="true"/>
    </output>

    <time>
        <begin value="57600"/>
        <end value="61200"/>
    </time>

    <processing>
        <time-to-teleport value="-1"/>
    </processing>

    <report>
        <no-warnings value="true"/>
        <no-step-log value="true"/>
    </report>

    <emissions>
        <device.emissions.probability value="1"/>
    </emissions>

    <traci_server>
        <remote-port value="58757"/>
    </traci_server>

    <random_number>
        <random value="true"/>
    </random_number>

</configuration>
-->

<tripinfos xmlns:xsi="http://www.w3.org/2001/XMLSchema-instance" xsi:noNamespaceSchemaLocation="http://sumo.dlr.de/xsd/tripinfo_file.xsd">
    <tripinfo id="carIn60260:1" depart="57606.00" departLane="315358254#0_1" departPos="5.10" departSpeed="0.00" departDelay="0.90" arrival="57659.00" arrivalLane="399835085#1_1" arrivalPos="212.23" arrivalSpeed="7.86" duration="53.00" routeLength="430.98" waitingTime="0.00" waitingCount="0" stopTime="0.00" timeLoss="7.05" rerouteNo="1" devices="tripinfo_carIn60260:1 routing_carIn60260:1 emissions_carIn60260:1" vType="default_016" speedFactor="1.00" vaporized="">
        <emissions CO_abs="2201.815818" CO2_abs="115906.649145" HC_abs="12.716720" PMx_abs="1.970649" NOx_abs="47.370550" fuel_abs="49.823737" electricity_abs="0"/>
    </tripinfo>
    <tripinfo id="h15454c2:3" depart="57612.00" departLane="24608844_1" departPos="5.10" departSpeed="0.00" departDelay="0.50" arrival="57663.00" arrivalLane="32978638#0_1" arrivalPos="49.29" arrivalSpeed="10.46" duration="51.00" routeLength="354.79" waitingTime="0.00" waitingCount="0" stopTime="0.00" timeLoss="8.26" rerouteNo="1" devices="tripinfo_h15454c2:3 routing_h15454c2:3 emissions_h15454c2:3" vType="default_016" speedFactor="0.81" vaporized="">
        <emissions CO_abs="2513.713948" CO2_abs="115637.987195" HC_abs="14.127323" PMx_abs="2.014337" NOx_abs="47.771115" fuel_abs="49.708427" electricity_abs="0"/>
    </tripinfo>
    <tripinfo id="carIn53971:1" depart="57640.00" departLane="272042143_1" departPos="5.10" departSpeed="0.00" departDelay="0.80" arrival="57689.00" arrivalLane="24634414#1_1" arrivalPos="162.19" arrivalSpeed="8.92" duration="49.00" routeLength="493.04" waitingTime="0.00" waitingCount="0" stopTime="0.00" timeLoss="8.68" rerouteNo="1" devices="tripinfo_carIn53971:1 routing_carIn53971:1 emissions_carIn53971:1" vType="default_016" speedFactor="1.13" vaporized="">
        <emissions CO_abs="2435.376305" CO2_abs="143360.181766" HC_abs="14.470479" PMx_abs="2.641641" NOx_abs="59.599198" fuel_abs="61.624412" electricity_abs="0"/>
    </tripinfo>
    <tripinfo id="h12244c1:3" depart="57612.00" departLane="315358244_1" departPos="5.10" departSpeed="0.00" departDelay="0.40" arrival="57704.00" arrivalLane="386687235_1" arrivalPos="80.84" arrivalSpeed="13.77" duration="92.00" routeLength="1186.14" waitingTime="0.00" waitingCount="0" stopTime="0.00" timeLoss="8.07" rerouteNo="1" devices="tripinfo_h12244c1:3 routing_h12244c1:3 emissions_h12244c1:3" vType="default_016" speedFactor="1.03" vaporized="">
        <emissions CO_abs="2386.840007" CO2_abs="221855.918553" HC_abs="15.961705" PMx_abs="3.414407" NOx_abs="85.832591" fuel_abs="95.366417" electricity_abs="0"/>
    </tripinfo>
    <tripinfo id="S5R_frequency1.2" depart="57615.00" departLane="315358250#0_1" departPos="12.10" departSpeed="0.00" departDelay="3.40" arrival="57708.00" arrivalLane="386687235_1" arrivalPos="80.84" arrivalSpeed="13.55" duration="93.00" routeLength="1115.62" waitingTime="0.00" waitingCount="0" stopTime="0.00" timeLoss="11.53" rerouteNo="1" devices="tripinfo_S5R_frequency1.2 routing_S5R_frequency1.2 emissions_S5R_frequency1.2" vType="bus" speedFactor="1.00" vaporized="">
        <emissions CO_abs="1929.992261" CO2_abs="1233306.730144" HC_abs="407.560787" PMx_abs="207.574241" NOx_abs="9501.810074" fuel_abs="526.001869" electricity_abs="0"/>
    </tripinfo>
    <tripinfo id="h9563c2:5" depart="57631.00" departLane="315358244_1" departPos="5.10" departSpeed="0.00" departDelay="0.70" arrival="57725.00" arrivalLane="386687235_1" arrivalPos="80.84" arrivalSpeed="13.15" duration="94.00" routeLength="1186.14" waitingTime="0.00" waitingCount="0" stopTime="0.00" timeLoss="8.25" rerouteNo="1" devices="tripinfo_h9563c2:5 routing_h9563c2:5 emissions_h9563c2:5" vType="default_016" speedFactor="1.01" vaporized="">
        <emissions CO_abs="2297.388666" CO2_abs="222248.932386" HC_abs="15.522833" PMx_abs="3.248465" NOx_abs="84.893541" fuel_abs="95.535535" electricity_abs="0"/>
    </tripinfo>
    <tripinfo id="h7800c1:5" depart="57696.00" departLane="-447569998#1_1" departPos="5.10" departSpeed="0.00" departDelay="0.00" arrival="57725.00" arrivalLane="-447569998#1_2" arrivalPos="180.76" arrivalSpeed="3.87" duration="29.00" routeLength="175.66" waitingTime="1.00" waitingCount="1" stopTime="0.00" timeLoss="7.50" rerouteNo="1" devices="tripinfo_h7800c1:5 routing_h7800c1:5 emissions_h7800c1:5" vType="default_016" speedFactor="0.99" vaporized="">
        <emissions CO_abs="1223.550943" CO2_abs="47757.865475" HC_abs="6.668303" PMx_abs="0.811557" NOx_abs="19.652503" fuel_abs="20.529496" electricity_abs="0"/>
    </tripinfo>
    <tripinfo id="carIn22761:1" depart="57616.00" departLane="-306240162#1_0" departPos="5.10" departSpeed="0.00" departDelay="2.10" arrival="57731.00" arrivalLane="399835085#1_1" arrivalPos="212.23" arrivalSpeed="6.05" duration="115.00" routeLength="1093.26" waitingTime="9.00" waitingCount="1" stopTime="0.00" timeLoss="25.54" rerouteNo="1" devices="tripinfo_carIn22761:1 routing_carIn22761:1 emissions_carIn22761:1" vType="default_016" speedFactor="0.87" vaporized="">
        <emissions CO_abs="4983.421285" CO2_abs="272647.577397" HC_abs="29.048974" PMx_abs="4.785563" NOx_abs="110.641992" fuel_abs="117.200314" electricity_abs="0"/>
    </tripinfo>
    <tripinfo id="h7181c1:1" depart="57660.00" departLane="315358254#0_1" departPos="5.10" departSpeed="0.00" departDelay="0.10" arrival="57731.00" arrivalLane="306240162#0_0" arrivalPos="220.43" arrivalSpeed="16.79" duration="71.00" routeLength="932.35" waitingTime="8.00" waitingCount="1" stopTime="0.00" timeLoss="20.80" rerouteNo="1" devices="tripinfo_h7181c1:1 routing_h7181c1:1 emissions_h7181c1:1" vType="default_016" speedFactor="1.03" vaporized="">
        <emissions CO_abs="4076.262189" CO2_abs="251370.900445" HC_abs="24.475191" PMx_abs="4.951926" NOx_abs="103.588698" fuel_abs="108.053232" electricity_abs="0"/>
    </tripinfo>
    <tripinfo id="h3688c1:1" depart="57625.00" departLane="201201950#1_1" departPos="5.10" departSpeed="0.00" departDelay="0.00" arrival="57733.00" arrivalLane="32978638#0_1" arrivalPos="49.29" arrivalSpeed="12.63" duration="108.00" routeLength="1089.75" waitingTime="7.00" waitingCount="1" stopTime="0.00" timeLoss="20.02" rerouteNo="1" devices="tripinfo_h3688c1:1 routing_h3688c1:1 emissions_h3688c1:1" vType="default_016" speedFactor="0.91" vaporized="">
        <emissions CO_abs="4082.065377" CO2_abs="260863.224111" HC_abs="24.683578" PMx_abs="4.406208" NOx_abs="105.176952" fuel_abs="112.134329" electricity_abs="0"/>
    </tripinfo>
    <tripinfo id="carIn80064:1" depart="57603.00" departLane="128361109#1_1" departPos="5.10" departSpeed="0.00" departDelay="0.40" arrival="57749.00" arrivalLane="-315358254#1_1" arrivalPos="137.16" arrivalSpeed="13.06" duration="146.00" routeLength="1587.97" waitingTime="26.00" waitingCount="1" stopTime="0.00" timeLoss="54.73" rerouteNo="1" devices="tripinfo_carIn80064:1 routing_carIn80064:1 emissions_carIn80064:1" vType="default_016" speedFactor="0.97" vaporized="">
        <emissions CO_abs="10363.205986" CO2_abs="512636.709498" HC_abs="59.448798" PMx_abs="10.424618" NOx_abs="216.032103" fuel_abs="220.360872" electricity_abs="0"/>
    </tripinfo>
    <tripinfo id="h317c2:1" depart="57707.00" departLane="-32978638#0_1" departPos="5.10" departSpeed="0.00" departDelay="0.10" arrival="57756.00" arrivalLane="-266565295#5_1" arrivalPos="172.76" arrivalSpeed="12.07" duration="49.00" routeLength="370.53" waitingTime="10.00" waitingCount="1" stopTime="0.00" timeLoss="19.30" rerouteNo="1" devices="tripinfo_h317c2:1 routing_h317c2:1 emissions_h317c2:1" vType="default_016" speedFactor="0.92" vaporized="">
        <emissions CO_abs="2670.824077" CO2_abs="122468.276023" HC_abs="15.033181" PMx_abs="2.257131" NOx_abs="50.832210" fuel_abs="52.644388" electricity_abs="0"/>
    </tripinfo>
    <tripinfo id="h3326c1:2" depart="57656.00" departLane="22716069#0_1" departPos="5.10" departSpeed="0.00" departDelay="0.00" arrival="57758.00" arrivalLane="24634517#13_1" arrivalPos="111.62" arrivalSpeed="15.36" duration="102.00" routeLength="1312.81" waitingTime="0.00" waitingCount="0" stopTime="0.00" timeLoss="16.32" rerouteNo="1" devices="tripinfo_h3326c1:2 routing_h3326c1:2 emissions_h3326c1:2" vType="default_016" speedFactor="1.14" vaporized="">
        <emissions CO_abs="4156.927232" CO2_abs="309449.566605" HC_abs="26.166462" PMx_abs="5.635609" NOx_abs="126.264342" fuel_abs="133.018479" electricity_abs="0"/>
    </tripinfo>
    <tripinfo id="h5979c1:5" depart="57669.00" departLane="399835085#1_1" departPos="5.10" departSpeed="0.00" departDelay="0.00" arrival="57758.00" arrivalLane="-315358254#1_1" arrivalPos="137.16" arrivalSpeed="14.24" duration="89.00" routeLength="659.33" waitingTime="3.00" waitingCount="1" stopTime="0.00" timeLoss="17.65" rerouteNo="1" devices="tripinfo_h5979c1:5 routing_h5979c1:5 emissions_h5979c1:5" vType="default_016" speedFactor="1.04" vaporized="">
        <emissions CO_abs="3597.785042" CO2_abs="182408.778785" HC_abs="20.595037" PMx_abs="3.001178" NOx_abs="73.815442" fuel_abs="78.410679" electricity_abs="0"/>
    </tripinfo>
    <tripinfo id="h3154c1:1" depart="57658.00" departLane="24634507_1" departPos="5.10" departSpeed="0.00" departDelay="0.00" arrival="57764.00" arrivalLane="-266565295#5_1" arrivalPos="172.76" arrivalSpeed="15.90" duration="106.00" routeLength="1206.22" waitingTime="9.00" waitingCount="2" stopTime="0.00" timeLoss="30.04" rerouteNo="1" devices="tripinfo_h3154c1:1 routing_h3154c1:1 emissions_h3154c1:1" vType="default_016" speedFactor="1.18" vaporized="">
        <emissions CO_abs="4889.815781" CO2_abs="330921.123035" HC_abs="29.966897" PMx_abs="6.104102" NOx_abs="135.650539" fuel_abs="142.248379" electricity_abs="0"/>
    </tripinfo>
    <tripinfo id="h3568c1:3" depart="57656.00" departLane="266565295#5_1" departPos="5.10" departSpeed="0.00" departDelay="0.80" arrival="57765.00" arrivalLane="-24634415_1" arrivalPos="62.03" arrivalSpeed="10.05" duration="109.00" routeLength="807.40" waitingTime="9.00" waitingCount="1" stopTime="0.00" timeLoss="27.18" rerouteNo="1" devices="tripinfo_h3568c1:3 routing_h3568c1:3 emissions_h3568c1:3" vType="default_016" speedFactor="0.79" vaporized="">
        <emissions CO_abs="4707.747349" CO2_abs="224169.159056" HC_abs="26.627412" PMx_abs="3.808348" NOx_abs="91.534009" fuel_abs="96.361953" electricity_abs="0"/>
    </tripinfo>
    <tripinfo id="carIn30817:1" depart="57681.00" departLane="315358244_1" departPos="5.10" departSpeed="0.00" departDelay="0.20" arrival="57766.00" arrivalLane="447569997#1_1" arrivalPos="180.93" arrivalSpeed="6.65" duration="85.00" routeLength="718.04" waitingTime="4.00" waitingCount="2" stopTime="0.00" timeLoss="18.57" rerouteNo="1" devices="tripinfo_carIn30817:1 routing_carIn30817:1 emissions_carIn30817:1" vType="default_016" speedFactor="0.93" vaporized="">
        <emissions CO_abs="3210.177133" CO2_abs="170453.228384" HC_abs="18.577824" PMx_abs="2.877250" NOx_abs="69.089718" fuel_abs="73.271233" electricity_abs="0"/>
    </tripinfo>
    <tripinfo id="h645c1:1" depart="57622.00" departLane="266565295#5_1" departPos="5.10" departSpeed="0.00" departDelay="0.40" arrival="57772.00" arrivalLane="-315358244_1" arrivalPos="33.95" arrivalSpeed="15.35" duration="150.00" routeLength="1910.83" waitingTime="9.00" waitingCount="1" stopTime="0.00" timeLoss="25.16" rerouteNo="1" devices="tripinfo_h645c1:1 routing_h645c1:1 emissions_h645c1:1" vType="default_016" speedFactor="1.11" vaporized="">
        <emissions CO_abs="4544.835636" CO2_abs="391533.431569" HC_abs="29.651319" PMx_abs="6.432644" NOx_abs="153.536634" fuel_abs="168.303259" electricity_abs="0"/>
    </tripinfo>
    <tripinfo id="carIn12365:1" depart="57713.00" departLane="315358244_1" departPos="5.10" departSpeed="0.00" departDelay="0.50" arrival="57778.00" arrivalLane="447569997#1_1" arrivalPos="180.93" arrivalSpeed="8.48" duration="65.00" routeLength="718.04" waitingTime="0.00" waitingCount="0" stopTime="0.00" timeLoss="7.30" rerouteNo="1" devices="tripinfo_carIn12365:1 routing_carIn12365:1 emissions_carIn12365:1" vType="default_016" speedFactor="1.08" vaporized="">
        <emissions CO_abs="2039.992992" CO2_abs="146423.299049" HC_abs="12.626892" PMx_abs="2.284403" NOx_abs="57.414421" fuel_abs="62.941434" electricity_abs="0"/>
    </tripinfo>
    <tripinfo id="carIn48184:1" depart="57613.00" departLane="-306240162#1_0" departPos="5.10" departSpeed="0.00" departDelay="0.70" arrival="57783.00" arrivalLane="386687235_1" arrivalPos="80.84" arrivalSpeed="14.68" duration="170.00" routeLength="2257.41" waitingTime="9.00" waitingCount="2" stopTime="0.00" timeLoss="34.25" rerouteNo="1" devices="tripinfo_carIn48184:1 routing_carIn48184:1 emissions_carIn48184:1" vType="default_016" speedFactor="1.10" vaporized="">
        <emissions CO_abs="7445.900920" CO2_abs="555699.306198" HC_abs="46.852459" PMx_abs="10.147930" NOx_abs="224.259200" fuel_abs="238.870389" electricity_abs="0"/>
    </tripinfo>
    <tripinfo id="h330c1:1" depart="57736.00" departLane="-32978638#0_1" departPos="5.10" departSpeed="0.00" departDelay="0.20" arrival="57783.00" arrivalLane="-266565295#5_1" arrivalPos="172.76" arrivalSpeed="14.41" duration="47.00" routeLength="370.53" waitingTime="12.00" waitingCount="1" stopTime="0.00" timeLoss="21.99" rerouteNo="1" devices="tripinfo_h330c1:1 routing_h330c1:1 emissions_h330c1:1" vType="default_016" speedFactor="1.12" vaporized="">
        <emissions CO_abs="3630.796004" CO2_abs="148745.499461" HC_abs="20.063928" PMx_abs="3.011567" NOx_abs="63.279603" fuel_abs="63.939892" electricity_abs="0"/>
    </tripinfo>
    <tripinfo id="carIn86816:1" depart="57617.00" departLane="128361102#0_1" departPos="5.10" departSpeed="0.00" departDelay="0.80" arrival="57791.00" arrivalLane="201956811#0_1" arrivalPos="40.40" arrivalSpeed="13.23" duration="174.00" routeLength="2067.33" waitingTime="0.00" waitingCount="0" stopTime="0.00" timeLoss="18.96" rerouteNo="1" devices="tripinfo_carIn86816:1 routing_carIn86816:1 emissions_carIn86816:1" vType="default_016" speedFactor="0.98" vaporized="">
        <emissions CO_abs="5242.315393" CO2_abs="430704.078815" HC_abs="33.900644" PMx_abs="6.903834" NOx_abs="169.961910" fuel_abs="185.141315" electricity_abs="0"/>
    </tripinfo>
    <tripinfo id="carIn27009:1" depart="57673.00" departLane="-447569998#1_1" departPos="5.10" departSpeed="0.00" departDelay="0.50" arrival="57794.00" arrivalLane="-26677539_1" arrivalPos="152.75" arrivalSpeed="8.00" duration="121.00" routeLength="699.63" waitingTime="23.00" waitingCount="1" stopTime="0.00" timeLoss="36.02" rerouteNo="1" devices="tripinfo_carIn27009:1 routing_carIn27009:1 emissions_carIn27009:1" vType="default_015" speedFactor="0.98" vaporized="">
        <emissions CO_abs="6750.954978" CO2_abs="228212.890458" HC_abs="35.991776" PMx_abs="4.048400" NOx_abs="94.700359" fuel_abs="98.101574" electricity_abs="0"/>
    </tripinfo>
    <tripinfo id="h11737c1:1" depart="57665.00" departLane="272042143_1" departPos="5.10" departSpeed="0.00" departDelay="1.50" arrival="57796.00" arrivalLane="-315358254#1_1" arrivalPos="137.16" arrivalSpeed="15.03" duration="131.00" routeLength="1596.88" waitingTime="9.00" waitingCount="1" stopTime="0.00" timeLoss="26.48" rerouteNo="1" devices="tripinfo_h11737c1:1 routing_h11737c1:1 emissions_h11737c1:1" vType="default_016" speedFactor="1.11" vaporized="">
        <emissions CO_abs="4959.897696" CO2_abs="358779.103000" HC_abs="30.981793" PMx_abs="6.256450" NOx_abs="143.975442" fuel_abs="154.223651" electricity_abs="0"/>
    </tripinfo>
    <tripinfo id="carIn77943:1" depart="57608.00" departLane="124812856#0_1" departPos="5.10" departSpeed="0.00" departDelay="2.50" arrival="57797.00" arrivalLane="-128361102#1_1" arrivalPos="274.68" arrivalSpeed="14.88" duration="189.00" routeLength="2250.49" waitingTime="0.00" waitingCount="0" stopTime="0.00" timeLoss="37.14" rerouteNo="1" devices="tripinfo_carIn77943:1 routing_carIn77943:1 emissions_carIn77943:1" vType="default_016" speedFactor="1.08" vaporized="">
        <emissions CO_abs="6146.863797" CO2_abs="501120.284522" HC_abs="39.645057" PMx_abs="8.208255" NOx_abs="198.898482" fuel_abs="215.410000" electricity_abs="0"/>
    </tripinfo>
    <tripinfo id="carIn118591:1" depart="57689.00" departLane="315358244_1" departPos="5.10" departSpeed="0.00" departDelay="0.20" arrival="57797.00" arrivalLane="386687235_1" arrivalPos="80.84" arrivalSpeed="13.23" duration="108.00" routeLength="1186.14" waitingTime="4.00" waitingCount="2" stopTime="0.00" timeLoss="20.96" rerouteNo="1" devices="tripinfo_carIn118591:1 routing_carIn118591:1 emissions_carIn118591:1" vType="default_016" speedFactor="1.00" vaporized="">
        <emissions CO_abs="3875.760536" CO2_abs="278618.234545" HC_abs="24.098620" PMx_abs="4.553052" NOx_abs="110.488806" fuel_abs="119.766373" electricity_abs="0"/>
    </tripinfo>
    <tripinfo id="carIn81046:1" depart="57611.00" departLane="124812856#0_1" departPos="5.10" departSpeed="0.00" departDelay="2.50" arrival="57802.00" arrivalLane="-128361102#1_1" arrivalPos="274.68" arrivalSpeed="12.58" duration="191.00" routeLength="2250.49" waitingTime="0.00" waitingCount="0" stopTime="0.00" timeLoss="26.01" rerouteNo="1" devices="tripinfo_carIn81046:1 routing_carIn81046:1 emissions_carIn81046:1" vType="default_016" speedFactor="0.99" vaporized="">
        <emissions CO_abs="6262.620048" CO2_abs="491326.652564" HC_abs="40.043643" PMx_abs="8.251520" NOx_abs="196.702200" fuel_abs="211.200006" electricity_abs="0"/>
    </tripinfo>
    <tripinfo id="carIn77438:1" depart="57614.00" departLane="124812856#0_1" departPos="5.10" departSpeed="0.00" departDelay="1.10" arrival="57811.00" arrivalLane="-128361102#1_1" arrivalPos="274.68" arrivalSpeed="11.72" duration="197.00" routeLength="2250.49" waitingTime="0.00" waitingCount="0" stopTime="0.00" timeLoss="19.18" rerouteNo="1" devices="tripinfo_carIn77438:1 routing_carIn77438:1 emissions_carIn77438:1" vType="default_016" speedFactor="0.93" vaporized="">
        <emissions CO_abs="4944.582898" CO2_abs="420451.328985" HC_abs="32.239392" PMx_abs="6.239014" NOx_abs="162.772464" fuel_abs="180.734707" electricity_abs="0"/>
    </tripinfo>
    <tripinfo id="carIn50326:1" depart="57651.00" departLane="128361102#0_1" departPos="5.10" departSpeed="0.00" departDelay="0.30" arrival="57811.00" arrivalLane="18809673#0_1" arrivalPos="473.56" arrivalSpeed="13.41" duration="160.00" routeLength="1591.07" waitingTime="13.00" waitingCount="1" stopTime="0.00" timeLoss="35.79" rerouteNo="1" devices="tripinfo_carIn50326:1 routing_carIn50326:1 emissions_carIn50326:1" vType="default_016" speedFactor="1.04" vaporized="">
        <emissions CO_abs="6812.682222" CO2_abs="388312.712466" HC_abs="40.013064" PMx_abs="6.654569" NOx_abs="156.828967" fuel_abs="166.920106" electricity_abs="0"/>
    </tripinfo>
    <tripinfo id="carIn82278:1" depart="57702.00" departLane="-306240162#1_0" departPos="5.10" departSpeed="0.00" departDelay="0.70" arrival="57811.00" arrivalLane="399835085#1_1" arrivalPos="212.23" arrivalSpeed="8.73" duration="109.00" routeLength="1093.26" waitingTime="12.00" waitingCount="2" stopTime="0.00" timeLoss="37.33" rerouteNo="1" devices="tripinfo_carIn82278:1 routing_carIn82278:1 emissions_carIn82278:1" vType="default_016" speedFactor="1.08" vaporized="">
        <emissions CO_abs="6518.483059" CO2_abs="356956.218571" HC_abs="38.158945" PMx_abs="6.998994" NOx_abs="148.670050" fuel_abs="153.440205" electricity_abs="0"/>
    </tripinfo>
    <tripinfo id="h19804c1:3" depart="57617.00" departLane="124812856#0_1" departPos="5.10" departSpeed="0.00" departDelay="1.50" arrival="57813.00" arrivalLane="-128361102#1_1" arrivalPos="274.68" arrivalSpeed="12.24" duration="196.00" routeLength="2250.49" waitingTime="0.00" waitingCount="0" stopTime="0.00" timeLoss="24.39" rerouteNo="1" devices="tripinfo_h19804c1:3 routing_h19804c1:3 emissions_h19804c1:3" vType="default_016" speedFactor="0.96" vaporized="">
        <emissions CO_abs="5991.387597" CO2_abs="480359.011567" HC_abs="38.485332" PMx_abs="7.798189" NOx_abs="190.610203" fuel_abs="206.485784" electricity_abs="0"/>
    </tripinfo>
    <tripinfo id="carIn82220:1" depart="57619.00" departLane="-306240162#1_0" departPos="5.10" departSpeed="0.00" departDelay="3.50" arrival="57814.00" arrivalLane="386687235_1" arrivalPos="80.84" arrivalSpeed="12.97" duration="195.00" routeLength="2257.41" waitingTime="15.00" waitingCount="2" stopTime="0.00" timeLoss="44.04" rerouteNo="1" devices="tripinfo_carIn82220:1 routing_carIn82220:1 emissions_carIn82220:1" vType="default_016" speedFactor="0.99" vaporized="">
        <emissions CO_abs="7388.427227" CO2_abs="518421.849122" HC_abs="45.798380" PMx_abs="9.050201" NOx_abs="208.282571" fuel_abs="222.847339" electricity_abs="0"/>
    </tripinfo>
    <tripinfo id="carIn462:1" depart="57622.00" departLane="-306240162#1_0" departPos="5.10" departSpeed="0.00" departDelay="4.80" arrival="57814.00" arrivalLane="386687235_2" arrivalPos="80.84" arrivalSpeed="13.68" duration="192.00" routeLength="2257.41" waitingTime="13.00" waitingCount="2" stopTime="0.00" timeLoss="43.76" rerouteNo="1" devices="tripinfo_carIn462:1 routing_carIn462:1 emissions_carIn462:1" vType="default_016" speedFactor="1.00" vaporized="">
        <emissions CO_abs="7865.037376" CO2_abs="539095.159834" HC_abs="48.436084" PMx_abs="9.508329" NOx_abs="217.141610" fuel_abs="231.733919" electricity_abs="0"/>
    </tripinfo>
    <tripinfo id="carIn31257:1" depart="57630.00" departLane="-306240162#1_0" departPos="5.10" departSpeed="0.00" departDelay="1.60" arrival="57815.00" arrivalLane="386687235_2" arrivalPos="80.84" arrivalSpeed="15.41" duration="185.00" routeLength="2257.41" waitingTime="17.00" waitingCount="2" stopTime="0.00" timeLoss="58.99" rerouteNo="1" devices="tripinfo_carIn31257:1 routing_carIn31257:1 emissions_carIn31257:1" vType="default_016" speedFactor="1.18" vaporized="">
        <emissions CO_abs="8343.006450" CO2_abs="572211.581357" HC_abs="51.403108" PMx_abs="10.596325" NOx_abs="233.316583" fuel_abs="245.968502" electricity_abs="0"/>
    </tripinfo>
    <tripinfo id="carIn116184:1" depart="57627.00" departLane="-306240162#1_0" departPos="5.10" departSpeed="0.00" departDelay="0.10" arrival="57816.00" arrivalLane="386687235_1" arrivalPos="80.84" arrivalSpeed="11.97" duration="189.00" routeLength="2257.41" waitingTime="3.00" waitingCount="1" stopTime="0.00" timeLoss="26.67" rerouteNo="1" devices="tripinfo_carIn116184:1 routing_carIn116184:1 emissions_carIn116184:1" vType="default_016" speedFactor="0.91" vaporized="">
        <emissions CO_abs="5448.679608" CO2_abs="428287.498993" HC_abs="34.846791" PMx_abs="7.049021" NOx_abs="169.654441" fuel_abs="184.102512" electricity_abs="0"/>
    </tripinfo>
    <tripinfo id="h16072c2:3" depart="57663.00" departLane="315358254#0_1" departPos="5.10" departSpeed="0.00" departDelay="2.50" arrival="57818.00" arrivalLane="386687235_1" arrivalPos="80.84" arrivalSpeed="14.45" duration="155.00" routeLength="1611.92" waitingTime="10.00" waitingCount="2" stopTime="0.00" timeLoss="41.75" rerouteNo="1" devices="tripinfo_h16072c2:3 routing_h16072c2:3 emissions_h16072c2:3" vType="default_016" speedFactor="1.04" vaporized="">
        <emissions CO_abs="5851.737528" CO2_abs="378564.170613" HC_abs="35.494668" PMx_abs="6.543589" NOx_abs="153.060383" fuel_abs="162.728865" electricity_abs="0"/>
    </tripinfo>
    <tripinfo id="carIn12858:1" depart="57661.00" departLane="128361109#1_1" departPos="5.10" departSpeed="0.00" departDelay="0.90" arrival="57819.00" arrivalLane="399835085#1_1" arrivalPos="212.23" arrivalSpeed="7.64" duration="158.00" routeLength="1738.12" waitingTime="23.00" waitingCount="1" stopTime="0.00" timeLoss="48.85" rerouteNo="1" devices="tripinfo_carIn12858:1 routing_carIn12858:1 emissions_carIn12858:1" vType="default_016" speedFactor="1.05" vaporized="">
        <emissions CO_abs="10301.410853" CO2_abs="541105.332370" HC_abs="59.826219" PMx_abs="10.771036" NOx_abs="225.569715" fuel_abs="232.598238" electricity_abs="0"/>
    </tripinfo>
    <tripinfo id="carIn129809:1" depart="57729.00" departLane="-447569998#1_1" departPos="5.10" departSpeed="0.00" departDelay="1.00" arrival="57823.00" arrivalLane="-315358244_1" arrivalPos="33.95" arrivalSpeed="12.45" duration="94.00" routeLength="706.49" waitingTime="16.00" waitingCount="2" stopTime="0.00" timeLoss="30.84" rerouteNo="1" devices="tripinfo_carIn129809:1 routing_carIn129809:1 emissions_carIn129809:1" vType="default_015" speedFactor="0.95" vaporized="">
        <emissions CO_abs="3966.617872" CO2_abs="189972.837247" HC_abs="22.491971" PMx_abs="3.352136" NOx_abs="77.956798" fuel_abs="81.662065" electricity_abs="0"/>
    </tripinfo>
    <tripinfo id="carIn121703:1" depart="57647.00" departLane="386687232#0_1" departPos="5.10" departSpeed="0.00" departDelay="0.30" arrival="57824.00" arrivalLane="-315358244_2" arrivalPos="33.95" arrivalSpeed="13.14" duration="177.00" routeLength="1157.39" waitingTime="75.00" waitingCount="1" stopTime="0.00" timeLoss="94.18" rerouteNo="1" devices="tripinfo_carIn121703:1 routing_carIn121703:1 emissions_carIn121703:1" vType="default_016" speedFactor="1.02" vaporized="">
        <emissions CO_abs="15539.394669" CO2_abs="449152.040210" HC_abs="81.275830" PMx_abs="9.187946" NOx_abs="191.302153" fuel_abs="193.076761" electricity_abs="0"/>
    </tripinfo>
    <tripinfo id="carIn126288:1" depart="57674.00" departLane="272042143_1" departPos="5.10" departSpeed="0.00" departDelay="0.00" arrival="57828.00" arrivalLane="-315358254#1_1" arrivalPos="137.16" arrivalSpeed="12.42" duration="154.00" routeLength="1596.88" waitingTime="5.00" waitingCount="2" stopTime="0.00" timeLoss="24.99" rerouteNo="1" devices="tripinfo_carIn126288:1 routing_carIn126288:1 emissions_carIn126288:1" vType="default_016" speedFactor="0.91" vaporized="">
        <emissions CO_abs="4563.468575" CO2_abs="332472.100741" HC_abs="28.482576" PMx_abs="5.143439" NOx_abs="130.657264" fuel_abs="142.916238" electricity_abs="0"/>
    </tripinfo>
    <tripinfo id="carIn12152:1" depart="57647.00" departLane="24599188#0.94_1" departPos="5.10" departSpeed="0.00" departDelay="0.50" arrival="57829.00" arrivalLane="-315358254#1_1" arrivalPos="137.16" arrivalSpeed="13.91" duration="182.00" routeLength="2034.31" waitingTime="8.00" waitingCount="2" stopTime="0.00" timeLoss="43.60" rerouteNo="1" devices="tripinfo_carIn12152:1 routing_carIn12152:1 emissions_carIn12152:1" vType="default_016" speedFactor="1.14" vaporized="">
        <emissions CO_abs="6234.731312" CO2_abs="448463.797634" HC_abs="38.882620" PMx_abs="7.636720" NOx_abs="179.843208" fuel_abs="192.775440" electricity_abs="0"/>
    </tripinfo>
    <tripinfo id="carIn81860:1" depart="57712.00" departLane="128361102#0_1" departPos="5.10" departSpeed="0.00" departDelay="0.60" arrival="57834.00" arrivalLane="-24634517#17_1" arrivalPos="6.43" arrivalSpeed="8.84" duration="122.00" routeLength="1229.64" waitingTime="19.00" waitingCount="2" stopTime="0.00" timeLoss="40.31" rerouteNo="1" devices="tripinfo_carIn81860:1 routing_carIn81860:1 emissions_carIn81860:1" vType="default_016" speedFactor="1.12" vaporized="">
        <emissions CO_abs="5735.184571" CO2_abs="312230.780307" HC_abs="33.436392" PMx_abs="5.755527" NOx_abs="128.166143" fuel_abs="134.215188" electricity_abs="0"/>
    </tripinfo>
    <tripinfo id="carIn107084:1" depart="57601.00" departLane="124812856#0_1" departPos="5.10" departSpeed="0.00" departDelay="0.70" arrival="57835.00" arrivalLane="-128361102#1_1" arrivalPos="274.68" arrivalSpeed="10.49" duration="234.00" routeLength="2232.46" waitingTime="10.00" waitingCount="1" stopTime="0.00" timeLoss="31.08" rerouteNo="1" devices="tripinfo_carIn107084:1 routing_carIn107084:1 emissions_carIn107084:1" vType="default_016" speedFactor="0.80" vaporized="">
        <emissions CO_abs="6860.629167" CO2_abs="442790.655970" HC_abs="41.443478" PMx_abs="6.762910" NOx_abs="174.396843" fuel_abs="190.338404" electricity_abs="0"/>
    </tripinfo>
    <tripinfo id="50R_frequency3.17" depart="57674.00" departLane="-18809673#6_1" departPos="12.10" departSpeed="0.00" departDelay="0.70" arrival="57835.00" arrivalLane="201956811#0_1" arrivalPos="40.40" arrivalSpeed="13.84" duration="161.00" routeLength="1954.47" waitingTime="0.00" waitingCount="0" stopTime="0.00" timeLoss="16.01" rerouteNo="1" devices="tripinfo_50R_frequency3.17 routing_50R_frequency3.17 emissions_50R_frequency3.17" vType="bus" speedFactor="1.00" vaporized="">
        <emissions CO_abs="3146.946455" CO2_abs="2030802.979087" HC_abs="663.569980" PMx_abs="338.921846" NOx_abs="15593.044771" fuel_abs="866.138489" electricity_abs="0"/>
    </tripinfo>