<?xml version="1.0" encoding="UTF-8"?>

<!-- generated on 2021-10-26 13:14:09 by Eclipse SUMO sumo Version 1.10.0
<configuration xmlns:xsi="http://www.w3.org/2001/XMLSchema-instance" xsi:noNamespaceSchemaLocation="http://sumo.dlr.de/xsd/sumoConfiguration.xsd">

    <input>
        <net-file value="/Users/behradkoohy/sumo-scratchpad/RESCO/environments/ingolstadt21/ingolstadt21.net.xml"/>
        <route-files value="/Users/behradkoohy/sumo-scratchpad/RESCO/environments/ingolstadt21/ingolstadt21.rou.xml"/>
    </input>

    <output>
        <tripinfo-output value="/Users/behradkoohy/sumo-scratchpad/RESCO/logs/MAXPRESSURE-tr0-ingolstadt21-21-mplight-wait/tripinfo_45.xml"/>
        <tripinfo-output.write-unfinished value="true"/>
    </output>

    <time>
        <begin value="57600"/>
        <end value="61200"/>
    </time>

    <processing>
        <time-to-teleport value="-1"/>
    </processing>

    <report>
        <no-warnings value="true"/>
        <no-step-log value="true"/>
    </report>

    <emissions>
        <device.emissions.probability value="1"/>
    </emissions>

    <traci_server>
        <remote-port value="58767"/>
    </traci_server>

    <random_number>
        <random value="true"/>
    </random_number>

</configuration>
-->

<tripinfos xmlns:xsi="http://www.w3.org/2001/XMLSchema-instance" xsi:noNamespaceSchemaLocation="http://sumo.dlr.de/xsd/tripinfo_file.xsd">
    <tripinfo id="h15454c2:3" depart="57612.00" departLane="24608844_1" departPos="5.10" departSpeed="0.00" departDelay="0.50" arrival="57651.00" arrivalLane="32978638#0_1" arrivalPos="49.29" arrivalSpeed="14.01" duration="39.00" routeLength="354.79" waitingTime="0.00" waitingCount="0" stopTime="0.00" timeLoss="5.43" rerouteNo="1" devices="tripinfo_h15454c2:3 routing_h15454c2:3 emissions_h15454c2:3" vType="default_016" speedFactor="1.02" vaporized="">
        <emissions CO_abs="2187.690870" CO2_abs="124534.782049" HC_abs="12.874315" PMx_abs="2.184741" NOx_abs="51.122994" fuel_abs="53.532401" electricity_abs="0"/>
    </tripinfo>
    <tripinfo id="carIn60260:1" depart="57606.00" departLane="315358254#0_1" departPos="5.10" departSpeed="0.00" departDelay="0.90" arrival="57655.00" arrivalLane="399835085#1_1" arrivalPos="212.23" arrivalSpeed="9.10" duration="49.00" routeLength="430.98" waitingTime="0.00" waitingCount="0" stopTime="0.00" timeLoss="6.54" rerouteNo="1" devices="tripinfo_carIn60260:1 routing_carIn60260:1 emissions_carIn60260:1" vType="default_016" speedFactor="1.11" vaporized="">
        <emissions CO_abs="2140.908482" CO2_abs="122530.134075" HC_abs="12.582781" PMx_abs="1.984290" NOx_abs="49.237949" fuel_abs="52.670927" electricity_abs="0"/>
    </tripinfo>
    <tripinfo id="carIn53971:1" depart="57640.00" departLane="272042143_1" departPos="5.10" departSpeed="0.00" departDelay="0.80" arrival="57695.00" arrivalLane="24634414#1_1" arrivalPos="162.19" arrivalSpeed="7.45" duration="55.00" routeLength="493.04" waitingTime="0.00" waitingCount="0" stopTime="0.00" timeLoss="9.56" rerouteNo="1" devices="tripinfo_carIn53971:1 routing_carIn53971:1 emissions_carIn53971:1" vType="default_016" speedFactor="1.00" vaporized="">
        <emissions CO_abs="2482.296026" CO2_abs="144383.774192" HC_abs="14.653829" PMx_abs="2.422287" NOx_abs="58.447680" fuel_abs="62.064802" electricity_abs="0"/>
    </tripinfo>
    <tripinfo id="S5R_frequency1.2" depart="57615.00" departLane="315358250#0_1" departPos="12.10" departSpeed="0.00" departDelay="3.40" arrival="57708.00" arrivalLane="386687235_1" arrivalPos="80.84" arrivalSpeed="13.53" duration="93.00" routeLength="1115.62" waitingTime="0.00" waitingCount="0" stopTime="0.00" timeLoss="11.57" rerouteNo="1" devices="tripinfo_S5R_frequency1.2 routing_S5R_frequency1.2 emissions_S5R_frequency1.2" vType="bus" speedFactor="1.00" vaporized="">
        <emissions CO_abs="1891.107719" CO2_abs="1203574.540341" HC_abs="399.605336" PMx_abs="203.279373" NOx_abs="9285.760686" fuel_abs="513.319539" electricity_abs="0"/>
    </tripinfo>
    <tripinfo id="carIn22761:1" depart="57616.00" departLane="-306240162#1_0" departPos="5.10" departSpeed="0.00" departDelay="2.10" arrival="57722.00" arrivalLane="399835085#1_1" arrivalPos="212.23" arrivalSpeed="8.69" duration="106.00" routeLength="1093.26" waitingTime="11.00" waitingCount="1" stopTime="0.00" timeLoss="31.62" rerouteNo="1" devices="tripinfo_carIn22761:1 routing_carIn22761:1 emissions_carIn22761:1" vType="default_016" speedFactor="1.05" vaporized="">
        <emissions CO_abs="6229.581158" CO2_abs="328057.156683" HC_abs="36.170039" PMx_abs="6.415673" NOx_abs="136.942586" fuel_abs="141.017927" electricity_abs="0"/>
    </tripinfo>
    <tripinfo id="h7800c1:5" depart="57696.00" departLane="-447569998#1_1" departPos="5.10" departSpeed="0.00" departDelay="0.00" arrival="57725.00" arrivalLane="-447569998#1_2" arrivalPos="180.76" arrivalSpeed="4.43" duration="29.00" routeLength="175.66" waitingTime="2.00" waitingCount="1" stopTime="0.00" timeLoss="8.14" rerouteNo="1" devices="tripinfo_h7800c1:5 routing_h7800c1:5 emissions_h7800c1:5" vType="default_016" speedFactor="1.03" vaporized="">
        <emissions CO_abs="1355.901420" CO2_abs="54827.138244" HC_abs="7.439786" PMx_abs="0.956589" NOx_abs="22.711373" fuel_abs="23.568260" electricity_abs="0"/>
    </tripinfo>
    <tripinfo id="h12244c1:3" depart="57612.00" departLane="315358244_1" departPos="5.10" departSpeed="0.00" departDelay="0.40" arrival="57726.00" arrivalLane="386687235_1" arrivalPos="80.84" arrivalSpeed="11.16" duration="114.00" routeLength="1186.14" waitingTime="0.00" waitingCount="0" stopTime="0.00" timeLoss="10.95" rerouteNo="1" devices="tripinfo_h12244c1:3 routing_h12244c1:3 emissions_h12244c1:3" vType="default_016" speedFactor="0.84" vaporized="">
        <emissions CO_abs="2993.853628" CO2_abs="221554.181417" HC_abs="18.722056" PMx_abs="3.210226" NOx_abs="85.863738" fuel_abs="95.237405" electricity_abs="0"/>
    </tripinfo>
    <tripinfo id="h9563c2:5" depart="57631.00" departLane="315358244_1" departPos="5.10" departSpeed="0.00" departDelay="0.70" arrival="57727.00" arrivalLane="386687235_1" arrivalPos="80.84" arrivalSpeed="12.90" duration="96.00" routeLength="1186.14" waitingTime="0.00" waitingCount="0" stopTime="0.00" timeLoss="16.98" rerouteNo="1" devices="tripinfo_h9563c2:5 routing_h9563c2:5 emissions_h9563c2:5" vType="default_016" speedFactor="1.09" vaporized="">
        <emissions CO_abs="3181.021810" CO2_abs="239461.057031" HC_abs="20.096443" PMx_abs="4.090064" NOx_abs="96.206788" fuel_abs="102.933930" electricity_abs="0"/>
    </tripinfo>
    <tripinfo id="h7181c1:1" depart="57660.00" departLane="315358254#0_1" departPos="5.10" departSpeed="0.00" departDelay="0.10" arrival="57730.00" arrivalLane="306240162#0_0" arrivalPos="220.43" arrivalSpeed="18.01" duration="70.00" routeLength="932.35" waitingTime="11.00" waitingCount="1" stopTime="0.00" timeLoss="22.53" rerouteNo="1" devices="tripinfo_h7181c1:1 routing_h7181c1:1 emissions_h7181c1:1" vType="default_016" speedFactor="1.09" vaporized="">
        <emissions CO_abs="5367.883299" CO2_abs="298055.807631" HC_abs="31.645934" PMx_abs="6.142076" NOx_abs="124.278991" fuel_abs="128.121113" electricity_abs="0"/>
    </tripinfo>
    <tripinfo id="h3568c1:3" depart="57656.00" departLane="266565295#5_1" departPos="5.10" departSpeed="0.00" departDelay="0.80" arrival="57742.00" arrivalLane="-24634415_1" arrivalPos="62.03" arrivalSpeed="11.45" duration="86.00" routeLength="807.40" waitingTime="0.00" waitingCount="0" stopTime="0.00" timeLoss="12.49" rerouteNo="1" devices="tripinfo_h3568c1:3 routing_h3568c1:3 emissions_h3568c1:3" vType="default_016" speedFactor="0.88" vaporized="">
        <emissions CO_abs="3521.358751" CO2_abs="211456.713230" HC_abs="20.944128" PMx_abs="3.473511" NOx_abs="85.038934" fuel_abs="90.896798" electricity_abs="0"/>
    </tripinfo>
    <tripinfo id="carIn30817:1" depart="57681.00" departLane="315358244_1" departPos="5.10" departSpeed="0.00" departDelay="0.20" arrival="57743.00" arrivalLane="447569997#1_1" arrivalPos="180.93" arrivalSpeed="8.41" duration="62.00" routeLength="718.04" waitingTime="0.00" waitingCount="0" stopTime="0.00" timeLoss="7.35" rerouteNo="1" devices="tripinfo_carIn30817:1 routing_carIn30817:1 emissions_carIn30817:1" vType="default_016" speedFactor="1.14" vaporized="">
        <emissions CO_abs="2024.528337" CO2_abs="151914.423565" HC_abs="12.578288" PMx_abs="2.429368" NOx_abs="59.719078" fuel_abs="65.301678" electricity_abs="0"/>
    </tripinfo>
    <tripinfo id="h3688c1:1" depart="57625.00" departLane="201201950#1_1" departPos="5.10" departSpeed="0.00" departDelay="0.00" arrival="57744.00" arrivalLane="32978638#0_1" arrivalPos="49.29" arrivalSpeed="11.16" duration="119.00" routeLength="1089.75" waitingTime="13.00" waitingCount="1" stopTime="0.00" timeLoss="28.46" rerouteNo="1" devices="tripinfo_h3688c1:1 routing_h3688c1:1 emissions_h3688c1:1" vType="default_016" speedFactor="0.88" vaporized="">
        <emissions CO_abs="5326.818865" CO2_abs="281754.262383" HC_abs="30.827753" PMx_abs="4.864277" NOx_abs="114.558438" fuel_abs="121.115119" electricity_abs="0"/>
    </tripinfo>
    <tripinfo id="carIn80064:1" depart="57603.00" departLane="128361109#1_1" departPos="5.10" departSpeed="0.00" departDelay="0.40" arrival="57749.00" arrivalLane="-315358254#1_1" arrivalPos="137.16" arrivalSpeed="13.32" duration="146.00" routeLength="1587.97" waitingTime="30.00" waitingCount="1" stopTime="0.00" timeLoss="58.98" rerouteNo="1" devices="tripinfo_carIn80064:1 routing_carIn80064:1 emissions_carIn80064:1" vType="default_016" speedFactor="1.02" vaporized="">
        <emissions CO_abs="10875.900056" CO2_abs="523910.600272" HC_abs="62.066401" PMx_abs="10.763783" NOx_abs="220.782161" fuel_abs="225.207189" electricity_abs="0"/>
    </tripinfo>
    <tripinfo id="h317c2:1" depart="57707.00" departLane="-32978638#0_1" departPos="5.10" departSpeed="0.00" departDelay="0.10" arrival="57756.00" arrivalLane="-266565295#5_1" arrivalPos="172.76" arrivalSpeed="11.91" duration="49.00" routeLength="370.53" waitingTime="10.00" waitingCount="1" stopTime="0.00" timeLoss="18.94" rerouteNo="1" devices="tripinfo_h317c2:1 routing_h317c2:1 emissions_h317c2:1" vType="default_016" speedFactor="0.91" vaporized="">
        <emissions CO_abs="2802.890043" CO2_abs="125553.064303" HC_abs="15.713041" PMx_abs="2.358126" NOx_abs="52.422127" fuel_abs="53.970405" electricity_abs="0"/>
    </tripinfo>
    <tripinfo id="h3154c1:1" depart="57658.00" departLane="24634507_1" departPos="5.10" departSpeed="0.00" departDelay="0.00" arrival="57769.00" arrivalLane="-266565295#5_1" arrivalPos="172.76" arrivalSpeed="13.43" duration="111.00" routeLength="1206.22" waitingTime="8.00" waitingCount="1" stopTime="0.00" timeLoss="25.66" rerouteNo="1" devices="tripinfo_h3154c1:1 routing_h3154c1:1 emissions_h3154c1:1" vType="default_016" speedFactor="1.04" vaporized="">
        <emissions CO_abs="4460.363673" CO2_abs="287413.267907" HC_abs="27.004739" PMx_abs="5.044746" NOx_abs="116.428451" fuel_abs="123.546832" electricity_abs="0"/>
    </tripinfo>
    <tripinfo id="h645c1:1" depart="57622.00" departLane="266565295#5_1" departPos="5.10" departSpeed="0.00" departDelay="0.40" arrival="57774.00" arrivalLane="-315358244_1" arrivalPos="33.95" arrivalSpeed="12.91" duration="152.00" routeLength="1910.83" waitingTime="0.00" waitingCount="0" stopTime="0.00" timeLoss="11.37" rerouteNo="1" devices="tripinfo_h645c1:1 routing_h645c1:1 emissions_h645c1:1" vType="default_016" speedFactor="0.99" vaporized="">
        <emissions CO_abs="3478.345139" CO2_abs="334780.619206" HC_abs="23.584516" PMx_abs="5.033535" NOx_abs="129.080613" fuel_abs="143.907997" electricity_abs="0"/>
    </tripinfo>
    <tripinfo id="h330c1:1" depart="57736.00" departLane="-32978638#0_1" departPos="5.10" departSpeed="0.00" departDelay="0.20" arrival="57775.00" arrivalLane="-266565295#5_1" arrivalPos="172.76" arrivalSpeed="12.66" duration="39.00" routeLength="370.53" waitingTime="4.00" waitingCount="1" stopTime="0.00" timeLoss="11.10" rerouteNo="1" devices="tripinfo_h330c1:1 routing_h330c1:1 emissions_h330c1:1" vType="default_016" speedFactor="1.00" vaporized="">
        <emissions CO_abs="1925.937096" CO2_abs="113598.841930" HC_abs="11.431148" PMx_abs="2.077158" NOx_abs="46.914479" fuel_abs="48.831324" electricity_abs="0"/>
    </tripinfo>
    <tripinfo id="h3326c1:2" depart="57656.00" departLane="22716069#0_1" departPos="5.10" departSpeed="0.00" departDelay="0.00" arrival="57782.00" arrivalLane="24634517#13_1" arrivalPos="111.62" arrivalSpeed="11.64" duration="126.00" routeLength="1312.81" waitingTime="0.00" waitingCount="0" stopTime="0.00" timeLoss="16.52" rerouteNo="1" devices="tripinfo_h3326c1:2 routing_h3326c1:2 emissions_h3326c1:2" vType="default_016" speedFactor="0.89" vaporized="">
        <emissions CO_abs="4501.666069" CO2_abs="311404.915970" HC_abs="27.756495" PMx_abs="5.115029" NOx_abs="124.764851" fuel_abs="133.860004" electricity_abs="0"/>
    </tripinfo>
    <tripinfo id="carIn118591:1" depart="57689.00" departLane="315358244_1" departPos="5.10" departSpeed="0.00" departDelay="0.20" arrival="57785.00" arrivalLane="386687235_1" arrivalPos="80.84" arrivalSpeed="14.92" duration="96.00" routeLength="1186.14" waitingTime="2.00" waitingCount="1" stopTime="0.00" timeLoss="17.60" rerouteNo="1" devices="tripinfo_carIn118591:1 routing_carIn118591:1 emissions_carIn118591:1" vType="default_016" speedFactor="1.11" vaporized="">
        <emissions CO_abs="3458.924176" CO2_abs="269320.504057" HC_abs="21.960818" PMx_abs="4.587286" NOx_abs="107.347564" fuel_abs="115.769189" electricity_abs="0"/>
    </tripinfo>
    <tripinfo id="carIn107084:1" depart="57601.00" departLane="124812856#0_1" departPos="5.10" departSpeed="0.00" departDelay="0.70" arrival="57786.00" arrivalLane="-128361102#1_1" arrivalPos="274.68" arrivalSpeed="13.52" duration="185.00" routeLength="2250.49" waitingTime="1.00" waitingCount="1" stopTime="0.00" timeLoss="23.20" rerouteNo="1" devices="tripinfo_carIn107084:1 routing_carIn107084:1 emissions_carIn107084:1" vType="default_016" speedFactor="1.02" vaporized="">
        <emissions CO_abs="5708.687631" CO2_abs="474812.379229" HC_abs="37.023838" PMx_abs="7.779553" NOx_abs="187.901690" fuel_abs="204.101319" electricity_abs="0"/>
    </tripinfo>
    <tripinfo id="carIn12365:1" depart="57713.00" departLane="315358244_1" departPos="5.10" departSpeed="0.00" departDelay="0.50" arrival="57787.00" arrivalLane="447569997#1_1" arrivalPos="180.93" arrivalSpeed="7.43" duration="74.00" routeLength="718.04" waitingTime="0.00" waitingCount="0" stopTime="0.00" timeLoss="8.10" rerouteNo="1" devices="tripinfo_carIn12365:1 routing_carIn12365:1 emissions_carIn12365:1" vType="default_016" speedFactor="0.93" vaporized="">
        <emissions CO_abs="2553.025844" CO2_abs="152281.633629" HC_abs="15.132357" PMx_abs="2.352738" NOx_abs="60.234911" fuel_abs="65.460041" electricity_abs="0"/>
    </tripinfo>
    <tripinfo id="carIn27009:1" depart="57673.00" departLane="-447569998#1_1" departPos="5.10" departSpeed="0.00" departDelay="0.50" arrival="57792.00" arrivalLane="-26677539_1" arrivalPos="152.75" arrivalSpeed="7.39" duration="119.00" routeLength="699.63" waitingTime="22.00" waitingCount="1" stopTime="0.00" timeLoss="37.84" rerouteNo="1" devices="tripinfo_carIn27009:1 routing_carIn27009:1 emissions_carIn27009:1" vType="default_015" speedFactor="1.03" vaporized="">
        <emissions CO_abs="7078.149023" CO2_abs="235210.477229" HC_abs="37.663109" PMx_abs="4.290388" NOx_abs="98.274617" fuel_abs="101.109550" electricity_abs="0"/>
    </tripinfo>
    <tripinfo id="carIn77943:1" depart="57608.00" departLane="124812856#0_1" departPos="5.10" departSpeed="0.00" departDelay="2.50" arrival="57797.00" arrivalLane="-128361102#1_1" arrivalPos="274.68" arrivalSpeed="13.93" duration="189.00" routeLength="2250.49" waitingTime="0.00" waitingCount="0" stopTime="0.00" timeLoss="35.62" rerouteNo="1" devices="tripinfo_carIn77943:1 routing_carIn77943:1 emissions_carIn77943:1" vType="default_016" speedFactor="1.08" vaporized="">
        <emissions CO_abs="6566.408265" CO2_abs="506266.707717" HC_abs="41.766750" PMx_abs="8.681225" NOx_abs="203.829419" fuel_abs="217.621904" electricity_abs="0"/>
    </tripinfo>
    <tripinfo id="carIn86816:1" depart="57617.00" departLane="128361102#0_1" departPos="5.10" departSpeed="0.00" departDelay="0.80" arrival="57797.00" arrivalLane="201956811#0_1" arrivalPos="40.40" arrivalSpeed="12.25" duration="180.00" routeLength="2067.33" waitingTime="0.00" waitingCount="0" stopTime="0.00" timeLoss="20.18" rerouteNo="1" devices="tripinfo_carIn86816:1 routing_carIn86816:1 emissions_carIn86816:1" vType="default_016" speedFactor="0.94" vaporized="">
        <emissions CO_abs="5370.985649" CO2_abs="430549.941997" HC_abs="34.467675" PMx_abs="6.746261" NOx_abs="169.207985" fuel_abs="185.075379" electricity_abs="0"/>
    </tripinfo>
    <tripinfo id="carIn102915:1" depart="57643.00" departLane="128361102#0_1" departPos="5.10" departSpeed="0.00" departDelay="0.40" arrival="57800.00" arrivalLane="201956811#0_1" arrivalPos="40.40" arrivalSpeed="14.96" duration="157.00" routeLength="2067.33" waitingTime="0.00" waitingCount="0" stopTime="0.00" timeLoss="18.64" rerouteNo="1" devices="tripinfo_carIn102915:1 routing_carIn102915:1 emissions_carIn102915:1" vType="default_016" speedFactor="1.10" vaporized="">
        <emissions CO_abs="4873.361840" CO2_abs="427628.593574" HC_abs="31.977360" PMx_abs="7.168668" NOx_abs="169.405052" fuel_abs="183.818625" electricity_abs="0"/>
    </tripinfo>
    <tripinfo id="h17600c1:1" depart="57662.00" departLane="272042143_1" departPos="5.10" departSpeed="0.00" departDelay="0.30" arrival="57801.00" arrivalLane="201238729#3_1" arrivalPos="431.02" arrivalSpeed="15.19" duration="139.00" routeLength="2100.26" waitingTime="0.00" waitingCount="0" stopTime="0.00" timeLoss="11.08" rerouteNo="1" devices="tripinfo_h17600c1:1 routing_h17600c1:1 emissions_h17600c1:1" vType="default_016" speedFactor="1.18" vaporized="">
        <emissions CO_abs="3484.632450" CO2_abs="369416.042358" HC_abs="23.862333" PMx_abs="5.954222" NOx_abs="142.327991" fuel_abs="158.795535" electricity_abs="0"/>
    </tripinfo>
    <tripinfo id="randUni33724:1" depart="57646.00" departLane="128361102#0_1" departPos="5.10" departSpeed="0.00" departDelay="1.20" arrival="57803.00" arrivalLane="201956811#0_1" arrivalPos="40.40" arrivalSpeed="14.14" duration="157.00" routeLength="2067.33" waitingTime="0.00" waitingCount="0" stopTime="0.00" timeLoss="17.90" rerouteNo="1" devices="tripinfo_randUni33724:1 routing_randUni33724:1 emissions_randUni33724:1" vType="random_016" speedFactor="1.09" vaporized="">
        <emissions CO_abs="4610.686790" CO2_abs="421317.576929" HC_abs="30.670426" PMx_abs="6.827269" NOx_abs="165.186778" fuel_abs="181.106028" electricity_abs="0"/>
    </tripinfo>
    <tripinfo id="h11737c1:1" depart="57665.00" departLane="272042143_1" departPos="5.10" departSpeed="0.00" departDelay="1.50" arrival="57806.00" arrivalLane="-315358254#1_1" arrivalPos="137.16" arrivalSpeed="14.39" duration="141.00" routeLength="1596.88" waitingTime="16.00" waitingCount="1" stopTime="0.00" timeLoss="31.34" rerouteNo="1" devices="tripinfo_h11737c1:1 routing_h11737c1:1 emissions_h11737c1:1" vType="default_016" speedFactor="1.06" vaporized="">
        <emissions CO_abs="5903.645551" CO2_abs="363984.769115" HC_abs="35.180415" PMx_abs="6.125914" NOx_abs="144.632605" fuel_abs="156.462398" electricity_abs="0"/>
    </tripinfo>
    <tripinfo id="carIn126288:1" depart="57674.00" departLane="272042143_1" departPos="5.10" departSpeed="0.00" departDelay="0.00" arrival="57809.00" arrivalLane="-315358254#1_1" arrivalPos="137.16" arrivalSpeed="12.75" duration="135.00" routeLength="1596.88" waitingTime="0.00" waitingCount="0" stopTime="0.00" timeLoss="19.30" rerouteNo="1" devices="tripinfo_carIn126288:1 routing_carIn126288:1 emissions_carIn126288:1" vType="default_016" speedFactor="1.00" vaporized="">
        <emissions CO_abs="4187.705982" CO2_abs="335897.891975" HC_abs="26.918095" PMx_abs="5.428779" NOx_abs="132.576848" fuel_abs="144.388226" electricity_abs="0"/>
    </tripinfo>
    <tripinfo id="carIn100288:1" depart="57664.00" departLane="128361102#0_1" departPos="5.10" departSpeed="0.00" departDelay="0.60" arrival="57812.00" arrivalLane="201956811#0_1" arrivalPos="40.40" arrivalSpeed="15.61" duration="148.00" routeLength="2067.33" waitingTime="0.00" waitingCount="0" stopTime="0.00" timeLoss="17.85" rerouteNo="1" devices="tripinfo_carIn100288:1 routing_carIn100288:1 emissions_carIn100288:1" vType="default_016" speedFactor="1.17" vaporized="">
        <emissions CO_abs="5010.306512" CO2_abs="444021.675525" HC_abs="32.776464" PMx_abs="7.530469" NOx_abs="175.549641" fuel_abs="190.865161" electricity_abs="0"/>
    </tripinfo>
    <tripinfo id="h5979c1:5" depart="57669.00" departLane="399835085#1_1" departPos="5.10" departSpeed="0.00" departDelay="0.00" arrival="57813.00" arrivalLane="-315358254#1_1" arrivalPos="137.16" arrivalSpeed="11.68" duration="144.00" routeLength="659.33" waitingTime="48.00" waitingCount="2" stopTime="0.00" timeLoss="65.23" rerouteNo="1" devices="tripinfo_h5979c1:5 routing_h5979c1:5 emissions_h5979c1:5" vType="default_016" speedFactor="0.93" vaporized="">
        <emissions CO_abs="10751.404261" CO2_abs="286143.629755" HC_abs="55.602767" PMx_abs="5.731003" NOx_abs="122.605610" fuel_abs="123.005179" electricity_abs="0"/>
    </tripinfo>
    <tripinfo id="carIn129809:1" depart="57729.00" departLane="-447569998#1_1" departPos="5.10" departSpeed="0.00" departDelay="1.00" arrival="57813.00" arrivalLane="-315358244_1" arrivalPos="33.95" arrivalSpeed="13.66" duration="84.00" routeLength="706.49" waitingTime="8.00" waitingCount="2" stopTime="0.00" timeLoss="26.73" rerouteNo="1" devices="tripinfo_carIn129809:1 routing_carIn129809:1 emissions_carIn129809:1" vType="default_015" speedFactor="1.05" vaporized="">
        <emissions CO_abs="3696.269648" CO2_abs="199786.953143" HC_abs="21.490624" PMx_abs="3.478468" NOx_abs="81.442859" fuel_abs="85.880466" electricity_abs="0"/>
    </tripinfo>
    <tripinfo id="carIn50326:1" depart="57651.00" departLane="128361102#0_1" departPos="5.10" departSpeed="0.00" departDelay="0.30" arrival="57816.00" arrivalLane="18809673#0_1" arrivalPos="473.56" arrivalSpeed="11.81" duration="165.00" routeLength="1591.07" waitingTime="5.00" waitingCount="1" stopTime="0.00" timeLoss="23.66" rerouteNo="1" devices="tripinfo_carIn50326:1 routing_carIn50326:1 emissions_carIn50326:1" vType="default_016" speedFactor="0.92" vaporized="">
        <emissions CO_abs="5459.644894" CO2_abs="352954.268632" HC_abs="33.022812" PMx_abs="5.517818" NOx_abs="139.562666" fuel_abs="151.721078" electricity_abs="0"/>
    </tripinfo>
    <tripinfo id="carIn82278:1" depart="57702.00" departLane="-306240162#1_0" departPos="5.10" departSpeed="0.00" departDelay="0.70" arrival="57817.00" arrivalLane="399835085#1_1" arrivalPos="212.23" arrivalSpeed="6.67" duration="115.00" routeLength="1093.26" waitingTime="9.00" waitingCount="2" stopTime="0.00" timeLoss="31.68" rerouteNo="1" devices="tripinfo_carIn82278:1 routing_carIn82278:1 emissions_carIn82278:1" vType="default_016" speedFactor="0.94" vaporized="">
        <emissions CO_abs="4956.578163" CO2_abs="277830.696020" HC_abs="29.085994" PMx_abs="5.182159" NOx_abs="114.483266" fuel_abs="119.427779" electricity_abs="0"/>
    </tripinfo>
    <tripinfo id="randUni14624:1" depart="57606.00" departLane="315358244_1" departPos="5.10" departSpeed="0.00" departDelay="0.80" arrival="57820.00" arrivalLane="-25149001#4_1" arrivalPos="105.67" arrivalSpeed="10.35" duration="214.00" routeLength="2803.98" waitingTime="20.00" waitingCount="2" stopTime="0.00" timeLoss="51.67" rerouteNo="1" devices="tripinfo_randUni14624:1 routing_randUni14624:1 emissions_randUni14624:1" vType="random_016" speedFactor="1.30" vaporized="">
        <emissions CO_abs="8919.174369" CO2_abs="619271.604564" HC_abs="55.007707" PMx_abs="11.308540" NOx_abs="249.151757" fuel_abs="266.197896" electricity_abs="0"/>
    </tripinfo>
    <tripinfo id="carIn81046:1" depart="57611.00" departLane="124812856#0_1" departPos="5.10" departSpeed="0.00" departDelay="2.50" arrival="57823.00" arrivalLane="-128361102#1_1" arrivalPos="274.68" arrivalSpeed="10.80" duration="212.00" routeLength="2250.49" waitingTime="0.00" waitingCount="0" stopTime="0.00" timeLoss="20.55" rerouteNo="1" devices="tripinfo_carIn81046:1 routing_carIn81046:1 emissions_carIn81046:1" vType="default_016" speedFactor="0.86" vaporized="">
        <emissions CO_abs="5722.802142" CO2_abs="437643.146916" HC_abs="36.156573" PMx_abs="6.527915" NOx_abs="170.656865" fuel_abs="188.125098" electricity_abs="0"/>
    </tripinfo>
    <tripinfo id="carIn82220:1" depart="57619.00" departLane="-306240162#1_0" departPos="5.10" departSpeed="0.00" departDelay="3.50" arrival="57823.00" arrivalLane="386687235_1" arrivalPos="80.84" arrivalSpeed="13.52" duration="204.00" routeLength="2257.41" waitingTime="17.00" waitingCount="3" stopTime="0.00" timeLoss="60.30" rerouteNo="1" devices="tripinfo_carIn82220:1 routing_carIn82220:1 emissions_carIn82220:1" vType="default_016" speedFactor="1.03" vaporized="">
        <emissions CO_abs="8982.925442" CO2_abs="581925.957406" HC_abs="54.732769" PMx_abs="10.908156" NOx_abs="239.532167" fuel_abs="250.144400" electricity_abs="0"/>
    </tripinfo>
    <tripinfo id="carIn48184:1" depart="57613.00" departLane="-306240162#1_0" departPos="5.10" departSpeed="0.00" departDelay="0.70" arrival="57825.00" arrivalLane="386687235_1" arrivalPos="80.84" arrivalSpeed="11.95" duration="212.00" routeLength="2257.41" waitingTime="14.00" waitingCount="2" stopTime="0.00" timeLoss="43.48" rerouteNo="1" devices="tripinfo_carIn48184:1 routing_carIn48184:1 emissions_carIn48184:1" vType="default_016" speedFactor="0.89" vaporized="">
        <emissions CO_abs="7406.587674" CO2_abs="508036.179457" HC_abs="45.528461" PMx_abs="8.554056" NOx_abs="202.866844" fuel_abs="218.383520" electricity_abs="0"/>
    </tripinfo>
    <tripinfo id="carIn77438:1" depart="57615.00" departLane="124812856#0_1" departPos="5.10" departSpeed="0.00" departDelay="2.10" arrival="57825.00" arrivalLane="-128361102#1_1" arrivalPos="274.68" arrivalSpeed="11.51" duration="210.00" routeLength="2250.49" waitingTime="0.00" waitingCount="0" stopTime="0.00" timeLoss="21.97" rerouteNo="1" devices="tripinfo_carIn77438:1 routing_carIn77438:1 emissions_carIn77438:1" vType="default_016" speedFactor="0.87" vaporized="">
        <emissions CO_abs="5941.883363" CO2_abs="456087.279554" HC_abs="37.618969" PMx_abs="7.004193" NOx_abs="179.164874" fuel_abs="196.053157" electricity_abs="0"/>
    </tripinfo>
    <tripinfo id="h19804c1:3" depart="57618.00" departLane="124812856#0_1" departPos="5.10" departSpeed="0.00" departDelay="2.50" arrival="57827.00" arrivalLane="-128361102#1_1" arrivalPos="274.68" arrivalSpeed="11.42" duration="209.00" routeLength="2250.49" waitingTime="0.00" waitingCount="0" stopTime="0.00" timeLoss="25.05" rerouteNo="1" devices="tripinfo_h19804c1:3 routing_h19804c1:3 emissions_h19804c1:3" vType="default_016" speedFactor="0.90" vaporized="">
        <emissions CO_abs="6399.121958" CO2_abs="472900.311268" HC_abs="40.135228" PMx_abs="7.547924" NOx_abs="187.810122" fuel_abs="203.280135" electricity_abs="0"/>
    </tripinfo>
    <tripinfo id="carIn462:1" depart="57622.00" departLane="-306240162#1_0" departPos="5.10" departSpeed="0.00" departDelay="4.80" arrival="57827.00" arrivalLane="386687235_1" arrivalPos="80.84" arrivalSpeed="12.90" duration="205.00" routeLength="2257.41" waitingTime="18.00" waitingCount="3" stopTime="0.00" timeLoss="53.85" rerouteNo="1" devices="tripinfo_carIn462:1 routing_carIn462:1 emissions_carIn462:1" vType="default_016" speedFactor="0.98" vaporized="">
        <emissions CO_abs="7753.510138" CO2_abs="520524.191252" HC_abs="47.574353" PMx_abs="9.262049" NOx_abs="210.675314" fuel_abs="223.751031" electricity_abs="0"/>
    </tripinfo>
    <tripinfo id="carIn116184:1" depart="57627.00" departLane="-306240162#1_0" departPos="5.10" departSpeed="0.00" departDelay="0.10" arrival="57827.00" arrivalLane="386687235_2" arrivalPos="80.84" arrivalSpeed="14.26" duration="200.00" routeLength="2257.41" waitingTime="16.00" waitingCount="2" stopTime="0.00" timeLoss="59.10" rerouteNo="1" devices="tripinfo_carIn116184:1 routing_carIn116184:1 emissions_carIn116184:1" vType="default_016" speedFactor="1.05" vaporized="">
        <emissions CO_abs="7656.833216" CO2_abs="555820.860369" HC_abs="47.925712" PMx_abs="9.746602" NOx_abs="222.797032" fuel_abs="238.923361" electricity_abs="0"/>
    </tripinfo>
    <tripinfo id="h15382c1:3" depart="57627.00" departLane="124812856#0_1" departPos="5.10" departSpeed="0.00" departDelay="4.80" arrival="57829.00" arrivalLane="-128361102#1_1" arrivalPos="274.68" arrivalSpeed="12.73" duration="202.00" routeLength="2250.49" waitingTime="0.00" waitingCount="0" stopTime="0.00" timeLoss="32.68" rerouteNo="1" devices="tripinfo_h15382c1:3 routing_h15382c1:3 emissions_h15382c1:3" vType="default_016" speedFactor="0.98" vaporized="">
        <emissions CO_abs="6886.194204" CO2_abs="518733.026516" HC_abs="43.494350" PMx_abs="8.637113" NOx_abs="208.003096" fuel_abs="222.981081" electricity_abs="0"/>
    </tripinfo>
    <tripinfo id="carIn3969:1" depart="57630.00" departLane="124812856#0_1" departPos="5.10" departSpeed="0.00" departDelay="6.30" arrival="57830.00" arrivalLane="-128361102#1_1" arrivalPos="274.68" arrivalSpeed="13.83" duration="200.00" routeLength="2250.49" waitingTime="0.00" waitingCount="0" stopTime="0.00" timeLoss="44.32" rerouteNo="1" devices="tripinfo_carIn3969:1 routing_carIn3969:1 emissions_carIn3969:1" vType="default_016" speedFactor="1.05" vaporized="">
        <emissions CO_abs="7744.609308" CO2_abs="561234.857904" HC_abs="48.456390" PMx_abs="9.750314" NOx_abs="227.854460" fuel_abs="241.250407" electricity_abs="0"/>
    </tripinfo>