<?xml version="1.0" encoding="UTF-8"?>

<!-- generated on 2021-10-26 13:30:04 by Eclipse SUMO sumo Version 1.10.0
<configuration xmlns:xsi="http://www.w3.org/2001/XMLSchema-instance" xsi:noNamespaceSchemaLocation="http://sumo.dlr.de/xsd/sumoConfiguration.xsd">

    <input>
        <net-file value="/Users/behradkoohy/sumo-scratchpad/RESCO/environments/ingolstadt21/ingolstadt21.net.xml"/>
        <route-files value="/Users/behradkoohy/sumo-scratchpad/RESCO/environments/ingolstadt21/ingolstadt21.rou.xml"/>
    </input>

    <output>
        <tripinfo-output value="/Users/behradkoohy/sumo-scratchpad/RESCO/logs/MAXPRESSURE-tr0-ingolstadt21-21-mplight-wait/tripinfo_64.xml"/>
        <tripinfo-output.write-unfinished value="true"/>
    </output>

    <time>
        <begin value="57600"/>
        <end value="61200"/>
    </time>

    <processing>
        <time-to-teleport value="-1"/>
    </processing>

    <report>
        <no-warnings value="true"/>
        <no-step-log value="true"/>
    </report>

    <emissions>
        <device.emissions.probability value="1"/>
    </emissions>

    <traci_server>
        <remote-port value="59076"/>
    </traci_server>

    <random_number>
        <random value="true"/>
    </random_number>

</configuration>
-->

<tripinfos xmlns:xsi="http://www.w3.org/2001/XMLSchema-instance" xsi:noNamespaceSchemaLocation="http://sumo.dlr.de/xsd/tripinfo_file.xsd">
    <tripinfo id="h15454c2:3" depart="57612.00" departLane="24608844_1" departPos="5.10" departSpeed="0.00" departDelay="0.50" arrival="57647.00" arrivalLane="32978638#0_1" arrivalPos="49.29" arrivalSpeed="16.34" duration="35.00" routeLength="354.79" waitingTime="0.00" waitingCount="0" stopTime="0.00" timeLoss="6.85" rerouteNo="1" devices="tripinfo_h15454c2:3 routing_h15454c2:3 emissions_h15454c2:3" vType="default_016" speedFactor="1.20" vaporized="">
        <emissions CO_abs="2122.040685" CO2_abs="126995.900014" HC_abs="12.658445" PMx_abs="2.330397" NOx_abs="52.636371" fuel_abs="54.590101" electricity_abs="0"/>
    </tripinfo>
    <tripinfo id="carIn60260:1" depart="57606.00" departLane="315358254#0_1" departPos="5.10" departSpeed="0.00" departDelay="0.90" arrival="57660.00" arrivalLane="399835085#1_1" arrivalPos="212.23" arrivalSpeed="7.24" duration="54.00" routeLength="430.98" waitingTime="0.00" waitingCount="0" stopTime="0.00" timeLoss="6.90" rerouteNo="1" devices="tripinfo_carIn60260:1 routing_carIn60260:1 emissions_carIn60260:1" vType="default_016" speedFactor="0.97" vaporized="">
        <emissions CO_abs="2196.794681" CO2_abs="113101.660504" HC_abs="12.611356" PMx_abs="1.840079" NOx_abs="45.683064" fuel_abs="48.618151" electricity_abs="0"/>
    </tripinfo>
    <tripinfo id="carIn53971:1" depart="57640.00" departLane="272042143_1" departPos="5.10" departSpeed="0.00" departDelay="0.80" arrival="57693.00" arrivalLane="24634414#1_1" arrivalPos="162.19" arrivalSpeed="7.45" duration="53.00" routeLength="493.04" waitingTime="0.00" waitingCount="0" stopTime="0.00" timeLoss="8.71" rerouteNo="1" devices="tripinfo_carIn53971:1 routing_carIn53971:1 emissions_carIn53971:1" vType="default_016" speedFactor="1.04" vaporized="">
        <emissions CO_abs="2362.681414" CO2_abs="141752.938956" HC_abs="14.038649" PMx_abs="2.516709" NOx_abs="58.180762" fuel_abs="60.933638" electricity_abs="0"/>
    </tripinfo>
    <tripinfo id="S5R_frequency1.2" depart="57615.00" departLane="315358250#0_1" departPos="12.10" departSpeed="0.00" departDelay="3.40" arrival="57707.00" arrivalLane="386687235_1" arrivalPos="80.84" arrivalSpeed="13.79" duration="92.00" routeLength="1115.62" waitingTime="0.00" waitingCount="0" stopTime="0.00" timeLoss="10.33" rerouteNo="1" devices="tripinfo_S5R_frequency1.2 routing_S5R_frequency1.2 emissions_S5R_frequency1.2" vType="bus" speedFactor="1.00" vaporized="">
        <emissions CO_abs="2015.113920" CO2_abs="1286112.861989" HC_abs="430.788717" PMx_abs="217.024982" NOx_abs="9906.466422" fuel_abs="548.528468" electricity_abs="0"/>
    </tripinfo>
    <tripinfo id="h12244c1:3" depart="57612.00" departLane="315358244_1" departPos="5.10" departSpeed="0.00" departDelay="0.40" arrival="57718.00" arrivalLane="386687235_1" arrivalPos="80.84" arrivalSpeed="11.69" duration="106.00" routeLength="1186.14" waitingTime="0.00" waitingCount="0" stopTime="0.00" timeLoss="8.84" rerouteNo="1" devices="tripinfo_h12244c1:3 routing_h12244c1:3 emissions_h12244c1:3" vType="default_016" speedFactor="0.89" vaporized="">
        <emissions CO_abs="2925.650490" CO2_abs="228441.746313" HC_abs="18.620197" PMx_abs="3.523415" NOx_abs="89.622111" fuel_abs="98.197664" electricity_abs="0"/>
    </tripinfo>
    <tripinfo id="h7800c1:5" depart="57696.00" departLane="-447569998#1_1" departPos="5.10" departSpeed="0.00" departDelay="0.00" arrival="57725.00" arrivalLane="-447569998#1_2" arrivalPos="180.76" arrivalSpeed="4.19" duration="29.00" routeLength="175.66" waitingTime="1.00" waitingCount="1" stopTime="0.00" timeLoss="9.16" rerouteNo="1" devices="tripinfo_h7800c1:5 routing_h7800c1:5 emissions_h7800c1:5" vType="default_016" speedFactor="1.08" vaporized="">
        <emissions CO_abs="1411.283851" CO2_abs="57683.454915" HC_abs="7.763369" PMx_abs="1.030996" NOx_abs="24.036568" fuel_abs="24.796041" electricity_abs="0"/>
    </tripinfo>
    <tripinfo id="carIn22761:1" depart="57616.00" departLane="-306240162#1_0" departPos="5.10" departSpeed="0.00" departDelay="2.10" arrival="57727.00" arrivalLane="399835085#1_1" arrivalPos="212.23" arrivalSpeed="7.07" duration="111.00" routeLength="1093.26" waitingTime="12.00" waitingCount="1" stopTime="0.00" timeLoss="28.22" rerouteNo="1" devices="tripinfo_carIn22761:1 routing_carIn22761:1 emissions_carIn22761:1" vType="default_016" speedFactor="0.95" vaporized="">
        <emissions CO_abs="5542.052704" CO2_abs="290391.677224" HC_abs="32.001764" PMx_abs="5.366504" NOx_abs="119.093066" fuel_abs="124.827624" electricity_abs="0"/>
    </tripinfo>
    <tripinfo id="h3688c1:1" depart="57625.00" departLane="201201950#1_1" departPos="5.10" departSpeed="0.00" departDelay="0.00" arrival="57731.00" arrivalLane="32978638#0_1" arrivalPos="49.29" arrivalSpeed="13.51" duration="106.00" routeLength="1089.75" waitingTime="12.00" waitingCount="1" stopTime="0.00" timeLoss="27.26" rerouteNo="1" devices="tripinfo_h3688c1:1 routing_h3688c1:1 emissions_h3688c1:1" vType="default_016" speedFactor="1.02" vaporized="">
        <emissions CO_abs="5201.027468" CO2_abs="292063.571119" HC_abs="30.554154" PMx_abs="5.316452" NOx_abs="119.849513" fuel_abs="125.546061" electricity_abs="0"/>
    </tripinfo>
    <tripinfo id="h9563c2:5" depart="57631.00" departLane="315358244_1" departPos="5.10" departSpeed="0.00" departDelay="0.70" arrival="57731.00" arrivalLane="386687235_1" arrivalPos="80.84" arrivalSpeed="12.48" duration="100.00" routeLength="1186.14" waitingTime="0.00" waitingCount="0" stopTime="0.00" timeLoss="7.60" rerouteNo="1" devices="tripinfo_h9563c2:5 routing_h9563c2:5 emissions_h9563c2:5" vType="default_016" speedFactor="0.94" vaporized="">
        <emissions CO_abs="2383.214687" CO2_abs="213224.217853" HC_abs="15.791699" PMx_abs="3.181563" NOx_abs="82.423076" fuel_abs="91.656199" electricity_abs="0"/>
    </tripinfo>
    <tripinfo id="h3568c1:3" depart="57656.00" departLane="266565295#5_1" departPos="5.10" departSpeed="0.00" departDelay="0.80" arrival="57738.00" arrivalLane="-24634415_1" arrivalPos="62.03" arrivalSpeed="12.69" duration="82.00" routeLength="807.40" waitingTime="0.00" waitingCount="0" stopTime="0.00" timeLoss="12.42" rerouteNo="1" devices="tripinfo_h3568c1:3 routing_h3568c1:3 emissions_h3568c1:3" vType="default_016" speedFactor="0.93" vaporized="">
        <emissions CO_abs="3395.429371" CO2_abs="210527.170293" HC_abs="20.362165" PMx_abs="3.496085" NOx_abs="84.753517" fuel_abs="90.497089" electricity_abs="0"/>
    </tripinfo>
    <tripinfo id="h7181c1:1" depart="57660.00" departLane="315358254#0_1" departPos="5.10" departSpeed="0.00" departDelay="0.10" arrival="57743.00" arrivalLane="306240162#0_0" arrivalPos="220.43" arrivalSpeed="13.40" duration="83.00" routeLength="932.35" waitingTime="13.00" waitingCount="1" stopTime="0.00" timeLoss="22.88" rerouteNo="1" devices="tripinfo_h7181c1:1 routing_h7181c1:1 emissions_h7181c1:1" vType="default_016" speedFactor="0.85" vaporized="">
        <emissions CO_abs="3879.555678" CO2_abs="239323.573416" HC_abs="23.159868" PMx_abs="4.257861" NOx_abs="96.159165" fuel_abs="102.875258" electricity_abs="0"/>
    </tripinfo>
    <tripinfo id="carIn30817:1" depart="57681.00" departLane="315358244_1" departPos="5.10" departSpeed="0.00" departDelay="0.20" arrival="57743.00" arrivalLane="447569997#1_1" arrivalPos="180.93" arrivalSpeed="8.46" duration="62.00" routeLength="718.04" waitingTime="0.00" waitingCount="0" stopTime="0.00" timeLoss="7.26" rerouteNo="1" devices="tripinfo_carIn30817:1 routing_carIn30817:1 emissions_carIn30817:1" vType="default_016" speedFactor="1.13" vaporized="">
        <emissions CO_abs="2124.064304" CO2_abs="152719.696552" HC_abs="13.239691" PMx_abs="2.553699" NOx_abs="60.913931" fuel_abs="65.647753" electricity_abs="0"/>
    </tripinfo>
    <tripinfo id="carIn80064:1" depart="57603.00" departLane="128361109#1_1" departPos="5.10" departSpeed="0.00" departDelay="0.40" arrival="57751.00" arrivalLane="-315358254#1_1" arrivalPos="137.16" arrivalSpeed="13.80" duration="148.00" routeLength="1587.97" waitingTime="35.00" waitingCount="2" stopTime="0.00" timeLoss="63.59" rerouteNo="1" devices="tripinfo_carIn80064:1 routing_carIn80064:1 emissions_carIn80064:1" vType="default_016" speedFactor="1.06" vaporized="">
        <emissions CO_abs="12365.338809" CO2_abs="585723.190312" HC_abs="70.267477" PMx_abs="11.951011" NOx_abs="245.731236" fuel_abs="251.778182" electricity_abs="0"/>
    </tripinfo>
    <tripinfo id="h317c2:1" depart="57707.00" departLane="-32978638#0_1" departPos="5.10" departSpeed="0.00" departDelay="0.10" arrival="57755.00" arrivalLane="-266565295#5_1" arrivalPos="172.76" arrivalSpeed="12.96" duration="48.00" routeLength="370.53" waitingTime="11.00" waitingCount="1" stopTime="0.00" timeLoss="20.37" rerouteNo="1" devices="tripinfo_h317c2:1 routing_h317c2:1 emissions_h317c2:1" vType="default_016" speedFactor="1.01" vaporized="">
        <emissions CO_abs="3390.086509" CO2_abs="141703.382568" HC_abs="18.752128" PMx_abs="2.721533" NOx_abs="59.349984" fuel_abs="60.912921" electricity_abs="0"/>
    </tripinfo>
    <tripinfo id="h3154c1:1" depart="57658.00" departLane="24634507_1" departPos="5.10" departSpeed="0.00" departDelay="0.00" arrival="57763.00" arrivalLane="-266565295#5_1" arrivalPos="172.76" arrivalSpeed="16.09" duration="105.00" routeLength="1206.22" waitingTime="13.00" waitingCount="1" stopTime="0.00" timeLoss="29.83" rerouteNo="1" devices="tripinfo_h3154c1:1 routing_h3154c1:1 emissions_h3154c1:1" vType="default_016" speedFactor="1.19" vaporized="">
        <emissions CO_abs="5861.291316" CO2_abs="337672.383326" HC_abs="34.609713" PMx_abs="6.405348" NOx_abs="139.186416" fuel_abs="145.150971" electricity_abs="0"/>
    </tripinfo>
    <tripinfo id="h3326c1:2" depart="57656.00" departLane="22716069#0_1" departPos="5.10" departSpeed="0.00" departDelay="0.00" arrival="57767.00" arrivalLane="24634517#13_1" arrivalPos="111.62" arrivalSpeed="13.41" duration="111.00" routeLength="1312.81" waitingTime="0.00" waitingCount="0" stopTime="0.00" timeLoss="14.98" rerouteNo="1" devices="tripinfo_h3326c1:2 routing_h3326c1:2 emissions_h3326c1:2" vType="default_016" speedFactor="1.01" vaporized="">
        <emissions CO_abs="4276.608491" CO2_abs="314451.842702" HC_abs="26.860867" PMx_abs="5.463639" NOx_abs="127.225759" fuel_abs="135.169133" electricity_abs="0"/>
    </tripinfo>
    <tripinfo id="h5979c1:5" depart="57669.00" departLane="399835085#1_1" departPos="5.10" departSpeed="0.00" departDelay="0.00" arrival="57780.00" arrivalLane="-315358254#1_1" arrivalPos="137.16" arrivalSpeed="12.92" duration="111.00" routeLength="659.33" waitingTime="6.00" waitingCount="1" stopTime="0.00" timeLoss="33.16" rerouteNo="1" devices="tripinfo_h5979c1:5 routing_h5979c1:5 emissions_h5979c1:5" vType="default_016" speedFactor="0.94" vaporized="">
        <emissions CO_abs="5532.805946" CO2_abs="223984.525017" HC_abs="30.370639" PMx_abs="3.924094" NOx_abs="92.688714" fuel_abs="96.283066" electricity_abs="0"/>
    </tripinfo>
    <tripinfo id="carIn12365:1" depart="57713.00" departLane="315358244_1" departPos="5.10" departSpeed="0.00" departDelay="0.50" arrival="57783.00" arrivalLane="447569997#1_1" arrivalPos="180.93" arrivalSpeed="7.10" duration="70.00" routeLength="718.04" waitingTime="0.00" waitingCount="0" stopTime="0.00" timeLoss="7.66" rerouteNo="1" devices="tripinfo_carIn12365:1 routing_carIn12365:1 emissions_carIn12365:1" vType="default_016" speedFactor="0.99" vaporized="">
        <emissions CO_abs="2250.518031" CO2_abs="153700.417307" HC_abs="13.797173" PMx_abs="2.342602" NOx_abs="60.204299" fuel_abs="66.069731" electricity_abs="0"/>
    </tripinfo>
    <tripinfo id="h330c1:1" depart="57736.00" departLane="-32978638#0_1" departPos="5.10" departSpeed="0.00" departDelay="0.20" arrival="57784.00" arrivalLane="-266565295#5_1" arrivalPos="172.76" arrivalSpeed="13.86" duration="48.00" routeLength="370.53" waitingTime="13.00" waitingCount="1" stopTime="0.00" timeLoss="21.72" rerouteNo="1" devices="tripinfo_h330c1:1 routing_h330c1:1 emissions_h330c1:1" vType="default_016" speedFactor="1.04" vaporized="">
        <emissions CO_abs="3455.646182" CO2_abs="148339.099330" HC_abs="19.206542" PMx_abs="2.841845" NOx_abs="62.014229" fuel_abs="63.765303" electricity_abs="0"/>
    </tripinfo>
    <tripinfo id="h645c1:1" depart="57622.00" departLane="266565295#5_1" departPos="5.10" departSpeed="0.00" departDelay="0.40" arrival="57786.00" arrivalLane="-315358244_1" arrivalPos="33.95" arrivalSpeed="11.79" duration="164.00" routeLength="1910.83" waitingTime="0.00" waitingCount="0" stopTime="0.00" timeLoss="12.54" rerouteNo="1" devices="tripinfo_h645c1:1 routing_h645c1:1 emissions_h645c1:1" vType="default_016" speedFactor="0.92" vaporized="">
        <emissions CO_abs="3371.621745" CO2_abs="322412.719158" HC_abs="22.770794" PMx_abs="4.475467" NOx_abs="122.403011" fuel_abs="138.592104" electricity_abs="0"/>
    </tripinfo>
    <tripinfo id="h17600c1:1" depart="57662.00" departLane="272042143_1" departPos="5.10" departSpeed="0.00" departDelay="0.30" arrival="57790.00" arrivalLane="201238729#3_1" arrivalPos="431.02" arrivalSpeed="17.52" duration="128.00" routeLength="2100.26" waitingTime="0.00" waitingCount="0" stopTime="0.00" timeLoss="9.85" rerouteNo="1" devices="tripinfo_h17600c1:1 routing_h17600c1:1 emissions_h17600c1:1" vType="default_016" speedFactor="1.28" vaporized="">
        <emissions CO_abs="3276.096569" CO2_abs="369583.095395" HC_abs="23.100972" PMx_abs="6.078779" NOx_abs="141.534392" fuel_abs="158.867174" electricity_abs="0"/>
    </tripinfo>
    <tripinfo id="carIn27009:1" depart="57673.00" departLane="-447569998#1_1" departPos="5.10" departSpeed="0.00" departDelay="0.50" arrival="57790.00" arrivalLane="-26677539_1" arrivalPos="152.75" arrivalSpeed="8.42" duration="117.00" routeLength="699.63" waitingTime="24.00" waitingCount="1" stopTime="0.00" timeLoss="37.59" rerouteNo="1" devices="tripinfo_carIn27009:1 routing_carIn27009:1 emissions_carIn27009:1" vType="default_015" speedFactor="1.06" vaporized="">
        <emissions CO_abs="7501.228513" CO2_abs="252961.721032" HC_abs="40.001197" PMx_abs="4.595788" NOx_abs="105.457533" fuel_abs="108.740193" electricity_abs="0"/>
    </tripinfo>
    <tripinfo id="carIn48184:1" depart="57613.00" departLane="-306240162#1_0" departPos="5.10" departSpeed="0.00" departDelay="0.70" arrival="57804.00" arrivalLane="386687235_1" arrivalPos="80.84" arrivalSpeed="13.73" duration="191.00" routeLength="2257.41" waitingTime="17.00" waitingCount="2" stopTime="0.00" timeLoss="43.96" rerouteNo="1" devices="tripinfo_carIn48184:1 routing_carIn48184:1 emissions_carIn48184:1" vType="default_016" speedFactor="1.01" vaporized="">
        <emissions CO_abs="8246.166842" CO2_abs="533081.706175" HC_abs="50.080824" PMx_abs="9.558556" NOx_abs="215.200314" fuel_abs="229.149215" electricity_abs="0"/>
    </tripinfo>
    <tripinfo id="carIn82220:1" depart="57619.00" departLane="-306240162#1_0" departPos="5.10" departSpeed="0.00" departDelay="3.50" arrival="57804.00" arrivalLane="386687235_2" arrivalPos="80.84" arrivalSpeed="14.72" duration="185.00" routeLength="2257.41" waitingTime="13.00" waitingCount="2" stopTime="0.00" timeLoss="47.94" rerouteNo="1" devices="tripinfo_carIn82220:1 routing_carIn82220:1 emissions_carIn82220:1" vType="default_016" speedFactor="1.09" vaporized="">
        <emissions CO_abs="8205.370040" CO2_abs="545244.214734" HC_abs="50.186889" PMx_abs="9.931097" NOx_abs="221.333503" fuel_abs="234.376901" electricity_abs="0"/>
    </tripinfo>
    <tripinfo id="carIn107084:1" depart="57601.00" departLane="124812856#0_1" departPos="5.10" departSpeed="0.00" departDelay="0.70" arrival="57805.00" arrivalLane="-128361102#1_1" arrivalPos="274.68" arrivalSpeed="11.94" duration="204.00" routeLength="2250.49" waitingTime="0.00" waitingCount="0" stopTime="0.00" timeLoss="16.70" rerouteNo="1" devices="tripinfo_carIn107084:1 routing_carIn107084:1 emissions_carIn107084:1" vType="default_016" speedFactor="0.88" vaporized="">
        <emissions CO_abs="5279.975940" CO2_abs="447920.732899" HC_abs="34.358837" PMx_abs="6.446254" NOx_abs="172.536650" fuel_abs="192.542945" electricity_abs="0"/>
    </tripinfo>
    <tripinfo id="carIn126288:1" depart="57674.00" departLane="272042143_1" departPos="5.10" departSpeed="0.00" departDelay="0.00" arrival="57805.00" arrivalLane="-315358254#1_1" arrivalPos="137.16" arrivalSpeed="16.37" duration="131.00" routeLength="1596.88" waitingTime="18.00" waitingCount="1" stopTime="0.00" timeLoss="35.83" rerouteNo="1" devices="tripinfo_carIn126288:1 routing_carIn126288:1 emissions_carIn126288:1" vType="default_016" speedFactor="1.23" vaporized="">
        <emissions CO_abs="5807.694701" CO2_abs="379101.346182" HC_abs="35.088810" PMx_abs="6.774255" NOx_abs="152.021616" fuel_abs="162.959614" electricity_abs="0"/>
    </tripinfo>
    <tripinfo id="carIn116184:1" depart="57627.00" departLane="-306240162#1_0" departPos="5.10" departSpeed="0.00" departDelay="0.10" arrival="57806.00" arrivalLane="386687235_2" arrivalPos="80.84" arrivalSpeed="16.18" duration="179.00" routeLength="2257.41" waitingTime="8.00" waitingCount="1" stopTime="0.00" timeLoss="59.69" rerouteNo="1" devices="tripinfo_carIn116184:1 routing_carIn116184:1 emissions_carIn116184:1" vType="default_016" speedFactor="1.25" vaporized="">
        <emissions CO_abs="8261.796634" CO2_abs="598045.766443" HC_abs="51.740766" PMx_abs="11.147427" NOx_abs="244.215749" fuel_abs="257.073000" electricity_abs="0"/>
    </tripinfo>
    <tripinfo id="carIn77943:1" depart="57608.00" departLane="124812856#0_1" departPos="5.10" departSpeed="0.00" departDelay="2.50" arrival="57807.00" arrivalLane="-128361102#1_1" arrivalPos="274.68" arrivalSpeed="12.71" duration="199.00" routeLength="2250.49" waitingTime="0.00" waitingCount="0" stopTime="0.00" timeLoss="32.22" rerouteNo="1" devices="tripinfo_carIn77943:1 routing_carIn77943:1 emissions_carIn77943:1" vType="default_016" speedFactor="0.99" vaporized="">
        <emissions CO_abs="6682.672500" CO2_abs="516759.019028" HC_abs="42.519378" PMx_abs="8.615140" NOx_abs="207.104706" fuel_abs="222.132388" electricity_abs="0"/>
    </tripinfo>
    <tripinfo id="carIn81046:1" depart="57610.00" departLane="124812856#0_1" departPos="5.10" departSpeed="0.00" departDelay="1.50" arrival="57808.00" arrivalLane="-128361102#1_1" arrivalPos="274.68" arrivalSpeed="13.61" duration="198.00" routeLength="2250.49" waitingTime="0.00" waitingCount="0" stopTime="0.00" timeLoss="31.58" rerouteNo="1" devices="tripinfo_carIn81046:1 routing_carIn81046:1 emissions_carIn81046:1" vType="default_016" speedFactor="0.99" vaporized="">
        <emissions CO_abs="7038.966822" CO2_abs="523170.540401" HC_abs="44.322203" PMx_abs="8.958714" NOx_abs="211.266753" fuel_abs="224.888289" electricity_abs="0"/>
    </tripinfo>
    <tripinfo id="carIn12858:1" depart="57661.00" departLane="128361109#1_1" departPos="5.10" departSpeed="0.00" departDelay="0.90" arrival="57809.00" arrivalLane="399835085#1_1" arrivalPos="212.23" arrivalSpeed="8.68" duration="148.00" routeLength="1738.12" waitingTime="15.00" waitingCount="2" stopTime="0.00" timeLoss="47.94" rerouteNo="1" devices="tripinfo_carIn12858:1 routing_carIn12858:1 emissions_carIn12858:1" vType="default_016" speedFactor="1.15" vaporized="">
        <emissions CO_abs="8785.394859" CO2_abs="524827.157860" HC_abs="52.589698" PMx_abs="10.619234" NOx_abs="220.365113" fuel_abs="225.599595" electricity_abs="0"/>
    </tripinfo>
    <tripinfo id="carIn77438:1" depart="57614.00" departLane="124812856#0_1" departPos="5.10" departSpeed="0.00" departDelay="1.10" arrival="57810.00" arrivalLane="-128361102#1_1" arrivalPos="274.68" arrivalSpeed="12.74" duration="196.00" routeLength="2250.49" waitingTime="0.00" waitingCount="0" stopTime="0.00" timeLoss="18.38" rerouteNo="1" devices="tripinfo_carIn77438:1 routing_carIn77438:1 emissions_carIn77438:1" vType="default_016" speedFactor="0.93" vaporized="">
        <emissions CO_abs="5804.834599" CO2_abs="486745.170271" HC_abs="37.750179" PMx_abs="7.550817" NOx_abs="190.757360" fuel_abs="209.231246" electricity_abs="0"/>
    </tripinfo>
    <tripinfo id="h19804c1:3" depart="57617.00" departLane="124812856#0_1" departPos="5.10" departSpeed="0.00" departDelay="1.50" arrival="57812.00" arrivalLane="-128361102#1_1" arrivalPos="274.68" arrivalSpeed="12.86" duration="195.00" routeLength="2250.49" waitingTime="0.00" waitingCount="0" stopTime="0.00" timeLoss="29.16" rerouteNo="1" devices="tripinfo_h19804c1:3 routing_h19804c1:3 emissions_h19804c1:3" vType="default_016" speedFactor="0.99" vaporized="">
        <emissions CO_abs="6408.783898" CO2_abs="496535.861767" HC_abs="40.794109" PMx_abs="8.240813" NOx_abs="198.510962" fuel_abs="213.439398" electricity_abs="0"/>
    </tripinfo>
    <tripinfo id="h11737c1:1" depart="57665.00" departLane="272042143_1" departPos="5.10" departSpeed="0.00" departDelay="1.50" arrival="57812.00" arrivalLane="-315358254#1_1" arrivalPos="137.16" arrivalSpeed="11.05" duration="147.00" routeLength="1596.88" waitingTime="0.00" waitingCount="0" stopTime="0.00" timeLoss="13.54" rerouteNo="1" devices="tripinfo_h11737c1:1 routing_h11737c1:1 emissions_h11737c1:1" vType="default_016" speedFactor="0.87" vaporized="">
        <emissions CO_abs="3975.482626" CO2_abs="315409.842702" HC_abs="25.385082" PMx_abs="4.693638" NOx_abs="122.735582" fuel_abs="135.581850" electricity_abs="0"/>
    </tripinfo>
    <tripinfo id="carIn50326:1" depart="57651.00" departLane="128361102#0_1" departPos="5.10" departSpeed="0.00" departDelay="0.30" arrival="57813.00" arrivalLane="18809673#0_1" arrivalPos="473.56" arrivalSpeed="13.47" duration="162.00" routeLength="1591.07" waitingTime="11.00" waitingCount="1" stopTime="0.00" timeLoss="31.26" rerouteNo="1" devices="tripinfo_carIn50326:1 routing_carIn50326:1 emissions_carIn50326:1" vType="default_016" speedFactor="1.00" vaporized="">
        <emissions CO_abs="6626.780369" CO2_abs="378911.100738" HC_abs="38.997564" PMx_abs="6.340488" NOx_abs="152.032041" fuel_abs="162.878961" electricity_abs="0"/>
    </tripinfo>
    <tripinfo id="carIn129809:1" depart="57729.00" departLane="-447569998#1_1" departPos="5.10" departSpeed="0.00" departDelay="1.00" arrival="57813.00" arrivalLane="-315358244_1" arrivalPos="33.95" arrivalSpeed="16.23" duration="84.00" routeLength="706.49" waitingTime="14.00" waitingCount="2" stopTime="0.00" timeLoss="32.56" rerouteNo="1" devices="tripinfo_carIn129809:1 routing_carIn129809:1 emissions_carIn129809:1" vType="default_015" speedFactor="1.18" vaporized="">
        <emissions CO_abs="4427.523091" CO2_abs="226693.988345" HC_abs="25.445613" PMx_abs="4.254512" NOx_abs="94.000574" fuel_abs="97.446491" electricity_abs="0"/>
    </tripinfo>
    <tripinfo id="carIn107842:1" depart="57623.00" departLane="124812856#0_1" departPos="5.10" departSpeed="0.00" departDelay="1.90" arrival="57814.00" arrivalLane="-128361102#1_1" arrivalPos="274.68" arrivalSpeed="13.11" duration="191.00" routeLength="2250.49" waitingTime="0.00" waitingCount="0" stopTime="0.00" timeLoss="28.35" rerouteNo="1" devices="tripinfo_carIn107842:1 routing_carIn107842:1 emissions_carIn107842:1" vType="default_016" speedFactor="1.01" vaporized="">
        <emissions CO_abs="6220.185078" CO2_abs="485220.134531" HC_abs="39.713791" PMx_abs="8.184242" NOx_abs="194.561932" fuel_abs="208.575048" electricity_abs="0"/>
    </tripinfo>
    <tripinfo id="carIn118591:1" depart="57689.00" departLane="315358244_1" departPos="5.10" departSpeed="0.00" departDelay="0.20" arrival="57814.00" arrivalLane="386687235_1" arrivalPos="80.84" arrivalSpeed="10.74" duration="125.00" routeLength="1186.14" waitingTime="9.00" waitingCount="1" stopTime="0.00" timeLoss="21.62" rerouteNo="1" devices="tripinfo_carIn118591:1 routing_carIn118591:1 emissions_carIn118591:1" vType="default_016" speedFactor="0.83" vaporized="">
        <emissions CO_abs="3961.417476" CO2_abs="241906.588543" HC_abs="23.614212" PMx_abs="3.724928" NOx_abs="95.330618" fuel_abs="103.986343" electricity_abs="0"/>
    </tripinfo>
    <tripinfo id="randUni14624:1" depart="57606.00" departLane="315358244_1" departPos="5.10" departSpeed="0.00" departDelay="0.80" arrival="57817.00" arrivalLane="-25149001#4_1" arrivalPos="105.67" arrivalSpeed="8.46" duration="211.00" routeLength="2803.98" waitingTime="6.00" waitingCount="1" stopTime="0.00" timeLoss="31.64" rerouteNo="1" devices="tripinfo_randUni14624:1 routing_randUni14624:1 emissions_randUni14624:1" vType="random_016" speedFactor="1.17" vaporized="">
        <emissions CO_abs="6698.084958" CO2_abs="571722.513272" HC_abs="43.179965" PMx_abs="9.664578" NOx_abs="225.928969" fuel_abs="245.758294" electricity_abs="0"/>
    </tripinfo>
    <tripinfo id="carIn86816:1" depart="57617.00" departLane="128361102#0_1" departPos="5.10" departSpeed="0.00" departDelay="0.80" arrival="57818.00" arrivalLane="201956811#0_1" arrivalPos="40.40" arrivalSpeed="9.97" duration="201.00" routeLength="2067.33" waitingTime="0.00" waitingCount="0" stopTime="0.00" timeLoss="18.40" rerouteNo="1" devices="tripinfo_carIn86816:1 routing_carIn86816:1 emissions_carIn86816:1" vType="default_016" speedFactor="0.83" vaporized="">
        <emissions CO_abs="5824.582878" CO2_abs="423198.278971" HC_abs="36.299960" PMx_abs="6.464422" NOx_abs="166.483340" fuel_abs="181.915800" electricity_abs="0"/>
    </tripinfo>
    <tripinfo id="h15382c1:3" depart="57626.00" departLane="124812856#0_1" departPos="5.10" departSpeed="0.00" departDelay="3.80" arrival="57818.00" arrivalLane="-128361102#1_1" arrivalPos="274.68" arrivalSpeed="12.39" duration="192.00" routeLength="2250.49" waitingTime="0.00" waitingCount="0" stopTime="0.00" timeLoss="19.98" rerouteNo="1" devices="tripinfo_h15382c1:3 routing_h15382c1:3 emissions_h15382c1:3" vType="default_016" speedFactor="0.96" vaporized="">
        <emissions CO_abs="4816.409165" CO2_abs="419927.233498" HC_abs="31.670842" PMx_abs="6.381388" NOx_abs="163.291619" fuel_abs="180.509110" electricity_abs="0"/>
    </tripinfo>
    <tripinfo id="carIn82278:1" depart="57702.00" departLane="-306240162#1_0" departPos="5.10" departSpeed="0.00" departDelay="0.70" arrival="57818.00" arrivalLane="399835085#1_1" arrivalPos="212.23" arrivalSpeed="7.39" duration="116.00" routeLength="1093.26" waitingTime="7.00" waitingCount="1" stopTime="0.00" timeLoss="33.35" rerouteNo="1" devices="tripinfo_carIn82278:1 routing_carIn82278:1 emissions_carIn82278:1" vType="default_016" speedFactor="0.95" vaporized="">
        <emissions CO_abs="5594.143344" CO2_abs="316967.859646" HC_abs="32.953583" PMx_abs="5.947271" NOx_abs="131.036640" fuel_abs="136.251087" electricity_abs="0"/>
    </tripinfo>
    <tripinfo id="carIn3969:1" depart="57629.00" departLane="124812856#0_1" departPos="5.10" departSpeed="0.00" departDelay="5.30" arrival="57819.00" arrivalLane="-128361102#1_1" arrivalPos="274.68" arrivalSpeed="13.34" duration="190.00" routeLength="2250.49" waitingTime="0.00" waitingCount="0" stopTime="0.00" timeLoss="25.86" rerouteNo="1" devices="tripinfo_carIn3969:1 routing_carIn3969:1 emissions_carIn3969:1" vType="default_016" speedFactor="1.00" vaporized="">
        <emissions CO_abs="6172.095700" CO2_abs="497169.492122" HC_abs="39.739792" PMx_abs="8.132175" NOx_abs="197.463632" fuel_abs="213.711799" electricity_abs="0"/>
    </tripinfo>
    <tripinfo id="carIn56649:1" depart="57632.00" departLane="124812856#0_1" departPos="5.10" departSpeed="0.00" departDelay="8.10" arrival="57821.00" arrivalLane="-128361102#1_1" arrivalPos="274.68" arrivalSpeed="13.11" duration="189.00" routeLength="2250.49" waitingTime="0.00" waitingCount="0" stopTime="0.00" timeLoss="24.31" rerouteNo="1" devices="tripinfo_carIn56649:1 routing_carIn56649:1 emissions_carIn56649:1" vType="default_016" speedFactor="1.00" vaporized="">
        <emissions CO_abs="6139.326637" CO2_abs="492517.727622" HC_abs="39.490954" PMx_abs="8.244116" NOx_abs="196.836121" fuel_abs="211.711934" electricity_abs="0"/>
    </tripinfo>
    <tripinfo id="carIn28951:1" depart="57606.00" departLane="10425609#0_1" departPos="5.10" departSpeed="0.00" departDelay="0.20" arrival="57823.00" arrivalLane="-128361102#1_1" arrivalPos="274.68" arrivalSpeed="14.01" duration="217.00" routeLength="2113.04" waitingTime="38.00" waitingCount="1" stopTime="0.00" timeLoss="66.34" rerouteNo="1" devices="tripinfo_carIn28951:1 routing_carIn28951:1 emissions_carIn28951:1" vType="default_016" speedFactor="1.03" vaporized="">
        <emissions CO_abs="11884.413840" CO2_abs="586546.279146" HC_abs="67.858321" PMx_abs="10.662547" NOx_abs="240.326600" fuel_abs="252.133289" electricity_abs="0"/>
    </tripinfo>