<?xml version="1.0" encoding="UTF-8"?>

<!-- generated on 2021-10-26 13:52:41 by Eclipse SUMO sumo Version 1.10.0
<configuration xmlns:xsi="http://www.w3.org/2001/XMLSchema-instance" xsi:noNamespaceSchemaLocation="http://sumo.dlr.de/xsd/sumoConfiguration.xsd">

    <input>
        <net-file value="/Users/behradkoohy/sumo-scratchpad/RESCO/environments/ingolstadt21/ingolstadt21.net.xml"/>
        <route-files value="/Users/behradkoohy/sumo-scratchpad/RESCO/environments/ingolstadt21/ingolstadt21.rou.xml"/>
    </input>

    <output>
        <tripinfo-output value="/Users/behradkoohy/sumo-scratchpad/RESCO/logs/MAXPRESSURE-tr0-ingolstadt21-21-mplight-wait/tripinfo_98.xml"/>
        <tripinfo-output.write-unfinished value="true"/>
    </output>

    <time>
        <begin value="57600"/>
        <end value="61200"/>
    </time>

    <processing>
        <time-to-teleport value="-1"/>
    </processing>

    <report>
        <no-warnings value="true"/>
        <no-step-log value="true"/>
    </report>

    <emissions>
        <device.emissions.probability value="1"/>
    </emissions>

    <traci_server>
        <remote-port value="59788"/>
    </traci_server>

    <random_number>
        <random value="true"/>
    </random_number>

</configuration>
-->

<tripinfos xmlns:xsi="http://www.w3.org/2001/XMLSchema-instance" xsi:noNamespaceSchemaLocation="http://sumo.dlr.de/xsd/tripinfo_file.xsd">
    <tripinfo id="h15454c2:3" depart="57612.00" departLane="24608844_1" departPos="5.10" departSpeed="0.00" departDelay="0.50" arrival="57655.00" arrivalLane="32978638#0_1" arrivalPos="49.29" arrivalSpeed="12.01" duration="43.00" routeLength="354.79" waitingTime="0.00" waitingCount="0" stopTime="0.00" timeLoss="6.12" rerouteNo="1" devices="tripinfo_h15454c2:3 routing_h15454c2:3 emissions_h15454c2:3" vType="default_016" speedFactor="0.94" vaporized="">
        <emissions CO_abs="2067.730052" CO2_abs="107419.569754" HC_abs="11.909633" PMx_abs="1.832851" NOx_abs="43.938921" fuel_abs="46.175487" electricity_abs="0"/>
    </tripinfo>
    <tripinfo id="carIn60260:1" depart="57606.00" departLane="315358254#0_1" departPos="5.10" departSpeed="0.00" departDelay="0.90" arrival="57663.00" arrivalLane="399835085#1_1" arrivalPos="212.23" arrivalSpeed="7.19" duration="57.00" routeLength="430.98" waitingTime="0.00" waitingCount="0" stopTime="0.00" timeLoss="7.36" rerouteNo="1" devices="tripinfo_carIn60260:1 routing_carIn60260:1 emissions_carIn60260:1" vType="default_016" speedFactor="0.93" vaporized="">
        <emissions CO_abs="2613.080918" CO2_abs="123111.760618" HC_abs="14.716127" PMx_abs="1.940262" NOx_abs="49.503485" fuel_abs="52.921383" electricity_abs="0"/>
    </tripinfo>
    <tripinfo id="carIn53971:1" depart="57640.00" departLane="272042143_1" departPos="5.10" departSpeed="0.00" departDelay="0.80" arrival="57695.00" arrivalLane="24634414#1_1" arrivalPos="162.19" arrivalSpeed="7.47" duration="55.00" routeLength="493.04" waitingTime="0.00" waitingCount="0" stopTime="0.00" timeLoss="9.16" rerouteNo="1" devices="tripinfo_carIn53971:1 routing_carIn53971:1 emissions_carIn53971:1" vType="default_016" speedFactor="1.00" vaporized="">
        <emissions CO_abs="2408.080806" CO2_abs="138774.080115" HC_abs="14.183897" PMx_abs="2.285370" NOx_abs="55.946619" fuel_abs="59.653500" electricity_abs="0"/>
    </tripinfo>
    <tripinfo id="S5R_frequency1.2" depart="57615.00" departLane="315358250#0_1" departPos="12.10" departSpeed="0.00" departDelay="3.40" arrival="57708.00" arrivalLane="386687235_1" arrivalPos="80.84" arrivalSpeed="13.69" duration="93.00" routeLength="1115.62" waitingTime="0.00" waitingCount="0" stopTime="0.00" timeLoss="10.75" rerouteNo="1" devices="tripinfo_S5R_frequency1.2 routing_S5R_frequency1.2 emissions_S5R_frequency1.2" vType="bus" speedFactor="1.00" vaporized="">
        <emissions CO_abs="1780.773616" CO2_abs="1130321.337429" HC_abs="377.706582" PMx_abs="191.430127" NOx_abs="8727.156388" fuel_abs="482.077662" electricity_abs="0"/>
    </tripinfo>
    <tripinfo id="h12244c1:3" depart="57612.00" departLane="315358244_1" departPos="5.10" departSpeed="0.00" departDelay="0.40" arrival="57712.00" arrivalLane="386687235_1" arrivalPos="80.84" arrivalSpeed="12.77" duration="100.00" routeLength="1186.14" waitingTime="0.00" waitingCount="0" stopTime="0.00" timeLoss="8.09" rerouteNo="1" devices="tripinfo_h12244c1:3 routing_h12244c1:3 emissions_h12244c1:3" vType="default_016" speedFactor="0.95" vaporized="">
        <emissions CO_abs="2861.174203" CO2_abs="239878.812216" HC_abs="18.625374" PMx_abs="3.824487" NOx_abs="94.542808" fuel_abs="103.113653" electricity_abs="0"/>
    </tripinfo>
    <tripinfo id="h9563c2:5" depart="57631.00" departLane="315358244_1" departPos="5.10" departSpeed="0.00" departDelay="0.70" arrival="57715.00" arrivalLane="386687235_1" arrivalPos="80.84" arrivalSpeed="14.81" duration="84.00" routeLength="1186.14" waitingTime="0.00" waitingCount="0" stopTime="0.00" timeLoss="8.81" rerouteNo="1" devices="tripinfo_h9563c2:5 routing_h9563c2:5 emissions_h9563c2:5" vType="default_016" speedFactor="1.15" vaporized="">
        <emissions CO_abs="2484.755092" CO2_abs="213842.872757" HC_abs="16.186648" PMx_abs="3.648989" NOx_abs="84.733283" fuel_abs="91.921573" electricity_abs="0"/>
    </tripinfo>
    <tripinfo id="carIn22761:1" depart="57616.00" departLane="-306240162#1_0" departPos="5.10" departSpeed="0.00" departDelay="2.10" arrival="57723.00" arrivalLane="399835085#1_1" arrivalPos="212.23" arrivalSpeed="7.87" duration="107.00" routeLength="1093.26" waitingTime="12.00" waitingCount="1" stopTime="0.00" timeLoss="29.51" rerouteNo="1" devices="tripinfo_carIn22761:1 routing_carIn22761:1 emissions_carIn22761:1" vType="default_016" speedFactor="1.01" vaporized="">
        <emissions CO_abs="5531.879242" CO2_abs="309337.248459" HC_abs="32.546186" PMx_abs="5.835261" NOx_abs="126.577064" fuel_abs="132.971187" electricity_abs="0"/>
    </tripinfo>
    <tripinfo id="h7800c1:5" depart="57696.00" departLane="-447569998#1_1" departPos="5.10" departSpeed="0.00" departDelay="0.00" arrival="57725.00" arrivalLane="-447569998#1_2" arrivalPos="180.76" arrivalSpeed="3.93" duration="29.00" routeLength="175.66" waitingTime="2.00" waitingCount="1" stopTime="0.00" timeLoss="8.39" rerouteNo="1" devices="tripinfo_h7800c1:5 routing_h7800c1:5 emissions_h7800c1:5" vType="default_016" speedFactor="1.04" vaporized="">
        <emissions CO_abs="1482.355127" CO2_abs="61101.291117" HC_abs="8.151089" PMx_abs="1.011494" NOx_abs="24.937605" fuel_abs="26.265359" electricity_abs="0"/>
    </tripinfo>
    <tripinfo id="h7181c1:1" depart="57660.00" departLane="315358254#0_1" departPos="5.10" departSpeed="0.00" departDelay="0.10" arrival="57731.00" arrivalLane="306240162#0_0" arrivalPos="220.43" arrivalSpeed="14.86" duration="71.00" routeLength="932.35" waitingTime="6.00" waitingCount="1" stopTime="0.00" timeLoss="16.34" rerouteNo="1" devices="tripinfo_h7181c1:1 routing_h7181c1:1 emissions_h7181c1:1" vType="default_016" speedFactor="0.93" vaporized="">
        <emissions CO_abs="3404.245196" CO2_abs="234152.683098" HC_abs="20.970436" PMx_abs="4.255246" NOx_abs="94.063966" fuel_abs="100.652108" electricity_abs="0"/>
    </tripinfo>
    <tripinfo id="h3568c1:3" depart="57656.00" departLane="266565295#5_1" departPos="5.10" departSpeed="0.00" departDelay="0.80" arrival="57736.00" arrivalLane="-24634415_1" arrivalPos="62.03" arrivalSpeed="12.54" duration="80.00" routeLength="807.40" waitingTime="0.00" waitingCount="0" stopTime="0.00" timeLoss="11.25" rerouteNo="1" devices="tripinfo_h3568c1:3 routing_h3568c1:3 emissions_h3568c1:3" vType="default_016" speedFactor="0.94" vaporized="">
        <emissions CO_abs="3048.773722" CO2_abs="195545.990706" HC_abs="18.444052" PMx_abs="3.275821" NOx_abs="78.782658" fuel_abs="84.057167" electricity_abs="0"/>
    </tripinfo>
    <tripinfo id="carIn30817:1" depart="57681.00" departLane="315358244_1" departPos="5.10" departSpeed="0.00" departDelay="0.20" arrival="57742.00" arrivalLane="447569997#1_1" arrivalPos="180.93" arrivalSpeed="9.41" duration="61.00" routeLength="718.04" waitingTime="0.00" waitingCount="0" stopTime="0.00" timeLoss="6.45" rerouteNo="1" devices="tripinfo_carIn30817:1 routing_carIn30817:1 emissions_carIn30817:1" vType="default_016" speedFactor="1.13" vaporized="">
        <emissions CO_abs="2097.250138" CO2_abs="155179.841806" HC_abs="13.116214" PMx_abs="2.632164" NOx_abs="62.025718" fuel_abs="66.705155" electricity_abs="0"/>
    </tripinfo>
    <tripinfo id="h3688c1:1" depart="57625.00" departLane="201201950#1_1" departPos="5.10" departSpeed="0.00" departDelay="0.00" arrival="57747.00" arrivalLane="32978638#0_1" arrivalPos="49.29" arrivalSpeed="10.24" duration="122.00" routeLength="1089.75" waitingTime="7.00" waitingCount="1" stopTime="0.00" timeLoss="22.59" rerouteNo="1" devices="tripinfo_h3688c1:1 routing_h3688c1:1 emissions_h3688c1:1" vType="default_016" speedFactor="0.80" vaporized="">
        <emissions CO_abs="3901.830750" CO2_abs="233894.719764" HC_abs="23.183028" PMx_abs="3.780019" NOx_abs="93.817816" fuel_abs="100.542086" electricity_abs="0"/>
    </tripinfo>
    <tripinfo id="carIn80064:1" depart="57603.00" departLane="128361109#1_1" departPos="5.10" departSpeed="0.00" departDelay="0.40" arrival="57750.00" arrivalLane="-315358254#1_1" arrivalPos="137.16" arrivalSpeed="10.56" duration="147.00" routeLength="1587.97" waitingTime="8.00" waitingCount="2" stopTime="0.00" timeLoss="35.20" rerouteNo="1" devices="tripinfo_carIn80064:1 routing_carIn80064:1 emissions_carIn80064:1" vType="default_016" speedFactor="0.81" vaporized="">
        <emissions CO_abs="6234.892273" CO2_abs="405931.608228" HC_abs="37.850203" PMx_abs="7.308539" NOx_abs="165.344418" fuel_abs="174.492550" electricity_abs="0"/>
    </tripinfo>
    <tripinfo id="h317c2:1" depart="57707.00" departLane="-32978638#0_1" departPos="5.10" departSpeed="0.00" departDelay="0.10" arrival="57754.00" arrivalLane="-266565295#5_1" arrivalPos="172.76" arrivalSpeed="13.97" duration="47.00" routeLength="370.53" waitingTime="9.00" waitingCount="1" stopTime="0.00" timeLoss="20.33" rerouteNo="1" devices="tripinfo_h317c2:1 routing_h317c2:1 emissions_h317c2:1" vType="default_016" speedFactor="1.03" vaporized="">
        <emissions CO_abs="2836.559409" CO2_abs="129950.961981" HC_abs="15.984926" PMx_abs="2.498937" NOx_abs="54.500103" fuel_abs="55.860761" electricity_abs="0"/>
    </tripinfo>
    <tripinfo id="carIn86816:1" depart="57617.00" departLane="128361102#0_1" departPos="5.10" departSpeed="0.00" departDelay="0.80" arrival="57764.00" arrivalLane="201956811#0_1" arrivalPos="40.40" arrivalSpeed="15.52" duration="147.00" routeLength="2067.33" waitingTime="0.00" waitingCount="0" stopTime="0.00" timeLoss="16.31" rerouteNo="1" devices="tripinfo_carIn86816:1 routing_carIn86816:1 emissions_carIn86816:1" vType="default_016" speedFactor="1.16" vaporized="">
        <emissions CO_abs="4639.458635" CO2_abs="427819.881408" HC_abs="30.850554" PMx_abs="7.139456" NOx_abs="168.207765" fuel_abs="183.900793" electricity_abs="0"/>
    </tripinfo>
    <tripinfo id="carIn107084:1" depart="57601.00" departLane="124812856#0_1" departPos="5.10" departSpeed="0.00" departDelay="0.70" arrival="57771.00" arrivalLane="-128361102#1_1" arrivalPos="274.68" arrivalSpeed="13.70" duration="170.00" routeLength="2250.49" waitingTime="0.00" waitingCount="0" stopTime="0.00" timeLoss="16.57" rerouteNo="1" devices="tripinfo_carIn107084:1 routing_carIn107084:1 emissions_carIn107084:1" vType="default_016" speedFactor="1.07" vaporized="">
        <emissions CO_abs="5365.321816" CO2_abs="466090.981271" HC_abs="35.238250" PMx_abs="7.921928" NOx_abs="185.566991" fuel_abs="200.351785" electricity_abs="0"/>
    </tripinfo>
    <tripinfo id="h645c1:1" depart="57622.00" departLane="266565295#5_1" departPos="5.10" departSpeed="0.00" departDelay="0.40" arrival="57773.00" arrivalLane="-315358244_1" arrivalPos="33.95" arrivalSpeed="14.33" duration="151.00" routeLength="1910.83" waitingTime="7.00" waitingCount="1" stopTime="0.00" timeLoss="23.54" rerouteNo="1" devices="tripinfo_h645c1:1 routing_h645c1:1 emissions_h645c1:1" vType="default_016" speedFactor="1.09" vaporized="">
        <emissions CO_abs="4797.709521" CO2_abs="402622.854315" HC_abs="31.089576" PMx_abs="6.552951" NOx_abs="157.607713" fuel_abs="173.070319" electricity_abs="0"/>
    </tripinfo>
    <tripinfo id="h3154c1:1" depart="57658.00" departLane="24634507_1" departPos="5.10" departSpeed="0.00" departDelay="0.00" arrival="57774.00" arrivalLane="-266565295#5_1" arrivalPos="172.76" arrivalSpeed="13.30" duration="116.00" routeLength="1206.22" waitingTime="5.00" waitingCount="1" stopTime="0.00" timeLoss="22.38" rerouteNo="1" devices="tripinfo_h3154c1:1 routing_h3154c1:1 emissions_h3154c1:1" vType="default_016" speedFactor="0.96" vaporized="">
        <emissions CO_abs="4393.495472" CO2_abs="286997.759846" HC_abs="26.721716" PMx_abs="4.858951" NOx_abs="115.511821" fuel_abs="123.368415" electricity_abs="0"/>
    </tripinfo>
    <tripinfo id="carIn48184:1" depart="57613.00" departLane="-306240162#1_0" departPos="5.10" departSpeed="0.00" departDelay="0.70" arrival="57783.00" arrivalLane="386687235_1" arrivalPos="80.84" arrivalSpeed="15.98" duration="170.00" routeLength="2257.41" waitingTime="13.00" waitingCount="2" stopTime="0.00" timeLoss="40.71" rerouteNo="1" devices="tripinfo_carIn48184:1 routing_carIn48184:1 emissions_carIn48184:1" vType="default_016" speedFactor="1.15" vaporized="">
        <emissions CO_abs="8194.617173" CO2_abs="581744.806705" HC_abs="51.134812" PMx_abs="11.120997" NOx_abs="237.528849" fuel_abs="250.065853" electricity_abs="0"/>
    </tripinfo>
    <tripinfo id="h3326c1:2" depart="57656.00" departLane="22716069#0_1" departPos="5.10" departSpeed="0.00" departDelay="0.00" arrival="57784.00" arrivalLane="24634517#13_1" arrivalPos="111.62" arrivalSpeed="11.91" duration="128.00" routeLength="1312.81" waitingTime="3.00" waitingCount="1" stopTime="0.00" timeLoss="21.52" rerouteNo="1" devices="tripinfo_h3326c1:2 routing_h3326c1:2 emissions_h3326c1:2" vType="default_016" speedFactor="0.91" vaporized="">
        <emissions CO_abs="4120.096049" CO2_abs="300438.085935" HC_abs="25.733338" PMx_abs="4.718307" NOx_abs="118.647314" fuel_abs="129.145994" electricity_abs="0"/>
    </tripinfo>
    <tripinfo id="h330c1:1" depart="57736.00" departLane="-32978638#0_1" departPos="5.10" departSpeed="0.00" departDelay="0.20" arrival="57785.00" arrivalLane="-266565295#5_1" arrivalPos="172.76" arrivalSpeed="13.69" duration="49.00" routeLength="370.53" waitingTime="12.00" waitingCount="1" stopTime="0.00" timeLoss="21.95" rerouteNo="1" devices="tripinfo_h330c1:1 routing_h330c1:1 emissions_h330c1:1" vType="default_016" speedFactor="1.02" vaporized="">
        <emissions CO_abs="3481.995969" CO2_abs="149102.113347" HC_abs="19.375849" PMx_abs="2.899342" NOx_abs="62.709609" fuel_abs="64.093229" electricity_abs="0"/>
    </tripinfo>
    <tripinfo id="carIn12365:1" depart="57713.00" departLane="315358244_1" departPos="5.10" departSpeed="0.00" departDelay="0.50" arrival="57789.00" arrivalLane="447569997#1_1" arrivalPos="180.93" arrivalSpeed="7.13" duration="76.00" routeLength="718.04" waitingTime="0.00" waitingCount="0" stopTime="0.00" timeLoss="8.06" rerouteNo="1" devices="tripinfo_carIn12365:1 routing_carIn12365:1 emissions_carIn12365:1" vType="default_016" speedFactor="0.91" vaporized="">
        <emissions CO_abs="2214.819143" CO2_abs="135497.503974" HC_abs="13.208193" PMx_abs="2.094934" NOx_abs="53.580524" fuel_abs="58.245138" electricity_abs="0"/>
    </tripinfo>
    <tripinfo id="carIn77943:1" depart="57608.00" departLane="124812856#0_1" departPos="5.10" departSpeed="0.00" departDelay="2.50" arrival="57795.00" arrivalLane="-128361102#1_1" arrivalPos="274.68" arrivalSpeed="14.22" duration="187.00" routeLength="2250.49" waitingTime="8.00" waitingCount="1" stopTime="0.00" timeLoss="30.18" rerouteNo="1" devices="tripinfo_carIn77943:1 routing_carIn77943:1 emissions_carIn77943:1" vType="default_016" speedFactor="1.05" vaporized="">
        <emissions CO_abs="5886.510575" CO2_abs="467959.001669" HC_abs="37.632669" PMx_abs="7.774534" NOx_abs="185.558292" fuel_abs="201.155429" electricity_abs="0"/>
    </tripinfo>
    <tripinfo id="carIn118591:1" depart="57689.00" departLane="315358244_1" departPos="5.10" departSpeed="0.00" departDelay="0.20" arrival="57797.00" arrivalLane="386687235_1" arrivalPos="80.84" arrivalSpeed="14.12" duration="108.00" routeLength="1186.14" waitingTime="6.00" waitingCount="3" stopTime="0.00" timeLoss="23.28" rerouteNo="1" devices="tripinfo_carIn118591:1 routing_carIn118591:1 emissions_carIn118591:1" vType="default_016" speedFactor="1.02" vaporized="">
        <emissions CO_abs="4176.290012" CO2_abs="271040.946360" HC_abs="25.380437" PMx_abs="4.734272" NOx_abs="109.763861" fuel_abs="116.509070" electricity_abs="0"/>
    </tripinfo>
    <tripinfo id="carIn27009:1" depart="57673.00" departLane="-447569998#1_1" departPos="5.10" departSpeed="0.00" departDelay="0.50" arrival="57803.00" arrivalLane="-26677539_1" arrivalPos="152.75" arrivalSpeed="6.42" duration="130.00" routeLength="699.63" waitingTime="19.00" waitingCount="1" stopTime="0.00" timeLoss="35.52" rerouteNo="1" devices="tripinfo_carIn27009:1 routing_carIn27009:1 emissions_carIn27009:1" vType="default_015" speedFactor="0.89" vaporized="">
        <emissions CO_abs="6438.321680" CO2_abs="212914.449047" HC_abs="34.210286" PMx_abs="3.785253" NOx_abs="88.617007" fuel_abs="91.525338" electricity_abs="0"/>
    </tripinfo>
    <tripinfo id="carIn81046:1" depart="57611.00" departLane="124812856#0_1" departPos="5.10" departSpeed="0.00" departDelay="2.50" arrival="57804.00" arrivalLane="-128361102#1_1" arrivalPos="274.68" arrivalSpeed="11.94" duration="193.00" routeLength="2250.49" waitingTime="0.00" waitingCount="0" stopTime="0.00" timeLoss="17.70" rerouteNo="1" devices="tripinfo_carIn81046:1 routing_carIn81046:1 emissions_carIn81046:1" vType="default_016" speedFactor="0.94" vaporized="">
        <emissions CO_abs="5008.849455" CO2_abs="436990.791819" HC_abs="32.941074" PMx_abs="6.569635" NOx_abs="169.475416" fuel_abs="187.844126" electricity_abs="0"/>
    </tripinfo>
    <tripinfo id="h19804c1:3" depart="57617.00" departLane="124812856#0_1" departPos="5.10" departSpeed="0.00" departDelay="1.50" arrival="57805.00" arrivalLane="-128361102#1_1" arrivalPos="274.68" arrivalSpeed="13.23" duration="188.00" routeLength="2250.49" waitingTime="0.00" waitingCount="0" stopTime="0.00" timeLoss="25.33" rerouteNo="1" devices="tripinfo_h19804c1:3 routing_h19804c1:3 emissions_h19804c1:3" vType="default_016" speedFactor="1.01" vaporized="">
        <emissions CO_abs="5103.753615" CO2_abs="435564.090810" HC_abs="33.367140" PMx_abs="6.898179" NOx_abs="171.086124" fuel_abs="187.230410" electricity_abs="0"/>
    </tripinfo>
    <tripinfo id="carIn102915:1" depart="57643.00" departLane="128361102#0_1" departPos="5.10" departSpeed="0.00" departDelay="0.40" arrival="57805.00" arrivalLane="201956811#0_1" arrivalPos="40.40" arrivalSpeed="13.89" duration="162.00" routeLength="2067.33" waitingTime="0.00" waitingCount="0" stopTime="0.00" timeLoss="17.37" rerouteNo="1" devices="tripinfo_carIn102915:1 routing_carIn102915:1 emissions_carIn102915:1" vType="default_016" speedFactor="1.04" vaporized="">
        <emissions CO_abs="4795.728455" CO2_abs="427441.578570" HC_abs="31.785974" PMx_abs="6.924519" NOx_abs="168.091831" fuel_abs="183.738546" electricity_abs="0"/>
    </tripinfo>
    <tripinfo id="carIn12858:1" depart="57661.00" departLane="128361109#1_1" departPos="5.10" departSpeed="0.00" departDelay="0.90" arrival="57806.00" arrivalLane="399835085#1_1" arrivalPos="212.23" arrivalSpeed="9.64" duration="145.00" routeLength="1738.12" waitingTime="22.00" waitingCount="2" stopTime="0.00" timeLoss="53.46" rerouteNo="1" devices="tripinfo_carIn12858:1 routing_carIn12858:1 emissions_carIn12858:1" vType="default_016" speedFactor="1.25" vaporized="">
        <emissions CO_abs="11437.736534" CO2_abs="605200.504181" HC_abs="66.677552" PMx_abs="12.699057" NOx_abs="256.109294" fuel_abs="260.149010" electricity_abs="0"/>
    </tripinfo>
    <tripinfo id="h11737c1:1" depart="57665.00" departLane="272042143_1" departPos="5.10" departSpeed="0.00" departDelay="1.50" arrival="57806.00" arrivalLane="-315358254#1_1" arrivalPos="137.16" arrivalSpeed="13.96" duration="141.00" routeLength="1596.88" waitingTime="16.00" waitingCount="1" stopTime="0.00" timeLoss="32.31" rerouteNo="1" devices="tripinfo_h11737c1:1 routing_h11737c1:1 emissions_h11737c1:1" vType="default_016" speedFactor="1.07" vaporized="">
        <emissions CO_abs="5905.883058" CO2_abs="390385.534165" HC_abs="35.858281" PMx_abs="6.566466" NOx_abs="154.970810" fuel_abs="167.810689" electricity_abs="0"/>
    </tripinfo>
    <tripinfo id="randUni33724:1" depart="57646.00" departLane="128361102#0_1" departPos="5.10" departSpeed="0.00" departDelay="1.20" arrival="57807.00" arrivalLane="201956811#0_1" arrivalPos="40.40" arrivalSpeed="15.09" duration="161.00" routeLength="2067.33" waitingTime="0.00" waitingCount="0" stopTime="0.00" timeLoss="26.24" rerouteNo="1" devices="tripinfo_randUni33724:1 routing_randUni33724:1 emissions_randUni33724:1" vType="random_016" speedFactor="1.13" vaporized="">
        <emissions CO_abs="5451.809131" CO2_abs="447615.658303" HC_abs="35.213863" PMx_abs="7.766834" NOx_abs="179.753201" fuel_abs="192.410024" electricity_abs="0"/>
    </tripinfo>
    <tripinfo id="carIn126288:1" depart="57674.00" departLane="272042143_1" departPos="5.10" departSpeed="0.00" departDelay="0.00" arrival="57809.00" arrivalLane="-315358254#1_1" arrivalPos="137.16" arrivalSpeed="13.20" duration="135.00" routeLength="1596.88" waitingTime="5.00" waitingCount="1" stopTime="0.00" timeLoss="22.37" rerouteNo="1" devices="tripinfo_carIn126288:1 routing_carIn126288:1 emissions_carIn126288:1" vType="default_016" speedFactor="1.04" vaporized="">
        <emissions CO_abs="4393.120826" CO2_abs="339837.882868" HC_abs="27.965804" PMx_abs="5.785338" NOx_abs="136.078728" fuel_abs="146.081535" electricity_abs="0"/>
    </tripinfo>
    <tripinfo id="h5979c1:5" depart="57669.00" departLane="399835085#1_1" departPos="5.10" departSpeed="0.00" departDelay="0.00" arrival="57813.00" arrivalLane="-315358254#1_1" arrivalPos="137.16" arrivalSpeed="10.56" duration="144.00" routeLength="659.33" waitingTime="40.00" waitingCount="1" stopTime="0.00" timeLoss="57.75" rerouteNo="1" devices="tripinfo_h5979c1:5 routing_h5979c1:5 emissions_h5979c1:5" vType="default_016" speedFactor="0.85" vaporized="">
        <emissions CO_abs="10562.602462" CO2_abs="275200.479483" HC_abs="54.466160" PMx_abs="5.445958" NOx_abs="117.703551" fuel_abs="118.301292" electricity_abs="0"/>
    </tripinfo>
    <tripinfo id="carIn129809:1" depart="57729.00" departLane="-447569998#1_1" departPos="5.10" departSpeed="0.00" departDelay="1.00" arrival="57813.00" arrivalLane="-315358244_1" arrivalPos="33.95" arrivalSpeed="13.66" duration="84.00" routeLength="706.49" waitingTime="12.00" waitingCount="2" stopTime="0.00" timeLoss="28.07" rerouteNo="1" devices="tripinfo_carIn129809:1 routing_carIn129809:1 emissions_carIn129809:1" vType="default_015" speedFactor="1.07" vaporized="">
        <emissions CO_abs="4219.951165" CO2_abs="213456.416501" HC_abs="24.199541" PMx_abs="3.842435" NOx_abs="87.733414" fuel_abs="91.756472" electricity_abs="0"/>
    </tripinfo>
    <tripinfo id="carIn82220:1" depart="57619.00" departLane="-306240162#1_0" departPos="5.10" departSpeed="0.00" departDelay="3.50" arrival="57814.00" arrivalLane="386687235_1" arrivalPos="80.84" arrivalSpeed="12.34" duration="195.00" routeLength="2257.41" waitingTime="14.00" waitingCount="2" stopTime="0.00" timeLoss="42.68" rerouteNo="1" devices="tripinfo_carIn82220:1 routing_carIn82220:1 emissions_carIn82220:1" vType="default_016" speedFactor="0.97" vaporized="">
        <emissions CO_abs="7525.706637" CO2_abs="530252.421542" HC_abs="46.748624" PMx_abs="9.339721" NOx_abs="213.472675" fuel_abs="227.932658" electricity_abs="0"/>
    </tripinfo>
    <tripinfo id="carIn462:1" depart="57622.00" departLane="-306240162#1_0" departPos="5.10" departSpeed="0.00" departDelay="4.80" arrival="57814.00" arrivalLane="386687235_2" arrivalPos="80.84" arrivalSpeed="13.17" duration="192.00" routeLength="2257.41" waitingTime="15.00" waitingCount="2" stopTime="0.00" timeLoss="43.73" rerouteNo="1" devices="tripinfo_carIn462:1 routing_carIn462:1 emissions_carIn462:1" vType="default_016" speedFactor="1.01" vaporized="">
        <emissions CO_abs="8071.814004" CO2_abs="550123.418045" HC_abs="49.701710" PMx_abs="9.888267" NOx_abs="222.345923" fuel_abs="236.474300" electricity_abs="0"/>
    </tripinfo>
    <tripinfo id="carIn121703:1" depart="57647.00" departLane="386687232#0_1" departPos="5.10" departSpeed="0.00" departDelay="0.30" arrival="57814.00" arrivalLane="-315358244_2" arrivalPos="33.95" arrivalSpeed="15.31" duration="167.00" routeLength="1157.39" waitingTime="72.00" waitingCount="1" stopTime="0.00" timeLoss="93.11" rerouteNo="1" devices="tripinfo_carIn121703:1 routing_carIn121703:1 emissions_carIn121703:1" vType="default_016" speedFactor="1.14" vaporized="">
        <emissions CO_abs="15397.263297" CO2_abs="472417.490397" HC_abs="81.227240" PMx_abs="9.953627" NOx_abs="202.830814" fuel_abs="203.076635" electricity_abs="0"/>
    </tripinfo>
    <tripinfo id="carIn107842:1" depart="57623.00" departLane="124812856#0_1" departPos="5.10" departSpeed="0.00" departDelay="1.90" arrival="57816.00" arrivalLane="-128361102#1_1" arrivalPos="274.68" arrivalSpeed="13.72" duration="193.00" routeLength="2250.49" waitingTime="0.00" waitingCount="0" stopTime="0.00" timeLoss="27.06" rerouteNo="1" devices="tripinfo_carIn107842:1 routing_carIn107842:1 emissions_carIn107842:1" vType="default_016" speedFactor="1.00" vaporized="">
        <emissions CO_abs="5710.989712" CO2_abs="460821.409506" HC_abs="36.715874" PMx_abs="7.362608" NOx_abs="181.802218" fuel_abs="198.087581" electricity_abs="0"/>
    </tripinfo>
    <tripinfo id="carIn81860:1" depart="57712.00" departLane="128361102#0_1" departPos="5.10" departSpeed="0.00" departDelay="0.60" arrival="57820.00" arrivalLane="-24634517#17_1" arrivalPos="6.43" arrivalSpeed="7.49" duration="108.00" routeLength="1229.64" waitingTime="0.00" waitingCount="0" stopTime="0.00" timeLoss="13.12" rerouteNo="1" devices="tripinfo_carIn81860:1 routing_carIn81860:1 emissions_carIn81860:1" vType="default_016" speedFactor="0.95" vaporized="">
        <emissions CO_abs="3031.105606" CO2_abs="240843.273177" HC_abs="19.400952" PMx_abs="3.747675" NOx_abs="94.373575" fuel_abs="103.528506" electricity_abs="0"/>
    </tripinfo>
    <tripinfo id="carIn82278:1" depart="57702.00" departLane="-306240162#1_0" departPos="5.10" departSpeed="0.00" departDelay="0.70" arrival="57823.00" arrivalLane="399835085#1_1" arrivalPos="212.23" arrivalSpeed="6.28" duration="121.00" routeLength="1093.26" waitingTime="7.00" waitingCount="2" stopTime="0.00" timeLoss="31.36" rerouteNo="1" devices="tripinfo_carIn82278:1 routing_carIn82278:1 emissions_carIn82278:1" vType="default_016" speedFactor="0.88" vaporized="">
        <emissions CO_abs="5593.825397" CO2_abs="306603.832684" HC_abs="32.631484" PMx_abs="5.637369" NOx_abs="126.586941" fuel_abs="131.796295" electricity_abs="0"/>
    </tripinfo>
    <tripinfo id="carIn12152:1" depart="57647.00" departLane="24599188#0.94_1" departPos="5.10" departSpeed="0.00" departDelay="0.50" arrival="57827.00" arrivalLane="-315358254#1_1" arrivalPos="137.16" arrivalSpeed="13.26" duration="180.00" routeLength="2034.31" waitingTime="6.00" waitingCount="1" stopTime="0.00" timeLoss="24.24" rerouteNo="1" devices="tripinfo_carIn12152:1 routing_carIn12152:1 emissions_carIn12152:1" vType="default_016" speedFactor="1.02" vaporized="">
        <emissions CO_abs="5486.764957" CO2_abs="418278.086132" HC_abs="34.673520" PMx_abs="6.624122" NOx_abs="164.239497" fuel_abs="179.800398" electricity_abs="0"/>
    </tripinfo>
    <tripinfo id="randUni10474:1" depart="57605.00" departLane="124812856#0_1" departPos="5.10" departSpeed="0.00" departDelay="0.20" arrival="57828.00" arrivalLane="306240162#0_0" arrivalPos="220.43" arrivalSpeed="16.67" duration="223.00" routeLength="3049.32" waitingTime="5.00" waitingCount="1" stopTime="0.00" timeLoss="39.44" rerouteNo="1" devices="tripinfo_randUni10474:1 routing_randUni10474:1 emissions_randUni10474:1" vType="random_016" speedFactor="1.08" vaporized="">
        <emissions CO_abs="9520.836720" CO2_abs="736438.871256" HC_abs="60.791311" PMx_abs="13.807500" NOx_abs="300.649347" fuel_abs="316.561358" electricity_abs="0"/>
    </tripinfo>
    <tripinfo id="carIn50326:1" depart="57651.00" departLane="128361102#0_1" departPos="5.10" departSpeed="0.00" departDelay="0.30" arrival="57828.00" arrivalLane="18809673#0_1" arrivalPos="473.56" arrivalSpeed="11.25" duration="177.00" routeLength="1591.07" waitingTime="6.00" waitingCount="1" stopTime="0.00" timeLoss="27.97" rerouteNo="1" devices="tripinfo_carIn50326:1 routing_carIn50326:1 emissions_carIn50326:1" vType="default_016" speedFactor="0.87" vaporized="">
        <emissions CO_abs="5970.801736" CO2_abs="350199.921974" HC_abs="35.264449" PMx_abs="5.486070" NOx_abs="139.040437" fuel_abs="150.537498" electricity_abs="0"/>
    </tripinfo>
    <tripinfo id="h17600c1:1" depart="57662.00" departLane="272042143_1" departPos="5.10" departSpeed="0.00" departDelay="0.30" arrival="57832.00" arrivalLane="201238729#3_1" arrivalPos="431.02" arrivalSpeed="14.02" duration="170.00" routeLength="2100.26" waitingTime="3.00" waitingCount="1" stopTime="0.00" timeLoss="20.50" rerouteNo="1" devices="tripinfo_h17600c1:1 routing_h17600c1:1 emissions_h17600c1:1" vType="default_016" speedFactor="1.02" vaporized="">
        <emissions CO_abs="4026.079570" CO2_abs="385262.402738" HC_abs="27.269668" PMx_abs="5.846768" NOx_abs="148.557620" fuel_abs="165.607949" electricity_abs="0"/>
    </tripinfo>