<?xml version="1.0" encoding="UTF-8"?>

<!-- generated on 2021-10-26 13:51:27 by Eclipse SUMO sumo Version 1.10.0
<configuration xmlns:xsi="http://www.w3.org/2001/XMLSchema-instance" xsi:noNamespaceSchemaLocation="http://sumo.dlr.de/xsd/sumoConfiguration.xsd">

    <input>
        <net-file value="/Users/behradkoohy/sumo-scratchpad/RESCO/environments/ingolstadt21/ingolstadt21.net.xml"/>
        <route-files value="/Users/behradkoohy/sumo-scratchpad/RESCO/environments/ingolstadt21/ingolstadt21.rou.xml"/>
    </input>

    <output>
        <tripinfo-output value="/Users/behradkoohy/sumo-scratchpad/RESCO/logs/MAXPRESSURE-tr0-ingolstadt21-21-mplight-wait/tripinfo_96.xml"/>
        <tripinfo-output.write-unfinished value="true"/>
    </output>

    <time>
        <begin value="57600"/>
        <end value="61200"/>
    </time>

    <processing>
        <time-to-teleport value="-1"/>
    </processing>

    <report>
        <no-warnings value="true"/>
        <no-step-log value="true"/>
    </report>

    <emissions>
        <device.emissions.probability value="1"/>
    </emissions>

    <traci_server>
        <remote-port value="59775"/>
    </traci_server>

    <random_number>
        <random value="true"/>
    </random_number>

</configuration>
-->

<tripinfos xmlns:xsi="http://www.w3.org/2001/XMLSchema-instance" xsi:noNamespaceSchemaLocation="http://sumo.dlr.de/xsd/tripinfo_file.xsd">
    <tripinfo id="h15454c2:3" depart="57612.00" departLane="24608844_1" departPos="5.10" departSpeed="0.00" departDelay="0.50" arrival="57654.00" arrivalLane="32978638#0_1" arrivalPos="49.29" arrivalSpeed="13.06" duration="42.00" routeLength="354.79" waitingTime="0.00" waitingCount="0" stopTime="0.00" timeLoss="8.60" rerouteNo="1" devices="tripinfo_h15454c2:3 routing_h15454c2:3 emissions_h15454c2:3" vType="default_016" speedFactor="1.03" vaporized="">
        <emissions CO_abs="2331.738684" CO2_abs="125032.745830" HC_abs="13.519587" PMx_abs="2.160600" NOx_abs="51.209906" fuel_abs="53.746609" electricity_abs="0"/>
    </tripinfo>
    <tripinfo id="carIn60260:1" depart="57606.00" departLane="315358254#0_1" departPos="5.10" departSpeed="0.00" departDelay="0.90" arrival="57655.00" arrivalLane="399835085#1_1" arrivalPos="212.23" arrivalSpeed="9.03" duration="49.00" routeLength="430.98" waitingTime="0.00" waitingCount="0" stopTime="0.00" timeLoss="7.54" rerouteNo="1" devices="tripinfo_carIn60260:1 routing_carIn60260:1 emissions_carIn60260:1" vType="default_016" speedFactor="1.10" vaporized="">
        <emissions CO_abs="2127.220210" CO2_abs="117838.936468" HC_abs="12.411152" PMx_abs="1.919632" NOx_abs="47.484457" fuel_abs="50.654399" electricity_abs="0"/>
    </tripinfo>
    <tripinfo id="h12244c1:3" depart="57612.00" departLane="315358244_1" departPos="5.10" departSpeed="0.00" departDelay="0.40" arrival="57700.00" arrivalLane="386687235_1" arrivalPos="80.84" arrivalSpeed="15.36" duration="88.00" routeLength="1186.14" waitingTime="0.00" waitingCount="0" stopTime="0.00" timeLoss="9.40" rerouteNo="1" devices="tripinfo_h12244c1:3 routing_h12244c1:3 emissions_h12244c1:3" vType="default_016" speedFactor="1.11" vaporized="">
        <emissions CO_abs="2422.294185" CO2_abs="238874.400342" HC_abs="16.406949" PMx_abs="3.683748" NOx_abs="91.799290" fuel_abs="102.681846" electricity_abs="0"/>
    </tripinfo>
    <tripinfo id="carIn53971:1" depart="57640.00" departLane="272042143_1" departPos="5.10" departSpeed="0.00" departDelay="0.80" arrival="57702.00" arrivalLane="24634414#1_1" arrivalPos="162.19" arrivalSpeed="6.96" duration="62.00" routeLength="493.04" waitingTime="0.00" waitingCount="0" stopTime="0.00" timeLoss="9.33" rerouteNo="1" devices="tripinfo_carIn53971:1 routing_carIn53971:1 emissions_carIn53971:1" vType="default_016" speedFactor="0.87" vaporized="">
        <emissions CO_abs="2782.282172" CO2_abs="143965.537654" HC_abs="15.977462" PMx_abs="2.274504" NOx_abs="57.647734" fuel_abs="61.885469" electricity_abs="0"/>
    </tripinfo>
    <tripinfo id="S5R_frequency1.2" depart="57612.00" departLane="315358250#0_1" departPos="12.10" departSpeed="0.00" departDelay="0.40" arrival="57707.00" arrivalLane="386687235_1" arrivalPos="80.84" arrivalSpeed="13.41" duration="95.00" routeLength="1115.62" waitingTime="0.00" waitingCount="0" stopTime="0.00" timeLoss="13.50" rerouteNo="1" devices="tripinfo_S5R_frequency1.2 routing_S5R_frequency1.2 emissions_S5R_frequency1.2" vType="bus" speedFactor="1.00" vaporized="">
        <emissions CO_abs="1846.911133" CO2_abs="1151192.128685" HC_abs="396.931272" PMx_abs="198.315503" NOx_abs="8939.835055" fuel_abs="490.976211" electricity_abs="0"/>
    </tripinfo>
    <tripinfo id="carIn22761:1" depart="57616.00" departLane="-306240162#1_0" departPos="5.10" departSpeed="0.00" departDelay="2.10" arrival="57724.00" arrivalLane="399835085#1_1" arrivalPos="212.23" arrivalSpeed="8.04" duration="108.00" routeLength="1093.26" waitingTime="12.00" waitingCount="1" stopTime="0.00" timeLoss="30.01" rerouteNo="1" devices="tripinfo_carIn22761:1 routing_carIn22761:1 emissions_carIn22761:1" vType="default_016" speedFactor="1.00" vaporized="">
        <emissions CO_abs="5264.356675" CO2_abs="294849.344044" HC_abs="30.861489" PMx_abs="5.498463" NOx_abs="120.859517" fuel_abs="126.743447" electricity_abs="0"/>
    </tripinfo>
    <tripinfo id="h7800c1:5" depart="57696.00" departLane="-447569998#1_1" departPos="5.10" departSpeed="0.00" departDelay="0.00" arrival="57725.00" arrivalLane="-447569998#1_2" arrivalPos="180.76" arrivalSpeed="4.08" duration="29.00" routeLength="175.66" waitingTime="0.00" waitingCount="0" stopTime="0.00" timeLoss="5.78" rerouteNo="1" devices="tripinfo_h7800c1:5 routing_h7800c1:5 emissions_h7800c1:5" vType="default_016" speedFactor="0.92" vaporized="">
        <emissions CO_abs="1422.650373" CO2_abs="54611.233448" HC_abs="7.739380" PMx_abs="0.970677" NOx_abs="22.777191" fuel_abs="23.475480" electricity_abs="0"/>
    </tripinfo>
    <tripinfo id="h9563c2:5" depart="57631.00" departLane="315358244_1" departPos="5.10" departSpeed="0.00" departDelay="0.70" arrival="57729.00" arrivalLane="386687235_1" arrivalPos="80.84" arrivalSpeed="13.18" duration="98.00" routeLength="1186.14" waitingTime="0.00" waitingCount="0" stopTime="0.00" timeLoss="8.90" rerouteNo="1" devices="tripinfo_h9563c2:5 routing_h9563c2:5 emissions_h9563c2:5" vType="default_016" speedFactor="0.97" vaporized="">
        <emissions CO_abs="2357.259596" CO2_abs="221078.336768" HC_abs="15.841495" PMx_abs="3.234612" NOx_abs="84.793066" fuel_abs="95.032383" electricity_abs="0"/>
    </tripinfo>
    <tripinfo id="h3688c1:1" depart="57625.00" departLane="201201950#1_1" departPos="5.10" departSpeed="0.00" departDelay="0.00" arrival="57732.00" arrivalLane="32978638#0_1" arrivalPos="49.29" arrivalSpeed="12.88" duration="107.00" routeLength="1089.75" waitingTime="10.00" waitingCount="1" stopTime="0.00" timeLoss="26.02" rerouteNo="1" devices="tripinfo_h3688c1:1 routing_h3688c1:1 emissions_h3688c1:1" vType="default_016" speedFactor="0.99" vaporized="">
        <emissions CO_abs="4755.270330" CO2_abs="279724.008175" HC_abs="28.187289" PMx_abs="4.789000" NOx_abs="112.760070" fuel_abs="120.242070" electricity_abs="0"/>
    </tripinfo>
    <tripinfo id="h7181c1:1" depart="57660.00" departLane="315358254#0_1" departPos="5.10" departSpeed="0.00" departDelay="0.10" arrival="57732.00" arrivalLane="306240162#0_0" arrivalPos="220.43" arrivalSpeed="15.70" duration="72.00" routeLength="932.35" waitingTime="6.00" waitingCount="1" stopTime="0.00" timeLoss="17.17" rerouteNo="1" devices="tripinfo_h7181c1:1 routing_h7181c1:1 emissions_h7181c1:1" vType="default_016" speedFactor="0.94" vaporized="">
        <emissions CO_abs="3185.802941" CO2_abs="253347.069246" HC_abs="20.303943" PMx_abs="4.494454" NOx_abs="100.426411" fuel_abs="108.902729" electricity_abs="0"/>
    </tripinfo>
    <tripinfo id="h3568c1:3" depart="57656.00" departLane="266565295#5_1" departPos="5.10" departSpeed="0.00" departDelay="0.80" arrival="57739.00" arrivalLane="-24634415_1" arrivalPos="62.03" arrivalSpeed="12.33" duration="83.00" routeLength="807.40" waitingTime="0.00" waitingCount="0" stopTime="0.00" timeLoss="12.07" rerouteNo="1" devices="tripinfo_h3568c1:3 routing_h3568c1:3 emissions_h3568c1:3" vType="default_016" speedFactor="0.91" vaporized="">
        <emissions CO_abs="3280.864355" CO2_abs="197797.494696" HC_abs="19.557788" PMx_abs="3.380598" NOx_abs="80.386585" fuel_abs="85.025035" electricity_abs="0"/>
    </tripinfo>
    <tripinfo id="carIn80064:1" depart="57603.00" departLane="128361109#1_1" departPos="5.10" departSpeed="0.00" departDelay="0.40" arrival="57748.00" arrivalLane="-315358254#1_1" arrivalPos="137.16" arrivalSpeed="15.04" duration="145.00" routeLength="1587.97" waitingTime="33.00" waitingCount="1" stopTime="0.00" timeLoss="66.62" rerouteNo="1" devices="tripinfo_carIn80064:1 routing_carIn80064:1 emissions_carIn80064:1" vType="default_016" speedFactor="1.14" vaporized="">
        <emissions CO_abs="12614.696169" CO2_abs="608161.982183" HC_abs="71.981118" PMx_abs="12.681819" NOx_abs="256.551436" fuel_abs="261.423114" electricity_abs="0"/>
    </tripinfo>
    <tripinfo id="h317c2:1" depart="57707.00" departLane="-32978638#0_1" departPos="5.10" departSpeed="0.00" departDelay="0.10" arrival="57755.00" arrivalLane="-266565295#5_1" arrivalPos="172.76" arrivalSpeed="12.88" duration="48.00" routeLength="370.53" waitingTime="11.00" waitingCount="1" stopTime="0.00" timeLoss="19.87" rerouteNo="1" devices="tripinfo_h317c2:1 routing_h317c2:1 emissions_h317c2:1" vType="default_016" speedFactor="0.97" vaporized="">
        <emissions CO_abs="2811.417133" CO2_abs="132016.593526" HC_abs="15.897589" PMx_abs="2.425118" NOx_abs="54.599381" fuel_abs="56.748810" electricity_abs="0"/>
    </tripinfo>
    <tripinfo id="h3326c1:2" depart="57656.00" departLane="22716069#0_1" departPos="5.10" departSpeed="0.00" departDelay="0.00" arrival="57760.00" arrivalLane="24634517#13_1" arrivalPos="111.62" arrivalSpeed="14.64" duration="104.00" routeLength="1312.81" waitingTime="0.00" waitingCount="0" stopTime="0.00" timeLoss="15.82" rerouteNo="1" devices="tripinfo_h3326c1:2 routing_h3326c1:2 emissions_h3326c1:2" vType="default_016" speedFactor="1.11" vaporized="">
        <emissions CO_abs="4113.158561" CO2_abs="315440.534883" HC_abs="25.989509" PMx_abs="5.526550" NOx_abs="127.156208" fuel_abs="135.593953" electricity_abs="0"/>
    </tripinfo>
    <tripinfo id="carIn30817:1" depart="57681.00" departLane="315358244_1" departPos="5.10" departSpeed="0.00" departDelay="0.20" arrival="57764.00" arrivalLane="447569997#1_1" arrivalPos="180.93" arrivalSpeed="6.80" duration="83.00" routeLength="718.04" waitingTime="6.00" waitingCount="1" stopTime="0.00" timeLoss="16.93" rerouteNo="1" devices="tripinfo_carIn30817:1 routing_carIn30817:1 emissions_carIn30817:1" vType="default_016" speedFactor="0.93" vaporized="">
        <emissions CO_abs="3119.816603" CO2_abs="164420.292485" HC_abs="17.987554" PMx_abs="2.556714" NOx_abs="64.964105" fuel_abs="70.678290" electricity_abs="0"/>
    </tripinfo>
    <tripinfo id="carIn12365:1" depart="57713.00" departLane="315358244_1" departPos="5.10" departSpeed="0.00" departDelay="0.50" arrival="57775.00" arrivalLane="447569997#1_1" arrivalPos="180.93" arrivalSpeed="9.25" duration="62.00" routeLength="718.04" waitingTime="0.00" waitingCount="0" stopTime="0.00" timeLoss="7.13" rerouteNo="1" devices="tripinfo_carIn12365:1 routing_carIn12365:1 emissions_carIn12365:1" vType="default_016" speedFactor="1.12" vaporized="">
        <emissions CO_abs="2200.871218" CO2_abs="158613.523473" HC_abs="13.722271" PMx_abs="2.660253" NOx_abs="63.316063" fuel_abs="68.181243" electricity_abs="0"/>
    </tripinfo>
    <tripinfo id="h3154c1:1" depart="57658.00" departLane="24634507_1" departPos="5.10" departSpeed="0.00" departDelay="0.00" arrival="57780.00" arrivalLane="-266565295#5_1" arrivalPos="172.76" arrivalSpeed="13.00" duration="122.00" routeLength="1206.22" waitingTime="8.00" waitingCount="2" stopTime="0.00" timeLoss="32.86" rerouteNo="1" devices="tripinfo_h3154c1:1 routing_h3154c1:1 emissions_h3154c1:1" vType="default_016" speedFactor="1.00" vaporized="">
        <emissions CO_abs="4681.359385" CO2_abs="306385.290107" HC_abs="28.515405" PMx_abs="5.369937" NOx_abs="124.641323" fuel_abs="131.702006" electricity_abs="0"/>
    </tripinfo>
    <tripinfo id="h645c1:1" depart="57622.00" departLane="266565295#5_1" departPos="5.10" departSpeed="0.00" departDelay="0.40" arrival="57785.00" arrivalLane="-315358244_1" arrivalPos="33.95" arrivalSpeed="14.12" duration="163.00" routeLength="1910.83" waitingTime="10.00" waitingCount="1" stopTime="0.00" timeLoss="27.46" rerouteNo="1" devices="tripinfo_h645c1:1 routing_h645c1:1 emissions_h645c1:1" vType="default_016" speedFactor="1.02" vaporized="">
        <emissions CO_abs="4702.561352" CO2_abs="372536.085015" HC_abs="29.987962" PMx_abs="5.778507" NOx_abs="144.584640" fuel_abs="160.137922" electricity_abs="0"/>
    </tripinfo>
    <tripinfo id="carIn118591:1" depart="57689.00" departLane="315358244_1" departPos="5.10" departSpeed="0.00" departDelay="0.20" arrival="57786.00" arrivalLane="386687235_1" arrivalPos="80.84" arrivalSpeed="14.37" duration="97.00" routeLength="1186.14" waitingTime="0.00" waitingCount="0" stopTime="0.00" timeLoss="14.55" rerouteNo="1" devices="tripinfo_carIn118591:1 routing_carIn118591:1 emissions_carIn118591:1" vType="default_016" speedFactor="1.04" vaporized="">
        <emissions CO_abs="3543.133922" CO2_abs="268365.322389" HC_abs="22.395563" PMx_abs="4.613190" NOx_abs="107.771404" fuel_abs="115.358575" electricity_abs="0"/>
    </tripinfo>
    <tripinfo id="h330c1:1" depart="57736.00" departLane="-32978638#0_1" departPos="5.10" departSpeed="0.00" departDelay="0.20" arrival="57786.00" arrivalLane="-266565295#5_1" arrivalPos="172.76" arrivalSpeed="13.01" duration="50.00" routeLength="370.53" waitingTime="11.00" waitingCount="1" stopTime="0.00" timeLoss="21.35" rerouteNo="1" devices="tripinfo_h330c1:1 routing_h330c1:1 emissions_h330c1:1" vType="default_016" speedFactor="0.95" vaporized="">
        <emissions CO_abs="3164.526167" CO2_abs="131976.757369" HC_abs="17.493169" PMx_abs="2.454203" NOx_abs="54.842850" fuel_abs="56.731936" electricity_abs="0"/>
    </tripinfo>
    <tripinfo id="carIn27009:1" depart="57673.00" departLane="-447569998#1_1" departPos="5.10" departSpeed="0.00" departDelay="0.50" arrival="57791.00" arrivalLane="-26677539_1" arrivalPos="152.75" arrivalSpeed="8.50" duration="118.00" routeLength="699.63" waitingTime="22.00" waitingCount="1" stopTime="0.00" timeLoss="36.49" rerouteNo="1" devices="tripinfo_carIn27009:1 routing_carIn27009:1 emissions_carIn27009:1" vType="default_015" speedFactor="1.03" vaporized="">
        <emissions CO_abs="6639.617618" CO2_abs="226606.811945" HC_abs="35.458977" PMx_abs="4.059684" NOx_abs="94.191301" fuel_abs="97.411066" electricity_abs="0"/>
    </tripinfo>
    <tripinfo id="carIn86816:1" depart="57617.00" departLane="128361102#0_1" departPos="5.10" departSpeed="0.00" departDelay="0.80" arrival="57800.00" arrivalLane="201956811#0_1" arrivalPos="40.40" arrivalSpeed="12.09" duration="183.00" routeLength="2067.33" waitingTime="0.00" waitingCount="0" stopTime="0.00" timeLoss="17.58" rerouteNo="1" devices="tripinfo_carIn86816:1 routing_carIn86816:1 emissions_carIn86816:1" vType="default_016" speedFactor="0.92" vaporized="">
        <emissions CO_abs="4774.844937" CO2_abs="403021.120109" HC_abs="31.073268" PMx_abs="6.042701" NOx_abs="156.637414" fuel_abs="173.242092" electricity_abs="0"/>
    </tripinfo>
    <tripinfo id="carIn50326:1" depart="57651.00" departLane="128361102#0_1" departPos="5.10" departSpeed="0.00" departDelay="0.30" arrival="57801.00" arrivalLane="18809673#0_1" arrivalPos="473.56" arrivalSpeed="14.18" duration="150.00" routeLength="1591.07" waitingTime="5.00" waitingCount="1" stopTime="0.00" timeLoss="25.81" rerouteNo="1" devices="tripinfo_carIn50326:1 routing_carIn50326:1 emissions_carIn50326:1" vType="default_016" speedFactor="1.05" vaporized="">
        <emissions CO_abs="5260.075211" CO2_abs="375165.014681" HC_abs="32.622065" PMx_abs="6.057906" NOx_abs="148.464036" fuel_abs="161.267942" electricity_abs="0"/>
    </tripinfo>
    <tripinfo id="h17600c1:1" depart="57662.00" departLane="272042143_1" departPos="5.10" departSpeed="0.00" departDelay="0.30" arrival="57801.00" arrivalLane="201238729#3_1" arrivalPos="431.02" arrivalSpeed="16.20" duration="139.00" routeLength="2100.26" waitingTime="0.00" waitingCount="0" stopTime="0.00" timeLoss="10.70" rerouteNo="1" devices="tripinfo_h17600c1:1 routing_h17600c1:1 emissions_h17600c1:1" vType="default_016" speedFactor="1.18" vaporized="">
        <emissions CO_abs="3462.962402" CO2_abs="369837.105435" HC_abs="24.080884" PMx_abs="5.975517" NOx_abs="142.612160" fuel_abs="158.976542" electricity_abs="0"/>
    </tripinfo>
    <tripinfo id="carIn107084:1" depart="57601.00" departLane="124812856#0_1" departPos="5.10" departSpeed="0.00" departDelay="0.70" arrival="57802.00" arrivalLane="-128361102#1_1" arrivalPos="274.68" arrivalSpeed="12.21" duration="201.00" routeLength="2250.49" waitingTime="0.00" waitingCount="0" stopTime="0.00" timeLoss="19.37" rerouteNo="1" devices="tripinfo_carIn107084:1 routing_carIn107084:1 emissions_carIn107084:1" vType="default_016" speedFactor="0.91" vaporized="">
        <emissions CO_abs="4972.606614" CO2_abs="412410.403238" HC_abs="32.172504" PMx_abs="6.107623" NOx_abs="159.887543" fuel_abs="177.278336" electricity_abs="0"/>
    </tripinfo>
    <tripinfo id="carIn77943:1" depart="57608.00" departLane="124812856#0_1" departPos="5.10" departSpeed="0.00" departDelay="2.50" arrival="57803.00" arrivalLane="-128361102#1_1" arrivalPos="274.68" arrivalSpeed="13.35" duration="195.00" routeLength="2250.49" waitingTime="0.00" waitingCount="0" stopTime="0.00" timeLoss="50.56" rerouteNo="1" devices="tripinfo_carIn77943:1 routing_carIn77943:1 emissions_carIn77943:1" vType="default_016" speedFactor="1.14" vaporized="">
        <emissions CO_abs="6953.590129" CO2_abs="524243.895109" HC_abs="43.929859" PMx_abs="8.855590" NOx_abs="210.645431" fuel_abs="225.349803" electricity_abs="0"/>
    </tripinfo>
    <tripinfo id="carIn48184:1" depart="57613.00" departLane="-306240162#1_0" departPos="5.10" departSpeed="0.00" departDelay="0.70" arrival="57803.00" arrivalLane="386687235_1" arrivalPos="80.84" arrivalSpeed="13.75" duration="190.00" routeLength="2257.41" waitingTime="23.00" waitingCount="2" stopTime="0.00" timeLoss="51.71" rerouteNo="1" devices="tripinfo_carIn48184:1 routing_carIn48184:1 emissions_carIn48184:1" vType="default_016" speedFactor="1.07" vaporized="">
        <emissions CO_abs="8985.519266" CO2_abs="567233.958666" HC_abs="54.263403" PMx_abs="10.441018" NOx_abs="229.847543" fuel_abs="243.829671" electricity_abs="0"/>
    </tripinfo>
    <tripinfo id="carIn82220:1" depart="57619.00" departLane="-306240162#1_0" departPos="5.10" departSpeed="0.00" departDelay="3.50" arrival="57804.00" arrivalLane="386687235_2" arrivalPos="80.84" arrivalSpeed="13.78" duration="185.00" routeLength="2257.41" waitingTime="9.00" waitingCount="2" stopTime="0.00" timeLoss="39.24" rerouteNo="1" devices="tripinfo_carIn82220:1 routing_carIn82220:1 emissions_carIn82220:1" vType="default_016" speedFactor="1.01" vaporized="">
        <emissions CO_abs="7694.455391" CO2_abs="539497.888970" HC_abs="47.636696" PMx_abs="9.393255" NOx_abs="215.537615" fuel_abs="231.907167" electricity_abs="0"/>
    </tripinfo>
    <tripinfo id="carIn81046:1" depart="57611.00" departLane="124812856#0_1" departPos="5.10" departSpeed="0.00" departDelay="2.50" arrival="57805.00" arrivalLane="-128361102#1_1" arrivalPos="274.68" arrivalSpeed="12.90" duration="194.00" routeLength="2250.49" waitingTime="0.00" waitingCount="0" stopTime="0.00" timeLoss="29.34" rerouteNo="1" devices="tripinfo_carIn81046:1 routing_carIn81046:1 emissions_carIn81046:1" vType="default_016" speedFactor="1.00" vaporized="">
        <emissions CO_abs="6694.337242" CO2_abs="509912.052372" HC_abs="42.468865" PMx_abs="8.777806" NOx_abs="205.981179" fuel_abs="219.188854" electricity_abs="0"/>
    </tripinfo>
    <tripinfo id="carIn77438:1" depart="57614.00" departLane="124812856#0_1" departPos="5.10" departSpeed="0.00" departDelay="1.10" arrival="57807.00" arrivalLane="-128361102#1_1" arrivalPos="274.68" arrivalSpeed="13.20" duration="193.00" routeLength="2250.49" waitingTime="0.00" waitingCount="0" stopTime="0.00" timeLoss="21.97" rerouteNo="1" devices="tripinfo_carIn77438:1 routing_carIn77438:1 emissions_carIn77438:1" vType="default_016" speedFactor="0.96" vaporized="">
        <emissions CO_abs="5927.720941" CO2_abs="475900.896940" HC_abs="38.109510" PMx_abs="7.762540" NOx_abs="189.059879" fuel_abs="204.569373" electricity_abs="0"/>
    </tripinfo>
    <tripinfo id="carIn129809:1" depart="57729.00" departLane="-447569998#1_1" departPos="5.10" departSpeed="0.00" departDelay="1.00" arrival="57807.00" arrivalLane="-315358244_1" arrivalPos="33.95" arrivalSpeed="13.98" duration="78.00" routeLength="706.49" waitingTime="8.00" waitingCount="1" stopTime="0.00" timeLoss="18.30" rerouteNo="1" devices="tripinfo_carIn129809:1 routing_carIn129809:1 emissions_carIn129809:1" vType="default_015" speedFactor="1.02" vaporized="">
        <emissions CO_abs="2889.328740" CO2_abs="171315.837831" HC_abs="17.134752" PMx_abs="2.783730" NOx_abs="68.199921" fuel_abs="73.641968" electricity_abs="0"/>
    </tripinfo>
    <tripinfo id="h19804c1:3" depart="57617.00" departLane="124812856#0_1" departPos="5.10" departSpeed="0.00" departDelay="1.50" arrival="57809.00" arrivalLane="-128361102#1_1" arrivalPos="274.68" arrivalSpeed="14.29" duration="192.00" routeLength="2250.49" waitingTime="0.00" waitingCount="0" stopTime="0.00" timeLoss="42.06" rerouteNo="1" devices="tripinfo_h19804c1:3 routing_h19804c1:3 emissions_h19804c1:3" vType="default_016" speedFactor="1.10" vaporized="">
        <emissions CO_abs="7139.426729" CO2_abs="550396.336891" HC_abs="45.448851" PMx_abs="9.415886" NOx_abs="221.751620" fuel_abs="236.591313" electricity_abs="0"/>
    </tripinfo>
    <tripinfo id="carIn82278:1" depart="57702.00" departLane="-306240162#1_0" departPos="5.10" departSpeed="0.00" departDelay="0.70" arrival="57811.00" arrivalLane="399835085#1_1" arrivalPos="212.23" arrivalSpeed="8.53" duration="109.00" routeLength="1093.26" waitingTime="5.00" waitingCount="2" stopTime="0.00" timeLoss="36.85" rerouteNo="1" devices="tripinfo_carIn82278:1 routing_carIn82278:1 emissions_carIn82278:1" vType="default_016" speedFactor="1.08" vaporized="">
        <emissions CO_abs="6518.259093" CO2_abs="378339.945864" HC_abs="38.566931" PMx_abs="7.300145" NOx_abs="157.359010" fuel_abs="162.631929" electricity_abs="0"/>
    </tripinfo>
    <tripinfo id="carIn12858:1" depart="57661.00" departLane="128361109#1_1" departPos="5.10" departSpeed="0.00" departDelay="0.90" arrival="57813.00" arrivalLane="399835085#1_1" arrivalPos="212.23" arrivalSpeed="8.53" duration="152.00" routeLength="1738.12" waitingTime="10.00" waitingCount="2" stopTime="0.00" timeLoss="46.84" rerouteNo="1" devices="tripinfo_carIn12858:1 routing_carIn12858:1 emissions_carIn12858:1" vType="default_016" speedFactor="1.09" vaporized="">
        <emissions CO_abs="8674.925884" CO2_abs="524250.369820" HC_abs="52.021187" PMx_abs="10.324258" NOx_abs="218.163658" fuel_abs="225.352020" electricity_abs="0"/>
    </tripinfo>
    <tripinfo id="carIn102915:1" depart="57643.00" departLane="128361102#0_1" departPos="5.10" departSpeed="0.00" departDelay="0.40" arrival="57816.00" arrivalLane="201956811#0_1" arrivalPos="40.40" arrivalSpeed="12.06" duration="173.00" routeLength="2067.33" waitingTime="0.00" waitingCount="0" stopTime="0.00" timeLoss="14.99" rerouteNo="1" devices="tripinfo_carIn102915:1 routing_carIn102915:1 emissions_carIn102915:1" vType="default_016" speedFactor="0.96" vaporized="">
        <emissions CO_abs="4469.544425" CO2_abs="403441.788832" HC_abs="29.728296" PMx_abs="6.131929" NOx_abs="156.675886" fuel_abs="173.422596" electricity_abs="0"/>
    </tripinfo>
    <tripinfo id="randUni33724:1" depart="57646.00" departLane="128361102#0_1" departPos="5.10" departSpeed="0.00" departDelay="1.20" arrival="57818.00" arrivalLane="201956811#0_1" arrivalPos="40.40" arrivalSpeed="14.39" duration="172.00" routeLength="2067.33" waitingTime="0.00" waitingCount="0" stopTime="0.00" timeLoss="36.70" rerouteNo="1" devices="tripinfo_randUni33724:1 routing_randUni33724:1 emissions_randUni33724:1" vType="random_016" speedFactor="1.12" vaporized="">
        <emissions CO_abs="5968.177982" CO2_abs="472507.643345" HC_abs="38.231728" PMx_abs="7.933731" NOx_abs="188.887455" fuel_abs="203.110508" electricity_abs="0"/>
    </tripinfo>
    <tripinfo id="carIn107842:1" depart="57622.00" departLane="124812856#0_1" departPos="5.10" departSpeed="0.00" departDelay="0.90" arrival="57826.00" arrivalLane="-128361102#1_1" arrivalPos="274.68" arrivalSpeed="11.10" duration="204.00" routeLength="2250.49" waitingTime="0.00" waitingCount="0" stopTime="0.00" timeLoss="18.97" rerouteNo="1" devices="tripinfo_carIn107842:1 routing_carIn107842:1 emissions_carIn107842:1" vType="default_016" speedFactor="0.89" vaporized="">
        <emissions CO_abs="5347.021673" CO2_abs="441335.789608" HC_abs="34.525835" PMx_abs="6.442230" NOx_abs="170.567500" fuel_abs="189.712333" electricity_abs="0"/>
    </tripinfo>
    <tripinfo id="h15382c1:3" depart="57625.00" departLane="124812856#0_1" departPos="5.10" departSpeed="0.00" departDelay="2.80" arrival="57827.00" arrivalLane="-128361102#1_1" arrivalPos="274.68" arrivalSpeed="12.46" duration="202.00" routeLength="2250.49" waitingTime="0.00" waitingCount="0" stopTime="0.00" timeLoss="35.52" rerouteNo="1" devices="tripinfo_h15382c1:3 routing_h15382c1:3 emissions_h15382c1:3" vType="default_016" speedFactor="0.98" vaporized="">
        <emissions CO_abs="6736.002795" CO2_abs="507689.860601" HC_abs="42.543922" PMx_abs="8.402116" NOx_abs="203.297099" fuel_abs="218.234168" electricity_abs="0"/>
    </tripinfo>
    <tripinfo id="carIn3969:1" depart="57628.00" departLane="124812856#0_1" departPos="5.10" departSpeed="0.00" departDelay="4.30" arrival="57829.00" arrivalLane="-128361102#1_1" arrivalPos="274.68" arrivalSpeed="12.22" duration="201.00" routeLength="2250.49" waitingTime="0.00" waitingCount="0" stopTime="0.00" timeLoss="27.72" rerouteNo="1" devices="tripinfo_carIn3969:1 routing_carIn3969:1 emissions_carIn3969:1" vType="default_016" speedFactor="0.95" vaporized="">
        <emissions CO_abs="7154.765049" CO2_abs="529437.282400" HC_abs="44.993818" PMx_abs="8.967482" NOx_abs="213.385939" fuel_abs="227.582247" electricity_abs="0"/>
    </tripinfo>
    <tripinfo id="h11737c1:1" depart="57665.00" departLane="272042143_1" departPos="5.10" departSpeed="0.00" departDelay="1.50" arrival="57829.00" arrivalLane="-315358254#1_1" arrivalPos="137.16" arrivalSpeed="10.76" duration="164.00" routeLength="1596.88" waitingTime="8.00" waitingCount="1" stopTime="0.00" timeLoss="26.09" rerouteNo="1" devices="tripinfo_h11737c1:1 routing_h11737c1:1 emissions_h11737c1:1" vType="default_016" speedFactor="0.84" vaporized="">
        <emissions CO_abs="4893.735477" CO2_abs="320394.291273" HC_abs="29.675611" PMx_abs="4.907162" NOx_abs="126.008463" fuel_abs="137.724936" electricity_abs="0"/>
    </tripinfo>
    <tripinfo id="carIn56649:1" depart="57631.00" departLane="124812856#0_1" departPos="5.10" departSpeed="0.00" departDelay="7.10" arrival="57831.00" arrivalLane="-128361102#1_1" arrivalPos="274.68" arrivalSpeed="13.98" duration="200.00" routeLength="2250.49" waitingTime="0.00" waitingCount="0" stopTime="0.00" timeLoss="39.03" rerouteNo="1" devices="tripinfo_carIn56649:1 routing_carIn56649:1 emissions_carIn56649:1" vType="default_016" speedFactor="1.02" vaporized="">
        <emissions CO_abs="7884.286436" CO2_abs="568349.629575" HC_abs="49.255652" PMx_abs="9.897265" NOx_abs="230.958609" fuel_abs="244.308729" electricity_abs="0"/>
    </tripinfo>
    <tripinfo id="carIn126288:1" depart="57674.00" departLane="272042143_1" departPos="5.10" departSpeed="0.00" departDelay="0.00" arrival="57831.00" arrivalLane="-315358254#1_1" arrivalPos="137.16" arrivalSpeed="11.61" duration="157.00" routeLength="1596.88" waitingTime="7.00" waitingCount="1" stopTime="0.00" timeLoss="27.71" rerouteNo="1" devices="tripinfo_carIn126288:1 routing_carIn126288:1 emissions_carIn126288:1" vType="default_016" speedFactor="0.90" vaporized="">
        <emissions CO_abs="4567.299526" CO2_abs="341926.580628" HC_abs="28.712964" PMx_abs="5.231163" NOx_abs="133.905765" fuel_abs="146.980326" electricity_abs="0"/>
    </tripinfo>
    <tripinfo id="carIn121703:1" depart="57647.00" departLane="386687232#0_1" departPos="5.10" departSpeed="0.00" departDelay="0.30" arrival="57833.00" arrivalLane="-315358244_1" arrivalPos="33.95" arrivalSpeed="14.26" duration="186.00" routeLength="1157.39" waitingTime="88.00" waitingCount="2" stopTime="0.00" timeLoss="108.28" rerouteNo="1" devices="tripinfo_carIn121703:1 routing_carIn121703:1 emissions_carIn121703:1" vType="default_016" speedFactor="1.09" vaporized="">
        <emissions CO_abs="16456.500329" CO2_abs="474018.950777" HC_abs="85.939171" PMx_abs="9.692442" NOx_abs="201.294944" fuel_abs="203.766383" electricity_abs="0"/>
    </tripinfo>
    <tripinfo id="carIn116184:1" depart="57627.00" departLane="-306240162#1_0" departPos="5.10" departSpeed="0.00" departDelay="0.10" arrival="57834.00" arrivalLane="386687235_2" arrivalPos="80.84" arrivalSpeed="13.93" duration="207.00" routeLength="2257.41" waitingTime="20.00" waitingCount="3" stopTime="0.00" timeLoss="68.30" rerouteNo="1" devices="tripinfo_carIn116184:1 routing_carIn116184:1 emissions_carIn116184:1" vType="default_016" speedFactor="1.07" vaporized="">
        <emissions CO_abs="9495.238689" CO2_abs="584580.780663" HC_abs="56.902166" PMx_abs="10.784427" NOx_abs="239.291759" fuel_abs="251.286248" electricity_abs="0"/>
    </tripinfo>