<?xml version="1.0" encoding="UTF-8"?>

<!-- generated on 2021-10-26 13:22:03 by Eclipse SUMO sumo Version 1.10.0
<configuration xmlns:xsi="http://www.w3.org/2001/XMLSchema-instance" xsi:noNamespaceSchemaLocation="http://sumo.dlr.de/xsd/sumoConfiguration.xsd">

    <input>
        <net-file value="/Users/behradkoohy/sumo-scratchpad/RESCO/environments/ingolstadt21/ingolstadt21.net.xml"/>
        <route-files value="/Users/behradkoohy/sumo-scratchpad/RESCO/environments/ingolstadt21/ingolstadt21.rou.xml"/>
    </input>

    <output>
        <tripinfo-output value="/Users/behradkoohy/sumo-scratchpad/RESCO/logs/MAXPRESSURE-tr0-ingolstadt21-21-mplight-wait/tripinfo_54.xml"/>
        <tripinfo-output.write-unfinished value="true"/>
    </output>

    <time>
        <begin value="57600"/>
        <end value="61200"/>
    </time>

    <processing>
        <time-to-teleport value="-1"/>
    </processing>

    <report>
        <no-warnings value="true"/>
        <no-step-log value="true"/>
    </report>

    <emissions>
        <device.emissions.probability value="1"/>
    </emissions>

    <traci_server>
        <remote-port value="58884"/>
    </traci_server>

    <random_number>
        <random value="true"/>
    </random_number>

</configuration>
-->

<tripinfos xmlns:xsi="http://www.w3.org/2001/XMLSchema-instance" xsi:noNamespaceSchemaLocation="http://sumo.dlr.de/xsd/tripinfo_file.xsd">
    <tripinfo id="h15454c2:3" depart="57612.00" departLane="24608844_1" departPos="5.10" departSpeed="0.00" departDelay="0.50" arrival="57646.00" arrivalLane="32978638#0_1" arrivalPos="49.29" arrivalSpeed="18.13" duration="34.00" routeLength="354.79" waitingTime="0.00" waitingCount="0" stopTime="0.00" timeLoss="7.78" rerouteNo="1" devices="tripinfo_h15454c2:3 routing_h15454c2:3 emissions_h15454c2:3" vType="default_016" speedFactor="1.32" vaporized="">
        <emissions CO_abs="2213.935248" CO2_abs="139350.109138" HC_abs="13.387593" PMx_abs="2.618323" NOx_abs="57.890102" fuel_abs="59.900483" electricity_abs="0"/>
    </tripinfo>
    <tripinfo id="carIn60260:1" depart="57606.00" departLane="315358254#0_1" departPos="5.10" departSpeed="0.00" departDelay="0.90" arrival="57659.00" arrivalLane="399835085#1_1" arrivalPos="212.23" arrivalSpeed="7.73" duration="53.00" routeLength="430.98" waitingTime="0.00" waitingCount="0" stopTime="0.00" timeLoss="6.69" rerouteNo="1" devices="tripinfo_carIn60260:1 routing_carIn60260:1 emissions_carIn60260:1" vType="default_016" speedFactor="0.99" vaporized="">
        <emissions CO_abs="2213.954416" CO2_abs="113118.374723" HC_abs="12.689297" PMx_abs="1.843683" NOx_abs="45.758267" fuel_abs="48.625340" electricity_abs="0"/>
    </tripinfo>
    <tripinfo id="carIn53971:1" depart="57640.00" departLane="272042143_1" departPos="5.10" departSpeed="0.00" departDelay="0.80" arrival="57691.00" arrivalLane="24634414#1_1" arrivalPos="162.19" arrivalSpeed="7.74" duration="51.00" routeLength="493.04" waitingTime="0.00" waitingCount="0" stopTime="0.00" timeLoss="8.57" rerouteNo="1" devices="tripinfo_carIn53971:1 routing_carIn53971:1 emissions_carIn53971:1" vType="default_016" speedFactor="1.08" vaporized="">
        <emissions CO_abs="2332.121103" CO2_abs="143968.340920" HC_abs="13.930712" PMx_abs="2.445735" NOx_abs="58.306250" fuel_abs="61.886065" electricity_abs="0"/>
    </tripinfo>
    <tripinfo id="h12244c1:3" depart="57612.00" departLane="315358244_1" departPos="5.10" departSpeed="0.00" departDelay="0.40" arrival="57699.00" arrivalLane="386687235_1" arrivalPos="80.84" arrivalSpeed="14.16" duration="87.00" routeLength="1186.14" waitingTime="0.00" waitingCount="0" stopTime="0.00" timeLoss="8.57" rerouteNo="1" devices="tripinfo_h12244c1:3 routing_h12244c1:3 emissions_h12244c1:3" vType="default_016" speedFactor="1.10" vaporized="">
        <emissions CO_abs="2414.582152" CO2_abs="222576.849007" HC_abs="16.157955" PMx_abs="3.593825" NOx_abs="86.964705" fuel_abs="95.676102" electricity_abs="0"/>
    </tripinfo>
    <tripinfo id="S5R_frequency1.2" depart="57615.00" departLane="315358250#0_1" departPos="12.10" departSpeed="0.00" departDelay="3.40" arrival="57708.00" arrivalLane="386687235_1" arrivalPos="80.84" arrivalSpeed="13.57" duration="93.00" routeLength="1115.62" waitingTime="0.00" waitingCount="0" stopTime="0.00" timeLoss="11.93" rerouteNo="1" devices="tripinfo_S5R_frequency1.2 routing_S5R_frequency1.2 emissions_S5R_frequency1.2" vType="bus" speedFactor="1.00" vaporized="">
        <emissions CO_abs="1803.832640" CO2_abs="1147176.418362" HC_abs="379.947326" PMx_abs="193.797212" NOx_abs="8854.487159" fuel_abs="489.264355" electricity_abs="0"/>
    </tripinfo>
    <tripinfo id="carIn22761:1" depart="57616.00" departLane="-306240162#1_0" departPos="5.10" departSpeed="0.00" departDelay="2.10" arrival="57711.00" arrivalLane="399835085#1_1" arrivalPos="212.23" arrivalSpeed="8.15" duration="95.00" routeLength="1093.26" waitingTime="4.00" waitingCount="1" stopTime="0.00" timeLoss="22.82" rerouteNo="1" devices="tripinfo_carIn22761:1 routing_carIn22761:1 emissions_carIn22761:1" vType="default_016" speedFactor="1.08" vaporized="">
        <emissions CO_abs="4836.808945" CO2_abs="307651.816497" HC_abs="29.361557" PMx_abs="5.856668" NOx_abs="125.975260" fuel_abs="132.246064" electricity_abs="0"/>
    </tripinfo>
    <tripinfo id="h7800c1:5" depart="57696.00" departLane="-447569998#1_1" departPos="5.10" departSpeed="0.00" departDelay="0.00" arrival="57722.00" arrivalLane="-447569998#1_1" arrivalPos="180.76" arrivalSpeed="7.83" duration="26.00" routeLength="175.66" waitingTime="0.00" waitingCount="0" stopTime="0.00" timeLoss="3.38" rerouteNo="1" devices="tripinfo_h7800c1:5 routing_h7800c1:5 emissions_h7800c1:5" vType="default_016" speedFactor="0.97" vaporized="">
        <emissions CO_abs="1242.078606" CO2_abs="52397.508496" HC_abs="6.852201" PMx_abs="0.837371" NOx_abs="21.210235" fuel_abs="22.523919" electricity_abs="0"/>
    </tripinfo>
    <tripinfo id="h3688c1:1" depart="57625.00" departLane="201201950#1_1" departPos="5.10" departSpeed="0.00" departDelay="0.00" arrival="57730.00" arrivalLane="32978638#0_1" arrivalPos="49.29" arrivalSpeed="13.31" duration="105.00" routeLength="1089.75" waitingTime="13.00" waitingCount="1" stopTime="0.00" timeLoss="26.22" rerouteNo="1" devices="tripinfo_h3688c1:1 routing_h3688c1:1 emissions_h3688c1:1" vType="default_016" speedFactor="1.01" vaporized="">
        <emissions CO_abs="4548.856259" CO2_abs="288312.295067" HC_abs="27.422961" PMx_abs="4.846003" NOx_abs="115.176307" fuel_abs="123.933708" electricity_abs="0"/>
    </tripinfo>
    <tripinfo id="h3568c1:3" depart="57656.00" departLane="266565295#5_1" departPos="5.10" departSpeed="0.00" departDelay="0.80" arrival="57733.00" arrivalLane="-24634415_1" arrivalPos="62.03" arrivalSpeed="13.57" duration="77.00" routeLength="807.40" waitingTime="0.00" waitingCount="0" stopTime="0.00" timeLoss="12.27" rerouteNo="1" devices="tripinfo_h3568c1:3 routing_h3568c1:3 emissions_h3568c1:3" vType="default_016" speedFactor="1.00" vaporized="">
        <emissions CO_abs="3071.914574" CO2_abs="212289.313575" HC_abs="18.932487" PMx_abs="3.560476" NOx_abs="85.244709" fuel_abs="91.254250" electricity_abs="0"/>
    </tripinfo>
    <tripinfo id="carIn80064:1" depart="57603.00" departLane="128361109#1_1" departPos="5.10" departSpeed="0.00" departDelay="0.40" arrival="57738.00" arrivalLane="-315358254#1_1" arrivalPos="137.16" arrivalSpeed="13.04" duration="135.00" routeLength="1587.97" waitingTime="13.00" waitingCount="2" stopTime="0.00" timeLoss="40.97" rerouteNo="1" devices="tripinfo_carIn80064:1 routing_carIn80064:1 emissions_carIn80064:1" vType="default_016" speedFactor="0.95" vaporized="">
        <emissions CO_abs="7042.215730" CO2_abs="446339.927466" HC_abs="42.729701" PMx_abs="8.594337" NOx_abs="184.725760" fuel_abs="191.861756" electricity_abs="0"/>
    </tripinfo>
    <tripinfo id="h9563c2:5" depart="57631.00" departLane="315358244_1" departPos="5.10" departSpeed="0.00" departDelay="0.70" arrival="57746.00" arrivalLane="386687235_1" arrivalPos="80.84" arrivalSpeed="11.20" duration="115.00" routeLength="1186.14" waitingTime="1.00" waitingCount="1" stopTime="0.00" timeLoss="13.90" rerouteNo="1" devices="tripinfo_h9563c2:5 routing_h9563c2:5 emissions_h9563c2:5" vType="default_016" speedFactor="0.86" vaporized="">
        <emissions CO_abs="3009.854757" CO2_abs="216659.188060" HC_abs="18.698184" PMx_abs="3.227911" NOx_abs="84.464348" fuel_abs="93.133184" electricity_abs="0"/>
    </tripinfo>
    <tripinfo id="h5979c1:5" depart="57669.00" departLane="399835085#1_1" departPos="5.10" departSpeed="0.00" departDelay="0.00" arrival="57749.00" arrivalLane="-315358254#1_1" arrivalPos="137.16" arrivalSpeed="14.31" duration="80.00" routeLength="659.33" waitingTime="0.00" waitingCount="0" stopTime="0.00" timeLoss="9.39" rerouteNo="1" devices="tripinfo_h5979c1:5 routing_h5979c1:5 emissions_h5979c1:5" vType="default_016" speedFactor="1.03" vaporized="">
        <emissions CO_abs="3459.952188" CO2_abs="182260.594133" HC_abs="19.939021" PMx_abs="2.849039" NOx_abs="72.750465" fuel_abs="78.347097" electricity_abs="0"/>
    </tripinfo>
    <tripinfo id="h7181c1:1" depart="57660.00" departLane="315358254#0_1" departPos="5.10" departSpeed="0.00" departDelay="0.10" arrival="57750.00" arrivalLane="306240162#0_0" arrivalPos="220.43" arrivalSpeed="19.00" duration="90.00" routeLength="932.35" waitingTime="19.00" waitingCount="2" stopTime="0.00" timeLoss="47.08" rerouteNo="1" devices="tripinfo_h7181c1:1 routing_h7181c1:1 emissions_h7181c1:1" vType="default_016" speedFactor="1.21" vaporized="">
        <emissions CO_abs="8461.068455" CO2_abs="427241.253568" HC_abs="48.847560" PMx_abs="9.124263" NOx_abs="182.970446" fuel_abs="183.652146" electricity_abs="0"/>
    </tripinfo>
    <tripinfo id="h317c2:1" depart="57707.00" departLane="-32978638#0_1" departPos="5.10" departSpeed="0.00" departDelay="0.10" arrival="57757.00" arrivalLane="-266565295#5_1" arrivalPos="172.76" arrivalSpeed="12.44" duration="50.00" routeLength="370.53" waitingTime="10.00" waitingCount="1" stopTime="0.00" timeLoss="19.78" rerouteNo="1" devices="tripinfo_h317c2:1 routing_h317c2:1 emissions_h317c2:1" vType="default_016" speedFactor="0.90" vaporized="">
        <emissions CO_abs="2644.002889" CO2_abs="123195.847315" HC_abs="14.914463" PMx_abs="2.191645" NOx_abs="50.606690" fuel_abs="52.957229" electricity_abs="0"/>
    </tripinfo>
    <tripinfo id="carIn30817:1" depart="57681.00" departLane="315358244_1" departPos="5.10" departSpeed="0.00" departDelay="0.20" arrival="57758.00" arrivalLane="447569997#1_1" arrivalPos="180.93" arrivalSpeed="7.33" duration="77.00" routeLength="718.04" waitingTime="0.00" waitingCount="0" stopTime="0.00" timeLoss="7.92" rerouteNo="1" devices="tripinfo_carIn30817:1 routing_carIn30817:1 emissions_carIn30817:1" vType="default_016" speedFactor="0.89" vaporized="">
        <emissions CO_abs="2593.302017" CO2_abs="159441.256565" HC_abs="15.463980" PMx_abs="2.364073" NOx_abs="62.422207" fuel_abs="68.537772" electricity_abs="0"/>
    </tripinfo>
    <tripinfo id="h645c1:1" depart="57622.00" departLane="266565295#5_1" departPos="5.10" departSpeed="0.00" departDelay="0.40" arrival="57761.00" arrivalLane="-315358244_1" arrivalPos="33.95" arrivalSpeed="15.02" duration="139.00" routeLength="1910.83" waitingTime="0.00" waitingCount="0" stopTime="0.00" timeLoss="11.28" rerouteNo="1" devices="tripinfo_h645c1:1 routing_h645c1:1 emissions_h645c1:1" vType="default_016" speedFactor="1.08" vaporized="">
        <emissions CO_abs="3050.282432" CO2_abs="335354.112958" HC_abs="21.526447" PMx_abs="5.036585" NOx_abs="127.837864" fuel_abs="144.154274" electricity_abs="0"/>
    </tripinfo>
    <tripinfo id="h3154c1:1" depart="57658.00" departLane="24634507_1" departPos="5.10" departSpeed="0.00" departDelay="0.00" arrival="57768.00" arrivalLane="-266565295#5_1" arrivalPos="172.76" arrivalSpeed="14.28" duration="110.00" routeLength="1206.22" waitingTime="10.00" waitingCount="1" stopTime="0.00" timeLoss="26.42" rerouteNo="1" devices="tripinfo_h3154c1:1 routing_h3154c1:1 emissions_h3154c1:1" vType="default_016" speedFactor="1.07" vaporized="">
        <emissions CO_abs="4682.314231" CO2_abs="296466.075469" HC_abs="28.174801" PMx_abs="5.192473" NOx_abs="119.789137" fuel_abs="127.438354" electricity_abs="0"/>
    </tripinfo>
    <tripinfo id="carIn118591:1" depart="57689.00" departLane="315358244_1" departPos="5.10" departSpeed="0.00" departDelay="0.20" arrival="57768.00" arrivalLane="386687235_1" arrivalPos="80.84" arrivalSpeed="17.32" duration="79.00" routeLength="1186.14" waitingTime="0.00" waitingCount="0" stopTime="0.00" timeLoss="10.56" rerouteNo="1" devices="tripinfo_carIn118591:1 routing_carIn118591:1 emissions_carIn118591:1" vType="default_016" speedFactor="1.27" vaporized="">
        <emissions CO_abs="3254.339453" CO2_abs="273996.152493" HC_abs="21.187744" PMx_abs="4.924554" NOx_abs="109.638011" fuel_abs="117.778551" electricity_abs="0"/>
    </tripinfo>
    <tripinfo id="h3326c1:2" depart="57656.00" departLane="22716069#0_1" departPos="5.10" departSpeed="0.00" departDelay="0.00" arrival="57782.00" arrivalLane="24634517#13_1" arrivalPos="111.62" arrivalSpeed="12.12" duration="126.00" routeLength="1312.81" waitingTime="2.00" waitingCount="1" stopTime="0.00" timeLoss="21.07" rerouteNo="1" devices="tripinfo_h3326c1:2 routing_h3326c1:2 emissions_h3326c1:2" vType="default_016" speedFactor="0.93" vaporized="">
        <emissions CO_abs="4382.154473" CO2_abs="309730.818227" HC_abs="27.147368" PMx_abs="4.912549" NOx_abs="122.636922" fuel_abs="133.140599" electricity_abs="0"/>
    </tripinfo>
    <tripinfo id="carIn27009:1" depart="57673.00" departLane="-447569998#1_1" departPos="5.10" departSpeed="0.00" departDelay="0.50" arrival="57782.00" arrivalLane="-26677539_1" arrivalPos="152.75" arrivalSpeed="8.56" duration="109.00" routeLength="699.63" waitingTime="15.00" waitingCount="1" stopTime="0.00" timeLoss="29.23" rerouteNo="1" devices="tripinfo_carIn27009:1 routing_carIn27009:1 emissions_carIn27009:1" vType="default_015" speedFactor="1.05" vaporized="">
        <emissions CO_abs="5603.256456" CO2_abs="220633.938091" HC_abs="30.606043" PMx_abs="3.843936" NOx_abs="91.105414" fuel_abs="94.842936" electricity_abs="0"/>
    </tripinfo>
    <tripinfo id="carIn12365:1" depart="57713.00" departLane="315358244_1" departPos="5.10" departSpeed="0.00" departDelay="0.50" arrival="57783.00" arrivalLane="447569997#1_1" arrivalPos="180.93" arrivalSpeed="7.16" duration="70.00" routeLength="718.04" waitingTime="0.00" waitingCount="0" stopTime="0.00" timeLoss="6.81" rerouteNo="1" devices="tripinfo_carIn12365:1 routing_carIn12365:1 emissions_carIn12365:1" vType="default_016" speedFactor="0.97" vaporized="">
        <emissions CO_abs="2151.791523" CO2_abs="140622.185542" HC_abs="13.062772" PMx_abs="2.259357" NOx_abs="55.989894" fuel_abs="60.447802" electricity_abs="0"/>
    </tripinfo>
    <tripinfo id="h330c1:1" depart="57736.00" departLane="-32978638#0_1" departPos="5.10" departSpeed="0.00" departDelay="0.20" arrival="57785.00" arrivalLane="-266565295#5_1" arrivalPos="172.76" arrivalSpeed="13.25" duration="49.00" routeLength="370.53" waitingTime="12.00" waitingCount="1" stopTime="0.00" timeLoss="21.56" rerouteNo="1" devices="tripinfo_h330c1:1 routing_h330c1:1 emissions_h330c1:1" vType="default_016" speedFactor="0.99" vaporized="">
        <emissions CO_abs="3521.118587" CO2_abs="139247.560064" HC_abs="19.303935" PMx_abs="2.672750" NOx_abs="58.390062" fuel_abs="59.857416" electricity_abs="0"/>
    </tripinfo>
    <tripinfo id="carIn107084:1" depart="57601.00" departLane="124812856#0_1" departPos="5.10" departSpeed="0.00" departDelay="0.70" arrival="57797.00" arrivalLane="-128361102#1_1" arrivalPos="274.68" arrivalSpeed="13.21" duration="196.00" routeLength="2250.49" waitingTime="7.00" waitingCount="1" stopTime="0.00" timeLoss="28.44" rerouteNo="1" devices="tripinfo_carIn107084:1 routing_carIn107084:1 emissions_carIn107084:1" vType="default_016" speedFactor="0.98" vaporized="">
        <emissions CO_abs="5843.169720" CO2_abs="466564.870289" HC_abs="37.472363" PMx_abs="7.561913" NOx_abs="184.611310" fuel_abs="200.556355" electricity_abs="0"/>
    </tripinfo>
    <tripinfo id="carIn50326:1" depart="57651.00" departLane="128361102#0_1" departPos="5.10" departSpeed="0.00" departDelay="0.30" arrival="57799.00" arrivalLane="18809673#0_1" arrivalPos="473.56" arrivalSpeed="14.11" duration="148.00" routeLength="1591.07" waitingTime="6.00" waitingCount="1" stopTime="0.00" timeLoss="28.64" rerouteNo="1" devices="tripinfo_carIn50326:1 routing_carIn50326:1 emissions_carIn50326:1" vType="default_016" speedFactor="1.08" vaporized="">
        <emissions CO_abs="5129.824284" CO2_abs="372472.956989" HC_abs="31.929739" PMx_abs="6.185450" NOx_abs="148.306317" fuel_abs="160.110404" electricity_abs="0"/>
    </tripinfo>
    <tripinfo id="carIn77943:1" depart="57608.00" departLane="124812856#0_1" departPos="5.10" departSpeed="0.00" departDelay="2.50" arrival="57800.00" arrivalLane="-128361102#1_1" arrivalPos="274.68" arrivalSpeed="13.01" duration="192.00" routeLength="2250.49" waitingTime="0.00" waitingCount="0" stopTime="0.00" timeLoss="17.40" rerouteNo="1" devices="tripinfo_carIn77943:1 routing_carIn77943:1 emissions_carIn77943:1" vType="default_016" speedFactor="0.94" vaporized="">
        <emissions CO_abs="5015.642148" CO2_abs="427099.998762" HC_abs="32.766702" PMx_abs="6.580215" NOx_abs="166.867369" fuel_abs="183.592325" electricity_abs="0"/>
    </tripinfo>
    <tripinfo id="carIn86816:1" depart="57617.00" departLane="128361102#0_1" departPos="5.10" departSpeed="0.00" departDelay="0.80" arrival="57806.00" arrivalLane="201956811#0_1" arrivalPos="40.40" arrivalSpeed="11.48" duration="189.00" routeLength="2067.33" waitingTime="0.00" waitingCount="0" stopTime="0.00" timeLoss="19.39" rerouteNo="1" devices="tripinfo_carIn86816:1 routing_carIn86816:1 emissions_carIn86816:1" vType="default_016" speedFactor="0.89" vaporized="">
        <emissions CO_abs="5099.190775" CO2_abs="404766.499165" HC_abs="32.584092" PMx_abs="6.120242" NOx_abs="158.118690" fuel_abs="173.992490" electricity_abs="0"/>
    </tripinfo>
    <tripinfo id="h11737c1:1" depart="57665.00" departLane="272042143_1" departPos="5.10" departSpeed="0.00" departDelay="1.50" arrival="57806.00" arrivalLane="-315358254#1_1" arrivalPos="137.16" arrivalSpeed="13.07" duration="141.00" routeLength="1596.88" waitingTime="8.00" waitingCount="1" stopTime="0.00" timeLoss="24.55" rerouteNo="1" devices="tripinfo_h11737c1:1 routing_h11737c1:1 emissions_h11737c1:1" vType="default_016" speedFactor="1.00" vaporized="">
        <emissions CO_abs="4653.473519" CO2_abs="331095.421471" HC_abs="28.926890" PMx_abs="5.534009" NOx_abs="132.060960" fuel_abs="142.323995" electricity_abs="0"/>
    </tripinfo>
    <tripinfo id="carIn102915:1" depart="57643.00" departLane="128361102#0_1" departPos="5.10" departSpeed="0.00" departDelay="0.40" arrival="57808.00" arrivalLane="201956811#0_1" arrivalPos="40.40" arrivalSpeed="14.58" duration="165.00" routeLength="2067.33" waitingTime="0.00" waitingCount="0" stopTime="0.00" timeLoss="26.06" rerouteNo="1" devices="tripinfo_carIn102915:1 routing_carIn102915:1 emissions_carIn102915:1" vType="default_016" speedFactor="1.09" vaporized="">
        <emissions CO_abs="5184.833030" CO2_abs="430302.235294" HC_abs="33.546042" PMx_abs="7.186774" NOx_abs="170.999700" fuel_abs="184.968134" electricity_abs="0"/>
    </tripinfo>
    <tripinfo id="carIn126288:1" depart="57674.00" departLane="272042143_1" departPos="5.10" departSpeed="0.00" departDelay="0.00" arrival="57809.00" arrivalLane="-315358254#1_1" arrivalPos="137.16" arrivalSpeed="14.23" duration="135.00" routeLength="1596.88" waitingTime="4.00" waitingCount="1" stopTime="0.00" timeLoss="21.45" rerouteNo="1" devices="tripinfo_carIn126288:1 routing_carIn126288:1 emissions_carIn126288:1" vType="default_016" speedFactor="1.03" vaporized="">
        <emissions CO_abs="3972.516424" CO2_abs="339257.100104" HC_abs="25.959494" PMx_abs="5.376678" NOx_abs="132.714344" fuel_abs="145.832192" electricity_abs="0"/>
    </tripinfo>
    <tripinfo id="carIn129809:1" depart="57729.00" departLane="-447569998#1_1" departPos="5.10" departSpeed="0.00" departDelay="1.00" arrival="57813.00" arrivalLane="-315358244_1" arrivalPos="33.95" arrivalSpeed="12.15" duration="84.00" routeLength="706.49" waitingTime="5.00" waitingCount="1" stopTime="0.00" timeLoss="15.98" rerouteNo="1" devices="tripinfo_carIn129809:1 routing_carIn129809:1 emissions_carIn129809:1" vType="default_015" speedFactor="0.89" vaporized="">
        <emissions CO_abs="2924.530543" CO2_abs="159885.737102" HC_abs="16.999931" PMx_abs="2.510120" NOx_abs="63.463036" fuel_abs="68.728905" electricity_abs="0"/>
    </tripinfo>
    <tripinfo id="carIn48184:1" depart="57613.00" departLane="-306240162#1_0" departPos="5.10" departSpeed="0.00" departDelay="0.70" arrival="57814.00" arrivalLane="386687235_1" arrivalPos="80.84" arrivalSpeed="13.49" duration="201.00" routeLength="2257.41" waitingTime="23.00" waitingCount="2" stopTime="0.00" timeLoss="51.06" rerouteNo="1" devices="tripinfo_carIn48184:1 routing_carIn48184:1 emissions_carIn48184:1" vType="default_016" speedFactor="1.00" vaporized="">
        <emissions CO_abs="8170.952060" CO2_abs="538610.024873" HC_abs="49.916688" PMx_abs="9.603853" NOx_abs="217.414543" fuel_abs="231.525526" electricity_abs="0"/>
    </tripinfo>
    <tripinfo id="carIn82220:1" depart="57619.00" departLane="-306240162#1_0" departPos="5.10" departSpeed="0.00" departDelay="3.50" arrival="57814.00" arrivalLane="386687235_2" arrivalPos="80.84" arrivalSpeed="14.17" duration="195.00" routeLength="2257.41" waitingTime="21.00" waitingCount="2" stopTime="0.00" timeLoss="56.82" rerouteNo="1" devices="tripinfo_carIn82220:1 routing_carIn82220:1 emissions_carIn82220:1" vType="default_016" speedFactor="1.08" vaporized="">
        <emissions CO_abs="9050.200267" CO2_abs="558016.956038" HC_abs="54.409521" PMx_abs="10.428163" NOx_abs="227.833253" fuel_abs="239.867552" electricity_abs="0"/>
    </tripinfo>
    <tripinfo id="h16072c2:3" depart="57663.00" departLane="315358254#0_1" departPos="5.10" departSpeed="0.00" departDelay="2.50" arrival="57815.00" arrivalLane="386687235_1" arrivalPos="80.84" arrivalSpeed="14.83" duration="152.00" routeLength="1611.92" waitingTime="23.00" waitingCount="2" stopTime="0.00" timeLoss="49.77" rerouteNo="1" devices="tripinfo_h16072c2:3 routing_h16072c2:3 emissions_h16072c2:3" vType="default_016" speedFactor="1.15" vaporized="">
        <emissions CO_abs="6733.453199" CO2_abs="404496.272900" HC_abs="39.992240" PMx_abs="7.239977" NOx_abs="163.593800" fuel_abs="173.876149" electricity_abs="0"/>
    </tripinfo>
    <tripinfo id="randUni10474:1" depart="57605.00" departLane="124812856#0_1" departPos="5.10" departSpeed="0.00" departDelay="0.20" arrival="57816.00" arrivalLane="306240162#0_0" arrivalPos="220.43" arrivalSpeed="19.31" duration="211.00" routeLength="3031.29" waitingTime="4.00" waitingCount="1" stopTime="0.00" timeLoss="43.63" rerouteNo="1" devices="tripinfo_randUni10474:1 routing_randUni10474:1 emissions_randUni10474:1" vType="random_016" speedFactor="1.17" vaporized="">
        <emissions CO_abs="10634.465639" CO2_abs="803814.312884" HC_abs="67.360951" PMx_abs="15.361297" NOx_abs="329.355913" fuel_abs="345.522781" electricity_abs="0"/>
    </tripinfo>
    <tripinfo id="randUni14624:1" depart="57606.00" departLane="315358244_1" departPos="5.10" departSpeed="0.00" departDelay="0.80" arrival="57818.00" arrivalLane="-25149001#4_1" arrivalPos="105.67" arrivalSpeed="10.03" duration="212.00" routeLength="2803.98" waitingTime="13.00" waitingCount="2" stopTime="0.00" timeLoss="49.66" rerouteNo="1" devices="tripinfo_randUni14624:1 routing_randUni14624:1 emissions_randUni14624:1" vType="random_016" speedFactor="1.30" vaporized="">
        <emissions CO_abs="7812.629288" CO2_abs="605431.185030" HC_abs="49.640379" PMx_abs="10.759056" NOx_abs="241.832320" fuel_abs="260.248167" electricity_abs="0"/>
    </tripinfo>
    <tripinfo id="h17600c1:1" depart="57662.00" departLane="272042143_1" departPos="5.10" departSpeed="0.00" departDelay="0.30" arrival="57818.00" arrivalLane="201238729#3_1" arrivalPos="431.02" arrivalSpeed="15.13" duration="156.00" routeLength="2100.26" waitingTime="5.00" waitingCount="1" stopTime="0.00" timeLoss="24.04" rerouteNo="1" devices="tripinfo_h17600c1:1 routing_h17600c1:1 emissions_h17600c1:1" vType="default_016" speedFactor="1.15" vaporized="">
        <emissions CO_abs="4291.597752" CO2_abs="391465.512018" HC_abs="28.472804" PMx_abs="6.484943" NOx_abs="153.263171" fuel_abs="168.273818" electricity_abs="0"/>
    </tripinfo>
    <tripinfo id="carIn81046:1" depart="57611.00" departLane="124812856#0_1" departPos="5.10" departSpeed="0.00" departDelay="2.50" arrival="57822.00" arrivalLane="-128361102#1_1" arrivalPos="274.68" arrivalSpeed="10.75" duration="211.00" routeLength="2250.49" waitingTime="0.00" waitingCount="0" stopTime="0.00" timeLoss="18.09" rerouteNo="1" devices="tripinfo_carIn81046:1 routing_carIn81046:1 emissions_carIn81046:1" vType="default_016" speedFactor="0.85" vaporized="">
        <emissions CO_abs="5141.886627" CO2_abs="404395.646279" HC_abs="32.737126" PMx_abs="5.970420" NOx_abs="157.275494" fuel_abs="173.833312" electricity_abs="0"/>
    </tripinfo>
    <tripinfo id="carIn82278:1" depart="57702.00" departLane="-306240162#1_0" departPos="5.10" departSpeed="0.00" departDelay="0.70" arrival="57822.00" arrivalLane="399835085#1_1" arrivalPos="212.23" arrivalSpeed="5.95" duration="120.00" routeLength="1093.26" waitingTime="6.00" waitingCount="1" stopTime="0.00" timeLoss="27.75" rerouteNo="1" devices="tripinfo_carIn82278:1 routing_carIn82278:1 emissions_carIn82278:1" vType="default_016" speedFactor="0.85" vaporized="">
        <emissions CO_abs="5645.349981" CO2_abs="305727.643245" HC_abs="32.795275" PMx_abs="5.564235" NOx_abs="125.739850" fuel_abs="131.419807" electricity_abs="0"/>
    </tripinfo>
    <tripinfo id="carIn12858:1" depart="57661.00" departLane="128361109#1_1" departPos="5.10" departSpeed="0.00" departDelay="0.90" arrival="57824.00" arrivalLane="399835085#1_1" arrivalPos="212.23" arrivalSpeed="7.71" duration="163.00" routeLength="1738.12" waitingTime="12.00" waitingCount="1" stopTime="0.00" timeLoss="50.54" rerouteNo="1" devices="tripinfo_carIn12858:1 routing_carIn12858:1 emissions_carIn12858:1" vType="default_016" speedFactor="1.03" vaporized="">
        <emissions CO_abs="9623.796636" CO2_abs="537284.979489" HC_abs="56.628220" PMx_abs="10.386959" NOx_abs="222.784254" fuel_abs="230.955906" electricity_abs="0"/>
    </tripinfo>
    <tripinfo id="carIn12152:1" depart="57647.00" departLane="24599188#0.94_1" departPos="5.10" departSpeed="0.00" departDelay="0.50" arrival="57827.00" arrivalLane="-315358254#1_1" arrivalPos="137.16" arrivalSpeed="13.17" duration="180.00" routeLength="2034.31" waitingTime="1.00" waitingCount="1" stopTime="0.00" timeLoss="20.04" rerouteNo="1" devices="tripinfo_carIn12152:1 routing_carIn12152:1 emissions_carIn12152:1" vType="default_016" speedFactor="0.99" vaporized="">
        <emissions CO_abs="4907.866452" CO2_abs="367222.423527" HC_abs="30.911953" PMx_abs="5.933151" NOx_abs="145.537677" fuel_abs="157.853532" electricity_abs="0"/>
    </tripinfo>
    <tripinfo id="carIn77438:1" depart="57614.00" departLane="124812856#0_1" departPos="5.10" departSpeed="0.00" departDelay="1.10" arrival="57828.00" arrivalLane="-128361102#1_1" arrivalPos="274.68" arrivalSpeed="11.15" duration="214.00" routeLength="2250.49" waitingTime="0.00" waitingCount="0" stopTime="0.00" timeLoss="20.25" rerouteNo="1" devices="tripinfo_carIn77438:1 routing_carIn77438:1 emissions_carIn77438:1" vType="default_016" speedFactor="0.85" vaporized="">
        <emissions CO_abs="5643.897948" CO2_abs="428556.603955" HC_abs="35.568693" PMx_abs="6.313180" NOx_abs="166.762916" fuel_abs="184.219299" electricity_abs="0"/>
    </tripinfo>
    <tripinfo id="h19804c1:3" depart="57617.00" departLane="124812856#0_1" departPos="5.10" departSpeed="0.00" departDelay="1.50" arrival="57830.00" arrivalLane="-128361102#1_1" arrivalPos="274.68" arrivalSpeed="13.54" duration="213.00" routeLength="2250.49" waitingTime="0.00" waitingCount="0" stopTime="0.00" timeLoss="58.09" rerouteNo="1" devices="tripinfo_h19804c1:3 routing_h19804c1:3 emissions_h19804c1:3" vType="default_016" speedFactor="1.06" vaporized="">
        <emissions CO_abs="6897.839883" CO2_abs="499774.061633" HC_abs="43.056563" PMx_abs="8.156742" NOx_abs="199.981100" fuel_abs="214.831846" electricity_abs="0"/>
    </tripinfo>
    <tripinfo id="h3864c1:3" depart="57678.00" departLane="24693977#1_1" departPos="5.10" departSpeed="0.00" departDelay="0.00" arrival="57830.00" arrivalLane="201956820_2" arrivalPos="48.33" arrivalSpeed="16.45" duration="152.00" routeLength="1574.85" waitingTime="23.00" waitingCount="1" stopTime="0.00" timeLoss="45.72" rerouteNo="1" devices="tripinfo_h3864c1:3 routing_h3864c1:3 emissions_h3864c1:3" vType="default_016" speedFactor="1.22" vaporized="">
        <emissions CO_abs="8756.296520" CO2_abs="450237.812252" HC_abs="50.544921" PMx_abs="8.628143" NOx_abs="187.303345" fuel_abs="193.538632" electricity_abs="0"/>
    </tripinfo>
    <tripinfo id="carIn107842:1" depart="57623.00" departLane="124812856#0_1" departPos="5.10" departSpeed="0.00" departDelay="1.90" arrival="57832.00" arrivalLane="-128361102#1_1" arrivalPos="274.68" arrivalSpeed="13.60" duration="209.00" routeLength="2250.49" waitingTime="0.00" waitingCount="0" stopTime="0.00" timeLoss="43.46" rerouteNo="1" devices="tripinfo_carIn107842:1 routing_carIn107842:1 emissions_carIn107842:1" vType="default_016" speedFactor="1.00" vaporized="">
        <emissions CO_abs="7464.083314" CO2_abs="528802.628584" HC_abs="46.397177" PMx_abs="9.098513" NOx_abs="214.588574" fuel_abs="227.309436" electricity_abs="0"/>
    </tripinfo>