<?xml version="1.0" encoding="UTF-8"?>

<!-- generated on 2021-10-26 14:34:27 by Eclipse SUMO sumo Version 1.10.0
<configuration xmlns:xsi="http://www.w3.org/2001/XMLSchema-instance" xsi:noNamespaceSchemaLocation="http://sumo.dlr.de/xsd/sumoConfiguration.xsd">

    <input>
        <net-file value="/Users/behradkoohy/sumo-scratchpad/RESCO/environments/ingolstadt21/ingolstadt21.net.xml"/>
        <route-files value="/Users/behradkoohy/sumo-scratchpad/RESCO/environments/ingolstadt21/ingolstadt21.rou.xml"/>
    </input>

    <output>
        <tripinfo-output value="/Users/behradkoohy/sumo-scratchpad/RESCO/logs/STOCHASTIC-tr0-ingolstadt21-21-mplight-wait/tripinfo_67.xml"/>
        <tripinfo-output.write-unfinished value="true"/>
    </output>

    <time>
        <begin value="57600"/>
        <end value="61200"/>
    </time>

    <processing>
        <time-to-teleport value="-1"/>
    </processing>

    <report>
        <no-warnings value="true"/>
        <no-step-log value="true"/>
    </report>

    <emissions>
        <device.emissions.probability value="1"/>
    </emissions>

    <traci_server>
        <remote-port value="60418"/>
    </traci_server>

    <random_number>
        <random value="true"/>
    </random_number>

</configuration>
-->

<tripinfos xmlns:xsi="http://www.w3.org/2001/XMLSchema-instance" xsi:noNamespaceSchemaLocation="http://sumo.dlr.de/xsd/tripinfo_file.xsd">
    <tripinfo id="h15454c2:3" depart="57612.00" departLane="24608844_1" departPos="5.10" departSpeed="0.00" departDelay="0.50" arrival="57652.00" arrivalLane="32978638#0_1" arrivalPos="49.29" arrivalSpeed="13.76" duration="40.00" routeLength="354.79" waitingTime="0.00" waitingCount="0" stopTime="0.00" timeLoss="5.59" rerouteNo="1" devices="tripinfo_h15454c2:3 routing_h15454c2:3 emissions_h15454c2:3" vType="default_016" speedFactor="1.00" vaporized="">
        <emissions CO_abs="2053.612420" CO2_abs="117158.195168" HC_abs="12.045027" PMx_abs="2.031669" NOx_abs="47.883088" fuel_abs="50.361539" electricity_abs="0"/>
    </tripinfo>
    <tripinfo id="carIn53971:1" depart="57640.00" departLane="272042143_1" departPos="5.10" departSpeed="0.00" departDelay="0.80" arrival="57692.00" arrivalLane="24634414#1_1" arrivalPos="162.19" arrivalSpeed="7.62" duration="52.00" routeLength="493.04" waitingTime="0.00" waitingCount="0" stopTime="0.00" timeLoss="6.89" rerouteNo="1" devices="tripinfo_carIn53971:1 routing_carIn53971:1 emissions_carIn53971:1" vType="default_016" speedFactor="1.01" vaporized="">
        <emissions CO_abs="2234.027109" CO2_abs="128861.954046" HC_abs="13.186325" PMx_abs="2.251355" NOx_abs="52.792998" fuel_abs="55.392468" electricity_abs="0"/>
    </tripinfo>
    <tripinfo id="carIn80064:1" depart="57603.00" departLane="128361109#1_1" departPos="5.10" departSpeed="0.00" departDelay="0.40" arrival="57718.00" arrivalLane="-315358254#1_1" arrivalPos="137.16" arrivalSpeed="15.16" duration="115.00" routeLength="1587.97" waitingTime="4.00" waitingCount="1" stopTime="0.00" timeLoss="36.51" rerouteNo="1" devices="tripinfo_carIn80064:1 routing_carIn80064:1 emissions_carIn80064:1" vType="default_016" speedFactor="1.14" vaporized="">
        <emissions CO_abs="7786.003736" CO2_abs="515446.894558" HC_abs="47.735693" PMx_abs="10.399048" NOx_abs="214.704065" fuel_abs="221.566904" electricity_abs="0"/>
    </tripinfo>
    <tripinfo id="h7800c1:5" depart="57696.00" departLane="-447569998#1_1" departPos="5.10" departSpeed="0.00" departDelay="0.00" arrival="57722.00" arrivalLane="-447569998#1_1" arrivalPos="180.76" arrivalSpeed="7.77" duration="26.00" routeLength="175.66" waitingTime="0.00" waitingCount="0" stopTime="0.00" timeLoss="3.39" rerouteNo="1" devices="tripinfo_h7800c1:5 routing_h7800c1:5 emissions_h7800c1:5" vType="default_016" speedFactor="0.96" vaporized="">
        <emissions CO_abs="1147.039796" CO2_abs="48462.246660" HC_abs="6.335049" PMx_abs="0.802864" NOx_abs="19.805177" fuel_abs="20.832237" electricity_abs="0"/>
    </tripinfo>
    <tripinfo id="carIn60260:1" depart="57606.00" departLane="315358254#0_1" departPos="5.10" departSpeed="0.00" departDelay="0.90" arrival="57726.00" arrivalLane="399835085#1_1" arrivalPos="212.23" arrivalSpeed="5.96" duration="120.00" routeLength="430.98" waitingTime="48.00" waitingCount="1" stopTime="0.00" timeLoss="60.14" rerouteNo="1" devices="tripinfo_carIn60260:1 routing_carIn60260:1 emissions_carIn60260:1" vType="default_016" speedFactor="0.76" vaporized="">
        <emissions CO_abs="10154.405702" CO2_abs="236524.440894" HC_abs="51.726856" PMx_abs="4.916757" NOx_abs="102.560875" fuel_abs="101.676075" electricity_abs="0"/>
    </tripinfo>
    <tripinfo id="h7181c1:1" depart="57660.00" departLane="315358254#0_1" departPos="5.10" departSpeed="0.00" departDelay="0.10" arrival="57731.00" arrivalLane="306240162#0_0" arrivalPos="220.43" arrivalSpeed="16.71" duration="71.00" routeLength="932.35" waitingTime="2.00" waitingCount="1" stopTime="0.00" timeLoss="22.04" rerouteNo="1" devices="tripinfo_h7181c1:1 routing_h7181c1:1 emissions_h7181c1:1" vType="default_016" speedFactor="1.06" vaporized="">
        <emissions CO_abs="4790.735872" CO2_abs="305873.041168" HC_abs="29.164060" PMx_abs="6.159003" NOx_abs="127.698582" fuel_abs="131.480887" electricity_abs="0"/>
    </tripinfo>
    <tripinfo id="h12244c1:3" depart="57612.00" departLane="315358244_1" departPos="5.10" departSpeed="0.00" departDelay="0.40" arrival="57733.00" arrivalLane="386687235_1" arrivalPos="80.84" arrivalSpeed="13.90" duration="121.00" routeLength="1186.14" waitingTime="16.00" waitingCount="3" stopTime="0.00" timeLoss="38.34" rerouteNo="1" devices="tripinfo_h12244c1:3 routing_h12244c1:3 emissions_h12244c1:3" vType="default_016" speedFactor="1.05" vaporized="">
        <emissions CO_abs="5291.737808" CO2_abs="318162.392117" HC_abs="31.515177" PMx_abs="5.728037" NOx_abs="130.064389" fuel_abs="136.764639" electricity_abs="0"/>
    </tripinfo>
    <tripinfo id="S5R_frequency1.2" depart="57624.00" departLane="315358250#0_1" departPos="12.10" departSpeed="0.00" departDelay="12.40" arrival="57738.00" arrivalLane="386687235_1" arrivalPos="80.84" arrivalSpeed="13.60" duration="114.00" routeLength="1115.62" waitingTime="4.00" waitingCount="2" stopTime="0.00" timeLoss="32.49" rerouteNo="1" devices="tripinfo_S5R_frequency1.2 routing_S5R_frequency1.2 emissions_S5R_frequency1.2" vType="bus" speedFactor="1.00" vaporized="">
        <emissions CO_abs="2397.573510" CO2_abs="1489627.121165" HC_abs="491.027552" PMx_abs="255.757567" NOx_abs="11611.502650" fuel_abs="635.289093" electricity_abs="0"/>
    </tripinfo>
    <tripinfo id="h3568c1:3" depart="57656.00" departLane="266565295#5_1" departPos="5.10" departSpeed="0.00" departDelay="0.80" arrival="57741.00" arrivalLane="-24634415_1" arrivalPos="62.03" arrivalSpeed="15.07" duration="85.00" routeLength="807.40" waitingTime="14.00" waitingCount="1" stopTime="0.00" timeLoss="32.66" rerouteNo="1" devices="tripinfo_h3568c1:3 routing_h3568c1:3 emissions_h3568c1:3" vType="default_016" speedFactor="1.23" vaporized="">
        <emissions CO_abs="5825.275806" CO2_abs="287757.719209" HC_abs="33.306779" PMx_abs="5.691567" NOx_abs="121.325503" fuel_abs="123.695018" electricity_abs="0"/>
    </tripinfo>
    <tripinfo id="h3326c1:2" depart="57656.00" departLane="22716069#0_1" departPos="5.10" departSpeed="0.00" departDelay="0.00" arrival="57755.00" arrivalLane="24634517#13_1" arrivalPos="111.62" arrivalSpeed="15.69" duration="99.00" routeLength="1312.81" waitingTime="0.00" waitingCount="0" stopTime="0.00" timeLoss="14.44" rerouteNo="1" devices="tripinfo_h3326c1:2 routing_h3326c1:2 emissions_h3326c1:2" vType="default_016" speedFactor="1.16" vaporized="">
        <emissions CO_abs="4238.687451" CO2_abs="335960.740059" HC_abs="27.214989" PMx_abs="6.008933" NOx_abs="135.826048" fuel_abs="144.414443" electricity_abs="0"/>
    </tripinfo>
    <tripinfo id="h4538c1:1" depart="57701.00" departLane="-10427692#1_1" departPos="5.10" departSpeed="0.00" departDelay="0.00" arrival="57756.00" arrivalLane="-128361102#1_1" arrivalPos="274.68" arrivalSpeed="13.47" duration="55.00" routeLength="440.74" waitingTime="12.00" waitingCount="1" stopTime="0.00" timeLoss="23.58" rerouteNo="1" devices="tripinfo_h4538c1:1 routing_h4538c1:1 emissions_h4538c1:1" vType="default_016" speedFactor="1.02" vaporized="">
        <emissions CO_abs="2918.594705" CO2_abs="136175.428259" HC_abs="16.470782" PMx_abs="2.441481" NOx_abs="55.693045" fuel_abs="58.536664" electricity_abs="0"/>
    </tripinfo>
    <tripinfo id="carIn22761:1" depart="57616.00" departLane="-306240162#1_0" departPos="5.10" departSpeed="0.00" departDelay="2.10" arrival="57762.00" arrivalLane="399835085#1_1" arrivalPos="212.23" arrivalSpeed="7.80" duration="146.00" routeLength="1093.26" waitingTime="57.00" waitingCount="1" stopTime="0.00" timeLoss="72.10" rerouteNo="1" devices="tripinfo_carIn22761:1 routing_carIn22761:1 emissions_carIn22761:1" vType="default_016" speedFactor="1.06" vaporized="">
        <emissions CO_abs="12622.218476" CO2_abs="397002.708625" HC_abs="66.858489" PMx_abs="8.409589" NOx_abs="169.361111" fuel_abs="170.658122" electricity_abs="0"/>
    </tripinfo>
    <tripinfo id="h3688c1:1" depart="57625.00" departLane="201201950#1_1" departPos="5.10" departSpeed="0.00" departDelay="0.00" arrival="57764.00" arrivalLane="32978638#0_1" arrivalPos="49.29" arrivalSpeed="15.22" duration="139.00" routeLength="1089.75" waitingTime="50.00" waitingCount="2" stopTime="0.00" timeLoss="66.76" rerouteNo="1" devices="tripinfo_h3688c1:1 routing_h3688c1:1 emissions_h3688c1:1" vType="default_016" speedFactor="1.11" vaporized="">
        <emissions CO_abs="10221.260481" CO2_abs="384683.742285" HC_abs="55.568103" PMx_abs="7.754315" NOx_abs="162.705810" fuel_abs="165.361370" electricity_abs="0"/>
    </tripinfo>
    <tripinfo id="carIn121703:1" depart="57647.00" departLane="386687232#0_1" departPos="5.10" departSpeed="0.00" departDelay="0.30" arrival="57764.00" arrivalLane="-315358244_1" arrivalPos="33.95" arrivalSpeed="11.91" duration="117.00" routeLength="1157.39" waitingTime="10.00" waitingCount="1" stopTime="0.00" timeLoss="23.94" rerouteNo="1" devices="tripinfo_carIn121703:1 routing_carIn121703:1 emissions_carIn121703:1" vType="default_016" speedFactor="0.91" vaporized="">
        <emissions CO_abs="4227.415804" CO2_abs="261225.843927" HC_abs="25.345289" PMx_abs="4.386133" NOx_abs="105.106659" fuel_abs="112.290369" electricity_abs="0"/>
    </tripinfo>
    <tripinfo id="h5979c1:5" depart="57669.00" departLane="399835085#1_1" departPos="5.10" departSpeed="0.00" departDelay="0.00" arrival="57772.00" arrivalLane="-315358254#1_1" arrivalPos="137.16" arrivalSpeed="12.37" duration="103.00" routeLength="659.33" waitingTime="12.00" waitingCount="1" stopTime="0.00" timeLoss="28.11" rerouteNo="1" devices="tripinfo_h5979c1:5 routing_h5979c1:5 emissions_h5979c1:5" vType="default_016" speedFactor="0.98" vaporized="">
        <emissions CO_abs="4957.208040" CO2_abs="203652.275212" HC_abs="27.264242" PMx_abs="3.461093" NOx_abs="83.393451" fuel_abs="87.543067" electricity_abs="0"/>
    </tripinfo>
    <tripinfo id="h317c2:1" depart="57707.00" departLane="-32978638#0_1" departPos="5.10" departSpeed="0.00" departDelay="0.10" arrival="57776.00" arrivalLane="-266565295#5_1" arrivalPos="172.76" arrivalSpeed="13.07" duration="69.00" routeLength="370.53" waitingTime="31.00" waitingCount="1" stopTime="0.00" timeLoss="40.36" rerouteNo="1" devices="tripinfo_h317c2:1 routing_h317c2:1 emissions_h317c2:1" vType="default_016" speedFactor="0.96" vaporized="">
        <emissions CO_abs="5838.017665" CO2_abs="174553.904377" HC_abs="30.687184" PMx_abs="3.602414" NOx_abs="74.973378" fuel_abs="75.035136" electricity_abs="0"/>
    </tripinfo>
    <tripinfo id="carIn30817:1" depart="57681.00" departLane="315358244_1" departPos="5.10" departSpeed="0.00" departDelay="0.20" arrival="57778.00" arrivalLane="447569997#1_1" arrivalPos="180.93" arrivalSpeed="8.52" duration="97.00" routeLength="718.04" waitingTime="26.00" waitingCount="2" stopTime="0.00" timeLoss="43.31" rerouteNo="1" devices="tripinfo_carIn30817:1 routing_carIn30817:1 emissions_carIn30817:1" vType="default_016" speedFactor="1.16" vaporized="">
        <emissions CO_abs="6289.491096" CO2_abs="244184.263115" HC_abs="34.385432" PMx_abs="4.751341" NOx_abs="102.855176" fuel_abs="104.965850" electricity_abs="0"/>
    </tripinfo>
    <tripinfo id="h330c1:1" depart="57736.00" departLane="-32978638#0_1" departPos="5.10" departSpeed="0.00" departDelay="0.20" arrival="57780.00" arrivalLane="-266565295#5_1" arrivalPos="172.76" arrivalSpeed="12.36" duration="44.00" routeLength="370.53" waitingTime="3.00" waitingCount="1" stopTime="0.00" timeLoss="12.63" rerouteNo="1" devices="tripinfo_h330c1:1 routing_h330c1:1 emissions_h330c1:1" vType="default_016" speedFactor="0.90" vaporized="">
        <emissions CO_abs="2072.925260" CO2_abs="117630.177355" HC_abs="12.182789" PMx_abs="2.016087" NOx_abs="47.854637" fuel_abs="50.564485" electricity_abs="0"/>
    </tripinfo>
    <tripinfo id="h3154c1:1" depart="57658.00" departLane="24634507_1" departPos="5.10" departSpeed="0.00" departDelay="0.00" arrival="57790.00" arrivalLane="-266565295#5_1" arrivalPos="172.76" arrivalSpeed="11.00" duration="132.00" routeLength="1206.22" waitingTime="11.00" waitingCount="1" stopTime="0.00" timeLoss="30.62" rerouteNo="1" devices="tripinfo_h3154c1:1 routing_h3154c1:1 emissions_h3154c1:1" vType="default_016" speedFactor="0.88" vaporized="">
        <emissions CO_abs="5535.345998" CO2_abs="318059.365817" HC_abs="32.625549" PMx_abs="5.436689" NOx_abs="129.147164" fuel_abs="136.720917" electricity_abs="0"/>
    </tripinfo>
    <tripinfo id="carIn27009:1" depart="57673.00" departLane="-447569998#1_1" departPos="5.10" departSpeed="0.00" departDelay="0.50" arrival="57792.00" arrivalLane="-26677539_1" arrivalPos="152.75" arrivalSpeed="6.57" duration="119.00" routeLength="699.63" waitingTime="10.00" waitingCount="1" stopTime="0.00" timeLoss="25.91" rerouteNo="1" devices="tripinfo_carIn27009:1 routing_carIn27009:1 emissions_carIn27009:1" vType="default_015" speedFactor="0.90" vaporized="">
        <emissions CO_abs="5774.851634" CO2_abs="217469.364770" HC_abs="31.265500" PMx_abs="3.600502" NOx_abs="88.901935" fuel_abs="93.483065" electricity_abs="0"/>
    </tripinfo>
    <tripinfo id="carIn48184:1" depart="57613.00" departLane="-306240162#1_0" departPos="5.10" departSpeed="0.00" departDelay="0.70" arrival="57796.00" arrivalLane="386687235_1" arrivalPos="80.84" arrivalSpeed="14.01" duration="183.00" routeLength="2257.41" waitingTime="14.00" waitingCount="2" stopTime="0.00" timeLoss="38.03" rerouteNo="1" devices="tripinfo_carIn48184:1 routing_carIn48184:1 emissions_carIn48184:1" vType="default_016" speedFactor="1.02" vaporized="">
        <emissions CO_abs="6750.085308" CO2_abs="494769.466367" HC_abs="42.262944" PMx_abs="8.598135" NOx_abs="197.323534" fuel_abs="212.680103" electricity_abs="0"/>
    </tripinfo>
    <tripinfo id="h16072c2:3" depart="57663.00" departLane="315358254#0_1" departPos="5.10" departSpeed="0.00" departDelay="2.50" arrival="57797.00" arrivalLane="386687235_2" arrivalPos="80.84" arrivalSpeed="13.78" duration="134.00" routeLength="1611.92" waitingTime="3.00" waitingCount="1" stopTime="0.00" timeLoss="24.21" rerouteNo="1" devices="tripinfo_h16072c2:3 routing_h16072c2:3 emissions_h16072c2:3" vType="default_016" speedFactor="1.07" vaporized="">
        <emissions CO_abs="4522.768568" CO2_abs="344745.416377" HC_abs="28.546619" PMx_abs="5.919420" NOx_abs="138.275826" fuel_abs="148.191035" electricity_abs="0"/>
    </tripinfo>
    <tripinfo id="carIn82220:1" depart="57618.00" departLane="-306240162#1_0" departPos="5.10" departSpeed="0.00" departDelay="2.50" arrival="57806.00" arrivalLane="386687235_1" arrivalPos="80.84" arrivalSpeed="12.16" duration="188.00" routeLength="2257.41" waitingTime="4.00" waitingCount="1" stopTime="0.00" timeLoss="31.37" rerouteNo="1" devices="tripinfo_carIn82220:1 routing_carIn82220:1 emissions_carIn82220:1" vType="default_016" speedFactor="0.95" vaporized="">
        <emissions CO_abs="6275.524425" CO2_abs="500034.943915" HC_abs="40.180937" PMx_abs="8.341603" NOx_abs="198.227306" fuel_abs="214.943464" electricity_abs="0"/>
    </tripinfo>
    <tripinfo id="h11737c1:1" depart="57665.00" departLane="272042143_1" departPos="5.10" departSpeed="0.00" departDelay="1.50" arrival="57808.00" arrivalLane="-315358254#1_1" arrivalPos="137.16" arrivalSpeed="12.05" duration="143.00" routeLength="1596.88" waitingTime="0.00" waitingCount="0" stopTime="0.00" timeLoss="15.13" rerouteNo="1" devices="tripinfo_h11737c1:1 routing_h11737c1:1 emissions_h11737c1:1" vType="default_016" speedFactor="0.91" vaporized="">
        <emissions CO_abs="4438.943222" CO2_abs="346117.970780" HC_abs="28.257548" PMx_abs="5.426554" NOx_abs="136.325520" fuel_abs="148.781683" electricity_abs="0"/>
    </tripinfo>
    <tripinfo id="carIn462:1" depart="57622.00" departLane="-306240162#1_0" departPos="5.10" departSpeed="0.00" departDelay="4.80" arrival="57810.00" arrivalLane="386687235_1" arrivalPos="80.84" arrivalSpeed="13.39" duration="188.00" routeLength="2257.41" waitingTime="4.00" waitingCount="1" stopTime="0.00" timeLoss="34.86" rerouteNo="1" devices="tripinfo_carIn462:1 routing_carIn462:1 emissions_carIn462:1" vType="default_016" speedFactor="0.98" vaporized="">
        <emissions CO_abs="7194.338173" CO2_abs="548503.710559" HC_abs="45.586549" PMx_abs="9.490062" NOx_abs="219.993655" fuel_abs="235.777815" electricity_abs="0"/>
    </tripinfo>
    <tripinfo id="carIn50326:1" depart="57651.00" departLane="128361102#0_1" departPos="5.10" departSpeed="0.00" departDelay="0.30" arrival="57810.00" arrivalLane="18809673#0_1" arrivalPos="473.56" arrivalSpeed="14.45" duration="159.00" routeLength="1591.07" waitingTime="20.00" waitingCount="1" stopTime="0.00" timeLoss="42.96" rerouteNo="1" devices="tripinfo_carIn50326:1 routing_carIn50326:1 emissions_carIn50326:1" vType="default_016" speedFactor="1.11" vaporized="">
        <emissions CO_abs="7135.137193" CO2_abs="398265.366258" HC_abs="41.611511" PMx_abs="6.938977" NOx_abs="160.820107" fuel_abs="171.198362" electricity_abs="0"/>
    </tripinfo>
    <tripinfo id="carIn86816:1" depart="57617.00" departLane="128361102#0_1" departPos="5.10" departSpeed="0.00" departDelay="0.80" arrival="57814.00" arrivalLane="201956811#0_1" arrivalPos="40.40" arrivalSpeed="12.59" duration="197.00" routeLength="2067.33" waitingTime="7.00" waitingCount="1" stopTime="0.00" timeLoss="29.54" rerouteNo="1" devices="tripinfo_carIn86816:1 routing_carIn86816:1 emissions_carIn86816:1" vType="default_016" speedFactor="0.91" vaporized="">
        <emissions CO_abs="5944.289145" CO2_abs="440228.668094" HC_abs="37.296551" PMx_abs="6.948439" NOx_abs="173.879594" fuel_abs="189.236112" electricity_abs="0"/>
    </tripinfo>
    <tripinfo id="randUni15030:1" depart="57735.00" departLane="386687232#0_1" departPos="5.10" departSpeed="0.00" departDelay="0.10" arrival="57818.00" arrivalLane="26677539_1" arrivalPos="151.98" arrivalSpeed="9.62" duration="83.00" routeLength="919.89" waitingTime="0.00" waitingCount="0" stopTime="0.00" timeLoss="10.98" rerouteNo="1" devices="tripinfo_randUni15030:1 routing_randUni15030:1 emissions_randUni15030:1" vType="random_016" speedFactor="1.17" vaporized="">
        <emissions CO_abs="3199.553258" CO2_abs="219881.982424" HC_abs="19.615822" PMx_abs="3.795444" NOx_abs="88.675320" fuel_abs="94.517884" electricity_abs="0"/>
    </tripinfo>
    <tripinfo id="carIn12858:1" depart="57661.00" departLane="128361109#1_1" departPos="5.10" departSpeed="0.00" departDelay="0.90" arrival="57819.00" arrivalLane="399835085#1_1" arrivalPos="212.23" arrivalSpeed="9.07" duration="158.00" routeLength="1738.12" waitingTime="24.00" waitingCount="2" stopTime="0.00" timeLoss="56.74" rerouteNo="1" devices="tripinfo_carIn12858:1 routing_carIn12858:1 emissions_carIn12858:1" vType="default_016" speedFactor="1.14" vaporized="">
        <emissions CO_abs="11223.475313" CO2_abs="581848.263498" HC_abs="65.038351" PMx_abs="11.816732" NOx_abs="243.921642" fuel_abs="250.111678" electricity_abs="0"/>
    </tripinfo>
    <tripinfo id="carIn107282:1" depart="57749.00" departLane="-447569998#1_1" departPos="5.10" departSpeed="0.00" departDelay="0.00" arrival="57819.00" arrivalLane="315358242#0_1" arrivalPos="165.37" arrivalSpeed="11.21" duration="70.00" routeLength="448.50" waitingTime="13.00" waitingCount="1" stopTime="0.00" timeLoss="21.10" rerouteNo="1" devices="tripinfo_carIn107282:1 routing_carIn107282:1 emissions_carIn107282:1" vType="default_016" speedFactor="0.86" vaporized="">
        <emissions CO_abs="3790.115821" CO2_abs="138985.580852" HC_abs="20.472123" PMx_abs="2.475541" NOx_abs="57.478114" fuel_abs="59.745285" electricity_abs="0"/>
    </tripinfo>
    <tripinfo id="h9563c2:5" depart="57631.00" departLane="315358244_1" departPos="5.10" departSpeed="0.00" departDelay="0.70" arrival="57829.00" arrivalLane="386687235_1" arrivalPos="80.84" arrivalSpeed="15.18" duration="198.00" routeLength="1186.14" waitingTime="92.00" waitingCount="3" stopTime="0.00" timeLoss="120.15" rerouteNo="1" devices="tripinfo_h9563c2:5 routing_h9563c2:5 emissions_h9563c2:5" vType="default_016" speedFactor="1.12" vaporized="">
        <emissions CO_abs="18157.495999" CO2_abs="540132.519778" HC_abs="95.382745" PMx_abs="11.310092" NOx_abs="231.723104" fuel_abs="232.185642" electricity_abs="0"/>
    </tripinfo>
    <tripinfo id="h5216c1:1" depart="57664.00" departLane="224892339#0_1" departPos="5.10" departSpeed="0.00" departDelay="0.00" arrival="57832.00" arrivalLane="386687235_2" arrivalPos="80.84" arrivalSpeed="13.38" duration="168.00" routeLength="1823.78" waitingTime="12.00" waitingCount="2" stopTime="0.00" timeLoss="41.81" rerouteNo="1" devices="tripinfo_h5216c1:1 routing_h5216c1:1 emissions_h5216c1:1" vType="default_016" speedFactor="1.02" vaporized="">
        <emissions CO_abs="7144.524404" CO2_abs="475947.956660" HC_abs="43.741656" PMx_abs="8.424612" NOx_abs="193.222343" fuel_abs="204.589645" electricity_abs="0"/>
    </tripinfo>
    <tripinfo id="h645c1:1" depart="57622.00" departLane="266565295#5_1" departPos="5.10" departSpeed="0.00" departDelay="0.40" arrival="57833.00" arrivalLane="-315358244_2" arrivalPos="33.95" arrivalSpeed="14.14" duration="211.00" routeLength="1910.83" waitingTime="45.00" waitingCount="4" stopTime="0.00" timeLoss="80.96" rerouteNo="1" devices="tripinfo_h645c1:1 routing_h645c1:1 emissions_h645c1:1" vType="default_016" speedFactor="1.07" vaporized="">
        <emissions CO_abs="9918.382715" CO2_abs="518479.476520" HC_abs="57.193712" PMx_abs="9.495779" NOx_abs="212.454878" fuel_abs="222.873441" electricity_abs="0"/>
    </tripinfo>
    <tripinfo id="carIn129809:1" depart="57729.00" departLane="-447569998#1_1" departPos="5.10" departSpeed="0.00" departDelay="1.00" arrival="57833.00" arrivalLane="-315358244_1" arrivalPos="33.95" arrivalSpeed="14.35" duration="104.00" routeLength="706.49" waitingTime="31.00" waitingCount="2" stopTime="0.00" timeLoss="45.77" rerouteNo="1" devices="tripinfo_carIn129809:1 routing_carIn129809:1 emissions_carIn129809:1" vType="default_015" speedFactor="1.03" vaporized="">
        <emissions CO_abs="6973.305099" CO2_abs="250646.996987" HC_abs="37.610090" PMx_abs="4.799903" NOx_abs="104.949802" fuel_abs="107.744514" electricity_abs="0"/>
    </tripinfo>
    <tripinfo id="carIn116184:1" depart="57627.00" departLane="-306240162#1_0" departPos="5.10" departSpeed="0.00" departDelay="0.10" arrival="57834.00" arrivalLane="386687235_1" arrivalPos="80.84" arrivalSpeed="13.29" duration="207.00" routeLength="2257.41" waitingTime="20.00" waitingCount="3" stopTime="0.00" timeLoss="65.77" rerouteNo="1" devices="tripinfo_carIn116184:1 routing_carIn116184:1 emissions_carIn116184:1" vType="default_016" speedFactor="1.05" vaporized="">
        <emissions CO_abs="9548.406152" CO2_abs="590548.736688" HC_abs="57.466383" PMx_abs="11.037063" NOx_abs="242.778060" fuel_abs="253.851378" electricity_abs="0"/>
    </tripinfo>
    <tripinfo id="carIn85747:1" depart="57673.00" departLane="128361109#1_1" departPos="5.10" departSpeed="0.00" departDelay="0.70" arrival="57836.00" arrivalLane="386687235_1" arrivalPos="80.84" arrivalSpeed="13.21" duration="163.00" routeLength="2088.57" waitingTime="0.00" waitingCount="0" stopTime="0.00" timeLoss="12.77" rerouteNo="1" devices="tripinfo_carIn85747:1 routing_carIn85747:1 emissions_carIn85747:1" vType="default_016" speedFactor="1.01" vaporized="">
        <emissions CO_abs="3351.787579" CO2_abs="360008.712842" HC_abs="23.554600" PMx_abs="5.140124" NOx_abs="136.341477" fuel_abs="154.752641" electricity_abs="0"/>
    </tripinfo>
    <tripinfo id="carIn126288:1" depart="57674.00" departLane="272042143_1" departPos="5.10" departSpeed="0.00" departDelay="0.00" arrival="57838.00" arrivalLane="-315358254#1_1" arrivalPos="137.16" arrivalSpeed="11.92" duration="164.00" routeLength="1596.88" waitingTime="13.00" waitingCount="1" stopTime="0.00" timeLoss="29.36" rerouteNo="1" devices="tripinfo_carIn126288:1 routing_carIn126288:1 emissions_carIn126288:1" vType="default_016" speedFactor="0.86" vaporized="">
        <emissions CO_abs="5837.113064" CO2_abs="348504.789191" HC_abs="34.620018" PMx_abs="5.404085" NOx_abs="137.287615" fuel_abs="149.808896" electricity_abs="0"/>
    </tripinfo>
    <tripinfo id="carIn107084:1" depart="57601.00" departLane="124812856#0_1" departPos="5.10" departSpeed="0.00" departDelay="0.70" arrival="57839.00" arrivalLane="-128361102#1_1" arrivalPos="274.68" arrivalSpeed="12.49" duration="238.00" routeLength="2250.49" waitingTime="29.00" waitingCount="2" stopTime="0.00" timeLoss="57.42" rerouteNo="1" devices="tripinfo_carIn107084:1 routing_carIn107084:1 emissions_carIn107084:1" vType="default_016" speedFactor="0.91" vaporized="">
        <emissions CO_abs="10132.676434" CO2_abs="548597.094650" HC_abs="58.913070" PMx_abs="9.261931" NOx_abs="220.999083" fuel_abs="235.820587" electricity_abs="0"/>
    </tripinfo>
    <tripinfo id="carIn82278:1" depart="57702.00" departLane="-306240162#1_0" departPos="5.10" departSpeed="0.00" departDelay="0.70" arrival="57840.00" arrivalLane="399835085#1_1" arrivalPos="212.23" arrivalSpeed="8.69" duration="138.00" routeLength="1093.26" waitingTime="23.00" waitingCount="4" stopTime="0.00" timeLoss="64.23" rerouteNo="1" devices="tripinfo_carIn82278:1 routing_carIn82278:1 emissions_carIn82278:1" vType="default_016" speedFactor="1.07" vaporized="">
        <emissions CO_abs="8278.738810" CO2_abs="400731.284562" HC_abs="47.229567" PMx_abs="7.933063" NOx_abs="168.778384" fuel_abs="172.257805" electricity_abs="0"/>
    </tripinfo>
    <tripinfo id="carIn12365:1" depart="57713.00" departLane="315358244_1" departPos="5.10" departSpeed="0.00" departDelay="0.50" arrival="57840.00" arrivalLane="447569997#1_1" arrivalPos="180.93" arrivalSpeed="8.18" duration="127.00" routeLength="718.04" waitingTime="58.00" waitingCount="1" stopTime="0.00" timeLoss="70.01" rerouteNo="1" devices="tripinfo_carIn12365:1 routing_carIn12365:1 emissions_carIn12365:1" vType="default_016" speedFactor="1.08" vaporized="">
        <emissions CO_abs="11271.059991" CO2_abs="310135.343755" HC_abs="58.536187" PMx_abs="6.314563" NOx_abs="132.104996" fuel_abs="133.318207" electricity_abs="0"/>
    </tripinfo>
    <tripinfo id="carIn28951:1" depart="57606.00" departLane="10425609#0_1" departPos="5.10" departSpeed="0.00" departDelay="0.20" arrival="57841.00" arrivalLane="-128361102#1_1" arrivalPos="274.68" arrivalSpeed="12.67" duration="235.00" routeLength="2113.04" waitingTime="31.00" waitingCount="3" stopTime="0.00" timeLoss="67.48" rerouteNo="1" devices="tripinfo_carIn28951:1 routing_carIn28951:1 emissions_carIn28951:1" vType="default_016" speedFactor="0.93" vaporized="">
        <emissions CO_abs="10801.605938" CO2_abs="570773.691903" HC_abs="62.567713" PMx_abs="10.187988" NOx_abs="233.907895" fuel_abs="245.352782" electricity_abs="0"/>
    </tripinfo>
    <tripinfo id="carIn77943:1" depart="57608.00" departLane="124812856#0_1" departPos="5.10" departSpeed="0.00" departDelay="2.50" arrival="57843.00" arrivalLane="-128361102#1_1" arrivalPos="274.68" arrivalSpeed="13.44" duration="235.00" routeLength="2250.49" waitingTime="39.00" waitingCount="3" stopTime="0.00" timeLoss="74.73" rerouteNo="1" devices="tripinfo_carIn77943:1 routing_carIn77943:1 emissions_carIn77943:1" vType="default_016" speedFactor="1.03" vaporized="">
        <emissions CO_abs="11327.918338" CO2_abs="602750.051217" HC_abs="65.644742" PMx_abs="10.751029" NOx_abs="245.605528" fuel_abs="259.098208" electricity_abs="0"/>
    </tripinfo>
    <tripinfo id="h9953c2:3" depart="57682.00" departLane="-54169231#2_1" departPos="5.10" departSpeed="0.00" departDelay="0.00" arrival="57845.00" arrivalLane="386687235_1" arrivalPos="80.84" arrivalSpeed="13.22" duration="163.00" routeLength="1535.60" waitingTime="11.00" waitingCount="1" stopTime="0.00" timeLoss="33.50" rerouteNo="1" devices="tripinfo_h9953c2:3 routing_h9953c2:3 emissions_h9953c2:3" vType="default_016" speedFactor="0.97" vaporized="">
        <emissions CO_abs="6380.735868" CO2_abs="384167.502122" HC_abs="38.011122" PMx_abs="6.599115" NOx_abs="155.951061" fuel_abs="165.137853" electricity_abs="0"/>
    </tripinfo>
    <tripinfo id="50R_frequency3.17" depart="57674.00" departLane="-18809673#6_1" departPos="12.10" departSpeed="0.00" departDelay="0.70" arrival="57847.00" arrivalLane="201956811#0_1" arrivalPos="40.40" arrivalSpeed="13.57" duration="173.00" routeLength="1954.47" waitingTime="4.00" waitingCount="1" stopTime="0.00" timeLoss="27.84" rerouteNo="1" devices="tripinfo_50R_frequency3.17 routing_50R_frequency3.17 emissions_50R_frequency3.17" vType="bus" speedFactor="1.00" vaporized="">
        <emissions CO_abs="3328.259048" CO2_abs="2127887.607273" HC_abs="693.033657" PMx_abs="357.358074" NOx_abs="16403.234341" fuel_abs="907.528162" electricity_abs="0"/>
    </tripinfo>