<?xml version="1.0" encoding="UTF-8"?>

<!-- generated on 2021-10-26 14:45:34 by Eclipse SUMO sumo Version 1.10.0
<configuration xmlns:xsi="http://www.w3.org/2001/XMLSchema-instance" xsi:noNamespaceSchemaLocation="http://sumo.dlr.de/xsd/sumoConfiguration.xsd">

    <input>
        <net-file value="/Users/behradkoohy/sumo-scratchpad/RESCO/environments/ingolstadt21/ingolstadt21.net.xml"/>
        <route-files value="/Users/behradkoohy/sumo-scratchpad/RESCO/environments/ingolstadt21/ingolstadt21.rou.xml"/>
    </input>

    <output>
        <tripinfo-output value="/Users/behradkoohy/sumo-scratchpad/RESCO/logs/STOCHASTIC-tr0-ingolstadt21-21-mplight-wait/tripinfo_85.xml"/>
        <tripinfo-output.write-unfinished value="true"/>
    </output>

    <time>
        <begin value="57600"/>
        <end value="61200"/>
    </time>

    <processing>
        <time-to-teleport value="-1"/>
    </processing>

    <report>
        <no-warnings value="true"/>
        <no-step-log value="true"/>
    </report>

    <emissions>
        <device.emissions.probability value="1"/>
    </emissions>

    <traci_server>
        <remote-port value="60707"/>
    </traci_server>

    <random_number>
        <random value="true"/>
    </random_number>

</configuration>
-->

<tripinfos xmlns:xsi="http://www.w3.org/2001/XMLSchema-instance" xsi:noNamespaceSchemaLocation="http://sumo.dlr.de/xsd/tripinfo_file.xsd">
    <tripinfo id="h15454c2:3" depart="57612.00" departLane="24608844_1" departPos="5.10" departSpeed="0.00" departDelay="0.50" arrival="57646.00" arrivalLane="32978638#0_1" arrivalPos="49.29" arrivalSpeed="15.27" duration="34.00" routeLength="354.79" waitingTime="0.00" waitingCount="0" stopTime="0.00" timeLoss="5.03" rerouteNo="1" devices="tripinfo_h15454c2:3 routing_h15454c2:3 emissions_h15454c2:3" vType="default_016" speedFactor="1.17" vaporized="">
        <emissions CO_abs="1743.057949" CO2_abs="106036.735575" HC_abs="10.442292" PMx_abs="1.946409" NOx_abs="43.757664" fuel_abs="45.580649" electricity_abs="0"/>
    </tripinfo>
    <tripinfo id="carIn60260:1" depart="57606.00" departLane="315358254#0_1" departPos="5.10" departSpeed="0.00" departDelay="0.90" arrival="57653.00" arrivalLane="399835085#1_1" arrivalPos="212.23" arrivalSpeed="8.44" duration="47.00" routeLength="430.98" waitingTime="0.00" waitingCount="0" stopTime="0.00" timeLoss="6.62" rerouteNo="1" devices="tripinfo_carIn60260:1 routing_carIn60260:1 emissions_carIn60260:1" vType="default_016" speedFactor="1.15" vaporized="">
        <emissions CO_abs="1973.494919" CO2_abs="110103.865266" HC_abs="11.553742" PMx_abs="1.900740" NOx_abs="45.036966" fuel_abs="47.329218" electricity_abs="0"/>
    </tripinfo>
    <tripinfo id="carIn53971:1" depart="57640.00" departLane="272042143_1" departPos="5.10" departSpeed="0.00" departDelay="0.80" arrival="57700.00" arrivalLane="24634414#1_1" arrivalPos="162.19" arrivalSpeed="6.22" duration="60.00" routeLength="493.04" waitingTime="0.00" waitingCount="0" stopTime="0.00" timeLoss="8.34" rerouteNo="1" devices="tripinfo_carIn53971:1 routing_carIn53971:1 emissions_carIn53971:1" vType="default_016" speedFactor="0.88" vaporized="">
        <emissions CO_abs="2517.161387" CO2_abs="128733.204657" HC_abs="14.454006" PMx_abs="2.215461" NOx_abs="52.743772" fuel_abs="55.337397" electricity_abs="0"/>
    </tripinfo>
    <tripinfo id="h7181c1:1" depart="57660.00" departLane="315358254#0_1" departPos="5.10" departSpeed="0.00" departDelay="0.10" arrival="57720.00" arrivalLane="306240162#0_0" arrivalPos="220.43" arrivalSpeed="15.62" duration="60.00" routeLength="932.35" waitingTime="0.00" waitingCount="0" stopTime="0.00" timeLoss="9.25" rerouteNo="1" devices="tripinfo_h7181c1:1 routing_h7181c1:1 emissions_h7181c1:1" vType="default_016" speedFactor="1.01" vaporized="">
        <emissions CO_abs="3242.135606" CO2_abs="241946.209503" HC_abs="20.558419" PMx_abs="4.711447" NOx_abs="98.949071" fuel_abs="104.001534" electricity_abs="0"/>
    </tripinfo>
    <tripinfo id="h3568c1:3" depart="57656.00" departLane="266565295#5_1" departPos="5.10" departSpeed="0.00" departDelay="0.80" arrival="57739.00" arrivalLane="-24634415_1" arrivalPos="62.03" arrivalSpeed="13.75" duration="83.00" routeLength="807.40" waitingTime="3.00" waitingCount="1" stopTime="0.00" timeLoss="20.34" rerouteNo="1" devices="tripinfo_h3568c1:3 routing_h3568c1:3 emissions_h3568c1:3" vType="default_016" speedFactor="1.04" vaporized="">
        <emissions CO_abs="4037.535904" CO2_abs="245141.025720" HC_abs="24.164098" PMx_abs="4.499424" NOx_abs="101.429805" fuel_abs="105.375599" electricity_abs="0"/>
    </tripinfo>
    <tripinfo id="h4538c1:1" depart="57701.00" departLane="-10427692#1_1" departPos="5.10" departSpeed="0.00" departDelay="0.00" arrival="57739.00" arrivalLane="-128361102#1_1" arrivalPos="274.68" arrivalSpeed="13.48" duration="38.00" routeLength="440.74" waitingTime="0.00" waitingCount="0" stopTime="0.00" timeLoss="6.84" rerouteNo="1" devices="tripinfo_h4538c1:1 routing_h4538c1:1 emissions_h4538c1:1" vType="default_016" speedFactor="1.01" vaporized="">
        <emissions CO_abs="1422.088291" CO2_abs="103009.839095" HC_abs="8.868654" PMx_abs="1.653299" NOx_abs="40.704696" fuel_abs="44.279673" electricity_abs="0"/>
    </tripinfo>
    <tripinfo id="h317c2:1" depart="57707.00" departLane="-32978638#0_1" departPos="5.10" departSpeed="0.00" departDelay="0.10" arrival="57740.00" arrivalLane="-266565295#5_1" arrivalPos="172.76" arrivalSpeed="13.54" duration="33.00" routeLength="370.53" waitingTime="0.00" waitingCount="0" stopTime="0.00" timeLoss="5.59" rerouteNo="1" devices="tripinfo_h317c2:1 routing_h317c2:1 emissions_h317c2:1" vType="default_016" speedFactor="1.02" vaporized="">
        <emissions CO_abs="1546.834901" CO2_abs="100919.967609" HC_abs="9.425377" PMx_abs="1.820662" NOx_abs="41.428090" fuel_abs="43.381123" electricity_abs="0"/>
    </tripinfo>
    <tripinfo id="h3688c1:1" depart="57625.00" departLane="201201950#1_1" departPos="5.10" departSpeed="0.00" departDelay="0.00" arrival="57745.00" arrivalLane="32978638#0_1" arrivalPos="49.29" arrivalSpeed="11.43" duration="120.00" routeLength="1089.75" waitingTime="10.00" waitingCount="1" stopTime="0.00" timeLoss="27.62" rerouteNo="1" devices="tripinfo_h3688c1:1 routing_h3688c1:1 emissions_h3688c1:1" vType="default_016" speedFactor="0.87" vaporized="">
        <emissions CO_abs="5451.052484" CO2_abs="291512.921165" HC_abs="31.632270" PMx_abs="5.093158" NOx_abs="119.069145" fuel_abs="125.309825" electricity_abs="0"/>
    </tripinfo>
    <tripinfo id="carIn121703:1" depart="57647.00" departLane="386687232#0_1" departPos="5.10" departSpeed="0.00" departDelay="0.30" arrival="57746.00" arrivalLane="-315358244_1" arrivalPos="33.95" arrivalSpeed="12.95" duration="99.00" routeLength="1157.39" waitingTime="0.00" waitingCount="0" stopTime="0.00" timeLoss="11.32" rerouteNo="1" devices="tripinfo_carIn121703:1 routing_carIn121703:1 emissions_carIn121703:1" vType="default_016" speedFactor="0.97" vaporized="">
        <emissions CO_abs="2915.597632" CO2_abs="243039.588275" HC_abs="18.917783" PMx_abs="3.727507" NOx_abs="94.724062" fuel_abs="104.472587" electricity_abs="0"/>
    </tripinfo>
    <tripinfo id="h3154c1:1" depart="57658.00" departLane="24634507_1" departPos="5.10" departSpeed="0.00" departDelay="0.00" arrival="57756.00" arrivalLane="-266565295#5_1" arrivalPos="172.76" arrivalSpeed="15.32" duration="98.00" routeLength="1206.22" waitingTime="5.00" waitingCount="1" stopTime="0.00" timeLoss="22.23" rerouteNo="1" devices="tripinfo_h3154c1:1 routing_h3154c1:1 emissions_h3154c1:1" vType="default_016" speedFactor="1.19" vaporized="">
        <emissions CO_abs="4538.783428" CO2_abs="323530.749576" HC_abs="28.160524" PMx_abs="6.003270" NOx_abs="132.523467" fuel_abs="139.071346" electricity_abs="0"/>
    </tripinfo>
    <tripinfo id="carIn30817:1" depart="57681.00" departLane="315358244_1" departPos="5.10" departSpeed="0.00" departDelay="0.20" arrival="57759.00" arrivalLane="447569997#1_1" arrivalPos="180.93" arrivalSpeed="8.28" duration="78.00" routeLength="718.04" waitingTime="2.00" waitingCount="1" stopTime="0.00" timeLoss="19.65" rerouteNo="1" devices="tripinfo_carIn30817:1 routing_carIn30817:1 emissions_carIn30817:1" vType="default_016" speedFactor="1.05" vaporized="">
        <emissions CO_abs="3332.500337" CO2_abs="181871.043099" HC_abs="19.393012" PMx_abs="3.145976" NOx_abs="74.134456" fuel_abs="78.179116" electricity_abs="0"/>
    </tripinfo>
    <tripinfo id="h3326c1:2" depart="57656.00" departLane="22716069#0_1" departPos="5.10" departSpeed="0.00" departDelay="0.00" arrival="57763.00" arrivalLane="24634517#13_1" arrivalPos="111.62" arrivalSpeed="13.98" duration="107.00" routeLength="1312.81" waitingTime="0.00" waitingCount="0" stopTime="0.00" timeLoss="15.33" rerouteNo="1" devices="tripinfo_h3326c1:2 routing_h3326c1:2 emissions_h3326c1:2" vType="default_016" speedFactor="1.07" vaporized="">
        <emissions CO_abs="4214.837396" CO2_abs="309847.392133" HC_abs="26.421533" PMx_abs="5.535610" NOx_abs="126.156537" fuel_abs="133.189653" electricity_abs="0"/>
    </tripinfo>
    <tripinfo id="h5979c1:5" depart="57669.00" departLane="399835085#1_1" departPos="5.10" departSpeed="0.00" departDelay="0.00" arrival="57765.00" arrivalLane="-315358254#1_1" arrivalPos="137.16" arrivalSpeed="15.54" duration="96.00" routeLength="659.33" waitingTime="0.00" waitingCount="0" stopTime="0.00" timeLoss="32.13" rerouteNo="1" devices="tripinfo_h5979c1:5 routing_h5979c1:5 emissions_h5979c1:5" vType="default_016" speedFactor="1.14" vaporized="">
        <emissions CO_abs="4904.964344" CO2_abs="214108.294139" HC_abs="27.312180" PMx_abs="3.834803" NOx_abs="89.008821" fuel_abs="92.037179" electricity_abs="0"/>
    </tripinfo>
    <tripinfo id="h330c1:1" depart="57736.00" departLane="-32978638#0_1" departPos="5.10" departSpeed="0.00" departDelay="0.20" arrival="57771.00" arrivalLane="-266565295#5_1" arrivalPos="172.76" arrivalSpeed="12.10" duration="35.00" routeLength="370.53" waitingTime="0.00" waitingCount="0" stopTime="0.00" timeLoss="5.56" rerouteNo="1" devices="tripinfo_h330c1:1 routing_h330c1:1 emissions_h330c1:1" vType="default_016" speedFactor="0.93" vaporized="">
        <emissions CO_abs="1581.417388" CO2_abs="103120.947905" HC_abs="9.614637" PMx_abs="1.762904" NOx_abs="41.789679" fuel_abs="44.327370" electricity_abs="0"/>
    </tripinfo>
    <tripinfo id="carIn22761:1" depart="57616.00" departLane="-306240162#1_0" departPos="5.10" departSpeed="0.00" departDelay="2.10" arrival="57773.00" arrivalLane="399835085#1_1" arrivalPos="212.23" arrivalSpeed="7.59" duration="157.00" routeLength="1093.26" waitingTime="55.00" waitingCount="2" stopTime="0.00" timeLoss="82.20" rerouteNo="1" devices="tripinfo_carIn22761:1 routing_carIn22761:1 emissions_carIn22761:1" vType="default_016" speedFactor="1.04" vaporized="">
        <emissions CO_abs="12943.619749" CO2_abs="450840.382123" HC_abs="69.599195" PMx_abs="9.375446" NOx_abs="192.482272" fuel_abs="193.800075" electricity_abs="0"/>
    </tripinfo>
    <tripinfo id="h12244c1:3" depart="57612.00" departLane="315358244_1" departPos="5.10" departSpeed="0.00" departDelay="0.40" arrival="57786.00" arrivalLane="386687235_1" arrivalPos="80.84" arrivalSpeed="13.13" duration="174.00" routeLength="1186.14" waitingTime="69.00" waitingCount="1" stopTime="0.00" timeLoss="85.41" rerouteNo="1" devices="tripinfo_h12244c1:3 routing_h12244c1:3 emissions_h12244c1:3" vType="default_016" speedFactor="0.98" vaporized="">
        <emissions CO_abs="13972.487352" CO2_abs="434558.541582" HC_abs="73.822934" PMx_abs="8.709191" NOx_abs="184.077830" fuel_abs="186.802817" electricity_abs="0"/>
    </tripinfo>
    <tripinfo id="carIn12365:1" depart="57713.00" departLane="315358244_1" departPos="5.10" departSpeed="0.00" departDelay="0.50" arrival="57787.00" arrivalLane="447569997#1_1" arrivalPos="180.93" arrivalSpeed="8.55" duration="74.00" routeLength="718.04" waitingTime="9.00" waitingCount="1" stopTime="0.00" timeLoss="20.50" rerouteNo="1" devices="tripinfo_carIn12365:1 routing_carIn12365:1 emissions_carIn12365:1" vType="default_016" speedFactor="1.16" vaporized="">
        <emissions CO_abs="3691.253106" CO2_abs="193144.406549" HC_abs="21.234312" PMx_abs="3.469064" NOx_abs="78.813421" fuel_abs="83.025082" electricity_abs="0"/>
    </tripinfo>
    <tripinfo id="h7800c1:5" depart="57696.00" departLane="-447569998#1_1" departPos="5.10" departSpeed="0.00" departDelay="0.00" arrival="57805.00" arrivalLane="-447569998#1_2" arrivalPos="180.76" arrivalSpeed="3.33" duration="109.00" routeLength="175.66" waitingTime="80.00" waitingCount="1" stopTime="0.00" timeLoss="87.47" rerouteNo="1" devices="tripinfo_h7800c1:5 routing_h7800c1:5 emissions_h7800c1:5" vType="default_016" speedFactor="0.99" vaporized="">
        <emissions CO_abs="13721.267402" CO2_abs="254207.884809" HC_abs="68.422023" PMx_abs="5.920257" NOx_abs="113.919912" fuel_abs="109.279230" electricity_abs="0"/>
    </tripinfo>
    <tripinfo id="carIn28951:1" depart="57606.00" departLane="10425609#0_1" departPos="5.10" departSpeed="0.00" departDelay="0.20" arrival="57806.00" arrivalLane="-128361102#1_1" arrivalPos="274.68" arrivalSpeed="15.89" duration="200.00" routeLength="2095.01" waitingTime="40.00" waitingCount="2" stopTime="0.00" timeLoss="67.73" rerouteNo="1" devices="tripinfo_carIn28951:1 routing_carIn28951:1 emissions_carIn28951:1" vType="default_016" speedFactor="1.17" vaporized="">
        <emissions CO_abs="11729.110618" CO2_abs="564666.197379" HC_abs="66.633738" PMx_abs="10.801496" NOx_abs="233.422105" fuel_abs="242.727448" electricity_abs="0"/>
    </tripinfo>
    <tripinfo id="S5R_frequency1.2" depart="57616.00" departLane="315358250#0_1" departPos="12.10" departSpeed="0.00" departDelay="4.40" arrival="57807.00" arrivalLane="386687235_1" arrivalPos="80.84" arrivalSpeed="12.85" duration="191.00" routeLength="1115.62" waitingTime="83.00" waitingCount="2" stopTime="0.00" timeLoss="109.80" rerouteNo="1" devices="tripinfo_S5R_frequency1.2 routing_S5R_frequency1.2 emissions_S5R_frequency1.2" vType="bus" speedFactor="1.00" vaporized="">
        <emissions CO_abs="3714.332383" CO2_abs="1711866.783662" HC_abs="823.991659" PMx_abs="384.525926" NOx_abs="14946.160339" fuel_abs="729.890252" electricity_abs="0"/>
    </tripinfo>
    <tripinfo id="h9563c2:5" depart="57631.00" departLane="315358244_1" departPos="5.10" departSpeed="0.00" departDelay="0.70" arrival="57810.00" arrivalLane="386687235_1" arrivalPos="80.84" arrivalSpeed="12.08" duration="179.00" routeLength="1186.14" waitingTime="60.00" waitingCount="2" stopTime="0.00" timeLoss="84.26" rerouteNo="1" devices="tripinfo_h9563c2:5 routing_h9563c2:5 emissions_h9563c2:5" vType="default_016" speedFactor="0.92" vaporized="">
        <emissions CO_abs="12651.846100" CO2_abs="402408.208681" HC_abs="66.988028" PMx_abs="7.689111" NOx_abs="168.234485" fuel_abs="172.982725" electricity_abs="0"/>
    </tripinfo>
    <tripinfo id="h20540c1:1" depart="57634.00" departLane="10425609#0_1" departPos="5.10" departSpeed="0.00" departDelay="0.50" arrival="57817.00" arrivalLane="-128361102#1_1" arrivalPos="274.68" arrivalSpeed="14.30" duration="183.00" routeLength="2113.04" waitingTime="13.00" waitingCount="2" stopTime="0.00" timeLoss="39.43" rerouteNo="1" devices="tripinfo_h20540c1:1 routing_h20540c1:1 emissions_h20540c1:1" vType="default_016" speedFactor="1.08" vaporized="">
        <emissions CO_abs="7040.003062" CO2_abs="468252.180412" HC_abs="42.937949" PMx_abs="8.085848" NOx_abs="187.791803" fuel_abs="201.281960" electricity_abs="0"/>
    </tripinfo>
    <tripinfo id="carIn50326:1" depart="57651.00" departLane="128361102#0_1" departPos="5.10" departSpeed="0.00" departDelay="0.30" arrival="57817.00" arrivalLane="18809673#0_1" arrivalPos="473.56" arrivalSpeed="12.82" duration="166.00" routeLength="1591.07" waitingTime="8.00" waitingCount="1" stopTime="0.00" timeLoss="29.88" rerouteNo="1" devices="tripinfo_carIn50326:1 routing_carIn50326:1 emissions_carIn50326:1" vType="default_016" speedFactor="0.95" vaporized="">
        <emissions CO_abs="5819.704760" CO2_abs="359100.489381" HC_abs="34.824476" PMx_abs="5.794109" NOx_abs="142.959331" fuel_abs="154.363065" electricity_abs="0"/>
    </tripinfo>
    <tripinfo id="carIn12858:1" depart="57661.00" departLane="128361109#1_1" departPos="5.10" departSpeed="0.00" departDelay="0.90" arrival="57821.00" arrivalLane="399835085#1_1" arrivalPos="212.23" arrivalSpeed="7.98" duration="160.00" routeLength="1738.12" waitingTime="20.00" waitingCount="2" stopTime="0.00" timeLoss="54.17" rerouteNo="1" devices="tripinfo_carIn12858:1 routing_carIn12858:1 emissions_carIn12858:1" vType="default_016" speedFactor="1.09" vaporized="">
        <emissions CO_abs="9471.886365" CO2_abs="520894.442205" HC_abs="55.620659" PMx_abs="10.497122" NOx_abs="218.289231" fuel_abs="223.909828" electricity_abs="0"/>
    </tripinfo>
    <tripinfo id="carIn81860:1" depart="57712.00" departLane="128361102#0_1" departPos="5.10" departSpeed="0.00" departDelay="0.60" arrival="57822.00" arrivalLane="-24634517#17_1" arrivalPos="6.43" arrivalSpeed="7.84" duration="110.00" routeLength="1229.64" waitingTime="2.00" waitingCount="1" stopTime="0.00" timeLoss="21.94" rerouteNo="1" devices="tripinfo_carIn81860:1 routing_carIn81860:1 emissions_carIn81860:1" vType="default_016" speedFactor="1.02" vaporized="">
        <emissions CO_abs="3560.581349" CO2_abs="248833.709616" HC_abs="22.003563" PMx_abs="4.173346" NOx_abs="99.523724" fuel_abs="106.963154" electricity_abs="0"/>
    </tripinfo>
    <tripinfo id="carIn86816:1" depart="57617.00" departLane="128361102#0_1" departPos="5.10" departSpeed="0.00" departDelay="0.80" arrival="57826.00" arrivalLane="201956811#0_1" arrivalPos="40.40" arrivalSpeed="11.89" duration="209.00" routeLength="2067.33" waitingTime="19.00" waitingCount="1" stopTime="0.00" timeLoss="41.54" rerouteNo="1" devices="tripinfo_carIn86816:1 routing_carIn86816:1 emissions_carIn86816:1" vType="default_016" speedFactor="0.91" vaporized="">
        <emissions CO_abs="8160.065520" CO2_abs="473706.694474" HC_abs="48.192083" PMx_abs="7.920004" NOx_abs="190.194396" fuel_abs="203.627741" electricity_abs="0"/>
    </tripinfo>
    <tripinfo id="carIn107282:1" depart="57749.00" departLane="-447569998#1_1" departPos="5.10" departSpeed="0.00" departDelay="0.00" arrival="57830.00" arrivalLane="315358242#0_1" arrivalPos="165.37" arrivalSpeed="13.37" duration="81.00" routeLength="448.50" waitingTime="30.00" waitingCount="1" stopTime="0.00" timeLoss="38.78" rerouteNo="1" devices="tripinfo_carIn107282:1 routing_carIn107282:1 emissions_carIn107282:1" vType="default_016" speedFactor="1.00" vaporized="">
        <emissions CO_abs="6580.904762" CO2_abs="191512.219947" HC_abs="34.433564" PMx_abs="3.800355" NOx_abs="81.355357" fuel_abs="82.325348" electricity_abs="0"/>
    </tripinfo>
    <tripinfo id="h5938c1:1" depart="57740.00" departLane="-26677542#0_1" departPos="5.10" departSpeed="0.00" departDelay="0.00" arrival="57850.00" arrivalLane="447569997#1_1" arrivalPos="180.93" arrivalSpeed="8.05" duration="110.00" routeLength="1093.64" waitingTime="5.00" waitingCount="1" stopTime="0.00" timeLoss="20.89" rerouteNo="1" devices="tripinfo_h5938c1:1 routing_h5938c1:1 emissions_h5938c1:1" vType="default_016" speedFactor="1.09" vaporized="">
        <emissions CO_abs="3977.220020" CO2_abs="247887.855694" HC_abs="23.895234" PMx_abs="4.222301" NOx_abs="100.111451" fuel_abs="106.556788" electricity_abs="0"/>
    </tripinfo>
    <tripinfo id="carIn102915:1" depart="57643.00" departLane="128361102#0_1" departPos="5.10" departSpeed="0.00" departDelay="0.40" arrival="57851.00" arrivalLane="201956811#0_1" arrivalPos="40.40" arrivalSpeed="12.59" duration="208.00" routeLength="2067.33" waitingTime="23.00" waitingCount="3" stopTime="0.00" timeLoss="56.03" rerouteNo="1" devices="tripinfo_carIn102915:1 routing_carIn102915:1 emissions_carIn102915:1" vType="default_016" speedFactor="1.00" vaporized="">
        <emissions CO_abs="9027.587695" CO2_abs="527561.182965" HC_abs="53.441603" PMx_abs="9.154103" NOx_abs="213.288163" fuel_abs="226.777156" electricity_abs="0"/>
    </tripinfo>
    <tripinfo id="carIn118591:1" depart="57689.00" departLane="315358244_1" departPos="5.10" departSpeed="0.00" departDelay="0.20" arrival="57851.00" arrivalLane="386687235_1" arrivalPos="80.84" arrivalSpeed="12.59" duration="162.00" routeLength="1186.14" waitingTime="47.00" waitingCount="3" stopTime="0.00" timeLoss="69.69" rerouteNo="1" devices="tripinfo_carIn118591:1 routing_carIn118591:1 emissions_carIn118591:1" vType="default_016" speedFactor="0.94" vaporized="">
        <emissions CO_abs="10020.712184" CO2_abs="362794.445117" HC_abs="54.117646" PMx_abs="6.894874" NOx_abs="151.533924" fuel_abs="155.952865" electricity_abs="0"/>
    </tripinfo>
    <tripinfo id="randUni33724:1" depart="57646.00" departLane="128361102#0_1" departPos="5.10" departSpeed="0.00" departDelay="1.20" arrival="57853.00" arrivalLane="201956811#0_1" arrivalPos="40.40" arrivalSpeed="14.19" duration="207.00" routeLength="2067.33" waitingTime="21.00" waitingCount="3" stopTime="0.00" timeLoss="68.13" rerouteNo="1" devices="tripinfo_randUni33724:1 routing_randUni33724:1 emissions_randUni33724:1" vType="random_016" speedFactor="1.09" vaporized="">
        <emissions CO_abs="8535.897711" CO2_abs="515040.770499" HC_abs="50.962947" PMx_abs="9.315256" NOx_abs="211.121712" fuel_abs="221.394272" electricity_abs="0"/>
    </tripinfo>
    <tripinfo id="carIn100288:1" depart="57664.00" departLane="128361102#0_1" departPos="5.10" departSpeed="0.00" departDelay="0.60" arrival="57854.00" arrivalLane="201956811#0_1" arrivalPos="40.40" arrivalSpeed="13.55" duration="190.00" routeLength="2067.33" waitingTime="11.00" waitingCount="2" stopTime="0.00" timeLoss="41.64" rerouteNo="1" devices="tripinfo_carIn100288:1 routing_carIn100288:1 emissions_carIn100288:1" vType="default_016" speedFactor="1.02" vaporized="">
        <emissions CO_abs="7247.750632" CO2_abs="475672.099214" HC_abs="44.110169" PMx_abs="8.050557" NOx_abs="190.652807" fuel_abs="204.471725" electricity_abs="0"/>
    </tripinfo>
    <tripinfo id="h17600c1:1" depart="57662.00" departLane="272042143_1" departPos="5.10" departSpeed="0.00" departDelay="0.30" arrival="57858.00" arrivalLane="201238729#3_1" arrivalPos="431.02" arrivalSpeed="10.96" duration="196.00" routeLength="2100.26" waitingTime="0.00" waitingCount="0" stopTime="0.00" timeLoss="19.10" rerouteNo="1" devices="tripinfo_h17600c1:1 routing_h17600c1:1 emissions_h17600c1:1" vType="default_016" speedFactor="0.86" vaporized="">
        <emissions CO_abs="5191.170120" CO2_abs="392793.123814" HC_abs="32.720411" PMx_abs="5.967667" NOx_abs="153.860269" fuel_abs="168.845768" electricity_abs="0"/>
    </tripinfo>
    <tripinfo id="carIn80064:1" depart="57603.00" departLane="128361109#1_1" departPos="5.10" departSpeed="0.00" departDelay="0.40" arrival="57860.00" arrivalLane="-315358254#1_1" arrivalPos="137.16" arrivalSpeed="12.05" duration="257.00" routeLength="1587.97" waitingTime="114.00" waitingCount="3" stopTime="0.00" timeLoss="159.69" rerouteNo="1" devices="tripinfo_carIn80064:1 routing_carIn80064:1 emissions_carIn80064:1" vType="default_016" speedFactor="0.92" vaporized="">
        <emissions CO_abs="24647.864422" CO2_abs="747146.914269" HC_abs="129.929976" PMx_abs="15.966529" NOx_abs="321.735341" fuel_abs="321.173694" electricity_abs="0"/>
    </tripinfo>
    <tripinfo id="h19413c1:1" depart="57685.00" departLane="128361109#1_1" departPos="5.10" departSpeed="0.00" departDelay="5.90" arrival="57862.00" arrivalLane="386687235_1" arrivalPos="80.84" arrivalSpeed="17.25" duration="177.00" routeLength="2088.57" waitingTime="28.00" waitingCount="3" stopTime="0.00" timeLoss="56.20" rerouteNo="1" devices="tripinfo_h19413c1:1 routing_h19413c1:1 emissions_h19413c1:1" vType="default_016" speedFactor="1.25" vaporized="">
        <emissions CO_abs="8563.394356" CO2_abs="531951.756194" HC_abs="51.225355" PMx_abs="9.888775" NOx_abs="216.360414" fuel_abs="228.663251" electricity_abs="0"/>
    </tripinfo>
    <tripinfo id="randUni31145:1" depart="57814.00" departLane="10425609#0_1" departPos="5.10" departSpeed="0.00" departDelay="0.30" arrival="57862.00" arrivalLane="201956810_1" arrivalPos="71.65" arrivalSpeed="12.48" duration="48.00" routeLength="255.78" waitingTime="15.00" waitingCount="1" stopTime="0.00" timeLoss="27.84" rerouteNo="1" devices="tripinfo_randUni31145:1 routing_randUni31145:1 emissions_randUni31145:1" vType="random_016" speedFactor="0.98" vaporized="">
        <emissions CO_abs="4041.899375" CO2_abs="142135.868771" HC_abs="21.752097" PMx_abs="2.870381" NOx_abs="60.946243" fuel_abs="61.099116" electricity_abs="0"/>
    </tripinfo>
    <tripinfo id="carIn7949:1" depart="57676.00" departLane="128361109#1_1" departPos="5.10" departSpeed="0.00" departDelay="2.10" arrival="57864.00" arrivalLane="386687235_1" arrivalPos="80.84" arrivalSpeed="15.22" duration="188.00" routeLength="2088.57" waitingTime="28.00" waitingCount="2" stopTime="0.00" timeLoss="54.98" rerouteNo="1" devices="tripinfo_carIn7949:1 routing_carIn7949:1 emissions_carIn7949:1" vType="default_016" speedFactor="1.13" vaporized="">
        <emissions CO_abs="8760.051821" CO2_abs="498974.147141" HC_abs="51.484376" PMx_abs="9.251974" NOx_abs="204.448982" fuel_abs="214.488110" electricity_abs="0"/>
    </tripinfo>
    <tripinfo id="randUni2407:1" depart="57820.00" departLane="10425609#0_1" departPos="5.10" departSpeed="0.00" departDelay="0.80" arrival="57865.00" arrivalLane="201956810_1" arrivalPos="71.65" arrivalSpeed="11.64" duration="45.00" routeLength="255.78" waitingTime="13.00" waitingCount="1" stopTime="0.00" timeLoss="22.90" rerouteNo="1" devices="tripinfo_randUni2407:1 routing_randUni2407:1 emissions_randUni2407:1" vType="random_016" speedFactor="0.87" vaporized="">
        <emissions CO_abs="3129.982747" CO2_abs="114176.501250" HC_abs="16.920925" PMx_abs="2.180630" NOx_abs="48.132452" fuel_abs="49.080479" electricity_abs="0"/>
    </tripinfo>
    <tripinfo id="carIn75660:1" depart="57679.00" departLane="128361109#1_1" departPos="5.10" departSpeed="0.00" departDelay="3.40" arrival="57867.00" arrivalLane="386687235_1" arrivalPos="80.84" arrivalSpeed="13.74" duration="188.00" routeLength="2088.57" waitingTime="15.00" waitingCount="1" stopTime="0.00" timeLoss="37.87" rerouteNo="1" devices="tripinfo_carIn75660:1 routing_carIn75660:1 emissions_carIn75660:1" vType="default_016" speedFactor="1.01" vaporized="">
        <emissions CO_abs="6172.094798" CO2_abs="408879.734314" HC_abs="37.639694" PMx_abs="6.783927" NOx_abs="162.570170" fuel_abs="175.760659" electricity_abs="0"/>
    </tripinfo>
    <tripinfo id="randUni15030:1" depart="57735.00" departLane="386687232#0_1" departPos="5.10" departSpeed="0.00" departDelay="0.10" arrival="57868.00" arrivalLane="26677539_1" arrivalPos="151.98" arrivalSpeed="8.18" duration="133.00" routeLength="919.89" waitingTime="35.00" waitingCount="1" stopTime="0.00" timeLoss="49.41" rerouteNo="1" devices="tripinfo_randUni15030:1 routing_randUni15030:1 emissions_randUni15030:1" vType="random_016" speedFactor="0.99" vaporized="">
        <emissions CO_abs="8843.311275" CO2_abs="303051.380380" HC_abs="47.299650" PMx_abs="5.678578" NOx_abs="126.442260" fuel_abs="130.271858" electricity_abs="0"/>
    </tripinfo>
    <tripinfo id="carIn27009:1" depart="57673.00" departLane="-447569998#1_1" departPos="5.10" departSpeed="0.00" departDelay="0.50" arrival="57879.00" arrivalLane="-26677539_1" arrivalPos="152.75" arrivalSpeed="7.59" duration="206.00" routeLength="699.63" waitingTime="101.00" waitingCount="1" stopTime="0.00" timeLoss="115.09" rerouteNo="1" devices="tripinfo_carIn27009:1 routing_carIn27009:1 emissions_carIn27009:1" vType="default_015" speedFactor="0.92" vaporized="">
        <emissions CO_abs="19986.654306" CO2_abs="435421.160464" HC_abs="101.129013" PMx_abs="9.318128" NOx_abs="190.296726" fuel_abs="187.177636" electricity_abs="0"/>
    </tripinfo>
    <tripinfo id="carIn88905:1" depart="57687.00" departLane="128361109#1_1" departPos="5.10" departSpeed="0.00" departDelay="4.80" arrival="57883.00" arrivalLane="386687235_1" arrivalPos="80.84" arrivalSpeed="13.59" duration="196.00" routeLength="2088.57" waitingTime="16.00" waitingCount="2" stopTime="0.00" timeLoss="46.68" rerouteNo="1" devices="tripinfo_carIn88905:1 routing_carIn88905:1 emissions_carIn88905:1" vType="default_016" speedFactor="1.01" vaporized="">
        <emissions CO_abs="6291.981028" CO2_abs="442382.758514" HC_abs="38.943182" PMx_abs="7.110599" NOx_abs="174.255810" fuel_abs="190.162275" electricity_abs="0"/>
    </tripinfo>
    <tripinfo id="carIn85747:1" depart="57673.00" departLane="128361109#1_1" departPos="5.10" departSpeed="0.00" departDelay="0.70" arrival="57884.00" arrivalLane="386687235_2" arrivalPos="80.84" arrivalSpeed="12.55" duration="211.00" routeLength="2088.57" waitingTime="26.00" waitingCount="2" stopTime="0.00" timeLoss="55.61" rerouteNo="1" devices="tripinfo_carIn85747:1 routing_carIn85747:1 emissions_carIn85747:1" vType="default_016" speedFactor="0.97" vaporized="">
        <emissions CO_abs="8374.040487" CO2_abs="471340.212490" HC_abs="49.097843" PMx_abs="7.897419" NOx_abs="188.458012" fuel_abs="202.610765" electricity_abs="0"/>
    </tripinfo>
    <tripinfo id="carIn12775:1" depart="57676.00" departLane="10425609#0_1" departPos="5.10" departSpeed="0.00" departDelay="0.60" arrival="57884.00" arrivalLane="18809673#0_1" arrivalPos="473.56" arrivalSpeed="12.82" duration="208.00" routeLength="1959.45" waitingTime="31.00" waitingCount="2" stopTime="0.00" timeLoss="54.50" rerouteNo="1" devices="tripinfo_carIn12775:1 routing_carIn12775:1 emissions_carIn12775:1" vType="default_016" speedFactor="0.95" vaporized="">
        <emissions CO_abs="9392.339652" CO2_abs="477434.866200" HC_abs="53.899370" PMx_abs="8.195269" NOx_abs="192.754117" fuel_abs="205.231041" electricity_abs="0"/>
    </tripinfo>