<?xml version="1.0" encoding="UTF-8"?>

<!-- generated on 2021-10-26 14:04:03 by Eclipse SUMO sumo Version 1.10.0
<configuration xmlns:xsi="http://www.w3.org/2001/XMLSchema-instance" xsi:noNamespaceSchemaLocation="http://sumo.dlr.de/xsd/sumoConfiguration.xsd">

    <input>
        <net-file value="/Users/behradkoohy/sumo-scratchpad/RESCO/environments/ingolstadt21/ingolstadt21.net.xml"/>
        <route-files value="/Users/behradkoohy/sumo-scratchpad/RESCO/environments/ingolstadt21/ingolstadt21.rou.xml"/>
    </input>

    <output>
        <tripinfo-output value="/Users/behradkoohy/sumo-scratchpad/RESCO/logs/STOCHASTIC-tr0-ingolstadt21-21-mplight-wait/tripinfo_17.xml"/>
        <tripinfo-output.write-unfinished value="true"/>
    </output>

    <time>
        <begin value="57600"/>
        <end value="61200"/>
    </time>

    <processing>
        <time-to-teleport value="-1"/>
    </processing>

    <report>
        <no-warnings value="true"/>
        <no-step-log value="true"/>
    </report>

    <emissions>
        <device.emissions.probability value="1"/>
    </emissions>

    <traci_server>
        <remote-port value="59985"/>
    </traci_server>

    <random_number>
        <random value="true"/>
    </random_number>

</configuration>
-->

<tripinfos xmlns:xsi="http://www.w3.org/2001/XMLSchema-instance" xsi:noNamespaceSchemaLocation="http://sumo.dlr.de/xsd/tripinfo_file.xsd">
    <tripinfo id="carIn60260:1" depart="57606.00" departLane="315358254#0_1" departPos="5.10" departSpeed="0.00" departDelay="0.90" arrival="57661.00" arrivalLane="399835085#1_1" arrivalPos="212.23" arrivalSpeed="7.80" duration="55.00" routeLength="430.98" waitingTime="2.00" waitingCount="1" stopTime="0.00" timeLoss="11.34" rerouteNo="1" devices="tripinfo_carIn60260:1 routing_carIn60260:1 emissions_carIn60260:1" vType="default_016" speedFactor="1.07" vaporized="">
        <emissions CO_abs="2412.086560" CO2_abs="120272.113235" HC_abs="13.780386" PMx_abs="2.086776" NOx_abs="49.381371" fuel_abs="51.700329" electricity_abs="0"/>
    </tripinfo>
    <tripinfo id="h15454c2:3" depart="57612.00" departLane="24608844_1" departPos="5.10" departSpeed="0.00" departDelay="0.50" arrival="57668.00" arrivalLane="32978638#0_1" arrivalPos="49.29" arrivalSpeed="13.13" duration="56.00" routeLength="354.79" waitingTime="10.00" waitingCount="1" stopTime="0.00" timeLoss="20.57" rerouteNo="1" devices="tripinfo_h15454c2:3 routing_h15454c2:3 emissions_h15454c2:3" vType="default_016" speedFactor="0.98" vaporized="">
        <emissions CO_abs="3514.559709" CO2_abs="140021.316572" HC_abs="19.276417" PMx_abs="2.630835" NOx_abs="58.830984" fuel_abs="60.190040" electricity_abs="0"/>
    </tripinfo>
    <tripinfo id="carIn53971:1" depart="57640.00" departLane="272042143_1" departPos="5.10" departSpeed="0.00" departDelay="0.80" arrival="57706.00" arrivalLane="24634414#1_1" arrivalPos="162.19" arrivalSpeed="6.54" duration="66.00" routeLength="493.04" waitingTime="0.00" waitingCount="0" stopTime="0.00" timeLoss="8.53" rerouteNo="1" devices="tripinfo_carIn53971:1 routing_carIn53971:1 emissions_carIn53971:1" vType="default_016" speedFactor="0.80" vaporized="">
        <emissions CO_abs="2678.413690" CO2_abs="131434.643012" HC_abs="15.221127" PMx_abs="2.131927" NOx_abs="53.111470" fuel_abs="56.498921" electricity_abs="0"/>
    </tripinfo>
    <tripinfo id="h3688c1:1" depart="57625.00" departLane="201201950#1_1" departPos="5.10" departSpeed="0.00" departDelay="0.00" arrival="57721.00" arrivalLane="32978638#0_1" arrivalPos="49.29" arrivalSpeed="13.55" duration="96.00" routeLength="1089.75" waitingTime="0.00" waitingCount="0" stopTime="0.00" timeLoss="15.71" rerouteNo="1" devices="tripinfo_h3688c1:1 routing_h3688c1:1 emissions_h3688c1:1" vType="default_016" speedFactor="1.00" vaporized="">
        <emissions CO_abs="3453.502636" CO2_abs="252227.314061" HC_abs="21.598730" PMx_abs="4.173240" NOx_abs="100.549842" fuel_abs="108.421874" electricity_abs="0"/>
    </tripinfo>
    <tripinfo id="h7800c1:5" depart="57696.00" departLane="-447569998#1_1" departPos="5.10" departSpeed="0.00" departDelay="0.00" arrival="57725.00" arrivalLane="-447569998#1_2" arrivalPos="180.76" arrivalSpeed="5.57" duration="29.00" routeLength="175.66" waitingTime="0.00" waitingCount="0" stopTime="0.00" timeLoss="5.13" rerouteNo="1" devices="tripinfo_h7800c1:5 routing_h7800c1:5 emissions_h7800c1:5" vType="default_016" speedFactor="0.91" vaporized="">
        <emissions CO_abs="1480.912822" CO2_abs="56989.271731" HC_abs="8.049814" PMx_abs="0.962381" NOx_abs="23.451960" fuel_abs="24.497790" electricity_abs="0"/>
    </tripinfo>
    <tripinfo id="h3568c1:3" depart="57656.00" departLane="266565295#5_1" departPos="5.10" departSpeed="0.00" departDelay="0.80" arrival="57729.00" arrivalLane="-24634415_1" arrivalPos="62.03" arrivalSpeed="14.22" duration="73.00" routeLength="807.40" waitingTime="0.00" waitingCount="0" stopTime="0.00" timeLoss="13.38" rerouteNo="1" devices="tripinfo_h3568c1:3 routing_h3568c1:3 emissions_h3568c1:3" vType="default_016" speedFactor="1.08" vaporized="">
        <emissions CO_abs="2935.104864" CO2_abs="210431.782105" HC_abs="18.274978" PMx_abs="3.602392" NOx_abs="84.664094" fuel_abs="90.455599" electricity_abs="0"/>
    </tripinfo>
    <tripinfo id="carIn80064:1" depart="57603.00" departLane="128361109#1_1" departPos="5.10" departSpeed="0.00" departDelay="0.40" arrival="57736.00" arrivalLane="-315358254#1_1" arrivalPos="137.16" arrivalSpeed="13.26" duration="133.00" routeLength="1587.97" waitingTime="10.00" waitingCount="2" stopTime="0.00" timeLoss="40.30" rerouteNo="1" devices="tripinfo_carIn80064:1 routing_carIn80064:1 emissions_carIn80064:1" vType="default_016" speedFactor="0.96" vaporized="">
        <emissions CO_abs="6992.266526" CO2_abs="467397.222033" HC_abs="42.996724" PMx_abs="8.826771" NOx_abs="191.455415" fuel_abs="200.913382" electricity_abs="0"/>
    </tripinfo>
    <tripinfo id="carIn22761:1" depart="57616.00" departLane="-306240162#1_0" departPos="5.10" departSpeed="0.00" departDelay="2.10" arrival="57737.00" arrivalLane="399835085#1_1" arrivalPos="212.23" arrivalSpeed="8.94" duration="121.00" routeLength="1093.26" waitingTime="26.00" waitingCount="2" stopTime="0.00" timeLoss="50.70" rerouteNo="1" devices="tripinfo_carIn22761:1 routing_carIn22761:1 emissions_carIn22761:1" vType="default_016" speedFactor="1.11" vaporized="">
        <emissions CO_abs="8592.156230" CO2_abs="407423.830235" HC_abs="48.832204" PMx_abs="8.259346" NOx_abs="171.284834" fuel_abs="175.134663" electricity_abs="0"/>
    </tripinfo>
    <tripinfo id="carIn121703:1" depart="57647.00" departLane="386687232#0_1" departPos="5.10" departSpeed="0.00" departDelay="0.30" arrival="57754.00" arrivalLane="-315358244_1" arrivalPos="33.95" arrivalSpeed="13.12" duration="107.00" routeLength="1157.39" waitingTime="5.00" waitingCount="1" stopTime="0.00" timeLoss="19.68" rerouteNo="1" devices="tripinfo_carIn121703:1 routing_carIn121703:1 emissions_carIn121703:1" vType="default_016" speedFactor="0.97" vaporized="">
        <emissions CO_abs="3065.334145" CO2_abs="247049.737773" HC_abs="19.694644" PMx_abs="3.784959" NOx_abs="96.180821" fuel_abs="106.196485" electricity_abs="0"/>
    </tripinfo>
    <tripinfo id="h317c2:1" depart="57707.00" departLane="-32978638#0_1" departPos="5.10" departSpeed="0.00" departDelay="0.10" arrival="57759.00" arrivalLane="-266565295#5_1" arrivalPos="172.76" arrivalSpeed="11.03" duration="52.00" routeLength="370.53" waitingTime="11.00" waitingCount="1" stopTime="0.00" timeLoss="18.74" rerouteNo="1" devices="tripinfo_h317c2:1 routing_h317c2:1 emissions_h317c2:1" vType="default_016" speedFactor="0.82" vaporized="">
        <emissions CO_abs="2887.157545" CO2_abs="120715.467115" HC_abs="15.950417" PMx_abs="2.135972" NOx_abs="49.650261" fuel_abs="51.891264" electricity_abs="0"/>
    </tripinfo>
    <tripinfo id="carIn30817:1" depart="57681.00" departLane="315358244_1" departPos="5.10" departSpeed="0.00" departDelay="0.20" arrival="57761.00" arrivalLane="447569997#1_1" arrivalPos="180.93" arrivalSpeed="7.46" duration="80.00" routeLength="718.04" waitingTime="6.00" waitingCount="1" stopTime="0.00" timeLoss="18.71" rerouteNo="1" devices="tripinfo_carIn30817:1 routing_carIn30817:1 emissions_carIn30817:1" vType="default_016" speedFactor="1.01" vaporized="">
        <emissions CO_abs="2805.156346" CO2_abs="170489.840845" HC_abs="16.705320" PMx_abs="2.668206" NOx_abs="67.211449" fuel_abs="73.286999" electricity_abs="0"/>
    </tripinfo>
    <tripinfo id="h4538c1:1" depart="57701.00" departLane="-10427692#1_1" departPos="5.10" departSpeed="0.00" departDelay="0.00" arrival="57763.00" arrivalLane="-128361102#1_1" arrivalPos="274.68" arrivalSpeed="15.74" duration="62.00" routeLength="440.74" waitingTime="23.00" waitingCount="1" stopTime="0.00" timeLoss="33.57" rerouteNo="1" devices="tripinfo_h4538c1:1 routing_h4538c1:1 emissions_h4538c1:1" vType="default_016" speedFactor="1.14" vaporized="">
        <emissions CO_abs="4696.588604" CO2_abs="164315.956859" HC_abs="25.248113" PMx_abs="3.295583" NOx_abs="69.341764" fuel_abs="70.633694" electricity_abs="0"/>
    </tripinfo>
    <tripinfo id="h3154c1:1" depart="57658.00" departLane="24634507_1" departPos="5.10" departSpeed="0.00" departDelay="0.00" arrival="57764.00" arrivalLane="-266565295#5_1" arrivalPos="172.76" arrivalSpeed="15.00" duration="106.00" routeLength="1206.22" waitingTime="8.00" waitingCount="2" stopTime="0.00" timeLoss="29.69" rerouteNo="1" devices="tripinfo_h3154c1:1 routing_h3154c1:1 emissions_h3154c1:1" vType="default_016" speedFactor="1.17" vaporized="">
        <emissions CO_abs="5221.089941" CO2_abs="351306.724873" HC_abs="31.851322" PMx_abs="6.475015" NOx_abs="143.772544" fuel_abs="151.011284" electricity_abs="0"/>
    </tripinfo>
    <tripinfo id="h7181c1:1" depart="57660.00" departLane="315358254#0_1" departPos="5.10" departSpeed="0.00" departDelay="0.10" arrival="57772.00" arrivalLane="306240162#0_0" arrivalPos="220.43" arrivalSpeed="14.84" duration="112.00" routeLength="932.35" waitingTime="40.00" waitingCount="2" stopTime="0.00" timeLoss="56.54" rerouteNo="1" devices="tripinfo_h7181c1:1 routing_h7181c1:1 emissions_h7181c1:1" vType="default_016" speedFactor="0.94" vaporized="">
        <emissions CO_abs="9066.367033" CO2_abs="334842.425525" HC_abs="49.083383" PMx_abs="6.823645" NOx_abs="141.260602" fuel_abs="143.936529" electricity_abs="0"/>
    </tripinfo>
    <tripinfo id="carIn28951:1" depart="57606.00" departLane="10425609#0_1" departPos="5.10" departSpeed="0.00" departDelay="0.20" arrival="57782.00" arrivalLane="-128361102#1_1" arrivalPos="274.68" arrivalSpeed="13.00" duration="176.00" routeLength="2113.04" waitingTime="0.00" waitingCount="0" stopTime="0.00" timeLoss="19.70" rerouteNo="1" devices="tripinfo_carIn28951:1 routing_carIn28951:1 emissions_carIn28951:1" vType="default_016" speedFactor="0.99" vaporized="">
        <emissions CO_abs="4976.471121" CO2_abs="441669.835640" HC_abs="32.895438" PMx_abs="6.706547" NOx_abs="171.308654" fuel_abs="189.855314" electricity_abs="0"/>
    </tripinfo>
    <tripinfo id="h3326c1:2" depart="57656.00" departLane="22716069#0_1" departPos="5.10" departSpeed="0.00" departDelay="0.00" arrival="57784.00" arrivalLane="24634517#13_1" arrivalPos="111.62" arrivalSpeed="12.11" duration="128.00" routeLength="1312.81" waitingTime="1.00" waitingCount="1" stopTime="0.00" timeLoss="18.53" rerouteNo="1" devices="tripinfo_h3326c1:2 routing_h3326c1:2 emissions_h3326c1:2" vType="default_016" speedFactor="0.89" vaporized="">
        <emissions CO_abs="4274.557138" CO2_abs="295023.049178" HC_abs="26.316003" PMx_abs="4.716598" NOx_abs="117.317534" fuel_abs="126.818333" electricity_abs="0"/>
    </tripinfo>
    <tripinfo id="carIn27009:1" depart="57673.00" departLane="-447569998#1_1" departPos="5.10" departSpeed="0.00" departDelay="0.50" arrival="57792.00" arrivalLane="-26677539_1" arrivalPos="152.75" arrivalSpeed="8.37" duration="119.00" routeLength="699.63" waitingTime="23.00" waitingCount="1" stopTime="0.00" timeLoss="36.99" rerouteNo="1" devices="tripinfo_carIn27009:1 routing_carIn27009:1 emissions_carIn27009:1" vType="default_015" speedFactor="1.02" vaporized="">
        <emissions CO_abs="7090.902203" CO2_abs="246324.522764" HC_abs="37.957101" PMx_abs="4.334826" NOx_abs="101.901266" fuel_abs="105.887093" electricity_abs="0"/>
    </tripinfo>
    <tripinfo id="h330c1:1" depart="57736.00" departLane="-32978638#0_1" departPos="5.10" departSpeed="0.00" departDelay="0.20" arrival="57795.00" arrivalLane="-266565295#5_1" arrivalPos="172.76" arrivalSpeed="14.45" duration="59.00" routeLength="370.53" waitingTime="22.00" waitingCount="1" stopTime="0.00" timeLoss="32.48" rerouteNo="1" devices="tripinfo_h330c1:1 routing_h330c1:1 emissions_h330c1:1" vType="default_016" speedFactor="1.04" vaporized="">
        <emissions CO_abs="4644.157673" CO2_abs="170863.872383" HC_abs="25.189041" PMx_abs="3.468261" NOx_abs="72.847762" fuel_abs="73.448100" electricity_abs="0"/>
    </tripinfo>
    <tripinfo id="carIn107282:1" depart="57749.00" departLane="-447569998#1_1" departPos="5.10" departSpeed="0.00" departDelay="0.00" arrival="57796.00" arrivalLane="315358242#0_1" arrivalPos="165.37" arrivalSpeed="12.86" duration="47.00" routeLength="448.50" waitingTime="0.00" waitingCount="0" stopTime="0.00" timeLoss="5.04" rerouteNo="1" devices="tripinfo_carIn107282:1 routing_carIn107282:1 emissions_carIn107282:1" vType="default_016" speedFactor="1.01" vaporized="">
        <emissions CO_abs="1743.253524" CO2_abs="103983.984706" HC_abs="10.354665" PMx_abs="1.717232" NOx_abs="41.807828" fuel_abs="44.698567" electricity_abs="0"/>
    </tripinfo>
    <tripinfo id="h9563c2:5" depart="57631.00" departLane="315358244_1" departPos="5.10" departSpeed="0.00" departDelay="0.70" arrival="57797.00" arrivalLane="386687235_1" arrivalPos="80.84" arrivalSpeed="11.97" duration="166.00" routeLength="1186.14" waitingTime="48.00" waitingCount="3" stopTime="0.00" timeLoss="70.47" rerouteNo="1" devices="tripinfo_h9563c2:5 routing_h9563c2:5 emissions_h9563c2:5" vType="default_016" speedFactor="0.90" vaporized="">
        <emissions CO_abs="10782.381012" CO2_abs="392503.515724" HC_abs="58.256335" PMx_abs="7.323736" NOx_abs="163.084723" fuel_abs="168.723929" electricity_abs="0"/>
    </tripinfo>
    <tripinfo id="h5979c1:5" depart="57669.00" departLane="399835085#1_1" departPos="5.10" departSpeed="0.00" departDelay="0.00" arrival="57797.00" arrivalLane="-315358254#1_1" arrivalPos="137.16" arrivalSpeed="12.65" duration="128.00" routeLength="659.33" waitingTime="34.00" waitingCount="2" stopTime="0.00" timeLoss="48.06" rerouteNo="1" devices="tripinfo_h5979c1:5 routing_h5979c1:5 emissions_h5979c1:5" vType="default_016" speedFactor="0.92" vaporized="">
        <emissions CO_abs="8305.250412" CO2_abs="237589.593368" HC_abs="43.317499" PMx_abs="4.566233" NOx_abs="100.615977" fuel_abs="102.132906" electricity_abs="0"/>
    </tripinfo>
    <tripinfo id="h12244c1:3" depart="57612.00" departLane="315358244_1" departPos="5.10" departSpeed="0.00" departDelay="0.40" arrival="57799.00" arrivalLane="386687235_1" arrivalPos="80.84" arrivalSpeed="10.92" duration="187.00" routeLength="1186.14" waitingTime="68.00" waitingCount="2" stopTime="0.00" timeLoss="88.81" rerouteNo="1" devices="tripinfo_h12244c1:3 routing_h12244c1:3 emissions_h12244c1:3" vType="default_016" speedFactor="0.88" vaporized="">
        <emissions CO_abs="13821.968546" CO2_abs="433153.100904" HC_abs="73.047461" PMx_abs="8.424674" NOx_abs="182.545060" fuel_abs="186.198890" electricity_abs="0"/>
    </tripinfo>
    <tripinfo id="carIn86816:1" depart="57617.00" departLane="128361102#0_1" departPos="5.10" departSpeed="0.00" departDelay="0.80" arrival="57807.00" arrivalLane="201956811#0_1" arrivalPos="40.40" arrivalSpeed="14.60" duration="190.00" routeLength="2067.33" waitingTime="19.00" waitingCount="3" stopTime="0.00" timeLoss="48.98" rerouteNo="1" devices="tripinfo_carIn86816:1 routing_carIn86816:1 emissions_carIn86816:1" vType="default_016" speedFactor="1.07" vaporized="">
        <emissions CO_abs="7935.562802" CO2_abs="509436.102132" HC_abs="48.039328" PMx_abs="8.753533" NOx_abs="204.331667" fuel_abs="218.985487" electricity_abs="0"/>
    </tripinfo>
    <tripinfo id="h645c1:1" depart="57622.00" departLane="266565295#5_1" departPos="5.10" departSpeed="0.00" departDelay="0.40" arrival="57813.00" arrivalLane="-315358244_1" arrivalPos="33.95" arrivalSpeed="15.51" duration="191.00" routeLength="1910.83" waitingTime="38.00" waitingCount="3" stopTime="0.00" timeLoss="67.15" rerouteNo="1" devices="tripinfo_h645c1:1 routing_h645c1:1 emissions_h645c1:1" vType="default_016" speedFactor="1.12" vaporized="">
        <emissions CO_abs="10322.433415" CO2_abs="528720.520958" HC_abs="59.298389" PMx_abs="9.646097" NOx_abs="215.474718" fuel_abs="227.275991" electricity_abs="0"/>
    </tripinfo>
    <tripinfo id="carIn129809:1" depart="57728.00" departLane="-447569998#1_1" departPos="5.10" departSpeed="0.00" departDelay="0.00" arrival="57816.00" arrivalLane="-315358244_1" arrivalPos="33.95" arrivalSpeed="13.93" duration="88.00" routeLength="706.49" waitingTime="18.00" waitingCount="1" stopTime="0.00" timeLoss="31.43" rerouteNo="1" devices="tripinfo_carIn129809:1 routing_carIn129809:1 emissions_carIn129809:1" vType="default_015" speedFactor="1.08" vaporized="">
        <emissions CO_abs="4751.256570" CO2_abs="194353.147091" HC_abs="26.158012" PMx_abs="3.549187" NOx_abs="80.017245" fuel_abs="83.545452" electricity_abs="0"/>
    </tripinfo>
    <tripinfo id="carIn12365:1" depart="57713.00" departLane="315358244_1" departPos="5.10" departSpeed="0.00" departDelay="0.50" arrival="57817.00" arrivalLane="447569997#1_1" arrivalPos="180.93" arrivalSpeed="9.07" duration="104.00" routeLength="718.04" waitingTime="29.00" waitingCount="2" stopTime="0.00" timeLoss="49.69" rerouteNo="1" devices="tripinfo_carIn12365:1 routing_carIn12365:1 emissions_carIn12365:1" vType="default_016" speedFactor="1.13" vaporized="">
        <emissions CO_abs="6578.389271" CO2_abs="250604.383860" HC_abs="35.801368" PMx_abs="4.719341" NOx_abs="104.349875" fuel_abs="107.725986" electricity_abs="0"/>
    </tripinfo>
    <tripinfo id="carIn107084:1" depart="57601.00" departLane="124812856#0_1" departPos="5.10" departSpeed="0.00" departDelay="0.70" arrival="57820.00" arrivalLane="-128361102#1_1" arrivalPos="274.68" arrivalSpeed="12.42" duration="219.00" routeLength="2250.49" waitingTime="19.00" waitingCount="2" stopTime="0.00" timeLoss="43.60" rerouteNo="1" devices="tripinfo_carIn107084:1 routing_carIn107084:1 emissions_carIn107084:1" vType="default_016" speedFactor="0.94" vaporized="">
        <emissions CO_abs="7410.506773" CO2_abs="492843.149630" HC_abs="45.206807" PMx_abs="7.927047" NOx_abs="195.233634" fuel_abs="211.853364" electricity_abs="0"/>
    </tripinfo>
    <tripinfo id="carIn81046:1" depart="57611.00" departLane="124812856#0_1" departPos="5.10" departSpeed="0.00" departDelay="2.50" arrival="57821.00" arrivalLane="-128361102#1_1" arrivalPos="274.68" arrivalSpeed="15.29" duration="210.00" routeLength="2232.46" waitingTime="17.00" waitingCount="2" stopTime="0.00" timeLoss="73.18" rerouteNo="1" devices="tripinfo_carIn81046:1 routing_carIn81046:1 emissions_carIn81046:1" vType="default_016" speedFactor="1.19" vaporized="">
        <emissions CO_abs="9719.861842" CO2_abs="601563.962894" HC_abs="58.400955" PMx_abs="11.068555" NOx_abs="247.671245" fuel_abs="258.586444" electricity_abs="0"/>
    </tripinfo>
    <tripinfo id="randUni15030:1" depart="57735.00" departLane="386687232#0_1" departPos="5.10" departSpeed="0.00" departDelay="0.10" arrival="57822.00" arrivalLane="26677539_1" arrivalPos="151.98" arrivalSpeed="8.51" duration="87.00" routeLength="919.89" waitingTime="0.00" waitingCount="0" stopTime="0.00" timeLoss="10.10" rerouteNo="1" devices="tripinfo_randUni15030:1 routing_randUni15030:1 emissions_randUni15030:1" vType="random_016" speedFactor="1.09" vaporized="">
        <emissions CO_abs="3124.559071" CO2_abs="210280.300081" HC_abs="19.121150" PMx_abs="3.536991" NOx_abs="84.456828" fuel_abs="90.390718" electricity_abs="0"/>
    </tripinfo>
    <tripinfo id="carIn102915:1" depart="57643.00" departLane="128361102#0_1" departPos="5.10" departSpeed="0.00" departDelay="0.40" arrival="57833.00" arrivalLane="201956811#0_1" arrivalPos="40.40" arrivalSpeed="12.67" duration="190.00" routeLength="2067.33" waitingTime="9.00" waitingCount="2" stopTime="0.00" timeLoss="31.70" rerouteNo="1" devices="tripinfo_carIn102915:1 routing_carIn102915:1 emissions_carIn102915:1" vType="default_016" speedFactor="0.96" vaporized="">
        <emissions CO_abs="6011.684404" CO2_abs="458534.411631" HC_abs="38.040842" PMx_abs="7.257721" NOx_abs="180.578957" fuel_abs="197.104878" electricity_abs="0"/>
    </tripinfo>
    <tripinfo id="carIn82278:1" depart="57702.00" departLane="-306240162#1_0" departPos="5.10" departSpeed="0.00" departDelay="0.70" arrival="57835.00" arrivalLane="399835085#1_1" arrivalPos="212.23" arrivalSpeed="7.77" duration="133.00" routeLength="1093.26" waitingTime="31.00" waitingCount="1" stopTime="0.00" timeLoss="53.17" rerouteNo="1" devices="tripinfo_carIn82278:1 routing_carIn82278:1 emissions_carIn82278:1" vType="default_016" speedFactor="0.98" vaporized="">
        <emissions CO_abs="9644.490753" CO2_abs="382700.092946" HC_abs="52.950749" PMx_abs="7.579316" NOx_abs="161.061409" fuel_abs="164.508435" electricity_abs="0"/>
    </tripinfo>
    <tripinfo id="randUni33724:1" depart="57646.00" departLane="128361102#0_1" departPos="5.10" departSpeed="0.00" departDelay="1.20" arrival="57836.00" arrivalLane="201956811#0_1" arrivalPos="40.40" arrivalSpeed="14.19" duration="190.00" routeLength="2067.33" waitingTime="5.00" waitingCount="2" stopTime="0.00" timeLoss="45.24" rerouteNo="1" devices="tripinfo_randUni33724:1 routing_randUni33724:1 emissions_randUni33724:1" vType="random_016" speedFactor="1.04" vaporized="">
        <emissions CO_abs="7089.331584" CO2_abs="504129.706125" HC_abs="44.053251" PMx_abs="8.527157" NOx_abs="202.513345" fuel_abs="216.703919" electricity_abs="0"/>
    </tripinfo>
    <tripinfo id="h16072c2:3" depart="57663.00" departLane="315358254#0_1" departPos="5.10" departSpeed="0.00" departDelay="2.50" arrival="57840.00" arrivalLane="386687235_2" arrivalPos="80.84" arrivalSpeed="16.39" duration="177.00" routeLength="1611.92" waitingTime="55.00" waitingCount="2" stopTime="0.00" timeLoss="78.00" rerouteNo="1" devices="tripinfo_h16072c2:3 routing_h16072c2:3 emissions_h16072c2:3" vType="default_016" speedFactor="1.19" vaporized="">
        <emissions CO_abs="12703.535690" CO2_abs="515998.523160" HC_abs="69.936738" PMx_abs="9.973339" NOx_abs="213.505025" fuel_abs="221.808756" electricity_abs="0"/>
    </tripinfo>
    <tripinfo id="carIn12858:1" depart="57661.00" departLane="128361109#1_1" departPos="5.10" departSpeed="0.00" departDelay="0.90" arrival="57843.00" arrivalLane="399835085#1_1" arrivalPos="212.23" arrivalSpeed="7.12" duration="182.00" routeLength="1738.12" waitingTime="37.00" waitingCount="2" stopTime="0.00" timeLoss="67.54" rerouteNo="1" devices="tripinfo_carIn12858:1 routing_carIn12858:1 emissions_carIn12858:1" vType="default_016" speedFactor="1.01" vaporized="">
        <emissions CO_abs="12041.101118" CO2_abs="558014.450585" HC_abs="68.126859" PMx_abs="11.099159" NOx_abs="233.374057" fuel_abs="239.867899" electricity_abs="0"/>
    </tripinfo>
    <tripinfo id="h9953c2:3" depart="57682.00" departLane="-54169231#2_1" departPos="5.10" departSpeed="0.00" departDelay="0.00" arrival="57844.00" arrivalLane="386687235_1" arrivalPos="80.84" arrivalSpeed="15.24" duration="162.00" routeLength="1535.60" waitingTime="24.00" waitingCount="2" stopTime="0.00" timeLoss="48.05" rerouteNo="1" devices="tripinfo_h9953c2:3 routing_h9953c2:3 emissions_h9953c2:3" vType="default_016" speedFactor="1.11" vaporized="">
        <emissions CO_abs="8711.469158" CO2_abs="440386.094876" HC_abs="49.845153" PMx_abs="8.001450" NOx_abs="180.381570" fuel_abs="189.304547" electricity_abs="0"/>
    </tripinfo>
    <tripinfo id="carIn81860:1" depart="57712.00" departLane="128361102#0_1" departPos="5.10" departSpeed="0.00" departDelay="0.60" arrival="57844.00" arrivalLane="-24634517#17_1" arrivalPos="6.43" arrivalSpeed="6.47" duration="132.00" routeLength="1229.64" waitingTime="7.00" waitingCount="2" stopTime="0.00" timeLoss="30.27" rerouteNo="1" devices="tripinfo_carIn81860:1 routing_carIn81860:1 emissions_carIn81860:1" vType="default_016" speedFactor="0.88" vaporized="">
        <emissions CO_abs="4630.532739" CO2_abs="289187.795559" HC_abs="27.779769" PMx_abs="4.590621" NOx_abs="114.909229" fuel_abs="124.310410" electricity_abs="0"/>
    </tripinfo>
    <tripinfo id="carIn118591:1" depart="57689.00" departLane="315358244_1" departPos="5.10" departSpeed="0.00" departDelay="0.20" arrival="57857.00" arrivalLane="386687235_1" arrivalPos="80.84" arrivalSpeed="13.80" duration="168.00" routeLength="1186.14" waitingTime="62.00" waitingCount="3" stopTime="0.00" timeLoss="87.48" rerouteNo="1" devices="tripinfo_carIn118591:1 routing_carIn118591:1 emissions_carIn118591:1" vType="default_016" speedFactor="1.08" vaporized="">
        <emissions CO_abs="11558.127050" CO2_abs="414769.615335" HC_abs="62.349232" PMx_abs="8.113426" NOx_abs="173.859543" fuel_abs="178.295023" electricity_abs="0"/>
    </tripinfo>
    <tripinfo id="carIn50326:1" depart="57651.00" departLane="128361102#0_1" departPos="5.10" departSpeed="0.00" departDelay="0.30" arrival="57870.00" arrivalLane="18809673#0_1" arrivalPos="473.56" arrivalSpeed="14.20" duration="219.00" routeLength="1591.07" waitingTime="71.00" waitingCount="1" stopTime="0.00" timeLoss="95.17" rerouteNo="1" devices="tripinfo_carIn50326:1 routing_carIn50326:1 emissions_carIn50326:1" vType="default_016" speedFactor="1.05" vaporized="">
        <emissions CO_abs="16297.005346" CO2_abs="539999.039575" HC_abs="86.814788" PMx_abs="10.457954" NOx_abs="226.213820" fuel_abs="232.127971" electricity_abs="0"/>
    </tripinfo>
    <tripinfo id="h17600c1:1" depart="57662.00" departLane="272042143_1" departPos="5.10" departSpeed="0.00" departDelay="0.30" arrival="57871.00" arrivalLane="201238729#3_1" arrivalPos="431.02" arrivalSpeed="14.33" duration="209.00" routeLength="2100.26" waitingTime="39.00" waitingCount="2" stopTime="0.00" timeLoss="64.19" rerouteNo="1" devices="tripinfo_h17600c1:1 routing_h17600c1:1 emissions_h17600c1:1" vType="default_016" speedFactor="1.05" vaporized="">
        <emissions CO_abs="9909.431672" CO2_abs="505077.148267" HC_abs="56.817470" PMx_abs="8.755010" NOx_abs="202.734654" fuel_abs="217.113407" electricity_abs="0"/>
    </tripinfo>
    <tripinfo id="carIn100288:1" depart="57664.00" departLane="128361102#0_1" departPos="5.10" departSpeed="0.00" departDelay="0.60" arrival="57871.00" arrivalLane="201956811#0_1" arrivalPos="40.40" arrivalSpeed="15.43" duration="207.00" routeLength="2067.33" waitingTime="45.00" waitingCount="1" stopTime="0.00" timeLoss="73.66" rerouteNo="1" devices="tripinfo_carIn100288:1 routing_carIn100288:1 emissions_carIn100288:1" vType="default_016" speedFactor="1.14" vaporized="">
        <emissions CO_abs="12906.905670" CO2_abs="601959.959830" HC_abs="72.785043" PMx_abs="11.257612" NOx_abs="247.233364" fuel_abs="258.759275" electricity_abs="0"/>
    </tripinfo>
    <tripinfo id="carIn29531:1" depart="57667.00" departLane="128361102#0_1" departPos="5.10" departSpeed="0.00" departDelay="1.60" arrival="57873.00" arrivalLane="201956811#0_1" arrivalPos="40.40" arrivalSpeed="13.94" duration="206.00" routeLength="2067.33" waitingTime="44.00" waitingCount="1" stopTime="0.00" timeLoss="66.95" rerouteNo="1" devices="tripinfo_carIn29531:1 routing_carIn29531:1 emissions_carIn29531:1" vType="default_016" speedFactor="1.09" vaporized="">
        <emissions CO_abs="11925.497305" CO2_abs="557030.018435" HC_abs="67.303489" PMx_abs="10.331509" NOx_abs="228.432005" fuel_abs="239.445738" electricity_abs="0"/>
    </tripinfo>
    <tripinfo id="h6541c1:3" depart="57727.00" departLane="201950247#3_1" departPos="5.10" departSpeed="0.00" departDelay="0.00" arrival="57874.00" arrivalLane="32978638#0_1" arrivalPos="49.29" arrivalSpeed="13.38" duration="147.00" routeLength="1176.17" waitingTime="29.00" waitingCount="1" stopTime="0.00" timeLoss="45.62" rerouteNo="1" devices="tripinfo_h6541c1:3 routing_h6541c1:3 emissions_h6541c1:3" vType="default_016" speedFactor="1.01" vaporized="">
        <emissions CO_abs="8216.639864" CO2_abs="341242.752021" HC_abs="45.342903" PMx_abs="6.210109" NOx_abs="140.657207" fuel_abs="146.687922" electricity_abs="0"/>
    </tripinfo>
    <tripinfo id="h3536c1:1" depart="57767.00" departLane="-24634413#2_1" departPos="5.10" departSpeed="0.00" departDelay="0.00" arrival="57875.00" arrivalLane="32978638#0_2" arrivalPos="49.29" arrivalSpeed="13.13" duration="108.00" routeLength="957.93" waitingTime="0.00" waitingCount="0" stopTime="0.00" timeLoss="15.39" rerouteNo="1" devices="tripinfo_h3536c1:1 routing_h3536c1:1 emissions_h3536c1:1" vType="default_016" speedFactor="0.98" vaporized="">
        <emissions CO_abs="4160.400791" CO2_abs="246350.091383" HC_abs="24.653271" PMx_abs="4.036010" NOx_abs="99.164247" fuel_abs="105.896117" electricity_abs="0"/>
    </tripinfo>
    <tripinfo id="randUni31145:1" depart="57814.00" departLane="10425609#0_1" departPos="5.10" departSpeed="0.00" departDelay="0.30" arrival="57875.00" arrivalLane="201956810_1" arrivalPos="71.65" arrivalSpeed="12.31" duration="61.00" routeLength="255.78" waitingTime="29.00" waitingCount="1" stopTime="0.00" timeLoss="39.45" rerouteNo="1" devices="tripinfo_randUni31145:1 routing_randUni31145:1 emissions_randUni31145:1" vType="random_016" speedFactor="0.92" vaporized="">
        <emissions CO_abs="6042.448807" CO2_abs="166565.224464" HC_abs="31.436664" PMx_abs="3.563776" NOx_abs="72.640707" fuel_abs="71.601240" electricity_abs="0"/>
    </tripinfo>