<?xml version="1.0" encoding="UTF-8"?>

<!-- generated on 2021-10-26 14:17:58 by Eclipse SUMO sumo Version 1.10.0
<configuration xmlns:xsi="http://www.w3.org/2001/XMLSchema-instance" xsi:noNamespaceSchemaLocation="http://sumo.dlr.de/xsd/sumoConfiguration.xsd">

    <input>
        <net-file value="/Users/behradkoohy/sumo-scratchpad/RESCO/environments/ingolstadt21/ingolstadt21.net.xml"/>
        <route-files value="/Users/behradkoohy/sumo-scratchpad/RESCO/environments/ingolstadt21/ingolstadt21.rou.xml"/>
    </input>

    <output>
        <tripinfo-output value="/Users/behradkoohy/sumo-scratchpad/RESCO/logs/STOCHASTIC-tr0-ingolstadt21-21-mplight-wait/tripinfo_39.xml"/>
        <tripinfo-output.write-unfinished value="true"/>
    </output>

    <time>
        <begin value="57600"/>
        <end value="61200"/>
    </time>

    <processing>
        <time-to-teleport value="-1"/>
    </processing>

    <report>
        <no-warnings value="true"/>
        <no-step-log value="true"/>
    </report>

    <emissions>
        <device.emissions.probability value="1"/>
    </emissions>

    <traci_server>
        <remote-port value="60193"/>
    </traci_server>

    <random_number>
        <random value="true"/>
    </random_number>

</configuration>
-->

<tripinfos xmlns:xsi="http://www.w3.org/2001/XMLSchema-instance" xsi:noNamespaceSchemaLocation="http://sumo.dlr.de/xsd/tripinfo_file.xsd">
    <tripinfo id="h15454c2:3" depart="57612.00" departLane="24608844_1" departPos="5.10" departSpeed="0.00" departDelay="0.50" arrival="57650.00" arrivalLane="32978638#0_1" arrivalPos="49.29" arrivalSpeed="14.98" duration="38.00" routeLength="354.79" waitingTime="0.00" waitingCount="0" stopTime="0.00" timeLoss="6.73" rerouteNo="1" devices="tripinfo_h15454c2:3 routing_h15454c2:3 emissions_h15454c2:3" vType="default_016" speedFactor="1.10" vaporized="">
        <emissions CO_abs="2148.729391" CO2_abs="127484.005306" HC_abs="12.764689" PMx_abs="2.202818" NOx_abs="51.948996" fuel_abs="54.800142" electricity_abs="0"/>
    </tripinfo>
    <tripinfo id="carIn60260:1" depart="57606.00" departLane="315358254#0_1" departPos="5.10" departSpeed="0.00" departDelay="0.90" arrival="57677.00" arrivalLane="399835085#1_1" arrivalPos="212.23" arrivalSpeed="7.27" duration="71.00" routeLength="430.98" waitingTime="10.00" waitingCount="1" stopTime="0.00" timeLoss="21.35" rerouteNo="1" devices="tripinfo_carIn60260:1 routing_carIn60260:1 emissions_carIn60260:1" vType="default_016" speedFactor="0.93" vaporized="">
        <emissions CO_abs="3940.437894" CO2_abs="150260.266000" HC_abs="21.411345" PMx_abs="2.632206" NOx_abs="62.005637" fuel_abs="64.591815" electricity_abs="0"/>
    </tripinfo>
    <tripinfo id="carIn53971:1" depart="57640.00" departLane="272042143_1" departPos="5.10" departSpeed="0.00" departDelay="0.80" arrival="57699.00" arrivalLane="24634414#1_1" arrivalPos="162.19" arrivalSpeed="6.89" duration="59.00" routeLength="493.04" waitingTime="0.00" waitingCount="0" stopTime="0.00" timeLoss="9.31" rerouteNo="1" devices="tripinfo_carIn53971:1 routing_carIn53971:1 emissions_carIn53971:1" vType="default_016" speedFactor="0.93" vaporized="">
        <emissions CO_abs="2601.306959" CO2_abs="142628.600431" HC_abs="15.126363" PMx_abs="2.235922" NOx_abs="56.846198" fuel_abs="61.310679" electricity_abs="0"/>
    </tripinfo>
    <tripinfo id="S5R_frequency1.2" depart="57612.00" departLane="315358250#0_1" departPos="12.10" departSpeed="0.00" departDelay="0.40" arrival="57708.00" arrivalLane="386687235_1" arrivalPos="80.84" arrivalSpeed="13.62" duration="96.00" routeLength="1115.62" waitingTime="0.00" waitingCount="0" stopTime="0.00" timeLoss="14.71" rerouteNo="1" devices="tripinfo_S5R_frequency1.2 routing_S5R_frequency1.2 emissions_S5R_frequency1.2" vType="bus" speedFactor="1.00" vaporized="">
        <emissions CO_abs="2019.508316" CO2_abs="1284244.675971" HC_abs="422.567780" PMx_abs="216.785557" NOx_abs="9916.191472" fuel_abs="547.720199" electricity_abs="0"/>
    </tripinfo>
    <tripinfo id="h7800c1:5" depart="57696.00" departLane="-447569998#1_1" departPos="5.10" departSpeed="0.00" departDelay="0.00" arrival="57718.00" arrivalLane="-447569998#1_1" arrivalPos="180.76" arrivalSpeed="8.67" duration="22.00" routeLength="175.66" waitingTime="0.00" waitingCount="0" stopTime="0.00" timeLoss="2.86" rerouteNo="1" devices="tripinfo_h7800c1:5 routing_h7800c1:5 emissions_h7800c1:5" vType="default_016" speedFactor="1.12" vaporized="">
        <emissions CO_abs="955.704594" CO2_abs="46030.506648" HC_abs="5.401613" PMx_abs="0.700724" NOx_abs="18.315866" fuel_abs="19.786907" electricity_abs="0"/>
    </tripinfo>
    <tripinfo id="h3568c1:3" depart="57656.00" departLane="266565295#5_1" departPos="5.10" departSpeed="0.00" departDelay="0.80" arrival="57740.00" arrivalLane="-24634415_1" arrivalPos="62.03" arrivalSpeed="13.78" duration="84.00" routeLength="807.40" waitingTime="2.00" waitingCount="1" stopTime="0.00" timeLoss="20.07" rerouteNo="1" devices="tripinfo_h3568c1:3 routing_h3568c1:3 emissions_h3568c1:3" vType="default_016" speedFactor="1.01" vaporized="">
        <emissions CO_abs="4118.878240" CO2_abs="248545.257153" HC_abs="24.613789" PMx_abs="4.519499" NOx_abs="102.587772" fuel_abs="106.839018" electricity_abs="0"/>
    </tripinfo>
    <tripinfo id="h3688c1:1" depart="57625.00" departLane="201201950#1_1" departPos="5.10" departSpeed="0.00" departDelay="0.00" arrival="57746.00" arrivalLane="32978638#0_1" arrivalPos="49.29" arrivalSpeed="10.59" duration="121.00" routeLength="1089.75" waitingTime="8.00" waitingCount="1" stopTime="0.00" timeLoss="26.82" rerouteNo="1" devices="tripinfo_h3688c1:1 routing_h3688c1:1 emissions_h3688c1:1" vType="default_016" speedFactor="0.85" vaporized="">
        <emissions CO_abs="4499.697688" CO2_abs="264343.189533" HC_abs="26.621244" PMx_abs="4.326891" NOx_abs="106.189975" fuel_abs="113.630692" electricity_abs="0"/>
    </tripinfo>
    <tripinfo id="carIn27009:1" depart="57673.00" departLane="-447569998#1_1" departPos="5.10" departSpeed="0.00" departDelay="0.50" arrival="57758.00" arrivalLane="-26677539_1" arrivalPos="152.75" arrivalSpeed="9.24" duration="85.00" routeLength="699.63" waitingTime="0.00" waitingCount="0" stopTime="0.00" timeLoss="11.89" rerouteNo="1" devices="tripinfo_carIn27009:1 routing_carIn27009:1 emissions_carIn27009:1" vType="default_015" speedFactor="1.15" vaporized="">
        <emissions CO_abs="3330.480948" CO2_abs="176875.368814" HC_abs="19.252150" PMx_abs="2.911162" NOx_abs="71.779223" fuel_abs="76.031916" electricity_abs="0"/>
    </tripinfo>
    <tripinfo id="carIn80064:1" depart="57603.00" departLane="128361109#1_1" departPos="5.10" departSpeed="0.00" departDelay="0.40" arrival="57769.00" arrivalLane="-315358254#1_1" arrivalPos="137.16" arrivalSpeed="15.20" duration="166.00" routeLength="1587.97" waitingTime="48.00" waitingCount="3" stopTime="0.00" timeLoss="87.22" rerouteNo="1" devices="tripinfo_carIn80064:1 routing_carIn80064:1 emissions_carIn80064:1" vType="default_016" speedFactor="1.13" vaporized="">
        <emissions CO_abs="14480.011112" CO2_abs="623894.953508" HC_abs="80.769516" PMx_abs="12.999193" NOx_abs="263.541850" fuel_abs="268.187338" electricity_abs="0"/>
    </tripinfo>
    <tripinfo id="h3326c1:2" depart="57656.00" departLane="22716069#0_1" departPos="5.10" departSpeed="0.00" departDelay="0.00" arrival="57769.00" arrivalLane="24634517#13_1" arrivalPos="111.62" arrivalSpeed="12.82" duration="113.00" routeLength="1312.81" waitingTime="0.00" waitingCount="0" stopTime="0.00" timeLoss="14.87" rerouteNo="1" devices="tripinfo_h3326c1:2 routing_h3326c1:2 emissions_h3326c1:2" vType="default_016" speedFactor="0.99" vaporized="">
        <emissions CO_abs="3954.050984" CO2_abs="291632.720711" HC_abs="24.834883" PMx_abs="4.935663" NOx_abs="117.226639" fuel_abs="125.360370" electricity_abs="0"/>
    </tripinfo>
    <tripinfo id="h317c2:1" depart="57707.00" departLane="-32978638#0_1" departPos="5.10" departSpeed="0.00" departDelay="0.10" arrival="57775.00" arrivalLane="-266565295#5_1" arrivalPos="172.76" arrivalSpeed="13.42" duration="68.00" routeLength="370.53" waitingTime="30.00" waitingCount="1" stopTime="0.00" timeLoss="40.25" rerouteNo="1" devices="tripinfo_h317c2:1 routing_h317c2:1 emissions_h317c2:1" vType="default_016" speedFactor="1.01" vaporized="">
        <emissions CO_abs="6500.640973" CO2_abs="194338.901578" HC_abs="34.152159" PMx_abs="4.024444" NOx_abs="83.380756" fuel_abs="83.540068" electricity_abs="0"/>
    </tripinfo>
    <tripinfo id="h4538c1:1" depart="57701.00" departLane="-10427692#1_1" departPos="5.10" departSpeed="0.00" departDelay="0.00" arrival="57776.00" arrivalLane="-128361102#1_1" arrivalPos="274.68" arrivalSpeed="12.81" duration="75.00" routeLength="440.74" waitingTime="33.00" waitingCount="1" stopTime="0.00" timeLoss="43.54" rerouteNo="1" devices="tripinfo_h4538c1:1 routing_h4538c1:1 emissions_h4538c1:1" vType="default_016" speedFactor="1.00" vaporized="">
        <emissions CO_abs="5928.124232" CO2_abs="183521.679381" HC_abs="31.251070" PMx_abs="3.570029" NOx_abs="77.014173" fuel_abs="78.890286" electricity_abs="0"/>
    </tripinfo>
    <tripinfo id="h330c1:1" depart="57736.00" departLane="-32978638#0_1" departPos="5.10" departSpeed="0.00" departDelay="0.20" arrival="57777.00" arrivalLane="-266565295#5_1" arrivalPos="172.76" arrivalSpeed="12.73" duration="41.00" routeLength="370.53" waitingTime="3.00" waitingCount="1" stopTime="0.00" timeLoss="13.40" rerouteNo="1" devices="tripinfo_h330c1:1 routing_h330c1:1 emissions_h330c1:1" vType="default_016" speedFactor="0.99" vaporized="">
        <emissions CO_abs="2139.842928" CO2_abs="124684.032741" HC_abs="12.652266" PMx_abs="2.222077" NOx_abs="51.067435" fuel_abs="53.596493" electricity_abs="0"/>
    </tripinfo>
    <tripinfo id="carIn22761:1" depart="57616.00" departLane="-306240162#1_0" departPos="5.10" departSpeed="0.00" departDelay="2.10" arrival="57793.00" arrivalLane="399835085#1_1" arrivalPos="212.23" arrivalSpeed="6.39" duration="177.00" routeLength="1093.26" waitingTime="56.00" waitingCount="2" stopTime="0.00" timeLoss="81.59" rerouteNo="1" devices="tripinfo_carIn22761:1 routing_carIn22761:1 emissions_carIn22761:1" vType="default_016" speedFactor="0.82" vaporized="">
        <emissions CO_abs="13128.746087" CO2_abs="408926.530692" HC_abs="69.268184" PMx_abs="8.209022" NOx_abs="173.587932" fuel_abs="175.784348" electricity_abs="0"/>
    </tripinfo>
    <tripinfo id="carIn12858:1" depart="57661.00" departLane="128361109#1_1" departPos="5.10" departSpeed="0.00" departDelay="0.90" arrival="57795.00" arrivalLane="399835085#1_1" arrivalPos="212.23" arrivalSpeed="9.42" duration="134.00" routeLength="1738.12" waitingTime="0.00" waitingCount="0" stopTime="0.00" timeLoss="31.77" rerouteNo="1" devices="tripinfo_carIn12858:1 routing_carIn12858:1 emissions_carIn12858:1" vType="default_016" speedFactor="1.14" vaporized="">
        <emissions CO_abs="7608.058734" CO2_abs="487441.003150" HC_abs="46.316969" PMx_abs="9.636723" NOx_abs="202.528668" fuel_abs="209.528913" electricity_abs="0"/>
    </tripinfo>
    <tripinfo id="h3154c1:1" depart="57658.00" departLane="24634507_1" departPos="5.10" departSpeed="0.00" departDelay="0.00" arrival="57796.00" arrivalLane="-266565295#5_1" arrivalPos="172.76" arrivalSpeed="15.01" duration="138.00" routeLength="1206.22" waitingTime="40.00" waitingCount="1" stopTime="0.00" timeLoss="56.87" rerouteNo="1" devices="tripinfo_h3154c1:1 routing_h3154c1:1 emissions_h3154c1:1" vType="default_016" speedFactor="1.10" vaporized="">
        <emissions CO_abs="10220.191541" CO2_abs="395897.489162" HC_abs="55.892008" PMx_abs="7.813704" NOx_abs="166.168756" fuel_abs="170.181783" electricity_abs="0"/>
    </tripinfo>
    <tripinfo id="carIn30817:1" depart="57681.00" departLane="315358244_1" departPos="5.10" departSpeed="0.00" departDelay="0.20" arrival="57799.00" arrivalLane="447569997#1_1" arrivalPos="180.93" arrivalSpeed="7.95" duration="118.00" routeLength="718.04" waitingTime="38.00" waitingCount="1" stopTime="0.00" timeLoss="53.76" rerouteNo="1" devices="tripinfo_carIn30817:1 routing_carIn30817:1 emissions_carIn30817:1" vType="default_016" speedFactor="0.96" vaporized="">
        <emissions CO_abs="8392.272490" CO2_abs="256009.459463" HC_abs="44.190558" PMx_abs="5.030770" NOx_abs="108.331529" fuel_abs="110.050513" electricity_abs="0"/>
    </tripinfo>
    <tripinfo id="carIn12365:1" depart="57713.00" departLane="315358244_1" departPos="5.10" departSpeed="0.00" departDelay="0.50" arrival="57799.00" arrivalLane="447569997#1_2" arrivalPos="180.93" arrivalSpeed="7.41" duration="86.00" routeLength="718.04" waitingTime="10.00" waitingCount="1" stopTime="0.00" timeLoss="26.67" rerouteNo="1" devices="tripinfo_carIn12365:1 routing_carIn12365:1 emissions_carIn12365:1" vType="default_016" speedFactor="1.04" vaporized="">
        <emissions CO_abs="3689.702678" CO2_abs="191430.577780" HC_abs="21.259681" PMx_abs="3.370835" NOx_abs="78.503915" fuel_abs="82.288437" electricity_abs="0"/>
    </tripinfo>
    <tripinfo id="h5979c1:5" depart="57669.00" departLane="399835085#1_1" departPos="5.10" departSpeed="0.00" departDelay="0.00" arrival="57801.00" arrivalLane="-315358254#1_1" arrivalPos="137.16" arrivalSpeed="10.55" duration="132.00" routeLength="659.33" waitingTime="21.00" waitingCount="1" stopTime="0.00" timeLoss="37.75" rerouteNo="1" devices="tripinfo_h5979c1:5 routing_h5979c1:5 emissions_h5979c1:5" vType="default_016" speedFactor="0.78" vaporized="">
        <emissions CO_abs="7613.677360" CO2_abs="233811.123390" HC_abs="40.020086" PMx_abs="4.121152" NOx_abs="97.014851" fuel_abs="100.508699" electricity_abs="0"/>
    </tripinfo>
    <tripinfo id="h645c1:1" depart="57622.00" departLane="266565295#5_1" departPos="5.10" departSpeed="0.00" departDelay="0.40" arrival="57803.00" arrivalLane="-315358244_2" arrivalPos="33.95" arrivalSpeed="14.31" duration="181.00" routeLength="1910.83" waitingTime="20.00" waitingCount="3" stopTime="0.00" timeLoss="46.69" rerouteNo="1" devices="tripinfo_h645c1:1 routing_h645c1:1 emissions_h645c1:1" vType="default_016" speedFactor="1.03" vaporized="">
        <emissions CO_abs="7741.994148" CO2_abs="477035.857287" HC_abs="46.263842" PMx_abs="8.128592" NOx_abs="191.048268" fuel_abs="205.058297" electricity_abs="0"/>
    </tripinfo>
    <tripinfo id="carIn121703:1" depart="57647.00" departLane="386687232#0_1" departPos="5.10" departSpeed="0.00" departDelay="0.30" arrival="57803.00" arrivalLane="-315358244_1" arrivalPos="33.95" arrivalSpeed="13.51" duration="156.00" routeLength="1157.39" waitingTime="50.00" waitingCount="3" stopTime="0.00" timeLoss="73.47" rerouteNo="1" devices="tripinfo_carIn121703:1 routing_carIn121703:1 emissions_carIn121703:1" vType="default_016" speedFactor="1.02" vaporized="">
        <emissions CO_abs="10941.042256" CO2_abs="400979.409778" HC_abs="59.182584" PMx_abs="7.642579" NOx_abs="166.913852" fuel_abs="172.367188" electricity_abs="0"/>
    </tripinfo>
    <tripinfo id="carIn129809:1" depart="57729.00" departLane="-447569998#1_1" departPos="5.10" departSpeed="0.00" departDelay="1.00" arrival="57805.00" arrivalLane="-315358244_1" arrivalPos="33.95" arrivalSpeed="15.93" duration="76.00" routeLength="706.49" waitingTime="7.00" waitingCount="1" stopTime="0.00" timeLoss="24.32" rerouteNo="1" devices="tripinfo_carIn129809:1 routing_carIn129809:1 emissions_carIn129809:1" vType="default_015" speedFactor="1.18" vaporized="">
        <emissions CO_abs="4165.151391" CO2_abs="220254.086501" HC_abs="24.118745" PMx_abs="4.083853" NOx_abs="90.988972" fuel_abs="94.678205" electricity_abs="0"/>
    </tripinfo>
    <tripinfo id="carIn107282:1" depart="57749.00" departLane="-447569998#1_1" departPos="5.10" departSpeed="0.00" departDelay="0.00" arrival="57816.00" arrivalLane="315358242#0_1" arrivalPos="165.37" arrivalSpeed="13.05" duration="67.00" routeLength="448.50" waitingTime="14.00" waitingCount="1" stopTime="0.00" timeLoss="24.54" rerouteNo="1" devices="tripinfo_carIn107282:1 routing_carIn107282:1 emissions_carIn107282:1" vType="default_016" speedFactor="0.98" vaporized="">
        <emissions CO_abs="3814.495533" CO2_abs="146455.201794" HC_abs="20.779042" PMx_abs="2.679984" NOx_abs="60.769046" fuel_abs="62.955992" electricity_abs="0"/>
    </tripinfo>
    <tripinfo id="h7181c1:1" depart="57660.00" departLane="315358254#0_1" departPos="5.10" departSpeed="0.00" departDelay="0.10" arrival="57822.00" arrivalLane="306240162#0_0" arrivalPos="220.43" arrivalSpeed="14.50" duration="162.00" routeLength="932.35" waitingTime="79.00" waitingCount="3" stopTime="0.00" timeLoss="107.07" rerouteNo="1" devices="tripinfo_h7181c1:1 routing_h7181c1:1 emissions_h7181c1:1" vType="default_016" speedFactor="0.94" vaporized="">
        <emissions CO_abs="16044.204715" CO2_abs="479692.633481" HC_abs="84.364606" PMx_abs="10.398227" NOx_abs="207.962528" fuel_abs="206.203867" electricity_abs="0"/>
    </tripinfo>
    <tripinfo id="carIn50326:1" depart="57651.00" departLane="128361102#0_1" departPos="5.10" departSpeed="0.00" departDelay="0.30" arrival="57826.00" arrivalLane="18809673#0_1" arrivalPos="473.56" arrivalSpeed="12.57" duration="175.00" routeLength="1591.07" waitingTime="9.00" waitingCount="1" stopTime="0.00" timeLoss="32.90" rerouteNo="1" devices="tripinfo_carIn50326:1 routing_carIn50326:1 emissions_carIn50326:1" vType="default_016" speedFactor="0.91" vaporized="">
        <emissions CO_abs="5832.568454" CO2_abs="365946.206430" HC_abs="35.018214" PMx_abs="5.742154" NOx_abs="144.968672" fuel_abs="157.305899" electricity_abs="0"/>
    </tripinfo>
    <tripinfo id="carIn81860:1" depart="57712.00" departLane="128361102#0_1" departPos="5.10" departSpeed="0.00" departDelay="0.60" arrival="57833.00" arrivalLane="-24634517#17_1" arrivalPos="6.43" arrivalSpeed="7.08" duration="121.00" routeLength="1229.64" waitingTime="5.00" waitingCount="1" stopTime="0.00" timeLoss="22.82" rerouteNo="1" devices="tripinfo_carIn81860:1 routing_carIn81860:1 emissions_carIn81860:1" vType="default_016" speedFactor="0.92" vaporized="">
        <emissions CO_abs="3700.723113" CO2_abs="255545.325445" HC_abs="22.788135" PMx_abs="4.079538" NOx_abs="101.380369" fuel_abs="109.848503" electricity_abs="0"/>
    </tripinfo>
    <tripinfo id="carIn86816:1" depart="57617.00" departLane="128361102#0_1" departPos="5.10" departSpeed="0.00" departDelay="0.80" arrival="57834.00" arrivalLane="201956811#0_1" arrivalPos="40.40" arrivalSpeed="13.75" duration="217.00" routeLength="2067.33" waitingTime="36.00" waitingCount="2" stopTime="0.00" timeLoss="64.08" rerouteNo="1" devices="tripinfo_carIn86816:1 routing_carIn86816:1 emissions_carIn86816:1" vType="default_016" speedFactor="0.99" vaporized="">
        <emissions CO_abs="9901.946125" CO2_abs="488950.953060" HC_abs="56.513252" PMx_abs="8.728415" NOx_abs="199.509784" fuel_abs="210.181097" electricity_abs="0"/>
    </tripinfo>
    <tripinfo id="carIn102915:1" depart="57643.00" departLane="128361102#0_1" departPos="5.10" departSpeed="0.00" departDelay="0.40" arrival="57835.00" arrivalLane="201956811#0_1" arrivalPos="40.40" arrivalSpeed="13.16" duration="192.00" routeLength="2067.33" waitingTime="10.00" waitingCount="2" stopTime="0.00" timeLoss="44.02" rerouteNo="1" devices="tripinfo_carIn102915:1 routing_carIn102915:1 emissions_carIn102915:1" vType="default_016" speedFactor="1.02" vaporized="">
        <emissions CO_abs="6605.158537" CO2_abs="489518.988261" HC_abs="41.487016" PMx_abs="8.170961" NOx_abs="195.578809" fuel_abs="210.423356" electricity_abs="0"/>
    </tripinfo>
    <tripinfo id="randUni33724:1" depart="57646.00" departLane="128361102#0_1" departPos="5.10" departSpeed="0.00" departDelay="1.20" arrival="57839.00" arrivalLane="201956811#0_1" arrivalPos="40.40" arrivalSpeed="14.27" duration="193.00" routeLength="2067.33" waitingTime="6.00" waitingCount="2" stopTime="0.00" timeLoss="53.05" rerouteNo="1" devices="tripinfo_randUni33724:1 routing_randUni33724:1 emissions_randUni33724:1" vType="random_016" speedFactor="1.08" vaporized="">
        <emissions CO_abs="8235.302113" CO2_abs="548440.589917" HC_abs="50.385077" PMx_abs="9.692133" NOx_abs="223.223403" fuel_abs="235.751076" electricity_abs="0"/>
    </tripinfo>
    <tripinfo id="randUni15030:1" depart="57735.00" departLane="386687232#0_1" departPos="5.10" departSpeed="0.00" departDelay="0.10" arrival="57842.00" arrivalLane="26677539_1" arrivalPos="151.98" arrivalSpeed="6.86" duration="107.00" routeLength="919.89" waitingTime="0.00" waitingCount="0" stopTime="0.00" timeLoss="11.60" rerouteNo="1" devices="tripinfo_randUni15030:1 routing_randUni15030:1 emissions_randUni15030:1" vType="random_016" speedFactor="0.87" vaporized="">
        <emissions CO_abs="3770.104102" CO2_abs="211082.586641" HC_abs="22.019733" PMx_abs="3.275853" NOx_abs="83.890629" fuel_abs="90.736462" electricity_abs="0"/>
    </tripinfo>
    <tripinfo id="h5938c1:1" depart="57740.00" departLane="-26677542#0_1" departPos="5.10" departSpeed="0.00" departDelay="0.00" arrival="57846.00" arrivalLane="447569997#1_1" arrivalPos="180.93" arrivalSpeed="7.69" duration="106.00" routeLength="1093.64" waitingTime="0.00" waitingCount="0" stopTime="0.00" timeLoss="10.96" rerouteNo="1" devices="tripinfo_h5938c1:1 routing_h5938c1:1 emissions_h5938c1:1" vType="default_016" speedFactor="1.01" vaporized="">
        <emissions CO_abs="3221.851852" CO2_abs="206289.391695" HC_abs="19.474292" PMx_abs="3.472968" NOx_abs="83.194667" fuel_abs="88.675291" electricity_abs="0"/>
    </tripinfo>
    <tripinfo id="h11737c1:1" depart="57665.00" departLane="272042143_1" departPos="5.10" departSpeed="0.00" departDelay="1.50" arrival="57848.00" arrivalLane="-315358254#1_1" arrivalPos="137.16" arrivalSpeed="12.18" duration="183.00" routeLength="1596.88" waitingTime="31.00" waitingCount="2" stopTime="0.00" timeLoss="50.97" rerouteNo="1" devices="tripinfo_h11737c1:1 routing_h11737c1:1 emissions_h11737c1:1" vType="default_016" speedFactor="0.88" vaporized="">
        <emissions CO_abs="7855.201219" CO2_abs="384730.616170" HC_abs="44.711305" PMx_abs="6.552333" NOx_abs="155.603600" fuel_abs="165.381280" electricity_abs="0"/>
    </tripinfo>
    <tripinfo id="carIn126288:1" depart="57674.00" departLane="272042143_1" departPos="5.10" departSpeed="0.00" departDelay="0.00" arrival="57850.00" arrivalLane="-315358254#1_1" arrivalPos="137.16" arrivalSpeed="13.66" duration="176.00" routeLength="1596.88" waitingTime="29.00" waitingCount="2" stopTime="0.00" timeLoss="65.71" rerouteNo="1" devices="tripinfo_carIn126288:1 routing_carIn126288:1 emissions_carIn126288:1" vType="default_016" speedFactor="1.06" vaporized="">
        <emissions CO_abs="9169.263742" CO2_abs="474205.145688" HC_abs="52.829645" PMx_abs="8.486531" NOx_abs="193.949068" fuel_abs="203.842005" electricity_abs="0"/>
    </tripinfo>
    <tripinfo id="h3864c1:3" depart="57678.00" departLane="24693977#1_1" departPos="5.10" departSpeed="0.00" departDelay="0.00" arrival="57851.00" arrivalLane="201956820_1" arrivalPos="48.33" arrivalSpeed="12.94" duration="173.00" routeLength="1574.85" waitingTime="10.00" waitingCount="3" stopTime="0.00" timeLoss="45.44" rerouteNo="1" devices="tripinfo_h3864c1:3 routing_h3864c1:3 emissions_h3864c1:3" vType="default_016" speedFactor="1.01" vaporized="">
        <emissions CO_abs="7411.390896" CO2_abs="441119.863403" HC_abs="44.034066" PMx_abs="7.834868" NOx_abs="180.875035" fuel_abs="189.618994" electricity_abs="0"/>
    </tripinfo>
    <tripinfo id="carIn12152:1" depart="57647.00" departLane="24599188#0.94_1" departPos="5.10" departSpeed="0.00" departDelay="0.50" arrival="57852.00" arrivalLane="-315358254#1_1" arrivalPos="137.16" arrivalSpeed="13.67" duration="205.00" routeLength="2034.31" waitingTime="21.00" waitingCount="2" stopTime="0.00" timeLoss="49.06" rerouteNo="1" devices="tripinfo_carIn12152:1 routing_carIn12152:1 emissions_carIn12152:1" vType="default_016" speedFactor="1.02" vaporized="">
        <emissions CO_abs="8306.234015" CO2_abs="480211.167596" HC_abs="48.931270" PMx_abs="8.114651" NOx_abs="192.723041" fuel_abs="206.423701" electricity_abs="0"/>
    </tripinfo>
    <tripinfo id="h9953c2:3" depart="57682.00" departLane="-54169231#2_1" departPos="5.10" departSpeed="0.00" departDelay="0.00" arrival="57852.00" arrivalLane="386687235_1" arrivalPos="80.84" arrivalSpeed="13.57" duration="170.00" routeLength="1535.60" waitingTime="25.00" waitingCount="2" stopTime="0.00" timeLoss="49.18" rerouteNo="1" devices="tripinfo_h9953c2:3 routing_h9953c2:3 emissions_h9953c2:3" vType="default_016" speedFactor="1.04" vaporized="">
        <emissions CO_abs="7423.967970" CO2_abs="405920.855142" HC_abs="43.238182" PMx_abs="7.020259" NOx_abs="164.230706" fuel_abs="174.489322" electricity_abs="0"/>
    </tripinfo>
    <tripinfo id="carIn82278:1" depart="57702.00" departLane="-306240162#1_0" departPos="5.10" departSpeed="0.00" departDelay="0.70" arrival="57855.00" arrivalLane="399835085#1_1" arrivalPos="212.23" arrivalSpeed="7.88" duration="153.00" routeLength="1093.26" waitingTime="51.00" waitingCount="2" stopTime="0.00" timeLoss="74.04" rerouteNo="1" devices="tripinfo_carIn82278:1 routing_carIn82278:1 emissions_carIn82278:1" vType="default_016" speedFactor="0.99" vaporized="">
        <emissions CO_abs="12529.097020" CO2_abs="455112.086470" HC_abs="67.838799" PMx_abs="9.248819" NOx_abs="192.488938" fuel_abs="195.636250" electricity_abs="0"/>
    </tripinfo>
    <tripinfo id="h17890c1:3" depart="57792.00" departLane="386687232#0_1" departPos="5.10" departSpeed="0.00" departDelay="0.00" arrival="57858.00" arrivalLane="32978638#0_1" arrivalPos="49.29" arrivalSpeed="13.72" duration="66.00" routeLength="792.72" waitingTime="0.00" waitingCount="0" stopTime="0.00" timeLoss="10.59" rerouteNo="1" devices="tripinfo_h17890c1:3 routing_h17890c1:3 emissions_h17890c1:3" vType="default_016" speedFactor="1.07" vaporized="">
        <emissions CO_abs="3033.607516" CO2_abs="212407.415431" HC_abs="18.813809" PMx_abs="3.846713" NOx_abs="87.025508" fuel_abs="91.304559" electricity_abs="0"/>
    </tripinfo>
    <tripinfo id="carIn53503:1" depart="57765.00" departLane="-306240162#1_0" departPos="5.10" departSpeed="0.00" departDelay="4.40" arrival="57872.00" arrivalLane="24634510#6_1" arrivalPos="76.64" arrivalSpeed="15.92" duration="107.00" routeLength="1440.47" waitingTime="0.00" waitingCount="0" stopTime="0.00" timeLoss="25.21" rerouteNo="1" devices="tripinfo_carIn53503:1 routing_carIn53503:1 emissions_carIn53503:1" vType="default_016" speedFactor="1.22" vaporized="">
        <emissions CO_abs="5299.757305" CO2_abs="382328.065335" HC_abs="33.136563" PMx_abs="7.165162" NOx_abs="156.678098" fuel_abs="164.345574" electricity_abs="0"/>
    </tripinfo>
    <tripinfo id="carIn75660:1" depart="57679.00" departLane="128361109#1_1" departPos="5.10" departSpeed="0.00" departDelay="3.40" arrival="57874.00" arrivalLane="386687235_2" arrivalPos="80.84" arrivalSpeed="12.99" duration="195.00" routeLength="2088.57" waitingTime="12.00" waitingCount="1" stopTime="0.00" timeLoss="34.70" rerouteNo="1" devices="tripinfo_carIn75660:1 routing_carIn75660:1 emissions_carIn75660:1" vType="default_016" speedFactor="0.94" vaporized="">
        <emissions CO_abs="6738.006409" CO2_abs="455717.311621" HC_abs="41.317572" PMx_abs="7.510663" NOx_abs="181.818076" fuel_abs="195.894079" electricity_abs="0"/>
    </tripinfo>
    <tripinfo id="h3536c1:1" depart="57767.00" departLane="-24634413#2_1" departPos="5.10" departSpeed="0.00" departDelay="0.00" arrival="57874.00" arrivalLane="32978638#0_1" arrivalPos="49.29" arrivalSpeed="13.09" duration="107.00" routeLength="953.61" waitingTime="0.00" waitingCount="0" stopTime="0.00" timeLoss="15.03" rerouteNo="1" devices="tripinfo_h3536c1:1 routing_h3536c1:1 emissions_h3536c1:1" vType="default_016" speedFactor="1.00" vaporized="">
        <emissions CO_abs="4568.987232" CO2_abs="265054.228574" HC_abs="26.999453" PMx_abs="4.606961" NOx_abs="108.463904" fuel_abs="113.935952" electricity_abs="0"/>
    </tripinfo>
    <tripinfo id="carIn85747:1" depart="57673.00" departLane="128361109#1_1" departPos="5.10" departSpeed="0.00" departDelay="0.70" arrival="57875.00" arrivalLane="386687235_1" arrivalPos="80.84" arrivalSpeed="12.10" duration="202.00" routeLength="2088.57" waitingTime="16.00" waitingCount="1" stopTime="0.00" timeLoss="34.74" rerouteNo="1" devices="tripinfo_carIn85747:1 routing_carIn85747:1 emissions_carIn85747:1" vType="default_016" speedFactor="0.90" vaporized="">
        <emissions CO_abs="6116.415303" CO2_abs="389960.305409" HC_abs="36.829841" PMx_abs="5.817893" NOx_abs="151.275022" fuel_abs="167.629123" electricity_abs="0"/>
    </tripinfo>
    <tripinfo id="carIn100288:1" depart="57664.00" departLane="128361102#0_1" departPos="5.10" departSpeed="0.00" departDelay="0.60" arrival="57876.00" arrivalLane="201956811#0_1" arrivalPos="40.40" arrivalSpeed="12.27" duration="212.00" routeLength="2067.33" waitingTime="17.00" waitingCount="1" stopTime="0.00" timeLoss="45.03" rerouteNo="1" devices="tripinfo_carIn100288:1 routing_carIn100288:1 emissions_carIn100288:1" vType="default_016" speedFactor="0.91" vaporized="">
        <emissions CO_abs="8083.134645" CO2_abs="453775.929543" HC_abs="47.347734" PMx_abs="7.486093" NOx_abs="181.685293" fuel_abs="195.060661" electricity_abs="0"/>
    </tripinfo>
    <tripinfo id="carIn99233:1" depart="57691.00" departLane="128361109#1_1" departPos="5.10" departSpeed="0.00" departDelay="1.90" arrival="57876.00" arrivalLane="386687235_2" arrivalPos="80.84" arrivalSpeed="13.89" duration="185.00" routeLength="2088.57" waitingTime="7.00" waitingCount="1" stopTime="0.00" timeLoss="36.73" rerouteNo="1" devices="tripinfo_carIn99233:1 routing_carIn99233:1 emissions_carIn99233:1" vType="default_016" speedFactor="1.02" vaporized="">
        <emissions CO_abs="5710.049683" CO2_abs="439233.924092" HC_abs="36.264183" PMx_abs="7.245558" NOx_abs="174.895906" fuel_abs="188.807906" electricity_abs="0"/>
    </tripinfo>