<?xml version="1.0" encoding="UTF-8"?>

<!-- generated on 2021-10-26 14:21:15 by Eclipse SUMO sumo Version 1.10.0
<configuration xmlns:xsi="http://www.w3.org/2001/XMLSchema-instance" xsi:noNamespaceSchemaLocation="http://sumo.dlr.de/xsd/sumoConfiguration.xsd">

    <input>
        <net-file value="/Users/behradkoohy/sumo-scratchpad/RESCO/environments/ingolstadt21/ingolstadt21.net.xml"/>
        <route-files value="/Users/behradkoohy/sumo-scratchpad/RESCO/environments/ingolstadt21/ingolstadt21.rou.xml"/>
    </input>

    <output>
        <tripinfo-output value="/Users/behradkoohy/sumo-scratchpad/RESCO/logs/STOCHASTIC-tr0-ingolstadt21-21-mplight-wait/tripinfo_44.xml"/>
        <tripinfo-output.write-unfinished value="true"/>
    </output>

    <time>
        <begin value="57600"/>
        <end value="61200"/>
    </time>

    <processing>
        <time-to-teleport value="-1"/>
    </processing>

    <report>
        <no-warnings value="true"/>
        <no-step-log value="true"/>
    </report>

    <emissions>
        <device.emissions.probability value="1"/>
    </emissions>

    <traci_server>
        <remote-port value="60268"/>
    </traci_server>

    <random_number>
        <random value="true"/>
    </random_number>

</configuration>
-->

<tripinfos xmlns:xsi="http://www.w3.org/2001/XMLSchema-instance" xsi:noNamespaceSchemaLocation="http://sumo.dlr.de/xsd/tripinfo_file.xsd">
    <tripinfo id="h15454c2:3" depart="57612.00" departLane="24608844_1" departPos="5.10" departSpeed="0.00" departDelay="0.50" arrival="57651.00" arrivalLane="32978638#0_1" arrivalPos="49.29" arrivalSpeed="13.26" duration="39.00" routeLength="354.79" waitingTime="0.00" waitingCount="0" stopTime="0.00" timeLoss="5.03" rerouteNo="1" devices="tripinfo_h15454c2:3 routing_h15454c2:3 emissions_h15454c2:3" vType="default_016" speedFactor="1.00" vaporized="">
        <emissions CO_abs="1649.347800" CO2_abs="92593.940772" HC_abs="9.663604" PMx_abs="1.562110" NOx_abs="37.582500" fuel_abs="39.802459" electricity_abs="0"/>
    </tripinfo>
    <tripinfo id="carIn53971:1" depart="57640.00" departLane="272042143_1" departPos="5.10" departSpeed="0.00" departDelay="0.80" arrival="57691.00" arrivalLane="24634414#1_1" arrivalPos="162.19" arrivalSpeed="8.18" duration="51.00" routeLength="493.04" waitingTime="0.00" waitingCount="0" stopTime="0.00" timeLoss="9.76" rerouteNo="1" devices="tripinfo_carIn53971:1 routing_carIn53971:1 emissions_carIn53971:1" vType="default_016" speedFactor="1.12" vaporized="">
        <emissions CO_abs="2452.444517" CO2_abs="147175.218082" HC_abs="14.631199" PMx_abs="2.656778" NOx_abs="60.682583" fuel_abs="63.264391" electricity_abs="0"/>
    </tripinfo>
    <tripinfo id="carIn60260:1" depart="57606.00" departLane="315358254#0_1" departPos="5.10" departSpeed="0.00" departDelay="0.90" arrival="57695.00" arrivalLane="399835085#1_1" arrivalPos="212.23" arrivalSpeed="7.47" duration="89.00" routeLength="430.98" waitingTime="30.00" waitingCount="1" stopTime="0.00" timeLoss="41.24" rerouteNo="1" devices="tripinfo_carIn60260:1 routing_carIn60260:1 emissions_carIn60260:1" vType="default_016" speedFactor="0.96" vaporized="">
        <emissions CO_abs="6966.876021" CO2_abs="194288.273727" HC_abs="36.232699" PMx_abs="3.811224" NOx_abs="82.627553" fuel_abs="83.518967" electricity_abs="0"/>
    </tripinfo>
    <tripinfo id="h3688c1:1" depart="57625.00" departLane="201201950#1_1" departPos="5.10" departSpeed="0.00" departDelay="0.00" arrival="57709.00" arrivalLane="32978638#0_1" arrivalPos="49.29" arrivalSpeed="14.30" duration="84.00" routeLength="1089.75" waitingTime="0.00" waitingCount="0" stopTime="0.00" timeLoss="11.46" rerouteNo="1" devices="tripinfo_h3688c1:1 routing_h3688c1:1 emissions_h3688c1:1" vType="default_016" speedFactor="1.11" vaporized="">
        <emissions CO_abs="3010.748132" CO2_abs="238188.941806" HC_abs="19.169655" PMx_abs="4.132572" NOx_abs="95.613227" fuel_abs="102.386897" electricity_abs="0"/>
    </tripinfo>
    <tripinfo id="h7800c1:5" depart="57696.00" departLane="-447569998#1_1" departPos="5.10" departSpeed="0.00" departDelay="0.00" arrival="57745.00" arrivalLane="-447569998#1_2" arrivalPos="180.76" arrivalSpeed="3.49" duration="49.00" routeLength="175.66" waitingTime="23.00" waitingCount="1" stopTime="0.00" timeLoss="29.98" rerouteNo="1" devices="tripinfo_h7800c1:5 routing_h7800c1:5 emissions_h7800c1:5" vType="default_016" speedFactor="1.12" vaporized="">
        <emissions CO_abs="4022.072902" CO2_abs="97403.232398" HC_abs="20.569072" PMx_abs="1.963182" NOx_abs="41.756228" fuel_abs="41.871235" electricity_abs="0"/>
    </tripinfo>
    <tripinfo id="h317c2:1" depart="57707.00" departLane="-32978638#0_1" departPos="5.10" departSpeed="0.00" departDelay="0.10" arrival="57746.00" arrivalLane="-266565295#5_1" arrivalPos="172.76" arrivalSpeed="10.57" duration="39.00" routeLength="370.53" waitingTime="0.00" waitingCount="0" stopTime="0.00" timeLoss="5.74" rerouteNo="1" devices="tripinfo_h317c2:1 routing_h317c2:1 emissions_h317c2:1" vType="default_016" speedFactor="0.85" vaporized="">
        <emissions CO_abs="1675.221431" CO2_abs="103427.369677" HC_abs="10.027568" PMx_abs="1.682360" NOx_abs="41.498658" fuel_abs="44.459281" electricity_abs="0"/>
    </tripinfo>
    <tripinfo id="carIn22761:1" depart="57616.00" departLane="-306240162#1_0" departPos="5.10" departSpeed="0.00" departDelay="2.10" arrival="57752.00" arrivalLane="399835085#1_1" arrivalPos="212.23" arrivalSpeed="7.96" duration="136.00" routeLength="1093.26" waitingTime="32.00" waitingCount="3" stopTime="0.00" timeLoss="63.12" rerouteNo="1" devices="tripinfo_carIn22761:1 routing_carIn22761:1 emissions_carIn22761:1" vType="default_016" speedFactor="1.08" vaporized="">
        <emissions CO_abs="8830.629445" CO2_abs="408988.289469" HC_abs="49.902763" PMx_abs="8.179567" NOx_abs="172.144182" fuel_abs="175.807407" electricity_abs="0"/>
    </tripinfo>
    <tripinfo id="carIn30817:1" depart="57681.00" departLane="315358244_1" departPos="5.10" departSpeed="0.00" departDelay="0.20" arrival="57759.00" arrivalLane="447569997#1_1" arrivalPos="180.93" arrivalSpeed="7.99" duration="78.00" routeLength="718.04" waitingTime="1.00" waitingCount="1" stopTime="0.00" timeLoss="15.09" rerouteNo="1" devices="tripinfo_carIn30817:1 routing_carIn30817:1 emissions_carIn30817:1" vType="default_016" speedFactor="0.98" vaporized="">
        <emissions CO_abs="3215.003538" CO2_abs="185110.271323" HC_abs="18.919291" PMx_abs="3.034144" NOx_abs="74.299611" fuel_abs="79.571646" electricity_abs="0"/>
    </tripinfo>
    <tripinfo id="h3326c1:2" depart="57656.00" departLane="22716069#0_1" departPos="5.10" departSpeed="0.00" departDelay="0.00" arrival="57761.00" arrivalLane="24634517#13_1" arrivalPos="111.62" arrivalSpeed="14.56" duration="105.00" routeLength="1312.81" waitingTime="0.00" waitingCount="0" stopTime="0.00" timeLoss="15.82" rerouteNo="1" devices="tripinfo_h3326c1:2 routing_h3326c1:2 emissions_h3326c1:2" vType="default_016" speedFactor="1.11" vaporized="">
        <emissions CO_abs="4296.655836" CO2_abs="320841.810885" HC_abs="27.106603" PMx_abs="5.657110" NOx_abs="129.784274" fuel_abs="137.915772" electricity_abs="0"/>
    </tripinfo>
    <tripinfo id="h3568c1:3" depart="57656.00" departLane="266565295#5_1" departPos="5.10" departSpeed="0.00" departDelay="0.80" arrival="57764.00" arrivalLane="-24634415_1" arrivalPos="62.03" arrivalSpeed="13.68" duration="108.00" routeLength="807.40" waitingTime="22.00" waitingCount="2" stopTime="0.00" timeLoss="46.10" rerouteNo="1" devices="tripinfo_h3568c1:3 routing_h3568c1:3 emissions_h3568c1:3" vType="default_016" speedFactor="1.04" vaporized="">
        <emissions CO_abs="7263.906177" CO2_abs="322785.314068" HC_abs="40.660339" PMx_abs="6.191489" NOx_abs="135.493362" fuel_abs="138.752778" electricity_abs="0"/>
    </tripinfo>
    <tripinfo id="carIn80064:1" depart="57603.00" departLane="128361109#1_1" departPos="5.10" departSpeed="0.00" departDelay="0.40" arrival="57766.00" arrivalLane="-315358254#1_1" arrivalPos="137.16" arrivalSpeed="14.32" duration="163.00" routeLength="1587.97" waitingTime="53.00" waitingCount="1" stopTime="0.00" timeLoss="79.14" rerouteNo="1" devices="tripinfo_carIn80064:1 routing_carIn80064:1 emissions_carIn80064:1" vType="default_016" speedFactor="1.06" vaporized="">
        <emissions CO_abs="13875.979944" CO2_abs="551135.391011" HC_abs="76.349022" PMx_abs="11.526566" NOx_abs="233.638625" fuel_abs="236.911751" electricity_abs="0"/>
    </tripinfo>
    <tripinfo id="carIn121703:1" depart="57647.00" departLane="386687232#0_1" departPos="5.10" departSpeed="0.00" departDelay="0.30" arrival="57772.00" arrivalLane="-315358244_1" arrivalPos="33.95" arrivalSpeed="12.95" duration="125.00" routeLength="1157.39" waitingTime="22.00" waitingCount="1" stopTime="0.00" timeLoss="37.33" rerouteNo="1" devices="tripinfo_carIn121703:1 routing_carIn121703:1 emissions_carIn121703:1" vType="default_016" speedFactor="0.96" vaporized="">
        <emissions CO_abs="6372.678418" CO2_abs="301769.701977" HC_abs="36.057065" PMx_abs="5.251763" NOx_abs="122.143548" fuel_abs="129.719566" electricity_abs="0"/>
    </tripinfo>
    <tripinfo id="h4538c1:1" depart="57701.00" departLane="-10427692#1_1" departPos="5.10" departSpeed="0.00" departDelay="0.00" arrival="57782.00" arrivalLane="-128361102#1_1" arrivalPos="274.68" arrivalSpeed="15.40" duration="81.00" routeLength="440.74" waitingTime="42.00" waitingCount="1" stopTime="0.00" timeLoss="53.43" rerouteNo="1" devices="tripinfo_h4538c1:1 routing_h4538c1:1 emissions_h4538c1:1" vType="default_016" speedFactor="1.14" vaporized="">
        <emissions CO_abs="7959.926157" CO2_abs="221007.543237" HC_abs="41.424836" PMx_abs="4.688279" NOx_abs="95.168608" fuel_abs="95.004415" electricity_abs="0"/>
    </tripinfo>
    <tripinfo id="carIn48184:1" depart="57613.00" departLane="-306240162#1_0" departPos="5.10" departSpeed="0.00" departDelay="0.70" arrival="57783.00" arrivalLane="386687235_1" arrivalPos="80.84" arrivalSpeed="14.33" duration="170.00" routeLength="2257.41" waitingTime="16.00" waitingCount="1" stopTime="0.00" timeLoss="37.88" rerouteNo="1" devices="tripinfo_carIn48184:1 routing_carIn48184:1 emissions_carIn48184:1" vType="default_016" speedFactor="1.12" vaporized="">
        <emissions CO_abs="7970.193071" CO2_abs="526792.707982" HC_abs="48.770842" PMx_abs="9.884296" NOx_abs="213.859695" fuel_abs="226.445185" electricity_abs="0"/>
    </tripinfo>
    <tripinfo id="carIn107282:1" depart="57749.00" departLane="-447569998#1_1" departPos="5.10" departSpeed="0.00" departDelay="0.00" arrival="57792.00" arrivalLane="315358242#0_1" arrivalPos="165.37" arrivalSpeed="14.98" duration="43.00" routeLength="448.50" waitingTime="0.00" waitingCount="0" stopTime="0.00" timeLoss="6.41" rerouteNo="1" devices="tripinfo_carIn107282:1 routing_carIn107282:1 emissions_carIn107282:1" vType="default_016" speedFactor="1.14" vaporized="">
        <emissions CO_abs="1966.406804" CO2_abs="122815.057061" HC_abs="11.784005" PMx_abs="2.100439" NOx_abs="49.573578" fuel_abs="52.793123" electricity_abs="0"/>
    </tripinfo>
    <tripinfo id="h645c1:1" depart="57622.00" departLane="266565295#5_1" departPos="5.10" departSpeed="0.00" departDelay="0.40" arrival="57793.00" arrivalLane="-315358244_1" arrivalPos="33.95" arrivalSpeed="14.66" duration="171.00" routeLength="1910.83" waitingTime="13.00" waitingCount="3" stopTime="0.00" timeLoss="43.21" rerouteNo="1" devices="tripinfo_h645c1:1 routing_h645c1:1 emissions_h645c1:1" vType="default_016" speedFactor="1.09" vaporized="">
        <emissions CO_abs="5910.685545" CO2_abs="408882.047113" HC_abs="36.298986" PMx_abs="6.966431" NOx_abs="163.273385" fuel_abs="175.761163" electricity_abs="0"/>
    </tripinfo>
    <tripinfo id="h5979c1:5" depart="57669.00" departLane="399835085#1_1" departPos="5.10" departSpeed="0.00" departDelay="0.00" arrival="57794.00" arrivalLane="-315358254#1_1" arrivalPos="137.16" arrivalSpeed="11.65" duration="125.00" routeLength="659.33" waitingTime="26.00" waitingCount="1" stopTime="0.00" timeLoss="40.64" rerouteNo="1" devices="tripinfo_h5979c1:5 routing_h5979c1:5 emissions_h5979c1:5" vType="default_016" speedFactor="0.87" vaporized="">
        <emissions CO_abs="7715.747063" CO2_abs="234974.936492" HC_abs="40.543135" PMx_abs="4.294978" NOx_abs="98.222154" fuel_abs="101.008837" electricity_abs="0"/>
    </tripinfo>
    <tripinfo id="h330c1:1" depart="57736.00" departLane="-32978638#0_1" departPos="5.10" departSpeed="0.00" departDelay="0.20" arrival="57796.00" arrivalLane="-266565295#5_1" arrivalPos="172.76" arrivalSpeed="11.84" duration="60.00" routeLength="370.53" waitingTime="21.00" waitingCount="1" stopTime="0.00" timeLoss="30.66" rerouteNo="1" devices="tripinfo_h330c1:1 routing_h330c1:1 emissions_h330c1:1" vType="default_016" speedFactor="0.94" vaporized="">
        <emissions CO_abs="4403.601860" CO2_abs="156765.234952" HC_abs="23.727434" PMx_abs="3.036818" NOx_abs="65.920329" fuel_abs="67.387955" electricity_abs="0"/>
    </tripinfo>
    <tripinfo id="h7181c1:1" depart="57660.00" departLane="315358254#0_1" departPos="5.10" departSpeed="0.00" departDelay="0.10" arrival="57811.00" arrivalLane="306240162#0_0" arrivalPos="220.43" arrivalSpeed="16.16" duration="151.00" routeLength="932.35" waitingTime="80.00" waitingCount="2" stopTime="0.00" timeLoss="100.47" rerouteNo="1" devices="tripinfo_h7181c1:1 routing_h7181c1:1 emissions_h7181c1:1" vType="default_016" speedFactor="1.03" vaporized="">
        <emissions CO_abs="15962.021777" CO2_abs="462098.109980" HC_abs="83.592949" PMx_abs="10.039259" NOx_abs="198.998800" fuel_abs="198.641122" electricity_abs="0"/>
    </tripinfo>
    <tripinfo id="h12244c1:3" depart="57612.00" departLane="315358244_1" departPos="5.10" departSpeed="0.00" departDelay="0.40" arrival="57817.00" arrivalLane="386687235_1" arrivalPos="80.84" arrivalSpeed="14.40" duration="205.00" routeLength="1186.14" waitingTime="100.00" waitingCount="2" stopTime="0.00" timeLoss="121.80" rerouteNo="1" devices="tripinfo_h12244c1:3 routing_h12244c1:3 emissions_h12244c1:3" vType="default_016" speedFactor="1.04" vaporized="">
        <emissions CO_abs="18963.160141" CO2_abs="515625.879666" HC_abs="98.392994" PMx_abs="10.589679" NOx_abs="219.636346" fuel_abs="221.652760" electricity_abs="0"/>
    </tripinfo>
    <tripinfo id="carIn118591:1" depart="57689.00" departLane="315358244_1" departPos="5.10" departSpeed="0.00" departDelay="0.20" arrival="57820.00" arrivalLane="386687235_1" arrivalPos="80.84" arrivalSpeed="14.67" duration="131.00" routeLength="1186.14" waitingTime="33.00" waitingCount="1" stopTime="0.00" timeLoss="53.00" rerouteNo="1" devices="tripinfo_carIn118591:1 routing_carIn118591:1 emissions_carIn118591:1" vType="default_016" speedFactor="1.11" vaporized="">
        <emissions CO_abs="8094.740677" CO2_abs="335628.124890" HC_abs="44.698086" PMx_abs="6.492506" NOx_abs="139.950716" fuel_abs="144.273903" electricity_abs="0"/>
    </tripinfo>
    <tripinfo id="h9563c2:5" depart="57631.00" departLane="315358244_1" departPos="5.10" departSpeed="0.00" departDelay="0.70" arrival="57823.00" arrivalLane="386687235_1" arrivalPos="80.84" arrivalSpeed="12.71" duration="192.00" routeLength="1186.14" waitingTime="80.00" waitingCount="2" stopTime="0.00" timeLoss="104.05" rerouteNo="1" devices="tripinfo_h9563c2:5 routing_h9563c2:5 emissions_h9563c2:5" vType="default_016" speedFactor="0.99" vaporized="">
        <emissions CO_abs="15568.512865" CO2_abs="472914.050237" HC_abs="81.935226" PMx_abs="9.244656" NOx_abs="198.631316" fuel_abs="203.291309" electricity_abs="0"/>
    </tripinfo>
    <tripinfo id="h3154c1:1" depart="57658.00" departLane="24634507_1" departPos="5.10" departSpeed="0.00" departDelay="0.00" arrival="57829.00" arrivalLane="-266565295#5_1" arrivalPos="172.76" arrivalSpeed="12.19" duration="171.00" routeLength="1206.22" waitingTime="53.00" waitingCount="2" stopTime="0.00" timeLoss="74.98" rerouteNo="1" devices="tripinfo_h3154c1:1 routing_h3154c1:1 emissions_h3154c1:1" vType="default_016" speedFactor="0.93" vaporized="">
        <emissions CO_abs="11856.107256" CO2_abs="414865.160500" HC_abs="63.687941" PMx_abs="7.917891" NOx_abs="173.484246" fuel_abs="178.336567" electricity_abs="0"/>
    </tripinfo>
    <tripinfo id="carIn12152:1" depart="57647.00" departLane="24599188#0.94_1" departPos="5.10" departSpeed="0.00" departDelay="0.50" arrival="57832.00" arrivalLane="-315358254#1_1" arrivalPos="137.16" arrivalSpeed="12.93" duration="185.00" routeLength="2034.31" waitingTime="0.00" waitingCount="0" stopTime="0.00" timeLoss="16.29" rerouteNo="1" devices="tripinfo_carIn12152:1 routing_carIn12152:1 emissions_carIn12152:1" vType="default_016" speedFactor="0.94" vaporized="">
        <emissions CO_abs="4749.854208" CO2_abs="379096.220115" HC_abs="30.397933" PMx_abs="5.691891" NOx_abs="147.417141" fuel_abs="162.957974" electricity_abs="0"/>
    </tripinfo>
    <tripinfo id="carIn107084:1" depart="57601.00" departLane="124812856#0_1" departPos="5.10" departSpeed="0.00" departDelay="0.70" arrival="57834.00" arrivalLane="-128361102#1_1" arrivalPos="274.68" arrivalSpeed="9.82" duration="233.00" routeLength="2232.46" waitingTime="0.00" waitingCount="0" stopTime="0.00" timeLoss="20.90" rerouteNo="1" devices="tripinfo_carIn107084:1 routing_carIn107084:1 emissions_carIn107084:1" vType="default_016" speedFactor="0.77" vaporized="">
        <emissions CO_abs="6045.925946" CO2_abs="415901.454060" HC_abs="37.052139" PMx_abs="5.996138" NOx_abs="161.865156" fuel_abs="178.779953" electricity_abs="0"/>
    </tripinfo>
    <tripinfo id="h20540c1:1" depart="57634.00" departLane="10425609#0_1" departPos="5.10" departSpeed="0.00" departDelay="0.50" arrival="57835.00" arrivalLane="-128361102#1_1" arrivalPos="274.68" arrivalSpeed="12.24" duration="201.00" routeLength="2095.01" waitingTime="0.00" waitingCount="0" stopTime="0.00" timeLoss="66.97" rerouteNo="1" devices="tripinfo_h20540c1:1 routing_h20540c1:1 emissions_h20540c1:1" vType="default_016" speedFactor="1.15" vaporized="">
        <emissions CO_abs="8102.587127" CO2_abs="552946.410414" HC_abs="49.810138" PMx_abs="9.485938" NOx_abs="224.178517" fuel_abs="237.688097" electricity_abs="0"/>
    </tripinfo>
    <tripinfo id="h11737c1:1" depart="57665.00" departLane="272042143_1" departPos="5.10" departSpeed="0.00" departDelay="1.50" arrival="57836.00" arrivalLane="-315358254#1_1" arrivalPos="137.16" arrivalSpeed="14.29" duration="171.00" routeLength="1596.88" waitingTime="42.00" waitingCount="1" stopTime="0.00" timeLoss="64.60" rerouteNo="1" devices="tripinfo_h11737c1:1 routing_h11737c1:1 emissions_h11737c1:1" vType="default_016" speedFactor="1.10" vaporized="">
        <emissions CO_abs="10275.896131" CO2_abs="452829.301236" HC_abs="57.080158" PMx_abs="8.343300" NOx_abs="185.425626" fuel_abs="194.654391" electricity_abs="0"/>
    </tripinfo>
    <tripinfo id="carIn28951:1" depart="57606.00" departLane="10425609#0_1" departPos="5.10" departSpeed="0.00" departDelay="0.20" arrival="57837.00" arrivalLane="-128361102#1_1" arrivalPos="274.68" arrivalSpeed="14.07" duration="231.00" routeLength="2113.04" waitingTime="32.00" waitingCount="3" stopTime="0.00" timeLoss="81.84" rerouteNo="1" devices="tripinfo_carIn28951:1 routing_carIn28951:1 emissions_carIn28951:1" vType="default_016" speedFactor="1.04" vaporized="">
        <emissions CO_abs="11098.691183" CO2_abs="593149.205174" HC_abs="64.318434" PMx_abs="10.562534" NOx_abs="242.348531" fuel_abs="254.971084" electricity_abs="0"/>
    </tripinfo>
    <tripinfo id="carIn27009:1" depart="57673.00" departLane="-447569998#1_1" departPos="5.10" departSpeed="0.00" departDelay="0.50" arrival="57837.00" arrivalLane="-26677539_1" arrivalPos="152.75" arrivalSpeed="5.85" duration="164.00" routeLength="699.63" waitingTime="34.00" waitingCount="1" stopTime="0.00" timeLoss="53.67" rerouteNo="1" devices="tripinfo_carIn27009:1 routing_carIn27009:1 emissions_carIn27009:1" vType="default_015" speedFactor="0.76" vaporized="">
        <emissions CO_abs="10561.375670" CO2_abs="280858.137953" HC_abs="54.553132" PMx_abs="5.359197" NOx_abs="119.284506" fuel_abs="120.733438" electricity_abs="0"/>
    </tripinfo>
    <tripinfo id="carIn126288:1" depart="57674.00" departLane="272042143_1" departPos="5.10" departSpeed="0.00" departDelay="0.00" arrival="57838.00" arrivalLane="-315358254#1_1" arrivalPos="137.16" arrivalSpeed="16.09" duration="164.00" routeLength="1596.88" waitingTime="41.00" waitingCount="1" stopTime="0.00" timeLoss="62.81" rerouteNo="1" devices="tripinfo_carIn126288:1 routing_carIn126288:1 emissions_carIn126288:1" vType="default_016" speedFactor="1.16" vaporized="">
        <emissions CO_abs="10358.190617" CO2_abs="462429.185783" HC_abs="57.884813" PMx_abs="8.730965" NOx_abs="190.451489" fuel_abs="198.780643" electricity_abs="0"/>
    </tripinfo>
    <tripinfo id="carIn12365:1" depart="57713.00" departLane="315358244_1" departPos="5.10" departSpeed="0.00" departDelay="0.50" arrival="57839.00" arrivalLane="447569997#1_1" arrivalPos="180.93" arrivalSpeed="6.78" duration="126.00" routeLength="718.04" waitingTime="47.00" waitingCount="1" stopTime="0.00" timeLoss="61.04" rerouteNo="1" devices="tripinfo_carIn12365:1 routing_carIn12365:1 emissions_carIn12365:1" vType="default_016" speedFactor="0.95" vaporized="">
        <emissions CO_abs="10051.341009" CO2_abs="295866.896878" HC_abs="52.688795" PMx_abs="5.934790" NOx_abs="125.931104" fuel_abs="127.184109" electricity_abs="0"/>
    </tripinfo>
    <tripinfo id="randUni31145:1" depart="57814.00" departLane="10425609#0_1" departPos="5.10" departSpeed="0.00" departDelay="0.30" arrival="57842.00" arrivalLane="201956810_1" arrivalPos="71.65" arrivalSpeed="12.04" duration="28.00" routeLength="255.78" waitingTime="0.00" waitingCount="0" stopTime="0.00" timeLoss="6.18" rerouteNo="1" devices="tripinfo_randUni31145:1 routing_randUni31145:1 emissions_randUni31145:1" vType="random_016" speedFactor="0.90" vaporized="">
        <emissions CO_abs="1547.850446" CO2_abs="88530.108190" HC_abs="9.106888" PMx_abs="1.486973" NOx_abs="35.868288" fuel_abs="38.055566" electricity_abs="0"/>
    </tripinfo>
    <tripinfo id="randUni2407:1" depart="57820.00" departLane="10425609#0_1" departPos="5.10" departSpeed="0.00" departDelay="0.80" arrival="57844.00" arrivalLane="201956810_1" arrivalPos="71.65" arrivalSpeed="16.00" duration="24.00" routeLength="255.78" waitingTime="0.00" waitingCount="0" stopTime="0.00" timeLoss="6.48" rerouteNo="1" devices="tripinfo_randUni2407:1 routing_randUni2407:1 emissions_randUni2407:1" vType="random_016" speedFactor="1.16" vaporized="">
        <emissions CO_abs="1719.647669" CO2_abs="103392.644900" HC_abs="10.296084" PMx_abs="2.027436" NOx_abs="43.604482" fuel_abs="44.443876" electricity_abs="0"/>
    </tripinfo>
    <tripinfo id="carIn12775:1" depart="57676.00" departLane="10425609#0_1" departPos="5.10" departSpeed="0.00" departDelay="0.60" arrival="57851.00" arrivalLane="18809673#0_1" arrivalPos="473.56" arrivalSpeed="13.30" duration="175.00" routeLength="1959.45" waitingTime="5.00" waitingCount="1" stopTime="0.00" timeLoss="32.25" rerouteNo="1" devices="tripinfo_carIn12775:1 routing_carIn12775:1 emissions_carIn12775:1" vType="default_016" speedFactor="1.02" vaporized="">
        <emissions CO_abs="5350.647346" CO2_abs="408063.329396" HC_abs="33.827159" PMx_abs="6.515027" NOx_abs="160.703232" fuel_abs="175.409402" electricity_abs="0"/>
    </tripinfo>
    <tripinfo id="randUni15030:1" depart="57735.00" departLane="386687232#0_1" departPos="5.10" departSpeed="0.00" departDelay="0.10" arrival="57860.00" arrivalLane="26677539_1" arrivalPos="151.98" arrivalSpeed="8.11" duration="125.00" routeLength="919.89" waitingTime="29.00" waitingCount="2" stopTime="0.00" timeLoss="45.71" rerouteNo="1" devices="tripinfo_randUni15030:1 routing_randUni15030:1 emissions_randUni15030:1" vType="random_016" speedFactor="1.05" vaporized="">
        <emissions CO_abs="8082.781970" CO2_abs="311008.177431" HC_abs="44.004653" PMx_abs="5.765802" NOx_abs="129.084027" fuel_abs="133.691491" electricity_abs="0"/>
    </tripinfo>
    <tripinfo id="h5938c1:1" depart="57740.00" departLane="-26677542#0_1" departPos="5.10" departSpeed="0.00" departDelay="0.00" arrival="57862.00" arrivalLane="447569997#1_1" arrivalPos="180.93" arrivalSpeed="8.05" duration="122.00" routeLength="1093.64" waitingTime="17.00" waitingCount="1" stopTime="0.00" timeLoss="35.16" rerouteNo="1" devices="tripinfo_h5938c1:1 routing_h5938c1:1 emissions_h5938c1:1" vType="default_016" speedFactor="1.11" vaporized="">
        <emissions CO_abs="6345.894014" CO2_abs="283733.016001" HC_abs="35.491012" PMx_abs="5.184137" NOx_abs="116.847842" fuel_abs="121.966139" electricity_abs="0"/>
    </tripinfo>
    <tripinfo id="50R_frequency3.17" depart="57674.00" departLane="-18809673#6_1" departPos="12.10" departSpeed="0.00" departDelay="0.70" arrival="57863.00" arrivalLane="201956811#0_1" arrivalPos="40.40" arrivalSpeed="12.52" duration="189.00" routeLength="1954.47" waitingTime="7.00" waitingCount="2" stopTime="0.00" timeLoss="43.78" rerouteNo="1" devices="tripinfo_50R_frequency3.17 routing_50R_frequency3.17 emissions_50R_frequency3.17" vType="bus" speedFactor="1.00" vaporized="">
        <emissions CO_abs="3629.927811" CO2_abs="2264376.728331" HC_abs="756.530111" PMx_abs="388.300671" NOx_abs="17608.718520" fuel_abs="965.718223" electricity_abs="0"/>
    </tripinfo>
    <tripinfo id="carIn50326:1" depart="57651.00" departLane="128361102#0_1" departPos="5.10" departSpeed="0.00" departDelay="0.30" arrival="57867.00" arrivalLane="18809673#0_1" arrivalPos="473.56" arrivalSpeed="12.15" duration="216.00" routeLength="1591.07" waitingTime="43.00" waitingCount="2" stopTime="0.00" timeLoss="70.84" rerouteNo="1" devices="tripinfo_carIn50326:1 routing_carIn50326:1 emissions_carIn50326:1" vType="default_016" speedFactor="0.90" vaporized="">
        <emissions CO_abs="11582.287181" CO2_abs="448673.260685" HC_abs="63.120637" PMx_abs="7.816108" NOx_abs="183.114994" fuel_abs="192.869578" electricity_abs="0"/>
    </tripinfo>
    <tripinfo id="h2831c1:1" depart="57600.00" departLane="201089423#0_1" departPos="5.10" departSpeed="0.00" departDelay="0.00" arrival="57873.00" arrivalLane="-315358244_2" arrivalPos="33.95" arrivalSpeed="12.99" duration="273.00" routeLength="2672.18" waitingTime="31.00" waitingCount="5" stopTime="0.00" timeLoss="78.16" rerouteNo="1" devices="tripinfo_h2831c1:1 routing_h2831c1:1 emissions_h2831c1:1" vType="default_016" speedFactor="1.00" vaporized="">
        <emissions CO_abs="10895.943188" CO2_abs="634058.464872" HC_abs="64.402794" PMx_abs="10.890323" NOx_abs="255.846656" fuel_abs="272.556203" electricity_abs="0"/>
    </tripinfo>
    <tripinfo id="carIn129809:1" depart="57729.00" departLane="-447569998#1_1" departPos="5.10" departSpeed="0.00" departDelay="1.00" arrival="57874.00" arrivalLane="-315358244_1" arrivalPos="33.95" arrivalSpeed="11.59" duration="145.00" routeLength="706.49" waitingTime="56.00" waitingCount="2" stopTime="0.00" timeLoss="73.18" rerouteNo="1" devices="tripinfo_carIn129809:1 routing_carIn129809:1 emissions_carIn129809:1" vType="default_015" speedFactor="0.84" vaporized="">
        <emissions CO_abs="10861.530478" CO2_abs="304431.239864" HC_abs="56.558025" PMx_abs="6.115819" NOx_abs="130.044824" fuel_abs="130.866045" electricity_abs="0"/>
    </tripinfo>
    <tripinfo id="carIn126378:1" depart="57746.00" departLane="386687232#0_1" departPos="5.10" departSpeed="0.00" departDelay="1.80" arrival="57876.00" arrivalLane="-315358244_1" arrivalPos="33.95" arrivalSpeed="15.24" duration="130.00" routeLength="1157.39" waitingTime="27.00" waitingCount="2" stopTime="0.00" timeLoss="54.51" rerouteNo="1" devices="tripinfo_carIn126378:1 routing_carIn126378:1 emissions_carIn126378:1" vType="default_016" speedFactor="1.13" vaporized="">
        <emissions CO_abs="7791.558152" CO2_abs="355936.202072" HC_abs="43.751981" PMx_abs="6.639626" NOx_abs="146.635587" fuel_abs="153.003295" electricity_abs="0"/>
    </tripinfo>
    <tripinfo id="h15382c1:3" depart="57625.00" departLane="124812856#0_1" departPos="5.10" departSpeed="0.00" departDelay="2.80" arrival="57878.00" arrivalLane="-128361102#1_1" arrivalPos="274.68" arrivalSpeed="12.52" duration="253.00" routeLength="2250.49" waitingTime="55.00" waitingCount="2" stopTime="0.00" timeLoss="84.90" rerouteNo="1" devices="tripinfo_h15382c1:3 routing_h15382c1:3 emissions_h15382c1:3" vType="default_016" speedFactor="0.98" vaporized="">
        <emissions CO_abs="13931.674700" CO2_abs="619667.453099" HC_abs="77.899729" PMx_abs="11.140298" NOx_abs="253.333930" fuel_abs="266.372130" electricity_abs="0"/>
    </tripinfo>
    <tripinfo id="carIn73855:1" depart="57743.00" departLane="386687232#0_1" departPos="5.10" departSpeed="0.00" departDelay="0.50" arrival="57878.00" arrivalLane="-315358244_1" arrivalPos="33.95" arrivalSpeed="13.44" duration="135.00" routeLength="1157.39" waitingTime="30.00" waitingCount="2" stopTime="0.00" timeLoss="50.11" rerouteNo="1" devices="tripinfo_carIn73855:1 routing_carIn73855:1 emissions_carIn73855:1" vType="default_016" speedFactor="1.00" vaporized="">
        <emissions CO_abs="7826.657435" CO2_abs="330476.998183" HC_abs="43.378974" PMx_abs="6.147226" NOx_abs="136.693155" fuel_abs="142.059843" electricity_abs="0"/>
    </tripinfo>
    <tripinfo id="carIn77943:1" depart="57608.00" departLane="124812856#0_1" departPos="5.10" departSpeed="0.00" departDelay="2.50" arrival="57879.00" arrivalLane="-128361102#1_1" arrivalPos="274.68" arrivalSpeed="15.34" duration="271.00" routeLength="2250.49" waitingTime="50.00" waitingCount="4" stopTime="0.00" timeLoss="123.50" rerouteNo="1" devices="tripinfo_carIn77943:1 routing_carIn77943:1 emissions_carIn77943:1" vType="default_016" speedFactor="1.11" vaporized="">
        <emissions CO_abs="14873.219665" CO2_abs="698300.691271" HC_abs="84.040817" PMx_abs="12.711669" NOx_abs="287.883697" fuel_abs="300.172557" electricity_abs="0"/>
    </tripinfo>