<?xml version="1.0" encoding="UTF-8"?>

<!-- generated on 2021-10-26 13:56:32 by Eclipse SUMO sumo Version 1.10.0
<configuration xmlns:xsi="http://www.w3.org/2001/XMLSchema-instance" xsi:noNamespaceSchemaLocation="http://sumo.dlr.de/xsd/sumoConfiguration.xsd">

    <input>
        <net-file value="/Users/behradkoohy/sumo-scratchpad/RESCO/environments/ingolstadt21/ingolstadt21.net.xml"/>
        <route-files value="/Users/behradkoohy/sumo-scratchpad/RESCO/environments/ingolstadt21/ingolstadt21.rou.xml"/>
    </input>

    <output>
        <tripinfo-output value="/Users/behradkoohy/sumo-scratchpad/RESCO/logs/STOCHASTIC-tr0-ingolstadt21-21-mplight-wait/tripinfo_4.xml"/>
        <tripinfo-output.write-unfinished value="true"/>
    </output>

    <time>
        <begin value="57600"/>
        <end value="61200"/>
    </time>

    <processing>
        <time-to-teleport value="-1"/>
    </processing>

    <report>
        <no-warnings value="true"/>
        <no-step-log value="true"/>
    </report>

    <emissions>
        <device.emissions.probability value="1"/>
    </emissions>

    <traci_server>
        <remote-port value="59905"/>
    </traci_server>

    <random_number>
        <random value="true"/>
    </random_number>

</configuration>
-->

<tripinfos xmlns:xsi="http://www.w3.org/2001/XMLSchema-instance" xsi:noNamespaceSchemaLocation="http://sumo.dlr.de/xsd/tripinfo_file.xsd">
    <tripinfo id="h15454c2:3" depart="57612.00" departLane="24608844_1" departPos="5.10" departSpeed="0.00" departDelay="0.50" arrival="57650.00" arrivalLane="32978638#0_1" arrivalPos="49.29" arrivalSpeed="14.30" duration="38.00" routeLength="354.79" waitingTime="0.00" waitingCount="0" stopTime="0.00" timeLoss="5.72" rerouteNo="1" devices="tripinfo_h15454c2:3 routing_h15454c2:3 emissions_h15454c2:3" vType="default_016" speedFactor="1.07" vaporized="">
        <emissions CO_abs="1859.337023" CO2_abs="108062.573870" HC_abs="10.970449" PMx_abs="1.758715" NOx_abs="43.356220" fuel_abs="46.451862" electricity_abs="0"/>
    </tripinfo>
    <tripinfo id="carIn60260:1" depart="57606.00" departLane="315358254#0_1" departPos="5.10" departSpeed="0.00" departDelay="0.90" arrival="57665.00" arrivalLane="399835085#1_1" arrivalPos="212.23" arrivalSpeed="7.48" duration="59.00" routeLength="430.98" waitingTime="0.00" waitingCount="0" stopTime="0.00" timeLoss="11.06" rerouteNo="1" devices="tripinfo_carIn60260:1 routing_carIn60260:1 emissions_carIn60260:1" vType="default_016" speedFactor="0.96" vaporized="">
        <emissions CO_abs="2760.416880" CO2_abs="132148.706032" HC_abs="15.621312" PMx_abs="2.207473" NOx_abs="53.808555" fuel_abs="56.805831" electricity_abs="0"/>
    </tripinfo>
    <tripinfo id="carIn53971:1" depart="57640.00" departLane="272042143_1" departPos="5.10" departSpeed="0.00" departDelay="0.80" arrival="57694.00" arrivalLane="24634414#1_1" arrivalPos="162.19" arrivalSpeed="7.30" duration="54.00" routeLength="493.04" waitingTime="0.00" waitingCount="0" stopTime="0.00" timeLoss="9.09" rerouteNo="1" devices="tripinfo_carIn53971:1 routing_carIn53971:1 emissions_carIn53971:1" vType="default_016" speedFactor="1.02" vaporized="">
        <emissions CO_abs="2488.129540" CO2_abs="142520.222629" HC_abs="14.657183" PMx_abs="2.459592" NOx_abs="58.141252" fuel_abs="61.263664" electricity_abs="0"/>
    </tripinfo>
    <tripinfo id="h7800c1:5" depart="57696.00" departLane="-447569998#1_1" departPos="5.10" departSpeed="0.00" departDelay="0.00" arrival="57718.00" arrivalLane="-447569998#1_1" arrivalPos="180.76" arrivalSpeed="9.23" duration="22.00" routeLength="175.66" waitingTime="0.00" waitingCount="0" stopTime="0.00" timeLoss="3.15" rerouteNo="1" devices="tripinfo_h7800c1:5 routing_h7800c1:5 emissions_h7800c1:5" vType="default_016" speedFactor="1.12" vaporized="">
        <emissions CO_abs="1041.083793" CO2_abs="49384.500161" HC_abs="5.887649" PMx_abs="0.864980" NOx_abs="20.420991" fuel_abs="21.228508" electricity_abs="0"/>
    </tripinfo>
    <tripinfo id="h3568c1:3" depart="57656.00" departLane="266565295#5_1" departPos="5.10" departSpeed="0.00" departDelay="0.80" arrival="57735.00" arrivalLane="-24634415_1" arrivalPos="62.03" arrivalSpeed="12.79" duration="79.00" routeLength="807.40" waitingTime="0.00" waitingCount="0" stopTime="0.00" timeLoss="13.08" rerouteNo="1" devices="tripinfo_h3568c1:3 routing_h3568c1:3 emissions_h3568c1:3" vType="default_016" speedFactor="0.98" vaporized="">
        <emissions CO_abs="3506.778379" CO2_abs="216788.193367" HC_abs="21.054357" PMx_abs="3.803341" NOx_abs="88.554230" fuel_abs="93.188150" electricity_abs="0"/>
    </tripinfo>
    <tripinfo id="carIn22761:1" depart="57616.00" departLane="-306240162#1_0" departPos="5.10" departSpeed="0.00" departDelay="2.10" arrival="57745.00" arrivalLane="399835085#1_1" arrivalPos="212.23" arrivalSpeed="7.47" duration="129.00" routeLength="1093.26" waitingTime="24.00" waitingCount="2" stopTime="0.00" timeLoss="48.35" rerouteNo="1" devices="tripinfo_carIn22761:1 routing_carIn22761:1 emissions_carIn22761:1" vType="default_016" speedFactor="0.97" vaporized="">
        <emissions CO_abs="7488.025758" CO2_abs="357379.540621" HC_abs="42.516187" PMx_abs="6.870121" NOx_abs="148.639853" fuel_abs="153.623135" electricity_abs="0"/>
    </tripinfo>
    <tripinfo id="h3688c1:1" depart="57625.00" departLane="201201950#1_1" departPos="5.10" departSpeed="0.00" departDelay="0.00" arrival="57745.00" arrivalLane="32978638#0_1" arrivalPos="49.29" arrivalSpeed="12.54" duration="120.00" routeLength="1089.75" waitingTime="21.00" waitingCount="1" stopTime="0.00" timeLoss="39.01" rerouteNo="1" devices="tripinfo_h3688c1:1 routing_h3688c1:1 emissions_h3688c1:1" vType="default_016" speedFactor="0.99" vaporized="">
        <emissions CO_abs="6686.361864" CO2_abs="323292.146954" HC_abs="38.015528" PMx_abs="5.811183" NOx_abs="132.272791" fuel_abs="138.970836" electricity_abs="0"/>
    </tripinfo>
    <tripinfo id="h3154c1:1" depart="57658.00" departLane="24634507_1" departPos="5.10" departSpeed="0.00" departDelay="0.00" arrival="57762.00" arrivalLane="-266565295#5_1" arrivalPos="172.76" arrivalSpeed="12.44" duration="104.00" routeLength="1206.22" waitingTime="0.00" waitingCount="0" stopTime="0.00" timeLoss="12.93" rerouteNo="1" devices="tripinfo_h3154c1:1 routing_h3154c1:1 emissions_h3154c1:1" vType="default_016" speedFactor="0.98" vaporized="">
        <emissions CO_abs="3294.356349" CO2_abs="248191.115680" HC_abs="20.808062" PMx_abs="4.112296" NOx_abs="99.117546" fuel_abs="106.686775" electricity_abs="0"/>
    </tripinfo>
    <tripinfo id="carIn121703:1" depart="57647.00" departLane="386687232#0_1" departPos="5.10" departSpeed="0.00" departDelay="0.30" arrival="57763.00" arrivalLane="-315358244_1" arrivalPos="33.95" arrivalSpeed="15.33" duration="116.00" routeLength="1157.39" waitingTime="20.00" waitingCount="2" stopTime="0.00" timeLoss="40.85" rerouteNo="1" devices="tripinfo_carIn121703:1 routing_carIn121703:1 emissions_carIn121703:1" vType="default_016" speedFactor="1.12" vaporized="">
        <emissions CO_abs="5847.022824" CO2_abs="327670.070682" HC_abs="34.345649" PMx_abs="6.142244" NOx_abs="135.138691" fuel_abs="140.851607" electricity_abs="0"/>
    </tripinfo>
    <tripinfo id="h5979c1:5" depart="57669.00" departLane="399835085#1_1" departPos="5.10" departSpeed="0.00" departDelay="0.00" arrival="57769.00" arrivalLane="-315358254#1_1" arrivalPos="137.16" arrivalSpeed="11.56" duration="100.00" routeLength="659.33" waitingTime="2.00" waitingCount="1" stopTime="0.00" timeLoss="15.44" rerouteNo="1" devices="tripinfo_h5979c1:5 routing_h5979c1:5 emissions_h5979c1:5" vType="default_016" speedFactor="0.87" vaporized="">
        <emissions CO_abs="4030.844145" CO2_abs="172637.521340" HC_abs="22.322960" PMx_abs="2.879798" NOx_abs="70.566504" fuel_abs="74.210810" electricity_abs="0"/>
    </tripinfo>
    <tripinfo id="S5R_frequency1.2" depart="57615.00" departLane="315358250#0_1" departPos="12.10" departSpeed="0.00" departDelay="3.40" arrival="57771.00" arrivalLane="386687235_1" arrivalPos="80.84" arrivalSpeed="13.25" duration="156.00" routeLength="1115.62" waitingTime="36.00" waitingCount="4" stopTime="0.00" timeLoss="74.24" rerouteNo="1" devices="tripinfo_S5R_frequency1.2 routing_S5R_frequency1.2 emissions_S5R_frequency1.2" vType="bus" speedFactor="1.00" vaporized="">
        <emissions CO_abs="3048.938758" CO2_abs="1688758.753587" HC_abs="649.868713" PMx_abs="321.438346" NOx_abs="13712.014640" fuel_abs="720.156018" electricity_abs="0"/>
    </tripinfo>
    <tripinfo id="carIn27009:1" depart="57673.00" departLane="-447569998#1_1" departPos="5.10" departSpeed="0.00" departDelay="0.50" arrival="57771.00" arrivalLane="-26677539_1" arrivalPos="152.75" arrivalSpeed="7.56" duration="98.00" routeLength="699.63" waitingTime="3.00" waitingCount="1" stopTime="0.00" timeLoss="19.06" rerouteNo="1" devices="tripinfo_carIn27009:1 routing_carIn27009:1 emissions_carIn27009:1" vType="default_015" speedFactor="1.06" vaporized="">
        <emissions CO_abs="4204.217964" CO2_abs="199982.414678" HC_abs="23.755805" PMx_abs="3.335408" NOx_abs="81.696119" fuel_abs="85.965028" electricity_abs="0"/>
    </tripinfo>
    <tripinfo id="h3326c1:2" depart="57656.00" departLane="22716069#0_1" departPos="5.10" departSpeed="0.00" departDelay="0.00" arrival="57773.00" arrivalLane="24634517#13_1" arrivalPos="111.62" arrivalSpeed="13.04" duration="117.00" routeLength="1312.81" waitingTime="0.00" waitingCount="0" stopTime="0.00" timeLoss="14.83" rerouteNo="1" devices="tripinfo_h3326c1:2 routing_h3326c1:2 emissions_h3326c1:2" vType="default_016" speedFactor="0.96" vaporized="">
        <emissions CO_abs="4328.834164" CO2_abs="310457.868713" HC_abs="26.986219" PMx_abs="5.242782" NOx_abs="124.896434" fuel_abs="133.452596" electricity_abs="0"/>
    </tripinfo>
    <tripinfo id="h12244c1:3" depart="57612.00" departLane="315358244_1" departPos="5.10" departSpeed="0.00" departDelay="0.40" arrival="57777.00" arrivalLane="386687235_1" arrivalPos="80.84" arrivalSpeed="13.21" duration="165.00" routeLength="1186.14" waitingTime="55.00" waitingCount="3" stopTime="0.00" timeLoss="80.18" rerouteNo="1" devices="tripinfo_h12244c1:3 routing_h12244c1:3 emissions_h12244c1:3" vType="default_016" speedFactor="1.02" vaporized="">
        <emissions CO_abs="11265.103286" CO2_abs="406898.500069" HC_abs="60.797320" PMx_abs="7.718159" NOx_abs="169.060057" fuel_abs="174.911806" electricity_abs="0"/>
    </tripinfo>
    <tripinfo id="h9563c2:5" depart="57631.00" departLane="315358244_1" departPos="5.10" departSpeed="0.00" departDelay="0.70" arrival="57781.00" arrivalLane="386687235_1" arrivalPos="80.84" arrivalSpeed="11.59" duration="150.00" routeLength="1186.14" waitingTime="32.00" waitingCount="2" stopTime="0.00" timeLoss="56.15" rerouteNo="1" devices="tripinfo_h9563c2:5 routing_h9563c2:5 emissions_h9563c2:5" vType="default_016" speedFactor="0.92" vaporized="">
        <emissions CO_abs="8170.437583" CO2_abs="347651.580426" HC_abs="45.314867" PMx_abs="6.254626" NOx_abs="142.869547" fuel_abs="149.442788" electricity_abs="0"/>
    </tripinfo>
    <tripinfo id="h4538c1:1" depart="57701.00" departLane="-10427692#1_1" departPos="5.10" departSpeed="0.00" departDelay="0.00" arrival="57784.00" arrivalLane="-128361102#1_1" arrivalPos="274.68" arrivalSpeed="11.05" duration="83.00" routeLength="440.74" waitingTime="32.00" waitingCount="1" stopTime="0.00" timeLoss="43.01" rerouteNo="1" devices="tripinfo_h4538c1:1 routing_h4538c1:1 emissions_h4538c1:1" vType="default_016" speedFactor="0.80" vaporized="">
        <emissions CO_abs="6785.031996" CO2_abs="190545.909696" HC_abs="35.329992" PMx_abs="3.767484" NOx_abs="80.897415" fuel_abs="81.910180" electricity_abs="0"/>
    </tripinfo>
    <tripinfo id="carIn28951:1" depart="57606.00" departLane="10425609#0_1" departPos="5.10" departSpeed="0.00" departDelay="0.20" arrival="57785.00" arrivalLane="-128361102#1_1" arrivalPos="274.68" arrivalSpeed="13.52" duration="179.00" routeLength="2113.04" waitingTime="7.00" waitingCount="1" stopTime="0.00" timeLoss="31.97" rerouteNo="1" devices="tripinfo_carIn28951:1 routing_carIn28951:1 emissions_carIn28951:1" vType="default_016" speedFactor="1.05" vaporized="">
        <emissions CO_abs="5996.305808" CO2_abs="467526.144016" HC_abs="38.206287" PMx_abs="7.865678" NOx_abs="186.286336" fuel_abs="200.969297" electricity_abs="0"/>
    </tripinfo>
    <tripinfo id="carIn12365:1" depart="57713.00" departLane="315358244_1" departPos="5.10" departSpeed="0.00" departDelay="0.50" arrival="57789.00" arrivalLane="447569997#1_2" arrivalPos="180.93" arrivalSpeed="9.49" duration="76.00" routeLength="718.04" waitingTime="0.00" waitingCount="0" stopTime="0.00" timeLoss="24.66" rerouteNo="1" devices="tripinfo_carIn12365:1 routing_carIn12365:1 emissions_carIn12365:1" vType="default_016" speedFactor="1.21" vaporized="">
        <emissions CO_abs="3849.988832" CO2_abs="220156.114611" HC_abs="22.708749" PMx_abs="3.998185" NOx_abs="91.124442" fuel_abs="94.635885" electricity_abs="0"/>
    </tripinfo>
    <tripinfo id="carIn30817:1" depart="57681.00" departLane="315358244_1" departPos="5.10" departSpeed="0.00" departDelay="0.20" arrival="57792.00" arrivalLane="447569997#1_1" arrivalPos="180.93" arrivalSpeed="7.44" duration="111.00" routeLength="718.04" waitingTime="30.00" waitingCount="1" stopTime="0.00" timeLoss="46.31" rerouteNo="1" devices="tripinfo_carIn30817:1 routing_carIn30817:1 emissions_carIn30817:1" vType="default_016" speedFactor="0.95" vaporized="">
        <emissions CO_abs="7673.148081" CO2_abs="261844.695022" HC_abs="41.052923" PMx_abs="5.035726" NOx_abs="110.257943" fuel_abs="112.558270" electricity_abs="0"/>
    </tripinfo>
    <tripinfo id="carIn129809:1" depart="57729.00" departLane="-447569998#1_1" departPos="5.10" departSpeed="0.00" departDelay="1.00" arrival="57792.00" arrivalLane="-315358244_1" arrivalPos="33.95" arrivalSpeed="16.04" duration="63.00" routeLength="706.49" waitingTime="0.00" waitingCount="0" stopTime="0.00" timeLoss="10.64" rerouteNo="1" devices="tripinfo_carIn129809:1 routing_carIn129809:1 emissions_carIn129809:1" vType="default_015" speedFactor="1.16" vaporized="">
        <emissions CO_abs="2892.039518" CO2_abs="195192.658261" HC_abs="17.697466" PMx_abs="3.387782" NOx_abs="78.790760" fuel_abs="83.905026" electricity_abs="0"/>
    </tripinfo>
    <tripinfo id="h330c1:1" depart="57736.00" departLane="-32978638#0_1" departPos="5.10" departSpeed="0.00" departDelay="0.20" arrival="57797.00" arrivalLane="-266565295#5_2" arrivalPos="172.76" arrivalSpeed="13.86" duration="61.00" routeLength="370.53" waitingTime="24.00" waitingCount="1" stopTime="0.00" timeLoss="33.73" rerouteNo="1" devices="tripinfo_h330c1:1 routing_h330c1:1 emissions_h330c1:1" vType="default_016" speedFactor="1.01" vaporized="">
        <emissions CO_abs="5240.347717" CO2_abs="172845.644697" HC_abs="27.915061" PMx_abs="3.538037" NOx_abs="73.925278" fuel_abs="74.300401" electricity_abs="0"/>
    </tripinfo>
    <tripinfo id="h317c2:1" depart="57707.00" departLane="-32978638#0_1" departPos="5.10" departSpeed="0.00" departDelay="0.10" arrival="57798.00" arrivalLane="-266565295#5_1" arrivalPos="172.76" arrivalSpeed="11.38" duration="91.00" routeLength="370.53" waitingTime="51.00" waitingCount="1" stopTime="0.00" timeLoss="58.68" rerouteNo="1" devices="tripinfo_h317c2:1 routing_h317c2:1 emissions_h317c2:1" vType="default_016" speedFactor="0.85" vaporized="">
        <emissions CO_abs="10238.361290" CO2_abs="241272.246247" HC_abs="52.269521" PMx_abs="5.207895" NOx_abs="105.240972" fuel_abs="103.716709" electricity_abs="0"/>
    </tripinfo>
    <tripinfo id="carIn12858:1" depart="57661.00" departLane="128361109#1_1" departPos="5.10" departSpeed="0.00" departDelay="0.90" arrival="57814.00" arrivalLane="399835085#1_1" arrivalPos="212.23" arrivalSpeed="7.93" duration="153.00" routeLength="1738.12" waitingTime="10.00" waitingCount="2" stopTime="0.00" timeLoss="37.29" rerouteNo="1" devices="tripinfo_carIn12858:1 routing_carIn12858:1 emissions_carIn12858:1" vType="default_016" speedFactor="0.99" vaporized="">
        <emissions CO_abs="7740.222858" CO2_abs="476248.612153" HC_abs="46.576542" PMx_abs="8.956010" NOx_abs="195.377464" fuel_abs="204.718730" electricity_abs="0"/>
    </tripinfo>
    <tripinfo id="carIn118591:1" depart="57689.00" departLane="315358244_1" departPos="5.10" departSpeed="0.00" departDelay="0.20" arrival="57815.00" arrivalLane="386687235_1" arrivalPos="80.84" arrivalSpeed="14.15" duration="126.00" routeLength="1186.14" waitingTime="24.00" waitingCount="1" stopTime="0.00" timeLoss="44.40" rerouteNo="1" devices="tripinfo_carIn118591:1 routing_carIn118591:1 emissions_carIn118591:1" vType="default_016" speedFactor="1.06" vaporized="">
        <emissions CO_abs="6941.156427" CO2_abs="330225.822069" HC_abs="39.365220" PMx_abs="6.111498" NOx_abs="135.981153" fuel_abs="141.951209" electricity_abs="0"/>
    </tripinfo>
    <tripinfo id="h17549c1:1" depart="57680.00" departLane="-447569998#1_1" departPos="5.10" departSpeed="0.00" departDelay="0.00" arrival="57826.00" arrivalLane="-315358254#1_1" arrivalPos="137.16" arrivalSpeed="14.55" duration="146.00" routeLength="1746.60" waitingTime="1.00" waitingCount="1" stopTime="0.00" timeLoss="18.97" rerouteNo="1" devices="tripinfo_h17549c1:1 routing_h17549c1:1 emissions_h17549c1:1" vType="default_016" speedFactor="1.08" vaporized="">
        <emissions CO_abs="4967.340206" CO2_abs="369916.340568" HC_abs="31.225604" PMx_abs="6.347096" NOx_abs="148.503373" fuel_abs="159.011022" electricity_abs="0"/>
    </tripinfo>
    <tripinfo id="h645c1:1" depart="57622.00" departLane="266565295#5_1" departPos="5.10" departSpeed="0.00" departDelay="0.40" arrival="57827.00" arrivalLane="-315358244_1" arrivalPos="33.95" arrivalSpeed="12.56" duration="205.00" routeLength="1910.83" waitingTime="29.00" waitingCount="3" stopTime="0.00" timeLoss="62.34" rerouteNo="1" devices="tripinfo_h645c1:1 routing_h645c1:1 emissions_h645c1:1" vType="default_016" speedFactor="0.97" vaporized="">
        <emissions CO_abs="8394.888464" CO2_abs="474777.649335" HC_abs="49.294284" PMx_abs="7.998348" NOx_abs="190.437876" fuel_abs="204.088254" electricity_abs="0"/>
    </tripinfo>
    <tripinfo id="h20540c1:1" depart="57634.00" departLane="10425609#0_1" departPos="5.10" departSpeed="0.00" departDelay="0.50" arrival="57839.00" arrivalLane="-128361102#1_1" arrivalPos="274.68" arrivalSpeed="11.99" duration="205.00" routeLength="2113.04" waitingTime="13.00" waitingCount="1" stopTime="0.00" timeLoss="36.70" rerouteNo="1" devices="tripinfo_h20540c1:1 routing_h20540c1:1 emissions_h20540c1:1" vType="default_016" speedFactor="0.92" vaporized="">
        <emissions CO_abs="6777.908824" CO2_abs="448812.033832" HC_abs="41.323557" PMx_abs="7.369150" NOx_abs="179.205570" fuel_abs="192.925915" electricity_abs="0"/>
    </tripinfo>
    <tripinfo id="h6541c1:3" depart="57727.00" departLane="201950247#3_1" departPos="5.10" departSpeed="0.00" departDelay="0.00" arrival="57844.00" arrivalLane="32978638#0_1" arrivalPos="49.29" arrivalSpeed="14.86" duration="117.00" routeLength="1176.17" waitingTime="7.00" waitingCount="2" stopTime="0.00" timeLoss="27.96" rerouteNo="1" devices="tripinfo_h6541c1:3 routing_h6541c1:3 emissions_h6541c1:3" vType="default_016" speedFactor="1.15" vaporized="">
        <emissions CO_abs="5144.316606" CO2_abs="313297.365759" HC_abs="30.715118" PMx_abs="5.617621" NOx_abs="128.000562" fuel_abs="134.673337" electricity_abs="0"/>
    </tripinfo>
    <tripinfo id="carIn50326:1" depart="57651.00" departLane="128361102#0_1" departPos="5.10" departSpeed="0.00" departDelay="0.30" arrival="57846.00" arrivalLane="18809673#0_1" arrivalPos="473.56" arrivalSpeed="16.39" duration="195.00" routeLength="1591.07" waitingTime="59.00" waitingCount="2" stopTime="0.00" timeLoss="88.05" rerouteNo="1" devices="tripinfo_carIn50326:1 routing_carIn50326:1 emissions_carIn50326:1" vType="default_016" speedFactor="1.21" vaporized="">
        <emissions CO_abs="13405.911331" CO2_abs="500721.624047" HC_abs="72.672196" PMx_abs="9.770369" NOx_abs="209.268934" fuel_abs="215.242394" electricity_abs="0"/>
    </tripinfo>
    <tripinfo id="carIn107282:1" depart="57749.00" departLane="-447569998#1_1" departPos="5.10" departSpeed="0.00" departDelay="0.00" arrival="57849.00" arrivalLane="315358242#0_1" arrivalPos="165.37" arrivalSpeed="11.52" duration="100.00" routeLength="448.50" waitingTime="42.00" waitingCount="1" stopTime="0.00" timeLoss="50.98" rerouteNo="1" devices="tripinfo_carIn107282:1 routing_carIn107282:1 emissions_carIn107282:1" vType="default_016" speedFactor="0.85" vaporized="">
        <emissions CO_abs="8743.267699" CO2_abs="219410.453665" HC_abs="44.917502" PMx_abs="4.493263" NOx_abs="94.319480" fuel_abs="94.318755" electricity_abs="0"/>
    </tripinfo>
    <tripinfo id="carIn81860:1" depart="57712.00" departLane="128361102#0_1" departPos="5.10" departSpeed="0.00" departDelay="0.60" arrival="57852.00" arrivalLane="-24634517#17_1" arrivalPos="6.43" arrivalSpeed="6.08" duration="140.00" routeLength="1229.64" waitingTime="6.00" waitingCount="1" stopTime="0.00" timeLoss="33.67" rerouteNo="1" devices="tripinfo_carIn81860:1 routing_carIn81860:1 emissions_carIn81860:1" vType="default_016" speedFactor="0.84" vaporized="">
        <emissions CO_abs="5176.925960" CO2_abs="289434.356337" HC_abs="30.273564" PMx_abs="4.708750" NOx_abs="116.099643" fuel_abs="124.416649" electricity_abs="0"/>
    </tripinfo>
    <tripinfo id="randUni15030:1" depart="57735.00" departLane="386687232#0_1" departPos="5.10" departSpeed="0.00" departDelay="0.10" arrival="57853.00" arrivalLane="26677539_1" arrivalPos="151.98" arrivalSpeed="6.58" duration="118.00" routeLength="919.89" waitingTime="4.00" waitingCount="1" stopTime="0.00" timeLoss="21.04" rerouteNo="1" devices="tripinfo_randUni15030:1 routing_randUni15030:1 emissions_randUni15030:1" vType="random_016" speedFactor="0.86" vaporized="">
        <emissions CO_abs="4466.587953" CO2_abs="225968.936855" HC_abs="25.525956" PMx_abs="3.556288" NOx_abs="90.377464" fuel_abs="97.135811" electricity_abs="0"/>
    </tripinfo>
    <tripinfo id="carIn73855:1" depart="57743.00" departLane="386687232#0_1" departPos="5.10" departSpeed="0.00" departDelay="0.50" arrival="57853.00" arrivalLane="-315358244_1" arrivalPos="33.95" arrivalSpeed="13.25" duration="110.00" routeLength="1157.39" waitingTime="8.00" waitingCount="1" stopTime="0.00" timeLoss="25.66" rerouteNo="1" devices="tripinfo_carIn73855:1 routing_carIn73855:1 emissions_carIn73855:1" vType="default_016" speedFactor="1.00" vaporized="">
        <emissions CO_abs="4503.050602" CO2_abs="275409.241390" HC_abs="26.931027" PMx_abs="4.806788" NOx_abs="111.586338" fuel_abs="118.387030" electricity_abs="0"/>
    </tripinfo>
    <tripinfo id="carIn126378:1" depart="57746.00" departLane="386687232#0_1" departPos="5.10" departSpeed="0.00" departDelay="1.80" arrival="57853.00" arrivalLane="-315358244_2" arrivalPos="33.95" arrivalSpeed="15.77" duration="107.00" routeLength="1157.39" waitingTime="11.00" waitingCount="1" stopTime="0.00" timeLoss="34.64" rerouteNo="1" devices="tripinfo_carIn126378:1 routing_carIn126378:1 emissions_carIn126378:1" vType="default_016" speedFactor="1.18" vaporized="">
        <emissions CO_abs="5041.236250" CO2_abs="296778.052950" HC_abs="29.850453" PMx_abs="5.489582" NOx_abs="121.754238" fuel_abs="127.572319" electricity_abs="0"/>
    </tripinfo>
    <tripinfo id="randUni31145:1" depart="57814.00" departLane="10425609#0_1" departPos="5.10" departSpeed="0.00" departDelay="0.30" arrival="57862.00" arrivalLane="201956810_1" arrivalPos="71.65" arrivalSpeed="12.79" duration="48.00" routeLength="255.78" waitingTime="15.00" waitingCount="2" stopTime="0.00" timeLoss="27.55" rerouteNo="1" devices="tripinfo_randUni31145:1 routing_randUni31145:1 emissions_randUni31145:1" vType="random_016" speedFactor="0.98" vaporized="">
        <emissions CO_abs="4183.008640" CO2_abs="147989.468488" HC_abs="22.542077" PMx_abs="3.031780" NOx_abs="63.703597" fuel_abs="63.615284" electricity_abs="0"/>
    </tripinfo>
    <tripinfo id="h16072c2:3" depart="57663.00" departLane="315358254#0_1" departPos="5.10" departSpeed="0.00" departDelay="2.50" arrival="57864.00" arrivalLane="386687235_1" arrivalPos="80.84" arrivalSpeed="13.72" duration="201.00" routeLength="1611.92" waitingTime="58.00" waitingCount="3" stopTime="0.00" timeLoss="82.60" rerouteNo="1" devices="tripinfo_h16072c2:3 routing_h16072c2:3 emissions_h16072c2:3" vType="default_016" speedFactor="1.00" vaporized="">
        <emissions CO_abs="12485.078438" CO2_abs="496252.389345" HC_abs="68.466977" PMx_abs="9.216520" NOx_abs="204.774701" fuel_abs="213.321247" electricity_abs="0"/>
    </tripinfo>
    <tripinfo id="h9953c2:3" depart="57682.00" departLane="-54169231#2_1" departPos="5.10" departSpeed="0.00" departDelay="0.00" arrival="57864.00" arrivalLane="386687235_2" arrivalPos="80.84" arrivalSpeed="11.79" duration="182.00" routeLength="1535.60" waitingTime="22.00" waitingCount="1" stopTime="0.00" timeLoss="45.21" rerouteNo="1" devices="tripinfo_h9953c2:3 routing_h9953c2:3 emissions_h9953c2:3" vType="default_016" speedFactor="0.92" vaporized="">
        <emissions CO_abs="9472.223797" CO2_abs="443683.849021" HC_abs="53.495049" PMx_abs="7.945779" NOx_abs="182.768134" fuel_abs="190.722741" electricity_abs="0"/>
    </tripinfo>
    <tripinfo id="randUni2407:1" depart="57820.00" departLane="10425609#0_1" departPos="5.10" departSpeed="0.00" departDelay="0.80" arrival="57865.00" arrivalLane="201956810_1" arrivalPos="71.65" arrivalSpeed="13.33" duration="45.00" routeLength="255.78" waitingTime="13.00" waitingCount="1" stopTime="0.00" timeLoss="23.85" rerouteNo="1" devices="tripinfo_randUni2407:1 routing_randUni2407:1 emissions_randUni2407:1" vType="random_016" speedFactor="0.98" vaporized="">
        <emissions CO_abs="3379.797174" CO2_abs="129040.629356" HC_abs="18.417889" PMx_abs="2.488681" NOx_abs="54.386493" fuel_abs="55.469893" electricity_abs="0"/>
    </tripinfo>
    <tripinfo id="carIn8642:1" depart="57774.00" departLane="-447569998#1_1" departPos="5.10" departSpeed="0.00" departDelay="0.90" arrival="57870.00" arrivalLane="-315358244_1" arrivalPos="33.95" arrivalSpeed="12.56" duration="96.00" routeLength="706.49" waitingTime="23.00" waitingCount="1" stopTime="0.00" timeLoss="31.88" rerouteNo="1" devices="tripinfo_carIn8642:1 routing_carIn8642:1 emissions_carIn8642:1" vType="default_016" speedFactor="0.95" vaporized="">
        <emissions CO_abs="5281.609481" CO2_abs="198376.592315" HC_abs="28.655357" PMx_abs="3.565063" NOx_abs="81.481351" fuel_abs="85.275429" electricity_abs="0"/>
    </tripinfo>
    <tripinfo id="carIn86816:1" depart="57617.00" departLane="128361102#0_1" departPos="5.10" departSpeed="0.00" departDelay="0.80" arrival="57871.00" arrivalLane="201956811#0_1" arrivalPos="40.40" arrivalSpeed="13.65" duration="254.00" routeLength="2067.33" waitingTime="69.00" waitingCount="4" stopTime="0.00" timeLoss="100.90" rerouteNo="1" devices="tripinfo_carIn86816:1 routing_carIn86816:1 emissions_carIn86816:1" vType="default_016" speedFactor="0.99" vaporized="">
        <emissions CO_abs="15286.312713" CO2_abs="636983.389944" HC_abs="84.484458" PMx_abs="11.678009" NOx_abs="261.925032" fuel_abs="273.816086" electricity_abs="0"/>
    </tripinfo>
    <tripinfo id="carIn46110:1" depart="57684.00" departLane="315358244_1" departPos="5.10" departSpeed="0.00" departDelay="1.20" arrival="57872.00" arrivalLane="32978638#0_1" arrivalPos="49.29" arrivalSpeed="12.33" duration="188.00" routeLength="1764.04" waitingTime="26.00" waitingCount="1" stopTime="0.00" timeLoss="46.08" rerouteNo="1" devices="tripinfo_carIn46110:1 routing_carIn46110:1 emissions_carIn46110:1" vType="default_016" speedFactor="0.91" vaporized="">
        <emissions CO_abs="8349.462957" CO2_abs="430040.849639" HC_abs="47.990683" PMx_abs="7.092057" NOx_abs="171.957855" fuel_abs="184.858487" electricity_abs="0"/>
    </tripinfo>
    <tripinfo id="h3536c1:1" depart="57767.00" departLane="-24634413#2_1" departPos="5.10" departSpeed="0.00" departDelay="0.00" arrival="57874.00" arrivalLane="32978638#0_1" arrivalPos="49.29" arrivalSpeed="13.65" duration="107.00" routeLength="953.61" waitingTime="0.00" waitingCount="0" stopTime="0.00" timeLoss="14.96" rerouteNo="1" devices="tripinfo_h3536c1:1 routing_h3536c1:1 emissions_h3536c1:1" vType="default_016" speedFactor="0.99" vaporized="">
        <emissions CO_abs="4518.679023" CO2_abs="257190.268520" HC_abs="26.542664" PMx_abs="4.356736" NOx_abs="104.569327" fuel_abs="110.555795" electricity_abs="0"/>
    </tripinfo>
    <tripinfo id="h19804c1:3" depart="57617.00" departLane="124812856#0_1" departPos="5.10" departSpeed="0.00" departDelay="1.50" arrival="57875.00" arrivalLane="-128361102#1_1" arrivalPos="274.68" arrivalSpeed="9.97" duration="258.00" routeLength="2232.46" waitingTime="21.00" waitingCount="2" stopTime="0.00" timeLoss="47.26" rerouteNo="1" devices="tripinfo_h19804c1:3 routing_h19804c1:3 emissions_h19804c1:3" vType="default_016" speedFactor="0.78" vaporized="">
        <emissions CO_abs="9081.827748" CO2_abs="497275.388995" HC_abs="52.788710" PMx_abs="7.739783" NOx_abs="197.474565" fuel_abs="213.760148" electricity_abs="0"/>
    </tripinfo>
    <tripinfo id="50R_frequency3.17" depart="57674.00" departLane="-18809673#6_1" departPos="12.10" departSpeed="0.00" departDelay="0.70" arrival="57876.00" arrivalLane="201956811#0_1" arrivalPos="40.40" arrivalSpeed="13.24" duration="202.00" routeLength="1954.47" waitingTime="17.00" waitingCount="3" stopTime="0.00" timeLoss="56.86" rerouteNo="1" devices="tripinfo_50R_frequency3.17 routing_50R_frequency3.17 emissions_50R_frequency3.17" vType="bus" speedFactor="1.00" vaporized="">
        <emissions CO_abs="3869.396990" CO2_abs="2367954.702570" HC_abs="803.421749" PMx_abs="412.511296" NOx_abs="18546.286014" fuel_abs="1009.870769" electricity_abs="0"/>
    </tripinfo>