<?xml version="1.0" encoding="UTF-8"?>

<!-- generated on 2021-10-26 14:44:53 by Eclipse SUMO sumo Version 1.10.0
<configuration xmlns:xsi="http://www.w3.org/2001/XMLSchema-instance" xsi:noNamespaceSchemaLocation="http://sumo.dlr.de/xsd/sumoConfiguration.xsd">

    <input>
        <net-file value="/Users/behradkoohy/sumo-scratchpad/RESCO/environments/ingolstadt21/ingolstadt21.net.xml"/>
        <route-files value="/Users/behradkoohy/sumo-scratchpad/RESCO/environments/ingolstadt21/ingolstadt21.rou.xml"/>
    </input>

    <output>
        <tripinfo-output value="/Users/behradkoohy/sumo-scratchpad/RESCO/logs/STOCHASTIC-tr0-ingolstadt21-21-mplight-wait/tripinfo_84.xml"/>
        <tripinfo-output.write-unfinished value="true"/>
    </output>

    <time>
        <begin value="57600"/>
        <end value="61200"/>
    </time>

    <processing>
        <time-to-teleport value="-1"/>
    </processing>

    <report>
        <no-warnings value="true"/>
        <no-step-log value="true"/>
    </report>

    <emissions>
        <device.emissions.probability value="1"/>
    </emissions>

    <traci_server>
        <remote-port value="60675"/>
    </traci_server>

    <random_number>
        <random value="true"/>
    </random_number>

</configuration>
-->

<tripinfos xmlns:xsi="http://www.w3.org/2001/XMLSchema-instance" xsi:noNamespaceSchemaLocation="http://sumo.dlr.de/xsd/tripinfo_file.xsd">
    <tripinfo id="h15454c2:3" depart="57612.00" departLane="24608844_1" departPos="5.10" departSpeed="0.00" departDelay="0.50" arrival="57650.00" arrivalLane="32978638#0_1" arrivalPos="49.29" arrivalSpeed="14.29" duration="38.00" routeLength="354.79" waitingTime="0.00" waitingCount="0" stopTime="0.00" timeLoss="5.40" rerouteNo="1" devices="tripinfo_h15454c2:3 routing_h15454c2:3 emissions_h15454c2:3" vType="default_016" speedFactor="1.06" vaporized="">
        <emissions CO_abs="1768.875904" CO2_abs="105119.398562" HC_abs="10.494001" PMx_abs="1.783580" NOx_abs="42.569786" fuel_abs="45.186566" electricity_abs="0"/>
    </tripinfo>
    <tripinfo id="carIn60260:1" depart="57606.00" departLane="315358254#0_1" departPos="5.10" departSpeed="0.00" departDelay="0.90" arrival="57676.00" arrivalLane="399835085#1_1" arrivalPos="212.23" arrivalSpeed="6.73" duration="70.00" routeLength="430.98" waitingTime="10.00" waitingCount="1" stopTime="0.00" timeLoss="20.28" rerouteNo="1" devices="tripinfo_carIn60260:1 routing_carIn60260:1 emissions_carIn60260:1" vType="default_016" speedFactor="0.93" vaporized="">
        <emissions CO_abs="3330.448019" CO2_abs="132061.870301" HC_abs="18.221532" PMx_abs="2.336969" NOx_abs="54.697483" fuel_abs="56.768785" electricity_abs="0"/>
    </tripinfo>
    <tripinfo id="carIn53971:1" depart="57640.00" departLane="272042143_1" departPos="5.10" departSpeed="0.00" departDelay="0.80" arrival="57689.00" arrivalLane="24634414#1_1" arrivalPos="162.19" arrivalSpeed="9.59" duration="49.00" routeLength="493.04" waitingTime="0.00" waitingCount="0" stopTime="0.00" timeLoss="8.91" rerouteNo="1" devices="tripinfo_carIn53971:1 routing_carIn53971:1 emissions_carIn53971:1" vType="default_016" speedFactor="1.17" vaporized="">
        <emissions CO_abs="2688.635923" CO2_abs="161603.675156" HC_abs="16.052531" PMx_abs="2.947434" NOx_abs="66.808022" fuel_abs="69.466526" electricity_abs="0"/>
    </tripinfo>
    <tripinfo id="h7181c1:1" depart="57660.00" departLane="315358254#0_1" departPos="5.10" departSpeed="0.00" departDelay="0.10" arrival="57720.00" arrivalLane="306240162#0_0" arrivalPos="220.43" arrivalSpeed="16.44" duration="60.00" routeLength="932.35" waitingTime="0.00" waitingCount="0" stopTime="0.00" timeLoss="9.06" rerouteNo="1" devices="tripinfo_h7181c1:1 routing_h7181c1:1 emissions_h7181c1:1" vType="default_016" speedFactor="1.02" vaporized="">
        <emissions CO_abs="3306.743951" CO2_abs="264372.780019" HC_abs="21.351115" PMx_abs="4.960007" NOx_abs="106.390831" fuel_abs="113.641819" electricity_abs="0"/>
    </tripinfo>
    <tripinfo id="h3688c1:1" depart="57625.00" departLane="201201950#1_1" departPos="5.10" departSpeed="0.00" departDelay="0.00" arrival="57730.00" arrivalLane="32978638#0_1" arrivalPos="49.29" arrivalSpeed="13.57" duration="105.00" routeLength="1089.75" waitingTime="13.00" waitingCount="1" stopTime="0.00" timeLoss="28.99" rerouteNo="1" devices="tripinfo_h3688c1:1 routing_h3688c1:1 emissions_h3688c1:1" vType="default_016" speedFactor="1.05" vaporized="">
        <emissions CO_abs="4647.792578" CO2_abs="280982.678509" HC_abs="27.591106" PMx_abs="4.933753" NOx_abs="113.641210" fuel_abs="120.782835" electricity_abs="0"/>
    </tripinfo>
    <tripinfo id="carIn22761:1" depart="57616.00" departLane="-306240162#1_0" departPos="5.10" departSpeed="0.00" departDelay="2.10" arrival="57733.00" arrivalLane="399835085#1_1" arrivalPos="212.23" arrivalSpeed="7.59" duration="117.00" routeLength="1093.26" waitingTime="15.00" waitingCount="2" stopTime="0.00" timeLoss="39.90" rerouteNo="1" devices="tripinfo_carIn22761:1 routing_carIn22761:1 emissions_carIn22761:1" vType="default_016" speedFactor="1.01" vaporized="">
        <emissions CO_abs="6398.568028" CO2_abs="336353.958979" HC_abs="37.053899" PMx_abs="6.542686" NOx_abs="140.567328" fuel_abs="144.584382" electricity_abs="0"/>
    </tripinfo>
    <tripinfo id="h4538c1:1" depart="57701.00" departLane="-10427692#1_1" departPos="5.10" departSpeed="0.00" departDelay="0.00" arrival="57744.00" arrivalLane="-128361102#1_1" arrivalPos="274.68" arrivalSpeed="11.28" duration="43.00" routeLength="440.74" waitingTime="0.00" waitingCount="0" stopTime="0.00" timeLoss="6.68" rerouteNo="1" devices="tripinfo_h4538c1:1 routing_h4538c1:1 emissions_h4538c1:1" vType="default_016" speedFactor="0.88" vaporized="">
        <emissions CO_abs="1599.224829" CO2_abs="105813.271538" HC_abs="9.741254" PMx_abs="1.713873" NOx_abs="42.257513" fuel_abs="45.484813" electricity_abs="0"/>
    </tripinfo>
    <tripinfo id="h3568c1:3" depart="57656.00" departLane="266565295#5_1" departPos="5.10" departSpeed="0.00" departDelay="0.80" arrival="57755.00" arrivalLane="-24634415_1" arrivalPos="62.03" arrivalSpeed="13.58" duration="99.00" routeLength="807.40" waitingTime="18.00" waitingCount="1" stopTime="0.00" timeLoss="34.10" rerouteNo="1" devices="tripinfo_h3568c1:3 routing_h3568c1:3 emissions_h3568c1:3" vType="default_016" speedFactor="0.98" vaporized="">
        <emissions CO_abs="6366.048065" CO2_abs="271346.430484" HC_abs="35.375227" PMx_abs="5.206973" NOx_abs="114.023774" fuel_abs="116.641426" electricity_abs="0"/>
    </tripinfo>
    <tripinfo id="h5979c1:5" depart="57669.00" departLane="399835085#1_1" departPos="5.10" departSpeed="0.00" departDelay="0.00" arrival="57762.00" arrivalLane="-315358254#1_1" arrivalPos="137.16" arrivalSpeed="14.69" duration="93.00" routeLength="659.33" waitingTime="8.00" waitingCount="1" stopTime="0.00" timeLoss="24.14" rerouteNo="1" devices="tripinfo_h5979c1:5 routing_h5979c1:5 emissions_h5979c1:5" vType="default_016" speedFactor="1.07" vaporized="">
        <emissions CO_abs="4434.890201" CO2_abs="195224.012739" HC_abs="24.719368" PMx_abs="3.397351" NOx_abs="80.282191" fuel_abs="83.919674" electricity_abs="0"/>
    </tripinfo>
    <tripinfo id="carIn30817:1" depart="57681.00" departLane="315358244_1" departPos="5.10" departSpeed="0.00" departDelay="0.20" arrival="57764.00" arrivalLane="447569997#1_1" arrivalPos="180.93" arrivalSpeed="7.64" duration="83.00" routeLength="718.04" waitingTime="10.00" waitingCount="1" stopTime="0.00" timeLoss="22.58" rerouteNo="1" devices="tripinfo_carIn30817:1 routing_carIn30817:1 emissions_carIn30817:1" vType="default_016" speedFactor="1.02" vaporized="">
        <emissions CO_abs="3274.610029" CO2_abs="193267.745085" HC_abs="19.383501" PMx_abs="3.263655" NOx_abs="77.904924" fuel_abs="83.078034" electricity_abs="0"/>
    </tripinfo>
    <tripinfo id="h317c2:1" depart="57707.00" departLane="-32978638#0_1" departPos="5.10" departSpeed="0.00" departDelay="0.10" arrival="57764.00" arrivalLane="-266565295#5_1" arrivalPos="172.76" arrivalSpeed="13.93" duration="57.00" routeLength="370.53" waitingTime="22.00" waitingCount="1" stopTime="0.00" timeLoss="31.13" rerouteNo="1" devices="tripinfo_h317c2:1 routing_h317c2:1 emissions_h317c2:1" vType="default_016" speedFactor="1.06" vaporized="">
        <emissions CO_abs="4486.193708" CO2_abs="157095.967832" HC_abs="24.120055" PMx_abs="3.179909" NOx_abs="66.856461" fuel_abs="67.529986" electricity_abs="0"/>
    </tripinfo>
    <tripinfo id="carIn80064:1" depart="57603.00" departLane="128361109#1_1" departPos="5.10" departSpeed="0.00" departDelay="0.40" arrival="57768.00" arrivalLane="-315358254#1_1" arrivalPos="137.16" arrivalSpeed="11.57" duration="165.00" routeLength="1587.97" waitingTime="35.00" waitingCount="3" stopTime="0.00" timeLoss="66.48" rerouteNo="1" devices="tripinfo_carIn80064:1 routing_carIn80064:1 emissions_carIn80064:1" vType="default_016" speedFactor="0.91" vaporized="">
        <emissions CO_abs="10456.098544" CO2_abs="507919.034681" HC_abs="59.630889" PMx_abs="9.953473" NOx_abs="211.576762" fuel_abs="218.333672" electricity_abs="0"/>
    </tripinfo>
    <tripinfo id="h330c1:1" depart="57736.00" departLane="-32978638#0_1" departPos="5.10" departSpeed="0.00" departDelay="0.20" arrival="57771.00" arrivalLane="-266565295#5_1" arrivalPos="172.76" arrivalSpeed="13.06" duration="35.00" routeLength="370.53" waitingTime="0.00" waitingCount="0" stopTime="0.00" timeLoss="5.45" rerouteNo="1" devices="tripinfo_h330c1:1 routing_h330c1:1 emissions_h330c1:1" vType="default_016" speedFactor="0.95" vaporized="">
        <emissions CO_abs="1642.428337" CO2_abs="100139.055963" HC_abs="9.846457" PMx_abs="1.861661" NOx_abs="41.669417" fuel_abs="43.045430" electricity_abs="0"/>
    </tripinfo>
    <tripinfo id="h3326c1:2" depart="57656.00" departLane="22716069#0_1" departPos="5.10" departSpeed="0.00" departDelay="0.00" arrival="57780.00" arrivalLane="24634517#13_1" arrivalPos="111.62" arrivalSpeed="12.28" duration="124.00" routeLength="1312.81" waitingTime="0.00" waitingCount="0" stopTime="0.00" timeLoss="14.49" rerouteNo="1" devices="tripinfo_h3326c1:2 routing_h3326c1:2 emissions_h3326c1:2" vType="default_016" speedFactor="0.89" vaporized="">
        <emissions CO_abs="4148.330936" CO2_abs="291405.494091" HC_abs="25.683924" PMx_abs="4.786859" NOx_abs="116.724165" fuel_abs="125.263033" electricity_abs="0"/>
    </tripinfo>
    <tripinfo id="carIn121703:1" depart="57647.00" departLane="386687232#0_1" departPos="5.10" departSpeed="0.00" departDelay="0.30" arrival="57784.00" arrivalLane="-315358244_1" arrivalPos="33.95" arrivalSpeed="13.65" duration="137.00" routeLength="1157.39" waitingTime="33.00" waitingCount="3" stopTime="0.00" timeLoss="57.57" rerouteNo="1" devices="tripinfo_carIn121703:1 routing_carIn121703:1 emissions_carIn121703:1" vType="default_016" speedFactor="1.07" vaporized="">
        <emissions CO_abs="8085.993294" CO2_abs="368870.887446" HC_abs="45.437444" PMx_abs="6.940751" NOx_abs="152.775910" fuel_abs="158.563300" electricity_abs="0"/>
    </tripinfo>
    <tripinfo id="h7800c1:5" depart="57696.00" departLane="-447569998#1_1" departPos="5.10" departSpeed="0.00" departDelay="0.00" arrival="57785.00" arrivalLane="-447569998#1_2" arrivalPos="180.76" arrivalSpeed="3.91" duration="89.00" routeLength="175.66" waitingTime="64.00" waitingCount="1" stopTime="0.00" timeLoss="70.28" rerouteNo="1" devices="tripinfo_h7800c1:5 routing_h7800c1:5 emissions_h7800c1:5" vType="default_016" speedFactor="1.14" vaporized="">
        <emissions CO_abs="11342.754823" CO2_abs="216368.957433" HC_abs="56.722374" PMx_abs="5.064673" NOx_abs="97.116661" fuel_abs="93.012655" electricity_abs="0"/>
    </tripinfo>
    <tripinfo id="h12244c1:3" depart="57612.00" departLane="315358244_1" departPos="5.10" departSpeed="0.00" departDelay="0.40" arrival="57787.00" arrivalLane="386687235_1" arrivalPos="80.84" arrivalSpeed="12.17" duration="175.00" routeLength="1186.14" waitingTime="64.00" waitingCount="2" stopTime="0.00" timeLoss="83.81" rerouteNo="1" devices="tripinfo_h12244c1:3 routing_h12244c1:3 emissions_h12244c1:3" vType="default_016" speedFactor="0.95" vaporized="">
        <emissions CO_abs="12650.593167" CO2_abs="398984.893741" HC_abs="66.943737" PMx_abs="7.843378" NOx_abs="168.086224" fuel_abs="171.510918" electricity_abs="0"/>
    </tripinfo>
    <tripinfo id="h9563c2:5" depart="57631.00" departLane="315358244_1" departPos="5.10" departSpeed="0.00" departDelay="0.70" arrival="57790.00" arrivalLane="386687235_1" arrivalPos="80.84" arrivalSpeed="11.47" duration="159.00" routeLength="1186.14" waitingTime="40.00" waitingCount="2" stopTime="0.00" timeLoss="57.25" rerouteNo="1" devices="tripinfo_h9563c2:5 routing_h9563c2:5 emissions_h9563c2:5" vType="default_016" speedFactor="0.85" vaporized="">
        <emissions CO_abs="9110.900392" CO2_abs="341012.346407" HC_abs="49.387074" PMx_abs="6.032368" NOx_abs="139.603434" fuel_abs="146.589904" electricity_abs="0"/>
    </tripinfo>
    <tripinfo id="carIn86816:1" depart="57617.00" departLane="128361102#0_1" departPos="5.10" departSpeed="0.00" departDelay="0.80" arrival="57806.00" arrivalLane="201956811#0_1" arrivalPos="40.40" arrivalSpeed="12.44" duration="189.00" routeLength="2067.33" waitingTime="5.00" waitingCount="1" stopTime="0.00" timeLoss="29.22" rerouteNo="1" devices="tripinfo_carIn86816:1 routing_carIn86816:1 emissions_carIn86816:1" vType="default_016" speedFactor="0.95" vaporized="">
        <emissions CO_abs="6671.856004" CO2_abs="460317.540913" HC_abs="41.114801" PMx_abs="7.545997" NOx_abs="183.436867" fuel_abs="197.871469" electricity_abs="0"/>
    </tripinfo>
    <tripinfo id="carIn12858:1" depart="57661.00" departLane="128361109#1_1" departPos="5.10" departSpeed="0.00" departDelay="0.90" arrival="57807.00" arrivalLane="399835085#1_1" arrivalPos="212.23" arrivalSpeed="9.20" duration="146.00" routeLength="1738.12" waitingTime="21.00" waitingCount="1" stopTime="0.00" timeLoss="50.11" rerouteNo="1" devices="tripinfo_carIn12858:1 routing_carIn12858:1 emissions_carIn12858:1" vType="default_016" speedFactor="1.20" vaporized="">
        <emissions CO_abs="10778.844981" CO2_abs="571004.071190" HC_abs="62.675930" PMx_abs="11.709480" NOx_abs="240.085992" fuel_abs="245.449831" electricity_abs="0"/>
    </tripinfo>
    <tripinfo id="carIn107282:1" depart="57749.00" departLane="-447569998#1_1" departPos="5.10" departSpeed="0.00" departDelay="0.00" arrival="57811.00" arrivalLane="315358242#0_1" arrivalPos="165.37" arrivalSpeed="12.59" duration="62.00" routeLength="448.50" waitingTime="8.00" waitingCount="1" stopTime="0.00" timeLoss="17.34" rerouteNo="1" devices="tripinfo_carIn107282:1 routing_carIn107282:1 emissions_carIn107282:1" vType="default_016" speedFactor="0.93" vaporized="">
        <emissions CO_abs="3025.474720" CO2_abs="135288.348771" HC_abs="16.905595" PMx_abs="2.290453" NOx_abs="54.950079" fuel_abs="58.155606" electricity_abs="0"/>
    </tripinfo>
    <tripinfo id="carIn50326:1" depart="57651.00" departLane="128361102#0_1" departPos="5.10" departSpeed="0.00" departDelay="0.30" arrival="57815.00" arrivalLane="18809673#0_1" arrivalPos="473.56" arrivalSpeed="17.45" duration="164.00" routeLength="1591.07" waitingTime="31.00" waitingCount="2" stopTime="0.00" timeLoss="61.51" rerouteNo="1" devices="tripinfo_carIn50326:1 routing_carIn50326:1 emissions_carIn50326:1" vType="default_016" speedFactor="1.27" vaporized="">
        <emissions CO_abs="9494.267075" CO2_abs="469048.652554" HC_abs="53.964556" PMx_abs="8.634436" NOx_abs="191.770688" fuel_abs="201.625545" electricity_abs="0"/>
    </tripinfo>
    <tripinfo id="S5R_frequency1.2" depart="57677.00" departLane="315358250#0_1" departPos="12.10" departSpeed="0.00" departDelay="65.40" arrival="57824.00" arrivalLane="386687235_1" arrivalPos="80.84" arrivalSpeed="13.25" duration="147.00" routeLength="1115.62" waitingTime="32.00" waitingCount="3" stopTime="0.00" timeLoss="65.69" rerouteNo="1" devices="tripinfo_S5R_frequency1.2 routing_S5R_frequency1.2 emissions_S5R_frequency1.2" vType="bus" speedFactor="1.00" vaporized="">
        <emissions CO_abs="2485.037820" CO2_abs="1388533.349444" HC_abs="528.046614" PMx_abs="262.204004" NOx_abs="11238.237848" fuel_abs="592.131269" electricity_abs="0"/>
    </tripinfo>
    <tripinfo id="carIn118591:1" depart="57689.00" departLane="315358244_1" departPos="5.10" departSpeed="0.00" departDelay="0.20" arrival="57827.00" arrivalLane="386687235_1" arrivalPos="80.84" arrivalSpeed="11.55" duration="138.00" routeLength="1186.14" waitingTime="6.00" waitingCount="2" stopTime="0.00" timeLoss="37.92" rerouteNo="1" devices="tripinfo_carIn118591:1 routing_carIn118591:1 emissions_carIn118591:1" vType="default_016" speedFactor="0.87" vaporized="">
        <emissions CO_abs="5226.511080" CO2_abs="285012.181156" HC_abs="30.402934" PMx_abs="4.676509" NOx_abs="114.434403" fuel_abs="122.515792" electricity_abs="0"/>
    </tripinfo>
    <tripinfo id="carIn48184:1" depart="57613.00" departLane="-306240162#1_0" departPos="5.10" departSpeed="0.00" departDelay="0.70" arrival="57834.00" arrivalLane="386687235_1" arrivalPos="80.84" arrivalSpeed="11.54" duration="221.00" routeLength="2257.41" waitingTime="26.00" waitingCount="2" stopTime="0.00" timeLoss="57.37" rerouteNo="1" devices="tripinfo_carIn48184:1 routing_carIn48184:1 emissions_carIn48184:1" vType="default_016" speedFactor="0.91" vaporized="">
        <emissions CO_abs="10058.645199" CO2_abs="570736.385450" HC_abs="59.085471" PMx_abs="10.029918" NOx_abs="231.043368" fuel_abs="245.336519" electricity_abs="0"/>
    </tripinfo>
    <tripinfo id="h16072c2:3" depart="57663.00" departLane="315358254#0_1" departPos="5.10" departSpeed="0.00" departDelay="2.50" arrival="57834.00" arrivalLane="386687235_2" arrivalPos="80.84" arrivalSpeed="12.54" duration="171.00" routeLength="1611.92" waitingTime="17.00" waitingCount="2" stopTime="0.00" timeLoss="41.02" rerouteNo="1" devices="tripinfo_h16072c2:3 routing_h16072c2:3 emissions_h16072c2:3" vType="default_016" speedFactor="0.91" vaporized="">
        <emissions CO_abs="6785.896399" CO2_abs="393122.779320" HC_abs="40.038958" PMx_abs="6.485914" NOx_abs="157.373767" fuel_abs="168.988043" electricity_abs="0"/>
    </tripinfo>
    <tripinfo id="h9953c2:3" depart="57682.00" departLane="-54169231#2_1" departPos="5.10" departSpeed="0.00" departDelay="0.00" arrival="57836.00" arrivalLane="386687235_1" arrivalPos="80.84" arrivalSpeed="14.19" duration="154.00" routeLength="1535.60" waitingTime="6.00" waitingCount="2" stopTime="0.00" timeLoss="38.90" rerouteNo="1" devices="tripinfo_h9953c2:3 routing_h9953c2:3 emissions_h9953c2:3" vType="default_016" speedFactor="1.10" vaporized="">
        <emissions CO_abs="6504.571090" CO2_abs="419004.575318" HC_abs="39.460510" PMx_abs="7.440718" NOx_abs="171.024700" fuel_abs="180.112189" electricity_abs="0"/>
    </tripinfo>
    <tripinfo id="carIn12152:1" depart="57647.00" departLane="24599188#0.94_1" departPos="5.10" departSpeed="0.00" departDelay="0.50" arrival="57840.00" arrivalLane="-315358254#1_1" arrivalPos="137.16" arrivalSpeed="13.58" duration="193.00" routeLength="2034.31" waitingTime="16.00" waitingCount="1" stopTime="0.00" timeLoss="38.67" rerouteNo="1" devices="tripinfo_carIn12152:1 routing_carIn12152:1 emissions_carIn12152:1" vType="default_016" speedFactor="1.03" vaporized="">
        <emissions CO_abs="7684.026507" CO2_abs="462046.275058" HC_abs="45.740840" PMx_abs="7.767335" NOx_abs="184.586275" fuel_abs="198.615205" electricity_abs="0"/>
    </tripinfo>
    <tripinfo id="h3154c1:1" depart="57658.00" departLane="24634507_1" departPos="5.10" departSpeed="0.00" departDelay="0.00" arrival="57840.00" arrivalLane="-266565295#5_1" arrivalPos="172.76" arrivalSpeed="11.21" duration="182.00" routeLength="1206.22" waitingTime="57.00" waitingCount="2" stopTime="0.00" timeLoss="79.08" rerouteNo="1" devices="tripinfo_h3154c1:1 routing_h3154c1:1 emissions_h3154c1:1" vType="default_016" speedFactor="0.87" vaporized="">
        <emissions CO_abs="12580.735831" CO2_abs="425643.125654" HC_abs="67.217540" PMx_abs="8.114822" NOx_abs="178.436947" fuel_abs="182.969969" electricity_abs="0"/>
    </tripinfo>
    <tripinfo id="carIn102915:1" depart="57643.00" departLane="128361102#0_1" departPos="5.10" departSpeed="0.00" departDelay="0.40" arrival="57845.00" arrivalLane="201956811#0_1" arrivalPos="40.40" arrivalSpeed="12.54" duration="202.00" routeLength="2067.33" waitingTime="22.00" waitingCount="2" stopTime="0.00" timeLoss="48.67" rerouteNo="1" devices="tripinfo_carIn102915:1 routing_carIn102915:1 emissions_carIn102915:1" vType="default_016" speedFactor="0.99" vaporized="">
        <emissions CO_abs="7940.989491" CO2_abs="479224.978910" HC_abs="47.368935" PMx_abs="8.310688" NOx_abs="193.885022" fuel_abs="205.999150" electricity_abs="0"/>
    </tripinfo>
    <tripinfo id="carIn27009:1" depart="57673.00" departLane="-447569998#1_1" departPos="5.10" departSpeed="0.00" departDelay="0.50" arrival="57845.00" arrivalLane="-26677539_1" arrivalPos="152.75" arrivalSpeed="9.35" duration="172.00" routeLength="699.63" waitingTime="85.00" waitingCount="1" stopTime="0.00" timeLoss="100.84" rerouteNo="1" devices="tripinfo_carIn27009:1 routing_carIn27009:1 emissions_carIn27009:1" vType="default_015" speedFactor="1.18" vaporized="">
        <emissions CO_abs="17007.021955" CO2_abs="409024.084604" HC_abs="86.984373" PMx_abs="8.636461" NOx_abs="177.670806" fuel_abs="175.828835" electricity_abs="0"/>
    </tripinfo>
    <tripinfo id="randUni31145:1" depart="57814.00" departLane="10425609#0_1" departPos="5.10" departSpeed="0.00" departDelay="0.30" arrival="57846.00" arrivalLane="201956810_1" arrivalPos="71.65" arrivalSpeed="12.91" duration="32.00" routeLength="255.78" waitingTime="1.00" waitingCount="1" stopTime="0.00" timeLoss="9.92" rerouteNo="1" devices="tripinfo_randUni31145:1 routing_randUni31145:1 emissions_randUni31145:1" vType="random_016" speedFactor="0.93" vaporized="">
        <emissions CO_abs="2123.905887" CO2_abs="115236.145475" HC_abs="12.369302" PMx_abs="2.051414" NOx_abs="47.484538" fuel_abs="49.535339" electricity_abs="0"/>
    </tripinfo>
    <tripinfo id="randUni2407:1" depart="57820.00" departLane="10425609#0_1" departPos="5.10" departSpeed="0.00" departDelay="0.80" arrival="57847.00" arrivalLane="201956810_1" arrivalPos="71.65" arrivalSpeed="14.50" duration="27.00" routeLength="255.78" waitingTime="0.00" waitingCount="0" stopTime="0.00" timeLoss="10.81" rerouteNo="1" devices="tripinfo_randUni2407:1 routing_randUni2407:1 emissions_randUni2407:1" vType="random_016" speedFactor="1.22" vaporized="">
        <emissions CO_abs="1766.319876" CO2_abs="99636.701656" HC_abs="10.398714" PMx_abs="1.883429" NOx_abs="41.791468" fuel_abs="42.829541" electricity_abs="0"/>
    </tripinfo>
    <tripinfo id="carIn12775:1" depart="57676.00" departLane="10425609#0_1" departPos="5.10" departSpeed="0.00" departDelay="0.60" arrival="57848.00" arrivalLane="18809673#0_1" arrivalPos="473.56" arrivalSpeed="15.91" duration="172.00" routeLength="1959.45" waitingTime="22.00" waitingCount="2" stopTime="0.00" timeLoss="46.80" rerouteNo="1" devices="tripinfo_carIn12775:1 routing_carIn12775:1 emissions_carIn12775:1" vType="default_016" speedFactor="1.17" vaporized="">
        <emissions CO_abs="7269.070815" CO2_abs="469070.731197" HC_abs="43.769083" PMx_abs="8.237659" NOx_abs="187.812154" fuel_abs="201.633870" electricity_abs="0"/>
    </tripinfo>
    <tripinfo id="randUni33724:1" depart="57646.00" departLane="128361102#0_1" departPos="5.10" departSpeed="0.00" departDelay="1.20" arrival="57854.00" arrivalLane="201956811#0_1" arrivalPos="40.40" arrivalSpeed="11.77" duration="208.00" routeLength="2067.33" waitingTime="10.00" waitingCount="1" stopTime="0.00" timeLoss="31.31" rerouteNo="1" devices="tripinfo_randUni33724:1 routing_randUni33724:1 emissions_randUni33724:1" vType="random_016" speedFactor="0.86" vaporized="">
        <emissions CO_abs="6836.454376" CO2_abs="428540.267124" HC_abs="41.060844" PMx_abs="6.842978" NOx_abs="170.416383" fuel_abs="184.212463" electricity_abs="0"/>
    </tripinfo>
    <tripinfo id="h5938c1:1" depart="57740.00" departLane="-26677542#0_1" departPos="5.10" departSpeed="0.00" departDelay="0.00" arrival="57854.00" arrivalLane="447569997#1_1" arrivalPos="180.93" arrivalSpeed="6.96" duration="114.00" routeLength="1093.64" waitingTime="0.00" waitingCount="0" stopTime="0.00" timeLoss="10.79" rerouteNo="1" devices="tripinfo_h5938c1:1 routing_h5938c1:1 emissions_h5938c1:1" vType="default_016" speedFactor="0.94" vaporized="">
        <emissions CO_abs="3481.548408" CO2_abs="217405.881743" HC_abs="20.875505" PMx_abs="3.405615" NOx_abs="86.213601" fuel_abs="93.454258" electricity_abs="0"/>
    </tripinfo>
    <tripinfo id="carIn100288:1" depart="57664.00" departLane="128361102#0_1" departPos="5.10" departSpeed="0.00" departDelay="0.60" arrival="57856.00" arrivalLane="201956811#0_1" arrivalPos="40.40" arrivalSpeed="12.72" duration="192.00" routeLength="2067.33" waitingTime="8.00" waitingCount="1" stopTime="0.00" timeLoss="38.02" rerouteNo="1" devices="tripinfo_carIn100288:1 routing_carIn100288:1 emissions_carIn100288:1" vType="default_016" speedFactor="0.98" vaporized="">
        <emissions CO_abs="6400.879467" CO2_abs="450276.007842" HC_abs="39.630222" PMx_abs="7.520068" NOx_abs="180.131290" fuel_abs="193.554722" electricity_abs="0"/>
    </tripinfo>
    <tripinfo id="50R_frequency3.17" depart="57674.00" departLane="-18809673#6_1" departPos="12.10" departSpeed="0.00" departDelay="0.70" arrival="57859.00" arrivalLane="201956811#0_1" arrivalPos="40.40" arrivalSpeed="12.32" duration="185.00" routeLength="1954.47" waitingTime="14.00" waitingCount="1" stopTime="0.00" timeLoss="40.57" rerouteNo="1" devices="tripinfo_50R_frequency3.17 routing_50R_frequency3.17 emissions_50R_frequency3.17" vType="bus" speedFactor="1.00" vaporized="">
        <emissions CO_abs="3638.381299" CO2_abs="2224824.457419" HC_abs="767.967035" PMx_abs="388.641184" NOx_abs="17414.756040" fuel_abs="948.841960" electricity_abs="0"/>
    </tripinfo>
    <tripinfo id="carIn46110:1" depart="57684.00" departLane="315358244_1" departPos="5.10" departSpeed="0.00" departDelay="1.20" arrival="57860.00" arrivalLane="32978638#0_1" arrivalPos="49.29" arrivalSpeed="13.48" duration="176.00" routeLength="1764.04" waitingTime="16.00" waitingCount="3" stopTime="0.00" timeLoss="48.19" rerouteNo="1" devices="tripinfo_carIn46110:1 routing_carIn46110:1 emissions_carIn46110:1" vType="default_016" speedFactor="1.01" vaporized="">
        <emissions CO_abs="6097.667064" CO2_abs="408044.870377" HC_abs="37.290146" PMx_abs="6.869403" NOx_abs="163.396305" fuel_abs="175.401526" electricity_abs="0"/>
    </tripinfo>
    <tripinfo id="h3864c1:3" depart="57678.00" departLane="24693977#1_1" departPos="5.10" departSpeed="0.00" departDelay="0.00" arrival="57861.00" arrivalLane="201956820_1" arrivalPos="48.33" arrivalSpeed="13.67" duration="183.00" routeLength="1574.85" waitingTime="33.00" waitingCount="2" stopTime="0.00" timeLoss="60.12" rerouteNo="1" devices="tripinfo_h3864c1:3 routing_h3864c1:3 emissions_h3864c1:3" vType="default_016" speedFactor="1.06" vaporized="">
        <emissions CO_abs="10491.745116" CO2_abs="498359.648832" HC_abs="59.370788" PMx_abs="9.099935" NOx_abs="205.387923" fuel_abs="214.225475" electricity_abs="0"/>
    </tripinfo>
    <tripinfo id="carIn82220:1" depart="57619.00" departLane="-306240162#1_0" departPos="5.10" departSpeed="0.00" departDelay="3.50" arrival="57864.00" arrivalLane="386687235_1" arrivalPos="80.84" arrivalSpeed="12.48" duration="245.00" routeLength="2257.41" waitingTime="52.00" waitingCount="3" stopTime="0.00" timeLoss="88.80" rerouteNo="1" devices="tripinfo_carIn82220:1 routing_carIn82220:1 emissions_carIn82220:1" vType="default_016" speedFactor="0.95" vaporized="">
        <emissions CO_abs="13527.787475" CO2_abs="626049.653422" HC_abs="76.348498" PMx_abs="11.633130" NOx_abs="257.270182" fuel_abs="269.114679" electricity_abs="0"/>
    </tripinfo>
    <tripinfo id="h16437c1:3" depart="57717.00" departLane="315358254#0_1" departPos="5.10" departSpeed="0.00" departDelay="0.80" arrival="57864.00" arrivalLane="386687235_2" arrivalPos="80.84" arrivalSpeed="14.91" duration="147.00" routeLength="1611.92" waitingTime="15.00" waitingCount="1" stopTime="0.00" timeLoss="38.51" rerouteNo="1" devices="tripinfo_h16437c1:3 routing_h16437c1:3 emissions_h16437c1:3" vType="default_016" speedFactor="1.09" vaporized="">
        <emissions CO_abs="6995.100521" CO2_abs="410739.715258" HC_abs="41.480475" PMx_abs="7.359379" NOx_abs="166.793143" fuel_abs="176.560035" electricity_abs="0"/>
    </tripinfo>
    <tripinfo id="h5216c1:1" depart="57664.00" departLane="224892339#0_1" departPos="5.10" departSpeed="0.00" departDelay="0.00" arrival="57866.00" arrivalLane="386687235_1" arrivalPos="80.84" arrivalSpeed="12.72" duration="202.00" routeLength="1823.78" waitingTime="34.00" waitingCount="2" stopTime="0.00" timeLoss="65.86" rerouteNo="1" devices="tripinfo_h5216c1:1 routing_h5216c1:1 emissions_h5216c1:1" vType="default_016" speedFactor="0.94" vaporized="">
        <emissions CO_abs="10724.576901" CO2_abs="512893.704897" HC_abs="60.835267" PMx_abs="9.270826" NOx_abs="210.267096" fuel_abs="220.473249" electricity_abs="0"/>
    </tripinfo>
    <tripinfo id="carIn29531:1" depart="57667.00" departLane="128361102#0_1" departPos="5.10" departSpeed="0.00" departDelay="1.60" arrival="57866.00" arrivalLane="201956811#0_1" arrivalPos="40.40" arrivalSpeed="14.16" duration="199.00" routeLength="2067.33" waitingTime="14.00" waitingCount="2" stopTime="0.00" timeLoss="56.35" rerouteNo="1" devices="tripinfo_carIn29531:1 routing_carIn29531:1 emissions_carIn29531:1" vType="default_016" speedFactor="1.06" vaporized="">
        <emissions CO_abs="7464.502983" CO2_abs="513210.860347" HC_abs="46.032159" PMx_abs="8.837052" NOx_abs="206.909410" fuel_abs="220.607528" electricity_abs="0"/>
    </tripinfo>