<?xml version="1.0" encoding="UTF-8"?>

<!-- generated on 2021-10-26 14:23:02 by Eclipse SUMO sumo Version 1.10.0
<configuration xmlns:xsi="http://www.w3.org/2001/XMLSchema-instance" xsi:noNamespaceSchemaLocation="http://sumo.dlr.de/xsd/sumoConfiguration.xsd">

    <input>
        <net-file value="/Users/behradkoohy/sumo-scratchpad/RESCO/environments/ingolstadt21/ingolstadt21.net.xml"/>
        <route-files value="/Users/behradkoohy/sumo-scratchpad/RESCO/environments/ingolstadt21/ingolstadt21.rou.xml"/>
    </input>

    <output>
        <tripinfo-output value="/Users/behradkoohy/sumo-scratchpad/RESCO/logs/STOCHASTIC-tr0-ingolstadt21-21-mplight-wait/tripinfo_47.xml"/>
        <tripinfo-output.write-unfinished value="true"/>
    </output>

    <time>
        <begin value="57600"/>
        <end value="61200"/>
    </time>

    <processing>
        <time-to-teleport value="-1"/>
    </processing>

    <report>
        <no-warnings value="true"/>
        <no-step-log value="true"/>
    </report>

    <emissions>
        <device.emissions.probability value="1"/>
    </emissions>

    <traci_server>
        <remote-port value="60288"/>
    </traci_server>

    <random_number>
        <random value="true"/>
    </random_number>

</configuration>
-->

<tripinfos xmlns:xsi="http://www.w3.org/2001/XMLSchema-instance" xsi:noNamespaceSchemaLocation="http://sumo.dlr.de/xsd/tripinfo_file.xsd">
    <tripinfo id="h15454c2:3" depart="57612.00" departLane="24608844_1" departPos="5.10" departSpeed="0.00" departDelay="0.50" arrival="57655.00" arrivalLane="32978638#0_1" arrivalPos="49.29" arrivalSpeed="12.07" duration="43.00" routeLength="354.79" waitingTime="0.00" waitingCount="0" stopTime="0.00" timeLoss="5.84" rerouteNo="1" devices="tripinfo_h15454c2:3 routing_h15454c2:3 emissions_h15454c2:3" vType="default_016" speedFactor="0.92" vaporized="">
        <emissions CO_abs="1741.331676" CO2_abs="87749.796528" HC_abs="9.963079" PMx_abs="1.485772" NOx_abs="35.803773" fuel_abs="37.720282" electricity_abs="0"/>
    </tripinfo>
    <tripinfo id="carIn60260:1" depart="57606.00" departLane="315358254#0_1" departPos="5.10" departSpeed="0.00" departDelay="0.90" arrival="57683.00" arrivalLane="399835085#1_1" arrivalPos="212.23" arrivalSpeed="7.29" duration="77.00" routeLength="430.98" waitingTime="21.00" waitingCount="1" stopTime="0.00" timeLoss="30.98" rerouteNo="1" devices="tripinfo_carIn60260:1 routing_carIn60260:1 emissions_carIn60260:1" vType="default_016" speedFactor="1.00" vaporized="">
        <emissions CO_abs="5050.872695" CO2_abs="160630.350004" HC_abs="26.732044" PMx_abs="3.068055" NOx_abs="67.823804" fuel_abs="69.049904" electricity_abs="0"/>
    </tripinfo>
    <tripinfo id="carIn53971:1" depart="57640.00" departLane="272042143_1" departPos="5.10" departSpeed="0.00" departDelay="0.80" arrival="57691.00" arrivalLane="24634414#1_1" arrivalPos="162.19" arrivalSpeed="7.91" duration="51.00" routeLength="493.04" waitingTime="0.00" waitingCount="0" stopTime="0.00" timeLoss="8.68" rerouteNo="1" devices="tripinfo_carIn53971:1 routing_carIn53971:1 emissions_carIn53971:1" vType="default_016" speedFactor="1.09" vaporized="">
        <emissions CO_abs="2363.630951" CO2_abs="132818.219768" HC_abs="13.889963" PMx_abs="2.441551" NOx_abs="55.231306" fuel_abs="57.092968" electricity_abs="0"/>
    </tripinfo>
    <tripinfo id="h7800c1:5" depart="57696.00" departLane="-447569998#1_1" departPos="5.10" departSpeed="0.00" departDelay="0.00" arrival="57721.00" arrivalLane="-447569998#1_1" arrivalPos="180.76" arrivalSpeed="7.10" duration="25.00" routeLength="175.66" waitingTime="0.00" waitingCount="0" stopTime="0.00" timeLoss="3.39" rerouteNo="1" devices="tripinfo_h7800c1:5 routing_h7800c1:5 emissions_h7800c1:5" vType="default_016" speedFactor="1.00" vaporized="">
        <emissions CO_abs="1135.360438" CO2_abs="49017.249114" HC_abs="6.295368" PMx_abs="0.811016" NOx_abs="20.011454" fuel_abs="21.070795" electricity_abs="0"/>
    </tripinfo>
    <tripinfo id="h3688c1:1" depart="57625.00" departLane="201201950#1_1" departPos="5.10" departSpeed="0.00" departDelay="0.00" arrival="57722.00" arrivalLane="32978638#0_1" arrivalPos="49.29" arrivalSpeed="12.88" duration="97.00" routeLength="1089.75" waitingTime="0.00" waitingCount="0" stopTime="0.00" timeLoss="16.06" rerouteNo="1" devices="tripinfo_h3688c1:1 routing_h3688c1:1 emissions_h3688c1:1" vType="default_016" speedFactor="0.99" vaporized="">
        <emissions CO_abs="3550.459532" CO2_abs="257625.753250" HC_abs="22.179854" PMx_abs="4.308713" NOx_abs="103.103490" fuel_abs="110.742375" electricity_abs="0"/>
    </tripinfo>
    <tripinfo id="h5979c1:5" depart="57669.00" departLane="399835085#1_1" departPos="5.10" departSpeed="0.00" departDelay="0.00" arrival="57744.00" arrivalLane="-315358254#1_1" arrivalPos="137.16" arrivalSpeed="15.40" duration="75.00" routeLength="659.33" waitingTime="0.00" waitingCount="0" stopTime="0.00" timeLoss="8.99" rerouteNo="1" devices="tripinfo_h5979c1:5 routing_h5979c1:5 emissions_h5979c1:5" vType="default_016" speedFactor="1.11" vaporized="">
        <emissions CO_abs="3172.248290" CO2_abs="182068.145621" HC_abs="18.655859" PMx_abs="2.947284" NOx_abs="73.175362" fuel_abs="78.263988" electricity_abs="0"/>
    </tripinfo>
    <tripinfo id="h7181c1:1" depart="57660.00" departLane="315358254#0_1" departPos="5.10" departSpeed="0.00" departDelay="0.10" arrival="57753.00" arrivalLane="306240162#0_0" arrivalPos="220.43" arrivalSpeed="14.79" duration="93.00" routeLength="932.35" waitingTime="16.00" waitingCount="1" stopTime="0.00" timeLoss="35.41" rerouteNo="1" devices="tripinfo_h7181c1:1 routing_h7181c1:1 emissions_h7181c1:1" vType="default_016" speedFactor="0.91" vaporized="">
        <emissions CO_abs="5826.443660" CO2_abs="283828.193092" HC_abs="33.201788" PMx_abs="5.511934" NOx_abs="117.847981" fuel_abs="122.006223" electricity_abs="0"/>
    </tripinfo>
    <tripinfo id="carIn22761:1" depart="57616.00" departLane="-306240162#1_0" departPos="5.10" departSpeed="0.00" departDelay="2.10" arrival="57755.00" arrivalLane="399835085#1_1" arrivalPos="212.23" arrivalSpeed="7.90" duration="139.00" routeLength="1093.26" waitingTime="31.00" waitingCount="2" stopTime="0.00" timeLoss="59.58" rerouteNo="1" devices="tripinfo_carIn22761:1 routing_carIn22761:1 emissions_carIn22761:1" vType="default_016" speedFactor="0.99" vaporized="">
        <emissions CO_abs="9216.367424" CO2_abs="382923.808279" HC_abs="51.053403" PMx_abs="7.670886" NOx_abs="161.832559" fuel_abs="164.604090" electricity_abs="0"/>
    </tripinfo>
    <tripinfo id="h4538c1:1" depart="57701.00" departLane="-10427692#1_1" departPos="5.10" departSpeed="0.00" departDelay="0.00" arrival="57769.00" arrivalLane="-128361102#1_1" arrivalPos="274.68" arrivalSpeed="12.32" duration="68.00" routeLength="440.74" waitingTime="23.00" waitingCount="1" stopTime="0.00" timeLoss="33.05" rerouteNo="1" devices="tripinfo_h4538c1:1 routing_h4538c1:1 emissions_h4538c1:1" vType="default_016" speedFactor="0.92" vaporized="">
        <emissions CO_abs="5181.955189" CO2_abs="165010.339287" HC_abs="27.451572" PMx_abs="3.216814" NOx_abs="69.558060" fuel_abs="70.932674" electricity_abs="0"/>
    </tripinfo>
    <tripinfo id="S5R_frequency1.2" depart="57615.00" departLane="315358250#0_1" departPos="12.10" departSpeed="0.00" departDelay="3.40" arrival="57770.00" arrivalLane="386687235_1" arrivalPos="80.84" arrivalSpeed="13.30" duration="155.00" routeLength="1115.62" waitingTime="44.00" waitingCount="2" stopTime="0.00" timeLoss="73.34" rerouteNo="1" devices="tripinfo_S5R_frequency1.2 routing_S5R_frequency1.2 emissions_S5R_frequency1.2" vType="bus" speedFactor="1.00" vaporized="">
        <emissions CO_abs="2729.294512" CO2_abs="1417560.741827" HC_abs="594.217179" PMx_abs="286.050968" NOx_abs="11790.672384" fuel_abs="604.477244" electricity_abs="0"/>
    </tripinfo>
    <tripinfo id="h3326c1:2" depart="57656.00" departLane="22716069#0_1" departPos="5.10" departSpeed="0.00" departDelay="0.00" arrival="57779.00" arrivalLane="24634517#13_1" arrivalPos="111.62" arrivalSpeed="12.41" duration="123.00" routeLength="1312.81" waitingTime="0.00" waitingCount="0" stopTime="0.00" timeLoss="15.90" rerouteNo="1" devices="tripinfo_h3326c1:2 routing_h3326c1:2 emissions_h3326c1:2" vType="default_016" speedFactor="0.91" vaporized="">
        <emissions CO_abs="4445.945248" CO2_abs="309019.019219" HC_abs="27.458139" PMx_abs="5.125027" NOx_abs="124.071207" fuel_abs="132.834319" electricity_abs="0"/>
    </tripinfo>
    <tripinfo id="h3154c1:1" depart="57658.00" departLane="24634507_1" departPos="5.10" departSpeed="0.00" departDelay="0.00" arrival="57780.00" arrivalLane="-266565295#5_1" arrivalPos="172.76" arrivalSpeed="11.11" duration="122.00" routeLength="1206.22" waitingTime="1.00" waitingCount="1" stopTime="0.00" timeLoss="20.77" rerouteNo="1" devices="tripinfo_h3154c1:1 routing_h3154c1:1 emissions_h3154c1:1" vType="default_016" speedFactor="0.89" vaporized="">
        <emissions CO_abs="4519.972290" CO2_abs="294828.938799" HC_abs="27.458653" PMx_abs="4.923379" NOx_abs="118.810988" fuel_abs="126.734762" electricity_abs="0"/>
    </tripinfo>
    <tripinfo id="h317c2:1" depart="57707.00" departLane="-32978638#0_1" departPos="5.10" departSpeed="0.00" departDelay="0.10" arrival="57784.00" arrivalLane="-266565295#5_1" arrivalPos="172.76" arrivalSpeed="14.19" duration="77.00" routeLength="370.53" waitingTime="42.00" waitingCount="1" stopTime="0.00" timeLoss="50.77" rerouteNo="1" devices="tripinfo_h317c2:1 routing_h317c2:1 emissions_h317c2:1" vType="default_016" speedFactor="1.07" vaporized="">
        <emissions CO_abs="8390.918010" CO2_abs="229635.878066" HC_abs="43.634284" PMx_abs="4.977028" NOx_abs="100.017248" fuel_abs="98.713375" electricity_abs="0"/>
    </tripinfo>
    <tripinfo id="h330c1:1" depart="57736.00" departLane="-32978638#0_1" departPos="5.10" departSpeed="0.00" departDelay="0.20" arrival="57787.00" arrivalLane="-266565295#5_1" arrivalPos="172.76" arrivalSpeed="12.77" duration="51.00" routeLength="370.53" waitingTime="13.00" waitingCount="1" stopTime="0.00" timeLoss="23.57" rerouteNo="1" devices="tripinfo_h330c1:1 routing_h330c1:1 emissions_h330c1:1" vType="default_016" speedFactor="1.01" vaporized="">
        <emissions CO_abs="3613.329272" CO2_abs="146861.592103" HC_abs="19.933019" PMx_abs="2.959802" NOx_abs="62.598634" fuel_abs="63.130098" electricity_abs="0"/>
    </tripinfo>
    <tripinfo id="carIn27009:1" depart="57673.00" departLane="-447569998#1_1" departPos="5.10" departSpeed="0.00" departDelay="0.50" arrival="57792.00" arrivalLane="-26677539_1" arrivalPos="152.75" arrivalSpeed="6.84" duration="119.00" routeLength="699.63" waitingTime="9.00" waitingCount="1" stopTime="0.00" timeLoss="25.57" rerouteNo="1" devices="tripinfo_carIn27009:1 routing_carIn27009:1 emissions_carIn27009:1" vType="default_015" speedFactor="0.90" vaporized="">
        <emissions CO_abs="5162.799091" CO2_abs="202682.815110" HC_abs="28.143694" PMx_abs="3.339019" NOx_abs="82.776643" fuel_abs="87.126639" electricity_abs="0"/>
    </tripinfo>
    <tripinfo id="carIn28951:1" depart="57606.00" departLane="10425609#0_1" departPos="5.10" departSpeed="0.00" departDelay="0.20" arrival="57794.00" arrivalLane="-128361102#1_1" arrivalPos="274.68" arrivalSpeed="13.49" duration="188.00" routeLength="2113.04" waitingTime="13.00" waitingCount="2" stopTime="0.00" timeLoss="42.53" rerouteNo="1" devices="tripinfo_carIn28951:1 routing_carIn28951:1 emissions_carIn28951:1" vType="default_016" speedFactor="1.06" vaporized="">
        <emissions CO_abs="7526.074059" CO2_abs="516974.142909" HC_abs="46.241790" PMx_abs="9.050877" NOx_abs="208.830143" fuel_abs="222.225002" electricity_abs="0"/>
    </tripinfo>
    <tripinfo id="carIn86816:1" depart="57617.00" departLane="128361102#0_1" departPos="5.10" departSpeed="0.00" departDelay="0.80" arrival="57795.00" arrivalLane="201956811#0_1" arrivalPos="40.40" arrivalSpeed="13.62" duration="178.00" routeLength="2067.33" waitingTime="12.00" waitingCount="1" stopTime="0.00" timeLoss="32.94" rerouteNo="1" devices="tripinfo_carIn86816:1 routing_carIn86816:1 emissions_carIn86816:1" vType="default_016" speedFactor="1.04" vaporized="">
        <emissions CO_abs="6343.829472" CO2_abs="461757.954696" HC_abs="39.542546" PMx_abs="7.665247" NOx_abs="183.297305" fuel_abs="198.490307" electricity_abs="0"/>
    </tripinfo>
    <tripinfo id="carIn81046:1" depart="57611.00" departLane="124812856#0_1" departPos="5.10" departSpeed="0.00" departDelay="2.50" arrival="57796.00" arrivalLane="-128361102#1_1" arrivalPos="274.68" arrivalSpeed="16.25" duration="185.00" routeLength="2232.46" waitingTime="2.00" waitingCount="1" stopTime="0.00" timeLoss="48.36" rerouteNo="1" devices="tripinfo_carIn81046:1 routing_carIn81046:1 emissions_carIn81046:1" vType="default_016" speedFactor="1.20" vaporized="">
        <emissions CO_abs="8028.262972" CO2_abs="586473.131214" HC_abs="50.301096" PMx_abs="10.546297" NOx_abs="238.872127" fuel_abs="252.098774" electricity_abs="0"/>
    </tripinfo>
    <tripinfo id="h12244c1:3" depart="57612.00" departLane="315358244_1" departPos="5.10" departSpeed="0.00" departDelay="0.40" arrival="57797.00" arrivalLane="386687235_1" arrivalPos="80.84" arrivalSpeed="13.04" duration="185.00" routeLength="1186.14" waitingTime="63.00" waitingCount="5" stopTime="0.00" timeLoss="100.86" rerouteNo="1" devices="tripinfo_h12244c1:3 routing_h12244c1:3 emissions_h12244c1:3" vType="default_016" speedFactor="1.03" vaporized="">
        <emissions CO_abs="13379.944056" CO2_abs="439702.957734" HC_abs="71.176741" PMx_abs="8.568952" NOx_abs="184.460521" fuel_abs="189.013975" electricity_abs="0"/>
    </tripinfo>
    <tripinfo id="h9563c2:5" depart="57631.00" departLane="315358244_1" departPos="5.10" departSpeed="0.00" departDelay="0.70" arrival="57799.00" arrivalLane="386687235_1" arrivalPos="80.84" arrivalSpeed="13.20" duration="168.00" routeLength="1186.14" waitingTime="39.00" waitingCount="3" stopTime="0.00" timeLoss="77.62" rerouteNo="1" devices="tripinfo_h9563c2:5 routing_h9563c2:5 emissions_h9563c2:5" vType="default_016" speedFactor="0.96" vaporized="">
        <emissions CO_abs="9514.652820" CO2_abs="359468.746124" HC_abs="51.719849" PMx_abs="6.678894" NOx_abs="149.080938" fuel_abs="154.523149" electricity_abs="0"/>
    </tripinfo>
    <tripinfo id="carIn129809:1" depart="57729.00" departLane="-447569998#1_1" departPos="5.10" departSpeed="0.00" departDelay="1.00" arrival="57802.00" arrivalLane="-315358244_1" arrivalPos="33.95" arrivalSpeed="12.73" duration="73.00" routeLength="706.49" waitingTime="0.00" waitingCount="0" stopTime="0.00" timeLoss="8.21" rerouteNo="1" devices="tripinfo_carIn129809:1 routing_carIn129809:1 emissions_carIn129809:1" vType="default_015" speedFactor="0.94" vaporized="">
        <emissions CO_abs="3021.556599" CO2_abs="194264.610455" HC_abs="18.274501" PMx_abs="3.167333" NOx_abs="77.743401" fuel_abs="83.506477" electricity_abs="0"/>
    </tripinfo>
    <tripinfo id="h16072c2:3" depart="57663.00" departLane="315358254#0_1" departPos="5.10" departSpeed="0.00" departDelay="2.50" arrival="57803.00" arrivalLane="386687235_1" arrivalPos="80.84" arrivalSpeed="12.98" duration="140.00" routeLength="1611.92" waitingTime="0.00" waitingCount="0" stopTime="0.00" timeLoss="16.10" rerouteNo="1" devices="tripinfo_h16072c2:3 routing_h16072c2:3 emissions_h16072c2:3" vType="default_016" speedFactor="0.95" vaporized="">
        <emissions CO_abs="4323.291110" CO2_abs="337137.743864" HC_abs="27.566925" PMx_abs="5.506264" NOx_abs="134.069741" fuel_abs="144.921135" electricity_abs="0"/>
    </tripinfo>
    <tripinfo id="carIn121703:1" depart="57647.00" departLane="386687232#0_1" departPos="5.10" departSpeed="0.00" departDelay="0.30" arrival="57809.00" arrivalLane="-315358244_1" arrivalPos="33.95" arrivalSpeed="12.62" duration="162.00" routeLength="1157.39" waitingTime="53.00" waitingCount="2" stopTime="0.00" timeLoss="70.45" rerouteNo="1" devices="tripinfo_carIn121703:1 routing_carIn121703:1 emissions_carIn121703:1" vType="default_016" speedFactor="0.92" vaporized="">
        <emissions CO_abs="11010.452531" CO2_abs="378563.363870" HC_abs="58.979298" PMx_abs="7.192029" NOx_abs="157.881219" fuel_abs="162.731883" electricity_abs="0"/>
    </tripinfo>
    <tripinfo id="h645c1:1" depart="57622.00" departLane="266565295#5_1" departPos="5.10" departSpeed="0.00" departDelay="0.40" arrival="57810.00" arrivalLane="-315358244_1" arrivalPos="33.95" arrivalSpeed="11.90" duration="188.00" routeLength="1910.83" waitingTime="13.00" waitingCount="1" stopTime="0.00" timeLoss="33.69" rerouteNo="1" devices="tripinfo_h645c1:1 routing_h645c1:1 emissions_h645c1:1" vType="default_016" speedFactor="0.90" vaporized="">
        <emissions CO_abs="6614.094135" CO2_abs="410007.741130" HC_abs="39.653823" PMx_abs="6.708116" NOx_abs="163.681095" fuel_abs="176.245924" electricity_abs="0"/>
    </tripinfo>
    <tripinfo id="carIn12858:1" depart="57661.00" departLane="128361109#1_1" departPos="5.10" departSpeed="0.00" departDelay="0.90" arrival="57811.00" arrivalLane="399835085#1_1" arrivalPos="212.23" arrivalSpeed="7.01" duration="150.00" routeLength="1738.12" waitingTime="0.00" waitingCount="0" stopTime="0.00" timeLoss="25.52" rerouteNo="1" devices="tripinfo_carIn12858:1 routing_carIn12858:1 emissions_carIn12858:1" vType="default_016" speedFactor="0.92" vaporized="">
        <emissions CO_abs="7024.074993" CO2_abs="447195.467024" HC_abs="42.597804" PMx_abs="8.291107" NOx_abs="183.610966" fuel_abs="192.229914" electricity_abs="0"/>
    </tripinfo>
    <tripinfo id="h11737c1:1" depart="57665.00" departLane="272042143_1" departPos="5.10" departSpeed="0.00" departDelay="1.50" arrival="57818.00" arrivalLane="-315358254#1_1" arrivalPos="137.16" arrivalSpeed="12.47" duration="153.00" routeLength="1596.88" waitingTime="7.00" waitingCount="1" stopTime="0.00" timeLoss="27.29" rerouteNo="1" devices="tripinfo_h11737c1:1 routing_h11737c1:1 emissions_h11737c1:1" vType="default_016" speedFactor="0.93" vaporized="">
        <emissions CO_abs="5034.574255" CO2_abs="352106.069358" HC_abs="31.121496" PMx_abs="5.685951" NOx_abs="139.864969" fuel_abs="151.355896" electricity_abs="0"/>
    </tripinfo>
    <tripinfo id="carIn107282:1" depart="57749.00" departLane="-447569998#1_1" departPos="5.10" departSpeed="0.00" departDelay="0.00" arrival="57819.00" arrivalLane="315358242#0_1" arrivalPos="165.37" arrivalSpeed="11.95" duration="70.00" routeLength="448.50" waitingTime="15.00" waitingCount="1" stopTime="0.00" timeLoss="23.00" rerouteNo="1" devices="tripinfo_carIn107282:1 routing_carIn107282:1 emissions_carIn107282:1" vType="default_016" speedFactor="0.90" vaporized="">
        <emissions CO_abs="4246.340102" CO2_abs="145433.973210" HC_abs="22.700123" PMx_abs="2.636017" NOx_abs="60.356980" fuel_abs="62.517414" electricity_abs="0"/>
    </tripinfo>
    <tripinfo id="carIn126288:1" depart="57674.00" departLane="272042143_1" departPos="5.10" departSpeed="0.00" departDelay="0.00" arrival="57820.00" arrivalLane="-315358254#1_1" arrivalPos="137.16" arrivalSpeed="12.88" duration="146.00" routeLength="1596.88" waitingTime="7.00" waitingCount="1" stopTime="0.00" timeLoss="21.20" rerouteNo="1" devices="tripinfo_carIn126288:1 routing_carIn126288:1 emissions_carIn126288:1" vType="default_016" speedFactor="0.94" vaporized="">
        <emissions CO_abs="4326.606630" CO2_abs="334033.930256" HC_abs="27.468690" PMx_abs="5.270735" NOx_abs="131.405555" fuel_abs="143.587281" electricity_abs="0"/>
    </tripinfo>
    <tripinfo id="carIn12152:1" depart="57647.00" departLane="24599188#0.94_1" departPos="5.10" departSpeed="0.00" departDelay="0.50" arrival="57821.00" arrivalLane="-315358254#1_1" arrivalPos="137.16" arrivalSpeed="13.82" duration="174.00" routeLength="2034.31" waitingTime="2.00" waitingCount="1" stopTime="0.00" timeLoss="25.63" rerouteNo="1" devices="tripinfo_carIn12152:1 routing_carIn12152:1 emissions_carIn12152:1" vType="default_016" speedFactor="1.07" vaporized="">
        <emissions CO_abs="5510.666856" CO2_abs="424517.004097" HC_abs="35.001662" PMx_abs="7.124697" NOx_abs="169.239054" fuel_abs="182.481590" electricity_abs="0"/>
    </tripinfo>
    <tripinfo id="carIn50326:1" depart="57651.00" departLane="128361102#0_1" departPos="5.10" departSpeed="0.00" departDelay="0.30" arrival="57822.00" arrivalLane="18809673#0_1" arrivalPos="473.56" arrivalSpeed="13.36" duration="171.00" routeLength="1591.07" waitingTime="18.00" waitingCount="2" stopTime="0.00" timeLoss="41.60" rerouteNo="1" devices="tripinfo_carIn50326:1 routing_carIn50326:1 emissions_carIn50326:1" vType="default_016" speedFactor="1.00" vaporized="">
        <emissions CO_abs="7108.543015" CO2_abs="398942.779648" HC_abs="41.605710" PMx_abs="6.741632" NOx_abs="160.518314" fuel_abs="171.489789" electricity_abs="0"/>
    </tripinfo>
    <tripinfo id="h3568c1:3" depart="57656.00" departLane="266565295#5_1" departPos="5.10" departSpeed="0.00" departDelay="0.80" arrival="57824.00" arrivalLane="-24634415_1" arrivalPos="62.03" arrivalSpeed="11.05" duration="168.00" routeLength="807.40" waitingTime="64.00" waitingCount="2" stopTime="0.00" timeLoss="89.05" rerouteNo="1" devices="tripinfo_h3568c1:3 routing_h3568c1:3 emissions_h3568c1:3" vType="default_016" speedFactor="0.82" vaporized="">
        <emissions CO_abs="14175.690888" CO2_abs="388673.881502" HC_abs="73.643474" PMx_abs="8.032142" NOx_abs="167.748257" fuel_abs="167.079375" electricity_abs="0"/>
    </tripinfo>
    <tripinfo id="h5938c1:1" depart="57740.00" departLane="-26677542#0_1" departPos="5.10" departSpeed="0.00" departDelay="0.00" arrival="57833.00" arrivalLane="447569997#1_1" arrivalPos="180.93" arrivalSpeed="8.72" duration="93.00" routeLength="1093.64" waitingTime="0.00" waitingCount="0" stopTime="0.00" timeLoss="9.39" rerouteNo="1" devices="tripinfo_h5938c1:1 routing_h5938c1:1 emissions_h5938c1:1" vType="default_016" speedFactor="1.16" vaporized="">
        <emissions CO_abs="3045.859709" CO2_abs="232671.852246" HC_abs="19.194959" PMx_abs="3.883844" NOx_abs="92.469739" fuel_abs="100.015666" electricity_abs="0"/>
    </tripinfo>
    <tripinfo id="carIn81860:1" depart="57712.00" departLane="128361102#0_1" departPos="5.10" departSpeed="0.00" departDelay="0.60" arrival="57839.00" arrivalLane="-24634517#17_1" arrivalPos="6.43" arrivalSpeed="8.38" duration="127.00" routeLength="1229.64" waitingTime="20.00" waitingCount="1" stopTime="0.00" timeLoss="36.36" rerouteNo="1" devices="tripinfo_carIn81860:1 routing_carIn81860:1 emissions_carIn81860:1" vType="default_016" speedFactor="0.99" vaporized="">
        <emissions CO_abs="6352.221289" CO2_abs="327445.262421" HC_abs="36.534003" PMx_abs="5.697646" NOx_abs="132.405510" fuel_abs="140.756058" electricity_abs="0"/>
    </tripinfo>
    <tripinfo id="carIn8642:1" depart="57774.00" departLane="-447569998#1_1" departPos="5.10" departSpeed="0.00" departDelay="0.90" arrival="57839.00" arrivalLane="-315358244_1" arrivalPos="33.95" arrivalSpeed="14.10" duration="65.00" routeLength="706.49" waitingTime="0.00" waitingCount="0" stopTime="0.00" timeLoss="5.80" rerouteNo="1" devices="tripinfo_carIn8642:1 routing_carIn8642:1 emissions_carIn8642:1" vType="default_016" speedFactor="1.02" vaporized="">
        <emissions CO_abs="2133.337431" CO2_abs="160604.212432" HC_abs="13.374330" PMx_abs="2.492769" NOx_abs="62.873012" fuel_abs="69.037165" electricity_abs="0"/>
    </tripinfo>
    <tripinfo id="h3864c1:3" depart="57678.00" departLane="24693977#1_1" departPos="5.10" departSpeed="0.00" departDelay="0.00" arrival="57840.00" arrivalLane="201956820_1" arrivalPos="48.33" arrivalSpeed="14.40" duration="162.00" routeLength="1574.85" waitingTime="19.00" waitingCount="1" stopTime="0.00" timeLoss="41.66" rerouteNo="1" devices="tripinfo_h3864c1:3 routing_h3864c1:3 emissions_h3864c1:3" vType="default_016" speedFactor="1.08" vaporized="">
        <emissions CO_abs="8304.722557" CO2_abs="432851.523203" HC_abs="47.868104" PMx_abs="7.753762" NOx_abs="176.915438" fuel_abs="186.065660" electricity_abs="0"/>
    </tripinfo>
    <tripinfo id="h17600c1:1" depart="57662.00" departLane="272042143_1" departPos="5.10" departSpeed="0.00" departDelay="0.30" arrival="57842.00" arrivalLane="201238729#3_1" arrivalPos="431.02" arrivalSpeed="13.67" duration="180.00" routeLength="2100.26" waitingTime="4.00" waitingCount="1" stopTime="0.00" timeLoss="27.67" rerouteNo="1" devices="tripinfo_h17600c1:1 routing_h17600c1:1 emissions_h17600c1:1" vType="default_016" speedFactor="0.99" vaporized="">
        <emissions CO_abs="4980.772896" CO2_abs="415135.540748" HC_abs="32.334474" PMx_abs="6.493363" NOx_abs="162.234921" fuel_abs="178.449307" electricity_abs="0"/>
    </tripinfo>
    <tripinfo id="carIn82278:1" depart="57702.00" departLane="-306240162#1_0" departPos="5.10" departSpeed="0.00" departDelay="0.70" arrival="57842.00" arrivalLane="399835085#1_1" arrivalPos="212.23" arrivalSpeed="6.25" duration="140.00" routeLength="1093.26" waitingTime="15.00" waitingCount="3" stopTime="0.00" timeLoss="45.86" rerouteNo="1" devices="tripinfo_carIn82278:1 routing_carIn82278:1 emissions_carIn82278:1" vType="default_016" speedFactor="0.83" vaporized="">
        <emissions CO_abs="6880.678842" CO2_abs="324104.474564" HC_abs="38.919139" PMx_abs="6.075711" NOx_abs="134.887916" fuel_abs="139.319719" electricity_abs="0"/>
    </tripinfo>
    <tripinfo id="carIn102915:1" depart="57643.00" departLane="128361102#0_1" departPos="5.10" departSpeed="0.00" departDelay="0.40" arrival="57843.00" arrivalLane="201956811#0_1" arrivalPos="40.40" arrivalSpeed="12.97" duration="200.00" routeLength="2067.33" waitingTime="15.00" waitingCount="2" stopTime="0.00" timeLoss="40.35" rerouteNo="1" devices="tripinfo_carIn102915:1 routing_carIn102915:1 emissions_carIn102915:1" vType="default_016" speedFactor="0.95" vaporized="">
        <emissions CO_abs="7434.652265" CO2_abs="468844.274931" HC_abs="44.765913" PMx_abs="7.664904" NOx_abs="186.492690" fuel_abs="201.537360" electricity_abs="0"/>
    </tripinfo>
    <tripinfo id="50R_frequency3.17" depart="57674.00" departLane="-18809673#6_1" departPos="12.10" departSpeed="0.00" departDelay="0.70" arrival="57848.00" arrivalLane="201956811#0_1" arrivalPos="40.40" arrivalSpeed="13.34" duration="174.00" routeLength="1954.47" waitingTime="5.00" waitingCount="1" stopTime="0.00" timeLoss="29.68" rerouteNo="1" devices="tripinfo_50R_frequency3.17 routing_50R_frequency3.17 emissions_50R_frequency3.17" vType="bus" speedFactor="1.00" vaporized="">
        <emissions CO_abs="3251.249921" CO2_abs="2069016.439865" HC_abs="677.201111" PMx_abs="348.847638" NOx_abs="15975.514033" fuel_abs="882.416461" electricity_abs="0"/>
    </tripinfo>
    <tripinfo id="h6541c1:3" depart="57727.00" departLane="201950247#3_1" departPos="5.10" departSpeed="0.00" departDelay="0.00" arrival="57849.00" arrivalLane="32978638#0_1" arrivalPos="49.29" arrivalSpeed="14.74" duration="122.00" routeLength="1176.17" waitingTime="7.00" waitingCount="1" stopTime="0.00" timeLoss="27.27" rerouteNo="1" devices="tripinfo_h6541c1:3 routing_h6541c1:3 emissions_h6541c1:3" vType="default_016" speedFactor="1.08" vaporized="">
        <emissions CO_abs="5512.554656" CO2_abs="332974.866877" HC_abs="32.832453" PMx_abs="5.886942" NOx_abs="136.081082" fuel_abs="143.131973" electricity_abs="0"/>
    </tripinfo>
    <tripinfo id="randUni33724:1" depart="57646.00" departLane="128361102#0_1" departPos="5.10" departSpeed="0.00" departDelay="1.20" arrival="57853.00" arrivalLane="201956811#0_1" arrivalPos="40.40" arrivalSpeed="11.87" duration="207.00" routeLength="2067.33" waitingTime="10.00" waitingCount="1" stopTime="0.00" timeLoss="32.68" rerouteNo="1" devices="tripinfo_randUni33724:1 routing_randUni33724:1 emissions_randUni33724:1" vType="random_016" speedFactor="0.87" vaporized="">
        <emissions CO_abs="7251.434737" CO2_abs="467956.760468" HC_abs="43.905201" PMx_abs="7.655897" NOx_abs="187.319624" fuel_abs="201.155582" electricity_abs="0"/>
    </tripinfo>
    <tripinfo id="carIn100288:1" depart="57664.00" departLane="128361102#0_1" departPos="5.10" departSpeed="0.00" departDelay="0.60" arrival="57854.00" arrivalLane="201956811#0_1" arrivalPos="40.40" arrivalSpeed="12.86" duration="190.00" routeLength="2067.33" waitingTime="2.00" waitingCount="1" stopTime="0.00" timeLoss="56.20" rerouteNo="1" devices="tripinfo_carIn100288:1 routing_carIn100288:1 emissions_carIn100288:1" vType="default_016" speedFactor="1.13" vaporized="">
        <emissions CO_abs="7570.142394" CO2_abs="512148.253568" HC_abs="46.396793" PMx_abs="8.908883" NOx_abs="208.104106" fuel_abs="220.150599" electricity_abs="0"/>
    </tripinfo>
    <tripinfo id="carIn12775:1" depart="57676.00" departLane="10425609#0_1" departPos="5.10" departSpeed="0.00" departDelay="0.60" arrival="57854.00" arrivalLane="18809673#0_1" arrivalPos="473.56" arrivalSpeed="12.26" duration="178.00" routeLength="1959.45" waitingTime="2.00" waitingCount="1" stopTime="0.00" timeLoss="24.41" rerouteNo="1" devices="tripinfo_carIn12775:1 routing_carIn12775:1 emissions_carIn12775:1" vType="default_016" speedFactor="0.95" vaporized="">
        <emissions CO_abs="5554.045619" CO2_abs="412925.991033" HC_abs="34.891292" PMx_abs="6.543319" NOx_abs="162.948714" fuel_abs="177.499794" electricity_abs="0"/>
    </tripinfo>
    <tripinfo id="h2831c1:1" depart="57600.00" departLane="201089423#0_1" departPos="5.10" departSpeed="0.00" departDelay="0.00" arrival="57855.00" arrivalLane="-315358244_1" arrivalPos="33.95" arrivalSpeed="13.90" duration="255.00" routeLength="2672.18" waitingTime="28.00" waitingCount="4" stopTime="0.00" timeLoss="64.42" rerouteNo="1" devices="tripinfo_h2831c1:1 routing_h2831c1:1 emissions_h2831c1:1" vType="default_016" speedFactor="1.02" vaporized="">
        <emissions CO_abs="8972.066095" CO2_abs="591239.719602" HC_abs="54.528601" PMx_abs="9.845879" NOx_abs="235.403737" fuel_abs="254.149705" electricity_abs="0"/>
    </tripinfo>