<?xml version="1.0" encoding="UTF-8"?>

<!-- generated on 2021-10-26 13:57:07 by Eclipse SUMO sumo Version 1.10.0
<configuration xmlns:xsi="http://www.w3.org/2001/XMLSchema-instance" xsi:noNamespaceSchemaLocation="http://sumo.dlr.de/xsd/sumoConfiguration.xsd">

    <input>
        <net-file value="/Users/behradkoohy/sumo-scratchpad/RESCO/environments/ingolstadt21/ingolstadt21.net.xml"/>
        <route-files value="/Users/behradkoohy/sumo-scratchpad/RESCO/environments/ingolstadt21/ingolstadt21.rou.xml"/>
    </input>

    <output>
        <tripinfo-output value="/Users/behradkoohy/sumo-scratchpad/RESCO/logs/STOCHASTIC-tr0-ingolstadt21-21-mplight-wait/tripinfo_5.xml"/>
        <tripinfo-output.write-unfinished value="true"/>
    </output>

    <time>
        <begin value="57600"/>
        <end value="61200"/>
    </time>

    <processing>
        <time-to-teleport value="-1"/>
    </processing>

    <report>
        <no-warnings value="true"/>
        <no-step-log value="true"/>
    </report>

    <emissions>
        <device.emissions.probability value="1"/>
    </emissions>

    <traci_server>
        <remote-port value="59908"/>
    </traci_server>

    <random_number>
        <random value="true"/>
    </random_number>

</configuration>
-->

<tripinfos xmlns:xsi="http://www.w3.org/2001/XMLSchema-instance" xsi:noNamespaceSchemaLocation="http://sumo.dlr.de/xsd/tripinfo_file.xsd">
    <tripinfo id="h15454c2:3" depart="57612.00" departLane="24608844_1" departPos="5.10" departSpeed="0.00" departDelay="0.50" arrival="57658.00" arrivalLane="32978638#0_1" arrivalPos="49.29" arrivalSpeed="11.76" duration="46.00" routeLength="354.79" waitingTime="0.00" waitingCount="0" stopTime="0.00" timeLoss="6.22" rerouteNo="1" devices="tripinfo_h15454c2:3 routing_h15454c2:3 emissions_h15454c2:3" vType="default_016" speedFactor="0.86" vaporized="">
        <emissions CO_abs="2340.147289" CO2_abs="113399.690084" HC_abs="13.273424" PMx_abs="1.885770" NOx_abs="46.148917" fuel_abs="48.746309" electricity_abs="0"/>
    </tripinfo>
    <tripinfo id="carIn53971:1" depart="57640.00" departLane="272042143_1" departPos="5.10" departSpeed="0.00" departDelay="0.80" arrival="57706.00" arrivalLane="24634414#1_1" arrivalPos="162.19" arrivalSpeed="5.78" duration="66.00" routeLength="493.04" waitingTime="0.00" waitingCount="0" stopTime="0.00" timeLoss="9.12" rerouteNo="1" devices="tripinfo_carIn53971:1 routing_carIn53971:1 emissions_carIn53971:1" vType="default_016" speedFactor="0.80" vaporized="">
        <emissions CO_abs="2843.257115" CO2_abs="140134.745659" HC_abs="16.146576" PMx_abs="2.138166" NOx_abs="55.739437" fuel_abs="60.238972" electricity_abs="0"/>
    </tripinfo>
    <tripinfo id="carIn60260:1" depart="57606.00" departLane="315358254#0_1" departPos="5.10" departSpeed="0.00" departDelay="0.90" arrival="57708.00" arrivalLane="399835085#1_1" arrivalPos="212.23" arrivalSpeed="9.28" duration="102.00" routeLength="430.98" waitingTime="50.00" waitingCount="1" stopTime="0.00" timeLoss="61.42" rerouteNo="1" devices="tripinfo_carIn60260:1 routing_carIn60260:1 emissions_carIn60260:1" vType="default_016" speedFactor="1.14" vaporized="">
        <emissions CO_abs="9642.179400" CO2_abs="245294.984501" HC_abs="49.637010" PMx_abs="5.143348" NOx_abs="106.099331" fuel_abs="105.445546" electricity_abs="0"/>
    </tripinfo>
    <tripinfo id="h3568c1:3" depart="57656.00" departLane="266565295#5_1" departPos="5.10" departSpeed="0.00" departDelay="0.80" arrival="57728.00" arrivalLane="-24634415_1" arrivalPos="62.03" arrivalSpeed="14.23" duration="72.00" routeLength="807.40" waitingTime="0.00" waitingCount="0" stopTime="0.00" timeLoss="13.57" rerouteNo="1" devices="tripinfo_h3568c1:3 routing_h3568c1:3 emissions_h3568c1:3" vType="default_016" speedFactor="1.11" vaporized="">
        <emissions CO_abs="3346.947591" CO2_abs="226809.425040" HC_abs="20.455881" PMx_abs="4.013844" NOx_abs="92.177470" fuel_abs="97.495576" electricity_abs="0"/>
    </tripinfo>
    <tripinfo id="h7800c1:5" depart="57696.00" departLane="-447569998#1_1" departPos="5.10" departSpeed="0.00" departDelay="0.00" arrival="57735.00" arrivalLane="-447569998#1_2" arrivalPos="180.76" arrivalSpeed="4.46" duration="39.00" routeLength="175.66" waitingTime="11.00" waitingCount="1" stopTime="0.00" timeLoss="17.95" rerouteNo="1" devices="tripinfo_h7800c1:5 routing_h7800c1:5 emissions_h7800c1:5" vType="default_016" speedFactor="1.02" vaporized="">
        <emissions CO_abs="2294.186948" CO2_abs="68881.957625" HC_abs="12.039458" PMx_abs="1.303444" NOx_abs="29.111011" fuel_abs="29.610291" electricity_abs="0"/>
    </tripinfo>
    <tripinfo id="h12244c1:3" depart="57612.00" departLane="315358244_1" departPos="5.10" departSpeed="0.00" departDelay="0.40" arrival="57746.00" arrivalLane="386687235_1" arrivalPos="80.84" arrivalSpeed="14.45" duration="134.00" routeLength="1186.14" waitingTime="31.00" waitingCount="2" stopTime="0.00" timeLoss="51.38" rerouteNo="1" devices="tripinfo_h12244c1:3 routing_h12244c1:3 emissions_h12244c1:3" vType="default_016" speedFactor="1.05" vaporized="">
        <emissions CO_abs="6913.119508" CO2_abs="313420.004109" HC_abs="38.790060" PMx_abs="5.624601" NOx_abs="127.661439" fuel_abs="134.727615" electricity_abs="0"/>
    </tripinfo>
    <tripinfo id="h9563c2:5" depart="57631.00" departLane="315358244_1" departPos="5.10" departSpeed="0.00" departDelay="0.70" arrival="57748.00" arrivalLane="386687235_1" arrivalPos="80.84" arrivalSpeed="14.00" duration="117.00" routeLength="1186.14" waitingTime="13.00" waitingCount="1" stopTime="0.00" timeLoss="36.37" rerouteNo="1" devices="tripinfo_h9563c2:5 routing_h9563c2:5 emissions_h9563c2:5" vType="default_016" speedFactor="1.07" vaporized="">
        <emissions CO_abs="5307.779304" CO2_abs="304991.170103" HC_abs="31.309234" PMx_abs="5.373492" NOx_abs="123.557874" fuel_abs="131.103313" electricity_abs="0"/>
    </tripinfo>
    <tripinfo id="h3688c1:1" depart="57625.00" departLane="201201950#1_1" departPos="5.10" departSpeed="0.00" departDelay="0.00" arrival="57755.00" arrivalLane="32978638#0_1" arrivalPos="49.29" arrivalSpeed="13.91" duration="130.00" routeLength="1089.75" waitingTime="35.00" waitingCount="2" stopTime="0.00" timeLoss="52.85" rerouteNo="1" devices="tripinfo_h3688c1:1 routing_h3688c1:1 emissions_h3688c1:1" vType="default_016" speedFactor="1.04" vaporized="">
        <emissions CO_abs="8814.609024" CO2_abs="354339.340481" HC_abs="48.312748" PMx_abs="6.645804" NOx_abs="146.477799" fuel_abs="152.317682" electricity_abs="0"/>
    </tripinfo>
    <tripinfo id="h3326c1:2" depart="57656.00" departLane="22716069#0_1" departPos="5.10" departSpeed="0.00" departDelay="0.00" arrival="57758.00" arrivalLane="24634517#13_1" arrivalPos="111.62" arrivalSpeed="15.78" duration="102.00" routeLength="1312.81" waitingTime="0.00" waitingCount="0" stopTime="0.00" timeLoss="15.75" rerouteNo="1" devices="tripinfo_h3326c1:2 routing_h3326c1:2 emissions_h3326c1:2" vType="default_016" speedFactor="1.14" vaporized="">
        <emissions CO_abs="4046.114048" CO2_abs="318128.683221" HC_abs="25.883628" PMx_abs="5.578172" NOx_abs="128.064790" fuel_abs="136.749421" electricity_abs="0"/>
    </tripinfo>
    <tripinfo id="h5979c1:5" depart="57669.00" departLane="399835085#1_1" departPos="5.10" departSpeed="0.00" departDelay="0.00" arrival="57762.00" arrivalLane="-315358254#1_1" arrivalPos="137.16" arrivalSpeed="12.82" duration="93.00" routeLength="659.33" waitingTime="5.00" waitingCount="1" stopTime="0.00" timeLoss="18.53" rerouteNo="1" devices="tripinfo_h5979c1:5 routing_h5979c1:5 emissions_h5979c1:5" vType="default_016" speedFactor="0.98" vaporized="">
        <emissions CO_abs="4010.434731" CO2_abs="182796.392484" HC_abs="22.501343" PMx_abs="3.192467" NOx_abs="75.493528" fuel_abs="78.577329" electricity_abs="0"/>
    </tripinfo>
    <tripinfo id="h3154c1:1" depart="57658.00" departLane="24634507_1" departPos="5.10" departSpeed="0.00" departDelay="0.00" arrival="57768.00" arrivalLane="-266565295#5_1" arrivalPos="172.76" arrivalSpeed="15.20" duration="110.00" routeLength="1206.22" waitingTime="8.00" waitingCount="2" stopTime="0.00" timeLoss="28.59" rerouteNo="1" devices="tripinfo_h3154c1:1 routing_h3154c1:1 emissions_h3154c1:1" vType="default_016" speedFactor="1.10" vaporized="">
        <emissions CO_abs="4906.594981" CO2_abs="336647.817214" HC_abs="30.194100" PMx_abs="6.000055" NOx_abs="136.926001" fuel_abs="144.710276" electricity_abs="0"/>
    </tripinfo>
    <tripinfo id="h7181c1:1" depart="57660.00" departLane="315358254#0_1" departPos="5.10" departSpeed="0.00" departDelay="0.10" arrival="57784.00" arrivalLane="306240162#0_0" arrivalPos="220.43" arrivalSpeed="12.39" duration="124.00" routeLength="932.35" waitingTime="47.00" waitingCount="1" stopTime="0.00" timeLoss="60.38" rerouteNo="1" devices="tripinfo_h7181c1:1 routing_h7181c1:1 emissions_h7181c1:1" vType="default_016" speedFactor="0.81" vaporized="">
        <emissions CO_abs="9739.342566" CO2_abs="330326.252669" HC_abs="51.925169" PMx_abs="6.452138" NOx_abs="137.668383" fuel_abs="141.996279" electricity_abs="0"/>
    </tripinfo>
    <tripinfo id="carIn77943:1" depart="57607.00" departLane="124812856#0_1" departPos="5.10" departSpeed="0.00" departDelay="1.50" arrival="57790.00" arrivalLane="-128361102#1_1" arrivalPos="274.68" arrivalSpeed="16.15" duration="183.00" routeLength="2232.46" waitingTime="15.00" waitingCount="2" stopTime="0.00" timeLoss="52.65" rerouteNo="1" devices="tripinfo_carIn77943:1 routing_carIn77943:1 emissions_carIn77943:1" vType="default_016" speedFactor="1.25" vaporized="">
        <emissions CO_abs="8412.967530" CO2_abs="588192.220851" HC_abs="52.016895" PMx_abs="10.854149" NOx_abs="239.921452" fuel_abs="252.837744" electricity_abs="0"/>
    </tripinfo>
    <tripinfo id="carIn28951:1" depart="57606.00" departLane="10425609#0_1" departPos="5.10" departSpeed="0.00" departDelay="0.20" arrival="57800.00" arrivalLane="-128361102#1_1" arrivalPos="274.68" arrivalSpeed="13.80" duration="194.00" routeLength="2113.04" waitingTime="18.00" waitingCount="1" stopTime="0.00" timeLoss="43.47" rerouteNo="1" devices="tripinfo_carIn28951:1 routing_carIn28951:1 emissions_carIn28951:1" vType="default_016" speedFactor="1.03" vaporized="">
        <emissions CO_abs="8048.234663" CO2_abs="498544.140202" HC_abs="48.271378" PMx_abs="8.545417" NOx_abs="200.294440" fuel_abs="214.303708" electricity_abs="0"/>
    </tripinfo>
    <tripinfo id="h4538c1:1" depart="57701.00" departLane="-10427692#1_1" departPos="5.10" departSpeed="0.00" departDelay="0.00" arrival="57803.00" arrivalLane="-128361102#1_1" arrivalPos="274.68" arrivalSpeed="15.28" duration="102.00" routeLength="440.74" waitingTime="62.00" waitingCount="1" stopTime="0.00" timeLoss="73.24" rerouteNo="1" devices="tripinfo_h4538c1:1 routing_h4538c1:1 emissions_h4538c1:1" vType="default_016" speedFactor="1.12" vaporized="">
        <emissions CO_abs="11345.726787" CO2_abs="278506.615193" HC_abs="58.189696" PMx_abs="6.033102" NOx_abs="120.754736" fuel_abs="119.722451" electricity_abs="0"/>
    </tripinfo>
    <tripinfo id="h317c2:1" depart="57707.00" departLane="-32978638#0_1" departPos="5.10" departSpeed="0.00" departDelay="0.10" arrival="57805.00" arrivalLane="-266565295#5_1" arrivalPos="172.76" arrivalSpeed="12.44" duration="98.00" routeLength="370.53" waitingTime="60.00" waitingCount="1" stopTime="0.00" timeLoss="70.25" rerouteNo="1" devices="tripinfo_h317c2:1 routing_h317c2:1 emissions_h317c2:1" vType="default_016" speedFactor="0.98" vaporized="">
        <emissions CO_abs="10304.136925" CO2_abs="246746.999337" HC_abs="52.716952" PMx_abs="5.383845" NOx_abs="107.771087" fuel_abs="106.069957" electricity_abs="0"/>
    </tripinfo>
    <tripinfo id="carIn107282:1" depart="57749.00" departLane="-447569998#1_1" departPos="5.10" departSpeed="0.00" departDelay="0.00" arrival="57806.00" arrivalLane="315358242#0_1" arrivalPos="165.37" arrivalSpeed="13.42" duration="57.00" routeLength="448.50" waitingTime="7.00" waitingCount="1" stopTime="0.00" timeLoss="14.11" rerouteNo="1" devices="tripinfo_carIn107282:1 routing_carIn107282:1 emissions_carIn107282:1" vType="default_016" speedFactor="0.97" vaporized="">
        <emissions CO_abs="2787.721491" CO2_abs="131458.062896" HC_abs="15.748145" PMx_abs="2.282597" NOx_abs="53.888200" fuel_abs="56.508873" electricity_abs="0"/>
    </tripinfo>
    <tripinfo id="S5R_frequency1.2" depart="57646.00" departLane="315358250#0_1" departPos="12.10" departSpeed="0.00" departDelay="34.40" arrival="57807.00" arrivalLane="386687235_1" arrivalPos="80.84" arrivalSpeed="13.57" duration="161.00" routeLength="1115.62" waitingTime="49.00" waitingCount="3" stopTime="0.00" timeLoss="79.13" rerouteNo="1" devices="tripinfo_S5R_frequency1.2 routing_S5R_frequency1.2 emissions_S5R_frequency1.2" vType="bus" speedFactor="1.00" vaporized="">
        <emissions CO_abs="3180.785365" CO2_abs="1642076.768039" HC_abs="697.846961" PMx_abs="333.449441" NOx_abs="13684.863365" fuel_abs="700.216505" electricity_abs="0"/>
    </tripinfo>
    <tripinfo id="h330c1:1" depart="57736.00" departLane="-32978638#0_1" departPos="5.10" departSpeed="0.00" departDelay="0.20" arrival="57807.00" arrivalLane="-266565295#5_1" arrivalPos="172.76" arrivalSpeed="13.89" duration="71.00" routeLength="370.53" waitingTime="35.00" waitingCount="1" stopTime="0.00" timeLoss="44.15" rerouteNo="1" devices="tripinfo_h330c1:1 routing_h330c1:1 emissions_h330c1:1" vType="default_016" speedFactor="1.04" vaporized="">
        <emissions CO_abs="6973.583201" CO2_abs="197197.855160" HC_abs="36.403508" PMx_abs="4.185758" NOx_abs="85.353188" fuel_abs="84.769203" electricity_abs="0"/>
    </tripinfo>
    <tripinfo id="h11737c1:1" depart="57665.00" departLane="272042143_1" departPos="5.10" departSpeed="0.00" departDelay="1.50" arrival="57810.00" arrivalLane="-315358254#1_1" arrivalPos="137.16" arrivalSpeed="12.59" duration="145.00" routeLength="1596.88" waitingTime="10.00" waitingCount="1" stopTime="0.00" timeLoss="28.36" rerouteNo="1" devices="tripinfo_h11737c1:1 routing_h11737c1:1 emissions_h11737c1:1" vType="default_016" speedFactor="1.00" vaporized="">
        <emissions CO_abs="4873.443088" CO2_abs="360704.838183" HC_abs="30.538537" PMx_abs="5.843340" NOx_abs="142.506876" fuel_abs="155.051960" electricity_abs="0"/>
    </tripinfo>
    <tripinfo id="carIn126288:1" depart="57674.00" departLane="272042143_1" departPos="5.10" departSpeed="0.00" departDelay="0.00" arrival="57813.00" arrivalLane="-315358254#1_1" arrivalPos="137.16" arrivalSpeed="12.39" duration="139.00" routeLength="1596.88" waitingTime="1.00" waitingCount="1" stopTime="0.00" timeLoss="19.93" rerouteNo="1" devices="tripinfo_carIn126288:1 routing_carIn126288:1 emissions_carIn126288:1" vType="default_016" speedFactor="0.97" vaporized="">
        <emissions CO_abs="4138.971858" CO2_abs="326005.224656" HC_abs="26.452325" PMx_abs="5.273318" NOx_abs="128.974400" fuel_abs="140.135816" electricity_abs="0"/>
    </tripinfo>
    <tripinfo id="carIn129809:1" depart="57729.00" departLane="-447569998#1_1" departPos="5.10" departSpeed="0.00" departDelay="1.00" arrival="57813.00" arrivalLane="-315358244_1" arrivalPos="33.95" arrivalSpeed="14.48" duration="84.00" routeLength="706.49" waitingTime="13.00" waitingCount="1" stopTime="0.00" timeLoss="26.69" rerouteNo="1" devices="tripinfo_carIn129809:1 routing_carIn129809:1 emissions_carIn129809:1" vType="default_015" speedFactor="1.06" vaporized="">
        <emissions CO_abs="4492.185379" CO2_abs="213674.187724" HC_abs="25.425865" PMx_abs="3.820973" NOx_abs="87.602016" fuel_abs="91.850356" electricity_abs="0"/>
    </tripinfo>
    <tripinfo id="carIn27009:1" depart="57673.00" departLane="-447569998#1_1" departPos="5.10" departSpeed="0.00" departDelay="0.50" arrival="57814.00" arrivalLane="-26677539_1" arrivalPos="152.75" arrivalSpeed="6.45" duration="141.00" routeLength="699.63" waitingTime="29.00" waitingCount="1" stopTime="0.00" timeLoss="44.27" rerouteNo="1" devices="tripinfo_carIn27009:1 routing_carIn27009:1 emissions_carIn27009:1" vType="default_015" speedFactor="0.87" vaporized="">
        <emissions CO_abs="8570.066575" CO2_abs="251927.624717" HC_abs="44.814106" PMx_abs="4.624970" NOx_abs="105.718285" fuel_abs="108.296496" electricity_abs="0"/>
    </tripinfo>
    <tripinfo id="carIn121703:1" depart="57647.00" departLane="386687232#0_1" departPos="5.10" departSpeed="0.00" departDelay="0.30" arrival="57819.00" arrivalLane="-315358244_1" arrivalPos="33.95" arrivalSpeed="12.89" duration="172.00" routeLength="1157.39" waitingTime="66.00" waitingCount="2" stopTime="0.00" timeLoss="81.70" rerouteNo="1" devices="tripinfo_carIn121703:1 routing_carIn121703:1 emissions_carIn121703:1" vType="default_016" speedFactor="0.94" vaporized="">
        <emissions CO_abs="12820.671214" CO2_abs="400591.112546" HC_abs="67.735147" PMx_abs="7.783110" NOx_abs="168.121331" fuel_abs="172.201628" electricity_abs="0"/>
    </tripinfo>
    <tripinfo id="randUni15030:1" depart="57735.00" departLane="386687232#0_1" departPos="5.10" departSpeed="0.00" departDelay="0.10" arrival="57822.00" arrivalLane="26677539_1" arrivalPos="151.98" arrivalSpeed="8.46" duration="87.00" routeLength="919.89" waitingTime="0.00" waitingCount="0" stopTime="0.00" timeLoss="10.88" rerouteNo="1" devices="tripinfo_randUni15030:1 routing_randUni15030:1 emissions_randUni15030:1" vType="random_016" speedFactor="1.10" vaporized="">
        <emissions CO_abs="3080.444084" CO2_abs="203835.502225" HC_abs="18.808429" PMx_abs="3.534135" NOx_abs="82.693911" fuel_abs="87.620241" electricity_abs="0"/>
    </tripinfo>
    <tripinfo id="carIn50326:1" depart="57651.00" departLane="128361102#0_1" departPos="5.10" departSpeed="0.00" departDelay="0.30" arrival="57844.00" arrivalLane="18809673#0_1" arrivalPos="473.56" arrivalSpeed="12.02" duration="193.00" routeLength="1591.07" waitingTime="32.00" waitingCount="2" stopTime="0.00" timeLoss="56.48" rerouteNo="1" devices="tripinfo_carIn50326:1 routing_carIn50326:1 emissions_carIn50326:1" vType="default_016" speedFactor="0.95" vaporized="">
        <emissions CO_abs="9702.045881" CO2_abs="422475.747592" HC_abs="54.002261" PMx_abs="7.394042" NOx_abs="172.249902" fuel_abs="181.607105" electricity_abs="0"/>
    </tripinfo>
    <tripinfo id="carIn22761:1" depart="57616.00" departLane="-306240162#1_0" departPos="5.10" departSpeed="0.00" departDelay="2.10" arrival="57845.00" arrivalLane="399835085#1_1" arrivalPos="212.23" arrivalSpeed="8.09" duration="229.00" routeLength="1093.26" waitingTime="116.00" waitingCount="3" stopTime="0.00" timeLoss="149.39" rerouteNo="1" devices="tripinfo_carIn22761:1 routing_carIn22761:1 emissions_carIn22761:1" vType="default_016" speedFactor="0.99" vaporized="">
        <emissions CO_abs="22387.696753" CO2_abs="610408.622836" HC_abs="116.312107" PMx_abs="13.238605" NOx_abs="264.827592" fuel_abs="262.395980" electricity_abs="0"/>
    </tripinfo>
    <tripinfo id="h5938c1:1" depart="57740.00" departLane="-26677542#0_1" departPos="5.10" departSpeed="0.00" departDelay="0.00" arrival="57845.00" arrivalLane="447569997#1_1" arrivalPos="180.93" arrivalSpeed="7.84" duration="105.00" routeLength="1093.64" waitingTime="0.00" waitingCount="0" stopTime="0.00" timeLoss="10.58" rerouteNo="1" devices="tripinfo_h5938c1:1 routing_h5938c1:1 emissions_h5938c1:1" vType="default_016" speedFactor="1.03" vaporized="">
        <emissions CO_abs="3445.372974" CO2_abs="237016.936326" HC_abs="21.193971" PMx_abs="3.775115" NOx_abs="93.901682" fuel_abs="101.883937" electricity_abs="0"/>
    </tripinfo>
    <tripinfo id="carIn80064:1" depart="57603.00" departLane="128361109#1_1" departPos="5.10" departSpeed="0.00" departDelay="0.40" arrival="57846.00" arrivalLane="-315358254#1_1" arrivalPos="137.16" arrivalSpeed="14.95" duration="243.00" routeLength="1587.97" waitingTime="122.00" waitingCount="3" stopTime="0.00" timeLoss="163.47" rerouteNo="1" devices="tripinfo_carIn80064:1 routing_carIn80064:1 emissions_carIn80064:1" vType="default_016" speedFactor="1.12" vaporized="">
        <emissions CO_abs="26951.559110" CO2_abs="817401.971677" HC_abs="142.148830" PMx_abs="17.904779" NOx_abs="352.913141" fuel_abs="351.373524" electricity_abs="0"/>
    </tripinfo>
    <tripinfo id="carIn73855:1" depart="57743.00" departLane="386687232#0_1" departPos="5.10" departSpeed="0.00" departDelay="0.50" arrival="57846.00" arrivalLane="-315358244_1" arrivalPos="33.95" arrivalSpeed="13.70" duration="103.00" routeLength="1157.39" waitingTime="7.00" waitingCount="1" stopTime="0.00" timeLoss="20.26" rerouteNo="1" devices="tripinfo_carIn73855:1 routing_carIn73855:1 emissions_carIn73855:1" vType="default_016" speedFactor="1.02" vaporized="">
        <emissions CO_abs="3846.701274" CO2_abs="261803.748471" HC_abs="23.628606" PMx_abs="4.493952" NOx_abs="105.207724" fuel_abs="112.538375" electricity_abs="0"/>
    </tripinfo>
    <tripinfo id="carIn126378:1" depart="57746.00" departLane="386687232#0_1" departPos="5.10" departSpeed="0.00" departDelay="1.80" arrival="57847.00" arrivalLane="-315358244_2" arrivalPos="33.95" arrivalSpeed="13.48" duration="101.00" routeLength="1157.39" waitingTime="0.00" waitingCount="0" stopTime="0.00" timeLoss="14.06" rerouteNo="1" devices="tripinfo_carIn126378:1 routing_carIn126378:1 emissions_carIn126378:1" vType="default_016" speedFactor="0.97" vaporized="">
        <emissions CO_abs="3481.751817" CO2_abs="259077.614748" HC_abs="21.893738" PMx_abs="4.285916" NOx_abs="103.259630" fuel_abs="111.366477" electricity_abs="0"/>
    </tripinfo>
    <tripinfo id="carIn12858:1" depart="57661.00" departLane="128361109#1_1" departPos="5.10" departSpeed="0.00" departDelay="0.90" arrival="57851.00" arrivalLane="399835085#1_1" arrivalPos="212.23" arrivalSpeed="6.35" duration="190.00" routeLength="1738.12" waitingTime="30.00" waitingCount="3" stopTime="0.00" timeLoss="62.01" rerouteNo="1" devices="tripinfo_carIn12858:1 routing_carIn12858:1 emissions_carIn12858:1" vType="default_016" speedFactor="0.90" vaporized="">
        <emissions CO_abs="11467.962193" CO2_abs="544253.455833" HC_abs="64.969658" PMx_abs="10.449177" NOx_abs="226.226501" fuel_abs="233.952806" electricity_abs="0"/>
    </tripinfo>
    <tripinfo id="h825c2:3" depart="57690.00" departLane="315358254#0_1" departPos="5.10" departSpeed="0.00" departDelay="0.50" arrival="57852.00" arrivalLane="32978638#0_1" arrivalPos="49.29" arrivalSpeed="18.22" duration="162.00" routeLength="2207.01" waitingTime="13.00" waitingCount="1" stopTime="0.00" timeLoss="40.16" rerouteNo="1" devices="tripinfo_h825c2:3 routing_h825c2:3 emissions_h825c2:3" vType="default_016" speedFactor="1.33" vaporized="">
        <emissions CO_abs="8004.834375" CO2_abs="555866.296453" HC_abs="49.468676" PMx_abs="10.327422" NOx_abs="224.395714" fuel_abs="238.942496" electricity_abs="0"/>
    </tripinfo>
    <tripinfo id="carIn81860:1" depart="57712.00" departLane="128361102#0_1" departPos="5.10" departSpeed="0.00" departDelay="0.60" arrival="57852.00" arrivalLane="-24634517#17_1" arrivalPos="6.43" arrivalSpeed="6.04" duration="140.00" routeLength="1229.64" waitingTime="8.00" waitingCount="1" stopTime="0.00" timeLoss="26.48" rerouteNo="1" devices="tripinfo_carIn81860:1 routing_carIn81860:1 emissions_carIn81860:1" vType="default_016" speedFactor="0.79" vaporized="">
        <emissions CO_abs="5003.052588" CO2_abs="280643.895236" HC_abs="29.263789" PMx_abs="4.505988" NOx_abs="112.420717" fuel_abs="120.638022" electricity_abs="0"/>
    </tripinfo>
    <tripinfo id="randUni31145:1" depart="57814.00" departLane="10425609#0_1" departPos="5.10" departSpeed="0.00" departDelay="0.30" arrival="57854.00" arrivalLane="201956810_1" arrivalPos="71.65" arrivalSpeed="13.41" duration="40.00" routeLength="255.78" waitingTime="9.00" waitingCount="1" stopTime="0.00" timeLoss="19.75" rerouteNo="1" devices="tripinfo_randUni31145:1 routing_randUni31145:1 emissions_randUni31145:1" vType="random_016" speedFactor="1.00" vaporized="">
        <emissions CO_abs="2968.605014" CO2_abs="127286.501313" HC_abs="16.510007" PMx_abs="2.474212" NOx_abs="53.797421" fuel_abs="54.715510" electricity_abs="0"/>
    </tripinfo>
    <tripinfo id="h4388c1:3" depart="57693.00" departLane="315358254#0_1" departPos="5.10" departSpeed="0.00" departDelay="1.80" arrival="57858.00" arrivalLane="32978638#0_1" arrivalPos="49.29" arrivalSpeed="15.90" duration="165.00" routeLength="2207.01" waitingTime="12.00" waitingCount="1" stopTime="0.00" timeLoss="32.04" rerouteNo="1" devices="tripinfo_h4388c1:3 routing_h4388c1:3 emissions_h4388c1:3" vType="default_016" speedFactor="1.22" vaporized="">
        <emissions CO_abs="6415.735378" CO2_abs="480683.756186" HC_abs="40.227124" PMx_abs="8.455206" NOx_abs="191.274833" fuel_abs="206.625056" electricity_abs="0"/>
    </tripinfo>
    <tripinfo id="carIn86816:1" depart="57617.00" departLane="128361102#0_1" departPos="5.10" departSpeed="0.00" departDelay="0.80" arrival="57861.00" arrivalLane="201956811#0_1" arrivalPos="40.40" arrivalSpeed="13.97" duration="244.00" routeLength="2067.33" waitingTime="63.00" waitingCount="3" stopTime="0.00" timeLoss="98.62" rerouteNo="1" devices="tripinfo_carIn86816:1 routing_carIn86816:1 emissions_carIn86816:1" vType="default_016" speedFactor="1.04" vaporized="">
        <emissions CO_abs="15330.617963" CO2_abs="639473.785818" HC_abs="84.799452" PMx_abs="12.002897" NOx_abs="264.603765" fuel_abs="274.886193" electricity_abs="0"/>
    </tripinfo>
    <tripinfo id="randUni2407:1" depart="57820.00" departLane="10425609#0_1" departPos="5.10" departSpeed="0.00" departDelay="0.80" arrival="57861.00" arrivalLane="201956810_1" arrivalPos="71.65" arrivalSpeed="10.70" duration="41.00" routeLength="255.78" waitingTime="5.00" waitingCount="1" stopTime="0.00" timeLoss="15.62" rerouteNo="1" devices="tripinfo_randUni2407:1 routing_randUni2407:1 emissions_randUni2407:1" vType="random_016" speedFactor="0.79" vaporized="">
        <emissions CO_abs="2047.608802" CO2_abs="96458.967060" HC_abs="11.576045" PMx_abs="1.748376" NOx_abs="40.211609" fuel_abs="41.463948" electricity_abs="0"/>
    </tripinfo>
    <tripinfo id="h16072c2:3" depart="57663.00" departLane="315358254#0_1" departPos="5.10" departSpeed="0.00" departDelay="2.50" arrival="57864.00" arrivalLane="386687235_1" arrivalPos="80.84" arrivalSpeed="12.45" duration="201.00" routeLength="1611.92" waitingTime="48.00" waitingCount="4" stopTime="0.00" timeLoss="73.78" rerouteNo="1" devices="tripinfo_h16072c2:3 routing_h16072c2:3 emissions_h16072c2:3" vType="default_016" speedFactor="0.92" vaporized="">
        <emissions CO_abs="10430.253889" CO2_abs="454656.896926" HC_abs="58.100004" PMx_abs="8.098438" NOx_abs="185.888447" fuel_abs="195.440438" electricity_abs="0"/>
    </tripinfo>
    <tripinfo id="carIn75660:1" depart="57679.00" departLane="128361109#1_1" departPos="5.10" departSpeed="0.00" departDelay="3.40" arrival="57864.00" arrivalLane="386687235_2" arrivalPos="80.84" arrivalSpeed="15.14" duration="185.00" routeLength="2088.57" waitingTime="30.00" waitingCount="1" stopTime="0.00" timeLoss="48.20" rerouteNo="1" devices="tripinfo_carIn75660:1 routing_carIn75660:1 emissions_carIn75660:1" vType="default_016" speedFactor="1.11" vaporized="">
        <emissions CO_abs="8869.545666" CO2_abs="500706.230490" HC_abs="51.891044" PMx_abs="8.850320" NOx_abs="201.243140" fuel_abs="215.233495" electricity_abs="0"/>
    </tripinfo>
    <tripinfo id="carIn29531:1" depart="57667.00" departLane="128361102#0_1" departPos="5.10" departSpeed="0.00" departDelay="1.60" arrival="57865.00" arrivalLane="201956811#0_1" arrivalPos="40.40" arrivalSpeed="12.24" duration="198.00" routeLength="2067.33" waitingTime="7.00" waitingCount="2" stopTime="0.00" timeLoss="42.57" rerouteNo="1" devices="tripinfo_carIn29531:1 routing_carIn29531:1 emissions_carIn29531:1" vType="default_016" speedFactor="0.97" vaporized="">
        <emissions CO_abs="7026.991913" CO2_abs="491308.292513" HC_abs="43.452516" PMx_abs="8.072330" NOx_abs="195.697124" fuel_abs="211.193023" electricity_abs="0"/>
    </tripinfo>
    <tripinfo id="carIn107084:1" depart="57601.00" departLane="124812856#0_1" departPos="5.10" departSpeed="0.00" departDelay="0.70" arrival="57866.00" arrivalLane="-128361102#1_1" arrivalPos="274.68" arrivalSpeed="13.49" duration="265.00" routeLength="2250.49" waitingTime="71.00" waitingCount="2" stopTime="0.00" timeLoss="105.95" rerouteNo="1" devices="tripinfo_carIn107084:1 routing_carIn107084:1 emissions_carIn107084:1" vType="default_016" speedFactor="1.03" vaporized="">
        <emissions CO_abs="17131.230363" CO2_abs="708150.634575" HC_abs="94.580603" PMx_abs="13.318962" NOx_abs="293.208612" fuel_abs="304.407920" electricity_abs="0"/>
    </tripinfo>
    <tripinfo id="carIn85747:1" depart="57673.00" departLane="128361109#1_1" departPos="5.10" departSpeed="0.00" departDelay="0.70" arrival="57866.00" arrivalLane="386687235_1" arrivalPos="80.84" arrivalSpeed="12.82" duration="193.00" routeLength="2088.57" waitingTime="17.00" waitingCount="1" stopTime="0.00" timeLoss="35.93" rerouteNo="1" devices="tripinfo_carIn85747:1 routing_carIn85747:1 emissions_carIn85747:1" vType="default_016" speedFactor="0.96" vaporized="">
        <emissions CO_abs="6351.561723" CO2_abs="412105.966840" HC_abs="38.487760" PMx_abs="6.574017" NOx_abs="162.212541" fuel_abs="177.147995" electricity_abs="0"/>
    </tripinfo>
    <tripinfo id="carIn77438:1" depart="57613.00" departLane="124812856#0_1" departPos="5.10" departSpeed="0.00" departDelay="0.10" arrival="57867.00" arrivalLane="-128361102#1_1" arrivalPos="274.68" arrivalSpeed="15.38" duration="254.00" routeLength="2250.49" waitingTime="61.00" waitingCount="3" stopTime="0.00" timeLoss="105.79" rerouteNo="1" devices="tripinfo_carIn77438:1 routing_carIn77438:1 emissions_carIn77438:1" vType="default_016" speedFactor="1.11" vaporized="">
        <emissions CO_abs="16085.111675" CO2_abs="687670.212321" HC_abs="89.221051" PMx_abs="13.138485" NOx_abs="285.670526" fuel_abs="295.603362" electricity_abs="0"/>