<?xml version="1.0" encoding="UTF-8"?>

<!-- generated on 2021-10-26 14:33:15 by Eclipse SUMO sumo Version 1.10.0
<configuration xmlns:xsi="http://www.w3.org/2001/XMLSchema-instance" xsi:noNamespaceSchemaLocation="http://sumo.dlr.de/xsd/sumoConfiguration.xsd">

    <input>
        <net-file value="/Users/behradkoohy/sumo-scratchpad/RESCO/environments/ingolstadt21/ingolstadt21.net.xml"/>
        <route-files value="/Users/behradkoohy/sumo-scratchpad/RESCO/environments/ingolstadt21/ingolstadt21.rou.xml"/>
    </input>

    <output>
        <tripinfo-output value="/Users/behradkoohy/sumo-scratchpad/RESCO/logs/STOCHASTIC-tr0-ingolstadt21-21-mplight-wait/tripinfo_65.xml"/>
        <tripinfo-output.write-unfinished value="true"/>
    </output>

    <time>
        <begin value="57600"/>
        <end value="61200"/>
    </time>

    <processing>
        <time-to-teleport value="-1"/>
    </processing>

    <report>
        <no-warnings value="true"/>
        <no-step-log value="true"/>
    </report>

    <emissions>
        <device.emissions.probability value="1"/>
    </emissions>

    <traci_server>
        <remote-port value="60377"/>
    </traci_server>

    <random_number>
        <random value="true"/>
    </random_number>

</configuration>
-->

<tripinfos xmlns:xsi="http://www.w3.org/2001/XMLSchema-instance" xsi:noNamespaceSchemaLocation="http://sumo.dlr.de/xsd/tripinfo_file.xsd">
    <tripinfo id="h15454c2:3" depart="57612.00" departLane="24608844_1" departPos="5.10" departSpeed="0.00" departDelay="0.50" arrival="57654.00" arrivalLane="32978638#0_1" arrivalPos="49.29" arrivalSpeed="12.10" duration="42.00" routeLength="354.79" waitingTime="0.00" waitingCount="0" stopTime="0.00" timeLoss="4.89" rerouteNo="1" devices="tripinfo_h15454c2:3 routing_h15454c2:3 emissions_h15454c2:3" vType="default_016" speedFactor="0.93" vaporized="">
        <emissions CO_abs="1611.518025" CO2_abs="89933.643937" HC_abs="9.402270" PMx_abs="1.386836" NOx_abs="35.680710" fuel_abs="38.659108" electricity_abs="0"/>
    </tripinfo>
    <tripinfo id="carIn60260:1" depart="57606.00" departLane="315358254#0_1" departPos="5.10" departSpeed="0.00" departDelay="0.90" arrival="57666.00" arrivalLane="399835085#1_1" arrivalPos="212.23" arrivalSpeed="7.06" duration="60.00" routeLength="430.98" waitingTime="0.00" waitingCount="0" stopTime="0.00" timeLoss="7.64" rerouteNo="1" devices="tripinfo_carIn60260:1 routing_carIn60260:1 emissions_carIn60260:1" vType="default_016" speedFactor="0.89" vaporized="">
        <emissions CO_abs="2395.479615" CO2_abs="107204.264128" HC_abs="13.365391" PMx_abs="1.735497" NOx_abs="43.472074" fuel_abs="46.083339" electricity_abs="0"/>
    </tripinfo>
    <tripinfo id="carIn53971:1" depart="57640.00" departLane="272042143_1" departPos="5.10" departSpeed="0.00" departDelay="0.80" arrival="57699.00" arrivalLane="24634414#1_1" arrivalPos="162.19" arrivalSpeed="7.34" duration="59.00" routeLength="493.04" waitingTime="0.00" waitingCount="0" stopTime="0.00" timeLoss="8.63" rerouteNo="1" devices="tripinfo_carIn53971:1 routing_carIn53971:1 emissions_carIn53971:1" vType="default_016" speedFactor="0.90" vaporized="">
        <emissions CO_abs="2538.149529" CO2_abs="131668.762107" HC_abs="14.614026" PMx_abs="2.243116" NOx_abs="53.830727" fuel_abs="56.599279" electricity_abs="0"/>
    </tripinfo>
    <tripinfo id="h7800c1:5" depart="57696.00" departLane="-447569998#1_1" departPos="5.10" departSpeed="0.00" departDelay="0.00" arrival="57718.00" arrivalLane="-447569998#1_1" arrivalPos="180.76" arrivalSpeed="8.70" duration="22.00" routeLength="175.66" waitingTime="0.00" waitingCount="0" stopTime="0.00" timeLoss="3.13" rerouteNo="1" devices="tripinfo_h7800c1:5 routing_h7800c1:5 emissions_h7800c1:5" vType="default_016" speedFactor="1.16" vaporized="">
        <emissions CO_abs="927.641869" CO2_abs="43648.348284" HC_abs="5.235725" PMx_abs="0.753164" NOx_abs="17.956636" fuel_abs="18.762781" electricity_abs="0"/>
    </tripinfo>
    <tripinfo id="h317c2:1" depart="57707.00" departLane="-32978638#0_1" departPos="5.10" departSpeed="0.00" departDelay="0.10" arrival="57742.00" arrivalLane="-266565295#5_1" arrivalPos="172.76" arrivalSpeed="11.83" duration="35.00" routeLength="370.53" waitingTime="0.00" waitingCount="0" stopTime="0.00" timeLoss="5.88" rerouteNo="1" devices="tripinfo_h317c2:1 routing_h317c2:1 emissions_h317c2:1" vType="default_016" speedFactor="0.93" vaporized="">
        <emissions CO_abs="1652.878582" CO2_abs="102930.526287" HC_abs="9.943056" PMx_abs="1.814632" NOx_abs="42.124405" fuel_abs="44.245489" electricity_abs="0"/>
    </tripinfo>
    <tripinfo id="h4538c1:1" depart="57701.00" departLane="-10427692#1_1" departPos="5.10" departSpeed="0.00" departDelay="0.00" arrival="57747.00" arrivalLane="-128361102#1_1" arrivalPos="274.68" arrivalSpeed="13.22" duration="46.00" routeLength="440.74" waitingTime="2.00" waitingCount="1" stopTime="0.00" timeLoss="13.44" rerouteNo="1" devices="tripinfo_h4538c1:1 routing_h4538c1:1 emissions_h4538c1:1" vType="default_016" speedFactor="0.98" vaporized="">
        <emissions CO_abs="2013.069881" CO2_abs="129890.787968" HC_abs="12.191396" PMx_abs="2.153417" NOx_abs="51.945991" fuel_abs="55.834748" electricity_abs="0"/>
    </tripinfo>
    <tripinfo id="h3688c1:1" depart="57625.00" departLane="201201950#1_1" departPos="5.10" departSpeed="0.00" departDelay="0.00" arrival="57760.00" arrivalLane="32978638#0_1" arrivalPos="49.29" arrivalSpeed="9.28" duration="135.00" routeLength="1089.75" waitingTime="9.00" waitingCount="1" stopTime="0.00" timeLoss="25.30" rerouteNo="1" devices="tripinfo_h3688c1:1 routing_h3688c1:1 emissions_h3688c1:1" vType="default_016" speedFactor="0.73" vaporized="">
        <emissions CO_abs="4835.419684" CO2_abs="252743.289062" HC_abs="27.820240" PMx_abs="3.951624" NOx_abs="100.898364" fuel_abs="108.645034" electricity_abs="0"/>
    </tripinfo>
    <tripinfo id="h330c1:1" depart="57736.00" departLane="-32978638#0_1" departPos="5.10" departSpeed="0.00" departDelay="0.20" arrival="57770.00" arrivalLane="-266565295#5_1" arrivalPos="172.76" arrivalSpeed="13.42" duration="34.00" routeLength="370.53" waitingTime="0.00" waitingCount="0" stopTime="0.00" timeLoss="6.28" rerouteNo="1" devices="tripinfo_h330c1:1 routing_h330c1:1 emissions_h330c1:1" vType="default_016" speedFactor="1.01" vaporized="">
        <emissions CO_abs="1704.137135" CO2_abs="114941.722206" HC_abs="10.456761" PMx_abs="1.974448" NOx_abs="46.440953" fuel_abs="49.408581" electricity_abs="0"/>
    </tripinfo>
    <tripinfo id="carIn27009:1" depart="57673.00" departLane="-447569998#1_1" departPos="5.10" departSpeed="0.00" departDelay="0.50" arrival="57772.00" arrivalLane="-26677539_1" arrivalPos="152.75" arrivalSpeed="7.43" duration="99.00" routeLength="699.63" waitingTime="2.00" waitingCount="1" stopTime="0.00" timeLoss="15.80" rerouteNo="1" devices="tripinfo_carIn27009:1 routing_carIn27009:1 emissions_carIn27009:1" vType="default_015" speedFactor="1.01" vaporized="">
        <emissions CO_abs="3994.039477" CO2_abs="187458.763530" HC_abs="22.501417" PMx_abs="3.093160" NOx_abs="76.394978" fuel_abs="80.581668" electricity_abs="0"/>
    </tripinfo>
    <tripinfo id="carIn30817:1" depart="57681.00" departLane="315358244_1" departPos="5.10" departSpeed="0.00" departDelay="0.20" arrival="57772.00" arrivalLane="447569997#1_1" arrivalPos="180.93" arrivalSpeed="6.91" duration="91.00" routeLength="718.04" waitingTime="9.00" waitingCount="2" stopTime="0.00" timeLoss="26.78" rerouteNo="1" devices="tripinfo_carIn30817:1 routing_carIn30817:1 emissions_carIn30817:1" vType="default_016" speedFactor="0.96" vaporized="">
        <emissions CO_abs="4425.212232" CO2_abs="210307.222609" HC_abs="25.055865" PMx_abs="3.744445" NOx_abs="86.776871" fuel_abs="90.402991" electricity_abs="0"/>
    </tripinfo>
    <tripinfo id="h3568c1:3" depart="57656.00" departLane="266565295#5_1" departPos="5.10" departSpeed="0.00" departDelay="0.80" arrival="57778.00" arrivalLane="-24634415_1" arrivalPos="62.03" arrivalSpeed="12.92" duration="122.00" routeLength="807.40" waitingTime="31.00" waitingCount="2" stopTime="0.00" timeLoss="54.11" rerouteNo="1" devices="tripinfo_h3568c1:3 routing_h3568c1:3 emissions_h3568c1:3" vType="default_016" speedFactor="0.94" vaporized="">
        <emissions CO_abs="9205.124435" CO2_abs="330578.213542" HC_abs="49.673952" PMx_abs="6.477340" NOx_abs="140.093730" fuel_abs="142.103902" electricity_abs="0"/>
    </tripinfo>
    <tripinfo id="h5979c1:5" depart="57669.00" departLane="399835085#1_1" departPos="5.10" departSpeed="0.00" departDelay="0.00" arrival="57778.00" arrivalLane="-315358254#1_1" arrivalPos="137.16" arrivalSpeed="12.22" duration="109.00" routeLength="659.33" waitingTime="20.00" waitingCount="1" stopTime="0.00" timeLoss="33.79" rerouteNo="1" devices="tripinfo_h5979c1:5 routing_h5979c1:5 emissions_h5979c1:5" vType="default_016" speedFactor="0.97" vaporized="">
        <emissions CO_abs="6261.591371" CO2_abs="216905.132833" HC_abs="33.536418" PMx_abs="3.976170" NOx_abs="90.595728" fuel_abs="93.240420" electricity_abs="0"/>
    </tripinfo>
    <tripinfo id="h3326c1:2" depart="57656.00" departLane="22716069#0_1" departPos="5.10" departSpeed="0.00" departDelay="0.00" arrival="57780.00" arrivalLane="24634517#13_1" arrivalPos="111.62" arrivalSpeed="12.00" duration="124.00" routeLength="1312.81" waitingTime="0.00" waitingCount="0" stopTime="0.00" timeLoss="15.37" rerouteNo="1" devices="tripinfo_h3326c1:2 routing_h3326c1:2 emissions_h3326c1:2" vType="default_016" speedFactor="0.90" vaporized="">
        <emissions CO_abs="4078.382541" CO2_abs="292371.869787" HC_abs="25.369090" PMx_abs="4.681440" NOx_abs="116.196163" fuel_abs="125.678565" electricity_abs="0"/>
    </tripinfo>
    <tripinfo id="carIn107084:1" depart="57601.00" departLane="124812856#0_1" departPos="5.10" departSpeed="0.00" departDelay="0.70" arrival="57782.00" arrivalLane="-128361102#1_1" arrivalPos="274.68" arrivalSpeed="15.53" duration="181.00" routeLength="2232.46" waitingTime="12.00" waitingCount="2" stopTime="0.00" timeLoss="41.88" rerouteNo="1" devices="tripinfo_carIn107084:1 routing_carIn107084:1 emissions_carIn107084:1" vType="default_016" speedFactor="1.17" vaporized="">
        <emissions CO_abs="7212.624436" CO2_abs="555093.322175" HC_abs="45.520490" PMx_abs="9.727214" NOx_abs="222.259065" fuel_abs="238.610212" electricity_abs="0"/>
    </tripinfo>
    <tripinfo id="carIn121703:1" depart="57647.00" departLane="386687232#0_1" departPos="5.10" departSpeed="0.00" departDelay="0.30" arrival="57783.00" arrivalLane="-315358244_1" arrivalPos="33.95" arrivalSpeed="13.07" duration="136.00" routeLength="1157.39" waitingTime="29.00" waitingCount="3" stopTime="0.00" timeLoss="52.09" rerouteNo="1" devices="tripinfo_carIn121703:1 routing_carIn121703:1 emissions_carIn121703:1" vType="default_016" speedFactor="1.00" vaporized="">
        <emissions CO_abs="6985.903177" CO2_abs="319333.647196" HC_abs="39.325501" PMx_abs="6.022077" NOx_abs="132.904240" fuel_abs="137.269081" electricity_abs="0"/>
    </tripinfo>
    <tripinfo id="h3154c1:1" depart="57658.00" departLane="24634507_1" departPos="5.10" departSpeed="0.00" departDelay="0.00" arrival="57787.00" arrivalLane="-266565295#5_1" arrivalPos="172.76" arrivalSpeed="13.16" duration="129.00" routeLength="1206.22" waitingTime="16.00" waitingCount="2" stopTime="0.00" timeLoss="38.43" rerouteNo="1" devices="tripinfo_h3154c1:1 routing_h3154c1:1 emissions_h3154c1:1" vType="default_016" speedFactor="0.98" vaporized="">
        <emissions CO_abs="5674.519449" CO2_abs="334444.348809" HC_abs="33.701787" PMx_abs="5.977463" NOx_abs="136.937330" fuel_abs="143.763694" electricity_abs="0"/>
    </tripinfo>
    <tripinfo id="carIn12365:1" depart="57713.00" departLane="315358244_1" departPos="5.10" departSpeed="0.00" departDelay="0.50" arrival="57787.00" arrivalLane="447569997#1_1" arrivalPos="180.93" arrivalSpeed="8.47" duration="74.00" routeLength="718.04" waitingTime="7.00" waitingCount="1" stopTime="0.00" timeLoss="20.82" rerouteNo="1" devices="tripinfo_carIn12365:1 routing_carIn12365:1 emissions_carIn12365:1" vType="default_016" speedFactor="1.16" vaporized="">
        <emissions CO_abs="3043.923619" CO2_abs="176406.355365" HC_abs="17.990923" PMx_abs="3.222588" NOx_abs="72.536553" fuel_abs="75.829690" electricity_abs="0"/>
    </tripinfo>
    <tripinfo id="carIn22761:1" depart="57616.00" departLane="-306240162#1_0" departPos="5.10" departSpeed="0.00" departDelay="2.10" arrival="57788.00" arrivalLane="399835085#1_1" arrivalPos="212.23" arrivalSpeed="4.99" duration="172.00" routeLength="1093.26" waitingTime="57.00" waitingCount="3" stopTime="0.00" timeLoss="99.16" rerouteNo="1" devices="tripinfo_carIn22761:1 routing_carIn22761:1 emissions_carIn22761:1" vType="default_016" speedFactor="1.07" vaporized="">
        <emissions CO_abs="13827.602902" CO2_abs="477884.058638" HC_abs="74.300149" PMx_abs="9.949488" NOx_abs="204.750543" fuel_abs="205.425195" electricity_abs="0"/>
    </tripinfo>
    <tripinfo id="carIn129809:1" depart="57729.00" departLane="-447569998#1_1" departPos="5.10" departSpeed="0.00" departDelay="1.00" arrival="57796.00" arrivalLane="-315358244_1" arrivalPos="33.95" arrivalSpeed="14.11" duration="67.00" routeLength="706.49" waitingTime="0.00" waitingCount="0" stopTime="0.00" timeLoss="8.82" rerouteNo="1" devices="tripinfo_carIn129809:1 routing_carIn129809:1 emissions_carIn129809:1" vType="default_015" speedFactor="1.05" vaporized="">
        <emissions CO_abs="2456.093516" CO2_abs="157868.533863" HC_abs="14.863032" PMx_abs="2.670663" NOx_abs="63.536391" fuel_abs="67.861158" electricity_abs="0"/>
    </tripinfo>
    <tripinfo id="h7181c1:1" depart="57660.00" departLane="315358254#0_1" departPos="5.10" departSpeed="0.00" departDelay="0.10" arrival="57811.00" arrivalLane="306240162#0_0" arrivalPos="220.43" arrivalSpeed="16.53" duration="151.00" routeLength="932.35" waitingTime="70.00" waitingCount="3" stopTime="0.00" timeLoss="100.48" rerouteNo="1" devices="tripinfo_h7181c1:1 routing_h7181c1:1 emissions_h7181c1:1" vType="default_016" speedFactor="1.03" vaporized="">
        <emissions CO_abs="15309.326271" CO2_abs="491442.327251" HC_abs="81.417384" PMx_abs="10.627412" NOx_abs="212.316631" fuel_abs="211.253818" electricity_abs="0"/>
    </tripinfo>
    <tripinfo id="carIn80064:1" depart="57603.00" departLane="128361109#1_1" departPos="5.10" departSpeed="0.00" departDelay="0.40" arrival="57818.00" arrivalLane="-315358254#1_1" arrivalPos="137.16" arrivalSpeed="12.26" duration="215.00" routeLength="1587.97" waitingTime="80.00" waitingCount="5" stopTime="0.00" timeLoss="120.13" rerouteNo="1" devices="tripinfo_carIn80064:1 routing_carIn80064:1 emissions_carIn80064:1" vType="default_016" speedFactor="0.93" vaporized="">
        <emissions CO_abs="16984.579568" CO2_abs="624669.518623" HC_abs="92.183539" PMx_abs="12.845664" NOx_abs="265.045462" fuel_abs="268.522468" electricity_abs="0"/>
    </tripinfo>
    <tripinfo id="h645c1:1" depart="57622.00" departLane="266565295#5_1" departPos="5.10" departSpeed="0.00" departDelay="0.40" arrival="57823.00" arrivalLane="-315358244_1" arrivalPos="33.95" arrivalSpeed="13.99" duration="201.00" routeLength="1910.83" waitingTime="38.00" waitingCount="3" stopTime="0.00" timeLoss="65.95" rerouteNo="1" devices="tripinfo_h645c1:1 routing_h645c1:1 emissions_h645c1:1" vType="default_016" speedFactor="1.03" vaporized="">
        <emissions CO_abs="10214.312696" CO2_abs="508612.218391" HC_abs="58.362844" PMx_abs="9.100384" NOx_abs="206.986351" fuel_abs="218.632671" electricity_abs="0"/>
    </tripinfo>
    <tripinfo id="carIn107282:1" depart="57749.00" departLane="-447569998#1_1" departPos="5.10" departSpeed="0.00" departDelay="0.00" arrival="57827.00" arrivalLane="315358242#0_1" arrivalPos="165.37" arrivalSpeed="12.21" duration="78.00" routeLength="448.50" waitingTime="24.00" waitingCount="1" stopTime="0.00" timeLoss="33.42" rerouteNo="1" devices="tripinfo_carIn107282:1 routing_carIn107282:1 emissions_carIn107282:1" vType="default_016" speedFactor="0.93" vaporized="">
        <emissions CO_abs="5528.180892" CO2_abs="166478.670798" HC_abs="29.044711" PMx_abs="3.227553" NOx_abs="70.397438" fuel_abs="71.564111" electricity_abs="0"/>
    </tripinfo>
    <tripinfo id="carIn28951:1" depart="57606.00" departLane="10425609#0_1" departPos="5.10" departSpeed="0.00" departDelay="0.20" arrival="57843.00" arrivalLane="-128361102#1_1" arrivalPos="274.68" arrivalSpeed="15.21" duration="237.00" routeLength="2113.04" waitingTime="56.00" waitingCount="2" stopTime="0.00" timeLoss="99.08" rerouteNo="1" devices="tripinfo_carIn28951:1 routing_carIn28951:1 emissions_carIn28951:1" vType="default_016" speedFactor="1.12" vaporized="">
        <emissions CO_abs="15235.725506" CO2_abs="665797.640088" HC_abs="85.057780" PMx_abs="12.688062" NOx_abs="276.872642" fuel_abs="286.200922" electricity_abs="0"/>
    </tripinfo>
    <tripinfo id="h16072c2:3" depart="57663.00" departLane="315358254#0_1" departPos="5.10" departSpeed="0.00" departDelay="2.50" arrival="57843.00" arrivalLane="386687235_1" arrivalPos="80.84" arrivalSpeed="12.83" duration="180.00" routeLength="1611.92" waitingTime="33.00" waitingCount="2" stopTime="0.00" timeLoss="53.45" rerouteNo="1" devices="tripinfo_h16072c2:3 routing_h16072c2:3 emissions_h16072c2:3" vType="default_016" speedFactor="0.93" vaporized="">
        <emissions CO_abs="8678.316320" CO2_abs="402478.697707" HC_abs="48.927638" PMx_abs="7.202615" NOx_abs="164.852152" fuel_abs="173.010396" electricity_abs="0"/>
    </tripinfo>
    <tripinfo id="h5216c1:1" depart="57664.00" departLane="224892339#0_1" departPos="5.10" departSpeed="0.00" departDelay="0.00" arrival="57844.00" arrivalLane="386687235_2" arrivalPos="80.84" arrivalSpeed="12.73" duration="180.00" routeLength="1823.78" waitingTime="23.00" waitingCount="2" stopTime="0.00" timeLoss="48.57" rerouteNo="1" devices="tripinfo_h5216c1:1 routing_h5216c1:1 emissions_h5216c1:1" vType="default_016" speedFactor="0.97" vaporized="">
        <emissions CO_abs="7320.612684" CO2_abs="450870.505061" HC_abs="43.922950" PMx_abs="7.863030" NOx_abs="182.129856" fuel_abs="193.810592" electricity_abs="0"/>
    </tripinfo>
    <tripinfo id="carIn7949:1" depart="57676.00" departLane="128361109#1_1" departPos="5.10" departSpeed="0.00" departDelay="2.10" arrival="57845.00" arrivalLane="386687235_1" arrivalPos="80.84" arrivalSpeed="16.47" duration="169.00" routeLength="2088.57" waitingTime="17.00" waitingCount="1" stopTime="0.00" timeLoss="42.37" rerouteNo="1" devices="tripinfo_carIn7949:1 routing_carIn7949:1 emissions_carIn7949:1" vType="default_016" speedFactor="1.19" vaporized="">
        <emissions CO_abs="7462.234437" CO2_abs="469557.985375" HC_abs="44.882847" PMx_abs="8.500141" NOx_abs="189.634702" fuel_abs="201.843126" electricity_abs="0"/>
    </tripinfo>
    <tripinfo id="randUni31145:1" depart="57814.00" departLane="10425609#0_1" departPos="5.10" departSpeed="0.00" departDelay="0.30" arrival="57845.00" arrivalLane="201956810_1" arrivalPos="71.65" arrivalSpeed="12.34" duration="31.00" routeLength="255.78" waitingTime="0.00" waitingCount="0" stopTime="0.00" timeLoss="9.81" rerouteNo="1" devices="tripinfo_randUni31145:1 routing_randUni31145:1 emissions_randUni31145:1" vType="random_016" speedFactor="0.93" vaporized="">
        <emissions CO_abs="2005.975916" CO2_abs="105696.615699" HC_abs="11.627779" PMx_abs="1.999851" NOx_abs="44.464674" fuel_abs="45.434536" electricity_abs="0"/>
    </tripinfo>
    <tripinfo id="carIn77943:1" depart="57608.00" departLane="124812856#0_1" departPos="5.10" departSpeed="0.00" departDelay="2.50" arrival="57846.00" arrivalLane="-128361102#1_1" arrivalPos="274.68" arrivalSpeed="14.70" duration="238.00" routeLength="2250.49" waitingTime="32.00" waitingCount="2" stopTime="0.00" timeLoss="88.79" rerouteNo="1" devices="tripinfo_carIn77943:1 routing_carIn77943:1 emissions_carIn77943:1" vType="default_016" speedFactor="1.11" vaporized="">
        <emissions CO_abs="12720.179680" CO2_abs="667930.164810" HC_abs="73.583520" PMx_abs="12.315517" NOx_abs="275.655904" fuel_abs="287.115979" electricity_abs="0"/>
    </tripinfo>
    <tripinfo id="h20540c1:1" depart="57634.00" departLane="10425609#0_1" departPos="5.10" departSpeed="0.00" departDelay="0.50" arrival="57847.00" arrivalLane="-128361102#1_1" arrivalPos="274.68" arrivalSpeed="14.54" duration="213.00" routeLength="2113.04" waitingTime="29.00" waitingCount="2" stopTime="0.00" timeLoss="77.37" rerouteNo="1" devices="tripinfo_h20540c1:1 routing_h20540c1:1 emissions_h20540c1:1" vType="default_016" speedFactor="1.14" vaporized="">
        <emissions CO_abs="11247.407228" CO2_abs="613668.150100" HC_abs="65.457076" PMx_abs="11.338093" NOx_abs="252.624447" fuel_abs="263.790586" electricity_abs="0"/>
    </tripinfo>
    <tripinfo id="randUni2407:1" depart="57820.00" departLane="10425609#0_1" departPos="5.10" departSpeed="0.00" departDelay="0.80" arrival="57847.00" arrivalLane="201956810_1" arrivalPos="71.65" arrivalSpeed="13.26" duration="27.00" routeLength="255.78" waitingTime="0.00" waitingCount="0" stopTime="0.00" timeLoss="6.96" rerouteNo="1" devices="tripinfo_randUni2407:1 routing_randUni2407:1 emissions_randUni2407:1" vType="random_016" speedFactor="1.01" vaporized="">
        <emissions CO_abs="1663.179298" CO2_abs="98273.948050" HC_abs="9.887422" PMx_abs="1.791203" NOx_abs="40.725116" fuel_abs="42.243793" electricity_abs="0"/>
    </tripinfo>
    <tripinfo id="carIn81046:1" depart="57611.00" departLane="124812856#0_1" departPos="5.10" departSpeed="0.00" departDelay="2.50" arrival="57849.00" arrivalLane="-128361102#1_1" arrivalPos="274.68" arrivalSpeed="14.98" duration="238.00" routeLength="2250.49" waitingTime="50.00" waitingCount="2" stopTime="0.00" timeLoss="91.80" rerouteNo="1" devices="tripinfo_carIn81046:1 routing_carIn81046:1 emissions_carIn81046:1" vType="default_016" speedFactor="1.13" vaporized="">
        <emissions CO_abs="14108.272125" CO2_abs="678927.771555" HC_abs="80.216255" PMx_abs="13.029240" NOx_abs="282.506580" fuel_abs="291.843729" electricity_abs="0"/>
    </tripinfo>
    <tripinfo id="randUni15030:1" depart="57735.00" departLane="386687232#0_1" departPos="5.10" departSpeed="0.00" departDelay="0.10" arrival="57853.00" arrivalLane="26677539_1" arrivalPos="151.98" arrivalSpeed="6.30" duration="118.00" routeLength="919.89" waitingTime="0.00" waitingCount="0" stopTime="0.00" timeLoss="13.00" rerouteNo="1" devices="tripinfo_randUni15030:1 routing_randUni15030:1 emissions_randUni15030:1" vType="random_016" speedFactor="0.80" vaporized="">
        <emissions CO_abs="4170.456653" CO2_abs="199391.945434" HC_abs="23.551662" PMx_abs="3.107209" NOx_abs="79.734186" fuel_abs="85.711555" electricity_abs="0"/>
    </tripinfo>
    <tripinfo id="h17600c1:1" depart="57662.00" departLane="272042143_1" departPos="5.10" departSpeed="0.00" departDelay="0.30" arrival="57857.00" arrivalLane="201238729#3_1" arrivalPos="431.02" arrivalSpeed="11.40" duration="195.00" routeLength="2100.26" waitingTime="1.00" waitingCount="1" stopTime="0.00" timeLoss="21.12" rerouteNo="1" devices="tripinfo_h17600c1:1 routing_h17600c1:1 emissions_h17600c1:1" vType="default_016" speedFactor="0.87" vaporized="">
        <emissions CO_abs="5159.116689" CO2_abs="399664.589825" HC_abs="32.724498" PMx_abs="5.994598" NOx_abs="155.896231" fuel_abs="171.799561" electricity_abs="0"/>
    </tripinfo>
    <tripinfo id="h9953c2:3" depart="57682.00" departLane="-54169231#2_1" departPos="5.10" departSpeed="0.00" departDelay="0.00" arrival="57858.00" arrivalLane="386687235_1" arrivalPos="80.84" arrivalSpeed="11.68" duration="176.00" routeLength="1535.60" waitingTime="10.00" waitingCount="3" stopTime="0.00" timeLoss="40.10" rerouteNo="1" devices="tripinfo_h9953c2:3 routing_h9953c2:3 emissions_h9953c2:3" vType="default_016" speedFactor="0.92" vaporized="">
        <emissions CO_abs="6732.790829" CO2_abs="393024.343853" HC_abs="39.788274" PMx_abs="6.507502" NOx_abs="158.320375" fuel_abs="168.945563" electricity_abs="0"/>
    </tripinfo>
    <tripinfo id="h15382c1:3" depart="57626.00" departLane="124812856#0_1" departPos="5.10" departSpeed="0.00" departDelay="3.80" arrival="57860.00" arrivalLane="-128361102#1_1" arrivalPos="274.68" arrivalSpeed="10.86" duration="234.00" routeLength="2250.49" waitingTime="13.00" waitingCount="2" stopTime="0.00" timeLoss="46.70" rerouteNo="1" devices="tripinfo_h15382c1:3 routing_h15382c1:3 emissions_h15382c1:3" vType="default_016" speedFactor="0.87" vaporized="">
        <emissions CO_abs="7902.732965" CO2_abs="520643.639666" HC_abs="48.087382" PMx_abs="8.445432" NOx_abs="207.955304" fuel_abs="223.803497" electricity_abs="0"/>
    </tripinfo>
    <tripinfo id="carIn86816:1" depart="57617.00" departLane="128361102#0_1" departPos="5.10" departSpeed="0.00" departDelay="0.80" arrival="57862.00" arrivalLane="201956811#0_1" arrivalPos="40.40" arrivalSpeed="13.67" duration="245.00" routeLength="2067.33" waitingTime="67.00" waitingCount="3" stopTime="0.00" timeLoss="99.23" rerouteNo="1" devices="tripinfo_carIn86816:1 routing_carIn86816:1 emissions_carIn86816:1" vType="default_016" speedFactor="1.04" vaporized="">
        <emissions CO_abs="15670.122088" CO2_abs="621622.451232" HC_abs="85.849363" PMx_abs="11.712163" NOx_abs="257.205472" fuel_abs="267.213170" electricity_abs="0"/>
    </tripinfo>
    <tripinfo id="carIn17767:1" depart="57638.00" departLane="124812856#0_1" departPos="5.10" departSpeed="0.00" departDelay="10.80" arrival="57862.00" arrivalLane="-128361102#1_1" arrivalPos="274.68" arrivalSpeed="14.14" duration="224.00" routeLength="2250.49" waitingTime="0.00" waitingCount="0" stopTime="0.00" timeLoss="74.24" rerouteNo="1" devices="tripinfo_carIn17767:1 routing_carIn17767:1 emissions_carIn17767:1" vType="default_016" speedFactor="1.10" vaporized="">
        <emissions CO_abs="9174.587090" CO2_abs="591160.152669" HC_abs="55.629633" PMx_abs="10.237632" NOx_abs="240.787323" fuel_abs="254.114806" electricity_abs="0"/>
    </tripinfo>
    <tripinfo id="carIn126378:1" depart="57746.00" departLane="386687232#0_1" departPos="5.10" departSpeed="0.00" departDelay="1.80" arrival="57864.00" arrivalLane="-315358244_2" arrivalPos="33.95" arrivalSpeed="13.29" duration="118.00" routeLength="1157.39" waitingTime="7.00" waitingCount="2" stopTime="0.00" timeLoss="31.01" rerouteNo="1" devices="tripinfo_carIn126378:1 routing_carIn126378:1 emissions_carIn126378:1" vType="default_016" speedFactor="0.98" vaporized="">
        <emissions CO_abs="4440.503773" CO2_abs="286587.201391" HC_abs="26.929211" PMx_abs="4.897376" NOx_abs="115.729080" fuel_abs="123.191899" electricity_abs="0"/>
    </tripinfo>
    <tripinfo id="carIn8642:1" depart="57774.00" departLane="-447569998#1_1" departPos="5.10" departSpeed="0.00" departDelay="0.90" arrival="57864.00" arrivalLane="-315358244_1" arrivalPos="33.95" arrivalSpeed="12.70" duration="90.00" routeLength="706.49" waitingTime="14.00" waitingCount="2" stopTime="0.00" timeLoss="29.05" rerouteNo="1" devices="tripinfo_carIn8642:1 routing_carIn8642:1 emissions_carIn8642:1" vType="default_016" speedFactor="1.00" vaporized="">
        <emissions CO_abs="4156.452292" CO2_abs="206124.343908" HC_abs="23.745193" PMx_abs="3.667411" NOx_abs="84.659671" fuel_abs="88.604821" electricity_abs="0"/>
    </tripinfo>
    <tripinfo id="carIn73855:1" depart="57743.00" departLane="386687232#0_1" departPos="5.10" departSpeed="0.00" departDelay="0.50" arrival="57866.00" arrivalLane="-315358244_1" arrivalPos="33.95" arrivalSpeed="12.07" duration="123.00" routeLength="1157.39" waitingTime="10.00" waitingCount="3" stopTime="0.00" timeLoss="34.16" rerouteNo="1" devices="tripinfo_carIn73855:1 routing_carIn73855:1 emissions_carIn73855:1" vType="default_016" speedFactor="0.95" vaporized="">
        <emissions CO_abs="4871.662444" CO2_abs="304310.800593" HC_abs="29.274783" PMx_abs="5.098357" NOx_abs="122.137055" fuel_abs="130.810833" electricity_abs="0"/>
    </tripinfo>
    <tripinfo id="S5R_frequency1.2" depart="57615.00" departLane="315358250#0_1" departPos="12.10" departSpeed="0.00" departDelay="3.40" arrival="57867.00" arrivalLane="386687235_1" arrivalPos="80.84" arrivalSpeed="12.71" duration="252.00" routeLength="1115.62" waitingTime="136.00" waitingCount="3" stopTime="0.00" timeLoss="170.98" rerouteNo="1" devices="tripinfo_S5R_frequency1.2 routing_S5R_frequency1.2 emissions_S5R_frequency1.2" vType="bus" speedFactor="1.00" vaporized="">
        <emissions CO_abs="5028.478966" CO2_abs="2181772.915226" HC_abs="1126.226797" PMx_abs="517.669363" NOx_abs="19545.615583" fuel_abs="930.185804" electricity_abs="0"/>
    </tripinfo>
    <tripinfo id="50R_frequency3.17" depart="57674.00" departLane="-18809673#6_1" departPos="12.10" departSpeed="0.00" departDelay="0.70" arrival="57867.00" arrivalLane="201956811#0_1" arrivalPos="40.40" arrivalSpeed="12.12" duration="193.00" routeLength="1954.47" waitingTime="17.00" waitingCount="2" stopTime="0.00" timeLoss="48.02" rerouteNo="1" devices="tripinfo_50R_frequency3.17 routing_50R_frequency3.17 emissions_50R_frequency3.17" vType="bus" speedFactor="1.00" vaporized="">
        <emissions CO_abs="3500.811745" CO2_abs="2117639.166178" HC_abs="745.765827" PMx_abs="373.775834" NOx_abs="16633.092883" fuel_abs="903.127457" electricity_abs="0"/>
    </tripinfo>
    <tripinfo id="carIn82278:1" depart="57702.00" departLane="-306240162#1_0" departPos="5.10" departSpeed="0.00" departDelay="0.70" arrival="57868.00" arrivalLane="399835085#1_1" arrivalPos="212.23" arrivalSpeed="7.39" duration="166.00" routeLength="1093.26" waitingTime="55.00" waitingCount="2" stopTime="0.00" timeLoss="82.20" rerouteNo="1" devices="tripinfo_carIn82278:1 routing_carIn82278:1 emissions_carIn82278:1" vType="default_016" speedFactor="0.93" vaporized="">
        <emissions CO_abs="13007.219065" CO2_abs="436533.386823" HC_abs="69.485206" PMx_abs="8.871696" NOx_abs="185.355617" fuel_abs="187.650699" electricity_abs="0"/>
    </tripinfo>