<?xml version="1.0" encoding="UTF-8"?>

<!-- generated on 2021-10-26 14:07:14 by Eclipse SUMO sumo Version 1.10.0
<configuration xmlns:xsi="http://www.w3.org/2001/XMLSchema-instance" xsi:noNamespaceSchemaLocation="http://sumo.dlr.de/xsd/sumoConfiguration.xsd">

    <input>
        <net-file value="/Users/behradkoohy/sumo-scratchpad/RESCO/environments/ingolstadt21/ingolstadt21.net.xml"/>
        <route-files value="/Users/behradkoohy/sumo-scratchpad/RESCO/environments/ingolstadt21/ingolstadt21.rou.xml"/>
    </input>

    <output>
        <tripinfo-output value="/Users/behradkoohy/sumo-scratchpad/RESCO/logs/STOCHASTIC-tr0-ingolstadt21-21-mplight-wait/tripinfo_22.xml"/>
        <tripinfo-output.write-unfinished value="true"/>
    </output>

    <time>
        <begin value="57600"/>
        <end value="61200"/>
    </time>

    <processing>
        <time-to-teleport value="-1"/>
    </processing>

    <report>
        <no-warnings value="true"/>
        <no-step-log value="true"/>
    </report>

    <emissions>
        <device.emissions.probability value="1"/>
    </emissions>

    <traci_server>
        <remote-port value="60028"/>
    </traci_server>

    <random_number>
        <random value="true"/>
    </random_number>

</configuration>
-->

<tripinfos xmlns:xsi="http://www.w3.org/2001/XMLSchema-instance" xsi:noNamespaceSchemaLocation="http://sumo.dlr.de/xsd/tripinfo_file.xsd">
    <tripinfo id="h15454c2:3" depart="57612.00" departLane="24608844_1" departPos="5.10" departSpeed="0.00" departDelay="0.50" arrival="57651.00" arrivalLane="32978638#0_1" arrivalPos="49.29" arrivalSpeed="13.56" duration="39.00" routeLength="354.79" waitingTime="0.00" waitingCount="0" stopTime="0.00" timeLoss="5.62" rerouteNo="1" devices="tripinfo_h15454c2:3 routing_h15454c2:3 emissions_h15454c2:3" vType="default_016" speedFactor="1.03" vaporized="">
        <emissions CO_abs="1626.976869" CO2_abs="92260.804692" HC_abs="9.566527" PMx_abs="1.623617" NOx_abs="37.826474" fuel_abs="39.659146" electricity_abs="0"/>
    </tripinfo>
    <tripinfo id="carIn60260:1" depart="57606.00" departLane="315358254#0_1" departPos="5.10" departSpeed="0.00" departDelay="0.90" arrival="57691.00" arrivalLane="399835085#1_1" arrivalPos="212.23" arrivalSpeed="8.62" duration="85.00" routeLength="430.98" waitingTime="30.00" waitingCount="1" stopTime="0.00" timeLoss="42.08" rerouteNo="1" devices="tripinfo_carIn60260:1 routing_carIn60260:1 emissions_carIn60260:1" vType="default_016" speedFactor="1.09" vaporized="">
        <emissions CO_abs="6386.937317" CO2_abs="190785.327212" HC_abs="33.534720" PMx_abs="3.788834" NOx_abs="81.355707" fuel_abs="82.012699" electricity_abs="0"/>
    </tripinfo>
    <tripinfo id="carIn53971:1" depart="57640.00" departLane="272042143_1" departPos="5.10" departSpeed="0.00" departDelay="0.80" arrival="57693.00" arrivalLane="24634414#1_1" arrivalPos="162.19" arrivalSpeed="8.41" duration="53.00" routeLength="493.04" waitingTime="0.00" waitingCount="0" stopTime="0.00" timeLoss="8.76" rerouteNo="1" devices="tripinfo_carIn53971:1 routing_carIn53971:1 emissions_carIn53971:1" vType="default_016" speedFactor="1.04" vaporized="">
        <emissions CO_abs="2523.645167" CO2_abs="138175.693859" HC_abs="14.716795" PMx_abs="2.412090" NOx_abs="56.716419" fuel_abs="59.396163" electricity_abs="0"/>
    </tripinfo>
    <tripinfo id="h7800c1:5" depart="57696.00" departLane="-447569998#1_1" departPos="5.10" departSpeed="0.00" departDelay="0.00" arrival="57718.00" arrivalLane="-447569998#1_1" arrivalPos="180.76" arrivalSpeed="8.93" duration="22.00" routeLength="175.66" waitingTime="0.00" waitingCount="0" stopTime="0.00" timeLoss="3.40" rerouteNo="1" devices="tripinfo_h7800c1:5 routing_h7800c1:5 emissions_h7800c1:5" vType="default_016" speedFactor="1.14" vaporized="">
        <emissions CO_abs="1039.299979" CO2_abs="48311.508564" HC_abs="5.840017" PMx_abs="0.771351" NOx_abs="19.461312" fuel_abs="20.767405" electricity_abs="0"/>
    </tripinfo>
    <tripinfo id="h7181c1:1" depart="57660.00" departLane="315358254#0_1" departPos="5.10" departSpeed="0.00" departDelay="0.10" arrival="57719.00" arrivalLane="306240162#0_0" arrivalPos="220.43" arrivalSpeed="17.68" duration="59.00" routeLength="932.35" waitingTime="0.00" waitingCount="0" stopTime="0.00" timeLoss="11.20" rerouteNo="1" devices="tripinfo_h7181c1:1 routing_h7181c1:1 emissions_h7181c1:1" vType="default_016" speedFactor="1.07" vaporized="">
        <emissions CO_abs="3593.280949" CO2_abs="261210.906914" HC_abs="22.571425" PMx_abs="5.079804" NOx_abs="106.464861" fuel_abs="112.282654" electricity_abs="0"/>
    </tripinfo>
    <tripinfo id="h4538c1:1" depart="57701.00" departLane="-10427692#1_1" departPos="5.10" departSpeed="0.00" departDelay="0.00" arrival="57744.00" arrivalLane="-128361102#1_1" arrivalPos="274.68" arrivalSpeed="12.21" duration="43.00" routeLength="440.74" waitingTime="0.00" waitingCount="0" stopTime="0.00" timeLoss="7.41" rerouteNo="1" devices="tripinfo_h4538c1:1 routing_h4538c1:1 emissions_h4538c1:1" vType="default_016" speedFactor="0.90" vaporized="">
        <emissions CO_abs="1755.141260" CO2_abs="111658.989411" HC_abs="10.590721" PMx_abs="1.841156" NOx_abs="44.841105" fuel_abs="47.997653" electricity_abs="0"/>
    </tripinfo>
    <tripinfo id="h12244c1:3" depart="57612.00" departLane="315358244_1" departPos="5.10" departSpeed="0.00" departDelay="0.40" arrival="57746.00" arrivalLane="386687235_1" arrivalPos="80.84" arrivalSpeed="14.15" duration="134.00" routeLength="1186.14" waitingTime="33.00" waitingCount="2" stopTime="0.00" timeLoss="52.51" rerouteNo="1" devices="tripinfo_h12244c1:3 routing_h12244c1:3 emissions_h12244c1:3" vType="default_016" speedFactor="1.06" vaporized="">
        <emissions CO_abs="7241.622791" CO2_abs="321879.347222" HC_abs="40.485892" PMx_abs="5.925856" NOx_abs="132.195461" fuel_abs="138.363848" electricity_abs="0"/>
    </tripinfo>
    <tripinfo id="h3688c1:1" depart="57625.00" departLane="201201950#1_1" departPos="5.10" departSpeed="0.00" departDelay="0.00" arrival="57746.00" arrivalLane="32978638#0_1" arrivalPos="49.29" arrivalSpeed="11.45" duration="121.00" routeLength="1089.75" waitingTime="12.00" waitingCount="1" stopTime="0.00" timeLoss="28.11" rerouteNo="1" devices="tripinfo_h3688c1:1 routing_h3688c1:1 emissions_h3688c1:1" vType="default_016" speedFactor="0.86" vaporized="">
        <emissions CO_abs="4774.220627" CO2_abs="254169.439980" HC_abs="27.628570" PMx_abs="4.176920" NOx_abs="101.959493" fuel_abs="109.257783" electricity_abs="0"/>
    </tripinfo>
    <tripinfo id="h9563c2:5" depart="57631.00" departLane="315358244_1" departPos="5.10" departSpeed="0.00" departDelay="0.70" arrival="57748.00" arrivalLane="386687235_1" arrivalPos="80.84" arrivalSpeed="13.74" duration="117.00" routeLength="1186.14" waitingTime="14.00" waitingCount="2" stopTime="0.00" timeLoss="36.70" rerouteNo="1" devices="tripinfo_h9563c2:5 routing_h9563c2:5 emissions_h9563c2:5" vType="default_016" speedFactor="1.08" vaporized="">
        <emissions CO_abs="4781.028084" CO2_abs="287798.166537" HC_abs="28.487840" PMx_abs="5.012696" NOx_abs="116.135485" fuel_abs="123.712638" electricity_abs="0"/>
    </tripinfo>
    <tripinfo id="carIn30817:1" depart="57681.00" departLane="315358244_1" departPos="5.10" departSpeed="0.00" departDelay="0.20" arrival="57748.00" arrivalLane="447569997#1_1" arrivalPos="180.93" arrivalSpeed="9.06" duration="67.00" routeLength="718.04" waitingTime="0.00" waitingCount="0" stopTime="0.00" timeLoss="11.81" rerouteNo="1" devices="tripinfo_carIn30817:1 routing_carIn30817:1 emissions_carIn30817:1" vType="default_016" speedFactor="1.13" vaporized="">
        <emissions CO_abs="2490.652807" CO2_abs="157317.785350" HC_abs="14.959300" PMx_abs="2.666077" NOx_abs="63.360019" fuel_abs="67.624433" electricity_abs="0"/>
    </tripinfo>
    <tripinfo id="h3568c1:3" depart="57656.00" departLane="266565295#5_1" departPos="5.10" departSpeed="0.00" departDelay="0.80" arrival="57752.00" arrivalLane="-24634415_1" arrivalPos="62.03" arrivalSpeed="10.41" duration="96.00" routeLength="807.40" waitingTime="2.00" waitingCount="1" stopTime="0.00" timeLoss="18.19" rerouteNo="1" devices="tripinfo_h3568c1:3 routing_h3568c1:3 emissions_h3568c1:3" vType="default_016" speedFactor="0.83" vaporized="">
        <emissions CO_abs="3941.790245" CO2_abs="211753.260946" HC_abs="22.867095" PMx_abs="3.587696" NOx_abs="86.310094" fuel_abs="91.024414" electricity_abs="0"/>
    </tripinfo>
    <tripinfo id="h317c2:1" depart="57707.00" departLane="-32978638#0_1" departPos="5.10" departSpeed="0.00" departDelay="0.10" arrival="57752.00" arrivalLane="-266565295#5_1" arrivalPos="172.76" arrivalSpeed="16.15" duration="45.00" routeLength="370.53" waitingTime="11.00" waitingCount="1" stopTime="0.00" timeLoss="21.71" rerouteNo="1" devices="tripinfo_h317c2:1 routing_h317c2:1 emissions_h317c2:1" vType="default_016" speedFactor="1.21" vaporized="">
        <emissions CO_abs="3480.047050" CO2_abs="157524.432511" HC_abs="19.573558" PMx_abs="3.185426" NOx_abs="66.833836" fuel_abs="67.713319" electricity_abs="0"/>
    </tripinfo>
    <tripinfo id="h3326c1:2" depart="57656.00" departLane="22716069#0_1" departPos="5.10" departSpeed="0.00" departDelay="0.00" arrival="57760.00" arrivalLane="24634517#13_1" arrivalPos="111.62" arrivalSpeed="14.17" duration="104.00" routeLength="1312.81" waitingTime="0.00" waitingCount="0" stopTime="0.00" timeLoss="14.70" rerouteNo="1" devices="tripinfo_h3326c1:2 routing_h3326c1:2 emissions_h3326c1:2" vType="default_016" speedFactor="1.09" vaporized="">
        <emissions CO_abs="4154.455469" CO2_abs="321394.228939" HC_abs="26.436810" PMx_abs="5.660766" NOx_abs="129.940136" fuel_abs="138.153109" electricity_abs="0"/>
    </tripinfo>
    <tripinfo id="carIn80064:1" depart="57603.00" departLane="128361109#1_1" departPos="5.10" departSpeed="0.00" departDelay="0.40" arrival="57768.00" arrivalLane="-315358254#1_1" arrivalPos="137.16" arrivalSpeed="14.99" duration="165.00" routeLength="1587.97" waitingTime="45.00" waitingCount="3" stopTime="0.00" timeLoss="87.32" rerouteNo="1" devices="tripinfo_carIn80064:1 routing_carIn80064:1 emissions_carIn80064:1" vType="default_016" speedFactor="1.15" vaporized="">
        <emissions CO_abs="14316.664586" CO2_abs="598777.102059" HC_abs="79.451651" PMx_abs="12.748676" NOx_abs="255.952075" fuel_abs="257.389996" electricity_abs="0"/>
    </tripinfo>
    <tripinfo id="h330c1:1" depart="57736.00" departLane="-32978638#0_1" departPos="5.10" departSpeed="0.00" departDelay="0.20" arrival="57768.00" arrivalLane="-266565295#5_1" arrivalPos="172.76" arrivalSpeed="14.32" duration="32.00" routeLength="370.53" waitingTime="0.00" waitingCount="0" stopTime="0.00" timeLoss="6.71" rerouteNo="1" devices="tripinfo_h330c1:1 routing_h330c1:1 emissions_h330c1:1" vType="default_016" speedFactor="1.08" vaporized="">
        <emissions CO_abs="1761.503205" CO2_abs="113163.050379" HC_abs="10.703401" PMx_abs="2.100096" NOx_abs="46.759249" fuel_abs="48.643836" electricity_abs="0"/>
    </tripinfo>
    <tripinfo id="carIn12365:1" depart="57713.00" departLane="315358244_1" departPos="5.10" departSpeed="0.00" departDelay="0.50" arrival="57779.00" arrivalLane="447569997#1_1" arrivalPos="180.93" arrivalSpeed="8.23" duration="66.00" routeLength="718.04" waitingTime="0.00" waitingCount="0" stopTime="0.00" timeLoss="7.38" rerouteNo="1" devices="tripinfo_carIn12365:1 routing_carIn12365:1 emissions_carIn12365:1" vType="default_016" speedFactor="1.06" vaporized="">
        <emissions CO_abs="2118.288353" CO2_abs="145951.886569" HC_abs="13.012272" PMx_abs="2.330955" NOx_abs="57.728003" fuel_abs="62.738774" electricity_abs="0"/>
    </tripinfo>
    <tripinfo id="h5979c1:5" depart="57669.00" departLane="399835085#1_1" departPos="5.10" departSpeed="0.00" departDelay="0.00" arrival="57780.00" arrivalLane="-315358254#1_1" arrivalPos="137.16" arrivalSpeed="10.67" duration="111.00" routeLength="659.33" waitingTime="8.00" waitingCount="1" stopTime="0.00" timeLoss="23.22" rerouteNo="1" devices="tripinfo_h5979c1:5 routing_h5979c1:5 emissions_h5979c1:5" vType="default_016" speedFactor="0.84" vaporized="">
        <emissions CO_abs="4874.835013" CO2_abs="184942.763406" HC_abs="26.430566" PMx_abs="3.084411" NOx_abs="75.672683" fuel_abs="79.500871" electricity_abs="0"/>
    </tripinfo>
    <tripinfo id="carIn27009:1" depart="57673.00" departLane="-447569998#1_1" departPos="5.10" departSpeed="0.00" departDelay="0.50" arrival="57783.00" arrivalLane="-26677539_1" arrivalPos="152.75" arrivalSpeed="6.72" duration="110.00" routeLength="699.63" waitingTime="0.00" waitingCount="0" stopTime="0.00" timeLoss="13.99" rerouteNo="1" devices="tripinfo_carIn27009:1 routing_carIn27009:1 emissions_carIn27009:1" vType="default_015" speedFactor="0.88" vaporized="">
        <emissions CO_abs="4088.353393" CO2_abs="169404.385047" HC_abs="22.502284" PMx_abs="2.822844" NOx_abs="69.461771" fuel_abs="72.821092" electricity_abs="0"/>
    </tripinfo>
    <tripinfo id="h16072c2:3" depart="57663.00" departLane="315358254#0_1" departPos="5.10" departSpeed="0.00" departDelay="2.50" arrival="57791.00" arrivalLane="386687235_1" arrivalPos="80.84" arrivalSpeed="14.62" duration="128.00" routeLength="1611.92" waitingTime="7.00" waitingCount="1" stopTime="0.00" timeLoss="24.12" rerouteNo="1" devices="tripinfo_h16072c2:3 routing_h16072c2:3 emissions_h16072c2:3" vType="default_016" speedFactor="1.14" vaporized="">
        <emissions CO_abs="4122.591960" CO2_abs="323844.007215" HC_abs="26.203663" PMx_abs="5.447975" NOx_abs="128.128451" fuel_abs="139.206595" electricity_abs="0"/>
    </tripinfo>
    <tripinfo id="carIn121703:1" depart="57647.00" departLane="386687232#0_1" departPos="5.10" departSpeed="0.00" departDelay="0.30" arrival="57794.00" arrivalLane="-315358244_1" arrivalPos="33.95" arrivalSpeed="13.38" duration="147.00" routeLength="1157.39" waitingTime="36.00" waitingCount="3" stopTime="0.00" timeLoss="59.65" rerouteNo="1" devices="tripinfo_carIn121703:1 routing_carIn121703:1 emissions_carIn121703:1" vType="default_016" speedFactor="0.97" vaporized="">
        <emissions CO_abs="7945.522164" CO2_abs="349284.276460" HC_abs="44.362990" PMx_abs="6.411401" NOx_abs="144.138281" fuel_abs="150.144228" electricity_abs="0"/>
    </tripinfo>
    <tripinfo id="carIn86816:1" depart="57617.00" departLane="128361102#0_1" departPos="5.10" departSpeed="0.00" departDelay="0.80" arrival="57806.00" arrivalLane="201956811#0_1" arrivalPos="40.40" arrivalSpeed="12.61" duration="189.00" routeLength="2067.33" waitingTime="9.00" waitingCount="1" stopTime="0.00" timeLoss="32.62" rerouteNo="1" devices="tripinfo_carIn86816:1 routing_carIn86816:1 emissions_carIn86816:1" vType="default_016" speedFactor="0.97" vaporized="">
        <emissions CO_abs="5711.791311" CO2_abs="409972.734611" HC_abs="35.585218" PMx_abs="6.755646" NOx_abs="163.288278" fuel_abs="176.230101" electricity_abs="0"/>
    </tripinfo>
    <tripinfo id="carIn129809:1" depart="57729.00" departLane="-447569998#1_1" departPos="5.10" departSpeed="0.00" departDelay="1.00" arrival="57807.00" arrivalLane="-315358244_1" arrivalPos="33.95" arrivalSpeed="13.03" duration="78.00" routeLength="706.49" waitingTime="7.00" waitingCount="1" stopTime="0.00" timeLoss="18.37" rerouteNo="1" devices="tripinfo_carIn129809:1 routing_carIn129809:1 emissions_carIn129809:1" vType="default_015" speedFactor="1.02" vaporized="">
        <emissions CO_abs="3095.312448" CO2_abs="171538.607991" HC_abs="18.080522" PMx_abs="2.847671" NOx_abs="68.732943" fuel_abs="73.737803" electricity_abs="0"/>
    </tripinfo>
    <tripinfo id="h11737c1:1" depart="57665.00" departLane="272042143_1" departPos="5.10" departSpeed="0.00" departDelay="1.50" arrival="57816.00" arrivalLane="-315358254#1_1" arrivalPos="137.16" arrivalSpeed="14.01" duration="151.00" routeLength="1596.88" waitingTime="15.00" waitingCount="2" stopTime="0.00" timeLoss="42.98" rerouteNo="1" devices="tripinfo_h11737c1:1 routing_h11737c1:1 emissions_h11737c1:1" vType="default_016" speedFactor="1.08" vaporized="">
        <emissions CO_abs="6040.044351" CO2_abs="373868.212216" HC_abs="36.190010" PMx_abs="6.559249" NOx_abs="151.207776" fuel_abs="160.710392" electricity_abs="0"/>
    </tripinfo>
    <tripinfo id="carIn118591:1" depart="57689.00" departLane="315358244_1" departPos="5.10" departSpeed="0.00" departDelay="0.20" arrival="57822.00" arrivalLane="386687235_1" arrivalPos="80.84" arrivalSpeed="14.58" duration="133.00" routeLength="1186.14" waitingTime="34.00" waitingCount="3" stopTime="0.00" timeLoss="55.36" rerouteNo="1" devices="tripinfo_carIn118591:1 routing_carIn118591:1 emissions_carIn118591:1" vType="default_016" speedFactor="1.11" vaporized="">
        <emissions CO_abs="7363.009682" CO2_abs="320458.422356" HC_abs="40.969098" PMx_abs="6.013697" NOx_abs="132.062818" fuel_abs="137.753022" electricity_abs="0"/>
    </tripinfo>
    <tripinfo id="carIn126288:1" depart="57674.00" departLane="272042143_1" departPos="5.10" departSpeed="0.00" departDelay="0.00" arrival="57823.00" arrivalLane="-315358254#1_1" arrivalPos="137.16" arrivalSpeed="11.77" duration="149.00" routeLength="1596.88" waitingTime="0.00" waitingCount="0" stopTime="0.00" timeLoss="19.44" rerouteNo="1" devices="tripinfo_carIn126288:1 routing_carIn126288:1 emissions_carIn126288:1" vType="default_016" speedFactor="0.90" vaporized="">
        <emissions CO_abs="4519.798151" CO2_abs="327450.773116" HC_abs="28.172363" PMx_abs="5.099209" NOx_abs="128.946779" fuel_abs="140.757739" electricity_abs="0"/>
    </tripinfo>
    <tripinfo id="carIn28951:1" depart="57606.00" departLane="10425609#0_1" departPos="5.10" departSpeed="0.00" departDelay="0.20" arrival="57829.00" arrivalLane="-128361102#1_1" arrivalPos="274.68" arrivalSpeed="12.02" duration="223.00" routeLength="2113.04" waitingTime="24.00" waitingCount="2" stopTime="0.00" timeLoss="51.42" rerouteNo="1" devices="tripinfo_carIn28951:1 routing_carIn28951:1 emissions_carIn28951:1" vType="default_016" speedFactor="0.90" vaporized="">
        <emissions CO_abs="8568.664539" CO2_abs="502670.526792" HC_abs="50.708078" PMx_abs="8.298756" NOx_abs="201.253946" fuel_abs="216.078217" electricity_abs="0"/>
    </tripinfo>
    <tripinfo id="h3864c1:3" depart="57678.00" departLane="24693977#1_1" departPos="5.10" departSpeed="0.00" departDelay="0.00" arrival="57830.00" arrivalLane="201956820_1" arrivalPos="48.33" arrivalSpeed="14.62" duration="152.00" routeLength="1574.85" waitingTime="7.00" waitingCount="1" stopTime="0.00" timeLoss="30.46" rerouteNo="1" devices="tripinfo_h3864c1:3 routing_h3864c1:3 emissions_h3864c1:3" vType="default_016" speedFactor="1.07" vaporized="">
        <emissions CO_abs="6802.970706" CO2_abs="414912.851372" HC_abs="40.601423" PMx_abs="7.326676" NOx_abs="169.194503" fuel_abs="178.353674" electricity_abs="0"/>
    </tripinfo>
    <tripinfo id="carIn107084:1" depart="57601.00" departLane="124812856#0_1" departPos="5.10" departSpeed="0.00" departDelay="0.70" arrival="57832.00" arrivalLane="-128361102#1_1" arrivalPos="274.68" arrivalSpeed="12.11" duration="231.00" routeLength="2250.49" waitingTime="11.00" waitingCount="2" stopTime="0.00" timeLoss="42.74" rerouteNo="1" devices="tripinfo_carIn107084:1 routing_carIn107084:1 emissions_carIn107084:1" vType="default_016" speedFactor="0.87" vaporized="">
        <emissions CO_abs="6888.669975" CO2_abs="467738.674621" HC_abs="42.205655" PMx_abs="7.365262" NOx_abs="185.260496" fuel_abs="201.061979" electricity_abs="0"/>
    </tripinfo>
    <tripinfo id="carIn77943:1" depart="57608.00" departLane="124812856#0_1" departPos="5.10" departSpeed="0.00" departDelay="2.50" arrival="57833.00" arrivalLane="-128361102#1_1" arrivalPos="274.68" arrivalSpeed="13.06" duration="225.00" routeLength="2250.49" waitingTime="8.00" waitingCount="1" stopTime="0.00" timeLoss="80.90" rerouteNo="1" devices="tripinfo_carIn77943:1 routing_carIn77943:1 emissions_carIn77943:1" vType="default_016" speedFactor="1.14" vaporized="">
        <emissions CO_abs="8880.287723" CO2_abs="568092.929328" HC_abs="53.740320" PMx_abs="9.876996" NOx_abs="231.298641" fuel_abs="244.199207" electricity_abs="0"/>
    </tripinfo>
    <tripinfo id="h3154c1:1" depart="57658.00" departLane="24634507_1" departPos="5.10" departSpeed="0.00" departDelay="0.00" arrival="57836.00" arrivalLane="-266565295#5_1" arrivalPos="172.76" arrivalSpeed="14.10" duration="178.00" routeLength="1206.22" waitingTime="76.00" waitingCount="1" stopTime="0.00" timeLoss="95.18" rerouteNo="1" devices="tripinfo_h3154c1:1 routing_h3154c1:1 emissions_h3154c1:1" vType="default_016" speedFactor="1.08" vaporized="">
        <emissions CO_abs="15989.017111" CO2_abs="487206.447907" HC_abs="84.261065" PMx_abs="10.163415" NOx_abs="208.883233" fuel_abs="209.434134" electricity_abs="0"/>
    </tripinfo>
    <tripinfo id="S5R_frequency1.2" depart="57646.00" departLane="315358250#0_1" departPos="12.10" departSpeed="0.00" departDelay="34.40" arrival="57839.00" arrivalLane="386687235_1" arrivalPos="80.84" arrivalSpeed="13.78" duration="193.00" routeLength="1115.62" waitingTime="76.00" waitingCount="4" stopTime="0.00" timeLoss="111.28" rerouteNo="1" devices="tripinfo_S5R_frequency1.2 routing_S5R_frequency1.2 emissions_S5R_frequency1.2" vType="bus" speedFactor="1.00" vaporized="">
        <emissions CO_abs="3528.697018" CO2_abs="1689500.993687" HC_abs="783.314465" PMx_abs="367.012282" NOx_abs="14512.866766" fuel_abs="720.387282" electricity_abs="0"/>
    </tripinfo>
    <tripinfo id="carIn107282:1" depart="57749.00" departLane="-447569998#1_1" departPos="5.10" departSpeed="0.00" departDelay="0.00" arrival="57839.00" arrivalLane="315358242#0_1" arrivalPos="165.37" arrivalSpeed="11.16" duration="90.00" routeLength="448.50" waitingTime="33.00" waitingCount="1" stopTime="0.00" timeLoss="41.74" rerouteNo="1" devices="tripinfo_carIn107282:1 routing_carIn107282:1 emissions_carIn107282:1" vType="default_016" speedFactor="0.87" vaporized="">
        <emissions CO_abs="7271.848080" CO2_abs="202270.958606" HC_abs="37.813911" PMx_abs="3.996468" NOx_abs="86.055012" fuel_abs="86.950483" electricity_abs="0"/>
    </tripinfo>
    <tripinfo id="carIn46110:1" depart="57684.00" departLane="315358244_1" departPos="5.10" departSpeed="0.00" departDelay="1.20" arrival="57858.00" arrivalLane="32978638#0_1" arrivalPos="49.29" arrivalSpeed="13.20" duration="174.00" routeLength="1764.04" waitingTime="27.00" waitingCount="2" stopTime="0.00" timeLoss="50.83" rerouteNo="1" devices="tripinfo_carIn46110:1 routing_carIn46110:1 emissions_carIn46110:1" vType="default_016" speedFactor="1.04" vaporized="">
        <emissions CO_abs="7635.982000" CO2_abs="432045.626263" HC_abs="44.767939" PMx_abs="7.569130" NOx_abs="174.620848" fuel_abs="185.719021" electricity_abs="0"/>
    </tripinfo>
    <tripinfo id="randUni15030:1" depart="57735.00" departLane="386687232#0_1" departPos="5.10" departSpeed="0.00" departDelay="0.10" arrival="57858.00" arrivalLane="26677539_1" arrivalPos="151.98" arrivalSpeed="6.27" duration="123.00" routeLength="919.89" waitingTime="5.00" waitingCount="1" stopTime="0.00" timeLoss="20.45" rerouteNo="1" devices="tripinfo_randUni15030:1 routing_randUni15030:1 emissions_randUni15030:1" vType="random_016" speedFactor="0.82" vaporized="">
        <emissions CO_abs="4451.440494" CO2_abs="220566.225341" HC_abs="25.336142" PMx_abs="3.511268" NOx_abs="88.589629" fuel_abs="94.813387" electricity_abs="0"/>
    </tripinfo>
    <tripinfo id="h6541c1:3" depart="57727.00" departLane="201950247#3_1" departPos="5.10" departSpeed="0.00" departDelay="0.00" arrival="57863.00" arrivalLane="32978638#0_1" arrivalPos="49.29" arrivalSpeed="13.26" duration="136.00" routeLength="1176.17" waitingTime="13.00" waitingCount="1" stopTime="0.00" timeLoss="30.46" rerouteNo="1" devices="tripinfo_h6541c1:3 routing_h6541c1:3 emissions_h6541c1:3" vType="default_016" speedFactor="0.97" vaporized="">
        <emissions CO_abs="5671.973697" CO2_abs="299305.567346" HC_abs="32.768018" PMx_abs="4.993246" NOx_abs="120.614433" fuel_abs="128.660009" electricity_abs="0"/>
    </tripinfo>
    <tripinfo id="carIn8642:1" depart="57774.00" departLane="-447569998#1_1" departPos="5.10" departSpeed="0.00" departDelay="0.90" arrival="57863.00" arrivalLane="-315358244_1" arrivalPos="33.95" arrivalSpeed="11.94" duration="89.00" routeLength="706.49" waitingTime="9.00" waitingCount="1" stopTime="0.00" timeLoss="20.60" rerouteNo="1" devices="tripinfo_carIn8642:1 routing_carIn8642:1 emissions_carIn8642:1" vType="default_016" speedFactor="0.88" vaporized="">
        <emissions CO_abs="3740.385524" CO2_abs="169235.549606" HC_abs="20.948203" PMx_abs="2.864557" NOx_abs="68.677320" fuel_abs="72.748258" electricity_abs="0"/>
    </tripinfo>
    <tripinfo id="carIn81046:1" depart="57611.00" departLane="124812856#0_1" departPos="5.10" departSpeed="0.00" departDelay="2.50" arrival="57865.00" arrivalLane="-128361102#1_1" arrivalPos="274.68" arrivalSpeed="14.70" duration="254.00" routeLength="2250.49" waitingTime="51.00" waitingCount="4" stopTime="0.00" timeLoss="100.74" rerouteNo="1" devices="tripinfo_carIn81046:1 routing_carIn81046:1 emissions_carIn81046:1" vType="default_016" speedFactor="1.07" vaporized="">
        <emissions CO_abs="14869.100740" CO2_abs="659297.128799" HC_abs="83.140632" PMx_abs="12.642226" NOx_abs="275.048375" fuel_abs="283.406235" electricity_abs="0"/>
    </tripinfo>
    <tripinfo id="h20540c1:1" depart="57634.00" departLane="10425609#0_1" departPos="5.10" departSpeed="0.00" departDelay="0.50" arrival="57866.00" arrivalLane="-128361102#1_1" arrivalPos="274.68" arrivalSpeed="14.50" duration="232.00" routeLength="2113.04" waitingTime="47.00" waitingCount="3" stopTime="0.00" timeLoss="93.93" rerouteNo="1" devices="tripinfo_h20540c1:1 routing_h20540c1:1 emissions_h20540c1:1" vType="default_016" speedFactor="1.12" vaporized="">
        <emissions CO_abs="12837.187845" CO2_abs="631546.195371" HC_abs="73.195631" PMx_abs="11.861220" NOx_abs="261.095023" fuel_abs="271.476434" electricity_abs="0"/>
    </tripinfo>
    <tripinfo id="h3536c1:1" depart="57767.00" departLane="-24634413#2_1" departPos="5.10" departSpeed="0.00" departDelay="0.00" arrival="57870.00" arrivalLane="32978638#0_1" arrivalPos="49.29" arrivalSpeed="13.05" duration="103.00" routeLength="953.61" waitingTime="0.00" waitingCount="0" stopTime="0.00" timeLoss="13.55" rerouteNo="1" devices="tripinfo_h3536c1:1 routing_h3536c1:1 emissions_h3536c1:1" vType="default_016" speedFactor="1.02" vaporized="">
        <emissions CO_abs="4063.100256" CO2_abs="241629.986647" HC_abs="24.123953" PMx_abs="4.095858" NOx_abs="98.088717" fuel_abs="103.866912" electricity_abs="0"/>
    </tripinfo>
    <tripinfo id="h17600c1:1" depart="57662.00" departLane="272042143_1" departPos="5.10" departSpeed="0.00" departDelay="0.30" arrival="57874.00" arrivalLane="201238729#3_1" arrivalPos="431.02" arrivalSpeed="13.01" duration="212.00" routeLength="2100.26" waitingTime="27.00" waitingCount="2" stopTime="0.00" timeLoss="51.73" rerouteNo="1" devices="tripinfo_h17600c1:1 routing_h17600c1:1 emissions_h17600c1:1" vType="default_016" speedFactor="0.94" vaporized="">
        <emissions CO_abs="7620.706665" CO2_abs="424758.846655" HC_abs="44.589992" PMx_abs="7.076733" NOx_abs="169.835186" fuel_abs="182.587355" electricity_abs="0"/>
    </tripinfo>
    <tripinfo id="carIn22761:1" depart="57616.00" departLane="-306240162#1_0" departPos="5.10" departSpeed="0.00" departDelay="2.10" arrival="57876.00" arrivalLane="399835085#1_1" arrivalPos="212.23" arrivalSpeed="7.47" duration="260.00" routeLength="1093.26" waitingTime="156.00" waitingCount="2" stopTime="0.00" timeLoss="179.38" rerouteNo="1" devices="tripinfo_carIn22761:1 routing_carIn22761:1 emissions_carIn22761:1" vType="default_016" speedFactor="0.97" vaporized="">
        <emissions CO_abs="29336.480871" CO2_abs="683210.205332" HC_abs="149.668135" PMx_abs="15.341663" NOx_abs="300.789814" fuel_abs="293.693918" electricity_abs="0"/>
    </tripinfo>
    <tripinfo id="carIn12152:1" depart="57647.00" departLane="24599188#0.94_1" departPos="5.10" departSpeed="0.00" departDelay="0.50" arrival="57877.00" arrivalLane="-315358254#1_1" arrivalPos="137.16" arrivalSpeed="13.60" duration="230.00" routeLength="2034.31" waitingTime="56.00" waitingCount="2" stopTime="0.00" timeLoss="78.27" rerouteNo="1" devices="tripinfo_carIn12152:1 routing_carIn12152:1 emissions_carIn12152:1" vType="default_016" speedFactor="1.05" vaporized="">
        <emissions CO_abs="12606.185797" CO2_abs="528974.484891" HC_abs="69.646837" PMx_abs="9.471705" NOx_abs="215.166152" fuel_abs="227.387317" electricity_abs="0"/>
    </tripinfo>
    <tripinfo id="carIn50326:1" depart="57651.00" departLane="128361102#0_1" departPos="5.10" departSpeed="0.00" departDelay="0.30" arrival="57877.00" arrivalLane="18809673#0_1" arrivalPos="473.56" arrivalSpeed="11.89" duration="226.00" routeLength="1591.07" waitingTime="55.00" waitingCount="2" stopTime="0.00" timeLoss="80.06" rerouteNo="1" devices="tripinfo_carIn50326:1 routing_carIn50326:1 emissions_carIn50326:1" vType="default_016" speedFactor="0.89" vaporized="">
        <emissions CO_abs="13798.268944" CO2_abs="487265.445816" HC_abs="74.127642" PMx_abs="8.817417" NOx_abs="201.157835" fuel_abs="209.459587" electricity_abs="0"/>
    </tripinfo>
    <tripinfo id="carIn81860:1" depart="57712.00" departLane="128361102#0_1" departPos="5.10" departSpeed="0.00" departDelay="0.60" arrival="57877.00" arrivalLane="-24634517#17_1" arrivalPos="6.43" arrivalSpeed="5.50" duration="165.00" routeLength="1229.64" waitingTime="40.00" waitingCount="1" stopTime="0.00" timeLoss="57.62" rerouteNo="1" devices="tripinfo_carIn81860:1 routing_carIn81860:1 emissions_carIn81860:1" vType="default_016" speedFactor="0.84" vaporized="">
        <emissions CO_abs="9680.715256" CO2_abs="363224.393616" HC_abs="52.509430" PMx_abs="6.501340" NOx_abs="149.340368" fuel_abs="156.137975" electricity_abs="0"/>
    </tripinfo>