<?xml version="1.0" encoding="UTF-8"?>

<!-- generated on 2021-10-26 14:25:52 by Eclipse SUMO sumo Version 1.10.0
<configuration xmlns:xsi="http://www.w3.org/2001/XMLSchema-instance" xsi:noNamespaceSchemaLocation="http://sumo.dlr.de/xsd/sumoConfiguration.xsd">

    <input>
        <net-file value="/Users/behradkoohy/sumo-scratchpad/RESCO/environments/ingolstadt21/ingolstadt21.net.xml"/>
        <route-files value="/Users/behradkoohy/sumo-scratchpad/RESCO/environments/ingolstadt21/ingolstadt21.rou.xml"/>
    </input>

    <output>
        <tripinfo-output value="/Users/behradkoohy/sumo-scratchpad/RESCO/logs/STOCHASTIC-tr0-ingolstadt21-21-mplight-wait/tripinfo_52.xml"/>
        <tripinfo-output.write-unfinished value="true"/>
    </output>

    <time>
        <begin value="57600"/>
        <end value="61200"/>
    </time>

    <processing>
        <time-to-teleport value="-1"/>
    </processing>

    <report>
        <no-warnings value="true"/>
        <no-step-log value="true"/>
    </report>

    <emissions>
        <device.emissions.probability value="1"/>
    </emissions>

    <traci_server>
        <remote-port value="60311"/>
    </traci_server>

    <random_number>
        <random value="true"/>
    </random_number>

</configuration>
-->

<tripinfos xmlns:xsi="http://www.w3.org/2001/XMLSchema-instance" xsi:noNamespaceSchemaLocation="http://sumo.dlr.de/xsd/tripinfo_file.xsd">
    <tripinfo id="h15454c2:3" depart="57612.00" departLane="24608844_1" departPos="5.10" departSpeed="0.00" departDelay="0.50" arrival="57653.00" arrivalLane="32978638#0_1" arrivalPos="49.29" arrivalSpeed="13.20" duration="41.00" routeLength="354.79" waitingTime="0.00" waitingCount="0" stopTime="0.00" timeLoss="7.91" rerouteNo="1" devices="tripinfo_h15454c2:3 routing_h15454c2:3 emissions_h15454c2:3" vType="default_016" speedFactor="1.04" vaporized="">
        <emissions CO_abs="2275.425666" CO2_abs="120604.894652" HC_abs="13.191412" PMx_abs="2.199655" NOx_abs="50.175452" fuel_abs="51.843096" electricity_abs="0"/>
    </tripinfo>
    <tripinfo id="carIn53971:1" depart="57640.00" departLane="272042143_1" departPos="5.10" departSpeed="0.00" departDelay="0.80" arrival="57694.00" arrivalLane="24634414#1_1" arrivalPos="162.19" arrivalSpeed="7.91" duration="54.00" routeLength="493.04" waitingTime="0.00" waitingCount="0" stopTime="0.00" timeLoss="9.58" rerouteNo="1" devices="tripinfo_carIn53971:1 routing_carIn53971:1 emissions_carIn53971:1" vType="default_016" speedFactor="1.02" vaporized="">
        <emissions CO_abs="2422.976406" CO2_abs="133971.349041" HC_abs="14.167657" PMx_abs="2.371127" NOx_abs="55.173137" fuel_abs="57.588818" electricity_abs="0"/>
    </tripinfo>
    <tripinfo id="h7800c1:5" depart="57696.00" departLane="-447569998#1_1" departPos="5.10" departSpeed="0.00" departDelay="0.00" arrival="57719.00" arrivalLane="-447569998#1_1" arrivalPos="180.76" arrivalSpeed="8.66" duration="23.00" routeLength="175.66" waitingTime="0.00" waitingCount="0" stopTime="0.00" timeLoss="2.76" rerouteNo="1" devices="tripinfo_h7800c1:5 routing_h7800c1:5 emissions_h7800c1:5" vType="default_016" speedFactor="1.04" vaporized="">
        <emissions CO_abs="1069.781673" CO2_abs="49557.587629" HC_abs="6.008885" PMx_abs="0.803515" NOx_abs="20.092369" fuel_abs="21.303030" electricity_abs="0"/>
    </tripinfo>
    <tripinfo id="h12244c1:3" depart="57612.00" departLane="315358244_1" departPos="5.10" departSpeed="0.00" departDelay="0.40" arrival="57737.00" arrivalLane="386687235_1" arrivalPos="80.84" arrivalSpeed="14.10" duration="125.00" routeLength="1186.14" waitingTime="20.00" waitingCount="2" stopTime="0.00" timeLoss="41.73" rerouteNo="1" devices="tripinfo_h12244c1:3 routing_h12244c1:3 emissions_h12244c1:3" vType="default_016" speedFactor="1.04" vaporized="">
        <emissions CO_abs="6132.660233" CO2_abs="315639.610785" HC_abs="35.328412" PMx_abs="5.681341" NOx_abs="128.945562" fuel_abs="135.680980" electricity_abs="0"/>
    </tripinfo>
    <tripinfo id="h9563c2:5" depart="57631.00" departLane="315358244_1" departPos="5.10" departSpeed="0.00" departDelay="0.70" arrival="57740.00" arrivalLane="386687235_1" arrivalPos="80.84" arrivalSpeed="12.40" duration="109.00" routeLength="1186.14" waitingTime="1.00" waitingCount="1" stopTime="0.00" timeLoss="18.60" rerouteNo="1" devices="tripinfo_h9563c2:5 routing_h9563c2:5 emissions_h9563c2:5" vType="default_016" speedFactor="0.96" vaporized="">
        <emissions CO_abs="3773.140209" CO2_abs="265017.705895" HC_abs="23.376804" PMx_abs="4.409402" NOx_abs="106.133467" fuel_abs="113.919981" electricity_abs="0"/>
    </tripinfo>
    <tripinfo id="carIn80064:1" depart="57603.00" departLane="128361109#1_1" departPos="5.10" departSpeed="0.00" departDelay="0.40" arrival="57749.00" arrivalLane="-315358254#1_1" arrivalPos="137.16" arrivalSpeed="13.86" duration="146.00" routeLength="1587.97" waitingTime="35.00" waitingCount="1" stopTime="0.00" timeLoss="60.47" rerouteNo="1" devices="tripinfo_carIn80064:1 routing_carIn80064:1 emissions_carIn80064:1" vType="default_016" speedFactor="1.05" vaporized="">
        <emissions CO_abs="11053.552184" CO2_abs="527162.134075" HC_abs="62.909869" PMx_abs="10.680513" NOx_abs="220.767863" fuel_abs="226.605251" electricity_abs="0"/>
    </tripinfo>
    <tripinfo id="h317c2:1" depart="57707.00" departLane="-32978638#0_1" departPos="5.10" departSpeed="0.00" departDelay="0.10" arrival="57753.00" arrivalLane="-266565295#5_1" arrivalPos="172.76" arrivalSpeed="14.32" duration="46.00" routeLength="370.53" waitingTime="11.00" waitingCount="1" stopTime="0.00" timeLoss="20.70" rerouteNo="1" devices="tripinfo_h317c2:1 routing_h317c2:1 emissions_h317c2:1" vType="default_016" speedFactor="1.09" vaporized="">
        <emissions CO_abs="3029.284862" CO2_abs="145717.845965" HC_abs="17.126731" PMx_abs="2.737623" NOx_abs="60.338775" fuel_abs="62.638305" electricity_abs="0"/>
    </tripinfo>
    <tripinfo id="h4538c1:1" depart="57701.00" departLane="-10427692#1_1" departPos="5.10" departSpeed="0.00" departDelay="0.00" arrival="57754.00" arrivalLane="-128361102#1_1" arrivalPos="274.68" arrivalSpeed="14.23" duration="53.00" routeLength="440.74" waitingTime="13.00" waitingCount="1" stopTime="0.00" timeLoss="24.02" rerouteNo="1" devices="tripinfo_h4538c1:1 routing_h4538c1:1 emissions_h4538c1:1" vType="default_016" speedFactor="1.11" vaporized="">
        <emissions CO_abs="3327.187938" CO2_abs="135669.258695" HC_abs="18.338745" PMx_abs="2.625272" NOx_abs="56.754762" fuel_abs="58.319142" electricity_abs="0"/>
    </tripinfo>
    <tripinfo id="h3688c1:1" depart="57625.00" departLane="201201950#1_1" departPos="5.10" departSpeed="0.00" departDelay="0.00" arrival="57758.00" arrivalLane="32978638#0_1" arrivalPos="49.29" arrivalSpeed="15.58" duration="133.00" routeLength="1089.75" waitingTime="49.00" waitingCount="1" stopTime="0.00" timeLoss="65.08" rerouteNo="1" devices="tripinfo_h3688c1:1 routing_h3688c1:1 emissions_h3688c1:1" vType="default_016" speedFactor="1.18" vaporized="">
        <emissions CO_abs="11046.565300" CO2_abs="406888.688977" HC_abs="59.642597" PMx_abs="8.173290" NOx_abs="171.291013" fuel_abs="174.906730" electricity_abs="0"/>
    </tripinfo>
    <tripinfo id="h5979c1:5" depart="57669.00" departLane="399835085#1_1" departPos="5.10" departSpeed="0.00" departDelay="0.00" arrival="57758.00" arrivalLane="-315358254#1_1" arrivalPos="137.16" arrivalSpeed="14.69" duration="89.00" routeLength="659.33" waitingTime="7.00" waitingCount="1" stopTime="0.00" timeLoss="21.78" rerouteNo="1" devices="tripinfo_h5979c1:5 routing_h5979c1:5 emissions_h5979c1:5" vType="default_016" speedFactor="1.09" vaporized="">
        <emissions CO_abs="4155.757002" CO2_abs="197282.717405" HC_abs="23.486804" PMx_abs="3.323709" NOx_abs="80.295662" fuel_abs="84.804538" electricity_abs="0"/>
    </tripinfo>
    <tripinfo id="h330c1:1" depart="57736.00" departLane="-32978638#0_1" departPos="5.10" departSpeed="0.00" departDelay="0.20" arrival="57768.00" arrivalLane="-266565295#5_1" arrivalPos="172.76" arrivalSpeed="14.01" duration="32.00" routeLength="370.53" waitingTime="0.00" waitingCount="0" stopTime="0.00" timeLoss="6.65" rerouteNo="1" devices="tripinfo_h330c1:1 routing_h330c1:1 emissions_h330c1:1" vType="default_016" speedFactor="1.09" vaporized="">
        <emissions CO_abs="1604.536699" CO2_abs="110331.937666" HC_abs="9.840499" PMx_abs="1.927243" NOx_abs="44.588982" fuel_abs="47.426963" electricity_abs="0"/>
    </tripinfo>
    <tripinfo id="h3326c1:2" depart="57656.00" departLane="22716069#0_1" departPos="5.10" departSpeed="0.00" departDelay="0.00" arrival="57769.00" arrivalLane="24634517#13_1" arrivalPos="111.62" arrivalSpeed="12.90" duration="113.00" routeLength="1312.81" waitingTime="0.00" waitingCount="0" stopTime="0.00" timeLoss="15.26" rerouteNo="1" devices="tripinfo_h3326c1:2 routing_h3326c1:2 emissions_h3326c1:2" vType="default_016" speedFactor="1.00" vaporized="">
        <emissions CO_abs="4041.751661" CO2_abs="314917.024604" HC_abs="25.730456" PMx_abs="5.192020" NOx_abs="125.360615" fuel_abs="135.369335" electricity_abs="0"/>
    </tripinfo>
    <tripinfo id="carIn30817:1" depart="57681.00" departLane="315358244_1" departPos="5.10" departSpeed="0.00" departDelay="0.20" arrival="57773.00" arrivalLane="447569997#1_1" arrivalPos="180.93" arrivalSpeed="7.76" duration="92.00" routeLength="718.04" waitingTime="18.00" waitingCount="1" stopTime="0.00" timeLoss="32.66" rerouteNo="1" devices="tripinfo_carIn30817:1 routing_carIn30817:1 emissions_carIn30817:1" vType="default_016" speedFactor="1.03" vaporized="">
        <emissions CO_abs="4946.210306" CO2_abs="206829.350245" HC_abs="27.362145" PMx_abs="3.814491" NOx_abs="85.681027" fuel_abs="88.908348" electricity_abs="0"/>
    </tripinfo>
    <tripinfo id="carIn121703:1" depart="57647.00" departLane="386687232#0_1" departPos="5.10" departSpeed="0.00" departDelay="0.30" arrival="57783.00" arrivalLane="-315358244_2" arrivalPos="33.95" arrivalSpeed="12.86" duration="136.00" routeLength="1157.39" waitingTime="25.00" waitingCount="2" stopTime="0.00" timeLoss="47.64" rerouteNo="1" devices="tripinfo_carIn121703:1 routing_carIn121703:1 emissions_carIn121703:1" vType="default_016" speedFactor="0.96" vaporized="">
        <emissions CO_abs="6584.999822" CO2_abs="327056.048412" HC_abs="37.656559" PMx_abs="5.913890" NOx_abs="134.463577" fuel_abs="140.588543" electricity_abs="0"/>
    </tripinfo>
    <tripinfo id="carIn60260:1" depart="57606.00" departLane="315358254#0_1" departPos="5.10" departSpeed="0.00" departDelay="0.90" arrival="57784.00" arrivalLane="399835085#1_1" arrivalPos="212.23" arrivalSpeed="5.91" duration="178.00" routeLength="430.98" waitingTime="108.00" waitingCount="1" stopTime="0.00" timeLoss="120.66" rerouteNo="1" devices="tripinfo_carIn60260:1 routing_carIn60260:1 emissions_carIn60260:1" vType="default_016" speedFactor="0.81" vaporized="">
        <emissions CO_abs="19713.456351" CO2_abs="383467.882334" HC_abs="98.708568" PMx_abs="8.677410" NOx_abs="170.321491" fuel_abs="164.845225" electricity_abs="0"/>
    </tripinfo>
    <tripinfo id="h645c1:1" depart="57622.00" departLane="266565295#5_1" departPos="5.10" departSpeed="0.00" departDelay="0.40" arrival="57784.00" arrivalLane="-315358244_1" arrivalPos="33.95" arrivalSpeed="14.25" duration="162.00" routeLength="1910.83" waitingTime="8.00" waitingCount="2" stopTime="0.00" timeLoss="32.74" rerouteNo="1" devices="tripinfo_h645c1:1 routing_h645c1:1 emissions_h645c1:1" vType="default_016" speedFactor="1.08" vaporized="">
        <emissions CO_abs="5121.658731" CO2_abs="402894.666054" HC_abs="32.752685" PMx_abs="6.806224" NOx_abs="160.377619" fuel_abs="173.186974" electricity_abs="0"/>
    </tripinfo>
    <tripinfo id="carIn27009:1" depart="57673.00" departLane="-447569998#1_1" departPos="5.10" departSpeed="0.00" departDelay="0.50" arrival="57786.00" arrivalLane="-26677539_1" arrivalPos="152.75" arrivalSpeed="7.42" duration="113.00" routeLength="699.63" waitingTime="11.00" waitingCount="1" stopTime="0.00" timeLoss="26.82" rerouteNo="1" devices="tripinfo_carIn27009:1 routing_carIn27009:1 emissions_carIn27009:1" vType="default_015" speedFactor="0.97" vaporized="">
        <emissions CO_abs="5153.771332" CO2_abs="203952.028483" HC_abs="28.143511" PMx_abs="3.403837" NOx_abs="83.435484" fuel_abs="87.672145" electricity_abs="0"/>
    </tripinfo>
    <tripinfo id="h3154c1:1" depart="57658.00" departLane="24634507_1" departPos="5.10" departSpeed="0.00" departDelay="0.00" arrival="57788.00" arrivalLane="-266565295#5_1" arrivalPos="172.76" arrivalSpeed="12.52" duration="130.00" routeLength="1206.22" waitingTime="15.00" waitingCount="1" stopTime="0.00" timeLoss="31.71" rerouteNo="1" devices="tripinfo_h3154c1:1 routing_h3154c1:1 emissions_h3154c1:1" vType="default_016" speedFactor="0.90" vaporized="">
        <emissions CO_abs="5349.594680" CO2_abs="299690.363334" HC_abs="31.323619" PMx_abs="4.958204" NOx_abs="120.077889" fuel_abs="128.825245" electricity_abs="0"/>
    </tripinfo>
    <tripinfo id="carIn12365:1" depart="57713.00" departLane="315358244_1" departPos="5.10" departSpeed="0.00" departDelay="0.50" arrival="57790.00" arrivalLane="447569997#1_1" arrivalPos="180.93" arrivalSpeed="6.09" duration="77.00" routeLength="718.04" waitingTime="0.00" waitingCount="0" stopTime="0.00" timeLoss="7.37" rerouteNo="1" devices="tripinfo_carIn12365:1 routing_carIn12365:1 emissions_carIn12365:1" vType="default_016" speedFactor="0.88" vaporized="">
        <emissions CO_abs="2353.443490" CO2_abs="145504.867120" HC_abs="14.073137" PMx_abs="2.264632" NOx_abs="57.673504" fuel_abs="62.546868" electricity_abs="0"/>
    </tripinfo>
    <tripinfo id="carIn107282:1" depart="57749.00" departLane="-447569998#1_1" departPos="5.10" departSpeed="0.00" departDelay="0.00" arrival="57794.00" arrivalLane="315358242#0_1" arrivalPos="165.37" arrivalSpeed="13.72" duration="45.00" routeLength="448.50" waitingTime="0.00" waitingCount="0" stopTime="0.00" timeLoss="5.19" rerouteNo="1" devices="tripinfo_carIn107282:1 routing_carIn107282:1 emissions_carIn107282:1" vType="default_016" speedFactor="1.06" vaporized="">
        <emissions CO_abs="1742.003625" CO2_abs="112728.525634" HC_abs="10.525461" PMx_abs="1.790641" NOx_abs="44.680679" fuel_abs="48.457493" electricity_abs="0"/>
    </tripinfo>
    <tripinfo id="carIn28951:1" depart="57606.00" departLane="10425609#0_1" departPos="5.10" departSpeed="0.00" departDelay="0.20" arrival="57798.00" arrivalLane="-128361102#1_1" arrivalPos="274.68" arrivalSpeed="12.45" duration="192.00" routeLength="2113.04" waitingTime="5.00" waitingCount="1" stopTime="0.00" timeLoss="29.11" rerouteNo="1" devices="tripinfo_carIn28951:1 routing_carIn28951:1 emissions_carIn28951:1" vType="default_016" speedFactor="0.95" vaporized="">
        <emissions CO_abs="5591.208712" CO2_abs="428575.125290" HC_abs="35.443513" PMx_abs="6.872670" NOx_abs="169.663268" fuel_abs="184.226435" electricity_abs="0"/>
    </tripinfo>
    <tripinfo id="carIn118591:1" depart="57689.00" departLane="315358244_1" departPos="5.10" departSpeed="0.00" departDelay="0.20" arrival="57798.00" arrivalLane="386687235_1" arrivalPos="80.84" arrivalSpeed="14.68" duration="109.00" routeLength="1186.14" waitingTime="14.00" waitingCount="1" stopTime="0.00" timeLoss="32.43" rerouteNo="1" devices="tripinfo_carIn118591:1 routing_carIn118591:1 emissions_carIn118591:1" vType="default_016" speedFactor="1.13" vaporized="">
        <emissions CO_abs="4722.547009" CO2_abs="271944.095126" HC_abs="27.715618" PMx_abs="4.691147" NOx_abs="108.733827" fuel_abs="116.897917" electricity_abs="0"/>
    </tripinfo>
    <tripinfo id="h3568c1:3" depart="57656.00" departLane="266565295#5_1" departPos="5.10" departSpeed="0.00" departDelay="0.80" arrival="57803.00" arrivalLane="-24634415_1" arrivalPos="62.03" arrivalSpeed="10.99" duration="147.00" routeLength="807.40" waitingTime="45.00" waitingCount="2" stopTime="0.00" timeLoss="68.54" rerouteNo="1" devices="tripinfo_h3568c1:3 routing_h3568c1:3 emissions_h3568c1:3" vType="default_016" speedFactor="0.83" vaporized="">
        <emissions CO_abs="10491.634309" CO2_abs="340916.971571" HC_abs="55.716775" PMx_abs="6.553430" NOx_abs="143.855537" fuel_abs="146.549196" electricity_abs="0"/>
    </tripinfo>
    <tripinfo id="S5R_frequency1.2" depart="57647.00" departLane="315358250#0_1" departPos="12.10" departSpeed="0.00" departDelay="35.40" arrival="57804.00" arrivalLane="386687235_1" arrivalPos="80.84" arrivalSpeed="13.48" duration="157.00" routeLength="1115.62" waitingTime="61.00" waitingCount="1" stopTime="0.00" timeLoss="75.54" rerouteNo="1" devices="tripinfo_S5R_frequency1.2 routing_S5R_frequency1.2 emissions_S5R_frequency1.2" vType="bus" speedFactor="1.00" vaporized="">
        <emissions CO_abs="2879.532816" CO2_abs="1384977.852158" HC_abs="648.081360" PMx_abs="300.230951" NOx_abs="11863.255069" fuel_abs="590.553987" electricity_abs="0"/>
    </tripinfo>
    <tripinfo id="carIn22761:1" depart="57616.00" departLane="-306240162#1_0" departPos="5.10" departSpeed="0.00" departDelay="2.10" arrival="57807.00" arrivalLane="399835085#1_1" arrivalPos="212.23" arrivalSpeed="8.97" duration="191.00" routeLength="1093.26" waitingTime="91.00" waitingCount="3" stopTime="0.00" timeLoss="125.48" rerouteNo="1" devices="tripinfo_carIn22761:1 routing_carIn22761:1 emissions_carIn22761:1" vType="default_016" speedFactor="1.19" vaporized="">
        <emissions CO_abs="19559.262672" CO2_abs="604190.780361" HC_abs="103.419304" PMx_abs="13.172129" NOx_abs="261.797180" fuel_abs="259.720877" electricity_abs="0"/>
    </tripinfo>
    <tripinfo id="h7181c1:1" depart="57660.00" departLane="315358254#0_1" departPos="5.10" departSpeed="0.00" departDelay="0.10" arrival="57810.00" arrivalLane="306240162#0_0" arrivalPos="220.43" arrivalSpeed="17.98" duration="150.00" routeLength="932.35" waitingTime="73.00" waitingCount="3" stopTime="0.00" timeLoss="102.97" rerouteNo="1" devices="tripinfo_h7181c1:1 routing_h7181c1:1 emissions_h7181c1:1" vType="default_016" speedFactor="1.11" vaporized="">
        <emissions CO_abs="15369.939084" CO2_abs="518281.866983" HC_abs="82.352302" PMx_abs="11.272579" NOx_abs="224.113494" fuel_abs="222.790451" electricity_abs="0"/>
    </tripinfo>
    <tripinfo id="carIn12858:1" depart="57661.00" departLane="128361109#1_1" departPos="5.10" departSpeed="0.00" departDelay="0.90" arrival="57818.00" arrivalLane="399835085#1_1" arrivalPos="212.23" arrivalSpeed="7.47" duration="157.00" routeLength="1738.12" waitingTime="11.00" waitingCount="1" stopTime="0.00" timeLoss="39.44" rerouteNo="1" devices="tripinfo_carIn12858:1 routing_carIn12858:1 emissions_carIn12858:1" vType="default_016" speedFactor="0.97" vaporized="">
        <emissions CO_abs="7889.240577" CO2_abs="481437.237059" HC_abs="47.362266" PMx_abs="8.981361" NOx_abs="196.524820" fuel_abs="206.949314" electricity_abs="0"/>
    </tripinfo>
    <tripinfo id="h11737c1:1" depart="57665.00" departLane="272042143_1" departPos="5.10" departSpeed="0.00" departDelay="1.50" arrival="57827.00" arrivalLane="-315358254#1_1" arrivalPos="137.16" arrivalSpeed="13.41" duration="162.00" routeLength="1596.88" waitingTime="25.00" waitingCount="1" stopTime="0.00" timeLoss="41.50" rerouteNo="1" devices="tripinfo_h11737c1:1 routing_h11737c1:1 emissions_h11737c1:1" vType="default_016" speedFactor="0.97" vaporized="">
        <emissions CO_abs="7278.266358" CO2_abs="372130.321164" HC_abs="41.818381" PMx_abs="6.417989" NOx_abs="150.023876" fuel_abs="159.964591" electricity_abs="0"/>
    </tripinfo>
    <tripinfo id="h17600c1:1" depart="57662.00" departLane="272042143_1" departPos="5.10" departSpeed="0.00" departDelay="0.30" arrival="57833.00" arrivalLane="201238729#3_1" arrivalPos="431.02" arrivalSpeed="12.89" duration="171.00" routeLength="2100.26" waitingTime="0.00" waitingCount="0" stopTime="0.00" timeLoss="12.44" rerouteNo="1" devices="tripinfo_h17600c1:1 routing_h17600c1:1 emissions_h17600c1:1" vType="default_016" speedFactor="0.96" vaporized="">
        <emissions CO_abs="3438.960321" CO2_abs="344186.912233" HC_abs="23.614629" PMx_abs="4.923926" NOx_abs="131.129567" fuel_abs="147.951632" electricity_abs="0"/>
    </tripinfo>
    <tripinfo id="carIn50326:1" depart="57651.00" departLane="128361102#0_1" departPos="5.10" departSpeed="0.00" departDelay="0.30" arrival="57835.00" arrivalLane="18809673#0_1" arrivalPos="473.56" arrivalSpeed="12.79" duration="184.00" routeLength="1591.07" waitingTime="21.00" waitingCount="2" stopTime="0.00" timeLoss="44.68" rerouteNo="1" devices="tripinfo_carIn50326:1 routing_carIn50326:1 emissions_carIn50326:1" vType="default_016" speedFactor="0.93" vaporized="">
        <emissions CO_abs="7457.389836" CO2_abs="390715.332765" HC_abs="42.977065" PMx_abs="6.258959" NOx_abs="155.572814" fuel_abs="167.954034" electricity_abs="0"/>
    </tripinfo>
    <tripinfo id="h19804c1:3" depart="57617.00" departLane="124812856#0_1" departPos="5.10" departSpeed="0.00" departDelay="1.50" arrival="57838.00" arrivalLane="-128361102#1_1" arrivalPos="274.68" arrivalSpeed="16.78" duration="221.00" routeLength="2232.46" waitingTime="52.00" waitingCount="2" stopTime="0.00" timeLoss="89.71" rerouteNo="1" devices="tripinfo_h19804c1:3 routing_h19804c1:3 emissions_h19804c1:3" vType="default_016" speedFactor="1.24" vaporized="">
        <emissions CO_abs="14749.055177" CO2_abs="696651.912120" HC_abs="83.548402" PMx_abs="13.649346" NOx_abs="289.885427" fuel_abs="299.462603" electricity_abs="0"/>
    </tripinfo>
    <tripinfo id="50R_frequency3.17" depart="57674.00" departLane="-18809673#6_1" departPos="12.10" departSpeed="0.00" departDelay="0.70" arrival="57850.00" arrivalLane="201956811#0_1" arrivalPos="40.40" arrivalSpeed="13.36" duration="176.00" routeLength="1954.47" waitingTime="3.00" waitingCount="1" stopTime="0.00" timeLoss="31.02" rerouteNo="1" devices="tripinfo_50R_frequency3.17 routing_50R_frequency3.17 emissions_50R_frequency3.17" vType="bus" speedFactor="1.00" vaporized="">
        <emissions CO_abs="3362.264293" CO2_abs="2133124.380642" HC_abs="702.033824" PMx_abs="360.696027" NOx_abs="16486.353998" fuel_abs="909.757122" electricity_abs="0"/>
    </tripinfo>
    <tripinfo id="carIn12775:1" depart="57676.00" departLane="10425609#0_1" departPos="5.10" departSpeed="0.00" departDelay="0.60" arrival="57860.00" arrivalLane="18809673#0_1" arrivalPos="473.56" arrivalSpeed="14.34" duration="184.00" routeLength="1959.45" waitingTime="27.00" waitingCount="1" stopTime="0.00" timeLoss="48.03" rerouteNo="1" devices="tripinfo_carIn12775:1 routing_carIn12775:1 emissions_carIn12775:1" vType="default_016" speedFactor="1.07" vaporized="">
        <emissions CO_abs="8634.026562" CO2_abs="487442.642581" HC_abs="50.546109" PMx_abs="8.268353" NOx_abs="194.365793" fuel_abs="209.532490" electricity_abs="0"/>
    </tripinfo>
    <tripinfo id="carIn86816:1" depart="57617.00" departLane="128361102#0_1" departPos="5.10" departSpeed="0.00" departDelay="0.80" arrival="57866.00" arrivalLane="201956811#0_1" arrivalPos="40.40" arrivalSpeed="12.30" duration="249.00" routeLength="2067.33" waitingTime="57.00" waitingCount="1" stopTime="0.00" timeLoss="79.55" rerouteNo="1" devices="tripinfo_carIn86816:1 routing_carIn86816:1 emissions_carIn86816:1" vType="default_016" speedFactor="0.90" vaporized="">
        <emissions CO_abs="14417.340221" CO2_abs="560591.384721" HC_abs="78.738258" PMx_abs="10.332425" NOx_abs="231.934065" fuel_abs="240.978566" electricity_abs="0"/>
    </tripinfo>
    <tripinfo id="carIn29531:1" depart="57667.00" departLane="128361102#0_1" departPos="5.10" departSpeed="0.00" departDelay="1.60" arrival="57868.00" arrivalLane="201956811#0_1" arrivalPos="40.40" arrivalSpeed="13.84" duration="201.00" routeLength="2067.33" waitingTime="21.00" waitingCount="1" stopTime="0.00" timeLoss="54.06" rerouteNo="1" devices="tripinfo_carIn29531:1 routing_carIn29531:1 emissions_carIn29531:1" vType="default_016" speedFactor="1.03" vaporized="">
        <emissions CO_abs="9286.164910" CO2_abs="516367.048406" HC_abs="54.371094" PMx_abs="9.312369" NOx_abs="211.461317" fuel_abs="221.965048" electricity_abs="0"/>
    </tripinfo>
    <tripinfo id="carIn46110:1" depart="57684.00" departLane="315358244_1" departPos="5.10" departSpeed="0.00" departDelay="1.20" arrival="57868.00" arrivalLane="32978638#0_1" arrivalPos="49.29" arrivalSpeed="14.68" duration="184.00" routeLength="1764.04" waitingTime="46.00" waitingCount="2" stopTime="0.00" timeLoss="72.06" rerouteNo="1" devices="tripinfo_carIn46110:1 routing_carIn46110:1 emissions_carIn46110:1" vType="default_016" speedFactor="1.14" vaporized="">
        <emissions CO_abs="10800.551466" CO2_abs="465042.939249" HC_abs="59.943648" PMx_abs="8.739367" NOx_abs="191.151054" fuel_abs="199.904599" electricity_abs="0"/>
    </tripinfo>
    <tripinfo id="carIn2912:1" depart="57670.00" departLane="128361102#0_1" departPos="5.10" departSpeed="0.00" departDelay="3.10" arrival="57869.00" arrivalLane="201956811#0_1" arrivalPos="40.40" arrivalSpeed="14.48" duration="199.00" routeLength="2067.33" waitingTime="18.00" waitingCount="2" stopTime="0.00" timeLoss="54.78" rerouteNo="1" devices="tripinfo_carIn2912:1 routing_carIn2912:1 emissions_carIn2912:1" vType="default_016" speedFactor="1.05" vaporized="">
        <emissions CO_abs="8822.323409" CO2_abs="532403.261690" HC_abs="52.639999" PMx_abs="9.262300" NOx_abs="215.459831" fuel_abs="228.858281" electricity_abs="0"/>
    </tripinfo>
    <tripinfo id="carIn102915:1" depart="57643.00" departLane="128361102#0_1" departPos="5.10" departSpeed="0.00" departDelay="0.40" arrival="57871.00" arrivalLane="201956811#0_1" arrivalPos="40.40" arrivalSpeed="13.80" duration="228.00" routeLength="2067.33" waitingTime="42.00" waitingCount="2" stopTime="0.00" timeLoss="76.60" rerouteNo="1" devices="tripinfo_carIn102915:1 routing_carIn102915:1 emissions_carIn102915:1" vType="default_016" speedFactor="1.00" vaporized="">
        <emissions CO_abs="12146.407386" CO2_abs="569042.141086" HC_abs="68.575621" PMx_abs="10.188497" NOx_abs="232.474212" fuel_abs="244.609675" electricity_abs="0"/>
    </tripinfo>
    <tripinfo id="h5216c1:1" depart="57664.00" departLane="224892339#0_1" departPos="5.10" departSpeed="0.00" departDelay="0.00" arrival="57872.00" arrivalLane="386687235_2" arrivalPos="80.84" arrivalSpeed="15.47" duration="208.00" routeLength="1823.78" waitingTime="57.00" waitingCount="2" stopTime="0.00" timeLoss="95.47" rerouteNo="1" devices="tripinfo_h5216c1:1 routing_h5216c1:1 emissions_h5216c1:1" vType="default_016" speedFactor="1.14" vaporized="">
        <emissions CO_abs="15034.265455" CO2_abs="630950.495385" HC_abs="83.238195" PMx_abs="12.342406" NOx_abs="263.630489" fuel_abs="271.221550" electricity_abs="0"/>
    </tripinfo>
    <tripinfo id="h2831c1:1" depart="57600.00" departLane="201089423#0_1" departPos="5.10" departSpeed="0.00" departDelay="0.00" arrival="57873.00" arrivalLane="-315358244_2" arrivalPos="33.95" arrivalSpeed="13.26" duration="273.00" routeLength="2672.18" waitingTime="46.00" waitingCount="3" stopTime="0.00" timeLoss="84.19" rerouteNo="1" devices="tripinfo_h2831c1:1 routing_h2831c1:1 emissions_h2831c1:1" vType="default_016" speedFactor="1.03" vaporized="">
        <emissions CO_abs="12891.626844" CO2_abs="676700.998256" HC_abs="74.397526" PMx_abs="11.676262" NOx_abs="272.051593" fuel_abs="290.887635" electricity_abs="0"/>
    </tripinfo>
    <tripinfo id="carIn129809:1" depart="57729.00" departLane="-447569998#1_1" departPos="5.10" departSpeed="0.00" departDelay="1.00" arrival="57873.00" arrivalLane="-315358244_1" arrivalPos="33.95" arrivalSpeed="13.08" duration="144.00" routeLength="706.49" waitingTime="67.00" waitingCount="2" stopTime="0.00" timeLoss="83.79" rerouteNo="1" devices="tripinfo_carIn129809:1 routing_carIn129809:1 emissions_carIn129809:1" vType="default_015" speedFactor="1.00" vaporized="">
        <emissions CO_abs="12372.280056" CO2_abs="331483.135276" HC_abs="64.090158" PMx_abs="6.835240" NOx_abs="142.422409" fuel_abs="142.495091" electricity_abs="0"/>
    </tripinfo>
    <tripinfo id="h9953c2:3" depart="57682.00" departLane="-54169231#2_1" departPos="5.10" departSpeed="0.00" departDelay="0.00" arrival="57874.00" arrivalLane="386687235_1" arrivalPos="80.84" arrivalSpeed="10.69" duration="192.00" routeLength="1535.60" waitingTime="21.00" waitingCount="1" stopTime="0.00" timeLoss="42.06" rerouteNo="1" devices="tripinfo_h9953c2:3 routing_h9953c2:3 emissions_h9953c2:3" vType="default_016" speedFactor="0.84" vaporized="">
        <emissions CO_abs="8434.924283" CO2_abs="383631.183795" HC_abs="47.248694" PMx_abs="6.302740" NOx_abs="154.584539" fuel_abs="164.909447" electricity_abs="0"/>
    </tripinfo>
    <tripinfo id="h6541c1:3" depart="57727.00" departLane="201950247#3_1" departPos="5.10" departSpeed="0.00" departDelay="0.00" arrival="57874.00" arrivalLane="32978638#0_1" arrivalPos="49.29" arrivalSpeed="12.83" duration="147.00" routeLength="1176.17" waitingTime="20.00" waitingCount="2" stopTime="0.00" timeLoss="41.95" rerouteNo="1" devices="tripinfo_h6541c1:3 routing_h6541c1:3 emissions_h6541c1:3" vType="default_016" speedFactor="0.98" vaporized="">
        <emissions CO_abs="6371.212325" CO2_abs="308366.639683" HC_abs="36.188373" PMx_abs="5.343900" NOx_abs="125.714925" fuel_abs="132.555149" electricity_abs="0"/>
    </tripinfo>
    <tripinfo id="h5170c2:1" depart="57631.00" departLane="201201953#4_1" departPos="5.10" departSpeed="0.00" departDelay="0.00" arrival="57875.00" arrivalLane="-266565295#5_1" arrivalPos="172.76" arrivalSpeed="14.72" duration="244.00" routeLength="3097.92" waitingTime="9.00" waitingCount="1" stopTime="0.00" timeLoss="39.22" rerouteNo="1" devices="tripinfo_h5170c2:1 routing_h5170c2:1 emissions_h5170c2:1" vType="default_016" speedFactor="1.12" vaporized="">
        <emissions CO_abs="7967.243307" CO2_abs="655120.624811" HC_abs="51.440711" PMx_abs="10.946540" NOx_abs="258.488288" fuel_abs="281.607992" electricity_abs="0"/>
    </tripinfo>