<?xml version="1.0" encoding="UTF-8"?>

<!-- generated on 2021-10-26 14:28:11 by Eclipse SUMO sumo Version 1.10.0
<configuration xmlns:xsi="http://www.w3.org/2001/XMLSchema-instance" xsi:noNamespaceSchemaLocation="http://sumo.dlr.de/xsd/sumoConfiguration.xsd">

    <input>
        <net-file value="/Users/behradkoohy/sumo-scratchpad/RESCO/environments/ingolstadt21/ingolstadt21.net.xml"/>
        <route-files value="/Users/behradkoohy/sumo-scratchpad/RESCO/environments/ingolstadt21/ingolstadt21.rou.xml"/>
    </input>

    <output>
        <tripinfo-output value="/Users/behradkoohy/sumo-scratchpad/RESCO/logs/STOCHASTIC-tr0-ingolstadt21-21-mplight-wait/tripinfo_56.xml"/>
        <tripinfo-output.write-unfinished value="true"/>
    </output>

    <time>
        <begin value="57600"/>
        <end value="61200"/>
    </time>

    <processing>
        <time-to-teleport value="-1"/>
    </processing>

    <report>
        <no-warnings value="true"/>
        <no-step-log value="true"/>
    </report>

    <emissions>
        <device.emissions.probability value="1"/>
    </emissions>

    <traci_server>
        <remote-port value="60328"/>
    </traci_server>

    <random_number>
        <random value="true"/>
    </random_number>

</configuration>
-->

<tripinfos xmlns:xsi="http://www.w3.org/2001/XMLSchema-instance" xsi:noNamespaceSchemaLocation="http://sumo.dlr.de/xsd/tripinfo_file.xsd">
    <tripinfo id="h15454c2:3" depart="57612.00" departLane="24608844_1" departPos="5.10" departSpeed="0.00" departDelay="0.50" arrival="57652.00" arrivalLane="32978638#0_1" arrivalPos="49.29" arrivalSpeed="13.99" duration="40.00" routeLength="354.79" waitingTime="0.00" waitingCount="0" stopTime="0.00" timeLoss="7.09" rerouteNo="1" devices="tripinfo_h15454c2:3 routing_h15454c2:3 emissions_h15454c2:3" vType="default_016" speedFactor="1.04" vaporized="">
        <emissions CO_abs="2131.758205" CO2_abs="118989.026877" HC_abs="12.495476" PMx_abs="2.126882" NOx_abs="49.152879" fuel_abs="51.148478" electricity_abs="0"/>
    </tripinfo>
    <tripinfo id="carIn53971:1" depart="57640.00" departLane="272042143_1" departPos="5.10" departSpeed="0.00" departDelay="0.80" arrival="57689.00" arrivalLane="24634414#1_1" arrivalPos="162.19" arrivalSpeed="8.65" duration="49.00" routeLength="493.04" waitingTime="0.00" waitingCount="0" stopTime="0.00" timeLoss="7.87" rerouteNo="1" devices="tripinfo_carIn53971:1 routing_carIn53971:1 emissions_carIn53971:1" vType="default_016" speedFactor="1.12" vaporized="">
        <emissions CO_abs="2372.469620" CO2_abs="145375.103315" HC_abs="14.173836" PMx_abs="2.595519" NOx_abs="59.697038" fuel_abs="62.490596" electricity_abs="0"/>
    </tripinfo>
    <tripinfo id="carIn60260:1" depart="57606.00" departLane="315358254#0_1" departPos="5.10" departSpeed="0.00" departDelay="0.90" arrival="57695.00" arrivalLane="399835085#1_1" arrivalPos="212.23" arrivalSpeed="5.32" duration="89.00" routeLength="430.98" waitingTime="20.00" waitingCount="1" stopTime="0.00" timeLoss="29.64" rerouteNo="1" devices="tripinfo_carIn60260:1 routing_carIn60260:1 emissions_carIn60260:1" vType="default_016" speedFactor="0.78" vaporized="">
        <emissions CO_abs="5441.147662" CO2_abs="154989.436441" HC_abs="28.341154" PMx_abs="2.879098" NOx_abs="65.174136" fuel_abs="66.625637" electricity_abs="0"/>
    </tripinfo>
    <tripinfo id="h3688c1:1" depart="57625.00" departLane="201201950#1_1" departPos="5.10" departSpeed="0.00" departDelay="0.00" arrival="57714.00" arrivalLane="32978638#0_1" arrivalPos="49.29" arrivalSpeed="12.84" duration="89.00" routeLength="1089.75" waitingTime="0.00" waitingCount="0" stopTime="0.00" timeLoss="10.28" rerouteNo="1" devices="tripinfo_h3688c1:1 routing_h3688c1:1 emissions_h3688c1:1" vType="default_016" speedFactor="1.01" vaporized="">
        <emissions CO_abs="2891.564807" CO2_abs="232313.625725" HC_abs="18.518512" PMx_abs="3.859959" NOx_abs="92.442082" fuel_abs="99.861562" electricity_abs="0"/>
    </tripinfo>
    <tripinfo id="h7800c1:5" depart="57696.00" departLane="-447569998#1_1" departPos="5.10" departSpeed="0.00" departDelay="0.00" arrival="57720.00" arrivalLane="-447569998#1_1" arrivalPos="180.76" arrivalSpeed="8.43" duration="24.00" routeLength="175.66" waitingTime="0.00" waitingCount="0" stopTime="0.00" timeLoss="3.73" rerouteNo="1" devices="tripinfo_h7800c1:5 routing_h7800c1:5 emissions_h7800c1:5" vType="default_016" speedFactor="1.09" vaporized="">
        <emissions CO_abs="1099.713485" CO2_abs="48994.143881" HC_abs="6.132594" PMx_abs="0.801758" NOx_abs="19.897457" fuel_abs="21.060852" electricity_abs="0"/>
    </tripinfo>
    <tripinfo id="carIn22761:1" depart="57616.00" departLane="-306240162#1_0" departPos="5.10" departSpeed="0.00" departDelay="2.10" arrival="57724.00" arrivalLane="399835085#1_1" arrivalPos="212.23" arrivalSpeed="7.28" duration="108.00" routeLength="1093.26" waitingTime="7.00" waitingCount="1" stopTime="0.00" timeLoss="31.23" rerouteNo="1" devices="tripinfo_carIn22761:1 routing_carIn22761:1 emissions_carIn22761:1" vType="default_016" speedFactor="1.02" vaporized="">
        <emissions CO_abs="5022.273962" CO2_abs="302540.878332" HC_abs="30.013710" PMx_abs="5.704604" NOx_abs="125.133673" fuel_abs="130.049234" electricity_abs="0"/>
    </tripinfo>
    <tripinfo id="h3568c1:3" depart="57656.00" departLane="266565295#5_1" departPos="5.10" departSpeed="0.00" departDelay="0.80" arrival="57735.00" arrivalLane="-24634415_1" arrivalPos="62.03" arrivalSpeed="12.49" duration="79.00" routeLength="807.40" waitingTime="0.00" waitingCount="0" stopTime="0.00" timeLoss="12.26" rerouteNo="1" devices="tripinfo_h3568c1:3 routing_h3568c1:3 emissions_h3568c1:3" vType="default_016" speedFactor="0.97" vaporized="">
        <emissions CO_abs="3297.189921" CO2_abs="209621.224295" HC_abs="19.914198" PMx_abs="3.563079" NOx_abs="84.781904" fuel_abs="90.107477" electricity_abs="0"/>
    </tripinfo>
    <tripinfo id="h4538c1:1" depart="57701.00" departLane="-10427692#1_1" departPos="5.10" departSpeed="0.00" departDelay="0.00" arrival="57736.00" arrivalLane="-128361102#1_1" arrivalPos="274.68" arrivalSpeed="15.04" duration="35.00" routeLength="440.74" waitingTime="0.00" waitingCount="0" stopTime="0.00" timeLoss="5.81" rerouteNo="1" devices="tripinfo_h4538c1:1 routing_h4538c1:1 emissions_h4538c1:1" vType="default_016" speedFactor="1.11" vaporized="">
        <emissions CO_abs="1565.978431" CO2_abs="119116.863603" HC_abs="9.865395" PMx_abs="2.031341" NOx_abs="47.580917" fuel_abs="51.203183" electricity_abs="0"/>
    </tripinfo>
    <tripinfo id="h317c2:1" depart="57707.00" departLane="-32978638#0_1" departPos="5.10" departSpeed="0.00" departDelay="0.10" arrival="57748.00" arrivalLane="-266565295#5_1" arrivalPos="172.76" arrivalSpeed="10.70" duration="41.00" routeLength="370.53" waitingTime="0.00" waitingCount="0" stopTime="0.00" timeLoss="9.08" rerouteNo="1" devices="tripinfo_h317c2:1 routing_h317c2:1 emissions_h317c2:1" vType="default_016" speedFactor="0.85" vaporized="">
        <emissions CO_abs="1838.150019" CO2_abs="104630.749920" HC_abs="10.801726" PMx_abs="1.752704" NOx_abs="42.379862" fuel_abs="44.976603" electricity_abs="0"/>
    </tripinfo>
    <tripinfo id="h7181c1:1" depart="57660.00" departLane="315358254#0_1" departPos="5.10" departSpeed="0.00" departDelay="0.10" arrival="57751.00" arrivalLane="306240162#0_0" arrivalPos="220.43" arrivalSpeed="15.02" duration="91.00" routeLength="932.35" waitingTime="17.00" waitingCount="2" stopTime="0.00" timeLoss="36.18" rerouteNo="1" devices="tripinfo_h7181c1:1 routing_h7181c1:1 emissions_h7181c1:1" vType="default_016" speedFactor="0.94" vaporized="">
        <emissions CO_abs="6032.663304" CO2_abs="315611.362542" HC_abs="34.965960" PMx_abs="6.232230" NOx_abs="131.573778" fuel_abs="135.668000" electricity_abs="0"/>
    </tripinfo>
    <tripinfo id="carIn30817:1" depart="57681.00" departLane="315358244_1" departPos="5.10" departSpeed="0.00" departDelay="0.20" arrival="57751.00" arrivalLane="447569997#1_1" arrivalPos="180.93" arrivalSpeed="8.46" duration="70.00" routeLength="718.04" waitingTime="3.00" waitingCount="1" stopTime="0.00" timeLoss="14.36" rerouteNo="1" devices="tripinfo_carIn30817:1 routing_carIn30817:1 emissions_carIn30817:1" vType="default_016" speedFactor="1.11" vaporized="">
        <emissions CO_abs="2824.531853" CO2_abs="178647.961589" HC_abs="17.008904" PMx_abs="3.093487" NOx_abs="72.331691" fuel_abs="76.793302" electricity_abs="0"/>
    </tripinfo>
    <tripinfo id="carIn121703:1" depart="57647.00" departLane="386687232#0_1" departPos="5.10" departSpeed="0.00" departDelay="0.30" arrival="57762.00" arrivalLane="-315358244_1" arrivalPos="33.95" arrivalSpeed="16.23" duration="115.00" routeLength="1157.39" waitingTime="29.00" waitingCount="2" stopTime="0.00" timeLoss="48.36" rerouteNo="1" devices="tripinfo_carIn121703:1 routing_carIn121703:1 emissions_carIn121703:1" vType="default_016" speedFactor="1.26" vaporized="">
        <emissions CO_abs="6945.172755" CO2_abs="319937.456635" HC_abs="38.911251" PMx_abs="6.186748" NOx_abs="132.257721" fuel_abs="137.528494" electricity_abs="0"/>
    </tripinfo>
    <tripinfo id="h5979c1:5" depart="57669.00" departLane="399835085#1_1" departPos="5.10" departSpeed="0.00" departDelay="0.00" arrival="57763.00" arrivalLane="-315358254#1_1" arrivalPos="137.16" arrivalSpeed="11.18" duration="94.00" routeLength="659.33" waitingTime="0.00" waitingCount="0" stopTime="0.00" timeLoss="12.32" rerouteNo="1" devices="tripinfo_h5979c1:5 routing_h5979c1:5 emissions_h5979c1:5" vType="default_016" speedFactor="0.90" vaporized="">
        <emissions CO_abs="4033.713858" CO2_abs="175890.753613" HC_abs="22.408017" PMx_abs="2.908908" NOx_abs="71.745404" fuel_abs="75.609236" electricity_abs="0"/>
    </tripinfo>
    <tripinfo id="h3154c1:1" depart="57658.00" departLane="24634507_1" departPos="5.10" departSpeed="0.00" departDelay="0.00" arrival="57776.00" arrivalLane="-266565295#5_1" arrivalPos="172.76" arrivalSpeed="13.60" duration="118.00" routeLength="1206.22" waitingTime="11.00" waitingCount="1" stopTime="0.00" timeLoss="32.56" rerouteNo="1" devices="tripinfo_h3154c1:1 routing_h3154c1:1 emissions_h3154c1:1" vType="default_016" speedFactor="1.05" vaporized="">
        <emissions CO_abs="5626.569380" CO2_abs="335094.816386" HC_abs="33.409957" PMx_abs="5.923654" NOx_abs="136.128511" fuel_abs="144.043404" electricity_abs="0"/>
    </tripinfo>
    <tripinfo id="carIn27009:1" depart="57673.00" departLane="-447569998#1_1" departPos="5.10" departSpeed="0.00" departDelay="0.50" arrival="57778.00" arrivalLane="-26677539_1" arrivalPos="152.75" arrivalSpeed="6.86" duration="105.00" routeLength="699.63" waitingTime="1.00" waitingCount="1" stopTime="0.00" timeLoss="16.15" rerouteNo="1" devices="tripinfo_carIn27009:1 routing_carIn27009:1 emissions_carIn27009:1" vType="default_015" speedFactor="0.95" vaporized="">
        <emissions CO_abs="4658.252946" CO2_abs="205376.769826" HC_abs="25.920389" PMx_abs="3.353199" NOx_abs="83.626606" fuel_abs="88.284243" electricity_abs="0"/>
    </tripinfo>
    <tripinfo id="h3326c1:2" depart="57656.00" departLane="22716069#0_1" departPos="5.10" departSpeed="0.00" departDelay="0.00" arrival="57789.00" arrivalLane="24634517#13_1" arrivalPos="111.62" arrivalSpeed="11.49" duration="133.00" routeLength="1312.81" waitingTime="0.00" waitingCount="0" stopTime="0.00" timeLoss="17.37" rerouteNo="1" devices="tripinfo_h3326c1:2 routing_h3326c1:2 emissions_h3326c1:2" vType="default_016" speedFactor="0.84" vaporized="">
        <emissions CO_abs="4452.104699" CO2_abs="294787.963085" HC_abs="27.115559" PMx_abs="4.751061" NOx_abs="117.820873" fuel_abs="126.717339" electricity_abs="0"/>
    </tripinfo>
    <tripinfo id="carIn80064:1" depart="57603.00" departLane="128361109#1_1" departPos="5.10" departSpeed="0.00" departDelay="0.40" arrival="57791.00" arrivalLane="-315358254#1_1" arrivalPos="137.16" arrivalSpeed="9.56" duration="188.00" routeLength="1587.97" waitingTime="31.00" waitingCount="4" stopTime="0.00" timeLoss="65.16" rerouteNo="1" devices="tripinfo_carIn80064:1 routing_carIn80064:1 emissions_carIn80064:1" vType="default_016" speedFactor="0.73" vaporized="">
        <emissions CO_abs="9152.096463" CO2_abs="467376.221615" HC_abs="52.390279" PMx_abs="8.339200" NOx_abs="190.751901" fuel_abs="200.906646" electricity_abs="0"/>
    </tripinfo>
    <tripinfo id="carIn86816:1" depart="57617.00" departLane="128361102#0_1" departPos="5.10" departSpeed="0.00" departDelay="0.80" arrival="57793.00" arrivalLane="201956811#0_1" arrivalPos="40.40" arrivalSpeed="13.49" duration="176.00" routeLength="2067.33" waitingTime="7.00" waitingCount="1" stopTime="0.00" timeLoss="28.91" rerouteNo="1" devices="tripinfo_carIn86816:1 routing_carIn86816:1 emissions_carIn86816:1" vType="default_016" speedFactor="1.02" vaporized="">
        <emissions CO_abs="5339.675361" CO2_abs="423538.186046" HC_abs="34.136792" PMx_abs="6.912756" NOx_abs="167.403666" fuel_abs="182.061015" electricity_abs="0"/>
    </tripinfo>
    <tripinfo id="carIn12365:1" depart="57713.00" departLane="315358244_1" departPos="5.10" departSpeed="0.00" departDelay="0.50" arrival="57799.00" arrivalLane="447569997#1_1" arrivalPos="180.93" arrivalSpeed="6.77" duration="86.00" routeLength="718.04" waitingTime="8.00" waitingCount="1" stopTime="0.00" timeLoss="19.90" rerouteNo="1" devices="tripinfo_carIn12365:1 routing_carIn12365:1 emissions_carIn12365:1" vType="default_016" speedFactor="0.93" vaporized="">
        <emissions CO_abs="3747.001961" CO2_abs="182918.007776" HC_abs="21.325562" PMx_abs="3.213186" NOx_abs="75.054210" fuel_abs="78.629414" electricity_abs="0"/>
    </tripinfo>
    <tripinfo id="h645c1:1" depart="57622.00" departLane="266565295#5_1" departPos="5.10" departSpeed="0.00" departDelay="0.40" arrival="57823.00" arrivalLane="-315358244_1" arrivalPos="33.95" arrivalSpeed="12.41" duration="201.00" routeLength="1910.83" waitingTime="32.00" waitingCount="3" stopTime="0.00" timeLoss="58.58" rerouteNo="1" devices="tripinfo_h645c1:1 routing_h645c1:1 emissions_h645c1:1" vType="default_016" speedFactor="0.97" vaporized="">
        <emissions CO_abs="7858.143856" CO2_abs="438795.744525" HC_abs="45.998110" PMx_abs="7.371420" NOx_abs="175.553593" fuel_abs="188.621195" electricity_abs="0"/>
    </tripinfo>
    <tripinfo id="randUni15030:1" depart="57735.00" departLane="386687232#0_1" departPos="5.10" departSpeed="0.00" departDelay="0.10" arrival="57823.00" arrivalLane="26677539_1" arrivalPos="151.98" arrivalSpeed="8.91" duration="88.00" routeLength="919.89" waitingTime="0.00" waitingCount="0" stopTime="0.00" timeLoss="9.94" rerouteNo="1" devices="tripinfo_randUni15030:1 routing_randUni15030:1 emissions_randUni15030:1" vType="random_016" speedFactor="1.08" vaporized="">
        <emissions CO_abs="2961.837393" CO2_abs="197613.417883" HC_abs="18.062690" PMx_abs="3.332925" NOx_abs="79.566722" fuel_abs="84.945744" electricity_abs="0"/>
    </tripinfo>
    <tripinfo id="h12244c1:3" depart="57612.00" departLane="315358244_1" departPos="5.10" departSpeed="0.00" departDelay="0.40" arrival="57825.00" arrivalLane="386687235_1" arrivalPos="80.84" arrivalSpeed="14.49" duration="213.00" routeLength="1186.14" waitingTime="114.00" waitingCount="2" stopTime="0.00" timeLoss="133.26" rerouteNo="1" devices="tripinfo_h12244c1:3 routing_h12244c1:3 emissions_h12244c1:3" vType="default_016" speedFactor="1.08" vaporized="">
        <emissions CO_abs="21157.035824" CO2_abs="543405.670897" HC_abs="109.035343" PMx_abs="11.551353" NOx_abs="234.073802" fuel_abs="233.594885" electricity_abs="0"/>
    </tripinfo>
    <tripinfo id="h9563c2:5" depart="57631.00" departLane="315358244_1" departPos="5.10" departSpeed="0.00" departDelay="0.70" arrival="57827.00" arrivalLane="386687235_1" arrivalPos="80.84" arrivalSpeed="13.98" duration="196.00" routeLength="1186.14" waitingTime="96.00" waitingCount="2" stopTime="0.00" timeLoss="116.99" rerouteNo="1" devices="tripinfo_h9563c2:5 routing_h9563c2:5 emissions_h9563c2:5" vType="default_016" speedFactor="1.09" vaporized="">
        <emissions CO_abs="18452.042370" CO2_abs="505904.746089" HC_abs="95.852421" PMx_abs="10.536631" NOx_abs="216.250107" fuel_abs="217.473584" electricity_abs="0"/>
    </tripinfo>
    <tripinfo id="carIn12858:1" depart="57661.00" departLane="128361109#1_1" departPos="5.10" departSpeed="0.00" departDelay="0.90" arrival="57831.00" arrivalLane="399835085#1_1" arrivalPos="212.23" arrivalSpeed="8.10" duration="170.00" routeLength="1738.12" waitingTime="35.00" waitingCount="2" stopTime="0.00" timeLoss="64.67" rerouteNo="1" devices="tripinfo_carIn12858:1 routing_carIn12858:1 emissions_carIn12858:1" vType="default_016" speedFactor="1.09" vaporized="">
        <emissions CO_abs="11930.361655" CO2_abs="564736.668380" HC_abs="67.754840" PMx_abs="11.485497" NOx_abs="236.985057" fuel_abs="242.756972" electricity_abs="0"/>
    </tripinfo>
    <tripinfo id="carIn73855:1" depart="57743.00" departLane="386687232#0_1" departPos="5.10" departSpeed="0.00" departDelay="0.50" arrival="57841.00" arrivalLane="-315358244_1" arrivalPos="33.95" arrivalSpeed="14.85" duration="98.00" routeLength="1157.39" waitingTime="8.00" waitingCount="1" stopTime="0.00" timeLoss="19.87" rerouteNo="1" devices="tripinfo_carIn73855:1 routing_carIn73855:1 emissions_carIn73855:1" vType="default_016" speedFactor="1.09" vaporized="">
        <emissions CO_abs="3666.366940" CO2_abs="246504.970647" HC_abs="22.416899" PMx_abs="4.321214" NOx_abs="99.261673" fuel_abs="105.962006" electricity_abs="0"/>
    </tripinfo>
    <tripinfo id="h16072c2:3" depart="57663.00" departLane="315358254#0_1" departPos="5.10" departSpeed="0.00" departDelay="2.50" arrival="57847.00" arrivalLane="386687235_1" arrivalPos="80.84" arrivalSpeed="11.86" duration="184.00" routeLength="1611.92" waitingTime="34.00" waitingCount="3" stopTime="0.00" timeLoss="59.56" rerouteNo="1" devices="tripinfo_h16072c2:3 routing_h16072c2:3 emissions_h16072c2:3" vType="default_016" speedFactor="0.95" vaporized="">
        <emissions CO_abs="8219.649262" CO2_abs="399693.702444" HC_abs="46.734889" PMx_abs="6.846883" NOx_abs="161.222946" fuel_abs="171.813412" electricity_abs="0"/>
    </tripinfo>
    <tripinfo id="carIn118591:1" depart="57689.00" departLane="315358244_1" departPos="5.10" departSpeed="0.00" departDelay="0.20" arrival="57853.00" arrivalLane="386687235_1" arrivalPos="80.84" arrivalSpeed="13.82" duration="164.00" routeLength="1186.14" waitingTime="55.00" waitingCount="3" stopTime="0.00" timeLoss="79.04" rerouteNo="1" devices="tripinfo_carIn118591:1 routing_carIn118591:1 emissions_carIn118591:1" vType="default_016" speedFactor="1.02" vaporized="">
        <emissions CO_abs="11565.106790" CO2_abs="408007.790484" HC_abs="62.207022" PMx_abs="7.890833" NOx_abs="170.820379" fuel_abs="175.388618" electricity_abs="0"/>
    </tripinfo>
    <tripinfo id="h330c1:1" depart="57736.00" departLane="-32978638#0_1" departPos="5.10" departSpeed="0.00" departDelay="0.20" arrival="57854.00" arrivalLane="-266565295#5_1" arrivalPos="172.76" arrivalSpeed="13.65" duration="118.00" routeLength="370.53" waitingTime="81.00" waitingCount="1" stopTime="0.00" timeLoss="91.93" rerouteNo="1" devices="tripinfo_h330c1:1 routing_h330c1:1 emissions_h330c1:1" vType="default_016" speedFactor="1.07" vaporized="">
        <emissions CO_abs="14770.642927" CO2_abs="329861.737995" HC_abs="74.957673" PMx_abs="7.388720" NOx_abs="145.083411" fuel_abs="141.799340" electricity_abs="0"/>
    </tripinfo>
    <tripinfo id="randUni31145:1" depart="57814.00" departLane="10425609#0_1" departPos="5.10" departSpeed="0.00" departDelay="0.30" arrival="57854.00" arrivalLane="201956810_1" arrivalPos="71.65" arrivalSpeed="13.24" duration="40.00" routeLength="255.78" waitingTime="9.00" waitingCount="1" stopTime="0.00" timeLoss="20.04" rerouteNo="1" devices="tripinfo_randUni31145:1 routing_randUni31145:1 emissions_randUni31145:1" vType="random_016" speedFactor="0.97" vaporized="">
        <emissions CO_abs="2820.534282" CO2_abs="119604.078154" HC_abs="15.671947" PMx_abs="2.380927" NOx_abs="51.006757" fuel_abs="51.413068" electricity_abs="0"/>
    </tripinfo>
    <tripinfo id="carIn126378:1" depart="57746.00" departLane="386687232#0_1" departPos="5.10" departSpeed="0.00" departDelay="1.80" arrival="57856.00" arrivalLane="-315358244_1" arrivalPos="33.95" arrivalSpeed="11.98" duration="110.00" routeLength="1157.39" waitingTime="5.00" waitingCount="1" stopTime="0.00" timeLoss="19.08" rerouteNo="1" devices="tripinfo_carIn126378:1 routing_carIn126378:1 emissions_carIn126378:1" vType="default_016" speedFactor="0.93" vaporized="">
        <emissions CO_abs="3245.086310" CO2_abs="234960.967406" HC_abs="20.226766" PMx_abs="3.650334" NOx_abs="92.154906" fuel_abs="101.000190" electricity_abs="0"/>
    </tripinfo>
    <tripinfo id="randUni2407:1" depart="57820.00" departLane="10425609#0_1" departPos="5.10" departSpeed="0.00" departDelay="0.80" arrival="57856.00" arrivalLane="201956810_1" arrivalPos="71.65" arrivalSpeed="15.56" duration="36.00" routeLength="255.78" waitingTime="5.00" waitingCount="1" stopTime="0.00" timeLoss="18.89" rerouteNo="1" devices="tripinfo_randUni2407:1 routing_randUni2407:1 emissions_randUni2407:1" vType="random_016" speedFactor="1.17" vaporized="">
        <emissions CO_abs="2282.239449" CO2_abs="114050.350668" HC_abs="13.105810" PMx_abs="2.290085" NOx_abs="48.761095" fuel_abs="49.025362" electricity_abs="0"/>
    </tripinfo>
    <tripinfo id="h5938c1:1" depart="57740.00" departLane="-26677542#0_1" departPos="5.10" departSpeed="0.00" departDelay="0.00" arrival="57860.00" arrivalLane="447569997#1_1" arrivalPos="180.93" arrivalSpeed="7.74" duration="120.00" routeLength="1093.64" waitingTime="17.00" waitingCount="1" stopTime="0.00" timeLoss="30.66" rerouteNo="1" devices="tripinfo_h5938c1:1 routing_h5938c1:1 emissions_h5938c1:1" vType="default_016" speedFactor="1.08" vaporized="">
        <emissions CO_abs="5987.580591" CO2_abs="291461.336289" HC_abs="33.993854" PMx_abs="5.101065" NOx_abs="118.212922" fuel_abs="125.288175" electricity_abs="0"/>
    </tripinfo>
    <tripinfo id="carIn107282:1" depart="57749.00" departLane="-447569998#1_1" departPos="5.10" departSpeed="0.00" departDelay="0.00" arrival="57868.00" arrivalLane="315358242#0_1" arrivalPos="165.37" arrivalSpeed="12.31" duration="119.00" routeLength="448.50" waitingTime="65.00" waitingCount="1" stopTime="0.00" timeLoss="72.60" rerouteNo="1" devices="tripinfo_carIn107282:1 routing_carIn107282:1 emissions_carIn107282:1" vType="default_016" speedFactor="0.90" vaporized="">
        <emissions CO_abs="12592.380135" CO2_abs="285701.861923" HC_abs="63.987908" PMx_abs="6.039922" NOx_abs="123.937334" fuel_abs="122.816434" electricity_abs="0"/>
    </tripinfo>
    <tripinfo id="carIn107084:1" depart="57601.00" departLane="124812856#0_1" departPos="5.10" departSpeed="0.00" departDelay="0.70" arrival="57872.00" arrivalLane="-128361102#1_1" arrivalPos="274.68" arrivalSpeed="15.72" duration="271.00" routeLength="2232.46" waitingTime="104.00" waitingCount="2" stopTime="0.00" timeLoss="128.73" rerouteNo="1" devices="tripinfo_carIn107084:1 routing_carIn107084:1 emissions_carIn107084:1" vType="default_016" speedFactor="1.14" vaporized="">
        <emissions CO_abs="21813.884669" CO2_abs="732307.271722" HC_abs="116.127304" PMx_abs="14.555658" NOx_abs="306.764186" fuel_abs="314.794365" electricity_abs="0"/>
    </tripinfo>
    <tripinfo id="carIn82220:1" depart="57619.00" departLane="-306240162#1_0" departPos="5.10" departSpeed="0.00" departDelay="3.50" arrival="57872.00" arrivalLane="386687235_2" arrivalPos="80.84" arrivalSpeed="14.55" duration="253.00" routeLength="2257.41" waitingTime="46.00" waitingCount="4" stopTime="0.00" timeLoss="119.26" rerouteNo="1" devices="tripinfo_carIn82220:1 routing_carIn82220:1 emissions_carIn82220:1" vType="default_016" speedFactor="1.11" vaporized="">
        <emissions CO_abs="13809.095295" CO2_abs="697177.424304" HC_abs="79.346012" PMx_abs="13.344457" NOx_abs="290.042745" fuel_abs="299.687985" electricity_abs="0"/>
    </tripinfo>
    <tripinfo id="carIn48184:1" depart="57613.00" departLane="-306240162#1_0" departPos="5.10" departSpeed="0.00" departDelay="0.70" arrival="57875.00" arrivalLane="386687235_1" arrivalPos="80.84" arrivalSpeed="11.33" duration="262.00" routeLength="2257.41" waitingTime="40.00" waitingCount="5" stopTime="0.00" timeLoss="80.93" rerouteNo="1" devices="tripinfo_carIn48184:1 routing_carIn48184:1 emissions_carIn48184:1" vType="default_016" speedFactor="0.82" vaporized="">
        <emissions CO_abs="11160.387658" CO2_abs="575257.967602" HC_abs="64.078906" PMx_abs="9.926743" NOx_abs="232.920433" fuel_abs="247.281182" electricity_abs="0"/>
    </tripinfo>
    <tripinfo id="h5170c2:1" depart="57631.00" departLane="201201953#4_1" departPos="5.10" departSpeed="0.00" departDelay="0.00" arrival="57875.00" arrivalLane="-266565295#5_1" arrivalPos="172.76" arrivalSpeed="15.19" duration="244.00" routeLength="3097.92" waitingTime="11.00" waitingCount="2" stopTime="0.00" timeLoss="40.79" rerouteNo="1" devices="tripinfo_h5170c2:1 routing_h5170c2:1 emissions_h5170c2:1" vType="default_016" speedFactor="1.12" vaporized="">
        <emissions CO_abs="8445.257039" CO2_abs="662544.790979" HC_abs="53.728806" PMx_abs="11.397910" NOx_abs="264.030754" fuel_abs="284.799079" electricity_abs="0"/>
    </tripinfo>
    <tripinfo id="carIn28951:1" depart="57606.00" departLane="10425609#0_1" departPos="5.10" departSpeed="0.00" departDelay="0.20" arrival="57879.00" arrivalLane="-128361102#1_1" arrivalPos="274.68" arrivalSpeed="12.41" duration="273.00" routeLength="2113.04" waitingTime="80.00" waitingCount="3" stopTime="0.00" timeLoss="110.96" rerouteNo="1" devices="tripinfo_carIn28951:1 routing_carIn28951:1 emissions_carIn28951:1" vType="default_016" speedFactor="0.96" vaporized="">
        <emissions CO_abs="17442.667910" CO2_abs="654972.640855" HC_abs="94.755523" PMx_abs="12.437925" NOx_abs="272.970011" fuel_abs="281.549744" electricity_abs="0"/>
    </tripinfo>
    <tripinfo id="h3864c1:3" depart="57678.00" departLane="24693977#1_1" departPos="5.10" departSpeed="0.00" departDelay="0.00" arrival="57880.00" arrivalLane="201956820_1" arrivalPos="48.33" arrivalSpeed="13.10" duration="202.00" routeLength="1574.85" waitingTime="27.00" waitingCount="3" stopTime="0.00" timeLoss="65.04" rerouteNo="1" devices="tripinfo_h3864c1:3 routing_h3864c1:3 emissions_h3864c1:3" vType="default_016" speedFactor="0.94" vaporized="">
        <emissions CO_abs="10483.995647" CO2_abs="496221.305996" HC_abs="59.353339" PMx_abs="9.110939" NOx_abs="206.282279" fuel_abs="213.306103" electricity_abs="0"/>
    </tripinfo>
    <tripinfo id="h7097c1:1" depart="57670.00" departLane="315358242#0_1" departPos="5.10" departSpeed="0.00" departDelay="0.60" arrival="57881.00" arrivalLane="306240162#0_0" arrivalPos="220.43" arrivalSpeed="15.36" duration="211.00" routeLength="2586.94" waitingTime="4.00" waitingCount="1" stopTime="0.00" timeLoss="34.99" rerouteNo="1" devices="tripinfo_h7097c1:1 routing_h7097c1:1 emissions_h7097c1:1" vType="default_016" speedFactor="0.98" vaporized="">
        <emissions CO_abs="6953.904439" CO2_abs="551288.112882" HC_abs="44.604141" PMx_abs="9.420825" NOx_abs="219.977083" fuel_abs="236.974700" electricity_abs="0"/>
    </tripinfo>
    <tripinfo id="carIn77943:1" depart="57608.00" departLane="124812856#0_1" departPos="5.10" departSpeed="0.00" departDelay="2.50" arrival="57882.00" arrivalLane="-128361102#1_1" arrivalPos="274.68" arrivalSpeed="11.93" duration="274.00" routeLength="2250.49" waitingTime="62.00" waitingCount="3" stopTime="0.00" timeLoss="95.80" rerouteNo="1" devices="tripinfo_carIn77943:1 routing_carIn77943:1 emissions_carIn77943:1" vType="default_016" speedFactor="0.92" vaporized="">
        <emissions CO_abs="14738.468274" CO2_abs="642304.624536" HC_abs="82.077444" PMx_abs="11.346005" NOx_abs="261.922960" fuel_abs="276.103516" electricity_abs="0"/>
    </tripinfo>
    <tripinfo id="carIn129809:1" depart="57729.00" departLane="-447569998#1_1" departPos="5.10" departSpeed="0.00" departDelay="1.00" arrival="57883.00" arrivalLane="-315358244_1" arrivalPos="33.95" arrivalSpeed="14.20" duration="154.00" routeLength="706.49" waitingTime="88.00" waitingCount="1" stopTime="0.00" timeLoss="96.85" rerouteNo="1" devices="tripinfo_carIn129809:1 routing_carIn129809:1 emissions_carIn129809:1" vType="default_015" speedFactor="1.05" vaporized="">
        <emissions CO_abs="15926.312311" CO2_abs="377199.788803" HC_abs="81.304733" PMx_abs="8.082435" NOx_abs="163.357799" fuel_abs="162.148545" electricity_abs="0"/>
    </tripinfo>
    <tripinfo id="carIn8642:1" depart="57774.00" departLane="-447569998#1_1" departPos="5.10" departSpeed="0.00" departDelay="0.90" arrival="57889.00" arrivalLane="-315358244_1" arrivalPos="33.95" arrivalSpeed="13.52" duration="115.00" routeLength="706.49" waitingTime="46.00" waitingCount="1" stopTime="0.00" timeLoss="55.94" rerouteNo="1" devices="tripinfo_carIn8642:1 routing_carIn8642:1 emissions_carIn8642:1" vType="default_016" speedFactor="1.03" vaporized="">
        <emissions CO_abs="9332.463704" CO2_abs="269620.039613" HC_abs="48.792498" PMx_abs="5.459571" NOx_abs="114.657704" fuel_abs="115.901500" electricity_abs="0"/>
    </tripinfo>
    <tripinfo id="carIn12775:1" depart="57676.00" departLane="10425609#0_1" departPos="5.10" departSpeed="0.00" departDelay="0.60" arrival="57891.00" arrivalLane="18809673#0_1" arrivalPos="473.56" arrivalSpeed="13.79" duration="215.00" routeLength="1959.45" waitingTime="38.00" waitingCount="1" stopTime="0.00" timeLoss="76.18" rerouteNo="1" devices="tripinfo_carIn12775:1 routing_carIn12775:1 emissions_carIn12775:1" vType="default_016" speedFactor="1.05" vaporized="">
        <emissions CO_abs="11580.350756" CO2_abs="536729.493505" HC_abs="65.191159" PMx_abs="9.581785" NOx_abs="218.972521" fuel_abs="230.719843" electricity_abs="0"/>
    </tripinfo>