<?xml version="1.0" encoding="UTF-8"?>

<!-- generated on 2021-10-26 14:05:12 by Eclipse SUMO sumo Version 1.10.0
<configuration xmlns:xsi="http://www.w3.org/2001/XMLSchema-instance" xsi:noNamespaceSchemaLocation="http://sumo.dlr.de/xsd/sumoConfiguration.xsd">

    <input>
        <net-file value="/Users/behradkoohy/sumo-scratchpad/RESCO/environments/ingolstadt21/ingolstadt21.net.xml"/>
        <route-files value="/Users/behradkoohy/sumo-scratchpad/RESCO/environments/ingolstadt21/ingolstadt21.rou.xml"/>
    </input>

    <output>
        <tripinfo-output value="/Users/behradkoohy/sumo-scratchpad/RESCO/logs/STOCHASTIC-tr0-ingolstadt21-21-mplight-wait/tripinfo_19.xml"/>
        <tripinfo-output.write-unfinished value="true"/>
    </output>

    <time>
        <begin value="57600"/>
        <end value="61200"/>
    </time>

    <processing>
        <time-to-teleport value="-1"/>
    </processing>

    <report>
        <no-warnings value="true"/>
        <no-step-log value="true"/>
    </report>

    <emissions>
        <device.emissions.probability value="1"/>
    </emissions>

    <traci_server>
        <remote-port value="60001"/>
    </traci_server>

    <random_number>
        <random value="true"/>
    </random_number>

</configuration>
-->

<tripinfos xmlns:xsi="http://www.w3.org/2001/XMLSchema-instance" xsi:noNamespaceSchemaLocation="http://sumo.dlr.de/xsd/tripinfo_file.xsd">
    <tripinfo id="h15454c2:3" depart="57612.00" departLane="24608844_1" departPos="5.10" departSpeed="0.00" departDelay="0.50" arrival="57652.00" arrivalLane="32978638#0_1" arrivalPos="49.29" arrivalSpeed="12.71" duration="40.00" routeLength="354.79" waitingTime="0.00" waitingCount="0" stopTime="0.00" timeLoss="5.01" rerouteNo="1" devices="tripinfo_h15454c2:3 routing_h15454c2:3 emissions_h15454c2:3" vType="default_016" speedFactor="0.99" vaporized="">
        <emissions CO_abs="1707.762583" CO2_abs="94424.754700" HC_abs="9.954644" PMx_abs="1.506921" NOx_abs="37.778096" fuel_abs="40.589606" electricity_abs="0"/>
    </tripinfo>
    <tripinfo id="carIn60260:1" depart="57606.00" departLane="315358254#0_1" departPos="5.10" departSpeed="0.00" departDelay="0.90" arrival="57655.00" arrivalLane="399835085#1_1" arrivalPos="212.23" arrivalSpeed="9.11" duration="49.00" routeLength="430.98" waitingTime="0.00" waitingCount="0" stopTime="0.00" timeLoss="7.52" rerouteNo="1" devices="tripinfo_carIn60260:1 routing_carIn60260:1 emissions_carIn60260:1" vType="default_016" speedFactor="1.12" vaporized="">
        <emissions CO_abs="2081.377232" CO2_abs="115151.761626" HC_abs="12.149372" PMx_abs="1.924217" NOx_abs="46.723767" fuel_abs="49.499214" electricity_abs="0"/>
    </tripinfo>
    <tripinfo id="carIn53971:1" depart="57640.00" departLane="272042143_1" departPos="5.10" departSpeed="0.00" departDelay="0.80" arrival="57698.00" arrivalLane="24634414#1_1" arrivalPos="162.19" arrivalSpeed="7.44" duration="58.00" routeLength="493.04" waitingTime="0.00" waitingCount="0" stopTime="0.00" timeLoss="10.04" rerouteNo="1" devices="tripinfo_carIn53971:1 routing_carIn53971:1 emissions_carIn53971:1" vType="default_016" speedFactor="0.95" vaporized="">
        <emissions CO_abs="2580.199808" CO2_abs="137237.591713" HC_abs="14.951539" PMx_abs="2.407664" NOx_abs="56.470218" fuel_abs="58.992949" electricity_abs="0"/>
    </tripinfo>
    <tripinfo id="h3568c1:3" depart="57656.00" departLane="266565295#5_1" departPos="5.10" departSpeed="0.00" departDelay="0.80" arrival="57732.00" arrivalLane="-24634415_1" arrivalPos="62.03" arrivalSpeed="13.30" duration="76.00" routeLength="807.40" waitingTime="0.00" waitingCount="0" stopTime="0.00" timeLoss="13.06" rerouteNo="1" devices="tripinfo_h3568c1:3 routing_h3568c1:3 emissions_h3568c1:3" vType="default_016" speedFactor="1.02" vaporized="">
        <emissions CO_abs="3304.703884" CO2_abs="219588.494738" HC_abs="20.178057" PMx_abs="3.811320" NOx_abs="89.092680" fuel_abs="94.391764" electricity_abs="0"/>
    </tripinfo>
    <tripinfo id="h4538c1:1" depart="57701.00" departLane="-10427692#1_1" departPos="5.10" departSpeed="0.00" departDelay="0.00" arrival="57736.00" arrivalLane="-128361102#1_1" arrivalPos="274.68" arrivalSpeed="14.47" duration="35.00" routeLength="440.74" waitingTime="0.00" waitingCount="0" stopTime="0.00" timeLoss="6.80" rerouteNo="1" devices="tripinfo_h4538c1:1 routing_h4538c1:1 emissions_h4538c1:1" vType="default_016" speedFactor="1.13" vaporized="">
        <emissions CO_abs="1599.562035" CO2_abs="105263.270621" HC_abs="9.718148" PMx_abs="1.896840" NOx_abs="42.890836" fuel_abs="45.248134" electricity_abs="0"/>
    </tripinfo>
    <tripinfo id="h317c2:1" depart="57707.00" departLane="-32978638#0_1" departPos="5.10" departSpeed="0.00" departDelay="0.10" arrival="57738.00" arrivalLane="-266565295#5_1" arrivalPos="172.76" arrivalSpeed="14.52" duration="31.00" routeLength="370.53" waitingTime="0.00" waitingCount="0" stopTime="0.00" timeLoss="6.04" rerouteNo="1" devices="tripinfo_h317c2:1 routing_h317c2:1 emissions_h317c2:1" vType="default_016" speedFactor="1.11" vaporized="">
        <emissions CO_abs="1688.164311" CO2_abs="109288.259182" HC_abs="10.260495" PMx_abs="2.071541" NOx_abs="45.411337" fuel_abs="46.978153" electricity_abs="0"/>
    </tripinfo>
    <tripinfo id="h3688c1:1" depart="57625.00" departLane="201201950#1_1" departPos="5.10" departSpeed="0.00" departDelay="0.00" arrival="57755.00" arrivalLane="32978638#0_1" arrivalPos="49.29" arrivalSpeed="12.61" duration="130.00" routeLength="1089.75" waitingTime="28.00" waitingCount="2" stopTime="0.00" timeLoss="45.62" rerouteNo="1" devices="tripinfo_h3688c1:1 routing_h3688c1:1 emissions_h3688c1:1" vType="default_016" speedFactor="0.94" vaporized="">
        <emissions CO_abs="7304.132132" CO2_abs="312936.098521" HC_abs="40.581252" PMx_abs="5.729266" NOx_abs="129.221459" fuel_abs="134.519671" electricity_abs="0"/>
    </tripinfo>
    <tripinfo id="h5979c1:5" depart="57669.00" departLane="399835085#1_1" departPos="5.10" departSpeed="0.00" departDelay="0.00" arrival="57758.00" arrivalLane="-315358254#1_1" arrivalPos="137.16" arrivalSpeed="12.98" duration="89.00" routeLength="659.33" waitingTime="0.00" waitingCount="0" stopTime="0.00" timeLoss="10.06" rerouteNo="1" devices="tripinfo_h5979c1:5 routing_h5979c1:5 emissions_h5979c1:5" vType="default_016" speedFactor="0.94" vaporized="">
        <emissions CO_abs="3619.630130" CO2_abs="169495.820005" HC_abs="20.366205" PMx_abs="2.699602" NOx_abs="68.307920" fuel_abs="72.860225" electricity_abs="0"/>
    </tripinfo>
    <tripinfo id="carIn30817:1" depart="57681.00" departLane="315358244_1" departPos="5.10" departSpeed="0.00" departDelay="0.20" arrival="57767.00" arrivalLane="447569997#1_1" arrivalPos="180.93" arrivalSpeed="6.97" duration="86.00" routeLength="718.04" waitingTime="10.00" waitingCount="1" stopTime="0.00" timeLoss="22.79" rerouteNo="1" devices="tripinfo_carIn30817:1 routing_carIn30817:1 emissions_carIn30817:1" vType="default_016" speedFactor="0.97" vaporized="">
        <emissions CO_abs="4029.620976" CO2_abs="195943.080163" HC_abs="22.910421" PMx_abs="3.391036" NOx_abs="79.760356" fuel_abs="84.228515" electricity_abs="0"/>
    </tripinfo>
    <tripinfo id="h330c1:1" depart="57736.00" departLane="-32978638#0_1" departPos="5.10" departSpeed="0.00" departDelay="0.20" arrival="57771.00" arrivalLane="-266565295#5_1" arrivalPos="172.76" arrivalSpeed="13.14" duration="35.00" routeLength="370.53" waitingTime="0.00" waitingCount="0" stopTime="0.00" timeLoss="6.00" rerouteNo="1" devices="tripinfo_h330c1:1 routing_h330c1:1 emissions_h330c1:1" vType="default_016" speedFactor="0.96" vaporized="">
        <emissions CO_abs="1636.156424" CO2_abs="106891.746619" HC_abs="9.958644" PMx_abs="1.857367" NOx_abs="43.471234" fuel_abs="45.948234" electricity_abs="0"/>
    </tripinfo>
    <tripinfo id="h7181c1:1" depart="57660.00" departLane="315358254#0_1" departPos="5.10" departSpeed="0.00" departDelay="0.10" arrival="57773.00" arrivalLane="306240162#0_0" arrivalPos="220.43" arrivalSpeed="18.02" duration="113.00" routeLength="932.35" waitingTime="46.00" waitingCount="1" stopTime="0.00" timeLoss="65.59" rerouteNo="1" devices="tripinfo_h7181c1:1 routing_h7181c1:1 emissions_h7181c1:1" vType="default_016" speedFactor="1.08" vaporized="">
        <emissions CO_abs="11497.341046" CO2_abs="426558.304741" HC_abs="62.436110" PMx_abs="9.143050" NOx_abs="182.730601" fuel_abs="183.361127" electricity_abs="0"/>
    </tripinfo>
    <tripinfo id="h3326c1:2" depart="57656.00" departLane="22716069#0_1" departPos="5.10" departSpeed="0.00" departDelay="0.00" arrival="57774.00" arrivalLane="24634517#13_1" arrivalPos="111.62" arrivalSpeed="13.19" duration="118.00" routeLength="1312.81" waitingTime="0.00" waitingCount="0" stopTime="0.00" timeLoss="14.61" rerouteNo="1" devices="tripinfo_h3326c1:2 routing_h3326c1:2 emissions_h3326c1:2" vType="default_016" speedFactor="0.95" vaporized="">
        <emissions CO_abs="3965.699870" CO2_abs="300642.196637" HC_abs="25.072351" PMx_abs="4.869061" NOx_abs="119.413705" fuel_abs="129.233401" electricity_abs="0"/>
    </tripinfo>
    <tripinfo id="h645c1:1" depart="57622.00" departLane="266565295#5_1" departPos="5.10" departSpeed="0.00" departDelay="0.40" arrival="57784.00" arrivalLane="-315358244_2" arrivalPos="33.95" arrivalSpeed="14.54" duration="162.00" routeLength="1910.83" waitingTime="9.00" waitingCount="2" stopTime="0.00" timeLoss="32.05" rerouteNo="1" devices="tripinfo_h645c1:1 routing_h645c1:1 emissions_h645c1:1" vType="default_016" speedFactor="1.07" vaporized="">
        <emissions CO_abs="5161.381265" CO2_abs="405222.975970" HC_abs="32.928700" PMx_abs="6.858461" NOx_abs="161.473106" fuel_abs="174.187782" electricity_abs="0"/>
    </tripinfo>
    <tripinfo id="h7800c1:5" depart="57696.00" departLane="-447569998#1_1" departPos="5.10" departSpeed="0.00" departDelay="0.00" arrival="57785.00" arrivalLane="-447569998#1_2" arrivalPos="180.76" arrivalSpeed="3.46" duration="89.00" routeLength="175.66" waitingTime="61.00" waitingCount="1" stopTime="0.00" timeLoss="67.73" rerouteNo="1" devices="tripinfo_h7800c1:5 routing_h7800c1:5 emissions_h7800c1:5" vType="default_016" speedFactor="1.00" vaporized="">
        <emissions CO_abs="10391.749655" CO2_abs="196226.931199" HC_abs="51.901368" PMx_abs="4.517819" NOx_abs="87.627818" fuel_abs="84.354205" electricity_abs="0"/>
    </tripinfo>
    <tripinfo id="carIn121703:1" depart="57647.00" departLane="386687232#0_1" departPos="5.10" departSpeed="0.00" departDelay="0.30" arrival="57787.00" arrivalLane="-315358244_1" arrivalPos="33.95" arrivalSpeed="13.10" duration="140.00" routeLength="1157.39" waitingTime="34.00" waitingCount="2" stopTime="0.00" timeLoss="53.12" rerouteNo="1" devices="tripinfo_carIn121703:1 routing_carIn121703:1 emissions_carIn121703:1" vType="default_016" speedFactor="0.97" vaporized="">
        <emissions CO_abs="8015.658405" CO2_abs="327352.725380" HC_abs="44.142420" PMx_abs="6.032731" NOx_abs="134.984608" fuel_abs="140.717149" electricity_abs="0"/>
    </tripinfo>
    <tripinfo id="carIn86816:1" depart="57617.00" departLane="128361102#0_1" departPos="5.10" departSpeed="0.00" departDelay="0.80" arrival="57791.00" arrivalLane="201956811#0_1" arrivalPos="40.40" arrivalSpeed="14.79" duration="174.00" routeLength="2067.33" waitingTime="16.00" waitingCount="2" stopTime="0.00" timeLoss="43.18" rerouteNo="1" devices="tripinfo_carIn86816:1 routing_carIn86816:1 emissions_carIn86816:1" vType="default_016" speedFactor="1.16" vaporized="">
        <emissions CO_abs="7087.984438" CO2_abs="473443.511383" HC_abs="43.337807" PMx_abs="8.548624" NOx_abs="191.898743" fuel_abs="203.512936" electricity_abs="0"/>
    </tripinfo>
    <tripinfo id="h12244c1:3" depart="57612.00" departLane="315358244_1" departPos="5.10" departSpeed="0.00" departDelay="0.40" arrival="57797.00" arrivalLane="386687235_1" arrivalPos="80.84" arrivalSpeed="13.19" duration="185.00" routeLength="1186.14" waitingTime="77.00" waitingCount="2" stopTime="0.00" timeLoss="95.44" rerouteNo="1" devices="tripinfo_h12244c1:3 routing_h12244c1:3 emissions_h12244c1:3" vType="default_016" speedFactor="0.97" vaporized="">
        <emissions CO_abs="14339.409427" CO2_abs="427172.259207" HC_abs="75.251735" PMx_abs="8.385872" NOx_abs="179.578282" fuel_abs="183.628497" electricity_abs="0"/>
    </tripinfo>
    <tripinfo id="h9563c2:5" depart="57631.00" departLane="315358244_1" departPos="5.10" departSpeed="0.00" departDelay="0.70" arrival="57799.00" arrivalLane="386687235_1" arrivalPos="80.84" arrivalSpeed="12.43" duration="168.00" routeLength="1186.14" waitingTime="55.00" waitingCount="2" stopTime="0.00" timeLoss="74.01" rerouteNo="1" devices="tripinfo_h9563c2:5 routing_h9563c2:5 emissions_h9563c2:5" vType="default_016" speedFactor="0.92" vaporized="">
        <emissions CO_abs="11083.002778" CO2_abs="380377.428692" HC_abs="59.332893" PMx_abs="7.137611" NOx_abs="158.155139" fuel_abs="163.511833" electricity_abs="0"/>
    </tripinfo>
    <tripinfo id="h3154c1:1" depart="57658.00" departLane="24634507_1" departPos="5.10" departSpeed="0.00" departDelay="0.00" arrival="57804.00" arrivalLane="-266565295#5_1" arrivalPos="172.76" arrivalSpeed="15.43" duration="146.00" routeLength="1206.22" waitingTime="45.00" waitingCount="2" stopTime="0.00" timeLoss="68.60" rerouteNo="1" devices="tripinfo_h3154c1:1 routing_h3154c1:1 emissions_h3154c1:1" vType="default_016" speedFactor="1.15" vaporized="">
        <emissions CO_abs="11751.972815" CO2_abs="469037.737794" HC_abs="64.556307" PMx_abs="9.348627" NOx_abs="197.693240" fuel_abs="201.621607" electricity_abs="0"/>
    </tripinfo>
    <tripinfo id="S5R_frequency1.2" depart="57677.00" departLane="315358250#0_1" departPos="12.10" departSpeed="0.00" departDelay="65.40" arrival="57810.00" arrivalLane="386687235_1" arrivalPos="80.84" arrivalSpeed="13.62" duration="133.00" routeLength="1115.62" waitingTime="23.00" waitingCount="1" stopTime="0.00" timeLoss="51.49" rerouteNo="1" devices="tripinfo_S5R_frequency1.2 routing_S5R_frequency1.2 emissions_S5R_frequency1.2" vType="bus" speedFactor="1.00" vaporized="">
        <emissions CO_abs="2644.068462" CO2_abs="1503979.429868" HC_abs="559.486407" PMx_abs="279.535919" NOx_abs="12092.594474" fuel_abs="641.371824" electricity_abs="0"/>
    </tripinfo>
    <tripinfo id="carIn107282:1" depart="57749.00" departLane="-447569998#1_1" departPos="5.10" departSpeed="0.00" departDelay="0.00" arrival="57813.00" arrivalLane="315358242#0_1" arrivalPos="165.37" arrivalSpeed="11.13" duration="64.00" routeLength="448.50" waitingTime="6.00" waitingCount="1" stopTime="0.00" timeLoss="16.67" rerouteNo="1" devices="tripinfo_carIn107282:1 routing_carIn107282:1 emissions_carIn107282:1" vType="default_016" speedFactor="0.88" vaporized="">
        <emissions CO_abs="3028.155266" CO2_abs="132912.454792" HC_abs="16.835812" PMx_abs="2.128894" NOx_abs="53.328090" fuel_abs="57.134514" electricity_abs="0"/>
    </tripinfo>
    <tripinfo id="h11737c1:1" depart="57665.00" departLane="272042143_1" departPos="5.10" departSpeed="0.00" departDelay="1.50" arrival="57816.00" arrivalLane="-315358254#1_1" arrivalPos="137.16" arrivalSpeed="13.53" duration="151.00" routeLength="1596.88" waitingTime="19.00" waitingCount="1" stopTime="0.00" timeLoss="34.59" rerouteNo="1" devices="tripinfo_h11737c1:1 routing_h11737c1:1 emissions_h11737c1:1" vType="default_016" speedFactor="1.00" vaporized="">
        <emissions CO_abs="5803.515753" CO2_abs="343909.915740" HC_abs="34.423477" PMx_abs="5.810733" NOx_abs="137.582202" fuel_abs="147.833136" electricity_abs="0"/>
    </tripinfo>
    <tripinfo id="carIn22761:1" depart="57616.00" departLane="-306240162#1_0" departPos="5.10" departSpeed="0.00" departDelay="2.10" arrival="57819.00" arrivalLane="399835085#1_1" arrivalPos="212.23" arrivalSpeed="9.57" duration="203.00" routeLength="1093.26" waitingTime="104.00" waitingCount="3" stopTime="0.00" timeLoss="135.55" rerouteNo="1" devices="tripinfo_carIn22761:1 routing_carIn22761:1 emissions_carIn22761:1" vType="default_016" speedFactor="1.16" vaporized="">
        <emissions CO_abs="22135.279049" CO2_abs="638447.214687" HC_abs="115.952815" PMx_abs="14.053743" NOx_abs="277.650039" fuel_abs="274.447579" electricity_abs="0"/>
    </tripinfo>
    <tripinfo id="h16072c2:3" depart="57663.00" departLane="315358254#0_1" departPos="5.10" departSpeed="0.00" departDelay="2.50" arrival="57819.00" arrivalLane="386687235_1" arrivalPos="80.84" arrivalSpeed="13.20" duration="156.00" routeLength="1611.92" waitingTime="16.00" waitingCount="2" stopTime="0.00" timeLoss="35.76" rerouteNo="1" devices="tripinfo_h16072c2:3 routing_h16072c2:3 emissions_h16072c2:3" vType="default_016" speedFactor="0.98" vaporized="">
        <emissions CO_abs="6050.629518" CO2_abs="358081.632417" HC_abs="35.892201" PMx_abs="6.018586" NOx_abs="143.335184" fuel_abs="153.925021" electricity_abs="0"/>
    </tripinfo>
    <tripinfo id="carIn126288:1" depart="57674.00" departLane="272042143_1" departPos="5.10" departSpeed="0.00" departDelay="0.00" arrival="57820.00" arrivalLane="-315358254#1_1" arrivalPos="137.16" arrivalSpeed="13.09" duration="146.00" routeLength="1596.88" waitingTime="7.00" waitingCount="2" stopTime="0.00" timeLoss="27.14" rerouteNo="1" devices="tripinfo_carIn126288:1 routing_carIn126288:1 emissions_carIn126288:1" vType="default_016" speedFactor="0.98" vaporized="">
        <emissions CO_abs="4711.194689" CO2_abs="352464.435465" HC_abs="29.666771" PMx_abs="5.655081" NOx_abs="139.208607" fuel_abs="151.509776" electricity_abs="0"/>
    </tripinfo>
    <tripinfo id="carIn12365:1" depart="57713.00" departLane="315358244_1" departPos="5.10" departSpeed="0.00" departDelay="0.50" arrival="57820.00" arrivalLane="447569997#1_1" arrivalPos="180.93" arrivalSpeed="8.47" duration="107.00" routeLength="718.04" waitingTime="29.00" waitingCount="2" stopTime="0.00" timeLoss="46.90" rerouteNo="1" devices="tripinfo_carIn12365:1 routing_carIn12365:1 emissions_carIn12365:1" vType="default_016" speedFactor="1.02" vaporized="">
        <emissions CO_abs="7259.558491" CO2_abs="254176.996591" HC_abs="38.965760" PMx_abs="4.837920" NOx_abs="106.460905" fuel_abs="109.262119" electricity_abs="0"/>
    </tripinfo>
    <tripinfo id="carIn50326:1" depart="57651.00" departLane="128361102#0_1" departPos="5.10" departSpeed="0.00" departDelay="0.30" arrival="57829.00" arrivalLane="18809673#0_1" arrivalPos="473.56" arrivalSpeed="11.11" duration="178.00" routeLength="1591.07" waitingTime="3.00" waitingCount="1" stopTime="0.00" timeLoss="25.49" rerouteNo="1" devices="tripinfo_carIn50326:1 routing_carIn50326:1 emissions_carIn50326:1" vType="default_016" speedFactor="0.86" vaporized="">
        <emissions CO_abs="5937.444294" CO2_abs="357232.986828" HC_abs="35.272708" PMx_abs="5.574983" NOx_abs="141.869651" fuel_abs="153.560626" electricity_abs="0"/>
    </tripinfo>
    <tripinfo id="carIn102915:1" depart="57643.00" departLane="128361102#0_1" departPos="5.10" departSpeed="0.00" departDelay="0.40" arrival="57833.00" arrivalLane="201956811#0_1" arrivalPos="40.40" arrivalSpeed="13.58" duration="190.00" routeLength="2067.33" waitingTime="14.00" waitingCount="2" stopTime="0.00" timeLoss="45.27" rerouteNo="1" devices="tripinfo_carIn102915:1 routing_carIn102915:1 emissions_carIn102915:1" vType="default_016" speedFactor="1.05" vaporized="">
        <emissions CO_abs="7205.737313" CO2_abs="468020.074381" HC_abs="43.779083" PMx_abs="8.209295" NOx_abs="189.436265" fuel_abs="201.182058" electricity_abs="0"/>
    </tripinfo>
    <tripinfo id="randUni33724:1" depart="57646.00" departLane="128361102#0_1" departPos="5.10" departSpeed="0.00" departDelay="1.20" arrival="57835.00" arrivalLane="201956811#0_1" arrivalPos="40.40" arrivalSpeed="13.62" duration="189.00" routeLength="2067.33" waitingTime="8.00" waitingCount="2" stopTime="0.00" timeLoss="40.75" rerouteNo="1" devices="tripinfo_randUni33724:1 routing_randUni33724:1 emissions_randUni33724:1" vType="random_016" speedFactor="1.02" vaporized="">
        <emissions CO_abs="6535.510952" CO2_abs="472024.587271" HC_abs="40.794643" PMx_abs="7.983800" NOx_abs="189.084787" fuel_abs="202.903263" electricity_abs="0"/>
    </tripinfo>
    <tripinfo id="carIn100288:1" depart="57664.00" departLane="128361102#0_1" departPos="5.10" departSpeed="0.00" departDelay="0.60" arrival="57839.00" arrivalLane="201956811#0_1" arrivalPos="40.40" arrivalSpeed="13.34" duration="175.00" routeLength="2067.33" waitingTime="4.00" waitingCount="1" stopTime="0.00" timeLoss="30.29" rerouteNo="1" devices="tripinfo_carIn100288:1 routing_carIn100288:1 emissions_carIn100288:1" vType="default_016" speedFactor="1.04" vaporized="">
        <emissions CO_abs="5945.350030" CO2_abs="459433.451892" HC_abs="37.799289" PMx_abs="7.745265" NOx_abs="183.503554" fuel_abs="197.490587" electricity_abs="0"/>
    </tripinfo>
    <tripinfo id="carIn118591:1" depart="57689.00" departLane="315358244_1" departPos="5.10" departSpeed="0.00" departDelay="0.20" arrival="57841.00" arrivalLane="386687235_1" arrivalPos="80.84" arrivalSpeed="10.06" duration="152.00" routeLength="1186.14" waitingTime="20.00" waitingCount="3" stopTime="0.00" timeLoss="41.78" rerouteNo="1" devices="tripinfo_carIn118591:1 routing_carIn118591:1 emissions_carIn118591:1" vType="default_016" speedFactor="0.79" vaporized="">
        <emissions CO_abs="5994.372414" CO2_abs="295310.999413" HC_abs="34.127844" PMx_abs="4.916576" NOx_abs="119.437919" fuel_abs="126.943203" electricity_abs="0"/>
    </tripinfo>
    <tripinfo id="randUni15030:1" depart="57735.00" departLane="386687232#0_1" departPos="5.10" departSpeed="0.00" departDelay="0.10" arrival="57845.00" arrivalLane="26677539_1" arrivalPos="151.98" arrivalSpeed="6.54" duration="110.00" routeLength="919.89" waitingTime="7.00" waitingCount="1" stopTime="0.00" timeLoss="20.80" rerouteNo="1" devices="tripinfo_randUni15030:1 routing_randUni15030:1 emissions_randUni15030:1" vType="random_016" speedFactor="0.94" vaporized="">
        <emissions CO_abs="3821.015883" CO2_abs="225138.303383" HC_abs="22.589022" PMx_abs="3.513584" NOx_abs="89.310022" fuel_abs="96.778315" electricity_abs="0"/>
    </tripinfo>
    <tripinfo id="h6541c1:3" depart="57727.00" departLane="201950247#3_1" departPos="5.10" departSpeed="0.00" departDelay="0.00" arrival="57851.00" arrivalLane="32978638#0_1" arrivalPos="49.29" arrivalSpeed="13.46" duration="124.00" routeLength="1176.17" waitingTime="3.00" waitingCount="1" stopTime="0.00" timeLoss="20.13" rerouteNo="1" devices="tripinfo_h6541c1:3 routing_h6541c1:3 emissions_h6541c1:3" vType="default_016" speedFactor="0.98" vaporized="">
        <emissions CO_abs="4781.969627" CO2_abs="280510.812753" HC_abs="28.309690" PMx_abs="4.738408" NOx_abs="113.636110" fuel_abs="120.580296" electricity_abs="0"/>
    </tripinfo>
    <tripinfo id="h17600c1:1" depart="57662.00" departLane="272042143_1" departPos="5.10" departSpeed="0.00" departDelay="0.30" arrival="57852.00" arrivalLane="201238729#3_1" arrivalPos="431.02" arrivalSpeed="13.34" duration="190.00" routeLength="2100.26" waitingTime="18.00" waitingCount="1" stopTime="0.00" timeLoss="34.84" rerouteNo="1" devices="tripinfo_h17600c1:1 routing_h17600c1:1 emissions_h17600c1:1" vType="default_016" speedFactor="0.98" vaporized="">
        <emissions CO_abs="6364.605736" CO2_abs="411941.589090" HC_abs="38.572280" PMx_abs="6.658915" NOx_abs="162.439797" fuel_abs="177.077245" electricity_abs="0"/>
    </tripinfo>
    <tripinfo id="carIn27009:1" depart="57673.00" departLane="-447569998#1_1" departPos="5.10" departSpeed="0.00" departDelay="0.50" arrival="57853.00" arrivalLane="-26677539_1" arrivalPos="152.75" arrivalSpeed="7.94" duration="180.00" routeLength="699.63" waitingTime="82.00" waitingCount="1" stopTime="0.00" timeLoss="97.39" rerouteNo="1" devices="tripinfo_carIn27009:1 routing_carIn27009:1 emissions_carIn27009:1" vType="default_015" speedFactor="1.02" vaporized="">
        <emissions CO_abs="16812.080587" CO2_abs="403713.957995" HC_abs="85.926418" PMx_abs="8.312698" NOx_abs="174.312764" fuel_abs="173.546462" electricity_abs="0"/>
    </tripinfo>
    <tripinfo id="carIn28951:1" depart="57606.00" departLane="10425609#0_1" departPos="5.10" departSpeed="0.00" departDelay="0.20" arrival="57859.00" arrivalLane="-128361102#1_1" arrivalPos="274.68" arrivalSpeed="11.44" duration="253.00" routeLength="2113.04" waitingTime="53.00" waitingCount="2" stopTime="0.00" timeLoss="83.49" rerouteNo="1" devices="tripinfo_carIn28951:1 routing_carIn28951:1 emissions_carIn28951:1" vType="default_016" speedFactor="0.91" vaporized="">
        <emissions CO_abs="13838.147030" CO2_abs="582665.366539" HC_abs="76.609269" PMx_abs="10.505258" NOx_abs="239.353542" fuel_abs="250.466793" electricity_abs="0"/>
    </tripinfo>
    <tripinfo id="carIn107084:1" depart="57601.00" departLane="124812856#0_1" departPos="5.10" departSpeed="0.00" departDelay="0.70" arrival="57861.00" arrivalLane="-128361102#1_1" arrivalPos="274.68" arrivalSpeed="12.67" duration="260.00" routeLength="2250.49" waitingTime="49.00" waitingCount="3" stopTime="0.00" timeLoss="83.27" rerouteNo="1" devices="tripinfo_carIn107084:1 routing_carIn107084:1 emissions_carIn107084:1" vType="default_016" speedFactor="0.93" vaporized="">
        <emissions CO_abs="12307.076520" CO2_abs="590070.471531" HC_abs="69.819111" PMx_abs="10.391088" NOx_abs="240.490967" fuel_abs="253.648930" electricity_abs="0"/>
    </tripinfo>
    <tripinfo id="carIn77943:1" depart="57608.00" departLane="124812856#0_1" departPos="5.10" departSpeed="0.00" departDelay="2.50" arrival="57863.00" arrivalLane="-128361102#1_1" arrivalPos="274.68" arrivalSpeed="13.27" duration="255.00" routeLength="2250.49" waitingTime="42.00" waitingCount="4" stopTime="0.00" timeLoss="84.87" rerouteNo="1" devices="tripinfo_carIn77943:1 routing_carIn77943:1 emissions_carIn77943:1" vType="default_016" speedFactor="0.97" vaporized="">
        <emissions CO_abs="11721.445937" CO2_abs="619049.088510" HC_abs="67.868283" PMx_abs="10.951146" NOx_abs="252.583021" fuel_abs="266.104647" electricity_abs="0"/>
    </tripinfo>
    <tripinfo id="carIn73855:1" depart="57743.00" departLane="386687232#0_1" departPos="5.10" departSpeed="0.00" departDelay="0.50" arrival="57864.00" arrivalLane="-315358244_1" arrivalPos="33.95" arrivalSpeed="13.77" duration="121.00" routeLength="1157.39" waitingTime="19.00" waitingCount="2" stopTime="0.00" timeLoss="39.13" rerouteNo="1" devices="tripinfo_carIn73855:1 routing_carIn73855:1 emissions_carIn73855:1" vType="default_016" speedFactor="1.04" vaporized="">
        <emissions CO_abs="5648.392365" CO2_abs="331995.759343" HC_abs="33.413114" PMx_abs="5.802443" NOx_abs="134.213081" fuel_abs="142.711434" electricity_abs="0"/>
    </tripinfo>
    <tripinfo id="carIn126378:1" depart="57746.00" departLane="386687232#0_1" departPos="5.10" departSpeed="0.00" departDelay="1.80" arrival="57864.00" arrivalLane="-315358244_2" arrivalPos="33.95" arrivalSpeed="12.77" duration="118.00" routeLength="1157.39" waitingTime="10.00" waitingCount="1" stopTime="0.00" timeLoss="27.86" rerouteNo="1" devices="tripinfo_carIn126378:1 routing_carIn126378:1 emissions_carIn126378:1" vType="default_016" speedFactor="0.94" vaporized="">
        <emissions CO_abs="5025.900951" CO2_abs="293093.761780" HC_abs="29.736845" PMx_abs="5.021203" NOx_abs="118.484453" fuel_abs="125.989189" electricity_abs="0"/>
    </tripinfo>
    <tripinfo id="carIn77438:1" depart="57614.00" departLane="124812856#0_1" departPos="5.10" departSpeed="0.00" departDelay="1.10" arrival="57865.00" arrivalLane="-128361102#1_1" arrivalPos="274.68" arrivalSpeed="12.32" duration="251.00" routeLength="2250.49" waitingTime="32.00" waitingCount="3" stopTime="0.00" timeLoss="71.18" rerouteNo="1" devices="tripinfo_carIn77438:1 routing_carIn77438:1 emissions_carIn77438:1" vType="default_016" speedFactor="0.92" vaporized="">
        <emissions CO_abs="9986.447883" CO2_abs="541994.000570" HC_abs="58.074701" PMx_abs="9.048144" NOx_abs="217.662783" fuel_abs="232.982311" electricity_abs="0"/>
    </tripinfo>
    <tripinfo id="carIn12858:1" depart="57661.00" departLane="128361109#1_1" departPos="5.10" departSpeed="0.00" departDelay="0.90" arrival="57865.00" arrivalLane="399835085#1_1" arrivalPos="212.23" arrivalSpeed="7.37" duration="204.00" routeLength="1738.12" waitingTime="46.00" waitingCount="3" stopTime="0.00" timeLoss="89.68" rerouteNo="1" devices="tripinfo_carIn12858:1 routing_carIn12858:1 emissions_carIn12858:1" vType="default_016" speedFactor="1.01" vaporized="">
        <emissions CO_abs="14043.431518" CO2_abs="575476.245064" HC_abs="77.513516" PMx_abs="11.364704" NOx_abs="241.873946" fuel_abs="247.375345" electricity_abs="0"/>
    </tripinfo>
    <tripinfo id="carIn29531:1" depart="57667.00" departLane="128361102#0_1" departPos="5.10" departSpeed="0.00" departDelay="1.60" arrival="57865.00" arrivalLane="201956811#0_1" arrivalPos="40.40" arrivalSpeed="12.88" duration="198.00" routeLength="2067.33" waitingTime="21.00" waitingCount="1" stopTime="0.00" timeLoss="42.68" rerouteNo="1" devices="tripinfo_carIn29531:1 routing_carIn29531:1 emissions_carIn29531:1" vType="default_016" speedFactor="0.97" vaporized="">
        <emissions CO_abs="7727.579629" CO2_abs="460862.044129" HC_abs="45.923318" PMx_abs="7.601175" NOx_abs="183.477777" fuel_abs="198.106405" electricity_abs="0"/>
    </tripinfo>
    <tripinfo id="carIn129809:1" depart="57729.00" departLane="-447569998#1_1" departPos="5.10" departSpeed="0.00" departDelay="1.00" arrival="57865.00" arrivalLane="-315358244_1" arrivalPos="33.95" arrivalSpeed="15.30" duration="136.00" routeLength="706.49" waitingTime="62.00" waitingCount="2" stopTime="0.00" timeLoss="81.94" rerouteNo="1" devices="tripinfo_carIn129809:1 routing_carIn129809:1 emissions_carIn129809:1" vType="default_015" speedFactor="1.12" vaporized="">
        <emissions CO_abs="12543.943391" CO2_abs="348894.262654" HC_abs="65.226010" PMx_abs="7.289204" NOx_abs="150.004606" fuel_abs="149.979116" electricity_abs="0"/>