<?xml version="1.0" encoding="UTF-8"?>

<!-- generated on 2021-10-26 14:15:39 by Eclipse SUMO sumo Version 1.10.0
<configuration xmlns:xsi="http://www.w3.org/2001/XMLSchema-instance" xsi:noNamespaceSchemaLocation="http://sumo.dlr.de/xsd/sumoConfiguration.xsd">

    <input>
        <net-file value="/Users/behradkoohy/sumo-scratchpad/RESCO/environments/ingolstadt21/ingolstadt21.net.xml"/>
        <route-files value="/Users/behradkoohy/sumo-scratchpad/RESCO/environments/ingolstadt21/ingolstadt21.rou.xml"/>
    </input>

    <output>
        <tripinfo-output value="/Users/behradkoohy/sumo-scratchpad/RESCO/logs/STOCHASTIC-tr0-ingolstadt21-21-mplight-wait/tripinfo_35.xml"/>
        <tripinfo-output.write-unfinished value="true"/>
    </output>

    <time>
        <begin value="57600"/>
        <end value="61200"/>
    </time>

    <processing>
        <time-to-teleport value="-1"/>
    </processing>

    <report>
        <no-warnings value="true"/>
        <no-step-log value="true"/>
    </report>

    <emissions>
        <device.emissions.probability value="1"/>
    </emissions>

    <traci_server>
        <remote-port value="60164"/>
    </traci_server>

    <random_number>
        <random value="true"/>
    </random_number>

</configuration>
-->

<tripinfos xmlns:xsi="http://www.w3.org/2001/XMLSchema-instance" xsi:noNamespaceSchemaLocation="http://sumo.dlr.de/xsd/tripinfo_file.xsd">
    <tripinfo id="h15454c2:3" depart="57612.00" departLane="24608844_1" departPos="5.10" departSpeed="0.00" departDelay="0.50" arrival="57648.00" arrivalLane="32978638#0_1" arrivalPos="49.29" arrivalSpeed="14.35" duration="36.00" routeLength="354.79" waitingTime="0.00" waitingCount="0" stopTime="0.00" timeLoss="3.86" rerouteNo="1" devices="tripinfo_h15454c2:3 routing_h15454c2:3 emissions_h15454c2:3" vType="default_016" speedFactor="1.06" vaporized="">
        <emissions CO_abs="1756.352735" CO2_abs="109122.605508" HC_abs="10.541509" PMx_abs="1.827094" NOx_abs="43.988508" fuel_abs="46.907359" electricity_abs="0"/>
    </tripinfo>
    <tripinfo id="carIn60260:1" depart="57606.00" departLane="315358254#0_1" departPos="5.10" departSpeed="0.00" departDelay="0.90" arrival="57662.00" arrivalLane="399835085#1_1" arrivalPos="212.23" arrivalSpeed="7.96" duration="56.00" routeLength="430.98" waitingTime="0.00" waitingCount="0" stopTime="0.00" timeLoss="10.36" rerouteNo="1" devices="tripinfo_carIn60260:1 routing_carIn60260:1 emissions_carIn60260:1" vType="default_016" speedFactor="1.02" vaporized="">
        <emissions CO_abs="2330.162297" CO2_abs="118848.566918" HC_abs="13.377039" PMx_abs="2.069376" NOx_abs="48.860026" fuel_abs="51.088343" electricity_abs="0"/>
    </tripinfo>
    <tripinfo id="carIn53971:1" depart="57640.00" departLane="272042143_1" departPos="5.10" departSpeed="0.00" departDelay="0.80" arrival="57699.00" arrivalLane="24634414#1_1" arrivalPos="162.19" arrivalSpeed="6.46" duration="59.00" routeLength="493.04" waitingTime="0.00" waitingCount="0" stopTime="0.00" timeLoss="8.58" rerouteNo="1" devices="tripinfo_carIn53971:1 routing_carIn53971:1 emissions_carIn53971:1" vType="default_016" speedFactor="0.90" vaporized="">
        <emissions CO_abs="2537.007071" CO2_abs="134966.870058" HC_abs="14.696942" PMx_abs="2.346696" NOx_abs="55.456736" fuel_abs="58.016883" electricity_abs="0"/>
    </tripinfo>
    <tripinfo id="h7800c1:5" depart="57696.00" departLane="-447569998#1_1" departPos="5.10" departSpeed="0.00" departDelay="0.00" arrival="57722.00" arrivalLane="-447569998#1_1" arrivalPos="180.76" arrivalSpeed="6.75" duration="26.00" routeLength="175.66" waitingTime="0.00" waitingCount="0" stopTime="0.00" timeLoss="3.40" rerouteNo="1" devices="tripinfo_h7800c1:5 routing_h7800c1:5 emissions_h7800c1:5" vType="default_016" speedFactor="0.95" vaporized="">
        <emissions CO_abs="1257.129071" CO2_abs="52188.851245" HC_abs="6.923015" PMx_abs="0.874003" NOx_abs="21.387543" fuel_abs="22.434180" electricity_abs="0"/>
    </tripinfo>
    <tripinfo id="h12244c1:3" depart="57612.00" departLane="315358244_1" departPos="5.10" departSpeed="0.00" departDelay="0.40" arrival="57734.00" arrivalLane="386687235_1" arrivalPos="80.84" arrivalSpeed="14.18" duration="122.00" routeLength="1186.14" waitingTime="27.00" waitingCount="2" stopTime="0.00" timeLoss="42.62" rerouteNo="1" devices="tripinfo_h12244c1:3 routing_h12244c1:3 emissions_h12244c1:3" vType="default_016" speedFactor="1.09" vaporized="">
        <emissions CO_abs="7336.093973" CO2_abs="341248.413781" HC_abs="41.273169" PMx_abs="6.352485" NOx_abs="140.311349" fuel_abs="146.689491" electricity_abs="0"/>
    </tripinfo>
    <tripinfo id="h317c2:1" depart="57707.00" departLane="-32978638#0_1" departPos="5.10" departSpeed="0.00" departDelay="0.10" arrival="57738.00" arrivalLane="-266565295#5_1" arrivalPos="172.76" arrivalSpeed="14.70" duration="31.00" routeLength="370.53" waitingTime="0.00" waitingCount="0" stopTime="0.00" timeLoss="6.33" rerouteNo="1" devices="tripinfo_h317c2:1 routing_h317c2:1 emissions_h317c2:1" vType="default_016" speedFactor="1.14" vaporized="">
        <emissions CO_abs="1756.696950" CO2_abs="117697.236904" HC_abs="10.788967" PMx_abs="2.160405" NOx_abs="48.328737" fuel_abs="50.592871" electricity_abs="0"/>
    </tripinfo>
    <tripinfo id="S5R_frequency1.2" depart="57624.00" departLane="315358250#0_1" departPos="12.10" departSpeed="0.00" departDelay="12.40" arrival="57743.00" arrivalLane="386687235_1" arrivalPos="80.84" arrivalSpeed="13.75" duration="119.00" routeLength="1115.62" waitingTime="19.00" waitingCount="1" stopTime="0.00" timeLoss="37.62" rerouteNo="1" devices="tripinfo_S5R_frequency1.2 routing_S5R_frequency1.2 emissions_S5R_frequency1.2" vType="bus" speedFactor="1.00" vaporized="">
        <emissions CO_abs="2408.146413" CO2_abs="1409115.024573" HC_abs="509.650671" PMx_abs="255.639865" NOx_abs="11209.139650" fuel_abs="600.934201" electricity_abs="0"/>
    </tripinfo>
    <tripinfo id="h4538c1:1" depart="57701.00" departLane="-10427692#1_1" departPos="5.10" departSpeed="0.00" departDelay="0.00" arrival="57747.00" arrivalLane="-128361102#1_1" arrivalPos="274.68" arrivalSpeed="13.29" duration="46.00" routeLength="440.74" waitingTime="3.00" waitingCount="1" stopTime="0.00" timeLoss="13.30" rerouteNo="1" devices="tripinfo_h4538c1:1 routing_h4538c1:1 emissions_h4538c1:1" vType="default_016" speedFactor="0.98" vaporized="">
        <emissions CO_abs="2021.263306" CO2_abs="122129.135502" HC_abs="12.059000" PMx_abs="2.138763" NOx_abs="49.692722" fuel_abs="52.498253" electricity_abs="0"/>
    </tripinfo>
    <tripinfo id="h9563c2:5" depart="57631.00" departLane="315358244_1" departPos="5.10" departSpeed="0.00" departDelay="0.70" arrival="57748.00" arrivalLane="386687235_1" arrivalPos="80.84" arrivalSpeed="12.09" duration="117.00" routeLength="1186.14" waitingTime="10.00" waitingCount="1" stopTime="0.00" timeLoss="24.31" rerouteNo="1" devices="tripinfo_h9563c2:5 routing_h9563c2:5 emissions_h9563c2:5" vType="default_016" speedFactor="0.93" vaporized="">
        <emissions CO_abs="4465.438571" CO2_abs="272271.473912" HC_abs="26.689317" PMx_abs="4.579627" NOx_abs="109.423970" fuel_abs="117.038493" electricity_abs="0"/>
    </tripinfo>
    <tripinfo id="h7181c1:1" depart="57660.00" departLane="315358254#0_1" departPos="5.10" departSpeed="0.00" departDelay="0.10" arrival="57751.00" arrivalLane="306240162#0_0" arrivalPos="220.43" arrivalSpeed="16.04" duration="91.00" routeLength="932.35" waitingTime="20.00" waitingCount="1" stopTime="0.00" timeLoss="39.32" rerouteNo="1" devices="tripinfo_h7181c1:1 routing_h7181c1:1 emissions_h7181c1:1" vType="default_016" speedFactor="0.99" vaporized="">
        <emissions CO_abs="6846.469365" CO2_abs="332826.698619" HC_abs="39.131102" PMx_abs="6.730028" NOx_abs="139.557170" fuel_abs="143.068349" electricity_abs="0"/>
    </tripinfo>
    <tripinfo id="h5979c1:5" depart="57669.00" departLane="399835085#1_1" departPos="5.10" departSpeed="0.00" departDelay="0.00" arrival="57752.00" arrivalLane="-315358254#1_1" arrivalPos="137.16" arrivalSpeed="12.76" duration="83.00" routeLength="659.33" waitingTime="0.00" waitingCount="0" stopTime="0.00" timeLoss="9.64" rerouteNo="1" devices="tripinfo_h5979c1:5 routing_h5979c1:5 emissions_h5979c1:5" vType="default_016" speedFactor="0.99" vaporized="">
        <emissions CO_abs="3206.359418" CO2_abs="161674.423083" HC_abs="18.327764" PMx_abs="2.642803" NOx_abs="65.460431" fuel_abs="69.497784" electricity_abs="0"/>
    </tripinfo>
    <tripinfo id="h3688c1:1" depart="57625.00" departLane="201201950#1_1" departPos="5.10" departSpeed="0.00" departDelay="0.00" arrival="57753.00" arrivalLane="32978638#0_1" arrivalPos="49.29" arrivalSpeed="12.57" duration="128.00" routeLength="1089.75" waitingTime="25.00" waitingCount="1" stopTime="0.00" timeLoss="40.63" rerouteNo="1" devices="tripinfo_h3688c1:1 routing_h3688c1:1 emissions_h3688c1:1" vType="default_016" speedFactor="0.91" vaporized="">
        <emissions CO_abs="7073.464873" CO2_abs="313823.865484" HC_abs="39.541023" PMx_abs="5.644657" NOx_abs="128.862715" fuel_abs="134.901236" electricity_abs="0"/>
    </tripinfo>
    <tripinfo id="h3568c1:3" depart="57656.00" departLane="266565295#5_1" departPos="5.10" departSpeed="0.00" departDelay="0.80" arrival="57763.00" arrivalLane="-24634415_1" arrivalPos="62.03" arrivalSpeed="10.49" duration="107.00" routeLength="807.40" waitingTime="11.00" waitingCount="1" stopTime="0.00" timeLoss="27.76" rerouteNo="1" devices="tripinfo_h3568c1:3 routing_h3568c1:3 emissions_h3568c1:3" vType="default_016" speedFactor="0.81" vaporized="">
        <emissions CO_abs="5435.663979" CO2_abs="241656.239241" HC_abs="30.376150" PMx_abs="4.308439" NOx_abs="99.912135" fuel_abs="103.879003" electricity_abs="0"/>
    </tripinfo>
    <tripinfo id="h330c1:1" depart="57736.00" departLane="-32978638#0_1" departPos="5.10" departSpeed="0.00" departDelay="0.20" arrival="57770.00" arrivalLane="-266565295#5_1" arrivalPos="172.76" arrivalSpeed="13.36" duration="34.00" routeLength="370.53" waitingTime="0.00" waitingCount="0" stopTime="0.00" timeLoss="5.63" rerouteNo="1" devices="tripinfo_h330c1:1 routing_h330c1:1 emissions_h330c1:1" vType="default_016" speedFactor="0.97" vaporized="">
        <emissions CO_abs="1758.500001" CO2_abs="118324.560192" HC_abs="10.774361" PMx_abs="2.020794" NOx_abs="47.779703" fuel_abs="50.862735" electricity_abs="0"/>
    </tripinfo>
    <tripinfo id="h3326c1:2" depart="57656.00" departLane="22716069#0_1" departPos="5.10" departSpeed="0.00" departDelay="0.00" arrival="57773.00" arrivalLane="24634517#13_1" arrivalPos="111.62" arrivalSpeed="12.68" duration="117.00" routeLength="1312.81" waitingTime="0.00" waitingCount="0" stopTime="0.00" timeLoss="15.86" rerouteNo="1" devices="tripinfo_h3326c1:2 routing_h3326c1:2 emissions_h3326c1:2" vType="default_016" speedFactor="0.96" vaporized="">
        <emissions CO_abs="4574.700489" CO2_abs="333638.520861" HC_abs="28.641973" PMx_abs="5.574851" NOx_abs="133.698671" fuel_abs="143.417009" electricity_abs="0"/>
    </tripinfo>
    <tripinfo id="carIn30817:1" depart="57681.00" departLane="315358244_1" departPos="5.10" departSpeed="0.00" departDelay="0.20" arrival="57792.00" arrivalLane="447569997#1_1" arrivalPos="180.93" arrivalSpeed="8.31" duration="111.00" routeLength="718.04" waitingTime="40.00" waitingCount="1" stopTime="0.00" timeLoss="52.41" rerouteNo="1" devices="tripinfo_carIn30817:1 routing_carIn30817:1 emissions_carIn30817:1" vType="default_016" speedFactor="1.06" vaporized="">
        <emissions CO_abs="8322.298898" CO2_abs="271114.054523" HC_abs="44.259910" PMx_abs="5.399291" NOx_abs="114.905261" fuel_abs="116.542945" electricity_abs="0"/>
    </tripinfo>
    <tripinfo id="carIn27009:1" depart="57673.00" departLane="-447569998#1_1" departPos="5.10" departSpeed="0.00" departDelay="0.50" arrival="57801.00" arrivalLane="-26677539_1" arrivalPos="152.75" arrivalSpeed="6.81" duration="128.00" routeLength="699.63" waitingTime="6.00" waitingCount="1" stopTime="0.00" timeLoss="25.55" rerouteNo="1" devices="tripinfo_carIn27009:1 routing_carIn27009:1 emissions_carIn27009:1" vType="default_015" speedFactor="0.82" vaporized="">
        <emissions CO_abs="5654.804104" CO2_abs="209379.413935" HC_abs="30.549945" PMx_abs="3.577992" NOx_abs="86.489642" fuel_abs="90.005349" electricity_abs="0"/>
    </tripinfo>
    <tripinfo id="carIn50326:1" depart="57651.00" departLane="128361102#0_1" departPos="5.10" departSpeed="0.00" departDelay="0.30" arrival="57802.00" arrivalLane="18809673#0_1" arrivalPos="473.56" arrivalSpeed="15.27" duration="151.00" routeLength="1591.07" waitingTime="10.00" waitingCount="1" stopTime="0.00" timeLoss="34.39" rerouteNo="1" devices="tripinfo_carIn50326:1 routing_carIn50326:1 emissions_carIn50326:1" vType="default_016" speedFactor="1.12" vaporized="">
        <emissions CO_abs="6011.095182" CO2_abs="396686.372063" HC_abs="36.410673" PMx_abs="6.686913" NOx_abs="158.473994" fuel_abs="170.519040" electricity_abs="0"/>
    </tripinfo>
    <tripinfo id="carIn107282:1" depart="57749.00" departLane="-447569998#1_1" departPos="5.10" departSpeed="0.00" departDelay="0.00" arrival="57806.00" arrivalLane="315358242#0_1" arrivalPos="165.37" arrivalSpeed="12.81" duration="57.00" routeLength="448.50" waitingTime="5.00" waitingCount="1" stopTime="0.00" timeLoss="13.49" rerouteNo="1" devices="tripinfo_carIn107282:1 routing_carIn107282:1 emissions_carIn107282:1" vType="default_016" speedFactor="0.97" vaporized="">
        <emissions CO_abs="2322.107484" CO2_abs="124213.362756" HC_abs="13.452993" PMx_abs="2.108852" NOx_abs="50.532905" fuel_abs="53.394462" electricity_abs="0"/>
    </tripinfo>
    <tripinfo id="h3154c1:1" depart="57658.00" departLane="24634507_1" departPos="5.10" departSpeed="0.00" departDelay="0.00" arrival="57811.00" arrivalLane="-266565295#5_1" arrivalPos="172.76" arrivalSpeed="10.94" duration="153.00" routeLength="1206.22" waitingTime="26.00" waitingCount="2" stopTime="0.00" timeLoss="46.76" rerouteNo="1" devices="tripinfo_h3154c1:1 routing_h3154c1:1 emissions_h3154c1:1" vType="default_016" speedFactor="0.84" vaporized="">
        <emissions CO_abs="6622.224217" CO2_abs="321907.006775" HC_abs="37.638775" PMx_abs="5.542848" NOx_abs="131.118021" fuel_abs="138.375658" electricity_abs="0"/>
    </tripinfo>
    <tripinfo id="carIn12365:1" depart="57713.00" departLane="315358244_1" departPos="5.10" departSpeed="0.00" departDelay="0.50" arrival="57812.00" arrivalLane="447569997#1_1" arrivalPos="180.93" arrivalSpeed="5.70" duration="99.00" routeLength="718.04" waitingTime="8.00" waitingCount="1" stopTime="0.00" timeLoss="22.70" rerouteNo="1" devices="tripinfo_carIn12365:1 routing_carIn12365:1 emissions_carIn12365:1" vType="default_016" speedFactor="0.81" vaporized="">
        <emissions CO_abs="4013.786172" CO2_abs="184883.225392" HC_abs="22.534386" PMx_abs="3.032504" NOx_abs="74.690679" fuel_abs="79.474685" electricity_abs="0"/>
    </tripinfo>
    <tripinfo id="carIn129809:1" depart="57729.00" departLane="-447569998#1_1" departPos="5.10" departSpeed="0.00" departDelay="1.00" arrival="57813.00" arrivalLane="-315358244_1" arrivalPos="33.95" arrivalSpeed="13.61" duration="84.00" routeLength="706.49" waitingTime="16.00" waitingCount="1" stopTime="0.00" timeLoss="27.43" rerouteNo="1" devices="tripinfo_carIn129809:1 routing_carIn129809:1 emissions_carIn129809:1" vType="default_015" speedFactor="1.07" vaporized="">
        <emissions CO_abs="4357.426562" CO2_abs="206517.147441" HC_abs="24.650311" PMx_abs="3.750895" NOx_abs="84.873949" fuel_abs="88.773759" electricity_abs="0"/>
    </tripinfo>
    <tripinfo id="carIn86816:1" depart="57617.00" departLane="128361102#0_1" departPos="5.10" departSpeed="0.00" departDelay="0.80" arrival="57814.00" arrivalLane="201956811#0_1" arrivalPos="40.40" arrivalSpeed="13.00" duration="197.00" routeLength="2067.33" waitingTime="16.00" waitingCount="1" stopTime="0.00" timeLoss="42.32" rerouteNo="1" devices="tripinfo_carIn86816:1 routing_carIn86816:1 emissions_carIn86816:1" vType="default_016" speedFactor="0.98" vaporized="">
        <emissions CO_abs="8255.818635" CO2_abs="500906.380683" HC_abs="49.258210" PMx_abs="8.422287" NOx_abs="200.609642" fuel_abs="215.319494" electricity_abs="0"/>
    </tripinfo>
    <tripinfo id="h20540c1:1" depart="57634.00" departLane="10425609#0_1" departPos="5.10" departSpeed="0.00" departDelay="0.50" arrival="57823.00" arrivalLane="-128361102#1_1" arrivalPos="274.68" arrivalSpeed="15.73" duration="189.00" routeLength="2095.01" waitingTime="25.00" waitingCount="1" stopTime="0.00" timeLoss="55.70" rerouteNo="1" devices="tripinfo_h20540c1:1 routing_h20540c1:1 emissions_h20540c1:1" vType="default_016" speedFactor="1.15" vaporized="">
        <emissions CO_abs="10920.091528" CO2_abs="590924.236079" HC_abs="63.485423" PMx_abs="11.012989" NOx_abs="242.552955" fuel_abs="254.013988" electricity_abs="0"/>
    </tripinfo>
    <tripinfo id="carIn118591:1" depart="57689.00" departLane="315358244_1" departPos="5.10" departSpeed="0.00" departDelay="0.20" arrival="57848.00" arrivalLane="386687235_1" arrivalPos="80.84" arrivalSpeed="11.30" duration="159.00" routeLength="1186.14" waitingTime="43.00" waitingCount="2" stopTime="0.00" timeLoss="62.10" rerouteNo="1" devices="tripinfo_carIn118591:1 routing_carIn118591:1 emissions_carIn118591:1" vType="default_016" speedFactor="0.89" vaporized="">
        <emissions CO_abs="10438.503104" CO2_abs="377596.340989" HC_abs="56.317550" PMx_abs="6.921054" NOx_abs="156.023669" fuel_abs="162.316094" electricity_abs="0"/>
    </tripinfo>
    <tripinfo id="carIn12858:1" depart="57661.00" departLane="128361109#1_1" departPos="5.10" departSpeed="0.00" departDelay="0.90" arrival="57849.00" arrivalLane="399835085#1_1" arrivalPos="212.23" arrivalSpeed="5.47" duration="188.00" routeLength="1738.12" waitingTime="39.00" waitingCount="1" stopTime="0.00" timeLoss="72.09" rerouteNo="1" devices="tripinfo_carIn12858:1 routing_carIn12858:1 emissions_carIn12858:1" vType="default_016" speedFactor="0.99" vaporized="">
        <emissions CO_abs="13484.595969" CO2_abs="569905.431046" HC_abs="74.957788" PMx_abs="11.567715" NOx_abs="240.438041" fuel_abs="244.979946" electricity_abs="0"/>
    </tripinfo>
    <tripinfo id="carIn22761:1" depart="57616.00" departLane="-306240162#1_0" departPos="5.10" departSpeed="0.00" departDelay="2.10" arrival="57851.00" arrivalLane="399835085#1_1" arrivalPos="212.23" arrivalSpeed="6.75" duration="235.00" routeLength="1093.26" waitingTime="128.00" waitingCount="1" stopTime="0.00" timeLoss="153.07" rerouteNo="1" devices="tripinfo_carIn22761:1 routing_carIn22761:1 emissions_carIn22761:1" vType="default_016" speedFactor="0.95" vaporized="">
        <emissions CO_abs="25306.540821" CO2_abs="636100.204279" HC_abs="130.228409" PMx_abs="14.075826" NOx_abs="278.152341" fuel_abs="273.441236" electricity_abs="0"/>
    </tripinfo>
    <tripinfo id="carIn102915:1" depart="57643.00" departLane="128361102#0_1" departPos="5.10" departSpeed="0.00" departDelay="0.40" arrival="57854.00" arrivalLane="201956811#0_1" arrivalPos="40.40" arrivalSpeed="14.83" duration="211.00" routeLength="2067.33" waitingTime="37.00" waitingCount="3" stopTime="0.00" timeLoss="71.09" rerouteNo="1" devices="tripinfo_carIn102915:1 routing_carIn102915:1 emissions_carIn102915:1" vType="default_016" speedFactor="1.08" vaporized="">
        <emissions CO_abs="10970.150549" CO2_abs="571728.185058" HC_abs="63.297265" PMx_abs="10.433779" NOx_abs="233.895521" fuel_abs="245.763031" electricity_abs="0"/>
    </tripinfo>
    <tripinfo id="randUni15030:1" depart="57735.00" departLane="386687232#0_1" departPos="5.10" departSpeed="0.00" departDelay="0.10" arrival="57854.00" arrivalLane="26677539_1" arrivalPos="151.98" arrivalSpeed="7.96" duration="119.00" routeLength="919.89" waitingTime="26.00" waitingCount="1" stopTime="0.00" timeLoss="40.20" rerouteNo="1" devices="tripinfo_randUni15030:1 routing_randUni15030:1 emissions_randUni15030:1" vType="random_016" speedFactor="1.06" vaporized="">
        <emissions CO_abs="7101.395815" CO2_abs="284496.169294" HC_abs="38.921957" PMx_abs="5.234337" NOx_abs="117.620645" fuel_abs="122.294741" electricity_abs="0"/>
    </tripinfo>
    <tripinfo id="carIn80064:1" depart="57603.00" departLane="128361109#1_1" departPos="5.10" departSpeed="0.00" departDelay="0.40" arrival="57856.00" arrivalLane="-315358254#1_1" arrivalPos="137.16" arrivalSpeed="14.63" duration="253.00" routeLength="1587.97" waitingTime="141.00" waitingCount="2" stopTime="0.00" timeLoss="171.18" rerouteNo="1" devices="tripinfo_carIn80064:1 routing_carIn80064:1 emissions_carIn80064:1" vType="default_016" speedFactor="1.09" vaporized="">
        <emissions CO_abs="29110.308737" CO2_abs="841829.638462" HC_abs="152.550097" PMx_abs="18.561071" NOx_abs="364.679575" fuel_abs="361.875084" electricity_abs="0"/>
    </tripinfo>
    <tripinfo id="randUni33724:1" depart="57646.00" departLane="128361102#0_1" departPos="5.10" departSpeed="0.00" departDelay="1.20" arrival="57856.00" arrivalLane="201956811#0_1" arrivalPos="40.40" arrivalSpeed="12.22" duration="210.00" routeLength="2067.33" waitingTime="14.00" waitingCount="2" stopTime="0.00" timeLoss="40.10" rerouteNo="1" devices="tripinfo_randUni33724:1 routing_randUni33724:1 emissions_randUni33724:1" vType="random_016" speedFactor="0.89" vaporized="">
        <emissions CO_abs="7559.697303" CO2_abs="472519.713097" HC_abs="45.440287" PMx_abs="7.884650" NOx_abs="189.956376" fuel_abs="203.116997" electricity_abs="0"/>
    </tripinfo>
    <tripinfo id="carIn12152:1" depart="57647.00" departLane="24599188#0.94_1" departPos="5.10" departSpeed="0.00" departDelay="0.50" arrival="57866.00" arrivalLane="-315358254#1_1" arrivalPos="137.16" arrivalSpeed="13.55" duration="219.00" routeLength="2034.31" waitingTime="46.00" waitingCount="2" stopTime="0.00" timeLoss="66.30" rerouteNo="1" devices="tripinfo_carIn12152:1 routing_carIn12152:1 emissions_carIn12152:1" vType="default_016" speedFactor="1.04" vaporized="">
        <emissions CO_abs="11687.609900" CO2_abs="519338.738164" HC_abs="65.201625" PMx_abs="9.073447" NOx_abs="209.739959" fuel_abs="223.245009" electricity_abs="0"/>
    </tripinfo>
    <tripinfo id="h17549c1:1" depart="57680.00" departLane="-447569998#1_1" departPos="5.10" departSpeed="0.00" departDelay="0.00" arrival="57869.00" arrivalLane="-315358254#1_1" arrivalPos="137.16" arrivalSpeed="12.84" duration="189.00" routeLength="1746.60" waitingTime="31.00" waitingCount="2" stopTime="0.00" timeLoss="51.88" rerouteNo="1" devices="tripinfo_h17549c1:1 routing_h17549c1:1 emissions_h17549c1:1" vType="default_016" speedFactor="1.00" vaporized="">
        <emissions CO_abs="8433.980473" CO2_abs="420828.487011" HC_abs="48.166190" PMx_abs="7.237626" NOx_abs="169.706849" fuel_abs="180.898248" electricity_abs="0"/>
    </tripinfo>
    <tripinfo id="h5216c1:1" depart="57664.00" departLane="224892339#0_1" departPos="5.10" departSpeed="0.00" departDelay="0.00" arrival="57873.00" arrivalLane="386687235_1" arrivalPos="80.84" arrivalSpeed="15.39" duration="209.00" routeLength="1823.78" waitingTime="57.00" waitingCount="3" stopTime="0.00" timeLoss="94.75" rerouteNo="1" devices="tripinfo_h5216c1:1 routing_h5216c1:1 emissions_h5216c1:1" vType="default_016" speedFactor="1.13" vaporized="">
        <emissions CO_abs="14298.947854" CO2_abs="602297.686187" HC_abs="79.253103" PMx_abs="11.975915" NOx_abs="252.881926" fuel_abs="258.904461" electricity_abs="0"/>
    </tripinfo>
    <tripinfo id="carIn8642:1" depart="57774.00" departLane="-447569998#1_1" departPos="5.10" departSpeed="0.00" departDelay="0.90" arrival="57873.00" arrivalLane="-315358244_1" arrivalPos="33.95" arrivalSpeed="15.49" duration="99.00" routeLength="706.49" waitingTime="29.00" waitingCount="2" stopTime="0.00" timeLoss="44.88" rerouteNo="1" devices="tripinfo_carIn8642:1 routing_carIn8642:1 emissions_carIn8642:1" vType="default_016" speedFactor="1.12" vaporized="">
        <emissions CO_abs="7002.883906" CO2_abs="263530.187056" HC_abs="38.076237" PMx_abs="5.184262" NOx_abs="111.091137" fuel_abs="113.282075" electricity_abs="0"/>
    </tripinfo>
    <tripinfo id="h16072c2:3" depart="57663.00" departLane="315358254#0_1" departPos="5.10" departSpeed="0.00" departDelay="2.50" arrival="57875.00" arrivalLane="386687235_1" arrivalPos="80.84" arrivalSpeed="11.28" duration="212.00" routeLength="1611.92" waitingTime="55.00" waitingCount="2" stopTime="0.00" timeLoss="77.17" rerouteNo="1" devices="tripinfo_h16072c2:3 routing_h16072c2:3 emissions_h16072c2:3" vType="default_016" speedFactor="0.88" vaporized="">
        <emissions CO_abs="12323.623834" CO2_abs="462498.024274" HC_abs="66.864270" PMx_abs="8.334676" NOx_abs="190.136295" fuel_abs="198.812328" electricity_abs="0"/>
    </tripinfo>
    <tripinfo id="h19413c1:1" depart="57685.00" departLane="128361109#1_1" departPos="5.10" departSpeed="0.00" departDelay="5.90" arrival="57875.00" arrivalLane="386687235_2" arrivalPos="80.84" arrivalSpeed="13.06" duration="190.00" routeLength="2088.57" waitingTime="14.00" waitingCount="3" stopTime="0.00" timeLoss="44.07" rerouteNo="1" devices="tripinfo_h19413c1:1 routing_h19413c1:1 emissions_h19413c1:1" vType="default_016" speedFactor="1.03" vaporized="">
        <emissions CO_abs="6087.964718" CO2_abs="435214.887441" HC_abs="37.877484" PMx_abs="7.230510" NOx_abs="172.926310" fuel_abs="187.080653" electricity_abs="0"/>
    </tripinfo>
    <tripinfo id="h9953c2:3" depart="57682.00" departLane="-54169231#2_1" departPos="5.10" departSpeed="0.00" departDelay="0.00" arrival="57876.00" arrivalLane="386687235_1" arrivalPos="80.84" arrivalSpeed="12.11" duration="194.00" routeLength="1535.60" waitingTime="23.00" waitingCount="2" stopTime="0.00" timeLoss="51.47" rerouteNo="1" devices="tripinfo_h9953c2:3 routing_h9953c2:3 emissions_h9953c2:3" vType="default_016" speedFactor="0.88" vaporized="">
        <emissions CO_abs="8620.123497" CO2_abs="418300.791230" HC_abs="48.969293" PMx_abs="7.174211" NOx_abs="170.341062" fuel_abs="179.811745" electricity_abs="0"/>
    </tripinfo>
    <tripinfo id="carIn28951:1" depart="57606.00" departLane="10425609#0_1" departPos="5.10" departSpeed="0.00" departDelay="0.20" arrival="57877.00" arrivalLane="-128361102#1_1" arrivalPos="274.68" arrivalSpeed="13.54" duration="271.00" routeLength="2113.04" waitingTime="79.00" waitingCount="4" stopTime="0.00" timeLoss="113.73" rerouteNo="1" devices="tripinfo_carIn28951:1 routing_carIn28951:1 emissions_carIn28951:1" vType="default_016" speedFactor="0.99" vaporized="">
        <emissions CO_abs="17598.125907" CO2_abs="682467.890982" HC_abs="96.106902" PMx_abs="13.014072" NOx_abs="284.529144" fuel_abs="293.368431" electricity_abs="0"/>
    </tripinfo>
    <tripinfo id="carIn75660:1" depart="57679.00" departLane="128361109#1_1" departPos="5.10" departSpeed="0.00" departDelay="3.40" arrival="57877.00" arrivalLane="386687235_2" arrivalPos="80.84" arrivalSpeed="13.70" duration="198.00" routeLength="2088.57" waitingTime="18.00" waitingCount="3" stopTime="0.00" timeLoss="56.16" rerouteNo="1" devices="tripinfo_carIn75660:1 routing_carIn75660:1 emissions_carIn75660:1" vType="default_016" speedFactor="1.06" vaporized="">
        <emissions CO_abs="7343.116495" CO2_abs="480649.768181" HC_abs="44.698445" PMx_abs="8.425600" NOx_abs="194.757414" fuel_abs="206.610964" electricity_abs="0"/>
    </tripinfo>
    <tripinfo id="carIn7949:1" depart="57676.00" departLane="128361109#1_1" departPos="5.10" departSpeed="0.00" departDelay="2.10" arrival="57878.00" arrivalLane="386687235_1" arrivalPos="80.84" arrivalSpeed="13.41" duration="202.00" routeLength="2088.57" waitingTime="19.00" waitingCount="3" stopTime="0.00" timeLoss="50.95" rerouteNo="1" devices="tripinfo_carIn7949:1 routing_carIn7949:1 emissions_carIn7949:1" vType="default_016" speedFactor="1.00" vaporized="">
        <emissions CO_abs="5942.407393" CO2_abs="440710.037572" HC_abs="37.341300" PMx_abs="7.141389" NOx_abs="174.302065" fuel_abs="189.442842" electricity_abs="0"/>
    </tripinfo>
    <tripinfo id="carIn77438:1" depart="57614.00" departLane="124812856#0_1" departPos="5.10" departSpeed="0.00" departDelay="1.10" arrival="57879.00" arrivalLane="-128361102#1_1" arrivalPos="274.68" arrivalSpeed="13.48" duration="265.00" routeLength="2250.49" waitingTime="51.00" waitingCount="6" stopTime="0.00" timeLoss="106.31" rerouteNo="1" devices="tripinfo_carIn77438:1 routing_carIn77438:1 emissions_carIn77438:1" vType="default_016" speedFactor="1.04" vaporized="">
        <emissions CO_abs="12983.488693" CO2_abs="662028.272795" HC_abs="74.651063" PMx_abs="12.171032" NOx_abs="272.883146" fuel_abs="284.579388" electricity_abs="0"/>
    </tripinfo>
    <tripinfo id="h6541c1:3" depart="57727.00" departLane="201950247#3_1" departPos="5.10" departSpeed="0.00" departDelay="0.00" arrival="57880.00" arrivalLane="32978638#0_1" arrivalPos="49.29" arrivalSpeed="14.71" duration="153.00" routeLength="1176.17" waitingTime="33.00" waitingCount="2" stopTime="0.00" timeLoss="56.55" rerouteNo="1" devices="tripinfo_h6541c1:3 routing_h6541c1:3 emissions_h6541c1:3" vType="default_016" speedFactor="1.06" vaporized="">
        <emissions CO_abs="9021.003871" CO2_abs="396987.064395" HC_abs="50.333236" PMx_abs="7.500427" NOx_abs="165.557921" fuel_abs="170.649483" electricity_abs="0"/>
    </tripinfo>
    <tripinfo id="carIn46110:1" depart="57684.00" departLane="315358244_1" departPos="5.10" departSpeed="0.00" departDelay="1.20" arrival="57883.00" arrivalLane="32978638#0_1" arrivalPos="49.29" arrivalSpeed="14.14" duration="199.00" routeLength="1764.04" waitingTime="55.00" waitingCount="2" stopTime="0.00" timeLoss="77.11" rerouteNo="1" devices="tripinfo_carIn46110:1 routing_carIn46110:1 emissions_carIn46110:1" vType="default_016" speedFactor="1.05" vaporized="">
        <emissions CO_abs="12218.828855" CO2_abs="496608.202067" HC_abs="67.204985" PMx_abs="9.243495" NOx_abs="204.249090" fuel_abs="213.474000" electricity_abs="0"/>
    </tripinfo>