<?xml version="1.0" encoding="UTF-8"?>

<!-- generated on 2021-10-26 13:54:38 by Eclipse SUMO sumo Version 1.10.0
<configuration xmlns:xsi="http://www.w3.org/2001/XMLSchema-instance" xsi:noNamespaceSchemaLocation="http://sumo.dlr.de/xsd/sumoConfiguration.xsd">

    <input>
        <net-file value="/Users/behradkoohy/sumo-scratchpad/RESCO/environments/ingolstadt21/ingolstadt21.net.xml"/>
        <route-files value="/Users/behradkoohy/sumo-scratchpad/RESCO/environments/ingolstadt21/ingolstadt21.rou.xml"/>
    </input>

    <output>
        <tripinfo-output value="/Users/behradkoohy/sumo-scratchpad/RESCO/logs/STOCHASTIC-tr0-ingolstadt21-21-mplight-wait/tripinfo_1.xml"/>
        <tripinfo-output.write-unfinished value="true"/>
    </output>

    <time>
        <begin value="57600"/>
        <end value="61200"/>
    </time>

    <processing>
        <time-to-teleport value="-1"/>
    </processing>

    <report>
        <no-warnings value="true"/>
        <no-step-log value="true"/>
    </report>

    <emissions>
        <device.emissions.probability value="1"/>
    </emissions>

    <traci_server>
        <remote-port value="59875"/>
    </traci_server>

    <random_number>
        <random value="true"/>
    </random_number>

</configuration>
-->

<tripinfos xmlns:xsi="http://www.w3.org/2001/XMLSchema-instance" xsi:noNamespaceSchemaLocation="http://sumo.dlr.de/xsd/tripinfo_file.xsd">
    <tripinfo id="h15454c2:3" depart="57612.00" departLane="24608844_1" departPos="5.10" departSpeed="0.00" departDelay="0.50" arrival="57657.00" arrivalLane="32978638#0_1" arrivalPos="49.29" arrivalSpeed="12.42" duration="45.00" routeLength="354.79" waitingTime="0.00" waitingCount="0" stopTime="0.00" timeLoss="9.57" rerouteNo="1" devices="tripinfo_h15454c2:3 routing_h15454c2:3 emissions_h15454c2:3" vType="default_016" speedFactor="0.98" vaporized="">
        <emissions CO_abs="2396.950711" CO2_abs="120492.570060" HC_abs="13.693772" PMx_abs="1.978476" NOx_abs="48.715866" fuel_abs="51.795252" electricity_abs="0"/>
    </tripinfo>
    <tripinfo id="carIn60260:1" depart="57606.00" departLane="315358254#0_1" departPos="5.10" departSpeed="0.00" departDelay="0.90" arrival="57658.00" arrivalLane="399835085#1_1" arrivalPos="212.23" arrivalSpeed="8.34" duration="52.00" routeLength="430.98" waitingTime="0.00" waitingCount="0" stopTime="0.00" timeLoss="8.15" rerouteNo="1" devices="tripinfo_carIn60260:1 routing_carIn60260:1 emissions_carIn60260:1" vType="default_016" speedFactor="1.07" vaporized="">
        <emissions CO_abs="2160.048355" CO2_abs="111982.374034" HC_abs="12.416741" PMx_abs="1.808335" NOx_abs="45.098929" fuel_abs="48.137024" electricity_abs="0"/>
    </tripinfo>
    <tripinfo id="carIn53971:1" depart="57640.00" departLane="272042143_1" departPos="5.10" departSpeed="0.00" departDelay="0.80" arrival="57705.00" arrivalLane="24634414#1_1" arrivalPos="162.19" arrivalSpeed="6.49" duration="65.00" routeLength="493.04" waitingTime="0.00" waitingCount="0" stopTime="0.00" timeLoss="11.01" rerouteNo="1" devices="tripinfo_carIn53971:1 routing_carIn53971:1 emissions_carIn53971:1" vType="default_016" speedFactor="0.85" vaporized="">
        <emissions CO_abs="3006.417240" CO2_abs="143900.253629" HC_abs="16.999786" PMx_abs="2.335480" NOx_abs="58.144185" fuel_abs="61.857491" electricity_abs="0"/>
    </tripinfo>
    <tripinfo id="h7800c1:5" depart="57696.00" departLane="-447569998#1_1" departPos="5.10" departSpeed="0.00" departDelay="0.00" arrival="57725.00" arrivalLane="-447569998#1_2" arrivalPos="180.76" arrivalSpeed="4.51" duration="29.00" routeLength="175.66" waitingTime="1.00" waitingCount="1" stopTime="0.00" timeLoss="7.22" rerouteNo="1" devices="tripinfo_h7800c1:5 routing_h7800c1:5 emissions_h7800c1:5" vType="default_016" speedFactor="0.99" vaporized="">
        <emissions CO_abs="1554.574145" CO2_abs="60783.827962" HC_abs="8.466581" PMx_abs="0.989354" NOx_abs="24.723662" fuel_abs="26.128984" electricity_abs="0"/>
    </tripinfo>
    <tripinfo id="h3568c1:3" depart="57656.00" departLane="266565295#5_1" departPos="5.10" departSpeed="0.00" departDelay="0.80" arrival="57726.00" arrivalLane="-24634415_1" arrivalPos="62.03" arrivalSpeed="15.47" duration="70.00" routeLength="807.40" waitingTime="0.00" waitingCount="0" stopTime="0.00" timeLoss="13.64" rerouteNo="1" devices="tripinfo_h3568c1:3 routing_h3568c1:3 emissions_h3568c1:3" vType="default_016" speedFactor="1.14" vaporized="">
        <emissions CO_abs="3298.225704" CO2_abs="228057.027614" HC_abs="20.307172" PMx_abs="4.071081" NOx_abs="92.714933" fuel_abs="98.031782" electricity_abs="0"/>
    </tripinfo>
    <tripinfo id="h3688c1:1" depart="57625.00" departLane="201201950#1_1" departPos="5.10" departSpeed="0.00" departDelay="0.00" arrival="57728.00" arrivalLane="32978638#0_1" arrivalPos="49.29" arrivalSpeed="11.56" duration="103.00" routeLength="1089.75" waitingTime="0.00" waitingCount="0" stopTime="0.00" timeLoss="12.64" rerouteNo="1" devices="tripinfo_h3688c1:1 routing_h3688c1:1 emissions_h3688c1:1" vType="default_016" speedFactor="0.89" vaporized="">
        <emissions CO_abs="3334.354696" CO2_abs="245921.938884" HC_abs="20.881067" PMx_abs="3.810733" NOx_abs="96.815707" fuel_abs="105.711784" electricity_abs="0"/>
    </tripinfo>
    <tripinfo id="h4538c1:1" depart="57701.00" departLane="-10427692#1_1" departPos="5.10" departSpeed="0.00" departDelay="0.00" arrival="57744.00" arrivalLane="-128361102#1_1" arrivalPos="274.68" arrivalSpeed="12.26" duration="43.00" routeLength="440.74" waitingTime="0.00" waitingCount="0" stopTime="0.00" timeLoss="7.33" rerouteNo="1" devices="tripinfo_h4538c1:1 routing_h4538c1:1 emissions_h4538c1:1" vType="default_016" speedFactor="0.89" vaporized="">
        <emissions CO_abs="1642.819421" CO2_abs="108513.599695" HC_abs="9.992860" PMx_abs="1.708536" NOx_abs="43.025867" fuel_abs="46.645651" electricity_abs="0"/>
    </tripinfo>
    <tripinfo id="carIn121703:1" depart="57647.00" departLane="386687232#0_1" departPos="5.10" departSpeed="0.00" departDelay="0.30" arrival="57758.00" arrivalLane="-315358244_1" arrivalPos="33.95" arrivalSpeed="13.00" duration="111.00" routeLength="1157.39" waitingTime="3.00" waitingCount="2" stopTime="0.00" timeLoss="23.42" rerouteNo="1" devices="tripinfo_carIn121703:1 routing_carIn121703:1 emissions_carIn121703:1" vType="default_016" speedFactor="0.97" vaporized="">
        <emissions CO_abs="4041.144642" CO2_abs="276982.092801" HC_abs="24.871293" PMx_abs="4.594273" NOx_abs="110.656614" fuel_abs="119.063092" electricity_abs="0"/>
    </tripinfo>
    <tripinfo id="h5979c1:5" depart="57669.00" departLane="399835085#1_1" departPos="5.10" departSpeed="0.00" departDelay="0.00" arrival="57758.00" arrivalLane="-315358254#1_1" arrivalPos="137.16" arrivalSpeed="12.06" duration="89.00" routeLength="659.33" waitingTime="0.00" waitingCount="0" stopTime="0.00" timeLoss="10.03" rerouteNo="1" devices="tripinfo_h5979c1:5 routing_h5979c1:5 emissions_h5979c1:5" vType="default_016" speedFactor="0.93" vaporized="">
        <emissions CO_abs="3517.476662" CO2_abs="168624.041977" HC_abs="19.864241" PMx_abs="2.580861" NOx_abs="67.223184" fuel_abs="72.485573" electricity_abs="0"/>
    </tripinfo>
    <tripinfo id="h317c2:1" depart="57707.00" departLane="-32978638#0_1" departPos="5.10" departSpeed="0.00" departDelay="0.10" arrival="57758.00" arrivalLane="-266565295#5_1" arrivalPos="172.76" arrivalSpeed="11.33" duration="51.00" routeLength="370.53" waitingTime="9.00" waitingCount="1" stopTime="0.00" timeLoss="18.66" rerouteNo="1" devices="tripinfo_h317c2:1 routing_h317c2:1 emissions_h317c2:1" vType="default_016" speedFactor="0.84" vaporized="">
        <emissions CO_abs="2356.187741" CO2_abs="111768.378093" HC_abs="13.334018" PMx_abs="1.977271" NOx_abs="45.997287" fuel_abs="48.044957" electricity_abs="0"/>
    </tripinfo>
    <tripinfo id="h3326c1:2" depart="57656.00" departLane="22716069#0_1" departPos="5.10" departSpeed="0.00" departDelay="0.00" arrival="57770.00" arrivalLane="24634517#13_1" arrivalPos="111.62" arrivalSpeed="12.89" duration="114.00" routeLength="1312.81" waitingTime="0.00" waitingCount="0" stopTime="0.00" timeLoss="15.64" rerouteNo="1" devices="tripinfo_h3326c1:2 routing_h3326c1:2 emissions_h3326c1:2" vType="default_016" speedFactor="0.99" vaporized="">
        <emissions CO_abs="3754.720145" CO2_abs="287519.293514" HC_abs="23.796647" PMx_abs="4.725853" NOx_abs="114.479761" fuel_abs="123.592293" electricity_abs="0"/>
    </tripinfo>
    <tripinfo id="h330c1:1" depart="57736.00" departLane="-32978638#0_1" departPos="5.10" departSpeed="0.00" departDelay="0.20" arrival="57770.00" arrivalLane="-266565295#5_1" arrivalPos="172.76" arrivalSpeed="14.17" duration="34.00" routeLength="370.53" waitingTime="0.00" waitingCount="0" stopTime="0.00" timeLoss="6.65" rerouteNo="1" devices="tripinfo_h330c1:1 routing_h330c1:1 emissions_h330c1:1" vType="default_016" speedFactor="1.02" vaporized="">
        <emissions CO_abs="1746.254271" CO2_abs="114218.545055" HC_abs="10.637768" PMx_abs="2.006672" NOx_abs="46.490354" fuel_abs="49.097689" electricity_abs="0"/>
    </tripinfo>
    <tripinfo id="h7181c1:1" depart="57660.00" departLane="315358254#0_1" departPos="5.10" departSpeed="0.00" departDelay="0.10" arrival="57780.00" arrivalLane="306240162#0_0" arrivalPos="220.43" arrivalSpeed="17.82" duration="120.00" routeLength="932.35" waitingTime="51.00" waitingCount="2" stopTime="0.00" timeLoss="71.81" rerouteNo="1" devices="tripinfo_h7181c1:1 routing_h7181c1:1 emissions_h7181c1:1" vType="default_016" speedFactor="1.08" vaporized="">
        <emissions CO_abs="10740.337793" CO2_abs="398601.672708" HC_abs="58.306592" PMx_abs="8.404067" NOx_abs="169.267642" fuel_abs="171.343909" electricity_abs="0"/>
    </tripinfo>
    <tripinfo id="carIn27009:1" depart="57673.00" departLane="-447569998#1_1" departPos="5.10" departSpeed="0.00" departDelay="0.50" arrival="57788.00" arrivalLane="-26677539_1" arrivalPos="152.75" arrivalSpeed="8.63" duration="115.00" routeLength="699.63" waitingTime="24.00" waitingCount="1" stopTime="0.00" timeLoss="38.59" rerouteNo="1" devices="tripinfo_carIn27009:1 routing_carIn27009:1 emissions_carIn27009:1" vType="default_015" speedFactor="1.09" vaporized="">
        <emissions CO_abs="6812.135619" CO2_abs="239102.948065" HC_abs="36.548425" PMx_abs="4.328656" NOx_abs="99.603681" fuel_abs="102.782531" electricity_abs="0"/>
    </tripinfo>
    <tripinfo id="carIn80064:1" depart="57603.00" departLane="128361109#1_1" departPos="5.10" departSpeed="0.00" departDelay="0.40" arrival="57790.00" arrivalLane="-315358254#1_1" arrivalPos="137.16" arrivalSpeed="11.89" duration="187.00" routeLength="1587.97" waitingTime="51.00" waitingCount="3" stopTime="0.00" timeLoss="88.74" rerouteNo="1" devices="tripinfo_carIn80064:1 routing_carIn80064:1 emissions_carIn80064:1" vType="default_016" speedFactor="0.91" vaporized="">
        <emissions CO_abs="13164.766452" CO2_abs="558422.571139" HC_abs="73.075678" PMx_abs="10.944389" NOx_abs="232.973089" fuel_abs="240.044466" electricity_abs="0"/>
    </tripinfo>
    <tripinfo id="carIn22761:1" depart="57616.00" departLane="-306240162#1_0" departPos="5.10" departSpeed="0.00" departDelay="2.10" arrival="57792.00" arrivalLane="399835085#1_1" arrivalPos="212.23" arrivalSpeed="7.75" duration="176.00" routeLength="1093.26" waitingTime="71.00" waitingCount="3" stopTime="0.00" timeLoss="103.39" rerouteNo="1" devices="tripinfo_carIn22761:1 routing_carIn22761:1 emissions_carIn22761:1" vType="default_016" speedFactor="1.07" vaporized="">
        <emissions CO_abs="16048.623456" CO2_abs="526639.338796" HC_abs="85.527256" PMx_abs="10.938895" NOx_abs="224.781499" fuel_abs="226.384140" electricity_abs="0"/>
    </tripinfo>
    <tripinfo id="carIn129809:1" depart="57729.00" departLane="-447569998#1_1" departPos="5.10" departSpeed="0.00" departDelay="1.00" arrival="57795.00" arrivalLane="-315358244_1" arrivalPos="33.95" arrivalSpeed="13.48" duration="66.00" routeLength="706.49" waitingTime="0.00" waitingCount="0" stopTime="0.00" timeLoss="6.54" rerouteNo="1" devices="tripinfo_carIn129809:1 routing_carIn129809:1 emissions_carIn129809:1" vType="default_015" speedFactor="1.02" vaporized="">
        <emissions CO_abs="2038.586623" CO2_abs="140164.605997" HC_abs="12.552991" PMx_abs="2.299401" NOx_abs="55.854048" fuel_abs="60.250971" electricity_abs="0"/>
    </tripinfo>
    <tripinfo id="carIn50326:1" depart="57651.00" departLane="128361102#0_1" departPos="5.10" departSpeed="0.00" departDelay="0.30" arrival="57800.00" arrivalLane="18809673#0_1" arrivalPos="473.56" arrivalSpeed="14.38" duration="149.00" routeLength="1591.07" waitingTime="8.00" waitingCount="1" stopTime="0.00" timeLoss="28.66" rerouteNo="1" devices="tripinfo_carIn50326:1 routing_carIn50326:1 emissions_carIn50326:1" vType="default_016" speedFactor="1.08" vaporized="">
        <emissions CO_abs="5350.645111" CO2_abs="360672.583793" HC_abs="32.732368" PMx_abs="5.938194" NOx_abs="143.424310" fuel_abs="155.038330" electricity_abs="0"/>
    </tripinfo>
    <tripinfo id="carIn12365:1" depart="57713.00" departLane="315358244_1" departPos="5.10" departSpeed="0.00" departDelay="0.50" arrival="57802.00" arrivalLane="447569997#1_2" arrivalPos="180.93" arrivalSpeed="8.67" duration="89.00" routeLength="718.04" waitingTime="14.00" waitingCount="1" stopTime="0.00" timeLoss="30.54" rerouteNo="1" devices="tripinfo_carIn12365:1 routing_carIn12365:1 emissions_carIn12365:1" vType="default_016" speedFactor="1.07" vaporized="">
        <emissions CO_abs="4544.479165" CO2_abs="213526.850215" HC_abs="25.663288" PMx_abs="3.717860" NOx_abs="87.099496" fuel_abs="91.787206" electricity_abs="0"/>
    </tripinfo>
    <tripinfo id="carIn30817:1" depart="57681.00" departLane="315358244_1" departPos="5.10" departSpeed="0.00" departDelay="0.20" arrival="57804.00" arrivalLane="447569997#1_1" arrivalPos="180.93" arrivalSpeed="6.87" duration="123.00" routeLength="718.04" waitingTime="38.00" waitingCount="2" stopTime="0.00" timeLoss="54.65" rerouteNo="1" devices="tripinfo_carIn30817:1 routing_carIn30817:1 emissions_carIn30817:1" vType="default_016" speedFactor="0.91" vaporized="">
        <emissions CO_abs="8350.819480" CO2_abs="264057.182250" HC_abs="44.170276" PMx_abs="5.061027" NOx_abs="111.179251" fuel_abs="113.509885" electricity_abs="0"/>
    </tripinfo>
    <tripinfo id="h3154c1:1" depart="57658.00" departLane="24634507_1" departPos="5.10" departSpeed="0.00" departDelay="0.00" arrival="57807.00" arrivalLane="-266565295#5_1" arrivalPos="172.76" arrivalSpeed="12.49" duration="149.00" routeLength="1206.22" waitingTime="37.00" waitingCount="2" stopTime="0.00" timeLoss="58.72" rerouteNo="1" devices="tripinfo_h3154c1:1 routing_h3154c1:1 emissions_h3154c1:1" vType="default_016" speedFactor="0.99" vaporized="">
        <emissions CO_abs="8617.929431" CO2_abs="375183.344315" HC_abs="48.026856" PMx_abs="6.921861" NOx_abs="154.991368" fuel_abs="161.277289" electricity_abs="0"/>
    </tripinfo>
    <tripinfo id="carIn107282:1" depart="57749.00" departLane="-447569998#1_1" departPos="5.10" departSpeed="0.00" departDelay="0.00" arrival="57810.00" arrivalLane="315358242#0_1" arrivalPos="165.37" arrivalSpeed="10.46" duration="61.00" routeLength="448.50" waitingTime="1.00" waitingCount="1" stopTime="0.00" timeLoss="10.21" rerouteNo="1" devices="tripinfo_carIn107282:1 routing_carIn107282:1 emissions_carIn107282:1" vType="default_016" speedFactor="0.83" vaporized="">
        <emissions CO_abs="2561.527307" CO2_abs="119488.550595" HC_abs="14.394863" PMx_abs="1.857685" NOx_abs="47.743358" fuel_abs="51.363968" electricity_abs="0"/>
    </tripinfo>
    <tripinfo id="carIn86816:1" depart="57617.00" departLane="128361102#0_1" departPos="5.10" departSpeed="0.00" departDelay="0.80" arrival="57812.00" arrivalLane="201956811#0_1" arrivalPos="40.40" arrivalSpeed="14.41" duration="195.00" routeLength="2067.33" waitingTime="28.00" waitingCount="2" stopTime="0.00" timeLoss="56.52" rerouteNo="1" devices="tripinfo_carIn86816:1 routing_carIn86816:1 emissions_carIn86816:1" vType="default_016" speedFactor="1.10" vaporized="">
        <emissions CO_abs="8691.258994" CO2_abs="501218.375755" HC_abs="51.172425" PMx_abs="8.877016" NOx_abs="202.706226" fuel_abs="215.453356" electricity_abs="0"/>
    </tripinfo>
    <tripinfo id="carIn28951:1" depart="57606.00" departLane="10425609#0_1" departPos="5.10" departSpeed="0.00" departDelay="0.20" arrival="57826.00" arrivalLane="-128361102#1_1" arrivalPos="274.68" arrivalSpeed="13.26" duration="220.00" routeLength="2113.04" waitingTime="39.00" waitingCount="2" stopTime="0.00" timeLoss="67.15" rerouteNo="1" devices="tripinfo_carIn28951:1 routing_carIn28951:1 emissions_carIn28951:1" vType="default_016" speedFactor="1.01" vaporized="">
        <emissions CO_abs="11037.504881" CO2_abs="550286.373198" HC_abs="63.043376" PMx_abs="9.641233" NOx_abs="222.864968" fuel_abs="236.547051" electricity_abs="0"/>
    </tripinfo>
    <tripinfo id="h12244c1:3" depart="57612.00" departLane="315358244_1" departPos="5.10" departSpeed="0.00" departDelay="0.40" arrival="57826.00" arrivalLane="386687235_1" arrivalPos="80.84" arrivalSpeed="13.72" duration="214.00" routeLength="1186.14" waitingTime="111.00" waitingCount="2" stopTime="0.00" timeLoss="130.75" rerouteNo="1" devices="tripinfo_h12244c1:3 routing_h12244c1:3 emissions_h12244c1:3" vType="default_016" speedFactor="1.04" vaporized="">
        <emissions CO_abs="20552.892529" CO2_abs="543532.880482" HC_abs="106.281586" PMx_abs="11.265599" NOx_abs="232.266752" fuel_abs="233.649494" electricity_abs="0"/>
    </tripinfo>
    <tripinfo id="h11737c1:1" depart="57665.00" departLane="272042143_1" departPos="5.10" departSpeed="0.00" departDelay="1.50" arrival="57827.00" arrivalLane="-315358254#1_1" arrivalPos="137.16" arrivalSpeed="12.47" duration="162.00" routeLength="1596.88" waitingTime="19.00" waitingCount="1" stopTime="0.00" timeLoss="39.83" rerouteNo="1" devices="tripinfo_h11737c1:1 routing_h11737c1:1 emissions_h11737c1:1" vType="default_016" speedFactor="0.96" vaporized="">
        <emissions CO_abs="6882.365298" CO2_abs="384060.891560" HC_abs="40.279844" PMx_abs="6.422965" NOx_abs="153.813067" fuel_abs="165.092828" electricity_abs="0"/>
    </tripinfo>
    <tripinfo id="carIn81046:1" depart="57611.00" departLane="124812856#0_1" departPos="5.10" departSpeed="0.00" departDelay="2.50" arrival="57828.00" arrivalLane="-128361102#1_1" arrivalPos="274.68" arrivalSpeed="13.49" duration="217.00" routeLength="2250.49" waitingTime="21.00" waitingCount="2" stopTime="0.00" timeLoss="52.71" rerouteNo="1" devices="tripinfo_carIn81046:1 routing_carIn81046:1 emissions_carIn81046:1" vType="default_016" speedFactor="1.00" vaporized="">
        <emissions CO_abs="8405.227311" CO2_abs="528676.445104" HC_abs="50.627946" PMx_abs="8.929607" NOx_abs="211.888467" fuel_abs="227.256417" electricity_abs="0"/>
    </tripinfo>
    <tripinfo id="carIn126288:1" depart="57674.00" departLane="272042143_1" departPos="5.10" departSpeed="0.00" departDelay="0.00" arrival="57828.00" arrivalLane="-315358254#1_1" arrivalPos="137.16" arrivalSpeed="13.59" duration="154.00" routeLength="1596.88" waitingTime="18.00" waitingCount="1" stopTime="0.00" timeLoss="43.60" rerouteNo="1" devices="tripinfo_carIn126288:1 routing_carIn126288:1 emissions_carIn126288:1" vType="default_016" speedFactor="1.05" vaporized="">
        <emissions CO_abs="6910.395458" CO2_abs="398633.696687" HC_abs="40.815875" PMx_abs="6.957275" NOx_abs="161.267863" fuel_abs="171.356494" electricity_abs="0"/>
    </tripinfo>
    <tripinfo id="carIn77943:1" depart="57608.00" departLane="124812856#0_1" departPos="5.10" departSpeed="0.00" departDelay="2.50" arrival="57830.00" arrivalLane="-128361102#1_1" arrivalPos="274.68" arrivalSpeed="15.66" duration="222.00" routeLength="2232.46" waitingTime="29.00" waitingCount="3" stopTime="0.00" timeLoss="82.23" rerouteNo="1" devices="tripinfo_carIn77943:1 routing_carIn77943:1 emissions_carIn77943:1" vType="default_016" speedFactor="1.17" vaporized="">
        <emissions CO_abs="10290.236459" CO2_abs="617034.147243" HC_abs="61.159036" PMx_abs="11.174641" NOx_abs="252.069736" fuel_abs="265.237010" electricity_abs="0"/>
    </tripinfo>
    <tripinfo id="S5R_frequency1.2" depart="57612.00" departLane="315358250#0_1" departPos="12.10" departSpeed="0.00" departDelay="0.40" arrival="57831.00" arrivalLane="386687235_1" arrivalPos="80.84" arrivalSpeed="13.35" duration="219.00" routeLength="1115.62" waitingTime="114.00" waitingCount="2" stopTime="0.00" timeLoss="137.36" rerouteNo="1" devices="tripinfo_S5R_frequency1.2 routing_S5R_frequency1.2 emissions_S5R_frequency1.2" vType="bus" speedFactor="1.00" vaporized="">
        <emissions CO_abs="4258.843628" CO2_abs="1871322.641424" HC_abs="956.940781" PMx_abs="439.257213" NOx_abs="16667.022950" fuel_abs="797.843209" electricity_abs="0"/>
    </tripinfo>
    <tripinfo id="h6541c1:3" depart="57727.00" departLane="201950247#3_1" departPos="5.10" departSpeed="0.00" departDelay="0.00" arrival="57834.00" arrivalLane="32978638#0_1" arrivalPos="49.29" arrivalSpeed="14.88" duration="107.00" routeLength="1176.17" waitingTime="2.00" waitingCount="1" stopTime="0.00" timeLoss="18.19" rerouteNo="1" devices="tripinfo_h6541c1:3 routing_h6541c1:3 emissions_h6541c1:3" vType="default_016" speedFactor="1.16" vaporized="">
        <emissions CO_abs="4170.575166" CO2_abs="289433.667333" HC_abs="25.722510" PMx_abs="4.930067" NOx_abs="116.193989" fuel_abs="124.415281" electricity_abs="0"/>
    </tripinfo>
    <tripinfo id="h9563c2:5" depart="57631.00" departLane="315358244_1" departPos="5.10" departSpeed="0.00" departDelay="0.70" arrival="57835.00" arrivalLane="386687235_1" arrivalPos="80.84" arrivalSpeed="12.74" duration="204.00" routeLength="1186.14" waitingTime="87.00" waitingCount="2" stopTime="0.00" timeLoss="114.25" rerouteNo="1" devices="tripinfo_h9563c2:5 routing_h9563c2:5 emissions_h9563c2:5" vType="default_016" speedFactor="0.97" vaporized="">
        <emissions CO_abs="17523.947922" CO2_abs="506994.384001" HC_abs="91.686827" PMx_abs="10.350840" NOx_abs="216.453182" fuel_abs="217.941376" electricity_abs="0"/>
    </tripinfo>
    <tripinfo id="h645c1:1" depart="57622.00" departLane="266565295#5_1" departPos="5.10" departSpeed="0.00" departDelay="0.40" arrival="57837.00" arrivalLane="-315358244_1" arrivalPos="33.95" arrivalSpeed="13.12" duration="215.00" routeLength="1910.83" waitingTime="48.00" waitingCount="2" stopTime="0.00" timeLoss="72.21" rerouteNo="1" devices="tripinfo_h645c1:1 routing_h645c1:1 emissions_h645c1:1" vType="default_016" speedFactor="0.97" vaporized="">
        <emissions CO_abs="11701.446836" CO2_abs="507817.312475" HC_abs="65.120970" PMx_abs="9.081451" NOx_abs="207.005020" fuel_abs="218.292237" electricity_abs="0"/>
    </tripinfo>
    <tripinfo id="carIn118591:1" depart="57689.00" departLane="315358244_1" departPos="5.10" departSpeed="0.00" departDelay="0.20" arrival="57837.00" arrivalLane="386687235_1" arrivalPos="80.84" arrivalSpeed="12.58" duration="148.00" routeLength="1186.14" waitingTime="32.00" waitingCount="2" stopTime="0.00" timeLoss="59.02" rerouteNo="1" devices="tripinfo_carIn118591:1 routing_carIn118591:1 emissions_carIn118591:1" vType="default_016" speedFactor="0.97" vaporized="">
        <emissions CO_abs="8165.436578" CO2_abs="364234.190753" HC_abs="45.696168" PMx_abs="6.561909" NOx_abs="149.517366" fuel_abs="156.570722" electricity_abs="0"/>
    </tripinfo>
    <tripinfo id="randUni31145:1" depart="57814.00" departLane="10425609#0_1" departPos="5.10" departSpeed="0.00" departDelay="0.30" arrival="57838.00" arrivalLane="201956810_1" arrivalPos="71.65" arrivalSpeed="14.95" duration="24.00" routeLength="255.78" waitingTime="0.00" waitingCount="0" stopTime="0.00" timeLoss="5.92" rerouteNo="1" devices="tripinfo_randUni31145:1 routing_randUni31145:1 emissions_randUni31145:1" vType="random_016" speedFactor="1.11" vaporized="">
        <emissions CO_abs="1570.883366" CO2_abs="99177.137543" HC_abs="9.477630" PMx_abs="1.862513" NOx_abs="41.210200" fuel_abs="42.631880" electricity_abs="0"/>
    </tripinfo>
    <tripinfo id="carIn107084:1" depart="57601.00" departLane="124812856#0_1" departPos="5.10" departSpeed="0.00" departDelay="0.70" arrival="57843.00" arrivalLane="-128361102#1_1" arrivalPos="274.68" arrivalSpeed="15.19" duration="242.00" routeLength="2250.49" waitingTime="49.00" waitingCount="5" stopTime="0.00" timeLoss="96.32" rerouteNo="1" devices="tripinfo_carIn107084:1 routing_carIn107084:1 emissions_carIn107084:1" vType="default_016" speedFactor="1.13" vaporized="">
        <emissions CO_abs="13111.975861" CO2_abs="672589.095769" HC_abs="75.477084" PMx_abs="12.414618" NOx_abs="275.896557" fuel_abs="289.119083" electricity_abs="0"/>
    </tripinfo>
    <tripinfo id="h16072c2:3" depart="57663.00" departLane="315358254#0_1" departPos="5.10" departSpeed="0.00" departDelay="2.50" arrival="57844.00" arrivalLane="386687235_1" arrivalPos="80.84" arrivalSpeed="13.00" duration="181.00" routeLength="1611.92" waitingTime="38.00" waitingCount="3" stopTime="0.00" timeLoss="61.17" rerouteNo="1" devices="tripinfo_h16072c2:3 routing_h16072c2:3 emissions_h16072c2:3" vType="default_016" speedFactor="0.98" vaporized="">
        <emissions CO_abs="8984.946372" CO2_abs="425691.468041" HC_abs="50.846295" PMx_abs="7.462903" NOx_abs="172.722430" fuel_abs="182.988826" electricity_abs="0"/>
    </tripinfo>
    <tripinfo id="randUni15030:1" depart="57735.00" departLane="386687232#0_1" departPos="5.10" departSpeed="0.00" departDelay="0.10" arrival="57847.00" arrivalLane="26677539_1" arrivalPos="151.98" arrivalSpeed="8.51" duration="112.00" routeLength="919.89" waitingTime="15.00" waitingCount="1" stopTime="0.00" timeLoss="30.81" rerouteNo="1" devices="tripinfo_randUni15030:1 routing_randUni15030:1 emissions_randUni15030:1" vType="random_016" speedFactor="1.03" vaporized="">
        <emissions CO_abs="5435.560532" CO2_abs="260881.063396" HC_abs="30.831033" PMx_abs="4.574636" NOx_abs="106.742986" fuel_abs="112.142849" electricity_abs="0"/>
    </tripinfo>
    <tripinfo id="carIn77438:1" depart="57614.00" departLane="124812856#0_1" departPos="5.10" departSpeed="0.00" departDelay="1.10" arrival="57850.00" arrivalLane="-128361102#1_1" arrivalPos="274.68" arrivalSpeed="12.65" duration="236.00" routeLength="2250.49" waitingTime="17.00" waitingCount="3" stopTime="0.00" timeLoss="64.13" rerouteNo="1" devices="tripinfo_carIn77438:1 routing_carIn77438:1 emissions_carIn77438:1" vType="default_016" speedFactor="0.96" vaporized="">
        <emissions CO_abs="8681.398046" CO2_abs="548076.114855" HC_abs="52.340694" PMx_abs="9.284750" NOx_abs="221.129510" fuel_abs="235.595342" electricity_abs="0"/>
    </tripinfo>
    <tripinfo id="carIn12775:1" depart="57676.00" departLane="10425609#0_1" departPos="5.10" departSpeed="0.00" departDelay="0.60" arrival="57850.00" arrivalLane="18809673#0_1" arrivalPos="473.56" arrivalSpeed="14.60" duration="174.00" routeLength="1959.45" waitingTime="13.00" waitingCount="1" stopTime="0.00" timeLoss="38.48" rerouteNo="1" devices="tripinfo_carIn12775:1 routing_carIn12775:1 emissions_carIn12775:1" vType="default_016" speedFactor="1.08" vaporized="">
        <emissions CO_abs="6666.052519" CO2_abs="425775.486955" HC_abs="40.218289" PMx_abs="7.385328" NOx_abs="171.194236" fuel_abs="183.023160" electricity_abs="0"/>
    </tripinfo>
    <tripinfo id="carIn102915:1" depart="57643.00" departLane="128361102#0_1" departPos="5.10" departSpeed="0.00" departDelay="0.40" arrival="57855.00" arrivalLane="201956811#0_1" arrivalPos="40.40" arrivalSpeed="12.56" duration="212.00" routeLength="2067.33" waitingTime="26.00" waitingCount="2" stopTime="0.00" timeLoss="53.01" rerouteNo="1" devices="tripinfo_carIn102915:1 routing_carIn102915:1 emissions_carIn102915:1" vType="default_016" speedFactor="0.96" vaporized="">
        <emissions CO_abs="8628.779709" CO2_abs="488763.184951" HC_abs="50.725284" PMx_abs="8.448391" NOx_abs="197.797317" fuel_abs="210.099709" electricity_abs="0"/>
    </tripinfo>
    <tripinfo id="randUni33724:1" depart="57645.00" departLane="128361102#0_1" departPos="5.10" departSpeed="0.00" departDelay="0.20" arrival="57856.00" arrivalLane="201956811#0_1" arrivalPos="40.40" arrivalSpeed="14.45" duration="211.00" routeLength="2067.33" waitingTime="24.00" waitingCount="3" stopTime="0.00" timeLoss="74.87" rerouteNo="1" devices="tripinfo_randUni33724:1 routing_randUni33724:1 emissions_randUni33724:1" vType="random_016" speedFactor="1.11" vaporized="">
        <emissions CO_abs="9678.133435" CO2_abs="548389.687815" HC_abs="56.960157" PMx_abs="9.902493" NOx_abs="224.643393" fuel_abs="235.730102" electricity_abs="0"/>
    </tripinfo>
    <tripinfo id="carIn12152:1" depart="57647.00" departLane="24599188#0.94_1" departPos="5.10" departSpeed="0.00" departDelay="0.50" arrival="57856.00" arrivalLane="-315358254#1_1" arrivalPos="137.16" arrivalSpeed="14.46" duration="209.00" routeLength="2034.31" waitingTime="36.00" waitingCount="3" stopTime="0.00" timeLoss="66.57" rerouteNo="1" devices="tripinfo_carIn12152:1 routing_carIn12152:1 emissions_carIn12152:1" vType="default_016" speedFactor="1.11" vaporized="">
        <emissions CO_abs="10766.737655" CO2_abs="530771.714063" HC_abs="61.450933" PMx_abs="9.714806" NOx_abs="217.523618" fuel_abs="228.157930" electricity_abs="0"/>
    </tripinfo>
    <tripinfo id="carIn8642:1" depart="57774.00" departLane="-447569998#1_1" departPos="5.10" departSpeed="0.00" departDelay="0.90" arrival="57856.00" arrivalLane="-315358244_1" arrivalPos="33.95" arrivalSpeed="13.72" duration="82.00" routeLength="706.49" waitingTime="10.00" waitingCount="1" stopTime="0.00" timeLoss="20.93" rerouteNo="1" devices="tripinfo_carIn8642:1 routing_carIn8642:1 emissions_carIn8642:1" vType="default_016" speedFactor="0.99" vaporized="">
        <emissions CO_abs="3594.139717" CO2_abs="189499.537966" HC_abs="20.754933" PMx_abs="3.142579" NOx_abs="75.921054" fuel_abs="81.458663" electricity_abs="0"/>