<?xml version="1.0" encoding="UTF-8"?>

<!-- generated on 2021-10-26 14:23:36 by Eclipse SUMO sumo Version 1.10.0
<configuration xmlns:xsi="http://www.w3.org/2001/XMLSchema-instance" xsi:noNamespaceSchemaLocation="http://sumo.dlr.de/xsd/sumoConfiguration.xsd">

    <input>
        <net-file value="/Users/behradkoohy/sumo-scratchpad/RESCO/environments/ingolstadt21/ingolstadt21.net.xml"/>
        <route-files value="/Users/behradkoohy/sumo-scratchpad/RESCO/environments/ingolstadt21/ingolstadt21.rou.xml"/>
    </input>

    <output>
        <tripinfo-output value="/Users/behradkoohy/sumo-scratchpad/RESCO/logs/STOCHASTIC-tr0-ingolstadt21-21-mplight-wait/tripinfo_48.xml"/>
        <tripinfo-output.write-unfinished value="true"/>
    </output>

    <time>
        <begin value="57600"/>
        <end value="61200"/>
    </time>

    <processing>
        <time-to-teleport value="-1"/>
    </processing>

    <report>
        <no-warnings value="true"/>
        <no-step-log value="true"/>
    </report>

    <emissions>
        <device.emissions.probability value="1"/>
    </emissions>

    <traci_server>
        <remote-port value="60292"/>
    </traci_server>

    <random_number>
        <random value="true"/>
    </random_number>

</configuration>
-->

<tripinfos xmlns:xsi="http://www.w3.org/2001/XMLSchema-instance" xsi:noNamespaceSchemaLocation="http://sumo.dlr.de/xsd/tripinfo_file.xsd">
    <tripinfo id="h15454c2:3" depart="57612.00" departLane="24608844_1" departPos="5.10" departSpeed="0.00" departDelay="0.50" arrival="57662.00" arrivalLane="32978638#0_1" arrivalPos="49.29" arrivalSpeed="11.94" duration="50.00" routeLength="354.79" waitingTime="1.00" waitingCount="1" stopTime="0.00" timeLoss="10.38" rerouteNo="1" devices="tripinfo_h15454c2:3 routing_h15454c2:3 emissions_h15454c2:3" vType="default_016" speedFactor="0.87" vaporized="">
        <emissions CO_abs="2357.826983" CO2_abs="110132.336623" HC_abs="13.302020" PMx_abs="1.969703" NOx_abs="45.749859" fuel_abs="47.341653" electricity_abs="0"/>
    </tripinfo>
    <tripinfo id="carIn53971:1" depart="57640.00" departLane="272042143_1" departPos="5.10" departSpeed="0.00" departDelay="0.80" arrival="57691.00" arrivalLane="24634414#1_1" arrivalPos="162.19" arrivalSpeed="8.69" duration="51.00" routeLength="493.04" waitingTime="0.00" waitingCount="0" stopTime="0.00" timeLoss="9.77" rerouteNo="1" devices="tripinfo_carIn53971:1 routing_carIn53971:1 emissions_carIn53971:1" vType="default_016" speedFactor="1.12" vaporized="">
        <emissions CO_abs="2579.482026" CO2_abs="153234.538946" HC_abs="15.328511" PMx_abs="2.777885" NOx_abs="63.294745" fuel_abs="65.869032" electricity_abs="0"/>
    </tripinfo>
    <tripinfo id="h3688c1:1" depart="57625.00" departLane="201201950#1_1" departPos="5.10" departSpeed="0.00" departDelay="0.00" arrival="57720.00" arrivalLane="32978638#0_1" arrivalPos="49.29" arrivalSpeed="13.85" duration="95.00" routeLength="1089.75" waitingTime="5.00" waitingCount="1" stopTime="0.00" timeLoss="17.73" rerouteNo="1" devices="tripinfo_h3688c1:1 routing_h3688c1:1 emissions_h3688c1:1" vType="default_016" speedFactor="1.03" vaporized="">
        <emissions CO_abs="3257.862687" CO2_abs="248642.982507" HC_abs="20.623228" PMx_abs="4.162307" NOx_abs="99.113624" fuel_abs="106.880952" electricity_abs="0"/>
    </tripinfo>
    <tripinfo id="h7800c1:5" depart="57696.00" departLane="-447569998#1_1" departPos="5.10" departSpeed="0.00" departDelay="0.00" arrival="57725.00" arrivalLane="-447569998#1_2" arrivalPos="180.76" arrivalSpeed="5.93" duration="29.00" routeLength="175.66" waitingTime="0.00" waitingCount="0" stopTime="0.00" timeLoss="3.92" rerouteNo="1" devices="tripinfo_h7800c1:5 routing_h7800c1:5 emissions_h7800c1:5" vType="default_016" speedFactor="0.84" vaporized="">
        <emissions CO_abs="1388.900570" CO2_abs="52055.140200" HC_abs="7.515023" PMx_abs="0.872071" NOx_abs="21.392424" fuel_abs="22.376811" electricity_abs="0"/>
    </tripinfo>
    <tripinfo id="carIn60260:1" depart="57606.00" departLane="315358254#0_1" departPos="5.10" departSpeed="0.00" departDelay="0.90" arrival="57728.00" arrivalLane="399835085#1_1" arrivalPos="212.23" arrivalSpeed="6.95" duration="122.00" routeLength="430.98" waitingTime="60.00" waitingCount="1" stopTime="0.00" timeLoss="69.98" rerouteNo="1" devices="tripinfo_carIn60260:1 routing_carIn60260:1 emissions_carIn60260:1" vType="default_016" speedFactor="0.89" vaporized="">
        <emissions CO_abs="12009.180787" CO2_abs="275083.918624" HC_abs="61.063802" PMx_abs="5.711095" NOx_abs="118.975393" fuel_abs="118.252061" electricity_abs="0"/>
    </tripinfo>
    <tripinfo id="carIn121703:1" depart="57647.00" departLane="386687232#0_1" departPos="5.10" departSpeed="0.00" departDelay="0.30" arrival="57746.00" arrivalLane="-315358244_1" arrivalPos="33.95" arrivalSpeed="13.33" duration="99.00" routeLength="1157.39" waitingTime="0.00" waitingCount="0" stopTime="0.00" timeLoss="12.95" rerouteNo="1" devices="tripinfo_carIn121703:1 routing_carIn121703:1 emissions_carIn121703:1" vType="default_016" speedFactor="0.98" vaporized="">
        <emissions CO_abs="3133.910310" CO2_abs="246427.496540" HC_abs="20.024889" PMx_abs="3.968432" NOx_abs="97.349312" fuel_abs="105.928763" electricity_abs="0"/>
    </tripinfo>
    <tripinfo id="carIn22761:1" depart="57616.00" departLane="-306240162#1_0" departPos="5.10" departSpeed="0.00" departDelay="2.10" arrival="57748.00" arrivalLane="399835085#1_1" arrivalPos="212.23" arrivalSpeed="7.51" duration="132.00" routeLength="1093.26" waitingTime="25.00" waitingCount="1" stopTime="0.00" timeLoss="48.75" rerouteNo="1" devices="tripinfo_carIn22761:1 routing_carIn22761:1 emissions_carIn22761:1" vType="default_016" speedFactor="0.95" vaporized="">
        <emissions CO_abs="8794.112613" CO2_abs="373780.694451" HC_abs="48.837848" PMx_abs="7.400756" NOx_abs="157.143643" fuel_abs="160.673794" electricity_abs="0"/>
    </tripinfo>
    <tripinfo id="h5979c1:5" depart="57669.00" departLane="399835085#1_1" departPos="5.10" departSpeed="0.00" departDelay="0.00" arrival="57751.00" arrivalLane="-315358254#1_1" arrivalPos="137.16" arrivalSpeed="14.50" duration="82.00" routeLength="659.33" waitingTime="0.00" waitingCount="0" stopTime="0.00" timeLoss="16.12" rerouteNo="1" devices="tripinfo_h5979c1:5 routing_h5979c1:5 emissions_h5979c1:5" vType="default_016" speedFactor="1.12" vaporized="">
        <emissions CO_abs="3716.442373" CO2_abs="193646.187244" HC_abs="21.424860" PMx_abs="3.337885" NOx_abs="79.286891" fuel_abs="83.240903" electricity_abs="0"/>
    </tripinfo>
    <tripinfo id="carIn80064:1" depart="57603.00" departLane="128361109#1_1" departPos="5.10" departSpeed="0.00" departDelay="0.40" arrival="57757.00" arrivalLane="-315358254#1_1" arrivalPos="137.16" arrivalSpeed="13.16" duration="154.00" routeLength="1587.97" waitingTime="32.00" waitingCount="3" stopTime="0.00" timeLoss="66.11" rerouteNo="1" devices="tripinfo_carIn80064:1 routing_carIn80064:1 emissions_carIn80064:1" vType="default_016" speedFactor="1.01" vaporized="">
        <emissions CO_abs="10054.182426" CO2_abs="513929.462390" HC_abs="58.062634" PMx_abs="10.216544" NOx_abs="214.070900" fuel_abs="220.916748" electricity_abs="0"/>
    </tripinfo>
    <tripinfo id="h3326c1:2" depart="57656.00" departLane="22716069#0_1" departPos="5.10" departSpeed="0.00" departDelay="0.00" arrival="57757.00" arrivalLane="24634517#13_1" arrivalPos="111.62" arrivalSpeed="15.46" duration="101.00" routeLength="1312.81" waitingTime="0.00" waitingCount="0" stopTime="0.00" timeLoss="14.90" rerouteNo="1" devices="tripinfo_h3326c1:2 routing_h3326c1:2 emissions_h3326c1:2" vType="default_016" speedFactor="1.13" vaporized="">
        <emissions CO_abs="4038.446698" CO2_abs="324787.098931" HC_abs="25.852054" PMx_abs="5.675079" NOx_abs="130.377346" fuel_abs="139.611526" electricity_abs="0"/>
    </tripinfo>
    <tripinfo id="h3154c1:1" depart="57658.00" departLane="24634507_1" departPos="5.10" departSpeed="0.00" departDelay="0.00" arrival="57758.00" arrivalLane="-266565295#5_1" arrivalPos="172.76" arrivalSpeed="14.57" duration="100.00" routeLength="1206.22" waitingTime="0.00" waitingCount="0" stopTime="0.00" timeLoss="16.26" rerouteNo="1" devices="tripinfo_h3154c1:1 routing_h3154c1:1 emissions_h3154c1:1" vType="default_016" speedFactor="1.07" vaporized="">
        <emissions CO_abs="4136.269125" CO2_abs="307660.480582" HC_abs="25.957921" PMx_abs="5.329645" NOx_abs="123.944136" fuel_abs="132.249830" electricity_abs="0"/>
    </tripinfo>
    <tripinfo id="h3568c1:3" depart="57656.00" departLane="266565295#5_1" departPos="5.10" departSpeed="0.00" departDelay="0.80" arrival="57766.00" arrivalLane="-24634415_1" arrivalPos="62.03" arrivalSpeed="13.26" duration="110.00" routeLength="807.40" waitingTime="27.00" waitingCount="1" stopTime="0.00" timeLoss="44.42" rerouteNo="1" devices="tripinfo_h3568c1:3 routing_h3568c1:3 emissions_h3568c1:3" vType="default_016" speedFactor="0.98" vaporized="">
        <emissions CO_abs="7889.763723" CO2_abs="304669.592615" HC_abs="43.077278" PMx_abs="5.867443" NOx_abs="128.058566" fuel_abs="130.966389" electricity_abs="0"/>
    </tripinfo>
    <tripinfo id="h12244c1:3" depart="57612.00" departLane="315358244_1" departPos="5.10" departSpeed="0.00" departDelay="0.40" arrival="57767.00" arrivalLane="386687235_1" arrivalPos="80.84" arrivalSpeed="12.72" duration="155.00" routeLength="1186.14" waitingTime="49.00" waitingCount="1" stopTime="0.00" timeLoss="67.65" rerouteNo="1" devices="tripinfo_h12244c1:3 routing_h12244c1:3 emissions_h12244c1:3" vType="default_016" speedFactor="1.00" vaporized="">
        <emissions CO_abs="10861.260473" CO2_abs="383348.519583" HC_abs="58.414033" PMx_abs="7.298064" NOx_abs="159.516771" fuel_abs="164.788638" electricity_abs="0"/>
    </tripinfo>
    <tripinfo id="S5R_frequency1.2" depart="57612.00" departLane="315358250#0_1" departPos="12.10" departSpeed="0.00" departDelay="0.40" arrival="57769.00" arrivalLane="386687235_1" arrivalPos="80.84" arrivalSpeed="13.80" duration="157.00" routeLength="1115.62" waitingTime="57.00" waitingCount="1" stopTime="0.00" timeLoss="75.13" rerouteNo="1" devices="tripinfo_S5R_frequency1.2 routing_S5R_frequency1.2 emissions_S5R_frequency1.2" vType="bus" speedFactor="1.00" vaporized="">
        <emissions CO_abs="3003.032887" CO2_abs="1503673.210541" HC_abs="659.459205" PMx_abs="313.620536" NOx_abs="12687.365535" fuel_abs="641.177198" electricity_abs="0"/>
    </tripinfo>
    <tripinfo id="h645c1:1" depart="57622.00" departLane="266565295#5_1" departPos="5.10" departSpeed="0.00" departDelay="0.40" arrival="57772.00" arrivalLane="-315358244_1" arrivalPos="33.95" arrivalSpeed="14.18" duration="150.00" routeLength="1910.83" waitingTime="4.00" waitingCount="1" stopTime="0.00" timeLoss="20.22" rerouteNo="1" devices="tripinfo_h645c1:1 routing_h645c1:1 emissions_h645c1:1" vType="default_016" speedFactor="1.07" vaporized="">
        <emissions CO_abs="3685.534451" CO2_abs="354039.571716" HC_abs="24.862920" PMx_abs="5.439833" NOx_abs="136.471746" fuel_abs="152.186487" electricity_abs="0"/>
    </tripinfo>
    <tripinfo id="h317c2:1" depart="57707.00" departLane="-32978638#0_1" departPos="5.10" departSpeed="0.00" departDelay="0.10" arrival="57779.00" arrivalLane="-266565295#5_1" arrivalPos="172.76" arrivalSpeed="11.46" duration="72.00" routeLength="370.53" waitingTime="29.00" waitingCount="1" stopTime="0.00" timeLoss="38.88" rerouteNo="1" devices="tripinfo_h317c2:1 routing_h317c2:1 emissions_h317c2:1" vType="default_016" speedFactor="0.83" vaporized="">
        <emissions CO_abs="5963.300881" CO2_abs="172217.588551" HC_abs="31.174015" PMx_abs="3.442455" NOx_abs="73.362229" fuel_abs="74.031162" electricity_abs="0"/>
    </tripinfo>
    <tripinfo id="h330c1:1" depart="57736.00" departLane="-32978638#0_1" departPos="5.10" departSpeed="0.00" departDelay="0.20" arrival="57781.00" arrivalLane="-266565295#5_1" arrivalPos="172.76" arrivalSpeed="11.55" duration="45.00" routeLength="370.53" waitingTime="4.00" waitingCount="1" stopTime="0.00" timeLoss="14.80" rerouteNo="1" devices="tripinfo_h330c1:1 routing_h330c1:1 emissions_h330c1:1" vType="default_016" speedFactor="0.92" vaporized="">
        <emissions CO_abs="2134.299041" CO2_abs="117023.127118" HC_abs="12.461435" PMx_abs="2.092096" NOx_abs="48.240648" fuel_abs="50.303461" electricity_abs="0"/>
    </tripinfo>
    <tripinfo id="h4538c1:1" depart="57701.00" departLane="-10427692#1_1" departPos="5.10" departSpeed="0.00" departDelay="0.00" arrival="57797.00" arrivalLane="-128361102#1_1" arrivalPos="274.68" arrivalSpeed="12.65" duration="96.00" routeLength="440.74" waitingTime="54.00" waitingCount="1" stopTime="0.00" timeLoss="63.40" rerouteNo="1" devices="tripinfo_h4538c1:1 routing_h4538c1:1 emissions_h4538c1:1" vType="default_016" speedFactor="0.99" vaporized="">
        <emissions CO_abs="9896.226227" CO2_abs="243079.320145" HC_abs="50.752468" PMx_abs="5.156294" NOx_abs="105.078809" fuel_abs="104.493341" electricity_abs="0"/>
    </tripinfo>
    <tripinfo id="carIn82278:1" depart="57702.00" departLane="-306240162#1_0" departPos="5.10" departSpeed="0.00" departDelay="0.70" arrival="57797.00" arrivalLane="399835085#1_1" arrivalPos="212.23" arrivalSpeed="6.94" duration="95.00" routeLength="1093.26" waitingTime="0.00" waitingCount="0" stopTime="0.00" timeLoss="14.19" rerouteNo="1" devices="tripinfo_carIn82278:1 routing_carIn82278:1 emissions_carIn82278:1" vType="default_016" speedFactor="0.97" vaporized="">
        <emissions CO_abs="4164.463284" CO2_abs="268722.753830" HC_abs="25.356080" PMx_abs="5.059393" NOx_abs="110.915031" fuel_abs="115.512069" electricity_abs="0"/>
    </tripinfo>
    <tripinfo id="carIn27009:1" depart="57673.00" departLane="-447569998#1_1" departPos="5.10" departSpeed="0.00" departDelay="0.50" arrival="57798.00" arrivalLane="-26677539_1" arrivalPos="152.75" arrivalSpeed="7.46" duration="125.00" routeLength="699.63" waitingTime="21.00" waitingCount="1" stopTime="0.00" timeLoss="35.79" rerouteNo="1" devices="tripinfo_carIn27009:1 routing_carIn27009:1 emissions_carIn27009:1" vType="default_015" speedFactor="0.94" vaporized="">
        <emissions CO_abs="7437.097390" CO2_abs="249135.295366" HC_abs="39.578242" PMx_abs="4.340359" NOx_abs="103.001971" fuel_abs="107.095625" electricity_abs="0"/>
    </tripinfo>
    <tripinfo id="carIn30817:1" depart="57681.00" departLane="315358244_1" departPos="5.10" departSpeed="0.00" departDelay="0.20" arrival="57801.00" arrivalLane="447569997#1_1" arrivalPos="180.93" arrivalSpeed="7.79" duration="120.00" routeLength="718.04" waitingTime="43.00" waitingCount="2" stopTime="0.00" timeLoss="60.23" rerouteNo="1" devices="tripinfo_carIn30817:1 routing_carIn30817:1 emissions_carIn30817:1" vType="default_016" speedFactor="1.04" vaporized="">
        <emissions CO_abs="9054.884560" CO2_abs="287131.948373" HC_abs="47.932133" PMx_abs="5.577851" NOx_abs="120.805956" fuel_abs="123.428924" electricity_abs="0"/>
    </tripinfo>
    <tripinfo id="carIn12365:1" depart="57713.00" departLane="315358244_1" departPos="5.10" departSpeed="0.00" departDelay="0.50" arrival="57803.00" arrivalLane="447569997#1_1" arrivalPos="180.93" arrivalSpeed="7.50" duration="90.00" routeLength="718.04" waitingTime="11.00" waitingCount="2" stopTime="0.00" timeLoss="30.62" rerouteNo="1" devices="tripinfo_carIn12365:1 routing_carIn12365:1 emissions_carIn12365:1" vType="default_016" speedFactor="1.04" vaporized="">
        <emissions CO_abs="4805.147944" CO2_abs="213753.642507" HC_abs="26.884192" PMx_abs="3.934375" NOx_abs="88.864337" fuel_abs="91.884558" electricity_abs="0"/>
    </tripinfo>
    <tripinfo id="carIn129809:1" depart="57729.00" departLane="-447569998#1_1" departPos="5.10" departSpeed="0.00" departDelay="1.00" arrival="57803.00" arrivalLane="-315358244_1" arrivalPos="33.95" arrivalSpeed="15.08" duration="74.00" routeLength="706.49" waitingTime="4.00" waitingCount="1" stopTime="0.00" timeLoss="19.15" rerouteNo="1" devices="tripinfo_carIn129809:1 routing_carIn129809:1 emissions_carIn129809:1" vType="default_015" speedFactor="1.10" vaporized="">
        <emissions CO_abs="3552.146093" CO2_abs="202627.405454" HC_abs="20.917119" PMx_abs="3.644195" NOx_abs="83.187216" fuel_abs="87.101132" electricity_abs="0"/>
    </tripinfo>
    <tripinfo id="h9563c2:5" depart="57631.00" departLane="315358244_1" departPos="5.10" departSpeed="0.00" departDelay="0.70" arrival="57814.00" arrivalLane="386687235_1" arrivalPos="80.84" arrivalSpeed="12.88" duration="183.00" routeLength="1186.14" waitingTime="68.00" waitingCount="2" stopTime="0.00" timeLoss="90.13" rerouteNo="1" devices="tripinfo_h9563c2:5 routing_h9563c2:5 emissions_h9563c2:5" vType="default_016" speedFactor="0.93" vaporized="">
        <emissions CO_abs="13893.025593" CO2_abs="436259.263637" HC_abs="73.469554" PMx_abs="8.601908" NOx_abs="184.093989" fuel_abs="187.533982" electricity_abs="0"/>
    </tripinfo>
    <tripinfo id="h7181c1:1" depart="57660.00" departLane="315358254#0_1" departPos="5.10" departSpeed="0.00" departDelay="0.10" arrival="57814.00" arrivalLane="306240162#0_0" arrivalPos="220.43" arrivalSpeed="13.10" duration="154.00" routeLength="932.35" waitingTime="76.00" waitingCount="2" stopTime="0.00" timeLoss="91.83" rerouteNo="1" devices="tripinfo_h7181c1:1 routing_h7181c1:1 emissions_h7181c1:1" vType="default_016" speedFactor="0.83" vaporized="">
        <emissions CO_abs="14507.490677" CO2_abs="409650.069947" HC_abs="75.675388" PMx_abs="8.673502" NOx_abs="175.973165" fuel_abs="176.095943" electricity_abs="0"/>
    </tripinfo>
    <tripinfo id="carIn107282:1" depart="57749.00" departLane="-447569998#1_1" departPos="5.10" departSpeed="0.00" departDelay="0.00" arrival="57816.00" arrivalLane="315358242#0_1" arrivalPos="165.37" arrivalSpeed="13.33" duration="67.00" routeLength="448.50" waitingTime="15.00" waitingCount="1" stopTime="0.00" timeLoss="24.11" rerouteNo="1" devices="tripinfo_carIn107282:1 routing_carIn107282:1 emissions_carIn107282:1" vType="default_016" speedFactor="0.97" vaporized="">
        <emissions CO_abs="4005.399078" CO2_abs="147125.651086" HC_abs="21.656708" PMx_abs="2.679362" NOx_abs="60.926123" fuel_abs="63.244366" electricity_abs="0"/>
    </tripinfo>
    <tripinfo id="h11737c1:1" depart="57665.00" departLane="272042143_1" departPos="5.10" departSpeed="0.00" departDelay="1.50" arrival="57826.00" arrivalLane="-315358254#1_1" arrivalPos="137.16" arrivalSpeed="14.71" duration="161.00" routeLength="1596.88" waitingTime="31.00" waitingCount="2" stopTime="0.00" timeLoss="52.91" rerouteNo="1" devices="tripinfo_h11737c1:1 routing_h11737c1:1 emissions_h11737c1:1" vType="default_016" speedFactor="1.08" vaporized="">
        <emissions CO_abs="7684.946713" CO2_abs="414027.540871" HC_abs="44.707545" PMx_abs="7.453453" NOx_abs="168.331657" fuel_abs="177.973831" electricity_abs="0"/>
    </tripinfo>
    <tripinfo id="carIn81860:1" depart="57712.00" departLane="128361102#0_1" departPos="5.10" departSpeed="0.00" departDelay="0.60" arrival="57827.00" arrivalLane="-24634517#17_1" arrivalPos="6.43" arrivalSpeed="7.95" duration="115.00" routeLength="1229.64" waitingTime="4.00" waitingCount="1" stopTime="0.00" timeLoss="22.29" rerouteNo="1" devices="tripinfo_carIn81860:1 routing_carIn81860:1 emissions_carIn81860:1" vType="default_016" speedFactor="0.97" vaporized="">
        <emissions CO_abs="3328.897411" CO2_abs="254094.593629" HC_abs="21.074623" PMx_abs="4.065630" NOx_abs="100.411789" fuel_abs="109.224625" electricity_abs="0"/>
    </tripinfo>
    <tripinfo id="carIn28951:1" depart="57606.00" departLane="10425609#0_1" departPos="5.10" departSpeed="0.00" departDelay="0.20" arrival="57829.00" arrivalLane="-128361102#1_1" arrivalPos="274.68" arrivalSpeed="12.69" duration="223.00" routeLength="2113.04" waitingTime="27.00" waitingCount="2" stopTime="0.00" timeLoss="55.23" rerouteNo="1" devices="tripinfo_carIn28951:1 routing_carIn28951:1 emissions_carIn28951:1" vType="default_016" speedFactor="0.93" vaporized="">
        <emissions CO_abs="9225.034182" CO2_abs="519522.658908" HC_abs="54.092635" PMx_abs="8.631433" NOx_abs="208.046409" fuel_abs="223.322548" electricity_abs="0"/>
    </tripinfo>
    <tripinfo id="carIn12858:1" depart="57661.00" departLane="128361109#1_1" departPos="5.10" departSpeed="0.00" departDelay="0.90" arrival="57830.00" arrivalLane="399835085#1_1" arrivalPos="212.23" arrivalSpeed="8.51" duration="169.00" routeLength="1738.12" waitingTime="37.00" waitingCount="2" stopTime="0.00" timeLoss="65.34" rerouteNo="1" devices="tripinfo_carIn12858:1 routing_carIn12858:1 emissions_carIn12858:1" vType="default_016" speedFactor="1.11" vaporized="">
        <emissions CO_abs="11961.798636" CO2_abs="567650.593669" HC_abs="68.017374" PMx_abs="11.576125" NOx_abs="237.933984" fuel_abs="244.009531" electricity_abs="0"/>
    </tripinfo>
    <tripinfo id="carIn107084:1" depart="57601.00" departLane="124812856#0_1" departPos="5.10" departSpeed="0.00" departDelay="0.70" arrival="57831.00" arrivalLane="-128361102#1_1" arrivalPos="274.68" arrivalSpeed="12.60" duration="230.00" routeLength="2250.49" waitingTime="23.00" waitingCount="2" stopTime="0.00" timeLoss="50.54" rerouteNo="1" devices="tripinfo_carIn107084:1 routing_carIn107084:1 emissions_carIn107084:1" vType="default_016" speedFactor="0.92" vaporized="">
        <emissions CO_abs="7871.162349" CO2_abs="498911.214196" HC_abs="47.449944" PMx_abs="8.136674" NOx_abs="198.752345" fuel_abs="214.461884" electricity_abs="0"/>
    </tripinfo>
    <tripinfo id="carIn126288:1" depart="57674.00" departLane="272042143_1" departPos="5.10" departSpeed="0.00" departDelay="0.00" arrival="57831.00" arrivalLane="-315358254#1_1" arrivalPos="137.16" arrivalSpeed="11.72" duration="157.00" routeLength="1596.88" waitingTime="4.00" waitingCount="2" stopTime="0.00" timeLoss="25.62" rerouteNo="1" devices="tripinfo_carIn126288:1 routing_carIn126288:1 emissions_carIn126288:1" vType="default_016" speedFactor="0.89" vaporized="">
        <emissions CO_abs="4734.865636" CO2_abs="335151.046422" HC_abs="29.317024" PMx_abs="5.172355" NOx_abs="131.730990" fuel_abs="144.067932" electricity_abs="0"/>
    </tripinfo>
    <tripinfo id="carIn12152:1" depart="57647.00" departLane="24599188#0.94_1" departPos="5.10" departSpeed="0.00" departDelay="0.50" arrival="57832.00" arrivalLane="-315358254#1_1" arrivalPos="137.16" arrivalSpeed="12.58" duration="185.00" routeLength="2034.31" waitingTime="13.00" waitingCount="1" stopTime="0.00" timeLoss="39.24" rerouteNo="1" devices="tripinfo_carIn12152:1 routing_carIn12152:1 emissions_carIn12152:1" vType="default_016" speedFactor="1.09" vaporized="">
        <emissions CO_abs="7098.854285" CO2_abs="462265.947116" HC_abs="43.085769" PMx_abs="7.861791" NOx_abs="184.944223" fuel_abs="198.709016" electricity_abs="0"/>
    </tripinfo>
    <tripinfo id="50R_frequency3.17" depart="57674.00" departLane="-18809673#6_1" departPos="12.10" departSpeed="0.00" departDelay="0.70" arrival="57834.00" arrivalLane="201956811#0_1" arrivalPos="40.40" arrivalSpeed="13.66" duration="160.00" routeLength="1954.47" waitingTime="0.00" waitingCount="0" stopTime="0.00" timeLoss="15.33" rerouteNo="1" devices="tripinfo_50R_frequency3.17 routing_50R_frequency3.17 emissions_50R_frequency3.17" vType="bus" speedFactor="1.00" vaporized="">
        <emissions CO_abs="3028.946468" CO2_abs="1937612.385399" HC_abs="647.253779" PMx_abs="326.313336" NOx_abs="14912.961047" fuel_abs="826.395117" electricity_abs="0"/>
    </tripinfo>
    <tripinfo id="h11868c1:5" depart="57700.00" departLane="315358254#0_1" departPos="5.10" departSpeed="0.00" departDelay="0.10" arrival="57842.00" arrivalLane="386687235_2" arrivalPos="80.84" arrivalSpeed="13.00" duration="142.00" routeLength="1611.92" waitingTime="4.00" waitingCount="1" stopTime="0.00" timeLoss="23.53" rerouteNo="1" devices="tripinfo_h11868c1:5 routing_h11868c1:5 emissions_h11868c1:5" vType="default_016" speedFactor="0.99" vaporized="">
        <emissions CO_abs="4229.295220" CO2_abs="331553.419523" HC_abs="26.983804" PMx_abs="5.273890" NOx_abs="130.454411" fuel_abs="142.520918" electricity_abs="0"/>
    </tripinfo>
    <tripinfo id="h16072c2:3" depart="57663.00" departLane="315358254#0_1" departPos="5.10" departSpeed="0.00" departDelay="2.50" arrival="57843.00" arrivalLane="386687235_1" arrivalPos="80.84" arrivalSpeed="14.68" duration="180.00" routeLength="1611.92" waitingTime="47.00" waitingCount="3" stopTime="0.00" timeLoss="71.62" rerouteNo="1" devices="tripinfo_h16072c2:3 routing_h16072c2:3 emissions_h16072c2:3" vType="default_016" speedFactor="1.08" vaporized="">
        <emissions CO_abs="10673.139365" CO2_abs="470796.306041" HC_abs="59.578364" PMx_abs="8.794509" NOx_abs="193.942236" fuel_abs="202.377552" electricity_abs="0"/>
    </tripinfo>
    <tripinfo id="carIn86816:1" depart="57617.00" departLane="128361102#0_1" departPos="5.10" departSpeed="0.00" departDelay="0.80" arrival="57861.00" arrivalLane="201956811#0_1" arrivalPos="40.40" arrivalSpeed="12.20" duration="244.00" routeLength="2067.33" waitingTime="46.00" waitingCount="4" stopTime="0.00" timeLoss="80.75" rerouteNo="1" devices="tripinfo_carIn86816:1 routing_carIn86816:1 emissions_carIn86816:1" vType="default_016" speedFactor="0.93" vaporized="">
        <emissions CO_abs="12292.646860" CO2_abs="559517.577913" HC_abs="69.049322" PMx_abs="10.013700" NOx_abs="229.264091" fuel_abs="240.515667" electricity_abs="0"/>
    </tripinfo>
    <tripinfo id="carIn29531:1" depart="57667.00" departLane="128361102#0_1" departPos="5.10" departSpeed="0.00" departDelay="1.60" arrival="57862.00" arrivalLane="201956811#0_1" arrivalPos="40.40" arrivalSpeed="14.99" duration="195.00" routeLength="2067.33" waitingTime="11.00" waitingCount="1" stopTime="0.00" timeLoss="70.03" rerouteNo="1" devices="tripinfo_carIn29531:1 routing_carIn29531:1 emissions_carIn29531:1" vType="default_016" speedFactor="1.21" vaporized="">
        <emissions CO_abs="8471.534200" CO2_abs="531399.239807" HC_abs="51.115474" PMx_abs="9.595186" NOx_abs="217.740195" fuel_abs="228.425833" electricity_abs="0"/>
    </tripinfo>
    <tripinfo id="h17600c1:1" depart="57662.00" departLane="272042143_1" departPos="5.10" departSpeed="0.00" departDelay="0.30" arrival="57863.00" arrivalLane="201238729#3_1" arrivalPos="431.02" arrivalSpeed="13.45" duration="201.00" routeLength="2100.26" waitingTime="25.00" waitingCount="2" stopTime="0.00" timeLoss="46.68" rerouteNo="1" devices="tripinfo_h17600c1:1 routing_h17600c1:1 emissions_h17600c1:1" vType="default_016" speedFactor="0.98" vaporized="">
        <emissions CO_abs="7180.881065" CO2_abs="453369.266032" HC_abs="43.207414" PMx_abs="7.277628" NOx_abs="178.398051" fuel_abs="194.885577" electricity_abs="0"/>
    </tripinfo>
    <tripinfo id="randUni31145:1" depart="57814.00" departLane="10425609#0_1" departPos="5.10" departSpeed="0.00" departDelay="0.30" arrival="57864.00" arrivalLane="201956810_1" arrivalPos="71.65" arrivalSpeed="13.20" duration="50.00" routeLength="255.78" waitingTime="19.00" waitingCount="1" stopTime="0.00" timeLoss="30.32" rerouteNo="1" devices="tripinfo_randUni31145:1 routing_randUni31145:1 emissions_randUni31145:1" vType="random_016" speedFactor="1.04" vaporized="">
        <emissions CO_abs="4347.560335" CO2_abs="147339.000944" HC_abs="23.265201" PMx_abs="3.070428" NOx_abs="63.670676" fuel_abs="63.335755" electricity_abs="0"/>
    </tripinfo>
    <tripinfo id="carIn102915:1" depart="57643.00" departLane="128361102#0_1" departPos="5.10" departSpeed="0.00" departDelay="0.40" arrival="57865.00" arrivalLane="201956811#0_1" arrivalPos="40.40" arrivalSpeed="11.46" duration="222.00" routeLength="2067.33" waitingTime="22.00" waitingCount="1" stopTime="0.00" timeLoss="49.23" rerouteNo="1" devices="tripinfo_carIn102915:1 routing_carIn102915:1 emissions_carIn102915:1" vType="default_016" speedFactor="0.87" vaporized="">
        <emissions CO_abs="8470.440977" CO2_abs="491823.617440" HC_abs="49.939154" PMx_abs="7.787084" NOx_abs="194.932441" fuel_abs="211.416123" electricity_abs="0"/>
    </tripinfo>
    <tripinfo id="carIn77943:1" depart="57608.00" departLane="124812856#0_1" departPos="5.10" departSpeed="0.00" departDelay="2.50" arrival="57867.00" arrivalLane="-128361102#1_1" arrivalPos="274.68" arrivalSpeed="12.66" duration="259.00" routeLength="2250.49" waitingTime="60.00" waitingCount="2" stopTime="0.00" timeLoss="87.54" rerouteNo="1" devices="tripinfo_carIn77943:1 routing_carIn77943:1 emissions_carIn77943:1" vType="default_016" speedFactor="0.96" vaporized="">
        <emissions CO_abs="14288.411667" CO2_abs="613075.493069" HC_abs="79.388820" PMx_abs="11.076537" NOx_abs="251.033381" fuel_abs="263.538839" electricity_abs="0"/>
    </tripinfo>
    <tripinfo id="randUni33724:1" depart="57646.00" departLane="128361102#0_1" departPos="5.10" departSpeed="0.00" departDelay="1.20" arrival="57867.00" arrivalLane="201956811#0_1" arrivalPos="40.40" arrivalSpeed="11.75" duration="221.00" routeLength="2067.33" waitingTime="20.00" waitingCount="1" stopTime="0.00" timeLoss="59.08" rerouteNo="1" devices="tripinfo_randUni33724:1 routing_randUni33724:1 emissions_randUni33724:1" vType="random_016" speedFactor="0.94" vaporized="">
        <emissions CO_abs="9599.191301" CO2_abs="534765.574767" HC_abs="56.182561" PMx_abs="9.129779" NOx_abs="216.564225" fuel_abs="229.874511" electricity_abs="0"/>
    </tripinfo>
    <tripinfo id="randUni2407:1" depart="57820.00" departLane="10425609#0_1" departPos="5.10" departSpeed="0.00" departDelay="0.80" arrival="57868.00" arrivalLane="201956810_1" arrivalPos="71.65" arrivalSpeed="12.25" duration="48.00" routeLength="255.78" waitingTime="14.00" waitingCount="1" stopTime="0.00" timeLoss="25.73" rerouteNo="1" devices="tripinfo_randUni2407:1 routing_randUni2407:1 emissions_randUni2407:1" vType="random_016" speedFactor="0.88" vaporized="">