<?xml version="1.0" encoding="UTF-8"?>

<!-- generated on 2021-10-26 14:48:06 by Eclipse SUMO sumo Version 1.10.0
<configuration xmlns:xsi="http://www.w3.org/2001/XMLSchema-instance" xsi:noNamespaceSchemaLocation="http://sumo.dlr.de/xsd/sumoConfiguration.xsd">

    <input>
        <net-file value="/Users/behradkoohy/sumo-scratchpad/RESCO/environments/ingolstadt21/ingolstadt21.net.xml"/>
        <route-files value="/Users/behradkoohy/sumo-scratchpad/RESCO/environments/ingolstadt21/ingolstadt21.rou.xml"/>
    </input>

    <output>
        <tripinfo-output value="/Users/behradkoohy/sumo-scratchpad/RESCO/logs/STOCHASTIC-tr0-ingolstadt21-21-mplight-wait/tripinfo_89.xml"/>
        <tripinfo-output.write-unfinished value="true"/>
    </output>

    <time>
        <begin value="57600"/>
        <end value="61200"/>
    </time>

    <processing>
        <time-to-teleport value="-1"/>
    </processing>

    <report>
        <no-warnings value="true"/>
        <no-step-log value="true"/>
    </report>

    <emissions>
        <device.emissions.probability value="1"/>
    </emissions>

    <traci_server>
        <remote-port value="60729"/>
    </traci_server>

    <random_number>
        <random value="true"/>
    </random_number>

</configuration>
-->

<tripinfos xmlns:xsi="http://www.w3.org/2001/XMLSchema-instance" xsi:noNamespaceSchemaLocation="http://sumo.dlr.de/xsd/tripinfo_file.xsd">
    <tripinfo id="h15454c2:3" depart="57612.00" departLane="24608844_1" departPos="5.10" departSpeed="0.00" departDelay="0.50" arrival="57657.00" arrivalLane="32978638#0_1" arrivalPos="49.29" arrivalSpeed="14.09" duration="45.00" routeLength="354.79" waitingTime="3.00" waitingCount="1" stopTime="0.00" timeLoss="13.58" rerouteNo="1" devices="tripinfo_h15454c2:3 routing_h15454c2:3 emissions_h15454c2:3" vType="default_016" speedFactor="1.09" vaporized="">
        <emissions CO_abs="2471.436191" CO2_abs="132600.568047" HC_abs="14.364162" PMx_abs="2.430246" NOx_abs="55.153462" fuel_abs="56.999508" electricity_abs="0"/>
    </tripinfo>
    <tripinfo id="carIn53971:1" depart="57640.00" departLane="272042143_1" departPos="5.10" departSpeed="0.00" departDelay="0.80" arrival="57696.00" arrivalLane="24634414#1_1" arrivalPos="162.19" arrivalSpeed="6.83" duration="56.00" routeLength="493.04" waitingTime="0.00" waitingCount="0" stopTime="0.00" timeLoss="8.24" rerouteNo="1" devices="tripinfo_carIn53971:1 routing_carIn53971:1 emissions_carIn53971:1" vType="default_016" speedFactor="0.97" vaporized="">
        <emissions CO_abs="2287.404612" CO2_abs="130926.600074" HC_abs="13.466869" PMx_abs="2.235524" NOx_abs="53.319618" fuel_abs="56.280068" electricity_abs="0"/>
    </tripinfo>
    <tripinfo id="h7800c1:5" depart="57696.00" departLane="-447569998#1_1" departPos="5.10" departSpeed="0.00" departDelay="0.00" arrival="57721.00" arrivalLane="-447569998#1_2" arrivalPos="180.76" arrivalSpeed="7.10" duration="25.00" routeLength="175.66" waitingTime="0.00" waitingCount="0" stopTime="0.00" timeLoss="3.03" rerouteNo="1" devices="tripinfo_h7800c1:5 routing_h7800c1:5 emissions_h7800c1:5" vType="default_016" speedFactor="0.96" vaporized="">
        <emissions CO_abs="1108.223566" CO2_abs="46392.663316" HC_abs="6.106943" PMx_abs="0.749942" NOx_abs="18.836425" fuel_abs="19.942633" electricity_abs="0"/>
    </tripinfo>
    <tripinfo id="h3688c1:1" depart="57625.00" departLane="201201950#1_1" departPos="5.10" departSpeed="0.00" departDelay="0.00" arrival="57724.00" arrivalLane="32978638#0_1" arrivalPos="49.29" arrivalSpeed="11.89" duration="99.00" routeLength="1089.75" waitingTime="0.00" waitingCount="0" stopTime="0.00" timeLoss="9.54" rerouteNo="1" devices="tripinfo_h3688c1:1 routing_h3688c1:1 emissions_h3688c1:1" vType="default_016" speedFactor="0.89" vaporized="">
        <emissions CO_abs="3060.018869" CO2_abs="237262.170482" HC_abs="19.435223" PMx_abs="3.665400" NOx_abs="93.245598" fuel_abs="101.989196" electricity_abs="0"/>
    </tripinfo>
    <tripinfo id="h3568c1:3" depart="57656.00" departLane="266565295#5_1" departPos="5.10" departSpeed="0.00" departDelay="0.80" arrival="57726.00" arrivalLane="-24634415_1" arrivalPos="62.03" arrivalSpeed="14.24" duration="70.00" routeLength="807.40" waitingTime="0.00" waitingCount="0" stopTime="0.00" timeLoss="12.15" rerouteNo="1" devices="tripinfo_h3568c1:3 routing_h3568c1:3 emissions_h3568c1:3" vType="default_016" speedFactor="1.12" vaporized="">
        <emissions CO_abs="2942.912101" CO2_abs="206925.449014" HC_abs="18.207618" PMx_abs="3.676584" NOx_abs="84.105671" fuel_abs="88.948213" electricity_abs="0"/>
    </tripinfo>
    <tripinfo id="carIn60260:1" depart="57606.00" departLane="315358254#0_1" departPos="5.10" departSpeed="0.00" departDelay="0.90" arrival="57729.00" arrivalLane="399835085#1_1" arrivalPos="212.23" arrivalSpeed="8.27" duration="123.00" routeLength="430.98" waitingTime="71.00" waitingCount="1" stopTime="0.00" timeLoss="81.64" rerouteNo="1" devices="tripinfo_carIn60260:1 routing_carIn60260:1 emissions_carIn60260:1" vType="default_016" speedFactor="1.11" vaporized="">
        <emissions CO_abs="13277.436443" CO2_abs="300366.467434" HC_abs="67.486436" PMx_abs="6.544885" NOx_abs="131.463229" fuel_abs="129.120145" electricity_abs="0"/>
    </tripinfo>
    <tripinfo id="h317c2:1" depart="57707.00" departLane="-32978638#0_1" departPos="5.10" departSpeed="0.00" departDelay="0.10" arrival="57738.00" arrivalLane="-266565295#5_1" arrivalPos="172.76" arrivalSpeed="15.08" duration="31.00" routeLength="370.53" waitingTime="0.00" waitingCount="0" stopTime="0.00" timeLoss="5.61" rerouteNo="1" devices="tripinfo_h317c2:1 routing_h317c2:1 emissions_h317c2:1" vType="default_016" speedFactor="1.10" vaporized="">
        <emissions CO_abs="1659.816275" CO2_abs="117277.138461" HC_abs="10.293525" PMx_abs="2.123121" NOx_abs="47.886750" fuel_abs="50.412257" electricity_abs="0"/>
    </tripinfo>
    <tripinfo id="h4538c1:1" depart="57701.00" departLane="-10427692#1_1" departPos="5.10" departSpeed="0.00" departDelay="0.00" arrival="57743.00" arrivalLane="-128361102#1_1" arrivalPos="274.68" arrivalSpeed="14.40" duration="42.00" routeLength="440.74" waitingTime="3.00" waitingCount="1" stopTime="0.00" timeLoss="13.36" rerouteNo="1" devices="tripinfo_h4538c1:1 routing_h4538c1:1 emissions_h4538c1:1" vType="default_016" speedFactor="1.13" vaporized="">
        <emissions CO_abs="1866.955966" CO2_abs="114974.023697" HC_abs="11.223965" PMx_abs="2.136638" NOx_abs="47.408114" fuel_abs="49.422367" electricity_abs="0"/>
    </tripinfo>
    <tripinfo id="h7181c1:1" depart="57660.00" departLane="315358254#0_1" departPos="5.10" departSpeed="0.00" departDelay="0.10" arrival="57750.00" arrivalLane="306240162#0_0" arrivalPos="220.43" arrivalSpeed="13.88" duration="90.00" routeLength="932.35" waitingTime="17.00" waitingCount="1" stopTime="0.00" timeLoss="31.83" rerouteNo="1" devices="tripinfo_h7181c1:1 routing_h7181c1:1 emissions_h7181c1:1" vType="default_016" speedFactor="0.89" vaporized="">
        <emissions CO_abs="5511.627031" CO2_abs="276573.356955" HC_abs="31.632917" PMx_abs="5.256328" NOx_abs="113.577460" fuel_abs="118.887759" electricity_abs="0"/>
    </tripinfo>
    <tripinfo id="carIn22761:1" depart="57616.00" departLane="-306240162#1_0" departPos="5.10" departSpeed="0.00" departDelay="2.10" arrival="57757.00" arrivalLane="399835085#1_1" arrivalPos="212.23" arrivalSpeed="7.58" duration="141.00" routeLength="1093.26" waitingTime="39.00" waitingCount="1" stopTime="0.00" timeLoss="58.61" rerouteNo="1" devices="tripinfo_carIn22761:1 routing_carIn22761:1 emissions_carIn22761:1" vType="default_016" speedFactor="0.95" vaporized="">
        <emissions CO_abs="10315.646925" CO2_abs="388213.203820" HC_abs="56.075257" PMx_abs="7.711467" NOx_abs="163.417764" fuel_abs="166.878738" electricity_abs="0"/>
    </tripinfo>
    <tripinfo id="h3326c1:2" depart="57656.00" departLane="22716069#0_1" departPos="5.10" departSpeed="0.00" departDelay="0.00" arrival="57757.00" arrivalLane="24634517#13_1" arrivalPos="111.62" arrivalSpeed="15.60" duration="101.00" routeLength="1312.81" waitingTime="0.00" waitingCount="0" stopTime="0.00" timeLoss="14.86" rerouteNo="1" devices="tripinfo_h3326c1:2 routing_h3326c1:2 emissions_h3326c1:2" vType="default_016" speedFactor="1.13" vaporized="">
        <emissions CO_abs="4077.643981" CO2_abs="312287.250769" HC_abs="25.764607" PMx_abs="5.564517" NOx_abs="126.377639" fuel_abs="134.238368" electricity_abs="0"/>
    </tripinfo>
    <tripinfo id="h5979c1:5" depart="57669.00" departLane="399835085#1_1" departPos="5.10" departSpeed="0.00" departDelay="0.00" arrival="57757.00" arrivalLane="-315358254#1_1" arrivalPos="137.16" arrivalSpeed="12.70" duration="88.00" routeLength="659.33" waitingTime="0.00" waitingCount="0" stopTime="0.00" timeLoss="11.68" rerouteNo="1" devices="tripinfo_h5979c1:5 routing_h5979c1:5 emissions_h5979c1:5" vType="default_016" speedFactor="0.96" vaporized="">
        <emissions CO_abs="3894.702859" CO2_abs="184316.463862" HC_abs="21.961651" PMx_abs="2.937801" NOx_abs="74.189599" fuel_abs="79.231065" electricity_abs="0"/>
    </tripinfo>
    <tripinfo id="h330c1:1" depart="57736.00" departLane="-32978638#0_1" departPos="5.10" departSpeed="0.00" departDelay="0.20" arrival="57765.00" arrivalLane="-266565295#5_1" arrivalPos="172.76" arrivalSpeed="16.36" duration="29.00" routeLength="370.53" waitingTime="0.00" waitingCount="0" stopTime="0.00" timeLoss="6.40" rerouteNo="1" devices="tripinfo_h330c1:1 routing_h330c1:1 emissions_h330c1:1" vType="default_016" speedFactor="1.21" vaporized="">
        <emissions CO_abs="1952.291345" CO2_abs="131771.129170" HC_abs="12.040916" PMx_abs="2.548323" NOx_abs="54.795142" fuel_abs="56.642424" electricity_abs="0"/>
    </tripinfo>
    <tripinfo id="h12244c1:3" depart="57612.00" departLane="315358244_1" departPos="5.10" departSpeed="0.00" departDelay="0.40" arrival="57768.00" arrivalLane="386687235_1" arrivalPos="80.84" arrivalSpeed="12.90" duration="156.00" routeLength="1186.14" waitingTime="39.00" waitingCount="2" stopTime="0.00" timeLoss="64.73" rerouteNo="1" devices="tripinfo_h12244c1:3 routing_h12244c1:3 emissions_h12244c1:3" vType="default_016" speedFactor="0.95" vaporized="">
        <emissions CO_abs="9574.103910" CO2_abs="379181.157492" HC_abs="52.458473" PMx_abs="7.030387" NOx_abs="156.979383" fuel_abs="162.996475" electricity_abs="0"/>
    </tripinfo>
    <tripinfo id="carIn27009:1" depart="57673.00" departLane="-447569998#1_1" departPos="5.10" departSpeed="0.00" departDelay="0.50" arrival="57768.00" arrivalLane="-26677539_1" arrivalPos="152.75" arrivalSpeed="7.69" duration="95.00" routeLength="699.63" waitingTime="0.00" waitingCount="0" stopTime="0.00" timeLoss="11.13" rerouteNo="1" devices="tripinfo_carIn27009:1 routing_carIn27009:1 emissions_carIn27009:1" vType="default_015" speedFactor="1.01" vaporized="">
        <emissions CO_abs="3664.733952" CO2_abs="176338.897851" HC_abs="20.715344" PMx_abs="2.735620" NOx_abs="70.731302" fuel_abs="75.801832" electricity_abs="0"/>
    </tripinfo>
    <tripinfo id="carIn107282:1" depart="57749.00" departLane="-447569998#1_1" departPos="5.10" departSpeed="0.00" departDelay="0.00" arrival="57792.00" arrivalLane="315358242#0_1" arrivalPos="165.37" arrivalSpeed="14.63" duration="43.00" routeLength="448.50" waitingTime="0.00" waitingCount="0" stopTime="0.00" timeLoss="4.62" rerouteNo="1" devices="tripinfo_carIn107282:1 routing_carIn107282:1 emissions_carIn107282:1" vType="default_016" speedFactor="1.09" vaporized="">
        <emissions CO_abs="1700.328539" CO2_abs="115095.771793" HC_abs="10.399776" PMx_abs="1.830779" NOx_abs="45.529676" fuel_abs="49.475019" electricity_abs="0"/>
    </tripinfo>
    <tripinfo id="h645c1:1" depart="57622.00" departLane="266565295#5_1" departPos="5.10" departSpeed="0.00" departDelay="0.40" arrival="57797.00" arrivalLane="-315358244_1" arrivalPos="33.95" arrivalSpeed="12.95" duration="175.00" routeLength="1910.83" waitingTime="13.00" waitingCount="1" stopTime="0.00" timeLoss="29.65" rerouteNo="1" devices="tripinfo_h645c1:1 routing_h645c1:1 emissions_h645c1:1" vType="default_016" speedFactor="0.95" vaporized="">
        <emissions CO_abs="5491.198016" CO2_abs="378889.557758" HC_abs="33.802245" PMx_abs="5.932033" NOx_abs="148.353062" fuel_abs="162.869461" electricity_abs="0"/>
    </tripinfo>
    <tripinfo id="h9563c2:5" depart="57631.00" departLane="315358244_1" departPos="5.10" departSpeed="0.00" departDelay="0.70" arrival="57799.00" arrivalLane="386687235_1" arrivalPos="80.84" arrivalSpeed="12.25" duration="168.00" routeLength="1186.14" waitingTime="43.00" waitingCount="4" stopTime="0.00" timeLoss="74.90" rerouteNo="1" devices="tripinfo_h9563c2:5 routing_h9563c2:5 emissions_h9563c2:5" vType="default_016" speedFactor="0.93" vaporized="">
        <emissions CO_abs="9915.493829" CO2_abs="385706.845240" HC_abs="54.159587" PMx_abs="7.142148" NOx_abs="159.974669" fuel_abs="165.801766" electricity_abs="0"/>
    </tripinfo>
    <tripinfo id="S5R_frequency1.2" depart="57657.00" departLane="315358250#0_1" departPos="12.10" departSpeed="0.00" departDelay="45.40" arrival="57802.00" arrivalLane="386687235_1" arrivalPos="80.84" arrivalSpeed="13.82" duration="145.00" routeLength="1115.62" waitingTime="25.00" waitingCount="2" stopTime="0.00" timeLoss="63.51" rerouteNo="1" devices="tripinfo_S5R_frequency1.2 routing_S5R_frequency1.2 emissions_S5R_frequency1.2" vType="bus" speedFactor="1.00" vaporized="">
        <emissions CO_abs="2971.703286" CO2_abs="1704224.987756" HC_abs="622.817234" PMx_abs="314.155749" NOx_abs="13667.519969" fuel_abs="726.766248" electricity_abs="0"/>
    </tripinfo>
    <tripinfo id="h3154c1:1" depart="57658.00" departLane="24634507_1" departPos="5.10" departSpeed="0.00" departDelay="0.00" arrival="57805.00" arrivalLane="-266565295#5_1" arrivalPos="172.76" arrivalSpeed="14.25" duration="147.00" routeLength="1206.22" waitingTime="48.00" waitingCount="1" stopTime="0.00" timeLoss="65.36" rerouteNo="1" devices="tripinfo_h3154c1:1 routing_h3154c1:1 emissions_h3154c1:1" vType="default_016" speedFactor="1.10" vaporized="">
        <emissions CO_abs="11143.901386" CO2_abs="431461.444790" HC_abs="60.821696" PMx_abs="8.445732" NOx_abs="180.598850" fuel_abs="185.469517" electricity_abs="0"/>
    </tripinfo>
    <tripinfo id="carIn129809:1" depart="57729.00" departLane="-447569998#1_1" departPos="5.10" departSpeed="0.00" departDelay="1.00" arrival="57823.00" arrivalLane="-315358244_1" arrivalPos="33.95" arrivalSpeed="13.99" duration="94.00" routeLength="706.49" waitingTime="19.00" waitingCount="2" stopTime="0.00" timeLoss="34.59" rerouteNo="1" devices="tripinfo_carIn129809:1 routing_carIn129809:1 emissions_carIn129809:1" vType="default_015" speedFactor="1.01" vaporized="">
        <emissions CO_abs="4633.769953" CO2_abs="207557.504544" HC_abs="25.965338" PMx_abs="3.840128" NOx_abs="86.179040" fuel_abs="89.221041" electricity_abs="0"/>
    </tripinfo>
    <tripinfo id="carIn30817:1" depart="57681.00" departLane="315358244_1" departPos="5.10" departSpeed="0.00" departDelay="0.20" arrival="57828.00" arrivalLane="447569997#1_1" arrivalPos="180.93" arrivalSpeed="8.04" duration="147.00" routeLength="718.04" waitingTime="69.00" waitingCount="1" stopTime="0.00" timeLoss="84.21" rerouteNo="1" devices="tripinfo_carIn30817:1 routing_carIn30817:1 emissions_carIn30817:1" vType="default_016" speedFactor="0.98" vaporized="">
        <emissions CO_abs="14106.178429" CO2_abs="365919.914927" HC_abs="72.791355" PMx_abs="7.615275" NOx_abs="157.624698" fuel_abs="157.298756" electricity_abs="0"/>
    </tripinfo>
    <tripinfo id="carIn12365:1" depart="57713.00" departLane="315358244_1" departPos="5.10" departSpeed="0.00" departDelay="0.50" arrival="57832.00" arrivalLane="447569997#1_1" arrivalPos="180.93" arrivalSpeed="6.84" duration="119.00" routeLength="718.04" waitingTime="39.00" waitingCount="1" stopTime="0.00" timeLoss="53.51" rerouteNo="1" devices="tripinfo_carIn12365:1 routing_carIn12365:1 emissions_carIn12365:1" vType="default_016" speedFactor="0.94" vaporized="">
        <emissions CO_abs="8943.517023" CO2_abs="274811.579303" HC_abs="47.144029" PMx_abs="5.424494" NOx_abs="116.590857" fuel_abs="118.132852" electricity_abs="0"/>
    </tripinfo>
    <tripinfo id="carIn12152:1" depart="57647.00" departLane="24599188#0.94_1" departPos="5.10" departSpeed="0.00" departDelay="0.50" arrival="57836.00" arrivalLane="-315358254#1_1" arrivalPos="137.16" arrivalSpeed="14.71" duration="189.00" routeLength="2034.31" waitingTime="24.00" waitingCount="1" stopTime="0.00" timeLoss="40.98" rerouteNo="1" devices="tripinfo_carIn12152:1 routing_carIn12152:1 emissions_carIn12152:1" vType="default_016" speedFactor="1.07" vaporized="">
        <emissions CO_abs="7787.421651" CO2_abs="442228.118976" HC_abs="45.599226" PMx_abs="7.553976" NOx_abs="176.791859" fuel_abs="190.096395" electricity_abs="0"/>
    </tripinfo>
    <tripinfo id="h11737c1:1" depart="57665.00" departLane="272042143_1" departPos="5.10" departSpeed="0.00" departDelay="1.50" arrival="57838.00" arrivalLane="-315358254#1_1" arrivalPos="137.16" arrivalSpeed="14.86" duration="173.00" routeLength="1596.88" waitingTime="41.00" waitingCount="2" stopTime="0.00" timeLoss="65.98" rerouteNo="1" devices="tripinfo_h11737c1:1 routing_h11737c1:1 emissions_h11737c1:1" vType="default_016" speedFactor="1.09" vaporized="">
        <emissions CO_abs="9592.272222" CO2_abs="436032.525558" HC_abs="53.709446" PMx_abs="8.049434" NOx_abs="178.876971" fuel_abs="187.433800" electricity_abs="0"/>
    </tripinfo>
    <tripinfo id="carIn28951:1" depart="57606.00" departLane="10425609#0_1" departPos="5.10" departSpeed="0.00" departDelay="0.20" arrival="57841.00" arrivalLane="-128361102#1_1" arrivalPos="274.68" arrivalSpeed="10.80" duration="235.00" routeLength="2113.04" waitingTime="24.00" waitingCount="3" stopTime="0.00" timeLoss="53.31" rerouteNo="1" devices="tripinfo_carIn28951:1 routing_carIn28951:1 emissions_carIn28951:1" vType="default_016" speedFactor="0.85" vaporized="">
        <emissions CO_abs="9494.853334" CO2_abs="510772.835570" HC_abs="55.115848" PMx_abs="8.634078" NOx_abs="206.650407" fuel_abs="219.561358" electricity_abs="0"/>
    </tripinfo>
    <tripinfo id="carIn126288:1" depart="57674.00" departLane="272042143_1" departPos="5.10" departSpeed="0.00" departDelay="0.00" arrival="57841.00" arrivalLane="-315358254#1_1" arrivalPos="137.16" arrivalSpeed="14.58" duration="167.00" routeLength="1596.88" waitingTime="30.00" waitingCount="2" stopTime="0.00" timeLoss="55.59" rerouteNo="1" devices="tripinfo_carIn126288:1 routing_carIn126288:1 emissions_carIn126288:1" vType="default_016" speedFactor="1.05" vaporized="">
        <emissions CO_abs="8086.659068" CO2_abs="424836.717317" HC_abs="46.780632" PMx_abs="7.629943" NOx_abs="173.101770" fuel_abs="182.620412" electricity_abs="0"/>
    </tripinfo>
    <tripinfo id="carIn107084:1" depart="57601.00" departLane="124812856#0_1" departPos="5.10" departSpeed="0.00" departDelay="0.70" arrival="57843.00" arrivalLane="-128361102#1_1" arrivalPos="274.68" arrivalSpeed="14.11" duration="242.00" routeLength="2250.49" waitingTime="22.00" waitingCount="3" stopTime="0.00" timeLoss="87.17" rerouteNo="1" devices="tripinfo_carIn107084:1 routing_carIn107084:1 emissions_carIn107084:1" vType="default_016" speedFactor="1.06" vaporized="">
        <emissions CO_abs="10574.373609" CO2_abs="600767.066678" HC_abs="62.255153" PMx_abs="10.788174" NOx_abs="246.923412" fuel_abs="258.244920" electricity_abs="0"/>
    </tripinfo>
    <tripinfo id="carIn77943:1" depart="57608.00" departLane="124812856#0_1" departPos="5.10" departSpeed="0.00" departDelay="2.50" arrival="57845.00" arrivalLane="-128361102#1_1" arrivalPos="274.68" arrivalSpeed="14.38" duration="237.00" routeLength="2250.49" waitingTime="19.00" waitingCount="3" stopTime="0.00" timeLoss="90.42" rerouteNo="1" devices="tripinfo_carIn77943:1 routing_carIn77943:1 emissions_carIn77943:1" vType="default_016" speedFactor="1.13" vaporized="">
        <emissions CO_abs="11513.334720" CO2_abs="658661.027743" HC_abs="67.913352" PMx_abs="12.096101" NOx_abs="272.422236" fuel_abs="283.130659" electricity_abs="0"/>
    </tripinfo>
    <tripinfo id="h20540c1:1" depart="57634.00" departLane="10425609#0_1" departPos="5.10" departSpeed="0.00" departDelay="0.50" arrival="57846.00" arrivalLane="-128361102#1_1" arrivalPos="274.68" arrivalSpeed="14.48" duration="212.00" routeLength="2113.04" waitingTime="27.00" waitingCount="2" stopTime="0.00" timeLoss="66.36" rerouteNo="1" devices="tripinfo_h20540c1:1 routing_h20540c1:1 emissions_h20540c1:1" vType="default_016" speedFactor="1.06" vaporized="">
        <emissions CO_abs="10816.098410" CO2_abs="588278.527456" HC_abs="63.048219" PMx_abs="10.755846" NOx_abs="241.964705" fuel_abs="252.876816" electricity_abs="0"/>
    </tripinfo>
    <tripinfo id="carIn82278:1" depart="57702.00" departLane="-306240162#1_0" departPos="5.10" departSpeed="0.00" departDelay="0.70" arrival="57846.00" arrivalLane="399835085#1_1" arrivalPos="212.23" arrivalSpeed="6.83" duration="144.00" routeLength="1093.26" waitingTime="38.00" waitingCount="2" stopTime="0.00" timeLoss="61.86" rerouteNo="1" devices="tripinfo_carIn82278:1 routing_carIn82278:1 emissions_carIn82278:1" vType="default_016" speedFactor="0.94" vaporized="">
        <emissions CO_abs="9838.465087" CO2_abs="381678.837720" HC_abs="53.723499" PMx_abs="7.536284" NOx_abs="160.548803" fuel_abs="164.069638" electricity_abs="0"/>
    </tripinfo>
    <tripinfo id="carIn56649:1" depart="57632.00" departLane="124812856#0_1" departPos="5.10" departSpeed="0.00" departDelay="8.10" arrival="57848.00" arrivalLane="-128361102#1_1" arrivalPos="274.68" arrivalSpeed="13.64" duration="216.00" routeLength="2250.49" waitingTime="18.00" waitingCount="2" stopTime="0.00" timeLoss="50.30" rerouteNo="1" devices="tripinfo_carIn56649:1 routing_carIn56649:1 emissions_carIn56649:1" vType="default_016" speedFactor="0.99" vaporized="">
        <emissions CO_abs="9291.811970" CO2_abs="567496.064308" HC_abs="55.604754" PMx_abs="10.027716" NOx_abs="231.057986" fuel_abs="243.942857" electricity_abs="0"/>
    </tripinfo>
    <tripinfo id="carIn12858:1" depart="57661.00" departLane="128361109#1_1" departPos="5.10" departSpeed="0.00" departDelay="0.90" arrival="57848.00" arrivalLane="399835085#1_1" arrivalPos="212.23" arrivalSpeed="9.08" duration="187.00" routeLength="1738.12" waitingTime="47.00" waitingCount="2" stopTime="0.00" timeLoss="89.28" rerouteNo="1" devices="tripinfo_carIn12858:1 routing_carIn12858:1 emissions_carIn12858:1" vType="default_016" speedFactor="1.18" vaporized="">
        <emissions CO_abs="15151.089354" CO2_abs="640867.403966" HC_abs="84.209865" PMx_abs="13.321489" NOx_abs="271.662547" fuel_abs="275.483279" electricity_abs="0"/>
    </tripinfo>
    <tripinfo id="50R_frequency3.17" depart="57674.00" departLane="-18809673#6_1" departPos="12.10" departSpeed="0.00" departDelay="0.70" arrival="57852.00" arrivalLane="201956811#0_1" arrivalPos="40.40" arrivalSpeed="12.63" duration="178.00" routeLength="1954.47" waitingTime="5.00" waitingCount="1" stopTime="0.00" timeLoss="33.37" rerouteNo="1" devices="tripinfo_50R_frequency3.17 routing_50R_frequency3.17 emissions_50R_frequency3.17" vType="bus" speedFactor="1.00" vaporized="">
        <emissions CO_abs="3536.634823" CO2_abs="2245524.751428" HC_abs="737.280394" PMx_abs="379.374341" NOx_abs="17351.620312" fuel_abs="957.694280" electricity_abs="0"/>
    </tripinfo>
    <tripinfo id="carIn462:1" depart="57622.00" departLane="-306240162#1_0" departPos="5.10" departSpeed="0.00" departDelay="4.80" arrival="57853.00" arrivalLane="386687235_2" arrivalPos="80.84" arrivalSpeed="13.50" duration="231.00" routeLength="2257.41" waitingTime="33.00" waitingCount="3" stopTime="0.00" timeLoss="80.95" rerouteNo="1" devices="tripinfo_carIn462:1 routing_carIn462:1 emissions_carIn462:1" vType="default_016" speedFactor="0.99" vaporized="">
        <emissions CO_abs="12368.316506" CO2_abs="646958.839918" HC_abs="71.571774" PMx_abs="12.223520" NOx_abs="267.957468" fuel_abs="278.100952" electricity_abs="0"/>
    </tripinfo>
    <tripinfo id="carIn82220:1" depart="57619.00" departLane="-306240162#1_0" departPos="5.10" departSpeed="0.00" departDelay="3.50" arrival="57854.00" arrivalLane="386687235_1" arrivalPos="80.84" arrivalSpeed="13.97" duration="235.00" routeLength="2257.41" waitingTime="37.00" waitingCount="3" stopTime="0.00" timeLoss="88.28" rerouteNo="1" devices="tripinfo_carIn82220:1 routing_carIn82220:1 emissions_carIn82220:1" vType="default_016" speedFactor="1.02" vaporized="">
        <emissions CO_abs="12317.645989" CO2_abs="646464.561804" HC_abs="71.313827" PMx_abs="12.230609" NOx_abs="267.930074" fuel_abs="277.888411" electricity_abs="0"/>
    </tripinfo>
    <tripinfo id="carIn86816:1" depart="57617.00" departLane="128361102#0_1" departPos="5.10" departSpeed="0.00" departDelay="0.80" arrival="57855.00" arrivalLane="201956811#0_1" arrivalPos="40.40" arrivalSpeed="12.52" duration="238.00" routeLength="2067.33" waitingTime="53.00" waitingCount="2" stopTime="0.00" timeLoss="79.56" rerouteNo="1" devices="tripinfo_carIn86816:1 routing_carIn86816:1 emissions_carIn86816:1" vType="default_016" speedFactor="0.96" vaporized="">
        <emissions CO_abs="12567.964950" CO2_abs="562340.650428" HC_abs="70.357678" PMx_abs="10.030015" NOx_abs="229.631043" fuel_abs="241.729493" electricity_abs="0"/>
    </tripinfo>
    <tripinfo id="carIn102915:1" depart="57643.00" departLane="128361102#0_1" departPos="5.10" departSpeed="0.00" departDelay="0.40" arrival="57856.00" arrivalLane="201956811#0_1" arrivalPos="40.40" arrivalSpeed="13.82" duration="213.00" routeLength="2067.33" waitingTime="29.00" waitingCount="2" stopTime="0.00" timeLoss="67.76" rerouteNo="1" devices="tripinfo_carIn102915:1 routing_carIn102915:1 emissions_carIn102915:1" vType="default_016" speedFactor="1.04" vaporized="">
        <emissions CO_abs="10125.144482" CO2_abs="551927.991589" HC_abs="59.092496" PMx_abs="10.166835" NOx_abs="227.736935" fuel_abs="237.251058" electricity_abs="0"/>
    </tripinfo>
    <tripinfo id="carIn48184:1" depart="57613.00" departLane="-306240162#1_0" departPos="5.10" departSpeed="0.00" departDelay="0.70" arrival="57857.00" arrivalLane="386687235_1" arrivalPos="80.84" arrivalSpeed="10.70" duration="244.00" routeLength="2257.41" waitingTime="38.00" waitingCount="3" stopTime="0.00" timeLoss="69.24" rerouteNo="1" devices="tripinfo_carIn48184:1 routing_carIn48184:1 emissions_carIn48184:1" vType="default_016" speedFactor="0.85" vaporized="">
        <emissions CO_abs="11490.023638" CO2_abs="594428.835791" HC_abs="66.143771" PMx_abs="10.412582" NOx_abs="240.961819" fuel_abs="255.521815" electricity_abs="0"/>
    </tripinfo>
    <tripinfo id="h16072c2:3" depart="57663.00" departLane="315358254#0_1" departPos="5.10" departSpeed="0.00" departDelay="2.50" arrival="57858.00" arrivalLane="386687235_1" arrivalPos="80.84" arrivalSpeed="12.20" duration="195.00" routeLength="1611.92" waitingTime="38.00" waitingCount="4" stopTime="0.00" timeLoss="86.11" rerouteNo="1" devices="tripinfo_h16072c2:3 routing_h16072c2:3 emissions_h16072c2:3" vType="default_016" speedFactor="1.07" vaporized="">
        <emissions CO_abs="10067.086200" CO2_abs="478365.038580" HC_abs="57.053900" PMx_abs="8.927352" NOx_abs="198.572754" fuel_abs="205.630260" electricity_abs="0"/>
    </tripinfo>
    <tripinfo id="randUni33724:1" depart="57646.00" departLane="128361102#0_1" departPos="5.10" departSpeed="0.00" departDelay="1.20" arrival="57859.00" arrivalLane="201956811#0_1" arrivalPos="40.40" arrivalSpeed="13.06" duration="213.00" routeLength="2067.33" waitingTime="23.00" waitingCount="2" stopTime="0.00" timeLoss="55.26" rerouteNo="1" devices="tripinfo_randUni33724:1 routing_randUni33724:1 emissions_randUni33724:1" vType="random_016" speedFactor="0.96" vaporized="">
        <emissions CO_abs="8431.963285" CO2_abs="497689.652203" HC_abs="49.984990" PMx_abs="8.357267" NOx_abs="199.671152" fuel_abs="213.936924" electricity_abs="0"/>
    </tripinfo>
    <tripinfo id="h8343c1:5" depart="57679.00" departLane="315358254#0_1" departPos="5.10" departSpeed="0.00" departDelay="0.60" arrival="57859.00" arrivalLane="-24634510#5_1" arrivalPos="236.88" arrivalSpeed="14.86" duration="180.00" routeLength="2056.84" waitingTime="26.00" waitingCount="4" stopTime="0.00" timeLoss="72.73" rerouteNo="1" devices="tripinfo_h8343c1:5 routing_h8343c1:5 emissions_h8343c1:5" vType="default_016" speedFactor="1.16" vaporized="">
        <emissions CO_abs="11216.177932" CO2_abs="650320.895621" HC_abs="66.394758" PMx_abs="12.720680" NOx_abs="267.960554" fuel_abs="279.544858" electricity_abs="0"/>
    </tripinfo>
    <tripinfo id="carIn8642:1" depart="57774.00" departLane="-447569998#1_1" departPos="5.10" departSpeed="0.00" departDelay="0.90" arrival="57859.00" arrivalLane="-315358244_1" arrivalPos="33.95" arrivalSpeed="11.72" duration="85.00" routeLength="706.49" waitingTime="10.00" waitingCount="1" stopTime="0.00" timeLoss="19.39" rerouteNo="1" devices="tripinfo_carIn8642:1 routing_carIn8642:1 emissions_carIn8642:1" vType="default_016" speedFactor="0.92" vaporized="">
        <emissions CO_abs="3269.050003" CO2_abs="165654.791678" HC_abs="18.720366" PMx_abs="2.732086" NOx_abs="66.553426" fuel_abs="71.208815" electricity_abs="0"/>
    </tripinfo>
    <tripinfo id="h6541c1:3" depart="57727.00" departLane="201950247#3_1" departPos="5.10" departSpeed="0.00" departDelay="0.00" arrival="57860.00" arrivalLane="32978638#0_1" arrivalPos="49.29" arrivalSpeed="14.66" duration="133.00" routeLength="1176.17" waitingTime="18.00" waitingCount="1" stopTime="0.00" timeLoss="36.40" rerouteNo="1" devices="tripinfo_h6541c1:3 routing_h6541c1:3 emissions_h6541c1:3" vType="default_016" speedFactor="1.07" vaporized="">
        <emissions CO_abs="7428.882531" CO2_abs="352257.747782" HC_abs="42.086426" PMx_abs="6.521647" NOx_abs="146.045307" fuel_abs="151.421790" electricity_abs="0"/>
    </tripinfo>