<?xml version="1.0" encoding="UTF-8"?>

<!-- generated on 2021-10-26 14:42:56 by Eclipse SUMO sumo Version 1.10.0
<configuration xmlns:xsi="http://www.w3.org/2001/XMLSchema-instance" xsi:noNamespaceSchemaLocation="http://sumo.dlr.de/xsd/sumoConfiguration.xsd">

    <input>
        <net-file value="/Users/behradkoohy/sumo-scratchpad/RESCO/environments/ingolstadt21/ingolstadt21.net.xml"/>
        <route-files value="/Users/behradkoohy/sumo-scratchpad/RESCO/environments/ingolstadt21/ingolstadt21.rou.xml"/>
    </input>

    <output>
        <tripinfo-output value="/Users/behradkoohy/sumo-scratchpad/RESCO/logs/STOCHASTIC-tr0-ingolstadt21-21-mplight-wait/tripinfo_81.xml"/>
        <tripinfo-output.write-unfinished value="true"/>
    </output>

    <time>
        <begin value="57600"/>
        <end value="61200"/>
    </time>

    <processing>
        <time-to-teleport value="-1"/>
    </processing>

    <report>
        <no-warnings value="true"/>
        <no-step-log value="true"/>
    </report>

    <emissions>
        <device.emissions.probability value="1"/>
    </emissions>

    <traci_server>
        <remote-port value="60545"/>
    </traci_server>

    <random_number>
        <random value="true"/>
    </random_number>

</configuration>
-->

<tripinfos xmlns:xsi="http://www.w3.org/2001/XMLSchema-instance" xsi:noNamespaceSchemaLocation="http://sumo.dlr.de/xsd/tripinfo_file.xsd">
    <tripinfo id="h15454c2:3" depart="57612.00" departLane="24608844_1" departPos="5.10" departSpeed="0.00" departDelay="0.50" arrival="57649.00" arrivalLane="32978638#0_1" arrivalPos="49.29" arrivalSpeed="14.21" duration="37.00" routeLength="354.79" waitingTime="0.00" waitingCount="0" stopTime="0.00" timeLoss="6.37" rerouteNo="1" devices="tripinfo_h15454c2:3 routing_h15454c2:3 emissions_h15454c2:3" vType="default_016" speedFactor="1.11" vaporized="">
        <emissions CO_abs="2151.678465" CO2_abs="128021.058816" HC_abs="12.783538" PMx_abs="2.284691" NOx_abs="52.671251" fuel_abs="55.030876" electricity_abs="0"/>
    </tripinfo>
    <tripinfo id="carIn60260:1" depart="57606.00" departLane="315358254#0_1" departPos="5.10" departSpeed="0.00" departDelay="0.90" arrival="57689.00" arrivalLane="399835085#1_1" arrivalPos="212.23" arrivalSpeed="6.59" duration="83.00" routeLength="430.98" waitingTime="21.00" waitingCount="1" stopTime="0.00" timeLoss="30.97" rerouteNo="1" devices="tripinfo_carIn60260:1 routing_carIn60260:1 emissions_carIn60260:1" vType="default_016" speedFactor="0.89" vaporized="">
        <emissions CO_abs="5534.192545" CO2_abs="169524.784227" HC_abs="29.111112" PMx_abs="3.132043" NOx_abs="71.011947" fuel_abs="72.873664" electricity_abs="0"/>
    </tripinfo>
    <tripinfo id="carIn53971:1" depart="57640.00" departLane="272042143_1" departPos="5.10" departSpeed="0.00" departDelay="0.80" arrival="57696.00" arrivalLane="24634414#1_1" arrivalPos="162.19" arrivalSpeed="7.44" duration="56.00" routeLength="493.04" waitingTime="0.00" waitingCount="0" stopTime="0.00" timeLoss="8.95" rerouteNo="1" devices="tripinfo_carIn53971:1 routing_carIn53971:1 emissions_carIn53971:1" vType="default_016" speedFactor="0.97" vaporized="">
        <emissions CO_abs="2448.252383" CO2_abs="138053.029230" HC_abs="14.362658" PMx_abs="2.352763" NOx_abs="56.242135" fuel_abs="59.343465" electricity_abs="0"/>
    </tripinfo>
    <tripinfo id="h3688c1:1" depart="57625.00" departLane="201201950#1_1" departPos="5.10" departSpeed="0.00" departDelay="0.00" arrival="57715.00" arrivalLane="32978638#0_1" arrivalPos="49.29" arrivalSpeed="13.26" duration="90.00" routeLength="1089.75" waitingTime="0.00" waitingCount="0" stopTime="0.00" timeLoss="9.72" rerouteNo="1" devices="tripinfo_h3688c1:1 routing_h3688c1:1 emissions_h3688c1:1" vType="default_016" speedFactor="0.99" vaporized="">
        <emissions CO_abs="2689.743091" CO2_abs="246773.937101" HC_abs="17.933784" PMx_abs="3.710915" NOx_abs="95.352808" fuel_abs="106.077737" electricity_abs="0"/>
    </tripinfo>
    <tripinfo id="h7800c1:5" depart="57696.00" departLane="-447569998#1_1" departPos="5.10" departSpeed="0.00" departDelay="0.00" arrival="57719.00" arrivalLane="-447569998#1_1" arrivalPos="180.76" arrivalSpeed="7.88" duration="23.00" routeLength="175.66" waitingTime="0.00" waitingCount="0" stopTime="0.00" timeLoss="3.42" rerouteNo="1" devices="tripinfo_h7800c1:5 routing_h7800c1:5 emissions_h7800c1:5" vType="default_016" speedFactor="1.08" vaporized="">
        <emissions CO_abs="1030.289220" CO2_abs="46481.035495" HC_abs="5.767190" PMx_abs="0.803038" NOx_abs="19.160918" fuel_abs="19.980478" electricity_abs="0"/>
    </tripinfo>
    <tripinfo id="carIn80064:1" depart="57603.00" departLane="128361109#1_1" departPos="5.10" departSpeed="0.00" departDelay="0.40" arrival="57729.00" arrivalLane="-315358254#1_1" arrivalPos="137.16" arrivalSpeed="12.81" duration="126.00" routeLength="1587.97" waitingTime="11.00" waitingCount="2" stopTime="0.00" timeLoss="37.58" rerouteNo="1" devices="tripinfo_carIn80064:1 routing_carIn80064:1 emissions_carIn80064:1" vType="default_016" speedFactor="1.02" vaporized="">
        <emissions CO_abs="7888.299734" CO2_abs="503611.402382" HC_abs="47.977311" PMx_abs="9.757485" NOx_abs="207.190631" fuel_abs="216.480252" electricity_abs="0"/>
    </tripinfo>
    <tripinfo id="h3568c1:3" depart="57656.00" departLane="266565295#5_1" departPos="5.10" departSpeed="0.00" departDelay="0.80" arrival="57737.00" arrivalLane="-24634415_1" arrivalPos="62.03" arrivalSpeed="15.01" duration="81.00" routeLength="807.40" waitingTime="3.00" waitingCount="1" stopTime="0.00" timeLoss="23.19" rerouteNo="1" devices="tripinfo_h3568c1:3 routing_h3568c1:3 emissions_h3568c1:3" vType="default_016" speedFactor="1.12" vaporized="">
        <emissions CO_abs="4184.333176" CO2_abs="255639.190310" HC_abs="25.021055" PMx_abs="4.727396" NOx_abs="105.688655" fuel_abs="109.888252" electricity_abs="0"/>
    </tripinfo>
    <tripinfo id="carIn121703:1" depart="57647.00" departLane="386687232#0_1" departPos="5.10" departSpeed="0.00" departDelay="0.30" arrival="57743.00" arrivalLane="-315358244_1" arrivalPos="33.95" arrivalSpeed="12.89" duration="96.00" routeLength="1157.39" waitingTime="0.00" waitingCount="0" stopTime="0.00" timeLoss="12.23" rerouteNo="1" devices="tripinfo_carIn121703:1 routing_carIn121703:1 emissions_carIn121703:1" vType="default_016" speedFactor="1.01" vaporized="">
        <emissions CO_abs="3094.900750" CO2_abs="255418.880574" HC_abs="20.021638" PMx_abs="4.075527" NOx_abs="100.395892" fuel_abs="109.793725" electricity_abs="0"/>
    </tripinfo>
    <tripinfo id="h4538c1:1" depart="57701.00" departLane="-10427692#1_1" departPos="5.10" departSpeed="0.00" departDelay="0.00" arrival="57744.00" arrivalLane="-128361102#1_1" arrivalPos="274.68" arrivalSpeed="14.75" duration="43.00" routeLength="440.74" waitingTime="4.00" waitingCount="1" stopTime="0.00" timeLoss="13.83" rerouteNo="1" devices="tripinfo_h4538c1:1 routing_h4538c1:1 emissions_h4538c1:1" vType="default_016" speedFactor="1.10" vaporized="">
        <emissions CO_abs="1953.576110" CO2_abs="121876.208964" HC_abs="11.769753" PMx_abs="2.197748" NOx_abs="49.721527" fuel_abs="52.389409" electricity_abs="0"/>
    </tripinfo>
    <tripinfo id="h7181c1:1" depart="57660.00" departLane="315358254#0_1" departPos="5.10" departSpeed="0.00" departDelay="0.10" arrival="57759.00" arrivalLane="306240162#0_0" arrivalPos="220.43" arrivalSpeed="18.87" duration="99.00" routeLength="932.35" waitingTime="37.00" waitingCount="1" stopTime="0.00" timeLoss="53.25" rerouteNo="1" devices="tripinfo_h7181c1:1 routing_h7181c1:1 emissions_h7181c1:1" vType="default_016" speedFactor="1.14" vaporized="">
        <emissions CO_abs="10367.605692" CO2_abs="403643.570920" HC_abs="56.882522" PMx_abs="8.690100" NOx_abs="171.738135" fuel_abs="173.510626" electricity_abs="0"/>
    </tripinfo>
    <tripinfo id="h317c2:1" depart="57707.00" departLane="-32978638#0_1" departPos="5.10" departSpeed="0.00" departDelay="0.10" arrival="57759.00" arrivalLane="-266565295#5_1" arrivalPos="172.76" arrivalSpeed="10.34" duration="52.00" routeLength="370.53" waitingTime="11.00" waitingCount="1" stopTime="0.00" timeLoss="18.79" rerouteNo="1" devices="tripinfo_h317c2:1 routing_h317c2:1 emissions_h317c2:1" vType="default_016" speedFactor="0.82" vaporized="">
        <emissions CO_abs="2841.960141" CO2_abs="126659.238734" HC_abs="15.881066" PMx_abs="2.205031" NOx_abs="51.885351" fuel_abs="54.446171" electricity_abs="0"/>
    </tripinfo>
    <tripinfo id="h330c1:1" depart="57736.00" departLane="-32978638#0_1" departPos="5.10" departSpeed="0.00" departDelay="0.20" arrival="57767.00" arrivalLane="-266565295#5_1" arrivalPos="172.76" arrivalSpeed="14.58" duration="31.00" routeLength="370.53" waitingTime="0.00" waitingCount="0" stopTime="0.00" timeLoss="6.22" rerouteNo="1" devices="tripinfo_h330c1:1 routing_h330c1:1 emissions_h330c1:1" vType="default_016" speedFactor="1.12" vaporized="">
        <emissions CO_abs="1690.839101" CO2_abs="114876.318260" HC_abs="10.405858" PMx_abs="2.085180" NOx_abs="46.945854" fuel_abs="49.380303" electricity_abs="0"/>
    </tripinfo>
    <tripinfo id="h3154c1:1" depart="57658.00" departLane="24634507_1" departPos="5.10" departSpeed="0.00" departDelay="0.00" arrival="57777.00" arrivalLane="-266565295#5_1" arrivalPos="172.76" arrivalSpeed="13.39" duration="119.00" routeLength="1206.22" waitingTime="12.00" waitingCount="1" stopTime="0.00" timeLoss="31.18" rerouteNo="1" devices="tripinfo_h3154c1:1 routing_h3154c1:1 emissions_h3154c1:1" vType="default_016" speedFactor="1.02" vaporized="">
        <emissions CO_abs="5479.236437" CO2_abs="316637.308749" HC_abs="32.401550" PMx_abs="5.678721" NOx_abs="129.474780" fuel_abs="136.109283" electricity_abs="0"/>
    </tripinfo>
    <tripinfo id="h5979c1:5" depart="57669.00" departLane="399835085#1_1" departPos="5.10" departSpeed="0.00" departDelay="0.00" arrival="57779.00" arrivalLane="-315358254#1_1" arrivalPos="137.16" arrivalSpeed="11.58" duration="110.00" routeLength="659.33" waitingTime="14.00" waitingCount="1" stopTime="0.00" timeLoss="27.30" rerouteNo="1" devices="tripinfo_h5979c1:5 routing_h5979c1:5 emissions_h5979c1:5" vType="default_016" speedFactor="0.89" vaporized="">
        <emissions CO_abs="5612.513554" CO2_abs="205630.176442" HC_abs="30.284298" PMx_abs="3.548247" NOx_abs="84.628534" fuel_abs="88.393728" electricity_abs="0"/>
    </tripinfo>
    <tripinfo id="carIn22761:1" depart="57616.00" departLane="-306240162#1_0" departPos="5.10" departSpeed="0.00" departDelay="2.10" arrival="57782.00" arrivalLane="399835085#1_1" arrivalPos="212.23" arrivalSpeed="7.40" duration="166.00" routeLength="1093.26" waitingTime="67.00" waitingCount="2" stopTime="0.00" timeLoss="91.13" rerouteNo="1" devices="tripinfo_carIn22761:1 routing_carIn22761:1 emissions_carIn22761:1" vType="default_016" speedFactor="1.04" vaporized="">
        <emissions CO_abs="15503.993585" CO2_abs="499971.742650" HC_abs="82.398950" PMx_abs="10.516623" NOx_abs="214.387431" fuel_abs="214.920665" electricity_abs="0"/>
    </tripinfo>
    <tripinfo id="carIn27009:1" depart="57673.00" departLane="-447569998#1_1" departPos="5.10" departSpeed="0.00" departDelay="0.50" arrival="57786.00" arrivalLane="-26677539_1" arrivalPos="152.75" arrivalSpeed="7.10" duration="113.00" routeLength="699.63" waitingTime="12.00" waitingCount="1" stopTime="0.00" timeLoss="27.14" rerouteNo="1" devices="tripinfo_carIn27009:1 routing_carIn27009:1 emissions_carIn27009:1" vType="default_015" speedFactor="0.97" vaporized="">
        <emissions CO_abs="5053.530536" CO2_abs="197109.740038" HC_abs="27.554015" PMx_abs="3.420915" NOx_abs="81.437391" fuel_abs="84.730740" electricity_abs="0"/>
    </tripinfo>
    <tripinfo id="h3326c1:2" depart="57656.00" departLane="22716069#0_1" departPos="5.10" departSpeed="0.00" departDelay="0.00" arrival="57797.00" arrivalLane="24634517#13_1" arrivalPos="111.62" arrivalSpeed="10.03" duration="141.00" routeLength="1312.81" waitingTime="0.00" waitingCount="0" stopTime="0.00" timeLoss="19.64" rerouteNo="1" devices="tripinfo_h3326c1:2 routing_h3326c1:2 emissions_h3326c1:2" vType="default_016" speedFactor="0.81" vaporized="">
        <emissions CO_abs="4742.612464" CO2_abs="295160.185542" HC_abs="28.427424" PMx_abs="4.724278" NOx_abs="118.059746" fuel_abs="126.877604" electricity_abs="0"/>
    </tripinfo>
    <tripinfo id="carIn129809:1" depart="57729.00" departLane="-447569998#1_1" departPos="5.10" departSpeed="0.00" departDelay="1.00" arrival="57800.00" arrivalLane="-315358244_1" arrivalPos="33.95" arrivalSpeed="12.36" duration="71.00" routeLength="706.49" waitingTime="0.00" waitingCount="0" stopTime="0.00" timeLoss="7.03" rerouteNo="1" devices="tripinfo_carIn129809:1 routing_carIn129809:1 emissions_carIn129809:1" vType="default_015" speedFactor="0.95" vaporized="">
        <emissions CO_abs="2410.110935" CO2_abs="156775.484168" HC_abs="14.586198" PMx_abs="2.374170" NOx_abs="61.458074" fuel_abs="67.391687" electricity_abs="0"/>
    </tripinfo>
    <tripinfo id="h11737c1:1" depart="57665.00" departLane="272042143_1" departPos="5.10" departSpeed="0.00" departDelay="1.50" arrival="57807.00" arrivalLane="-315358254#1_1" arrivalPos="137.16" arrivalSpeed="12.76" duration="142.00" routeLength="1596.88" waitingTime="4.00" waitingCount="2" stopTime="0.00" timeLoss="23.97" rerouteNo="1" devices="tripinfo_h11737c1:1 routing_h11737c1:1 emissions_h11737c1:1" vType="default_016" speedFactor="0.99" vaporized="">
        <emissions CO_abs="4842.615907" CO2_abs="343619.856028" HC_abs="30.110890" PMx_abs="5.970781" NOx_abs="139.055110" fuel_abs="147.707330" electricity_abs="0"/>
    </tripinfo>
    <tripinfo id="h645c1:1" depart="57622.00" departLane="266565295#5_1" departPos="5.10" departSpeed="0.00" departDelay="0.40" arrival="57808.00" arrivalLane="-315358244_1" arrivalPos="33.95" arrivalSpeed="12.11" duration="186.00" routeLength="1910.83" waitingTime="19.00" waitingCount="2" stopTime="0.00" timeLoss="39.30" rerouteNo="1" devices="tripinfo_h645c1:1 routing_h645c1:1 emissions_h645c1:1" vType="default_016" speedFactor="0.94" vaporized="">
        <emissions CO_abs="6666.945822" CO2_abs="438404.539163" HC_abs="40.510174" PMx_abs="6.836170" NOx_abs="171.695786" fuel_abs="188.452856" electricity_abs="0"/>
    </tripinfo>
    <tripinfo id="carIn126288:1" depart="57674.00" departLane="272042143_1" departPos="5.10" departSpeed="0.00" departDelay="0.00" arrival="57809.00" arrivalLane="-315358254#1_1" arrivalPos="137.16" arrivalSpeed="14.00" duration="135.00" routeLength="1596.88" waitingTime="0.00" waitingCount="0" stopTime="0.00" timeLoss="22.58" rerouteNo="1" devices="tripinfo_carIn126288:1 routing_carIn126288:1 emissions_carIn126288:1" vType="default_016" speedFactor="1.04" vaporized="">
        <emissions CO_abs="4689.524729" CO2_abs="369048.955830" HC_abs="29.950049" PMx_abs="6.069469" NOx_abs="146.404618" fuel_abs="158.638359" electricity_abs="0"/>
    </tripinfo>
    <tripinfo id="carIn85747:1" depart="57673.00" departLane="128361109#1_1" departPos="5.10" departSpeed="0.00" departDelay="0.70" arrival="57823.00" arrivalLane="386687235_1" arrivalPos="80.84" arrivalSpeed="15.34" duration="150.00" routeLength="2088.57" waitingTime="2.00" waitingCount="1" stopTime="0.00" timeLoss="17.51" rerouteNo="1" devices="tripinfo_carIn85747:1 routing_carIn85747:1 emissions_carIn85747:1" vType="default_016" speedFactor="1.14" vaporized="">
        <emissions CO_abs="3797.144049" CO2_abs="375234.587739" HC_abs="25.900893" PMx_abs="6.021700" NOx_abs="145.275631" fuel_abs="161.296936" electricity_abs="0"/>
    </tripinfo>
    <tripinfo id="carIn107282:1" depart="57749.00" departLane="-447569998#1_1" departPos="5.10" departSpeed="0.00" departDelay="0.00" arrival="57823.00" arrivalLane="315358242#0_1" arrivalPos="165.37" arrivalSpeed="15.34" duration="74.00" routeLength="448.50" waitingTime="31.00" waitingCount="1" stopTime="0.00" timeLoss="38.22" rerouteNo="1" devices="tripinfo_carIn107282:1 routing_carIn107282:1 emissions_carIn107282:1" vType="default_016" speedFactor="1.19" vaporized="">
        <emissions CO_abs="6571.874620" CO2_abs="202817.236200" HC_abs="34.703148" PMx_abs="4.183071" NOx_abs="86.898410" fuel_abs="87.184482" electricity_abs="0"/>
    </tripinfo>
    <tripinfo id="carIn86816:1" depart="57617.00" departLane="128361102#0_1" departPos="5.10" departSpeed="0.00" departDelay="0.80" arrival="57833.00" arrivalLane="201956811#0_1" arrivalPos="40.40" arrivalSpeed="13.54" duration="216.00" routeLength="2067.33" waitingTime="39.00" waitingCount="2" stopTime="0.00" timeLoss="65.49" rerouteNo="1" devices="tripinfo_carIn86816:1 routing_carIn86816:1 emissions_carIn86816:1" vType="default_016" speedFactor="1.01" vaporized="">
        <emissions CO_abs="10951.868025" CO2_abs="556246.319560" HC_abs="62.881241" PMx_abs="9.748832" NOx_abs="225.137074" fuel_abs="239.108855" electricity_abs="0"/>
    </tripinfo>
    <tripinfo id="carIn30817:1" depart="57681.00" departLane="315358244_1" departPos="5.10" departSpeed="0.00" departDelay="0.20" arrival="57840.00" arrivalLane="447569997#1_1" arrivalPos="180.93" arrivalSpeed="9.25" duration="159.00" routeLength="718.04" waitingTime="80.00" waitingCount="1" stopTime="0.00" timeLoss="105.89" rerouteNo="1" devices="tripinfo_carIn30817:1 routing_carIn30817:1 emissions_carIn30817:1" vType="default_016" speedFactor="1.16" vaporized="">
        <emissions CO_abs="16395.915839" CO2_abs="410865.637362" HC_abs="84.323925" PMx_abs="8.920247" NOx_abs="179.327126" fuel_abs="176.619584" electricity_abs="0"/>
    </tripinfo>
    <tripinfo id="h17600c1:1" depart="57662.00" departLane="272042143_1" departPos="5.10" departSpeed="0.00" departDelay="0.30" arrival="57841.00" arrivalLane="201238729#3_1" arrivalPos="431.02" arrivalSpeed="14.05" duration="179.00" routeLength="2100.26" waitingTime="9.00" waitingCount="2" stopTime="0.00" timeLoss="33.78" rerouteNo="1" devices="tripinfo_h17600c1:1 routing_h17600c1:1 emissions_h17600c1:1" vType="default_016" speedFactor="1.05" vaporized="">
        <emissions CO_abs="5416.053419" CO2_abs="451177.777864" HC_abs="35.049431" PMx_abs="7.335045" NOx_abs="177.593428" fuel_abs="193.941949" electricity_abs="0"/>
    </tripinfo>
    <tripinfo id="h5216c1:1" depart="57664.00" departLane="224892339#0_1" departPos="5.10" departSpeed="0.00" departDelay="0.00" arrival="57843.00" arrivalLane="386687235_1" arrivalPos="80.84" arrivalSpeed="15.22" duration="179.00" routeLength="1823.78" waitingTime="27.00" waitingCount="4" stopTime="0.00" timeLoss="65.92" rerouteNo="1" devices="tripinfo_h5216c1:1 routing_h5216c1:1 emissions_h5216c1:1" vType="default_016" speedFactor="1.13" vaporized="">
        <emissions CO_abs="8976.687829" CO2_abs="521920.656367" HC_abs="53.009789" PMx_abs="9.682441" NOx_abs="213.730426" fuel_abs="224.351703" electricity_abs="0"/>
    </tripinfo>
    <tripinfo id="h16072c2:3" depart="57663.00" departLane="315358254#0_1" departPos="5.10" departSpeed="0.00" departDelay="2.50" arrival="57844.00" arrivalLane="386687235_1" arrivalPos="80.84" arrivalSpeed="12.76" duration="181.00" routeLength="1611.92" waitingTime="24.00" waitingCount="4" stopTime="0.00" timeLoss="54.10" rerouteNo="1" devices="tripinfo_h16072c2:3 routing_h16072c2:3 emissions_h16072c2:3" vType="default_016" speedFactor="0.93" vaporized="">
        <emissions CO_abs="8181.904627" CO2_abs="429937.846873" HC_abs="47.280910" PMx_abs="7.362474" NOx_abs="173.805579" fuel_abs="184.813639" electricity_abs="0"/>
    </tripinfo>
    <tripinfo id="randUni31145:1" depart="57814.00" departLane="10425609#0_1" departPos="5.10" departSpeed="0.00" departDelay="0.30" arrival="57844.00" arrivalLane="201956810_1" arrivalPos="71.65" arrivalSpeed="14.35" duration="30.00" routeLength="255.78" waitingTime="0.00" waitingCount="0" stopTime="0.00" timeLoss="11.33" rerouteNo="1" devices="tripinfo_randUni31145:1 routing_randUni31145:1 emissions_randUni31145:1" vType="random_016" speedFactor="1.04" vaporized="">
        <emissions CO_abs="2289.893095" CO2_abs="120279.712002" HC_abs="13.280677" PMx_abs="2.348109" NOx_abs="50.914467" fuel_abs="51.703108" electricity_abs="0"/>
    </tripinfo>
    <tripinfo id="carIn12365:1" depart="57713.00" departLane="315358244_1" departPos="5.10" departSpeed="0.00" departDelay="0.50" arrival="57845.00" arrivalLane="447569997#1_1" arrivalPos="180.93" arrivalSpeed="9.06" duration="132.00" routeLength="718.04" waitingTime="63.00" waitingCount="2" stopTime="0.00" timeLoss="79.93" rerouteNo="1" devices="tripinfo_carIn12365:1 routing_carIn12365:1 emissions_carIn12365:1" vType="default_016" speedFactor="1.19" vaporized="">
        <emissions CO_abs="11995.276896" CO2_abs="322194.949428" HC_abs="62.044950" PMx_abs="6.738647" NOx_abs="138.260487" fuel_abs="138.502250" electricity_abs="0"/>
    </tripinfo>
    <tripinfo id="randUni2407:1" depart="57820.00" departLane="10425609#0_1" departPos="5.10" departSpeed="0.00" departDelay="0.80" arrival="57847.00" arrivalLane="201956810_1" arrivalPos="71.65" arrivalSpeed="15.13" duration="27.00" routeLength="255.78" waitingTime="0.00" waitingCount="0" stopTime="0.00" timeLoss="8.70" rerouteNo="1" devices="tripinfo_randUni2407:1 routing_randUni2407:1 emissions_randUni2407:1" vType="random_016" speedFactor="1.15" vaporized="">
        <emissions CO_abs="1918.054533" CO2_abs="108205.148215" HC_abs="11.287459" PMx_abs="2.139771" NOx_abs="45.915417" fuel_abs="46.512608" electricity_abs="0"/>
    </tripinfo>
    <tripinfo id="h6541c1:3" depart="57727.00" departLane="201950247#3_1" departPos="5.10" departSpeed="0.00" departDelay="0.00" arrival="57850.00" arrivalLane="32978638#0_1" arrivalPos="49.29" arrivalSpeed="14.40" duration="123.00" routeLength="1176.17" waitingTime="8.00" waitingCount="1" stopTime="0.00" timeLoss="27.15" rerouteNo="1" devices="tripinfo_h6541c1:3 routing_h6541c1:3 emissions_h6541c1:3" vType="default_016" speedFactor="1.08" vaporized="">
        <emissions CO_abs="5306.777501" CO2_abs="323251.960549" HC_abs="31.655594" PMx_abs="5.706118" NOx_abs="131.896868" fuel_abs="138.952490" electricity_abs="0"/>
    </tripinfo>
    <tripinfo id="50R_frequency3.17" depart="57674.00" departLane="-18809673#6_1" departPos="12.10" departSpeed="0.00" departDelay="0.70" arrival="57866.00" arrivalLane="201956811#0_1" arrivalPos="40.40" arrivalSpeed="11.50" duration="192.00" routeLength="1954.47" waitingTime="16.00" waitingCount="2" stopTime="0.00" timeLoss="46.62" rerouteNo="1" devices="tripinfo_50R_frequency3.17 routing_50R_frequency3.17 emissions_50R_frequency3.17" vType="bus" speedFactor="1.00" vaporized="">
        <emissions CO_abs="3574.202580" CO2_abs="2151124.769075" HC_abs="766.569432" PMx_abs="381.655473" NOx_abs="16921.114943" fuel_abs="917.409349" electricity_abs="0"/>
    </tripinfo>
    <tripinfo id="randUni15030:1" depart="57735.00" departLane="386687232#0_1" departPos="5.10" departSpeed="0.00" departDelay="0.10" arrival="57867.00" arrivalLane="26677539_1" arrivalPos="151.98" arrivalSpeed="5.91" duration="132.00" routeLength="919.89" waitingTime="5.00" waitingCount="2" stopTime="0.00" timeLoss="24.37" rerouteNo="1" devices="tripinfo_randUni15030:1 routing_randUni15030:1 emissions_randUni15030:1" vType="random_016" speedFactor="0.78" vaporized="">
        <emissions CO_abs="4945.164768" CO2_abs="227640.948265" HC_abs="27.765009" PMx_abs="3.792147" NOx_abs="92.752808" fuel_abs="97.854572" electricity_abs="0"/>
    </tripinfo>
    <tripinfo id="h17549c1:1" depart="57680.00" departLane="-447569998#1_1" departPos="5.10" departSpeed="0.00" departDelay="0.00" arrival="57868.00" arrivalLane="-315358254#1_1" arrivalPos="137.16" arrivalSpeed="12.76" duration="188.00" routeLength="1746.60" waitingTime="18.00" waitingCount="3" stopTime="0.00" timeLoss="45.70" rerouteNo="1" devices="tripinfo_h17549c1:1 routing_h17549c1:1 emissions_h17549c1:1" vType="default_016" speedFactor="0.96" vaporized="">
        <emissions CO_abs="7788.454610" CO2_abs="433427.404975" HC_abs="45.555813" PMx_abs="7.351157" NOx_abs="174.751008" fuel_abs="186.313377" electricity_abs="0"/>
    </tripinfo>
    <tripinfo id="carIn8642:1" depart="57774.00" departLane="-447569998#1_1" departPos="5.10" departSpeed="0.00" departDelay="0.90" arrival="57873.00" arrivalLane="-315358244_1" arrivalPos="33.95" arrivalSpeed="13.23" duration="99.00" routeLength="706.49" waitingTime="23.00" waitingCount="2" stopTime="0.00" timeLoss="38.70" rerouteNo="1" devices="tripinfo_carIn8642:1 routing_carIn8642:1 emissions_carIn8642:1" vType="default_016" speedFactor="1.00" vaporized="">
        <emissions CO_abs="5965.340548" CO2_abs="237609.395496" HC_abs="32.675824" PMx_abs="4.374475" NOx_abs="98.439290" fuel_abs="102.139801" electricity_abs="0"/>
    </tripinfo>
    <tripinfo id="carIn126378:1" depart="57746.00" departLane="386687232#0_1" departPos="5.10" departSpeed="0.00" departDelay="1.80" arrival="57874.00" arrivalLane="-315358244_2" arrivalPos="33.95" arrivalSpeed="12.68" duration="128.00" routeLength="1157.39" waitingTime="18.00" waitingCount="2" stopTime="0.00" timeLoss="38.99" rerouteNo="1" devices="tripinfo_carIn126378:1 routing_carIn126378:1 emissions_carIn126378:1" vType="default_016" speedFactor="0.96" vaporized="">
        <emissions CO_abs="5427.076014" CO2_abs="305991.987098" HC_abs="31.845669" PMx_abs="5.219503" NOx_abs="123.583437" fuel_abs="131.533800" electricity_abs="0"/>
    </tripinfo>
    <tripinfo id="randUni3548:1" depart="57726.00" departLane="-447569998#1_1" departPos="5.10" departSpeed="0.00" departDelay="0.00" arrival="57875.00" arrivalLane="-315358254#1_1" arrivalPos="137.16" arrivalSpeed="14.91" duration="149.00" routeLength="1746.60" waitingTime="3.00" waitingCount="1" stopTime="0.00" timeLoss="24.09" rerouteNo="1" devices="tripinfo_randUni3548:1 routing_randUni3548:1 emissions_randUni3548:1" vType="random_016" speedFactor="1.10" vaporized="">
        <emissions CO_abs="5255.090661" CO2_abs="410073.783315" HC_abs="33.280058" PMx_abs="6.686620" NOx_abs="161.729795" fuel_abs="176.273326" electricity_abs="0"/>
    </tripinfo>
    <tripinfo id="carIn73855:1" depart="57743.00" departLane="386687232#0_1" departPos="5.10" departSpeed="0.00" departDelay="0.50" arrival="57876.00" arrivalLane="-315358244_1" arrivalPos="33.95" arrivalSpeed="12.09" duration="133.00" routeLength="1157.39" waitingTime="21.00" waitingCount="2" stopTime="0.00" timeLoss="43.20" rerouteNo="1" devices="tripinfo_carIn73855:1 routing_carIn73855:1 emissions_carIn73855:1" vType="default_016" speedFactor="0.94" vaporized="">
        <emissions CO_abs="6135.056253" CO2_abs="323853.015269" HC_abs="35.504343" PMx_abs="5.648182" NOx_abs="131.624669" fuel_abs="139.211690" electricity_abs="0"/>
    </tripinfo>
    <tripinfo id="h7097c1:1" depart="57670.00" departLane="315358242#0_1" departPos="5.10" departSpeed="0.00" departDelay="0.60" arrival="57880.00" arrivalLane="306240162#0_0" arrivalPos="220.43" arrivalSpeed="18.19" duration="210.00" routeLength="2586.94" waitingTime="32.00" waitingCount="1" stopTime="0.00" timeLoss="55.98" rerouteNo="1" devices="tripinfo_h7097c1:1 routing_h7097c1:1 emissions_h7097c1:1" vType="default_016" speedFactor="1.13" vaporized="">
        <emissions CO_abs="11811.532803" CO2_abs="665607.015121" HC_abs="69.369626" PMx_abs="12.495464" NOx_abs="270.639083" fuel_abs="286.116811" electricity_abs="0"/>
    </tripinfo>
    <tripinfo id="h9953c2:3" depart="57682.00" departLane="-54169231#2_1" departPos="5.10" departSpeed="0.00" departDelay="0.00" arrival="57884.00" arrivalLane="386687235_1" arrivalPos="80.84" arrivalSpeed="14.40" duration="202.00" routeLength="1535.60" waitingTime="56.00" waitingCount="2" stopTime="0.00" timeLoss="83.42" rerouteNo="1" devices="tripinfo_h9953c2:3 routing_h9953c2:3 emissions_h9953c2:3" vType="default_016" speedFactor="1.07" vaporized="">
        <emissions CO_abs="14108.007738" CO2_abs="520923.803937" HC_abs="76.446925" PMx_abs="10.060043" NOx_abs="218.309673" fuel_abs="223.926786" electricity_abs="0"/>
    </tripinfo>
    <tripinfo id="carIn53503:1" depart="57764.00" departLane="-306240162#1_0" departPos="5.10" departSpeed="0.00" departDelay="3.40" arrival="57886.00" arrivalLane="24634510#6_1" arrivalPos="76.64" arrivalSpeed="13.95" duration="122.00" routeLength="1440.47" waitingTime="7.00" waitingCount="1" stopTime="0.00" timeLoss="26.74" rerouteNo="1" devices="tripinfo_carIn53503:1 routing_carIn53503:1 emissions_carIn53503:1" vType="default_016" speedFactor="1.04" vaporized="">
        <emissions CO_abs="4675.225797" CO2_abs="337269.645122" HC_abs="29.137383" PMx_abs="5.901501" NOx_abs="135.668118" fuel_abs="144.977615" electricity_abs="0"/>
    </tripinfo>
    <tripinfo id="carIn70533:1" depart="57812.00" departLane="-447569998#1_1" departPos="5.10" departSpeed="0.00" departDelay="0.10" arrival="57886.00" arrivalLane="-315358244_1" arrivalPos="33.95" arrivalSpeed="13.32" duration="74.00" routeLength="706.49" waitingTime="3.00" waitingCount="1" stopTime="0.00" timeLoss="12.67" rerouteNo="1" devices="tripinfo_carIn70533:1 routing_carIn70533:1 emissions_carIn70533:1" vType="default_016" speedFactor="0.99" vaporized="">
        <emissions CO_abs="2807.931381" CO2_abs="176781.774734" HC_abs="16.879494" PMx_abs="2.793447" NOx_abs="69.970105" fuel_abs="75.991522" electricity_abs="0"/>
    </tripinfo>
    <tripinfo id="h3864c1:3" depart="57678.00" departLane="24693977#1_1" departPos="5.10" departSpeed="0.00" departDelay="0.00" arrival="57891.00" arrivalLane="201956820_1" arrivalPos="48.33" arrivalSpeed="11.03" duration="213.00" routeLength="1574.85" waitingTime="28.00" waitingCount="3" stopTime="0.00" timeLoss="64.75" rerouteNo="1" devices="tripinfo_h3864c1:3 routing_h3864c1:3 emissions_h3864c1:3" vType="default_016" speedFactor="0.88" vaporized="">
        <emissions CO_abs="10584.365880" CO2_abs="492797.614653" HC_abs="59.675957" PMx_abs="8.733475" NOx_abs="203.116284" fuel_abs="211.834994" electricity_abs="0"/>
    </tripinfo>