<?xml version="1.0" encoding="UTF-8"?>

<!-- generated on 2021-10-26 14:32:41 by Eclipse SUMO sumo Version 1.10.0
<configuration xmlns:xsi="http://www.w3.org/2001/XMLSchema-instance" xsi:noNamespaceSchemaLocation="http://sumo.dlr.de/xsd/sumoConfiguration.xsd">

    <input>
        <net-file value="/Users/behradkoohy/sumo-scratchpad/RESCO/environments/ingolstadt21/ingolstadt21.net.xml"/>
        <route-files value="/Users/behradkoohy/sumo-scratchpad/RESCO/environments/ingolstadt21/ingolstadt21.rou.xml"/>
    </input>

    <output>
        <tripinfo-output value="/Users/behradkoohy/sumo-scratchpad/RESCO/logs/STOCHASTIC-tr0-ingolstadt21-21-mplight-wait/tripinfo_64.xml"/>
        <tripinfo-output.write-unfinished value="true"/>
    </output>

    <time>
        <begin value="57600"/>
        <end value="61200"/>
    </time>

    <processing>
        <time-to-teleport value="-1"/>
    </processing>

    <report>
        <no-warnings value="true"/>
        <no-step-log value="true"/>
    </report>

    <emissions>
        <device.emissions.probability value="1"/>
    </emissions>

    <traci_server>
        <remote-port value="60370"/>
    </traci_server>

    <random_number>
        <random value="true"/>
    </random_number>

</configuration>
-->

<tripinfos xmlns:xsi="http://www.w3.org/2001/XMLSchema-instance" xsi:noNamespaceSchemaLocation="http://sumo.dlr.de/xsd/tripinfo_file.xsd">
    <tripinfo id="h15454c2:3" depart="57612.00" departLane="24608844_1" departPos="5.10" departSpeed="0.00" departDelay="0.50" arrival="57657.00" arrivalLane="32978638#0_1" arrivalPos="49.29" arrivalSpeed="11.33" duration="45.00" routeLength="354.79" waitingTime="0.00" waitingCount="0" stopTime="0.00" timeLoss="6.58" rerouteNo="1" devices="tripinfo_h15454c2:3 routing_h15454c2:3 emissions_h15454c2:3" vType="default_016" speedFactor="0.91" vaporized="">
        <emissions CO_abs="1910.114160" CO2_abs="93141.504972" HC_abs="10.825969" PMx_abs="1.426843" NOx_abs="37.017207" fuel_abs="40.038255" electricity_abs="0"/>
    </tripinfo>
    <tripinfo id="carIn60260:1" depart="57606.00" departLane="315358254#0_1" departPos="5.10" departSpeed="0.00" departDelay="0.90" arrival="57668.00" arrivalLane="399835085#1_1" arrivalPos="212.23" arrivalSpeed="5.82" duration="62.00" routeLength="430.98" waitingTime="10.00" waitingCount="1" stopTime="0.00" timeLoss="23.73" rerouteNo="1" devices="tripinfo_carIn60260:1 routing_carIn60260:1 emissions_carIn60260:1" vType="default_016" speedFactor="1.20" vaporized="">
        <emissions CO_abs="2966.108360" CO2_abs="138917.114807" HC_abs="16.766192" PMx_abs="2.591605" NOx_abs="58.208366" fuel_abs="59.714971" electricity_abs="0"/>
    </tripinfo>
    <tripinfo id="carIn53971:1" depart="57640.00" departLane="272042143_1" departPos="5.10" departSpeed="0.00" departDelay="0.80" arrival="57700.00" arrivalLane="24634414#1_1" arrivalPos="162.19" arrivalSpeed="6.70" duration="60.00" routeLength="493.04" waitingTime="0.00" waitingCount="0" stopTime="0.00" timeLoss="10.25" rerouteNo="1" devices="tripinfo_carIn53971:1 routing_carIn53971:1 emissions_carIn53971:1" vType="default_016" speedFactor="0.93" vaporized="">
        <emissions CO_abs="2741.468896" CO2_abs="143917.831771" HC_abs="15.825823" PMx_abs="2.445826" NOx_abs="58.682210" fuel_abs="61.864671" electricity_abs="0"/>
    </tripinfo>
    <tripinfo id="h3688c1:1" depart="57625.00" departLane="201201950#1_1" departPos="5.10" departSpeed="0.00" departDelay="0.00" arrival="57707.00" arrivalLane="32978638#0_1" arrivalPos="49.29" arrivalSpeed="15.22" duration="82.00" routeLength="1089.75" waitingTime="0.00" waitingCount="0" stopTime="0.00" timeLoss="13.81" rerouteNo="1" devices="tripinfo_h3688c1:1 routing_h3688c1:1 emissions_h3688c1:1" vType="default_016" speedFactor="1.17" vaporized="">
        <emissions CO_abs="3670.648711" CO2_abs="267145.346835" HC_abs="23.075753" PMx_abs="4.963289" NOx_abs="109.554398" fuel_abs="114.833740" electricity_abs="0"/>
    </tripinfo>
    <tripinfo id="h7800c1:5" depart="57696.00" departLane="-447569998#1_1" departPos="5.10" departSpeed="0.00" departDelay="0.00" arrival="57720.00" arrivalLane="-447569998#1_2" arrivalPos="180.76" arrivalSpeed="8.15" duration="24.00" routeLength="175.66" waitingTime="0.00" waitingCount="0" stopTime="0.00" timeLoss="3.68" rerouteNo="1" devices="tripinfo_h7800c1:5 routing_h7800c1:5 emissions_h7800c1:5" vType="default_016" speedFactor="1.04" vaporized="">
        <emissions CO_abs="1185.277984" CO2_abs="53068.760457" HC_abs="6.615803" PMx_abs="0.870960" NOx_abs="21.611058" fuel_abs="22.812372" electricity_abs="0"/>
    </tripinfo>
    <tripinfo id="h12244c1:3" depart="57612.00" departLane="315358244_1" departPos="5.10" departSpeed="0.00" departDelay="0.40" arrival="57727.00" arrivalLane="386687235_1" arrivalPos="80.84" arrivalSpeed="12.66" duration="115.00" routeLength="1186.14" waitingTime="7.00" waitingCount="1" stopTime="0.00" timeLoss="28.42" rerouteNo="1" devices="tripinfo_h12244c1:3 routing_h12244c1:3 emissions_h12244c1:3" vType="default_016" speedFactor="1.00" vaporized="">
        <emissions CO_abs="4135.867708" CO2_abs="267654.440063" HC_abs="25.059838" PMx_abs="4.434613" NOx_abs="106.818712" fuel_abs="115.053732" electricity_abs="0"/>
    </tripinfo>
    <tripinfo id="S5R_frequency1.2" depart="57612.00" departLane="315358250#0_1" departPos="12.10" departSpeed="0.00" departDelay="0.40" arrival="57731.00" arrivalLane="386687235_1" arrivalPos="80.84" arrivalSpeed="13.62" duration="119.00" routeLength="1115.62" waitingTime="12.00" waitingCount="2" stopTime="0.00" timeLoss="37.90" rerouteNo="1" devices="tripinfo_S5R_frequency1.2 routing_S5R_frequency1.2 emissions_S5R_frequency1.2" vType="bus" speedFactor="1.00" vaporized="">
        <emissions CO_abs="2246.861818" CO2_abs="1375977.435807" HC_abs="467.924801" PMx_abs="239.650407" NOx_abs="10772.431457" fuel_abs="586.820277" electricity_abs="0"/>
    </tripinfo>
    <tripinfo id="h7181c1:1" depart="57660.00" departLane="315358254#0_1" departPos="5.10" departSpeed="0.00" departDelay="0.10" arrival="57732.00" arrivalLane="306240162#0_0" arrivalPos="220.43" arrivalSpeed="16.05" duration="72.00" routeLength="932.35" waitingTime="7.00" waitingCount="1" stopTime="0.00" timeLoss="20.40" rerouteNo="1" devices="tripinfo_h7181c1:1 routing_h7181c1:1 emissions_h7181c1:1" vType="default_016" speedFactor="1.01" vaporized="">
        <emissions CO_abs="3562.664511" CO2_abs="250262.317485" HC_abs="22.136231" PMx_abs="4.780470" NOx_abs="102.095802" fuel_abs="107.576521" electricity_abs="0"/>
    </tripinfo>
    <tripinfo id="h4538c1:1" depart="57701.00" departLane="-10427692#1_1" departPos="5.10" departSpeed="0.00" departDelay="0.00" arrival="57747.00" arrivalLane="-128361102#1_1" arrivalPos="274.68" arrivalSpeed="12.70" duration="46.00" routeLength="440.74" waitingTime="3.00" waitingCount="1" stopTime="0.00" timeLoss="13.48" rerouteNo="1" devices="tripinfo_h4538c1:1 routing_h4538c1:1 emissions_h4538c1:1" vType="default_016" speedFactor="0.97" vaporized="">
        <emissions CO_abs="1879.824987" CO2_abs="104687.755643" HC_abs="11.017920" PMx_abs="1.880570" NOx_abs="43.099807" fuel_abs="45.000962" electricity_abs="0"/>
    </tripinfo>
    <tripinfo id="h3326c1:2" depart="57656.00" departLane="22716069#0_1" departPos="5.10" departSpeed="0.00" departDelay="0.00" arrival="57756.00" arrivalLane="24634517#13_1" arrivalPos="111.62" arrivalSpeed="16.07" duration="100.00" routeLength="1312.81" waitingTime="0.00" waitingCount="0" stopTime="0.00" timeLoss="17.63" rerouteNo="1" devices="tripinfo_h3326c1:2 routing_h3326c1:2 emissions_h3326c1:2" vType="default_016" speedFactor="1.17" vaporized="">
        <emissions CO_abs="4340.427111" CO2_abs="337850.449712" HC_abs="27.627670" PMx_abs="6.035839" NOx_abs="136.541247" fuel_abs="145.226805" electricity_abs="0"/>
    </tripinfo>
    <tripinfo id="h3568c1:3" depart="57656.00" departLane="266565295#5_1" departPos="5.10" departSpeed="0.00" departDelay="0.80" arrival="57762.00" arrivalLane="-24634415_1" arrivalPos="62.03" arrivalSpeed="12.44" duration="106.00" routeLength="807.40" waitingTime="21.00" waitingCount="1" stopTime="0.00" timeLoss="39.89" rerouteNo="1" devices="tripinfo_h3568c1:3 routing_h3568c1:3 emissions_h3568c1:3" vType="default_016" speedFactor="0.98" vaporized="">
        <emissions CO_abs="6422.571580" CO2_abs="274386.765121" HC_abs="35.669854" PMx_abs="5.108128" NOx_abs="114.151258" fuel_abs="117.948590" electricity_abs="0"/>
    </tripinfo>
    <tripinfo id="carIn27009:1" depart="57673.00" departLane="-447569998#1_1" departPos="5.10" departSpeed="0.00" departDelay="0.50" arrival="57765.00" arrivalLane="-26677539_1" arrivalPos="152.75" arrivalSpeed="7.64" duration="92.00" routeLength="699.63" waitingTime="0.00" waitingCount="0" stopTime="0.00" timeLoss="11.57" rerouteNo="1" devices="tripinfo_carIn27009:1 routing_carIn27009:1 emissions_carIn27009:1" vType="default_015" speedFactor="1.04" vaporized="">
        <emissions CO_abs="3549.562757" CO2_abs="171980.082587" HC_abs="20.110796" PMx_abs="2.761356" NOx_abs="69.540838" fuel_abs="73.927973" electricity_abs="0"/>
    </tripinfo>
    <tripinfo id="carIn22761:1" depart="57616.00" departLane="-306240162#1_0" departPos="5.10" departSpeed="0.00" departDelay="2.10" arrival="57771.00" arrivalLane="399835085#1_1" arrivalPos="212.23" arrivalSpeed="8.65" duration="155.00" routeLength="1093.26" waitingTime="47.00" waitingCount="3" stopTime="0.00" timeLoss="83.57" rerouteNo="1" devices="tripinfo_carIn22761:1 routing_carIn22761:1 emissions_carIn22761:1" vType="default_016" speedFactor="1.09" vaporized="">
        <emissions CO_abs="11853.758941" CO2_abs="465081.404711" HC_abs="65.001269" PMx_abs="9.530006" NOx_abs="197.431296" fuel_abs="199.920737" electricity_abs="0"/>
    </tripinfo>
    <tripinfo id="h5979c1:5" depart="57669.00" departLane="399835085#1_1" departPos="5.10" departSpeed="0.00" departDelay="0.00" arrival="57771.00" arrivalLane="-315358254#1_1" arrivalPos="137.16" arrivalSpeed="14.98" duration="102.00" routeLength="659.33" waitingTime="22.00" waitingCount="1" stopTime="0.00" timeLoss="36.53" rerouteNo="1" devices="tripinfo_h5979c1:5 routing_h5979c1:5 emissions_h5979c1:5" vType="default_016" speedFactor="1.12" vaporized="">
        <emissions CO_abs="6516.785832" CO2_abs="228808.607057" HC_abs="35.019865" PMx_abs="4.382443" NOx_abs="96.338954" fuel_abs="98.357017" electricity_abs="0"/>
    </tripinfo>
    <tripinfo id="h317c2:1" depart="57707.00" departLane="-32978638#0_1" departPos="5.10" departSpeed="0.00" departDelay="0.10" arrival="57772.00" arrivalLane="-266565295#5_1" arrivalPos="172.76" arrivalSpeed="15.29" duration="65.00" routeLength="370.53" waitingTime="32.00" waitingCount="1" stopTime="0.00" timeLoss="41.16" rerouteNo="1" devices="tripinfo_h317c2:1 routing_h317c2:1 emissions_h317c2:1" vType="default_016" speedFactor="1.16" vaporized="">
        <emissions CO_abs="6359.947385" CO2_abs="197531.291699" HC_abs="33.647768" PMx_abs="4.235686" NOx_abs="85.563400" fuel_abs="84.911958" electricity_abs="0"/>
    </tripinfo>
    <tripinfo id="h330c1:1" depart="57736.00" departLane="-32978638#0_1" departPos="5.10" departSpeed="0.00" departDelay="0.20" arrival="57774.00" arrivalLane="-266565295#5_1" arrivalPos="172.76" arrivalSpeed="16.66" duration="38.00" routeLength="370.53" waitingTime="4.00" waitingCount="1" stopTime="0.00" timeLoss="15.52" rerouteNo="1" devices="tripinfo_h330c1:1 routing_h330c1:1 emissions_h330c1:1" vType="default_016" speedFactor="1.26" vaporized="">
        <emissions CO_abs="2370.492787" CO2_abs="137190.838724" HC_abs="14.033162" PMx_abs="2.696546" NOx_abs="57.645557" fuel_abs="58.972295" electricity_abs="0"/>
    </tripinfo>
    <tripinfo id="carIn80064:1" depart="57603.00" departLane="128361109#1_1" departPos="5.10" departSpeed="0.00" departDelay="0.40" arrival="57778.00" arrivalLane="-315358254#1_1" arrivalPos="137.16" arrivalSpeed="11.99" duration="175.00" routeLength="1587.97" waitingTime="42.00" waitingCount="3" stopTime="0.00" timeLoss="79.31" rerouteNo="1" devices="tripinfo_carIn80064:1 routing_carIn80064:1 emissions_carIn80064:1" vType="default_016" speedFactor="0.94" vaporized="">
        <emissions CO_abs="11987.874499" CO2_abs="557029.060742" HC_abs="67.781019" PMx_abs="10.987299" NOx_abs="232.331770" fuel_abs="239.444424" electricity_abs="0"/>
    </tripinfo>
    <tripinfo id="h645c1:1" depart="57622.00" departLane="266565295#5_1" departPos="5.10" departSpeed="0.00" departDelay="0.40" arrival="57781.00" arrivalLane="-315358244_1" arrivalPos="33.95" arrivalSpeed="12.48" duration="159.00" routeLength="1910.83" waitingTime="0.00" waitingCount="0" stopTime="0.00" timeLoss="16.32" rerouteNo="1" devices="tripinfo_h645c1:1 routing_h645c1:1 emissions_h645c1:1" vType="default_016" speedFactor="0.97" vaporized="">
        <emissions CO_abs="3899.804714" CO2_abs="351405.994711" HC_abs="25.896818" PMx_abs="5.167260" NOx_abs="134.953968" fuel_abs="151.054917" electricity_abs="0"/>
    </tripinfo>
    <tripinfo id="carIn30817:1" depart="57681.00" departLane="315358244_1" departPos="5.10" departSpeed="0.00" departDelay="0.20" arrival="57802.00" arrivalLane="447569997#1_1" arrivalPos="180.93" arrivalSpeed="7.92" duration="121.00" routeLength="718.04" waitingTime="40.00" waitingCount="2" stopTime="0.00" timeLoss="58.08" rerouteNo="1" devices="tripinfo_carIn30817:1 routing_carIn30817:1 emissions_carIn30817:1" vType="default_016" speedFactor="0.99" vaporized="">
        <emissions CO_abs="9904.935626" CO2_abs="297615.113956" HC_abs="52.035496" PMx_abs="5.884532" NOx_abs="126.230766" fuel_abs="127.935554" electricity_abs="0"/>
    </tripinfo>
    <tripinfo id="carIn12365:1" depart="57713.00" departLane="315358244_1" departPos="5.10" departSpeed="0.00" departDelay="0.50" arrival="57803.00" arrivalLane="447569997#1_2" arrivalPos="180.93" arrivalSpeed="8.01" duration="90.00" routeLength="718.04" waitingTime="10.00" waitingCount="1" stopTime="0.00" timeLoss="30.34" rerouteNo="1" devices="tripinfo_carIn12365:1 routing_carIn12365:1 emissions_carIn12365:1" vType="default_016" speedFactor="1.04" vaporized="">
        <emissions CO_abs="4562.195133" CO2_abs="215563.471001" HC_abs="25.812289" PMx_abs="3.868319" NOx_abs="88.808586" fuel_abs="92.662461" electricity_abs="0"/>
    </tripinfo>
    <tripinfo id="h16072c2:3" depart="57663.00" departLane="315358254#0_1" departPos="5.10" departSpeed="0.00" departDelay="2.50" arrival="57823.00" arrivalLane="386687235_1" arrivalPos="80.84" arrivalSpeed="11.11" duration="160.00" routeLength="1611.92" waitingTime="5.00" waitingCount="1" stopTime="0.00" timeLoss="23.38" rerouteNo="1" devices="tripinfo_h16072c2:3 routing_h16072c2:3 emissions_h16072c2:3" vType="default_016" speedFactor="0.86" vaporized="">
        <emissions CO_abs="4916.334711" CO2_abs="351263.920400" HC_abs="30.501651" PMx_abs="5.360610" NOx_abs="137.962970" fuel_abs="150.994230" electricity_abs="0"/>
    </tripinfo>
    <tripinfo id="h9953c2:3" depart="57682.00" departLane="-54169231#2_1" departPos="5.10" departSpeed="0.00" departDelay="0.00" arrival="57824.00" arrivalLane="386687235_1" arrivalPos="80.84" arrivalSpeed="13.05" duration="142.00" routeLength="1535.60" waitingTime="6.00" waitingCount="1" stopTime="0.00" timeLoss="37.71" rerouteNo="1" devices="tripinfo_h9953c2:3 routing_h9953c2:3 emissions_h9953c2:3" vType="default_016" speedFactor="1.20" vaporized="">
        <emissions CO_abs="6925.135876" CO2_abs="454566.361575" HC_abs="42.135539" PMx_abs="8.198542" NOx_abs="185.708069" fuel_abs="195.398424" electricity_abs="0"/>
    </tripinfo>
    <tripinfo id="h3154c1:1" depart="57658.00" departLane="24634507_1" departPos="5.10" departSpeed="0.00" departDelay="0.00" arrival="57831.00" arrivalLane="-266565295#5_1" arrivalPos="172.76" arrivalSpeed="10.61" duration="173.00" routeLength="1206.22" waitingTime="42.00" waitingCount="2" stopTime="0.00" timeLoss="63.07" rerouteNo="1" devices="tripinfo_h3154c1:1 routing_h3154c1:1 emissions_h3154c1:1" vType="default_016" speedFactor="0.81" vaporized="">
        <emissions CO_abs="10037.103604" CO2_abs="377745.557226" HC_abs="54.459858" PMx_abs="6.740037" NOx_abs="155.582754" fuel_abs="162.380099" electricity_abs="0"/>
    </tripinfo>
    <tripinfo id="carIn107282:1" depart="57749.00" departLane="-447569998#1_1" departPos="5.10" departSpeed="0.00" departDelay="0.00" arrival="57835.00" arrivalLane="315358242#0_1" arrivalPos="165.37" arrivalSpeed="14.21" duration="86.00" routeLength="448.50" waitingTime="37.00" waitingCount="1" stopTime="0.00" timeLoss="45.44" rerouteNo="1" devices="tripinfo_carIn107282:1 routing_carIn107282:1 emissions_carIn107282:1" vType="default_016" speedFactor="1.02" vaporized="">
        <emissions CO_abs="7449.921057" CO2_abs="210312.000781" HC_abs="38.827359" PMx_abs="4.190172" NOx_abs="89.332291" fuel_abs="90.406986" electricity_abs="0"/>
    </tripinfo>
    <tripinfo id="carIn12152:1" depart="57647.00" departLane="24599188#0.94_1" departPos="5.10" departSpeed="0.00" departDelay="0.50" arrival="57837.00" arrivalLane="-315358254#1_1" arrivalPos="137.16" arrivalSpeed="13.58" duration="190.00" routeLength="2034.31" waitingTime="19.00" waitingCount="1" stopTime="0.00" timeLoss="37.43" rerouteNo="1" devices="tripinfo_carIn12152:1 routing_carIn12152:1 emissions_carIn12152:1" vType="default_016" speedFactor="1.04" vaporized="">
        <emissions CO_abs="6467.438038" CO2_abs="411580.887195" HC_abs="38.915778" PMx_abs="6.715249" NOx_abs="162.577153" fuel_abs="176.922180" electricity_abs="0"/>
    </tripinfo>
    <tripinfo id="carIn86816:1" depart="57617.00" departLane="128361102#0_1" departPos="5.10" departSpeed="0.00" departDelay="0.80" arrival="57843.00" arrivalLane="201956811#0_1" arrivalPos="40.40" arrivalSpeed="14.60" duration="226.00" routeLength="2067.33" waitingTime="60.00" waitingCount="1" stopTime="0.00" timeLoss="82.30" rerouteNo="1" devices="tripinfo_carIn86816:1 routing_carIn86816:1 emissions_carIn86816:1" vType="default_016" speedFactor="1.05" vaporized="">
        <emissions CO_abs="14362.454731" CO2_abs="587837.368520" HC_abs="79.077808" PMx_abs="10.947867" NOx_abs="241.743789" fuel_abs="252.690044" electricity_abs="0"/>
    </tripinfo>
    <tripinfo id="carIn102915:1" depart="57643.00" departLane="128361102#0_1" departPos="5.10" departSpeed="0.00" departDelay="0.40" arrival="57845.00" arrivalLane="201956811#0_1" arrivalPos="40.40" arrivalSpeed="13.77" duration="202.00" routeLength="2067.33" waitingTime="30.00" waitingCount="2" stopTime="0.00" timeLoss="58.48" rerouteNo="1" devices="tripinfo_carIn102915:1 routing_carIn102915:1 emissions_carIn102915:1" vType="default_016" speedFactor="1.05" vaporized="">
        <emissions CO_abs="9579.127056" CO2_abs="499588.411952" HC_abs="55.304493" PMx_abs="9.047152" NOx_abs="204.202986" fuel_abs="214.753115" electricity_abs="0"/>
    </tripinfo>
    <tripinfo id="h9563c2:5" depart="57631.00" departLane="315358244_1" departPos="5.10" departSpeed="0.00" departDelay="0.70" arrival="57846.00" arrivalLane="386687235_1" arrivalPos="80.84" arrivalSpeed="14.51" duration="215.00" routeLength="1186.14" waitingTime="108.00" waitingCount="3" stopTime="0.00" timeLoss="135.82" rerouteNo="1" devices="tripinfo_h9563c2:5 routing_h9563c2:5 emissions_h9563c2:5" vType="default_016" speedFactor="1.10" vaporized="">
        <emissions CO_abs="20654.450070" CO2_abs="554961.251643" HC_abs="107.053561" PMx_abs="11.732995" NOx_abs="238.977271" fuel_abs="238.561558" electricity_abs="0"/>
    </tripinfo>
    <tripinfo id="carIn118591:1" depart="57689.00" departLane="315358244_1" departPos="5.10" departSpeed="0.00" departDelay="0.20" arrival="57848.00" arrivalLane="386687235_1" arrivalPos="80.84" arrivalSpeed="13.02" duration="159.00" routeLength="1186.14" waitingTime="47.00" waitingCount="3" stopTime="0.00" timeLoss="74.39" rerouteNo="1" devices="tripinfo_carIn118591:1 routing_carIn118591:1 emissions_carIn118591:1" vType="default_016" speedFactor="1.02" vaporized="">
        <emissions CO_abs="11109.808081" CO2_abs="402912.711012" HC_abs="59.991113" PMx_abs="7.791256" NOx_abs="168.763558" fuel_abs="173.198139" electricity_abs="0"/>
    </tripinfo>
    <tripinfo id="randUni33724:1" depart="57646.00" departLane="128361102#0_1" departPos="5.10" departSpeed="0.00" departDelay="1.20" arrival="57849.00" arrivalLane="201956811#0_1" arrivalPos="40.40" arrivalSpeed="13.49" duration="203.00" routeLength="2067.33" waitingTime="24.00" waitingCount="2" stopTime="0.00" timeLoss="55.84" rerouteNo="1" devices="tripinfo_randUni33724:1 routing_randUni33724:1 emissions_randUni33724:1" vType="random_016" speedFactor="1.03" vaporized="">
        <emissions CO_abs="9893.423008" CO2_abs="539523.259686" HC_abs="57.754151" PMx_abs="9.797380" NOx_abs="221.129147" fuel_abs="231.919053" electricity_abs="0"/>
    </tripinfo>
    <tripinfo id="randUni15030:1" depart="57735.00" departLane="386687232#0_1" departPos="5.10" departSpeed="0.00" departDelay="0.10" arrival="57849.00" arrivalLane="26677539_1" arrivalPos="151.98" arrivalSpeed="6.79" duration="114.00" routeLength="919.89" waitingTime="8.00" waitingCount="1" stopTime="0.00" timeLoss="22.33" rerouteNo="1" devices="tripinfo_randUni15030:1 routing_randUni15030:1 emissions_randUni15030:1" vType="random_016" speedFactor="0.91" vaporized="">
        <emissions CO_abs="4470.354450" CO2_abs="226147.429238" HC_abs="25.581441" PMx_abs="3.716831" NOx_abs="91.215725" fuel_abs="97.212324" electricity_abs="0"/>
    </tripinfo>
    <tripinfo id="carIn85747:1" depart="57673.00" departLane="128361109#1_1" departPos="5.10" departSpeed="0.00" departDelay="0.70" arrival="57853.00" arrivalLane="386687235_1" arrivalPos="80.84" arrivalSpeed="15.99" duration="180.00" routeLength="2088.57" waitingTime="28.00" waitingCount="2" stopTime="0.00" timeLoss="50.00" rerouteNo="1" devices="tripinfo_carIn85747:1 routing_carIn85747:1 emissions_carIn85747:1" vType="default_016" speedFactor="1.16" vaporized="">
        <emissions CO_abs="7696.221226" CO2_abs="465301.662189" HC_abs="45.808578" PMx_abs="8.203805" NOx_abs="186.194820" fuel_abs="200.014139" electricity_abs="0"/>
    </tripinfo>
    <tripinfo id="carIn82278:1" depart="57702.00" departLane="-306240162#1_0" departPos="5.10" departSpeed="0.00" departDelay="0.70" arrival="57858.00" arrivalLane="399835085#1_1" arrivalPos="212.23" arrivalSpeed="7.15" duration="156.00" routeLength="1093.26" waitingTime="42.00" waitingCount="2" stopTime="0.00" timeLoss="70.10" rerouteNo="1" devices="tripinfo_carIn82278:1 routing_carIn82278:1 emissions_carIn82278:1" vType="default_016" speedFactor="0.91" vaporized="">
        <emissions CO_abs="11618.126560" CO2_abs="420397.973007" HC_abs="62.755507" PMx_abs="8.272297" NOx_abs="176.773615" fuel_abs="180.714275" electricity_abs="0"/>
    </tripinfo>
    <tripinfo id="carIn12858:1" depart="57661.00" departLane="128361109#1_1" departPos="5.10" departSpeed="0.00" departDelay="0.90" arrival="57860.00" arrivalLane="399835085#1_1" arrivalPos="212.23" arrivalSpeed="7.40" duration="199.00" routeLength="1738.12" waitingTime="51.00" waitingCount="2" stopTime="0.00" timeLoss="85.03" rerouteNo="1" devices="tripinfo_carIn12858:1 routing_carIn12858:1 emissions_carIn12858:1" vType="default_016" speedFactor="1.02" vaporized="">
        <emissions CO_abs="14452.980523" CO2_abs="598230.329499" HC_abs="80.053613" PMx_abs="12.182467" NOx_abs="252.646093" fuel_abs="257.155904" electricity_abs="0"/>
    </tripinfo>
    <tripinfo id="carIn50326:1" depart="57651.00" departLane="128361102#0_1" departPos="5.10" departSpeed="0.00" departDelay="0.30" arrival="57863.00" arrivalLane="18809673#0_1" arrivalPos="473.56" arrivalSpeed="13.09" duration="212.00" routeLength="1591.07" waitingTime="54.00" waitingCount="2" stopTime="0.00" timeLoss="80.46" rerouteNo="1" devices="tripinfo_carIn50326:1 routing_carIn50326:1 emissions_carIn50326:1" vType="default_016" speedFactor="0.99" vaporized="">
        <emissions CO_abs="12046.569673" CO2_abs="454378.252367" HC_abs="65.405985" PMx_abs="8.172831" NOx_abs="186.353347" fuel_abs="195.321917" electricity_abs="0"/>
    </tripinfo>
    <tripinfo id="h5938c1:1" depart="57740.00" departLane="-26677542#0_1" departPos="5.10" departSpeed="0.00" departDelay="0.00" arrival="57866.00" arrivalLane="447569997#1_1" arrivalPos="180.93" arrivalSpeed="7.35" duration="126.00" routeLength="1093.64" waitingTime="11.00" waitingCount="2" stopTime="0.00" timeLoss="31.01" rerouteNo="1" devices="tripinfo_h5938c1:1 routing_h5938c1:1 emissions_h5938c1:1" vType="default_016" speedFactor="1.02" vaporized="">
        <emissions CO_abs="4513.074115" CO2_abs="241335.304818" HC_abs="26.160495" PMx_abs="4.057569" NOx_abs="97.393097" fuel_abs="103.740720" electricity_abs="0"/>
    </tripinfo>
    <tripinfo id="h11737c1:1" depart="57665.00" departLane="272042143_1" departPos="5.10" departSpeed="0.00" departDelay="1.50" arrival="57867.00" arrivalLane="-315358254#1_1" arrivalPos="137.16" arrivalSpeed="13.44" duration="202.00" routeLength="1596.88" waitingTime="71.00" waitingCount="1" stopTime="0.00" timeLoss="90.29" rerouteNo="1" devices="tripinfo_h11737c1:1 routing_h11737c1:1 emissions_h11737c1:1" vType="default_016" speedFactor="1.04" vaporized="">
        <emissions CO_abs="14822.924128" CO2_abs="493390.858094" HC_abs="78.992101" PMx_abs="9.640943" NOx_abs="206.536806" fuel_abs="212.092510" electricity_abs="0"/>
    </tripinfo>
    <tripinfo id="50R_frequency3.17" depart="57674.00" departLane="-18809673#6_1" departPos="12.10" departSpeed="0.00" departDelay="0.70" arrival="57869.00" arrivalLane="201956811#0_1" arrivalPos="40.40" arrivalSpeed="13.63" duration="195.00" routeLength="1954.47" waitingTime="24.00" waitingCount="1" stopTime="0.00" timeLoss="49.80" rerouteNo="1" devices="tripinfo_50R_frequency3.17 routing_50R_frequency3.17 emissions_50R_frequency3.17" vType="bus" speedFactor="1.00" vaporized="">
        <emissions CO_abs="3650.965164" CO2_abs="2146233.468239" HC_abs="782.819125" PMx_abs="388.486784" NOx_abs="17030.662741" fuel_abs="915.302229" electricity_abs="0"/>
    </tripinfo>
    <tripinfo id="carIn126288:1" depart="57674.00" departLane="272042143_1" departPos="5.10" departSpeed="0.00" departDelay="0.00" arrival="57869.00" arrivalLane="-315358254#1_1" arrivalPos="137.16" arrivalSpeed="13.50" duration="195.00" routeLength="1596.88" waitingTime="67.00" waitingCount="1" stopTime="0.00" timeLoss="84.51" rerouteNo="1" devices="tripinfo_carIn126288:1 routing_carIn126288:1 emissions_carIn126288:1" vType="default_016" speedFactor="1.06" vaporized="">
        <emissions CO_abs="14328.794231" CO2_abs="503038.648621" HC_abs="76.929344" PMx_abs="9.535369" NOx_abs="207.941576" fuel_abs="216.239630" electricity_abs="0"/>
    </tripinfo>
    <tripinfo id="h5170c2:1" depart="57631.00" departLane="201201953#4_1" departPos="5.10" departSpeed="0.00" departDelay="0.00" arrival="57873.00" arrivalLane="-266565295#5_1" arrivalPos="172.76" arrivalSpeed="16.04" duration="242.00" routeLength="3097.92" waitingTime="12.00" waitingCount="2" stopTime="0.00" timeLoss="49.93" rerouteNo="1" devices="tripinfo_h5170c2:1 routing_h5170c2:1 emissions_h5170c2:1" vType="default_016" speedFactor="1.19" vaporized="">
        <emissions CO_abs="10033.583909" CO2_abs="735734.434398" HC_abs="62.605333" PMx_abs="12.999276" NOx_abs="294.655283" fuel_abs="316.260209" electricity_abs="0"/>
    </tripinfo>
    <tripinfo id="carIn129809:1" depart="57729.00" departLane="-447569998#1_1" departPos="5.10" departSpeed="0.00" departDelay="1.00" arrival="57883.00" arrivalLane="-315358244_1" arrivalPos="33.95" arrivalSpeed="12.63" duration="154.00" routeLength="706.49" waitingTime="70.00" waitingCount="3" stopTime="0.00" timeLoss="90.43" rerouteNo="1" devices="tripinfo_carIn129809:1 routing_carIn129809:1 emissions_carIn129809:1" vType="default_015" speedFactor="0.95" vaporized="">
        <emissions CO_abs="13074.878664" CO2_abs="336761.450670" HC_abs="67.421577" PMx_abs="7.076077" NOx_abs="145.630286" fuel_abs="144.764309" electricity_abs="0"/>
    </tripinfo>
    <tripinfo id="carIn53503:1" depart="57765.00" departLane="-306240162#1_0" departPos="5.10" departSpeed="0.00" departDelay="4.40" arrival="57884.00" arrivalLane="24634510#6_1" arrivalPos="76.64" arrivalSpeed="14.35" duration="119.00" routeLength="1440.47" waitingTime="0.00" waitingCount="0" stopTime="0.00" timeLoss="23.85" rerouteNo="1" devices="tripinfo_carIn53503:1 routing_carIn53503:1 emissions_carIn53503:1" vType="default_016" speedFactor="1.03" vaporized="">
        <emissions CO_abs="5424.882152" CO2_abs="373883.169484" HC_abs="33.571154" PMx_abs="6.876436" NOx_abs="153.664230" fuel_abs="160.715789" electricity_abs="0"/>
    </tripinfo>
    <tripinfo id="carIn8642:1" depart="57774.00" departLane="-447569998#1_1" departPos="5.10" departSpeed="0.00" departDelay="0.90" arrival="57884.00" arrivalLane="-315358244_2" arrivalPos="33.95" arrivalSpeed="13.14" duration="110.00" routeLength="706.49" waitingTime="30.00" waitingCount="2" stopTime="0.00" timeLoss="47.57" rerouteNo="1" devices="tripinfo_carIn8642:1 routing_carIn8642:1 emissions_carIn8642:1" vType="default_016" speedFactor="0.97" vaporized="">
        <emissions CO_abs="7081.596222" CO2_abs="257554.744828" HC_abs="38.245179" PMx_abs="4.850609" NOx_abs="107.623097" fuel_abs="110.713937" electricity_abs="0"/>
    </tripinfo>
    <tripinfo id="carIn73855:1" depart="57743.00" departLane="386687232#0_1" departPos="5.10" departSpeed="0.00" departDelay="0.50" arrival="57885.00" arrivalLane="-315358244_1" arrivalPos="33.95" arrivalSpeed="13.18" duration="142.00" routeLength="1157.39" waitingTime="29.00" waitingCount="2" stopTime="0.00" timeLoss="55.40" rerouteNo="1" devices="tripinfo_carIn73855:1 routing_carIn73855:1 emissions_carIn73855:1" vType="default_016" speedFactor="0.98" vaporized="">
        <emissions CO_abs="8140.265666" CO2_abs="339314.595494" HC_abs="45.001762" PMx_abs="6.232725" NOx_abs="140.001276" fuel_abs="145.858994" electricity_abs="0"/>
    </tripinfo>