<?xml version="1.0" encoding="UTF-8"?>

<!-- generated on 2021-10-26 14:42:13 by Eclipse SUMO sumo Version 1.10.0
<configuration xmlns:xsi="http://www.w3.org/2001/XMLSchema-instance" xsi:noNamespaceSchemaLocation="http://sumo.dlr.de/xsd/sumoConfiguration.xsd">

    <input>
        <net-file value="/Users/behradkoohy/sumo-scratchpad/RESCO/environments/ingolstadt21/ingolstadt21.net.xml"/>
        <route-files value="/Users/behradkoohy/sumo-scratchpad/RESCO/environments/ingolstadt21/ingolstadt21.rou.xml"/>
    </input>

    <output>
        <tripinfo-output value="/Users/behradkoohy/sumo-scratchpad/RESCO/logs/STOCHASTIC-tr0-ingolstadt21-21-mplight-wait/tripinfo_80.xml"/>
        <tripinfo-output.write-unfinished value="true"/>
    </output>

    <time>
        <begin value="57600"/>
        <end value="61200"/>
    </time>

    <processing>
        <time-to-teleport value="-1"/>
    </processing>

    <report>
        <no-warnings value="true"/>
        <no-step-log value="true"/>
    </report>

    <emissions>
        <device.emissions.probability value="1"/>
    </emissions>

    <traci_server>
        <remote-port value="60539"/>
    </traci_server>

    <random_number>
        <random value="true"/>
    </random_number>

</configuration>
-->

<tripinfos xmlns:xsi="http://www.w3.org/2001/XMLSchema-instance" xsi:noNamespaceSchemaLocation="http://sumo.dlr.de/xsd/tripinfo_file.xsd">
    <tripinfo id="h15454c2:3" depart="57612.00" departLane="24608844_1" departPos="5.10" departSpeed="0.00" departDelay="0.50" arrival="57650.00" arrivalLane="32978638#0_1" arrivalPos="49.29" arrivalSpeed="14.05" duration="38.00" routeLength="354.79" waitingTime="0.00" waitingCount="0" stopTime="0.00" timeLoss="5.12" rerouteNo="1" devices="tripinfo_h15454c2:3 routing_h15454c2:3 emissions_h15454c2:3" vType="default_016" speedFactor="1.06" vaporized="">
        <emissions CO_abs="1784.197912" CO2_abs="99549.671313" HC_abs="10.459640" PMx_abs="1.781654" NOx_abs="41.009427" fuel_abs="42.792311" electricity_abs="0"/>
    </tripinfo>
    <tripinfo id="carIn60260:1" depart="57606.00" departLane="315358254#0_1" departPos="5.10" departSpeed="0.00" departDelay="0.90" arrival="57657.00" arrivalLane="399835085#1_1" arrivalPos="212.23" arrivalSpeed="8.01" duration="51.00" routeLength="430.98" waitingTime="0.00" waitingCount="0" stopTime="0.00" timeLoss="6.93" rerouteNo="1" devices="tripinfo_carIn60260:1 routing_carIn60260:1 emissions_carIn60260:1" vType="default_016" speedFactor="1.04" vaporized="">
        <emissions CO_abs="2200.417265" CO2_abs="112207.688450" HC_abs="12.612439" PMx_abs="1.858341" NOx_abs="45.565979" fuel_abs="48.233830" electricity_abs="0"/>
    </tripinfo>
    <tripinfo id="carIn53971:1" depart="57640.00" departLane="272042143_1" departPos="5.10" departSpeed="0.00" departDelay="0.80" arrival="57692.00" arrivalLane="24634414#1_1" arrivalPos="162.19" arrivalSpeed="8.32" duration="52.00" routeLength="493.04" waitingTime="0.00" waitingCount="0" stopTime="0.00" timeLoss="7.97" rerouteNo="1" devices="tripinfo_carIn53971:1 routing_carIn53971:1 emissions_carIn53971:1" vType="default_016" speedFactor="1.04" vaporized="">
        <emissions CO_abs="2389.295135" CO2_abs="129868.109288" HC_abs="13.919381" PMx_abs="2.313339" NOx_abs="53.613800" fuel_abs="55.825011" electricity_abs="0"/>
    </tripinfo>
    <tripinfo id="h3688c1:1" depart="57625.00" departLane="201201950#1_1" departPos="5.10" departSpeed="0.00" departDelay="0.00" arrival="57725.00" arrivalLane="32978638#0_1" arrivalPos="49.29" arrivalSpeed="12.82" duration="100.00" routeLength="1089.75" waitingTime="2.00" waitingCount="1" stopTime="0.00" timeLoss="16.06" rerouteNo="1" devices="tripinfo_h3688c1:1 routing_h3688c1:1 emissions_h3688c1:1" vType="default_016" speedFactor="0.95" vaporized="">
        <emissions CO_abs="3325.998616" CO2_abs="241993.858118" HC_abs="20.780564" PMx_abs="3.921126" NOx_abs="96.099692" fuel_abs="104.023067" electricity_abs="0"/>
    </tripinfo>
    <tripinfo id="h7800c1:5" depart="57696.00" departLane="-447569998#1_1" departPos="5.10" departSpeed="0.00" departDelay="0.00" arrival="57735.00" arrivalLane="-447569998#1_2" arrivalPos="180.76" arrivalSpeed="3.99" duration="39.00" routeLength="175.66" waitingTime="12.00" waitingCount="1" stopTime="0.00" timeLoss="18.20" rerouteNo="1" devices="tripinfo_h7800c1:5 routing_h7800c1:5 emissions_h7800c1:5" vType="default_016" speedFactor="1.03" vaporized="">
        <emissions CO_abs="2580.112776" CO2_abs="76158.583383" HC_abs="13.512900" PMx_abs="1.463006" NOx_abs="32.306189" fuel_abs="32.738301" electricity_abs="0"/>
    </tripinfo>
    <tripinfo id="h4538c1:1" depart="57701.00" departLane="-10427692#1_1" departPos="5.10" departSpeed="0.00" departDelay="0.00" arrival="57744.00" arrivalLane="-128361102#1_1" arrivalPos="274.68" arrivalSpeed="13.97" duration="43.00" routeLength="440.74" waitingTime="3.00" waitingCount="1" stopTime="0.00" timeLoss="12.98" rerouteNo="1" devices="tripinfo_h4538c1:1 routing_h4538c1:1 emissions_h4538c1:1" vType="default_016" speedFactor="1.05" vaporized="">
        <emissions CO_abs="1950.928205" CO2_abs="126573.632354" HC_abs="11.852922" PMx_abs="2.215438" NOx_abs="51.311856" fuel_abs="54.408656" electricity_abs="0"/>
    </tripinfo>
    <tripinfo id="carIn30817:1" depart="57681.00" departLane="315358244_1" departPos="5.10" departSpeed="0.00" departDelay="0.20" arrival="57749.00" arrivalLane="447569997#1_1" arrivalPos="180.93" arrivalSpeed="8.28" duration="68.00" routeLength="718.04" waitingTime="0.00" waitingCount="0" stopTime="0.00" timeLoss="7.52" rerouteNo="1" devices="tripinfo_carIn30817:1 routing_carIn30817:1 emissions_carIn30817:1" vType="default_016" speedFactor="1.03" vaporized="">
        <emissions CO_abs="2255.919292" CO2_abs="159368.765208" HC_abs="13.927463" PMx_abs="2.466181" NOx_abs="62.433913" fuel_abs="68.506224" electricity_abs="0"/>
    </tripinfo>
    <tripinfo id="h3326c1:2" depart="57656.00" departLane="22716069#0_1" departPos="5.10" departSpeed="0.00" departDelay="0.00" arrival="57764.00" arrivalLane="24634517#13_1" arrivalPos="111.62" arrivalSpeed="13.49" duration="108.00" routeLength="1312.81" waitingTime="0.00" waitingCount="0" stopTime="0.00" timeLoss="15.33" rerouteNo="1" devices="tripinfo_h3326c1:2 routing_h3326c1:2 emissions_h3326c1:2" vType="default_016" speedFactor="1.05" vaporized="">
        <emissions CO_abs="4109.213074" CO2_abs="322343.198394" HC_abs="26.202439" PMx_abs="5.516882" NOx_abs="129.351715" fuel_abs="138.561215" electricity_abs="0"/>
    </tripinfo>
    <tripinfo id="carIn81046:1" depart="57610.00" departLane="124812856#0_1" departPos="5.10" departSpeed="0.00" departDelay="1.50" arrival="57767.00" arrivalLane="-128361102#1_1" arrivalPos="274.68" arrivalSpeed="16.91" duration="157.00" routeLength="2232.46" waitingTime="0.00" waitingCount="0" stopTime="0.00" timeLoss="27.93" rerouteNo="1" devices="tripinfo_carIn81046:1 routing_carIn81046:1 emissions_carIn81046:1" vType="default_016" speedFactor="1.27" vaporized="">
        <emissions CO_abs="6770.390261" CO2_abs="535411.529860" HC_abs="43.380383" PMx_abs="9.799557" NOx_abs="216.815298" fuel_abs="230.149149" electricity_abs="0"/>
    </tripinfo>
    <tripinfo id="carIn80064:1" depart="57603.00" departLane="128361109#1_1" departPos="5.10" departSpeed="0.00" departDelay="0.40" arrival="57772.00" arrivalLane="-315358254#1_1" arrivalPos="137.16" arrivalSpeed="10.23" duration="169.00" routeLength="1587.97" waitingTime="28.00" waitingCount="2" stopTime="0.00" timeLoss="55.89" rerouteNo="1" devices="tripinfo_carIn80064:1 routing_carIn80064:1 emissions_carIn80064:1" vType="default_016" speedFactor="0.79" vaporized="">
        <emissions CO_abs="9483.638606" CO2_abs="447606.318289" HC_abs="53.601608" PMx_abs="8.494084" NOx_abs="185.584588" fuel_abs="192.408235" electricity_abs="0"/>
    </tripinfo>
    <tripinfo id="h317c2:1" depart="57707.00" departLane="-32978638#0_1" departPos="5.10" departSpeed="0.00" departDelay="0.10" arrival="57774.00" arrivalLane="-266565295#5_1" arrivalPos="172.76" arrivalSpeed="14.58" duration="67.00" routeLength="370.53" waitingTime="30.00" waitingCount="1" stopTime="0.00" timeLoss="40.96" rerouteNo="1" devices="tripinfo_h317c2:1 routing_h317c2:1 emissions_h317c2:1" vType="default_016" speedFactor="1.05" vaporized="">
        <emissions CO_abs="6082.682826" CO2_abs="191188.127452" HC_abs="32.206818" PMx_abs="3.948534" NOx_abs="81.903224" fuel_abs="82.185410" electricity_abs="0"/>
    </tripinfo>
    <tripinfo id="h330c1:1" depart="57736.00" departLane="-32978638#0_1" departPos="5.10" departSpeed="0.00" departDelay="0.20" arrival="57780.00" arrivalLane="-266565295#5_1" arrivalPos="172.76" arrivalSpeed="11.16" duration="44.00" routeLength="370.53" waitingTime="2.00" waitingCount="1" stopTime="0.00" timeLoss="12.81" rerouteNo="1" devices="tripinfo_h330c1:1 routing_h330c1:1 emissions_h330c1:1" vType="default_016" speedFactor="0.89" vaporized="">
        <emissions CO_abs="2013.754219" CO2_abs="101442.289719" HC_abs="11.540973" PMx_abs="1.811582" NOx_abs="41.869721" fuel_abs="43.606032" electricity_abs="0"/>
    </tripinfo>
    <tripinfo id="h3568c1:3" depart="57656.00" departLane="266565295#5_1" departPos="5.10" departSpeed="0.00" departDelay="0.80" arrival="57782.00" arrivalLane="-24634415_1" arrivalPos="62.03" arrivalSpeed="14.88" duration="126.00" routeLength="807.40" waitingTime="49.00" waitingCount="1" stopTime="0.00" timeLoss="70.21" rerouteNo="1" devices="tripinfo_h3568c1:3 routing_h3568c1:3 emissions_h3568c1:3" vType="default_016" speedFactor="1.16" vaporized="">
        <emissions CO_abs="12067.220420" CO2_abs="407040.791124" HC_abs="64.528567" PMx_abs="8.478744" NOx_abs="174.687736" fuel_abs="174.972421" electricity_abs="0"/>
    </tripinfo>
    <tripinfo id="carIn22761:1" depart="57616.00" departLane="-306240162#1_0" departPos="5.10" departSpeed="0.00" departDelay="2.10" arrival="57785.00" arrivalLane="399835085#1_1" arrivalPos="212.23" arrivalSpeed="7.70" duration="169.00" routeLength="1093.26" waitingTime="62.00" waitingCount="3" stopTime="0.00" timeLoss="91.27" rerouteNo="1" devices="tripinfo_carIn22761:1 routing_carIn22761:1 emissions_carIn22761:1" vType="default_016" speedFactor="1.01" vaporized="">
        <emissions CO_abs="13731.898209" CO2_abs="466195.666076" HC_abs="73.553601" PMx_abs="9.650923" NOx_abs="199.258871" fuel_abs="200.401077" electricity_abs="0"/>
    </tripinfo>
    <tripinfo id="carIn129809:1" depart="57729.00" departLane="-447569998#1_1" departPos="5.10" departSpeed="0.00" departDelay="1.00" arrival="57786.00" arrivalLane="-315358244_1" arrivalPos="33.95" arrivalSpeed="16.49" duration="57.00" routeLength="706.49" waitingTime="0.00" waitingCount="0" stopTime="0.00" timeLoss="7.24" rerouteNo="1" devices="tripinfo_carIn129809:1 routing_carIn129809:1 emissions_carIn129809:1" vType="default_015" speedFactor="1.21" vaporized="">
        <emissions CO_abs="2091.152594" CO2_abs="155869.520962" HC_abs="13.141076" PMx_abs="2.657590" NOx_abs="62.109076" fuel_abs="67.001619" electricity_abs="0"/>
    </tripinfo>
    <tripinfo id="carIn86816:1" depart="57617.00" departLane="128361102#0_1" departPos="5.10" departSpeed="0.00" departDelay="0.80" arrival="57801.00" arrivalLane="201956811#0_1" arrivalPos="40.40" arrivalSpeed="13.59" duration="184.00" routeLength="2067.33" waitingTime="7.00" waitingCount="2" stopTime="0.00" timeLoss="35.42" rerouteNo="1" devices="tripinfo_carIn86816:1 routing_carIn86816:1 emissions_carIn86816:1" vType="default_016" speedFactor="1.02" vaporized="">
        <emissions CO_abs="6225.346998" CO2_abs="468672.474701" HC_abs="39.335660" PMx_abs="7.898596" NOx_abs="187.523528" fuel_abs="201.462159" electricity_abs="0"/>
    </tripinfo>
    <tripinfo id="carIn102915:1" depart="57643.00" departLane="128361102#0_1" departPos="5.10" departSpeed="0.00" departDelay="0.40" arrival="57803.00" arrivalLane="201956811#0_1" arrivalPos="40.40" arrivalSpeed="15.48" duration="160.00" routeLength="2067.33" waitingTime="2.00" waitingCount="1" stopTime="0.00" timeLoss="33.67" rerouteNo="1" devices="tripinfo_carIn102915:1 routing_carIn102915:1 emissions_carIn102915:1" vType="default_016" speedFactor="1.20" vaporized="">
        <emissions CO_abs="6632.862773" CO2_abs="526619.226846" HC_abs="42.257316" PMx_abs="9.191712" NOx_abs="210.567588" fuel_abs="226.370337" electricity_abs="0"/>
    </tripinfo>
    <tripinfo id="carIn27009:1" depart="57673.00" departLane="-447569998#1_1" departPos="5.10" departSpeed="0.00" departDelay="0.50" arrival="57806.00" arrivalLane="-26677539_1" arrivalPos="152.75" arrivalSpeed="7.90" duration="133.00" routeLength="699.63" waitingTime="30.00" waitingCount="1" stopTime="0.00" timeLoss="45.35" rerouteNo="1" devices="tripinfo_carIn27009:1 routing_carIn27009:1 emissions_carIn27009:1" vType="default_015" speedFactor="0.95" vaporized="">
        <emissions CO_abs="8467.821036" CO2_abs="258222.171943" HC_abs="44.510592" PMx_abs="4.764808" NOx_abs="108.316531" fuel_abs="111.002055" electricity_abs="0"/>
    </tripinfo>
    <tripinfo id="carIn121703:1" depart="57647.00" departLane="386687232#0_1" departPos="5.10" departSpeed="0.00" departDelay="0.30" arrival="57811.00" arrivalLane="-315358244_1" arrivalPos="33.95" arrivalSpeed="15.43" duration="164.00" routeLength="1157.39" waitingTime="70.00" waitingCount="2" stopTime="0.00" timeLoss="89.63" rerouteNo="1" devices="tripinfo_carIn121703:1 routing_carIn121703:1 emissions_carIn121703:1" vType="default_016" speedFactor="1.14" vaporized="">
        <emissions CO_abs="13873.063402" CO2_abs="443830.649356" HC_abs="73.570032" PMx_abs="9.120397" NOx_abs="188.459574" fuel_abs="190.788003" electricity_abs="0"/>
    </tripinfo>
    <tripinfo id="h645c1:1" depart="57622.00" departLane="266565295#5_1" departPos="5.10" departSpeed="0.00" departDelay="0.40" arrival="57814.00" arrivalLane="-315358244_2" arrivalPos="33.95" arrivalSpeed="13.70" duration="192.00" routeLength="1910.83" waitingTime="31.00" waitingCount="3" stopTime="0.00" timeLoss="59.12" rerouteNo="1" devices="tripinfo_h645c1:1 routing_h645c1:1 emissions_h645c1:1" vType="default_016" speedFactor="1.05" vaporized="">
        <emissions CO_abs="9602.251225" CO2_abs="477444.203455" HC_abs="54.849743" PMx_abs="8.678787" NOx_abs="195.219313" fuel_abs="205.234545" electricity_abs="0"/>
    </tripinfo>
    <tripinfo id="carIn81860:1" depart="57712.00" departLane="128361102#0_1" departPos="5.10" departSpeed="0.00" departDelay="0.60" arrival="57814.00" arrivalLane="-24634517#17_1" arrivalPos="6.43" arrivalSpeed="7.59" duration="102.00" routeLength="1229.64" waitingTime="0.00" waitingCount="0" stopTime="0.00" timeLoss="19.84" rerouteNo="1" devices="tripinfo_carIn81860:1 routing_carIn81860:1 emissions_carIn81860:1" vType="default_016" speedFactor="1.09" vaporized="">
        <emissions CO_abs="3947.220502" CO2_abs="284269.208864" HC_abs="24.627568" PMx_abs="5.050767" NOx_abs="115.427103" fuel_abs="122.194857" electricity_abs="0"/>
    </tripinfo>
    <tripinfo id="carIn12858:1" depart="57661.00" departLane="128361109#1_1" departPos="5.10" departSpeed="0.00" departDelay="0.90" arrival="57818.00" arrivalLane="399835085#1_1" arrivalPos="212.23" arrivalSpeed="8.97" duration="157.00" routeLength="1738.12" waitingTime="29.00" waitingCount="2" stopTime="0.00" timeLoss="58.62" rerouteNo="1" devices="tripinfo_carIn12858:1 routing_carIn12858:1 emissions_carIn12858:1" vType="default_016" speedFactor="1.17" vaporized="">
        <emissions CO_abs="10663.244199" CO2_abs="550184.729435" HC_abs="61.650386" PMx_abs="11.197820" NOx_abs="230.223162" fuel_abs="236.500929" electricity_abs="0"/>
    </tripinfo>
    <tripinfo id="h3154c1:1" depart="57658.00" departLane="24634507_1" departPos="5.10" departSpeed="0.00" departDelay="0.00" arrival="57823.00" arrivalLane="-266565295#5_1" arrivalPos="172.76" arrivalSpeed="16.09" duration="165.00" routeLength="1206.22" waitingTime="73.00" waitingCount="1" stopTime="0.00" timeLoss="89.69" rerouteNo="1" devices="tripinfo_h3154c1:1 routing_h3154c1:1 emissions_h3154c1:1" vType="default_016" speedFactor="1.18" vaporized="">
        <emissions CO_abs="15258.815970" CO2_abs="483915.286270" HC_abs="80.724788" PMx_abs="9.923376" NOx_abs="204.989918" fuel_abs="208.019217" electricity_abs="0"/>
    </tripinfo>
    <tripinfo id="carIn107282:1" depart="57749.00" departLane="-447569998#1_1" departPos="5.10" departSpeed="0.00" departDelay="0.00" arrival="57825.00" arrivalLane="315358242#0_1" arrivalPos="165.37" arrivalSpeed="13.87" duration="76.00" routeLength="448.50" waitingTime="27.00" waitingCount="1" stopTime="0.00" timeLoss="36.22" rerouteNo="1" devices="tripinfo_carIn107282:1 routing_carIn107282:1 emissions_carIn107282:1" vType="default_016" speedFactor="1.06" vaporized="">
        <emissions CO_abs="5771.145659" CO2_abs="186925.839492" HC_abs="30.612235" PMx_abs="3.617607" NOx_abs="78.589898" fuel_abs="80.353400" electricity_abs="0"/>
    </tripinfo>
    <tripinfo id="h11737c1:1" depart="57665.00" departLane="272042143_1" departPos="5.10" departSpeed="0.00" departDelay="1.50" arrival="57827.00" arrivalLane="-315358254#1_1" arrivalPos="137.16" arrivalSpeed="13.33" duration="162.00" routeLength="1596.88" waitingTime="23.00" waitingCount="1" stopTime="0.00" timeLoss="43.29" rerouteNo="1" devices="tripinfo_h11737c1:1 routing_h11737c1:1 emissions_h11737c1:1" vType="default_016" speedFactor="0.98" vaporized="">
        <emissions CO_abs="7711.190943" CO2_abs="399262.744132" HC_abs="44.433062" PMx_abs="6.945212" NOx_abs="161.598474" fuel_abs="171.627581" electricity_abs="0"/>
    </tripinfo>
    <tripinfo id="carIn126288:1" depart="57674.00" departLane="272042143_1" departPos="5.10" departSpeed="0.00" departDelay="0.00" arrival="57829.00" arrivalLane="-315358254#1_1" arrivalPos="137.16" arrivalSpeed="14.78" duration="155.00" routeLength="1596.88" waitingTime="22.00" waitingCount="1" stopTime="0.00" timeLoss="47.74" rerouteNo="1" devices="tripinfo_carIn126288:1 routing_carIn126288:1 emissions_carIn126288:1" vType="default_016" speedFactor="1.09" vaporized="">
        <emissions CO_abs="7716.175026" CO2_abs="434677.922184" HC_abs="45.276956" PMx_abs="7.755382" NOx_abs="176.707648" fuel_abs="186.850352" electricity_abs="0"/>
    </tripinfo>
    <tripinfo id="h7181c1:1" depart="57660.00" departLane="315358254#0_1" departPos="5.10" departSpeed="0.00" departDelay="0.10" arrival="57831.00" arrivalLane="306240162#0_0" arrivalPos="220.43" arrivalSpeed="16.46" duration="171.00" routeLength="932.35" waitingTime="102.00" waitingCount="2" stopTime="0.00" timeLoss="120.32" rerouteNo="1" devices="tripinfo_h7181c1:1 routing_h7181c1:1 emissions_h7181c1:1" vType="default_016" speedFactor="1.01" vaporized="">
        <emissions CO_abs="19314.283431" CO2_abs="519195.604545" HC_abs="100.241483" PMx_abs="11.469324" NOx_abs="225.214638" fuel_abs="223.186358" electricity_abs="0"/>
    </tripinfo>
    <tripinfo id="h5979c1:5" depart="57669.00" departLane="399835085#1_1" departPos="5.10" departSpeed="0.00" departDelay="0.00" arrival="57831.00" arrivalLane="-315358254#1_1" arrivalPos="137.16" arrivalSpeed="14.66" duration="162.00" routeLength="659.33" waitingTime="80.00" waitingCount="1" stopTime="0.00" timeLoss="93.25" rerouteNo="1" devices="tripinfo_h5979c1:5 routing_h5979c1:5 emissions_h5979c1:5" vType="default_016" speedFactor="1.07" vaporized="">
        <emissions CO_abs="15722.284347" CO2_abs="370558.669644" HC_abs="80.243689" PMx_abs="7.888158" NOx_abs="161.103617" fuel_abs="159.293752" electricity_abs="0"/>
    </tripinfo>
    <tripinfo id="carIn75660:1" depart="57679.00" departLane="128361109#1_1" departPos="5.10" departSpeed="0.00" departDelay="3.40" arrival="57831.00" arrivalLane="386687235_1" arrivalPos="80.84" arrivalSpeed="15.87" duration="152.00" routeLength="2088.57" waitingTime="1.00" waitingCount="1" stopTime="0.00" timeLoss="21.04" rerouteNo="1" devices="tripinfo_carIn75660:1 routing_carIn75660:1 emissions_carIn75660:1" vType="default_016" speedFactor="1.15" vaporized="">
        <emissions CO_abs="4953.199575" CO2_abs="427655.839917" HC_abs="32.402003" PMx_abs="7.233094" NOx_abs="168.888857" fuel_abs="183.830412" electricity_abs="0"/>
    </tripinfo>
    <tripinfo id="carIn85747:1" depart="57673.00" departLane="128361109#1_1" departPos="5.10" departSpeed="0.00" departDelay="0.70" arrival="57832.00" arrivalLane="386687235_1" arrivalPos="80.84" arrivalSpeed="14.38" duration="159.00" routeLength="2088.57" waitingTime="1.00" waitingCount="1" stopTime="0.00" timeLoss="20.89" rerouteNo="1" devices="tripinfo_carIn85747:1 routing_carIn85747:1 emissions_carIn85747:1" vType="default_016" speedFactor="1.09" vaporized="">
        <emissions CO_abs="4343.087025" CO2_abs="402074.296231" HC_abs="28.961084" PMx_abs="6.410932" NOx_abs="156.334459" fuel_abs="172.834351" electricity_abs="0"/>
    </tripinfo>
    <tripinfo id="randUni15030:1" depart="57735.00" departLane="386687232#0_1" departPos="5.10" departSpeed="0.00" departDelay="0.10" arrival="57843.00" arrivalLane="26677539_1" arrivalPos="151.98" arrivalSpeed="7.57" duration="108.00" routeLength="919.89" waitingTime="4.00" waitingCount="1" stopTime="0.00" timeLoss="20.88" rerouteNo="1" devices="tripinfo_randUni15030:1 routing_randUni15030:1 emissions_randUni15030:1" vType="random_016" speedFactor="0.96" vaporized="">
        <emissions CO_abs="3979.505763" CO2_abs="232425.526179" HC_abs="23.488112" PMx_abs="3.708568" NOx_abs="92.715359" fuel_abs="99.910718" electricity_abs="0"/>
    </tripinfo>
    <tripinfo id="randUni31145:1" depart="57814.00" departLane="10425609#0_1" departPos="5.10" departSpeed="0.00" departDelay="0.30" arrival="57843.00" arrivalLane="201956810_1" arrivalPos="71.65" arrivalSpeed="14.89" duration="29.00" routeLength="255.78" waitingTime="0.00" waitingCount="0" stopTime="0.00" timeLoss="11.68" rerouteNo="1" devices="tripinfo_randUni31145:1 routing_randUni31145:1 emissions_randUni31145:1" vType="random_016" speedFactor="1.16" vaporized="">
        <emissions CO_abs="2244.567826" CO2_abs="118798.422565" HC_abs="12.997004" PMx_abs="2.338303" NOx_abs="50.403209" fuel_abs="51.066313" electricity_abs="0"/>
    </tripinfo>
    <tripinfo id="carIn12365:1" depart="57713.00" departLane="315358244_1" departPos="5.10" departSpeed="0.00" departDelay="0.50" arrival="57848.00" arrivalLane="447569997#1_1" arrivalPos="180.93" arrivalSpeed="6.80" duration="135.00" routeLength="718.04" waitingTime="57.00" waitingCount="1" stopTime="0.00" timeLoss="71.33" rerouteNo="1" devices="tripinfo_carIn12365:1 routing_carIn12365:1 emissions_carIn12365:1" vType="default_016" speedFactor="0.96" vaporized="">
        <emissions CO_abs="11709.454416" CO2_abs="323556.040522" HC_abs="60.860904" PMx_abs="6.519703" NOx_abs="137.845572" fuel_abs="139.087396" electricity_abs="0"/>
    </tripinfo>
    <tripinfo id="randUni2407:1" depart="57820.00" departLane="10425609#0_1" departPos="5.10" departSpeed="0.00" departDelay="0.80" arrival="57848.00" arrivalLane="201956810_1" arrivalPos="71.65" arrivalSpeed="11.44" duration="28.00" routeLength="255.78" waitingTime="0.00" waitingCount="0" stopTime="0.00" timeLoss="6.38" rerouteNo="1" devices="tripinfo_randUni2407:1 routing_randUni2407:1 emissions_randUni2407:1" vType="random_016" speedFactor="0.90" vaporized="">
        <emissions CO_abs="1662.434660" CO2_abs="87206.932898" HC_abs="9.617615" PMx_abs="1.598823" NOx_abs="36.325386" fuel_abs="37.486686" electricity_abs="0"/>
    </tripinfo>
    <tripinfo id="carIn50326:1" depart="57651.00" departLane="128361102#0_1" departPos="5.10" departSpeed="0.00" departDelay="0.30" arrival="57849.00" arrivalLane="18809673#0_1" arrivalPos="473.56" arrivalSpeed="10.04" duration="198.00" routeLength="1591.07" waitingTime="10.00" waitingCount="1" stopTime="0.00" timeLoss="34.15" rerouteNo="1" devices="tripinfo_carIn50326:1 routing_carIn50326:1 emissions_carIn50326:1" vType="default_016" speedFactor="0.79" vaporized="">
        <emissions CO_abs="7520.444700" CO2_abs="373812.105943" HC_abs="42.844623" PMx_abs="5.994703" NOx_abs="150.129086" fuel_abs="160.688153" electricity_abs="0"/>
    </tripinfo>
    <tripinfo id="50R_frequency3.17" depart="57674.00" departLane="-18809673#6_1" departPos="12.10" departSpeed="0.00" departDelay="0.70" arrival="57853.00" arrivalLane="201956811#0_1" arrivalPos="40.40" arrivalSpeed="11.35" duration="179.00" routeLength="1954.47" waitingTime="5.00" waitingCount="1" stopTime="0.00" timeLoss="34.32" rerouteNo="1" devices="tripinfo_50R_frequency3.17 routing_50R_frequency3.17 emissions_50R_frequency3.17" vType="bus" speedFactor="1.00" vaporized="">
        <emissions CO_abs="3400.459740" CO2_abs="2122260.125058" HC_abs="721.211730" PMx_abs="364.585411" NOx_abs="16485.166927" fuel_abs="905.121537" electricity_abs="0"/>
    </tripinfo>
    <tripinfo id="h17600c1:1" depart="57662.00" departLane="272042143_1" departPos="5.10" departSpeed="0.00" departDelay="0.30" arrival="57859.00" arrivalLane="201238729#3_1" arrivalPos="431.02" arrivalSpeed="11.13" duration="197.00" routeLength="2100.26" waitingTime="0.00" waitingCount="0" stopTime="0.00" timeLoss="14.42" rerouteNo="1" devices="tripinfo_h17600c1:1 routing_h17600c1:1 emissions_h17600c1:1" vType="default_016" speedFactor="0.83" vaporized="">
        <emissions CO_abs="4668.802092" CO2_abs="390181.247357" HC_abs="30.183067" PMx_abs="5.327598" NOx_abs="148.788076" fuel_abs="167.723546" electricity_abs="0"/>
    </tripinfo>
    <tripinfo id="h17890c1:3" depart="57792.00" departLane="386687232#0_1" departPos="5.10" departSpeed="0.00" departDelay="0.00" arrival="57861.00" arrivalLane="32978638#0_1" arrivalPos="49.29" arrivalSpeed="12.46" duration="69.00" routeLength="792.72" waitingTime="0.00" waitingCount="0" stopTime="0.00" timeLoss="8.72" rerouteNo="1" devices="tripinfo_h17890c1:3 routing_h17890c1:3 emissions_h17890c1:3" vType="default_016" speedFactor="0.98" vaporized="">
        <emissions CO_abs="2601.883174" CO2_abs="192940.355490" HC_abs="16.378591" PMx_abs="3.286795" NOx_abs="77.699104" fuel_abs="82.936721" electricity_abs="0"/>
    </tripinfo>
    <tripinfo id="h17549c1:1" depart="57680.00" departLane="-447569998#1_1" departPos="5.10" departSpeed="0.00" departDelay="0.00" arrival="57863.00" arrivalLane="-315358254#1_1" arrivalPos="137.16" arrivalSpeed="14.17" duration="183.00" routeLength="1746.60" waitingTime="29.00" waitingCount="2" stopTime="0.00" timeLoss="50.67" rerouteNo="1" devices="tripinfo_h17549c1:1 routing_h17549c1:1 emissions_h17549c1:1" vType="default_016" speedFactor="1.04" vaporized="">
        <emissions CO_abs="8735.636887" CO2_abs="430366.030143" HC_abs="49.810391" PMx_abs="7.598209" NOx_abs="174.770415" fuel_abs="184.997880" electricity_abs="0"/>
    </tripinfo>
    <tripinfo id="carIn8642:1" depart="57774.00" departLane="-447569998#1_1" departPos="5.10" departSpeed="0.00" departDelay="0.90" arrival="57873.00" arrivalLane="-315358244_1" arrivalPos="33.95" arrivalSpeed="13.60" duration="99.00" routeLength="706.49" waitingTime="25.00" waitingCount="2" stopTime="0.00" timeLoss="39.79" rerouteNo="1" devices="tripinfo_carIn8642:1 routing_carIn8642:1 emissions_carIn8642:1" vType="default_016" speedFactor="1.03" vaporized="">
        <emissions CO_abs="6101.514935" CO2_abs="231871.410582" HC_abs="33.209885" PMx_abs="4.374441" NOx_abs="96.741888" fuel_abs="99.673331" electricity_abs="0"/>
    </tripinfo>
    <tripinfo id="carIn73855:1" depart="57743.00" departLane="386687232#0_1" departPos="5.10" departSpeed="0.00" departDelay="0.50" arrival="57875.00" arrivalLane="-315358244_1" arrivalPos="33.95" arrivalSpeed="13.40" duration="132.00" routeLength="1157.39" waitingTime="33.00" waitingCount="1" stopTime="0.00" timeLoss="51.01" rerouteNo="1" devices="tripinfo_carIn73855:1 routing_carIn73855:1 emissions_carIn73855:1" vType="default_016" speedFactor="1.05" vaporized="">
        <emissions CO_abs="8264.015298" CO2_abs="349163.928566" HC_abs="45.733052" PMx_abs="6.425242" NOx_abs="143.296989" fuel_abs="150.092822" electricity_abs="0"/>
    </tripinfo>
    <tripinfo id="carIn126378:1" depart="57746.00" departLane="386687232#0_1" departPos="5.10" departSpeed="0.00" departDelay="1.80" arrival="57877.00" arrivalLane="-315358244_1" arrivalPos="33.95" arrivalSpeed="13.14" duration="131.00" routeLength="1157.39" waitingTime="27.00" waitingCount="1" stopTime="0.00" timeLoss="46.61" rerouteNo="1" devices="tripinfo_carIn126378:1 routing_carIn126378:1 emissions_carIn126378:1" vType="default_016" speedFactor="1.00" vaporized="">
        <emissions CO_abs="6665.498434" CO2_abs="300712.437966" HC_abs="37.387666" PMx_abs="5.421242" NOx_abs="123.076513" fuel_abs="129.265054" electricity_abs="0"/>
    </tripinfo>
    <tripinfo id="h3536c1:1" depart="57767.00" departLane="-24634413#2_1" departPos="5.10" departSpeed="0.00" departDelay="0.00" arrival="57880.00" arrivalLane="32978638#0_1" arrivalPos="49.29" arrivalSpeed="14.05" duration="113.00" routeLength="953.61" waitingTime="5.00" waitingCount="1" stopTime="0.00" timeLoss="25.85" rerouteNo="1" devices="tripinfo_h3536c1:1 routing_h3536c1:1 emissions_h3536c1:1" vType="default_016" speedFactor="1.03" vaporized="">
        <emissions CO_abs="5336.955043" CO2_abs="291931.962371" HC_abs="31.083585" PMx_abs="5.192622" NOx_abs="120.261590" fuel_abs="125.489654" electricity_abs="0"/>
    </tripinfo>
    <tripinfo id="carIn28951:1" depart="57606.00" departLane="10425609#0_1" departPos="5.10" departSpeed="0.00" departDelay="0.20" arrival="57881.00" arrivalLane="-128361102#1_1" arrivalPos="274.68" arrivalSpeed="11.03" duration="275.00" routeLength="2113.04" waitingTime="64.00" waitingCount="3" stopTime="0.00" timeLoss="98.08" rerouteNo="1" devices="tripinfo_carIn28951:1 routing_carIn28951:1 emissions_carIn28951:1" vType="default_016" speedFactor="0.88" vaporized="">
        <emissions CO_abs="15289.734703" CO2_abs="597693.421009" HC_abs="83.543303" PMx_abs="10.857775" NOx_abs="246.630872" fuel_abs="256.927563" electricity_abs="0"/>
    </tripinfo>