<?xml version="1.0" encoding="UTF-8"?>

<!-- generated on 2021-10-26 14:29:19 by Eclipse SUMO sumo Version 1.10.0
<configuration xmlns:xsi="http://www.w3.org/2001/XMLSchema-instance" xsi:noNamespaceSchemaLocation="http://sumo.dlr.de/xsd/sumoConfiguration.xsd">

    <input>
        <net-file value="/Users/behradkoohy/sumo-scratchpad/RESCO/environments/ingolstadt21/ingolstadt21.net.xml"/>
        <route-files value="/Users/behradkoohy/sumo-scratchpad/RESCO/environments/ingolstadt21/ingolstadt21.rou.xml"/>
    </input>

    <output>
        <tripinfo-output value="/Users/behradkoohy/sumo-scratchpad/RESCO/logs/STOCHASTIC-tr0-ingolstadt21-21-mplight-wait/tripinfo_58.xml"/>
        <tripinfo-output.write-unfinished value="true"/>
    </output>

    <time>
        <begin value="57600"/>
        <end value="61200"/>
    </time>

    <processing>
        <time-to-teleport value="-1"/>
    </processing>

    <report>
        <no-warnings value="true"/>
        <no-step-log value="true"/>
    </report>

    <emissions>
        <device.emissions.probability value="1"/>
    </emissions>

    <traci_server>
        <remote-port value="60339"/>
    </traci_server>

    <random_number>
        <random value="true"/>
    </random_number>

</configuration>
-->

<tripinfos xmlns:xsi="http://www.w3.org/2001/XMLSchema-instance" xsi:noNamespaceSchemaLocation="http://sumo.dlr.de/xsd/tripinfo_file.xsd">
    <tripinfo id="h15454c2:3" depart="57612.00" departLane="24608844_1" departPos="5.10" departSpeed="0.00" departDelay="0.50" arrival="57652.00" arrivalLane="32978638#0_1" arrivalPos="49.29" arrivalSpeed="14.08" duration="40.00" routeLength="354.79" waitingTime="0.00" waitingCount="0" stopTime="0.00" timeLoss="7.20" rerouteNo="1" devices="tripinfo_h15454c2:3 routing_h15454c2:3 emissions_h15454c2:3" vType="default_016" speedFactor="1.04" vaporized="">
        <emissions CO_abs="2104.402372" CO2_abs="114895.179106" HC_abs="12.260637" PMx_abs="2.035180" NOx_abs="47.350942" fuel_abs="49.388766" electricity_abs="0"/>
    </tripinfo>
    <tripinfo id="carIn60260:1" depart="57606.00" departLane="315358254#0_1" departPos="5.10" departSpeed="0.00" departDelay="0.90" arrival="57657.00" arrivalLane="399835085#1_1" arrivalPos="212.23" arrivalSpeed="8.60" duration="51.00" routeLength="430.98" waitingTime="0.00" waitingCount="0" stopTime="0.00" timeLoss="7.35" rerouteNo="1" devices="tripinfo_carIn60260:1 routing_carIn60260:1 emissions_carIn60260:1" vType="default_016" speedFactor="1.05" vaporized="">
        <emissions CO_abs="2122.397059" CO2_abs="112185.976625" HC_abs="12.263437" PMx_abs="1.874265" NOx_abs="45.579688" fuel_abs="48.224415" electricity_abs="0"/>
    </tripinfo>
    <tripinfo id="carIn53971:1" depart="57640.00" departLane="272042143_1" departPos="5.10" departSpeed="0.00" departDelay="0.80" arrival="57703.00" arrivalLane="24634414#1_1" arrivalPos="162.19" arrivalSpeed="7.07" duration="63.00" routeLength="493.04" waitingTime="0.00" waitingCount="0" stopTime="0.00" timeLoss="10.17" rerouteNo="1" devices="tripinfo_carIn53971:1 routing_carIn53971:1 emissions_carIn53971:1" vType="default_016" speedFactor="0.87" vaporized="">
        <emissions CO_abs="2763.710377" CO2_abs="141379.105352" HC_abs="15.856591" PMx_abs="2.361233" NOx_abs="57.471149" fuel_abs="60.773486" electricity_abs="0"/>
    </tripinfo>
    <tripinfo id="h3688c1:1" depart="57625.00" departLane="201201950#1_1" departPos="5.10" departSpeed="0.00" departDelay="0.00" arrival="57732.00" arrivalLane="32978638#0_1" arrivalPos="49.29" arrivalSpeed="12.64" duration="107.00" routeLength="1089.75" waitingTime="7.00" waitingCount="1" stopTime="0.00" timeLoss="22.28" rerouteNo="1" devices="tripinfo_h3688c1:1 routing_h3688c1:1 emissions_h3688c1:1" vType="default_016" speedFactor="0.94" vaporized="">
        <emissions CO_abs="3828.042516" CO2_abs="246331.368182" HC_abs="23.184123" PMx_abs="4.146315" NOx_abs="99.172270" fuel_abs="105.887688" electricity_abs="0"/>
    </tripinfo>
    <tripinfo id="carIn22761:1" depart="57616.00" departLane="-306240162#1_0" departPos="5.10" departSpeed="0.00" departDelay="2.10" arrival="57736.00" arrivalLane="399835085#1_1" arrivalPos="212.23" arrivalSpeed="7.35" duration="120.00" routeLength="1093.26" waitingTime="16.00" waitingCount="1" stopTime="0.00" timeLoss="37.43" rerouteNo="1" devices="tripinfo_carIn22761:1 routing_carIn22761:1 emissions_carIn22761:1" vType="default_016" speedFactor="0.95" vaporized="">
        <emissions CO_abs="6911.888901" CO2_abs="337392.593195" HC_abs="39.400924" PMx_abs="6.451399" NOx_abs="140.605379" fuel_abs="145.031411" electricity_abs="0"/>
    </tripinfo>
    <tripinfo id="h317c2:1" depart="57707.00" departLane="-32978638#0_1" departPos="5.10" departSpeed="0.00" departDelay="0.10" arrival="57745.00" arrivalLane="-266565295#5_1" arrivalPos="172.76" arrivalSpeed="13.66" duration="38.00" routeLength="370.53" waitingTime="0.00" waitingCount="0" stopTime="0.00" timeLoss="10.39" rerouteNo="1" devices="tripinfo_h317c2:1 routing_h317c2:1 emissions_h317c2:1" vType="default_016" speedFactor="1.01" vaporized="">
        <emissions CO_abs="2063.406531" CO2_abs="120489.000736" HC_abs="12.227804" PMx_abs="2.152030" NOx_abs="49.376327" fuel_abs="51.793216" electricity_abs="0"/>
    </tripinfo>
    <tripinfo id="h3568c1:3" depart="57656.00" departLane="266565295#5_1" departPos="5.10" departSpeed="0.00" departDelay="0.80" arrival="57753.00" arrivalLane="-24634415_1" arrivalPos="62.03" arrivalSpeed="15.33" duration="97.00" routeLength="807.40" waitingTime="13.00" waitingCount="2" stopTime="0.00" timeLoss="40.32" rerouteNo="1" devices="tripinfo_h3568c1:3 routing_h3568c1:3 emissions_h3568c1:3" vType="default_016" speedFactor="1.14" vaporized="">
        <emissions CO_abs="6174.920088" CO2_abs="321174.008479" HC_abs="35.606262" PMx_abs="6.166219" NOx_abs="134.552786" fuel_abs="138.059245" electricity_abs="0"/>
    </tripinfo>
    <tripinfo id="h7800c1:5" depart="57696.00" departLane="-447569998#1_1" departPos="5.10" departSpeed="0.00" departDelay="0.00" arrival="57755.00" arrivalLane="-447569998#1_2" arrivalPos="180.76" arrivalSpeed="3.01" duration="59.00" routeLength="175.66" waitingTime="28.00" waitingCount="1" stopTime="0.00" timeLoss="33.42" rerouteNo="1" devices="tripinfo_h7800c1:5 routing_h7800c1:5 emissions_h7800c1:5" vType="default_016" speedFactor="0.83" vaporized="">
        <emissions CO_abs="5715.322068" CO2_abs="122228.191089" HC_abs="28.858482" PMx_abs="2.601573" NOx_abs="53.396895" fuel_abs="52.543219" electricity_abs="0"/>
    </tripinfo>
    <tripinfo id="h5979c1:5" depart="57669.00" departLane="399835085#1_1" departPos="5.10" departSpeed="0.00" departDelay="0.00" arrival="57757.00" arrivalLane="-315358254#1_1" arrivalPos="137.16" arrivalSpeed="13.32" duration="88.00" routeLength="659.33" waitingTime="1.00" waitingCount="1" stopTime="0.00" timeLoss="15.08" rerouteNo="1" devices="tripinfo_h5979c1:5 routing_h5979c1:5 emissions_h5979c1:5" vType="default_016" speedFactor="1.00" vaporized="">
        <emissions CO_abs="3593.950021" CO2_abs="170733.103525" HC_abs="20.309081" PMx_abs="2.866397" NOx_abs="69.658786" fuel_abs="73.391830" electricity_abs="0"/>
    </tripinfo>
    <tripinfo id="h4538c1:1" depart="57701.00" departLane="-10427692#1_1" departPos="5.10" departSpeed="0.00" departDelay="0.00" arrival="57763.00" arrivalLane="-128361102#1_1" arrivalPos="274.68" arrivalSpeed="14.81" duration="62.00" routeLength="440.74" waitingTime="23.00" waitingCount="1" stopTime="0.00" timeLoss="33.28" rerouteNo="1" devices="tripinfo_h4538c1:1 routing_h4538c1:1 emissions_h4538c1:1" vType="default_016" speedFactor="1.11" vaporized="">
        <emissions CO_abs="4872.096016" CO2_abs="162154.689204" HC_abs="25.974954" PMx_abs="3.261196" NOx_abs="68.628142" fuel_abs="69.704813" electricity_abs="0"/>
    </tripinfo>
    <tripinfo id="carIn30817:1" depart="57681.00" departLane="315358244_1" departPos="5.10" departSpeed="0.00" departDelay="0.20" arrival="57764.00" arrivalLane="447569997#1_1" arrivalPos="180.93" arrivalSpeed="6.62" duration="83.00" routeLength="718.04" waitingTime="0.00" waitingCount="0" stopTime="0.00" timeLoss="13.26" rerouteNo="1" devices="tripinfo_carIn30817:1 routing_carIn30817:1 emissions_carIn30817:1" vType="default_016" speedFactor="0.88" vaporized="">
        <emissions CO_abs="3437.572556" CO2_abs="187383.665502" HC_abs="19.992523" PMx_abs="3.094875" NOx_abs="75.777077" fuel_abs="80.548970" electricity_abs="0"/>
    </tripinfo>
    <tripinfo id="carIn121703:1" depart="57647.00" departLane="386687232#0_1" departPos="5.10" departSpeed="0.00" departDelay="0.30" arrival="57767.00" arrivalLane="-315358244_1" arrivalPos="33.95" arrivalSpeed="13.38" duration="120.00" routeLength="1157.39" waitingTime="15.00" waitingCount="2" stopTime="0.00" timeLoss="33.45" rerouteNo="1" devices="tripinfo_carIn121703:1 routing_carIn121703:1 emissions_carIn121703:1" vType="default_016" speedFactor="0.97" vaporized="">
        <emissions CO_abs="5272.679307" CO2_abs="287840.369424" HC_abs="30.720611" PMx_abs="4.892795" NOx_abs="115.760885" fuel_abs="123.731351" electricity_abs="0"/>
    </tripinfo>
    <tripinfo id="h3326c1:2" depart="57656.00" departLane="22716069#0_1" departPos="5.10" departSpeed="0.00" departDelay="0.00" arrival="57777.00" arrivalLane="24634517#13_1" arrivalPos="111.62" arrivalSpeed="12.47" duration="121.00" routeLength="1312.81" waitingTime="0.00" waitingCount="0" stopTime="0.00" timeLoss="16.39" rerouteNo="1" devices="tripinfo_h3326c1:2 routing_h3326c1:2 emissions_h3326c1:2" vType="default_016" speedFactor="0.94" vaporized="">
        <emissions CO_abs="4097.857859" CO2_abs="295944.830340" HC_abs="25.569751" PMx_abs="4.875326" NOx_abs="118.343083" fuel_abs="127.214214" electricity_abs="0"/>
    </tripinfo>
    <tripinfo id="carIn107282:1" depart="57749.00" departLane="-447569998#1_1" departPos="5.10" departSpeed="0.00" departDelay="0.00" arrival="57792.00" arrivalLane="315358242#0_1" arrivalPos="165.37" arrivalSpeed="15.62" duration="43.00" routeLength="448.50" waitingTime="0.00" waitingCount="0" stopTime="0.00" timeLoss="6.55" rerouteNo="1" devices="tripinfo_carIn107282:1 routing_carIn107282:1 emissions_carIn107282:1" vType="default_016" speedFactor="1.15" vaporized="">
        <emissions CO_abs="1882.601800" CO2_abs="115439.778155" HC_abs="11.226256" PMx_abs="2.032156" NOx_abs="47.010753" fuel_abs="49.622729" electricity_abs="0"/>
    </tripinfo>
    <tripinfo id="h330c1:1" depart="57736.00" departLane="-32978638#0_1" departPos="5.10" departSpeed="0.00" departDelay="0.20" arrival="57800.00" arrivalLane="-266565295#5_1" arrivalPos="172.76" arrivalSpeed="10.71" duration="64.00" routeLength="370.53" waitingTime="20.00" waitingCount="1" stopTime="0.00" timeLoss="30.15" rerouteNo="1" devices="tripinfo_h330c1:1 routing_h330c1:1 emissions_h330c1:1" vType="default_016" speedFactor="0.82" vaporized="">
        <emissions CO_abs="4690.678551" CO2_abs="147985.667986" HC_abs="24.806942" PMx_abs="2.860675" NOx_abs="62.476875" fuel_abs="63.614359" electricity_abs="0"/>
    </tripinfo>
    <tripinfo id="h7181c1:1" depart="57660.00" departLane="315358254#0_1" departPos="5.10" departSpeed="0.00" departDelay="0.10" arrival="57804.00" arrivalLane="306240162#0_0" arrivalPos="220.43" arrivalSpeed="13.03" duration="144.00" routeLength="932.35" waitingTime="64.00" waitingCount="2" stopTime="0.00" timeLoss="82.15" rerouteNo="1" devices="tripinfo_h7181c1:1 routing_h7181c1:1 emissions_h7181c1:1" vType="default_016" speedFactor="0.84" vaporized="">
        <emissions CO_abs="12445.205414" CO2_abs="373121.658013" HC_abs="65.476400" PMx_abs="7.758198" NOx_abs="159.234501" fuel_abs="160.393087" electricity_abs="0"/>
    </tripinfo>
    <tripinfo id="h3154c1:1" depart="57658.00" departLane="24634507_1" departPos="5.10" departSpeed="0.00" departDelay="0.00" arrival="57805.00" arrivalLane="-266565295#5_1" arrivalPos="172.76" arrivalSpeed="14.25" duration="147.00" routeLength="1206.22" waitingTime="40.00" waitingCount="2" stopTime="0.00" timeLoss="63.52" rerouteNo="1" devices="tripinfo_h3154c1:1 routing_h3154c1:1 emissions_h3154c1:1" vType="default_016" speedFactor="1.07" vaporized="">
        <emissions CO_abs="9521.023542" CO2_abs="431568.048284" HC_abs="53.502564" PMx_abs="8.206686" NOx_abs="179.453203" fuel_abs="185.514294" electricity_abs="0"/>
    </tripinfo>
    <tripinfo id="S5R_frequency1.2" depart="57615.00" departLane="315358250#0_1" departPos="12.10" departSpeed="0.00" departDelay="3.40" arrival="57807.00" arrivalLane="386687235_1" arrivalPos="80.84" arrivalSpeed="13.66" duration="192.00" routeLength="1115.62" waitingTime="85.00" waitingCount="2" stopTime="0.00" timeLoss="110.75" rerouteNo="1" devices="tripinfo_S5R_frequency1.2 routing_S5R_frequency1.2 emissions_S5R_frequency1.2" vType="bus" speedFactor="1.00" vaporized="">
        <emissions CO_abs="3692.574088" CO2_abs="1743734.254315" HC_abs="819.546469" PMx_abs="383.406365" NOx_abs="15066.525039" fuel_abs="743.499646" electricity_abs="0"/>
    </tripinfo>
    <tripinfo id="carIn50326:1" depart="57651.00" departLane="128361102#0_1" departPos="5.10" departSpeed="0.00" departDelay="0.30" arrival="57813.00" arrivalLane="18809673#0_1" arrivalPos="473.56" arrivalSpeed="15.14" duration="162.00" routeLength="1591.07" waitingTime="25.00" waitingCount="2" stopTime="0.00" timeLoss="48.46" rerouteNo="1" devices="tripinfo_carIn50326:1 routing_carIn50326:1 emissions_carIn50326:1" vType="default_016" speedFactor="1.14" vaporized="">
        <emissions CO_abs="7263.444065" CO2_abs="385184.030877" HC_abs="41.908247" PMx_abs="6.723795" NOx_abs="155.321990" fuel_abs="165.575544" electricity_abs="0"/>
    </tripinfo>
    <tripinfo id="carIn86816:1" depart="57617.00" departLane="128361102#0_1" departPos="5.10" departSpeed="0.00" departDelay="0.80" arrival="57816.00" arrivalLane="201956811#0_1" arrivalPos="40.40" arrivalSpeed="15.15" duration="199.00" routeLength="2067.33" waitingTime="42.00" waitingCount="1" stopTime="0.00" timeLoss="66.51" rerouteNo="1" devices="tripinfo_carIn86816:1 routing_carIn86816:1 emissions_carIn86816:1" vType="default_016" speedFactor="1.14" vaporized="">
        <emissions CO_abs="11300.810854" CO2_abs="550690.259923" HC_abs="64.189080" PMx_abs="10.179714" NOx_abs="224.895505" fuel_abs="236.720201" electricity_abs="0"/>
    </tripinfo>
    <tripinfo id="carIn27009:1" depart="57673.00" departLane="-447569998#1_1" departPos="5.10" departSpeed="0.00" departDelay="0.50" arrival="57817.00" arrivalLane="-26677539_1" arrivalPos="152.75" arrivalSpeed="8.23" duration="144.00" routeLength="699.63" waitingTime="54.00" waitingCount="1" stopTime="0.00" timeLoss="69.65" rerouteNo="1" devices="tripinfo_carIn27009:1 routing_carIn27009:1 emissions_carIn27009:1" vType="default_015" speedFactor="1.13" vaporized="">
        <emissions CO_abs="12209.093265" CO2_abs="331065.463748" HC_abs="63.302029" PMx_abs="6.676426" NOx_abs="141.988994" fuel_abs="142.315574" electricity_abs="0"/>
    </tripinfo>
    <tripinfo id="carIn12365:1" depart="57713.00" departLane="315358244_1" departPos="5.10" departSpeed="0.00" departDelay="0.50" arrival="57820.00" arrivalLane="447569997#1_1" arrivalPos="180.93" arrivalSpeed="7.64" duration="107.00" routeLength="718.04" waitingTime="30.00" waitingCount="2" stopTime="0.00" timeLoss="47.03" rerouteNo="1" devices="tripinfo_carIn12365:1 routing_carIn12365:1 emissions_carIn12365:1" vType="default_016" speedFactor="1.03" vaporized="">
        <emissions CO_abs="6976.952414" CO2_abs="255599.047691" HC_abs="37.714063" PMx_abs="4.826514" NOx_abs="106.599795" fuel_abs="109.873214" electricity_abs="0"/>
    </tripinfo>
    <tripinfo id="h9563c2:5" depart="57631.00" departLane="315358244_1" departPos="5.10" departSpeed="0.00" departDelay="0.70" arrival="57823.00" arrivalLane="386687235_1" arrivalPos="80.84" arrivalSpeed="10.62" duration="192.00" routeLength="1186.14" waitingTime="67.00" waitingCount="3" stopTime="0.00" timeLoss="87.71" rerouteNo="1" devices="tripinfo_h9563c2:5 routing_h9563c2:5 emissions_h9563c2:5" vType="default_016" speedFactor="0.83" vaporized="">
        <emissions CO_abs="13122.643437" CO2_abs="414248.854703" HC_abs="69.379915" PMx_abs="7.829768" NOx_abs="173.181017" fuel_abs="178.072807" electricity_abs="0"/>
    </tripinfo>
    <tripinfo id="carIn28951:1" depart="57606.00" departLane="10425609#0_1" departPos="5.10" departSpeed="0.00" departDelay="0.20" arrival="57827.00" arrivalLane="-128361102#1_1" arrivalPos="274.68" arrivalSpeed="12.66" duration="221.00" routeLength="2113.04" waitingTime="31.00" waitingCount="2" stopTime="0.00" timeLoss="63.63" rerouteNo="1" devices="tripinfo_carIn28951:1 routing_carIn28951:1 emissions_carIn28951:1" vType="default_016" speedFactor="0.99" vaporized="">
        <emissions CO_abs="10912.159381" CO2_abs="551586.658880" HC_abs="62.636745" PMx_abs="9.999002" NOx_abs="226.487982" fuel_abs="237.105270" electricity_abs="0"/>
    </tripinfo>
    <tripinfo id="carIn107084:1" depart="57601.00" departLane="124812856#0_1" departPos="5.10" departSpeed="0.00" departDelay="0.70" arrival="57830.00" arrivalLane="-128361102#1_1" arrivalPos="274.68" arrivalSpeed="13.00" duration="229.00" routeLength="2250.49" waitingTime="27.00" waitingCount="2" stopTime="0.00" timeLoss="57.26" rerouteNo="1" devices="tripinfo_carIn107084:1 routing_carIn107084:1 emissions_carIn107084:1" vType="default_016" speedFactor="0.96" vaporized="">
        <emissions CO_abs="9367.757557" CO2_abs="518204.344924" HC_abs="54.763643" PMx_abs="8.903065" NOx_abs="209.399485" fuel_abs="222.755551" electricity_abs="0"/>
    </tripinfo>
    <tripinfo id="carIn82278:1" depart="57702.00" departLane="-306240162#1_0" departPos="5.10" departSpeed="0.00" departDelay="0.70" arrival="57832.00" arrivalLane="399835085#1_1" arrivalPos="212.23" arrivalSpeed="8.77" duration="130.00" routeLength="1093.26" waitingTime="28.00" waitingCount="2" stopTime="0.00" timeLoss="56.67" rerouteNo="1" devices="tripinfo_carIn82278:1 routing_carIn82278:1 emissions_carIn82278:1" vType="default_016" speedFactor="1.07" vaporized="">
        <emissions CO_abs="8634.519270" CO2_abs="405769.719661" HC_abs="48.911343" PMx_abs="7.963279" NOx_abs="169.366095" fuel_abs="174.424044" electricity_abs="0"/>
    </tripinfo>
    <tripinfo id="h12244c1:3" depart="57612.00" departLane="315358244_1" departPos="5.10" departSpeed="0.00" departDelay="0.40" arrival="57835.00" arrivalLane="386687235_1" arrivalPos="80.84" arrivalSpeed="10.92" duration="223.00" routeLength="1186.14" waitingTime="91.00" waitingCount="3" stopTime="0.00" timeLoss="116.21" rerouteNo="1" devices="tripinfo_h12244c1:3 routing_h12244c1:3 emissions_h12244c1:3" vType="default_016" speedFactor="0.81" vaporized="">
        <emissions CO_abs="17118.176691" CO2_abs="470743.561484" HC_abs="88.908736" PMx_abs="9.390666" NOx_abs="200.333561" fuel_abs="202.359237" electricity_abs="0"/>
    </tripinfo>
    <tripinfo id="50R_frequency3.17" depart="57674.00" departLane="-18809673#6_1" departPos="12.10" departSpeed="0.00" departDelay="0.70" arrival="57835.00" arrivalLane="201956811#0_1" arrivalPos="40.40" arrivalSpeed="13.82" duration="161.00" routeLength="1954.47" waitingTime="0.00" waitingCount="0" stopTime="0.00" timeLoss="15.82" rerouteNo="1" devices="tripinfo_50R_frequency3.17 routing_50R_frequency3.17 emissions_50R_frequency3.17" vType="bus" speedFactor="1.00" vaporized="">
        <emissions CO_abs="3018.768254" CO2_abs="1916720.977548" HC_abs="648.677293" PMx_abs="325.067766" NOx_abs="14786.854781" fuel_abs="817.483156" electricity_abs="0"/>
    </tripinfo>
    <tripinfo id="carIn118591:1" depart="57689.00" departLane="315358244_1" departPos="5.10" departSpeed="0.00" departDelay="0.20" arrival="57837.00" arrivalLane="386687235_1" arrivalPos="80.84" arrivalSpeed="12.23" duration="148.00" routeLength="1186.14" waitingTime="30.00" waitingCount="2" stopTime="0.00" timeLoss="51.67" rerouteNo="1" devices="tripinfo_carIn118591:1 routing_carIn118591:1 emissions_carIn118591:1" vType="default_016" speedFactor="0.90" vaporized="">
        <emissions CO_abs="7116.355711" CO2_abs="316716.178852" HC_abs="39.741675" PMx_abs="5.358173" NOx_abs="127.704025" fuel_abs="136.145048" electricity_abs="0"/>
    </tripinfo>
    <tripinfo id="carIn12775:1" depart="57676.00" departLane="10425609#0_1" departPos="5.10" departSpeed="0.00" departDelay="0.60" arrival="57840.00" arrivalLane="18809673#0_1" arrivalPos="473.56" arrivalSpeed="15.34" duration="164.00" routeLength="1959.45" waitingTime="11.00" waitingCount="1" stopTime="0.00" timeLoss="32.53" rerouteNo="1" devices="tripinfo_carIn12775:1 routing_carIn12775:1 emissions_carIn12775:1" vType="default_016" speedFactor="1.11" vaporized="">
        <emissions CO_abs="5472.560772" CO2_abs="401070.901110" HC_abs="34.196521" PMx_abs="6.594840" NOx_abs="158.056651" fuel_abs="172.403643" electricity_abs="0"/>
    </tripinfo>
    <tripinfo id="h9953c2:3" depart="57682.00" departLane="-54169231#2_1" departPos="5.10" departSpeed="0.00" departDelay="0.00" arrival="57843.00" arrivalLane="386687235_2" arrivalPos="80.84" arrivalSpeed="13.17" duration="161.00" routeLength="1535.60" waitingTime="8.00" waitingCount="2" stopTime="0.00" timeLoss="39.28" rerouteNo="1" devices="tripinfo_h9953c2:3 routing_h9953c2:3 emissions_h9953c2:3" vType="default_016" speedFactor="1.03" vaporized="">
        <emissions CO_abs="6519.066700" CO2_abs="413829.276889" HC_abs="39.225529" PMx_abs="6.998917" NOx_abs="166.800610" fuel_abs="177.888129" electricity_abs="0"/>
    </tripinfo>
    <tripinfo id="h16072c2:3" depart="57663.00" departLane="315358254#0_1" departPos="5.10" departSpeed="0.00" departDelay="2.50" arrival="57844.00" arrivalLane="386687235_1" arrivalPos="80.84" arrivalSpeed="12.64" duration="181.00" routeLength="1611.92" waitingTime="37.00" waitingCount="1" stopTime="0.00" timeLoss="59.07" rerouteNo="1" devices="tripinfo_h16072c2:3 routing_h16072c2:3 emissions_h16072c2:3" vType="default_016" speedFactor="0.97" vaporized="">
        <emissions CO_abs="10100.159363" CO2_abs="417058.394738" HC_abs="55.743934" PMx_abs="7.681030" NOx_abs="171.924956" fuel_abs="179.278302" electricity_abs="0"/>
    </tripinfo>
    <tripinfo id="h16437c1:3" depart="57717.00" departLane="315358254#0_1" departPos="5.10" departSpeed="0.00" departDelay="0.80" arrival="57846.00" arrivalLane="386687235_2" arrivalPos="80.84" arrivalSpeed="16.63" duration="129.00" routeLength="1611.92" waitingTime="0.00" waitingCount="0" stopTime="0.00" timeLoss="31.36" rerouteNo="1" devices="tripinfo_h16437c1:3 routing_h16437c1:3 emissions_h16437c1:3" vType="default_016" speedFactor="1.21" vaporized="">
        <emissions CO_abs="4302.164332" CO2_abs="347969.595927" HC_abs="27.701154" PMx_abs="5.927192" NOx_abs="139.201729" fuel_abs="149.576839" electricity_abs="0"/>
    </tripinfo>
    <tripinfo id="carIn12858:1" depart="57661.00" departLane="128361109#1_1" departPos="5.10" departSpeed="0.00" departDelay="0.90" arrival="57849.00" arrivalLane="399835085#1_1" arrivalPos="212.23" arrivalSpeed="8.81" duration="188.00" routeLength="1738.12" waitingTime="45.00" waitingCount="3" stopTime="0.00" timeLoss="84.00" rerouteNo="1" devices="tripinfo_carIn12858:1 routing_carIn12858:1 emissions_carIn12858:1" vType="default_016" speedFactor="1.11" vaporized="">
        <emissions CO_abs="13822.800662" CO2_abs="609921.822749" HC_abs="77.516444" PMx_abs="12.588564" NOx_abs="257.936991" fuel_abs="262.180656" electricity_abs="0"/>
    </tripinfo>
    <tripinfo id="h11737c1:1" depart="57665.00" departLane="272042143_1" departPos="5.10" departSpeed="0.00" departDelay="1.50" arrival="57856.00" arrivalLane="-315358254#1_1" arrivalPos="137.16" arrivalSpeed="14.24" duration="191.00" routeLength="1596.88" waitingTime="59.00" waitingCount="2" stopTime="0.00" timeLoss="81.84" rerouteNo="1" devices="tripinfo_h11737c1:1 routing_h11737c1:1 emissions_h11737c1:1" vType="default_016" speedFactor="1.07" vaporized="">
        <emissions CO_abs="12516.846905" CO2_abs="478571.871704" HC_abs="68.064700" PMx_abs="9.031366" NOx_abs="197.653682" fuel_abs="205.721259" electricity_abs="0"/>
    </tripinfo>
    <tripinfo id="carIn126288:1" depart="57674.00" departLane="272042143_1" departPos="5.10" departSpeed="0.00" departDelay="0.00" arrival="57858.00" arrivalLane="-315358254#1_1" arrivalPos="137.16" arrivalSpeed="14.92" duration="184.00" routeLength="1596.88" waitingTime="54.00" waitingCount="2" stopTime="0.00" timeLoss="82.41" rerouteNo="1" devices="tripinfo_carIn126288:1 routing_carIn126288:1 emissions_carIn126288:1" vType="default_016" speedFactor="1.15" vaporized="">
        <emissions CO_abs="12105.241670" CO2_abs="505145.091541" HC_abs="66.942780" PMx_abs="9.640968" NOx_abs="209.245905" fuel_abs="217.143066" electricity_abs="0"/>
    </tripinfo>
    <tripinfo id="randUni15030:1" depart="57735.00" departLane="386687232#0_1" departPos="5.10" departSpeed="0.00" departDelay="0.10" arrival="57859.00" arrivalLane="26677539_1" arrivalPos="151.98" arrivalSpeed="6.50" duration="124.00" routeLength="919.89" waitingTime="15.00" waitingCount="1" stopTime="0.00" timeLoss="30.89" rerouteNo="1" devices="tripinfo_randUni15030:1 routing_randUni15030:1 emissions_randUni15030:1" vType="random_016" speedFactor="0.89" vaporized="">
        <emissions CO_abs="5746.464266" CO2_abs="248804.875270" HC_abs="31.923021" PMx_abs="4.262639" NOx_abs="101.532171" fuel_abs="106.952350" electricity_abs="0"/>
    </tripinfo>
    <tripinfo id="carIn12152:1" depart="57647.00" departLane="24599188#0.94_1" departPos="5.10" departSpeed="0.00" departDelay="0.50" arrival="57861.00" arrivalLane="-315358254#1_1" arrivalPos="137.16" arrivalSpeed="13.29" duration="214.00" routeLength="2034.31" waitingTime="20.00" waitingCount="4" stopTime="0.00" timeLoss="57.61" rerouteNo="1" devices="tripinfo_carIn12152:1 routing_carIn12152:1 emissions_carIn12152:1" vType="default_016" speedFactor="1.01" vaporized="">
        <emissions CO_abs="7752.459540" CO2_abs="474715.574742" HC_abs="46.309429" PMx_abs="7.906078" NOx_abs="189.922247" fuel_abs="204.061139" electricity_abs="0"/>
    </tripinfo>
    <tripinfo id="h8343c1:5" depart="57679.00" departLane="315358254#0_1" departPos="5.10" departSpeed="0.00" departDelay="0.60" arrival="57872.00" arrivalLane="-24634510#5_1" arrivalPos="236.88" arrivalSpeed="14.14" duration="193.00" routeLength="2056.84" waitingTime="45.00" waitingCount="2" stopTime="0.00" timeLoss="77.26" rerouteNo="1" devices="tripinfo_h8343c1:5 routing_h8343c1:5 emissions_h8343c1:5" vType="default_016" speedFactor="1.08" vaporized="">
        <emissions CO_abs="13741.812537" CO2_abs="656631.928506" HC_abs="78.192174" PMx_abs="13.133845" NOx_abs="273.652171" fuel_abs="282.259231" electricity_abs="0"/>
    </tripinfo>
    <tripinfo id="carIn81860:1" depart="57712.00" departLane="128361102#0_1" departPos="5.10" departSpeed="0.00" departDelay="0.60" arrival="57876.00" arrivalLane="-24634517#17_1" arrivalPos="6.43" arrivalSpeed="7.54" duration="164.00" routeLength="1229.64" waitingTime="54.00" waitingCount="1" stopTime="0.00" timeLoss="75.70" rerouteNo="1" devices="tripinfo_carIn81860:1 routing_carIn81860:1 emissions_carIn81860:1" vType="default_016" speedFactor="1.01" vaporized="">
        <emissions CO_abs="12153.590137" CO2_abs="403746.835146" HC_abs="64.762975" PMx_abs="7.978725" NOx_abs="170.125310" fuel_abs="173.557320" electricity_abs="0"/>
    </tripinfo>
    <tripinfo id="h5938c1:1" depart="57740.00" departLane="-26677542#0_1" departPos="5.10" departSpeed="0.00" departDelay="0.00" arrival="57879.00" arrivalLane="447569997#1_1" arrivalPos="180.93" arrivalSpeed="8.56" duration="139.00" routeLength="1093.64" waitingTime="36.00" waitingCount="1" stopTime="0.00" timeLoss="49.74" rerouteNo="1" devices="tripinfo_h5938c1:1 routing_h5938c1:1 emissions_h5938c1:1" vType="default_016" speedFactor="1.09" vaporized="">
        <emissions CO_abs="8819.879976" CO2_abs="333907.977183" HC_abs="47.916922" PMx_abs="6.184825" NOx_abs="137.934617" fuel_abs="143.535509" electricity_abs="0"/>
    </tripinfo>
    <tripinfo id="carIn80064:1" depart="57603.00" departLane="128361109#1_1" departPos="5.10" departSpeed="0.00" departDelay="0.40" arrival="57881.00" arrivalLane="-315358254#1_1" arrivalPos="137.16" arrivalSpeed="13.40" duration="278.00" routeLength="1587.97" waitingTime="137.00" waitingCount="5" stopTime="0.00" timeLoss="190.51" rerouteNo="1" devices="tripinfo_carIn80064:1 routing_carIn80064:1 emissions_carIn80064:1" vType="default_016" speedFactor="1.03" vaporized="">
        <emissions CO_abs="27027.905071" CO2_abs="816136.438531" HC_abs="142.489168" PMx_abs="17.680830" NOx_abs="352.204105" fuel_abs="350.829815" electricity_abs="0"/>
    </tripinfo>
    <tripinfo id="carIn46110:1" depart="57684.00" departLane="315358244_1" departPos="5.10" departSpeed="0.00" departDelay="1.20" arrival="57895.00" arrivalLane="32978638#0_1" arrivalPos="49.29" arrivalSpeed="11.00" duration="211.00" routeLength="1764.04" waitingTime="39.00" waitingCount="2" stopTime="0.00" timeLoss="62.65" rerouteNo="1" devices="tripinfo_carIn46110:1 routing_carIn46110:1 emissions_carIn46110:1" vType="default_016" speedFactor="0.86" vaporized="">
        <emissions CO_abs="10545.559284" CO2_abs="481506.150837" HC_abs="59.149879" PMx_abs="7.981121" NOx_abs="193.143094" fuel_abs="206.982423" electricity_abs="0"/>
    </tripinfo>
    <tripinfo id="h6541c1:3" depart="57727.00" departLane="201950247#3_1" departPos="5.10" departSpeed="0.00" departDelay="0.00" arrival="57897.00" arrivalLane="32978638#0_1" arrivalPos="49.29" arrivalSpeed="13.48" duration="170.00" routeLength="1176.17" waitingTime="33.00" waitingCount="2" stopTime="0.00" timeLoss="65.27" rerouteNo="1" devices="tripinfo_h6541c1:3 routing_h6541c1:3 emissions_h6541c1:3" vType="default_016" speedFactor="0.99" vaporized="">
        <emissions CO_abs="10438.758127" CO2_abs="405854.412615" HC_abs="56.994389" PMx_abs="7.489597" NOx_abs="169.051364" fuel_abs="174.462446" electricity_abs="0"/>
    </tripinfo>