<?xml version="1.0" encoding="UTF-8"?>

<!-- generated on 2021-10-26 14:53:15 by Eclipse SUMO sumo Version 1.10.0
<configuration xmlns:xsi="http://www.w3.org/2001/XMLSchema-instance" xsi:noNamespaceSchemaLocation="http://sumo.dlr.de/xsd/sumoConfiguration.xsd">

    <input>
        <net-file value="/Users/behradkoohy/sumo-scratchpad/RESCO/environments/ingolstadt21/ingolstadt21.net.xml"/>
        <route-files value="/Users/behradkoohy/sumo-scratchpad/RESCO/environments/ingolstadt21/ingolstadt21.rou.xml"/>
    </input>

    <output>
        <tripinfo-output value="/Users/behradkoohy/sumo-scratchpad/RESCO/logs/STOCHASTIC-tr0-ingolstadt21-21-mplight-wait/tripinfo_98.xml"/>
        <tripinfo-output.write-unfinished value="true"/>
    </output>

    <time>
        <begin value="57600"/>
        <end value="61200"/>
    </time>

    <processing>
        <time-to-teleport value="-1"/>
    </processing>

    <report>
        <no-warnings value="true"/>
        <no-step-log value="true"/>
    </report>

    <emissions>
        <device.emissions.probability value="1"/>
    </emissions>

    <traci_server>
        <remote-port value="60778"/>
    </traci_server>

    <random_number>
        <random value="true"/>
    </random_number>

</configuration>
-->

<tripinfos xmlns:xsi="http://www.w3.org/2001/XMLSchema-instance" xsi:noNamespaceSchemaLocation="http://sumo.dlr.de/xsd/tripinfo_file.xsd">
    <tripinfo id="h15454c2:3" depart="57612.00" departLane="24608844_1" departPos="5.10" departSpeed="0.00" departDelay="0.50" arrival="57652.00" arrivalLane="32978638#0_1" arrivalPos="49.29" arrivalSpeed="13.16" duration="40.00" routeLength="354.79" waitingTime="0.00" waitingCount="0" stopTime="0.00" timeLoss="4.89" rerouteNo="1" devices="tripinfo_h15454c2:3 routing_h15454c2:3 emissions_h15454c2:3" vType="default_016" speedFactor="0.98" vaporized="">
        <emissions CO_abs="1840.287717" CO2_abs="103020.107234" HC_abs="10.751262" PMx_abs="1.611863" NOx_abs="40.982921" fuel_abs="44.284453" electricity_abs="0"/>
    </tripinfo>
    <tripinfo id="carIn53971:1" depart="57640.00" departLane="272042143_1" departPos="5.10" departSpeed="0.00" departDelay="0.80" arrival="57691.00" arrivalLane="24634414#1_1" arrivalPos="162.19" arrivalSpeed="9.09" duration="51.00" routeLength="493.04" waitingTime="0.00" waitingCount="0" stopTime="0.00" timeLoss="9.17" rerouteNo="1" devices="tripinfo_carIn53971:1 routing_carIn53971:1 emissions_carIn53971:1" vType="default_016" speedFactor="1.10" vaporized="">
        <emissions CO_abs="2630.850388" CO2_abs="160413.974661" HC_abs="15.752595" PMx_abs="2.871185" NOx_abs="65.924005" fuel_abs="68.955179" electricity_abs="0"/>
    </tripinfo>
    <tripinfo id="h3688c1:1" depart="57625.00" departLane="201201950#1_1" departPos="5.10" departSpeed="0.00" departDelay="0.00" arrival="57714.00" arrivalLane="32978638#0_1" arrivalPos="49.29" arrivalSpeed="13.65" duration="89.00" routeLength="1089.75" waitingTime="0.00" waitingCount="0" stopTime="0.00" timeLoss="9.75" rerouteNo="1" devices="tripinfo_h3688c1:1 routing_h3688c1:1 emissions_h3688c1:1" vType="default_016" speedFactor="1.01" vaporized="">
        <emissions CO_abs="2964.317732" CO2_abs="250730.298735" HC_abs="19.332039" PMx_abs="4.087216" NOx_abs="99.077986" fuel_abs="107.778110" electricity_abs="0"/>
    </tripinfo>
    <tripinfo id="carIn80064:1" depart="57603.00" departLane="128361109#1_1" departPos="5.10" departSpeed="0.00" departDelay="0.40" arrival="57715.00" arrivalLane="-315358254#1_1" arrivalPos="137.16" arrivalSpeed="16.22" duration="112.00" routeLength="1587.97" waitingTime="1.00" waitingCount="1" stopTime="0.00" timeLoss="35.35" rerouteNo="1" devices="tripinfo_carIn80064:1 routing_carIn80064:1 emissions_carIn80064:1" vType="default_016" speedFactor="1.17" vaporized="">
        <emissions CO_abs="8064.289808" CO2_abs="544288.358496" HC_abs="49.773384" PMx_abs="10.979973" NOx_abs="226.516481" fuel_abs="233.964424" electricity_abs="0"/>
    </tripinfo>
    <tripinfo id="h7800c1:5" depart="57696.00" departLane="-447569998#1_1" departPos="5.10" departSpeed="0.00" departDelay="0.00" arrival="57719.00" arrivalLane="-447569998#1_2" arrivalPos="180.76" arrivalSpeed="9.31" duration="23.00" routeLength="175.66" waitingTime="0.00" waitingCount="0" stopTime="0.00" timeLoss="3.43" rerouteNo="1" devices="tripinfo_h7800c1:5 routing_h7800c1:5 emissions_h7800c1:5" vType="default_016" speedFactor="1.12" vaporized="">
        <emissions CO_abs="1191.901858" CO2_abs="56608.331672" HC_abs="6.740851" PMx_abs="0.982889" NOx_abs="23.333971" fuel_abs="24.333770" electricity_abs="0"/>
    </tripinfo>
    <tripinfo id="carIn60260:1" depart="57606.00" departLane="315358254#0_1" departPos="5.10" departSpeed="0.00" departDelay="0.90" arrival="57729.00" arrivalLane="399835085#1_1" arrivalPos="212.23" arrivalSpeed="8.47" duration="123.00" routeLength="430.98" waitingTime="71.00" waitingCount="1" stopTime="0.00" timeLoss="80.91" rerouteNo="1" devices="tripinfo_carIn60260:1 routing_carIn60260:1 emissions_carIn60260:1" vType="default_016" speedFactor="1.10" vaporized="">
        <emissions CO_abs="12990.464100" CO2_abs="296267.428467" HC_abs="66.091616" PMx_abs="6.483370" NOx_abs="129.900890" fuel_abs="127.357930" electricity_abs="0"/>
    </tripinfo>
    <tripinfo id="h3568c1:3" depart="57656.00" departLane="266565295#5_1" departPos="5.10" departSpeed="0.00" departDelay="0.80" arrival="57733.00" arrivalLane="-24634415_1" arrivalPos="62.03" arrivalSpeed="15.31" duration="77.00" routeLength="807.40" waitingTime="0.00" waitingCount="0" stopTime="0.00" timeLoss="19.36" rerouteNo="1" devices="tripinfo_h3568c1:3 routing_h3568c1:3 emissions_h3568c1:3" vType="default_016" speedFactor="1.12" vaporized="">
        <emissions CO_abs="4166.437322" CO2_abs="266030.505052" HC_abs="25.237924" PMx_abs="4.940335" NOx_abs="110.004819" fuel_abs="114.354857" electricity_abs="0"/>
    </tripinfo>
    <tripinfo id="h9563c2:5" depart="57631.00" departLane="315358244_1" departPos="5.10" departSpeed="0.00" departDelay="0.70" arrival="57746.00" arrivalLane="386687235_1" arrivalPos="80.84" arrivalSpeed="13.16" duration="115.00" routeLength="1186.14" waitingTime="5.00" waitingCount="3" stopTime="0.00" timeLoss="25.72" rerouteNo="1" devices="tripinfo_h9563c2:5 routing_h9563c2:5 emissions_h9563c2:5" vType="default_016" speedFactor="0.97" vaporized="">
        <emissions CO_abs="4012.241914" CO2_abs="277558.807511" HC_abs="24.691404" PMx_abs="4.415970" NOx_abs="109.607362" fuel_abs="119.311254" electricity_abs="0"/>
    </tripinfo>
    <tripinfo id="h12244c1:3" depart="57612.00" departLane="315358244_1" departPos="5.10" departSpeed="0.00" departDelay="0.40" arrival="57749.00" arrivalLane="386687235_1" arrivalPos="80.84" arrivalSpeed="11.20" duration="137.00" routeLength="1186.14" waitingTime="9.00" waitingCount="2" stopTime="0.00" timeLoss="37.92" rerouteNo="1" devices="tripinfo_h12244c1:3 routing_h12244c1:3 emissions_h12244c1:3" vType="default_016" speedFactor="0.88" vaporized="">
        <emissions CO_abs="5900.988528" CO2_abs="327773.155626" HC_abs="34.494951" PMx_abs="5.522466" NOx_abs="132.617430" fuel_abs="140.896770" electricity_abs="0"/>
    </tripinfo>
    <tripinfo id="carIn22761:1" depart="57616.00" departLane="-306240162#1_0" departPos="5.10" departSpeed="0.00" departDelay="2.10" arrival="57752.00" arrivalLane="399835085#1_1" arrivalPos="212.23" arrivalSpeed="8.18" duration="136.00" routeLength="1093.26" waitingTime="29.00" waitingCount="2" stopTime="0.00" timeLoss="62.86" rerouteNo="1" devices="tripinfo_carIn22761:1 routing_carIn22761:1 emissions_carIn22761:1" vType="default_016" speedFactor="1.07" vaporized="">
        <emissions CO_abs="8890.896983" CO2_abs="377474.697132" HC_abs="49.411249" PMx_abs="7.494453" NOx_abs="159.170725" fuel_abs="162.261652" electricity_abs="0"/>
    </tripinfo>
    <tripinfo id="S5R_frequency1.2" depart="57624.00" departLane="315358250#0_1" departPos="12.10" departSpeed="0.00" departDelay="12.40" arrival="57756.00" arrivalLane="386687235_1" arrivalPos="80.84" arrivalSpeed="13.78" duration="132.00" routeLength="1115.62" waitingTime="14.00" waitingCount="2" stopTime="0.00" timeLoss="50.49" rerouteNo="1" devices="tripinfo_S5R_frequency1.2 routing_S5R_frequency1.2 emissions_S5R_frequency1.2" vType="bus" speedFactor="1.00" vaporized="">
        <emissions CO_abs="2767.763308" CO2_abs="1674788.375262" HC_abs="573.074642" PMx_abs="294.461414" NOx_abs="13173.571097" fuel_abs="714.243900" electricity_abs="0"/>
    </tripinfo>
    <tripinfo id="h3154c1:1" depart="57658.00" departLane="24634507_1" departPos="5.10" departSpeed="0.00" departDelay="0.00" arrival="57758.00" arrivalLane="-266565295#5_1" arrivalPos="172.76" arrivalSpeed="14.14" duration="100.00" routeLength="1206.22" waitingTime="0.00" waitingCount="0" stopTime="0.00" timeLoss="17.77" rerouteNo="1" devices="tripinfo_h3154c1:1 routing_h3154c1:1 emissions_h3154c1:1" vType="default_016" speedFactor="1.08" vaporized="">
        <emissions CO_abs="4136.615234" CO2_abs="314505.969970" HC_abs="26.188920" PMx_abs="5.443999" NOx_abs="126.508407" fuel_abs="135.192365" electricity_abs="0"/>
    </tripinfo>
    <tripinfo id="h3326c1:2" depart="57656.00" departLane="22716069#0_1" departPos="5.10" departSpeed="0.00" departDelay="0.00" arrival="57760.00" arrivalLane="24634517#13_1" arrivalPos="111.62" arrivalSpeed="15.01" duration="104.00" routeLength="1312.81" waitingTime="0.00" waitingCount="0" stopTime="0.00" timeLoss="14.56" rerouteNo="1" devices="tripinfo_h3326c1:2 routing_h3326c1:2 emissions_h3326c1:2" vType="default_016" speedFactor="1.09" vaporized="">
        <emissions CO_abs="4157.523920" CO2_abs="325891.439385" HC_abs="26.522400" PMx_abs="5.647705" NOx_abs="131.043584" fuel_abs="140.086363" electricity_abs="0"/>
    </tripinfo>
    <tripinfo id="carIn27009:1" depart="57673.00" departLane="-447569998#1_1" departPos="5.10" departSpeed="0.00" departDelay="0.50" arrival="57763.00" arrivalLane="-26677539_1" arrivalPos="152.75" arrivalSpeed="8.29" duration="90.00" routeLength="699.63" waitingTime="0.00" waitingCount="0" stopTime="0.00" timeLoss="10.98" rerouteNo="1" devices="tripinfo_carIn27009:1 routing_carIn27009:1 emissions_carIn27009:1" vType="default_015" speedFactor="1.06" vaporized="">
        <emissions CO_abs="3513.956060" CO2_abs="176067.461162" HC_abs="20.041181" PMx_abs="2.797863" NOx_abs="70.962970" fuel_abs="75.684934" electricity_abs="0"/>
    </tripinfo>
    <tripinfo id="h7181c1:1" depart="57660.00" departLane="315358254#0_1" departPos="5.10" departSpeed="0.00" departDelay="0.10" arrival="57771.00" arrivalLane="306240162#0_0" arrivalPos="220.43" arrivalSpeed="14.65" duration="111.00" routeLength="932.35" waitingTime="40.00" waitingCount="2" stopTime="0.00" timeLoss="55.30" rerouteNo="1" devices="tripinfo_h7181c1:1 routing_h7181c1:1 emissions_h7181c1:1" vType="default_016" speedFactor="0.92" vaporized="">
        <emissions CO_abs="8366.527783" CO2_abs="321486.689992" HC_abs="45.746563" PMx_abs="6.594588" NOx_abs="136.188279" fuel_abs="138.195029" electricity_abs="0"/>
    </tripinfo>
    <tripinfo id="h317c2:1" depart="57707.00" departLane="-32978638#0_1" departPos="5.10" departSpeed="0.00" departDelay="0.10" arrival="57773.00" arrivalLane="-266565295#5_1" arrivalPos="172.76" arrivalSpeed="14.51" duration="66.00" routeLength="370.53" waitingTime="31.00" waitingCount="1" stopTime="0.00" timeLoss="41.46" rerouteNo="1" devices="tripinfo_h317c2:1 routing_h317c2:1 emissions_h317c2:1" vType="default_016" speedFactor="1.13" vaporized="">
        <emissions CO_abs="6611.519842" CO2_abs="198298.433368" HC_abs="34.759176" PMx_abs="4.215823" NOx_abs="85.633990" fuel_abs="85.241971" electricity_abs="0"/>
    </tripinfo>
    <tripinfo id="h645c1:1" depart="57622.00" departLane="266565295#5_1" departPos="5.10" departSpeed="0.00" departDelay="0.40" arrival="57780.00" arrivalLane="-315358244_2" arrivalPos="33.95" arrivalSpeed="14.69" duration="158.00" routeLength="1910.83" waitingTime="9.00" waitingCount="2" stopTime="0.00" timeLoss="31.11" rerouteNo="1" devices="tripinfo_h645c1:1 routing_h645c1:1 emissions_h645c1:1" vType="default_016" speedFactor="1.09" vaporized="">
        <emissions CO_abs="5495.714775" CO2_abs="417020.849314" HC_abs="34.715220" PMx_abs="7.134905" NOx_abs="166.444494" fuel_abs="179.259235" electricity_abs="0"/>
    </tripinfo>
    <tripinfo id="h330c1:1" depart="57736.00" departLane="-32978638#0_1" departPos="5.10" departSpeed="0.00" departDelay="0.20" arrival="57781.00" arrivalLane="-266565295#5_1" arrivalPos="172.76" arrivalSpeed="11.73" duration="45.00" routeLength="370.53" waitingTime="2.00" waitingCount="1" stopTime="0.00" timeLoss="13.02" rerouteNo="1" devices="tripinfo_h330c1:1 routing_h330c1:1 emissions_h330c1:1" vType="default_016" speedFactor="0.88" vaporized="">
        <emissions CO_abs="2137.559935" CO2_abs="116507.662307" HC_abs="12.450269" PMx_abs="2.010763" NOx_abs="47.537744" fuel_abs="50.082007" electricity_abs="0"/>
    </tripinfo>
    <tripinfo id="h4538c1:1" depart="57701.00" departLane="-10427692#1_1" departPos="5.10" departSpeed="0.00" departDelay="0.00" arrival="57782.00" arrivalLane="-128361102#1_1" arrivalPos="274.68" arrivalSpeed="11.15" duration="81.00" routeLength="440.74" waitingTime="33.00" waitingCount="1" stopTime="0.00" timeLoss="43.09" rerouteNo="1" devices="tripinfo_h4538c1:1 routing_h4538c1:1 emissions_h4538c1:1" vType="default_016" speedFactor="0.84" vaporized="">
        <emissions CO_abs="6490.703634" CO2_abs="192446.119779" HC_abs="34.017147" PMx_abs="3.650049" NOx_abs="80.570912" fuel_abs="82.726966" electricity_abs="0"/>
    </tripinfo>
    <tripinfo id="carIn121703:1" depart="57647.00" departLane="386687232#0_1" departPos="5.10" departSpeed="0.00" departDelay="0.30" arrival="57783.00" arrivalLane="-315358244_1" arrivalPos="33.95" arrivalSpeed="14.55" duration="136.00" routeLength="1157.39" waitingTime="43.00" waitingCount="1" stopTime="0.00" timeLoss="57.93" rerouteNo="1" devices="tripinfo_carIn121703:1 routing_carIn121703:1 emissions_carIn121703:1" vType="default_016" speedFactor="1.08" vaporized="">
        <emissions CO_abs="9239.852455" CO2_abs="352653.905164" HC_abs="50.323372" PMx_abs="6.759504" NOx_abs="146.360312" fuel_abs="151.593407" electricity_abs="0"/>
    </tripinfo>
    <tripinfo id="carIn12858:1" depart="57661.00" departLane="128361109#1_1" departPos="5.10" departSpeed="0.00" departDelay="0.90" arrival="57788.00" arrivalLane="399835085#1_1" arrivalPos="212.23" arrivalSpeed="8.31" duration="127.00" routeLength="1738.12" waitingTime="0.00" waitingCount="0" stopTime="0.00" timeLoss="27.04" rerouteNo="1" devices="tripinfo_carIn12858:1 routing_carIn12858:1 emissions_carIn12858:1" vType="default_016" speedFactor="1.15" vaporized="">
        <emissions CO_abs="7673.191828" CO2_abs="514308.218962" HC_abs="47.269133" PMx_abs="10.130832" NOx_abs="212.650258" fuel_abs="221.077754" electricity_abs="0"/>
    </tripinfo>
    <tripinfo id="carIn30817:1" depart="57681.00" departLane="315358244_1" departPos="5.10" departSpeed="0.00" departDelay="0.20" arrival="57802.00" arrivalLane="447569997#1_1" arrivalPos="180.93" arrivalSpeed="6.96" duration="121.00" routeLength="718.04" waitingTime="38.00" waitingCount="1" stopTime="0.00" timeLoss="53.64" rerouteNo="1" devices="tripinfo_carIn30817:1 routing_carIn30817:1 emissions_carIn30817:1" vType="default_016" speedFactor="0.91" vaporized="">
        <emissions CO_abs="9024.712033" CO2_abs="265101.047649" HC_abs="47.282907" PMx_abs="5.284385" NOx_abs="112.923279" fuel_abs="113.958848" electricity_abs="0"/>
    </tripinfo>
    <tripinfo id="carIn12365:1" depart="57713.00" departLane="315358244_1" departPos="5.10" departSpeed="0.00" departDelay="0.50" arrival="57802.00" arrivalLane="447569997#1_2" arrivalPos="180.93" arrivalSpeed="7.41" duration="89.00" routeLength="718.04" waitingTime="9.00" waitingCount="1" stopTime="0.00" timeLoss="29.09" rerouteNo="1" devices="tripinfo_carIn12365:1 routing_carIn12365:1 emissions_carIn12365:1" vType="default_016" speedFactor="1.02" vaporized="">
        <emissions CO_abs="4169.185925" CO2_abs="213231.679027" HC_abs="23.958764" PMx_abs="3.804003" NOx_abs="87.899912" fuel_abs="91.659831" electricity_abs="0"/>
    </tripinfo>
    <tripinfo id="carIn129809:1" depart="57729.00" departLane="-447569998#1_1" departPos="5.10" departSpeed="0.00" departDelay="1.00" arrival="57803.00" arrivalLane="-315358244_1" arrivalPos="33.95" arrivalSpeed="13.30" duration="74.00" routeLength="706.49" waitingTime="0.00" waitingCount="0" stopTime="0.00" timeLoss="11.73" rerouteNo="1" devices="tripinfo_carIn129809:1 routing_carIn129809:1 emissions_carIn129809:1" vType="default_015" speedFactor="0.98" vaporized="">
        <emissions CO_abs="3167.419508" CO2_abs="188601.054022" HC_abs="18.801671" PMx_abs="3.092199" NOx_abs="75.688988" fuel_abs="81.072107" electricity_abs="0"/>
    </tripinfo>
    <tripinfo id="h11737c1:1" depart="57665.00" departLane="272042143_1" departPos="5.10" departSpeed="0.00" departDelay="1.50" arrival="57806.00" arrivalLane="-315358254#1_1" arrivalPos="137.16" arrivalSpeed="15.24" duration="141.00" routeLength="1596.88" waitingTime="13.00" waitingCount="2" stopTime="0.00" timeLoss="38.44" rerouteNo="1" devices="tripinfo_h11737c1:1 routing_h11737c1:1 emissions_h11737c1:1" vType="default_016" speedFactor="1.14" vaporized="">
        <emissions CO_abs="5013.225377" CO2_abs="377126.432195" HC_abs="31.573993" PMx_abs="6.574222" NOx_abs="151.218559" fuel_abs="162.110203" electricity_abs="0"/>
    </tripinfo>
    <tripinfo id="carIn126288:1" depart="57674.00" departLane="272042143_1" departPos="5.10" departSpeed="0.00" departDelay="0.00" arrival="57808.00" arrivalLane="-315358254#1_1" arrivalPos="137.16" arrivalSpeed="14.52" duration="134.00" routeLength="1596.88" waitingTime="3.00" waitingCount="1" stopTime="0.00" timeLoss="25.19" rerouteNo="1" devices="tripinfo_carIn126288:1 routing_carIn126288:1 emissions_carIn126288:1" vType="default_016" speedFactor="1.07" vaporized="">
        <emissions CO_abs="4831.558333" CO2_abs="379825.928285" HC_abs="30.787651" PMx_abs="6.348449" NOx_abs="150.786617" fuel_abs="163.270808" electricity_abs="0"/>
    </tripinfo>
    <tripinfo id="h5979c1:5" depart="57669.00" departLane="399835085#1_1" departPos="5.10" departSpeed="0.00" departDelay="0.00" arrival="57811.00" arrivalLane="-315358254#1_1" arrivalPos="137.16" arrivalSpeed="13.91" duration="142.00" routeLength="659.33" waitingTime="61.00" waitingCount="1" stopTime="0.00" timeLoss="75.21" rerouteNo="1" devices="tripinfo_h5979c1:5 routing_h5979c1:5 emissions_h5979c1:5" vType="default_016" speedFactor="1.09" vaporized="">
        <emissions CO_abs="12172.993453" CO2_abs="312259.751403" HC_abs="62.704847" PMx_abs="6.406979" NOx_abs="134.370455" fuel_abs="134.231958" electricity_abs="0"/>
    </tripinfo>
    <tripinfo id="h16072c2:3" depart="57663.00" departLane="315358254#0_1" departPos="5.10" departSpeed="0.00" departDelay="2.50" arrival="57823.00" arrivalLane="386687235_1" arrivalPos="80.84" arrivalSpeed="15.02" duration="160.00" routeLength="1611.92" waitingTime="23.00" waitingCount="3" stopTime="0.00" timeLoss="51.54" rerouteNo="1" devices="tripinfo_h16072c2:3 routing_h16072c2:3 emissions_h16072c2:3" vType="default_016" speedFactor="1.08" vaporized="">
        <emissions CO_abs="7462.954052" CO2_abs="413454.348614" HC_abs="43.637748" PMx_abs="7.467303" NOx_abs="168.600937" fuel_abs="177.727175" electricity_abs="0"/>
    </tripinfo>
    <tripinfo id="carIn86816:1" depart="57617.00" departLane="128361102#0_1" departPos="5.10" departSpeed="0.00" departDelay="0.80" arrival="57835.00" arrivalLane="201956811#0_1" arrivalPos="40.40" arrivalSpeed="12.11" duration="218.00" routeLength="2067.33" waitingTime="25.00" waitingCount="1" stopTime="0.00" timeLoss="47.56" rerouteNo="1" devices="tripinfo_carIn86816:1 routing_carIn86816:1 emissions_carIn86816:1" vType="default_016" speedFactor="0.89" vaporized="">
        <emissions CO_abs="9089.789748" CO2_abs="470755.305950" HC_abs="52.325944" PMx_abs="7.877635" NOx_abs="189.202100" fuel_abs="202.359869" electricity_abs="0"/>
    </tripinfo>
    <tripinfo id="h17600c1:1" depart="57662.00" departLane="272042143_1" departPos="5.10" departSpeed="0.00" departDelay="0.30" arrival="57838.00" arrivalLane="201238729#3_1" arrivalPos="431.02" arrivalSpeed="15.41" duration="176.00" routeLength="2100.26" waitingTime="21.00" waitingCount="2" stopTime="0.00" timeLoss="45.04" rerouteNo="1" devices="tripinfo_h17600c1:1 routing_h17600c1:1 emissions_h17600c1:1" vType="default_016" speedFactor="1.16" vaporized="">
        <emissions CO_abs="7175.529054" CO2_abs="476642.640553" HC_abs="43.660921" PMx_abs="8.447559" NOx_abs="191.305879" fuel_abs="204.888446" electricity_abs="0"/>
    </tripinfo>
    <tripinfo id="carIn118591:1" depart="57689.00" departLane="315358244_1" departPos="5.10" departSpeed="0.00" departDelay="0.20" arrival="57839.00" arrivalLane="386687235_1" arrivalPos="80.84" arrivalSpeed="15.49" duration="150.00" routeLength="1186.14" waitingTime="40.00" waitingCount="2" stopTime="0.00" timeLoss="72.44" rerouteNo="1" devices="tripinfo_carIn118591:1 routing_carIn118591:1 emissions_carIn118591:1" vType="default_016" speedFactor="1.12" vaporized="">
        <emissions CO_abs="10596.207764" CO2_abs="413158.191640" HC_abs="57.853273" PMx_abs="8.070475" NOx_abs="173.278550" fuel_abs="177.601524" electricity_abs="0"/>
    </tripinfo>
    <tripinfo id="h5216c1:1" depart="57664.00" departLane="224892339#0_1" departPos="5.10" departSpeed="0.00" departDelay="0.00" arrival="57844.00" arrivalLane="386687235_1" arrivalPos="80.84" arrivalSpeed="11.61" duration="180.00" routeLength="1823.78" waitingTime="1.00" waitingCount="1" stopTime="0.00" timeLoss="36.66" rerouteNo="1" devices="tripinfo_h5216c1:1 routing_h5216c1:1 emissions_h5216c1:1" vType="default_016" speedFactor="0.90" vaporized="">
        <emissions CO_abs="6534.824953" CO2_abs="429905.124167" HC_abs="39.795327" PMx_abs="7.238809" NOx_abs="173.755724" fuel_abs="184.798273" electricity_abs="0"/>
    </tripinfo>
    <tripinfo id="randUni15030:1" depart="57735.00" departLane="386687232#0_1" departPos="5.10" departSpeed="0.00" departDelay="0.10" arrival="57845.00" arrivalLane="26677539_1" arrivalPos="151.98" arrivalSpeed="8.20" duration="110.00" routeLength="919.89" waitingTime="15.00" waitingCount="1" stopTime="0.00" timeLoss="30.20" rerouteNo="1" devices="tripinfo_randUni15030:1 routing_randUni15030:1 emissions_randUni15030:1" vType="random_016" speedFactor="1.05" vaporized="">
        <emissions CO_abs="5157.278743" CO2_abs="245762.629132" HC_abs="29.197176" PMx_abs="4.229935" NOx_abs="99.838073" fuel_abs="105.644183" electricity_abs="0"/>
    </tripinfo>
    <tripinfo id="carIn48184:1" depart="57613.00" departLane="-306240162#1_0" departPos="5.10" departSpeed="0.00" departDelay="0.70" arrival="57846.00" arrivalLane="386687235_2" arrivalPos="80.84" arrivalSpeed="10.64" duration="233.00" routeLength="2257.41" waitingTime="15.00" waitingCount="1" stopTime="0.00" timeLoss="43.13" rerouteNo="1" devices="tripinfo_carIn48184:1 routing_carIn48184:1 emissions_carIn48184:1" vType="default_016" speedFactor="0.78" vaporized="">
        <emissions CO_abs="8824.895007" CO2_abs="515501.055286" HC_abs="52.071216" PMx_abs="8.485214" NOx_abs="206.198653" fuel_abs="221.593610" electricity_abs="0"/>
    </tripinfo>
    <tripinfo id="carIn50326:1" depart="57651.00" departLane="128361102#0_1" departPos="5.10" departSpeed="0.00" departDelay="0.30" arrival="57852.00" arrivalLane="18809673#0_1" arrivalPos="473.56" arrivalSpeed="13.79" duration="201.00" routeLength="1591.07" waitingTime="48.00" waitingCount="1" stopTime="0.00" timeLoss="70.44" rerouteNo="1" devices="tripinfo_carIn50326:1 routing_carIn50326:1 emissions_carIn50326:1" vType="default_016" speedFactor="0.99" vaporized="">
        <emissions CO_abs="11590.890546" CO2_abs="450114.437984" HC_abs="63.250915" PMx_abs="8.137428" NOx_abs="184.729949" fuel_abs="193.488705" electricity_abs="0"/>
    </tripinfo>
    <tripinfo id="randUni31145:1" depart="57814.00" departLane="10425609#0_1" departPos="5.10" departSpeed="0.00" departDelay="0.30" arrival="57855.00" arrivalLane="201956810_1" arrivalPos="71.65" arrivalSpeed="13.30" duration="41.00" routeLength="255.78" waitingTime="9.00" waitingCount="1" stopTime="0.00" timeLoss="21.05" rerouteNo="1" devices="tripinfo_randUni31145:1 routing_randUni31145:1 emissions_randUni31145:1" vType="random_016" speedFactor="1.01" vaporized="">
        <emissions CO_abs="3125.836321" CO2_abs="130681.309993" HC_abs="17.315298" PMx_abs="2.554221" NOx_abs="55.317168" fuel_abs="56.174854" electricity_abs="0"/>
    </tripinfo>
    <tripinfo id="randUni2407:1" depart="57820.00" departLane="10425609#0_1" departPos="5.10" departSpeed="0.00" departDelay="0.80" arrival="57861.00" arrivalLane="201956810_1" arrivalPos="71.65" arrivalSpeed="11.18" duration="41.00" routeLength="255.78" waitingTime="3.00" waitingCount="1" stopTime="0.00" timeLoss="16.15" rerouteNo="1" devices="tripinfo_randUni2407:1 routing_randUni2407:1 emissions_randUni2407:1" vType="random_016" speedFactor="0.81" vaporized="">
        <emissions CO_abs="2209.445005" CO2_abs="98734.288536" HC_abs="12.372510" PMx_abs="1.841982" NOx_abs="41.512599" fuel_abs="42.442036" electricity_abs="0"/>
    </tripinfo>
    <tripinfo id="carIn28951:1" depart="57606.00" departLane="10425609#0_1" departPos="5.10" departSpeed="0.00" departDelay="0.20" arrival="57864.00" arrivalLane="-128361102#1_1" arrivalPos="274.68" arrivalSpeed="14.87" duration="258.00" routeLength="2113.04" waitingTime="78.00" waitingCount="3" stopTime="0.00" timeLoss="112.75" rerouteNo="1" devices="tripinfo_carIn28951:1 routing_carIn28951:1 emissions_carIn28951:1" vType="default_016" speedFactor="1.07" vaporized="">
        <emissions CO_abs="18048.074905" CO2_abs="698814.503223" HC_abs="98.529643" PMx_abs="13.586305" NOx_abs="292.093516" fuel_abs="300.394962" electricity_abs="0"/>
    </tripinfo>
    <tripinfo id="50R_frequency3.17" depart="57674.00" departLane="-18809673#6_1" departPos="12.10" departSpeed="0.00" departDelay="0.70" arrival="57864.00" arrivalLane="201956811#0_1" arrivalPos="40.40" arrivalSpeed="11.94" duration="190.00" routeLength="1954.47" waitingTime="20.00" waitingCount="1" stopTime="0.00" timeLoss="45.45" rerouteNo="1" devices="tripinfo_50R_frequency3.17 routing_50R_frequency3.17 emissions_50R_frequency3.17" vType="bus" speedFactor="1.00" vaporized="">
        <emissions CO_abs="3687.658984" CO2_abs="2186315.178394" HC_abs="787.969742" PMx_abs="392.706269" NOx_abs="17297.275353" fuel_abs="932.400707" electricity_abs="0"/>
    </tripinfo>
    <tripinfo id="carIn126378:1" depart="57746.00" departLane="386687232#0_1" departPos="5.10" departSpeed="0.00" departDelay="1.80" arrival="57865.00" arrivalLane="-315358244_2" arrivalPos="33.95" arrivalSpeed="13.57" duration="119.00" routeLength="1157.39" waitingTime="16.00" waitingCount="2" stopTime="0.00" timeLoss="34.54" rerouteNo="1" devices="tripinfo_carIn126378:1 routing_carIn126378:1 emissions_carIn126378:1" vType="default_016" speedFactor="1.00" vaporized="">
        <emissions CO_abs="4225.861090" CO2_abs="281032.660467" HC_abs="25.786200" PMx_abs="4.532287" NOx_abs="110.971355" fuel_abs="120.804617" electricity_abs="0"/>
    </tripinfo>
    <tripinfo id="carIn107282:1" depart="57749.00" departLane="-447569998#1_1" departPos="5.10" departSpeed="0.00" departDelay="0.00" arrival="57865.00" arrivalLane="315358242#0_1" arrivalPos="165.37" arrivalSpeed="13.24" duration="116.00" routeLength="448.50" waitingTime="68.00" waitingCount="1" stopTime="0.00" timeLoss="75.33" rerouteNo="1" devices="tripinfo_carIn107282:1 routing_carIn107282:1 emissions_carIn107282:1" vType="default_016" speedFactor="1.03" vaporized="">
        <emissions CO_abs="12439.043639" CO2_abs="285932.591995" HC_abs="63.333259" PMx_abs="6.192987" NOx_abs="124.690083" fuel_abs="122.915285" electricity_abs="0"/>
    </tripinfo>
    <tripinfo id="carIn73855:1" depart="57743.00" departLane="386687232#0_1" departPos="5.10" departSpeed="0.00" departDelay="0.50" arrival="57866.00" arrivalLane="-315358244_1" arrivalPos="33.95" arrivalSpeed="12.99" duration="123.00" routeLength="1157.39" waitingTime="21.00" waitingCount="2" stopTime="0.00" timeLoss="38.33" rerouteNo="1" devices="tripinfo_carIn73855:1 routing_carIn73855:1 emissions_carIn73855:1" vType="default_016" speedFactor="1.00" vaporized="">
        <emissions CO_abs="5527.748219" CO2_abs="291287.089554" HC_abs="31.973941" PMx_abs="5.148156" NOx_abs="118.398576" fuel_abs="125.212823" electricity_abs="0"/>
    </tripinfo>
    <tripinfo id="h8343c1:5" depart="57679.00" departLane="315358254#0_1" departPos="5.10" departSpeed="0.00" departDelay="0.60" arrival="57869.00" arrivalLane="-24634510#5_1" arrivalPos="236.88" arrivalSpeed="13.22" duration="190.00" routeLength="2056.84" waitingTime="28.00" waitingCount="3" stopTime="0.00" timeLoss="63.74" rerouteNo="1" devices="tripinfo_h8343c1:5 routing_h8343c1:5 emissions_h8343c1:5" vType="default_016" speedFactor="0.99" vaporized="">
        <emissions CO_abs="10298.090219" CO2_abs="575848.069495" HC_abs="60.570009" PMx_abs="11.023918" NOx_abs="237.777689" fuel_abs="247.532711" electricity_abs="0"/>
    </tripinfo>
    <tripinfo id="carIn107084:1" depart="57601.00" departLane="124812856#0_1" departPos="5.10" departSpeed="0.00" departDelay="0.70" arrival="57871.00" arrivalLane="-128361102#1_1" arrivalPos="274.68" arrivalSpeed="11.66" duration="270.00" routeLength="2250.49" waitingTime="54.00" waitingCount="3" stopTime="0.00" timeLoss="87.29" rerouteNo="1" devices="tripinfo_carIn107084:1 routing_carIn107084:1 emissions_carIn107084:1" vType="default_016" speedFactor="0.90" vaporized="">
        <emissions CO_abs="13166.283135" CO2_abs="602108.198446" HC_abs="73.981558" PMx_abs="10.555711" NOx_abs="245.327679" fuel_abs="258.824061" electricity_abs="0"/>
    </tripinfo>