<?xml version="1.0" encoding="UTF-8"?>

<!-- generated on 2021-10-26 14:43:32 by Eclipse SUMO sumo Version 1.10.0
<configuration xmlns:xsi="http://www.w3.org/2001/XMLSchema-instance" xsi:noNamespaceSchemaLocation="http://sumo.dlr.de/xsd/sumoConfiguration.xsd">

    <input>
        <net-file value="/Users/behradkoohy/sumo-scratchpad/RESCO/environments/ingolstadt21/ingolstadt21.net.xml"/>
        <route-files value="/Users/behradkoohy/sumo-scratchpad/RESCO/environments/ingolstadt21/ingolstadt21.rou.xml"/>
    </input>

    <output>
        <tripinfo-output value="/Users/behradkoohy/sumo-scratchpad/RESCO/logs/STOCHASTIC-tr0-ingolstadt21-21-mplight-wait/tripinfo_82.xml"/>
        <tripinfo-output.write-unfinished value="true"/>
    </output>

    <time>
        <begin value="57600"/>
        <end value="61200"/>
    </time>

    <processing>
        <time-to-teleport value="-1"/>
    </processing>

    <report>
        <no-warnings value="true"/>
        <no-step-log value="true"/>
    </report>

    <emissions>
        <device.emissions.probability value="1"/>
    </emissions>

    <traci_server>
        <remote-port value="60559"/>
    </traci_server>

    <random_number>
        <random value="true"/>
    </random_number>

</configuration>
-->

<tripinfos xmlns:xsi="http://www.w3.org/2001/XMLSchema-instance" xsi:noNamespaceSchemaLocation="http://sumo.dlr.de/xsd/tripinfo_file.xsd">
    <tripinfo id="h15454c2:3" depart="57612.00" departLane="24608844_1" departPos="5.10" departSpeed="0.00" departDelay="0.50" arrival="57648.00" arrivalLane="32978638#0_1" arrivalPos="49.29" arrivalSpeed="15.27" duration="36.00" routeLength="354.79" waitingTime="0.00" waitingCount="0" stopTime="0.00" timeLoss="6.00" rerouteNo="1" devices="tripinfo_h15454c2:3 routing_h15454c2:3 emissions_h15454c2:3" vType="default_016" speedFactor="1.15" vaporized="">
        <emissions CO_abs="1905.192583" CO2_abs="113686.223786" HC_abs="11.341799" PMx_abs="2.000145" NOx_abs="46.464629" fuel_abs="48.868988" electricity_abs="0"/>
    </tripinfo>
    <tripinfo id="carIn60260:1" depart="57606.00" departLane="315358254#0_1" departPos="5.10" departSpeed="0.00" departDelay="0.90" arrival="57664.00" arrivalLane="399835085#1_1" arrivalPos="212.23" arrivalSpeed="7.02" duration="58.00" routeLength="430.98" waitingTime="1.00" waitingCount="1" stopTime="0.00" timeLoss="11.31" rerouteNo="1" devices="tripinfo_carIn60260:1 routing_carIn60260:1 emissions_carIn60260:1" vType="default_016" speedFactor="0.99" vaporized="">
        <emissions CO_abs="2700.859266" CO2_abs="128842.623929" HC_abs="15.274336" PMx_abs="2.158637" NOx_abs="52.528429" fuel_abs="55.384665" electricity_abs="0"/>
    </tripinfo>
    <tripinfo id="carIn53971:1" depart="57640.00" departLane="272042143_1" departPos="5.10" departSpeed="0.00" departDelay="0.80" arrival="57702.00" arrivalLane="24634414#1_1" arrivalPos="162.19" arrivalSpeed="6.45" duration="62.00" routeLength="493.04" waitingTime="0.00" waitingCount="0" stopTime="0.00" timeLoss="8.99" rerouteNo="1" devices="tripinfo_carIn53971:1 routing_carIn53971:1 emissions_carIn53971:1" vType="default_016" speedFactor="0.86" vaporized="">
        <emissions CO_abs="2592.592978" CO2_abs="131781.786325" HC_abs="14.852093" PMx_abs="2.188793" NOx_abs="53.514380" fuel_abs="56.647995" electricity_abs="0"/>
    </tripinfo>
    <tripinfo id="h7800c1:5" depart="57696.00" departLane="-447569998#1_1" departPos="5.10" departSpeed="0.00" departDelay="0.00" arrival="57723.00" arrivalLane="-447569998#1_1" arrivalPos="180.76" arrivalSpeed="7.26" duration="27.00" routeLength="175.66" waitingTime="0.00" waitingCount="0" stopTime="0.00" timeLoss="3.53" rerouteNo="1" devices="tripinfo_h7800c1:5 routing_h7800c1:5 emissions_h7800c1:5" vType="default_016" speedFactor="0.91" vaporized="">
        <emissions CO_abs="1365.991127" CO2_abs="54812.356505" HC_abs="7.470913" PMx_abs="0.885268" NOx_abs="22.275496" fuel_abs="23.562020" electricity_abs="0"/>
    </tripinfo>
    <tripinfo id="h3688c1:1" depart="57625.00" departLane="201201950#1_1" departPos="5.10" departSpeed="0.00" departDelay="0.00" arrival="57725.00" arrivalLane="32978638#0_1" arrivalPos="49.29" arrivalSpeed="13.24" duration="100.00" routeLength="1089.75" waitingTime="3.00" waitingCount="1" stopTime="0.00" timeLoss="23.27" rerouteNo="1" devices="tripinfo_h3688c1:1 routing_h3688c1:1 emissions_h3688c1:1" vType="default_016" speedFactor="1.05" vaporized="">
        <emissions CO_abs="4274.783574" CO2_abs="292563.371690" HC_abs="26.268812" PMx_abs="4.986373" NOx_abs="117.529592" fuel_abs="125.760649" electricity_abs="0"/>
    </tripinfo>
    <tripinfo id="h12244c1:3" depart="57612.00" departLane="315358244_1" departPos="5.10" departSpeed="0.00" departDelay="0.40" arrival="57737.00" arrivalLane="386687235_1" arrivalPos="80.84" arrivalSpeed="13.56" duration="125.00" routeLength="1186.14" waitingTime="21.00" waitingCount="1" stopTime="0.00" timeLoss="37.37" rerouteNo="1" devices="tripinfo_h12244c1:3 routing_h12244c1:3 emissions_h12244c1:3" vType="default_016" speedFactor="0.99" vaporized="">
        <emissions CO_abs="6154.900208" CO2_abs="300881.910555" HC_abs="35.026116" PMx_abs="5.310624" NOx_abs="122.289096" fuel_abs="129.337643" electricity_abs="0"/>
    </tripinfo>
    <tripinfo id="h317c2:1" depart="57707.00" departLane="-32978638#0_1" departPos="5.10" departSpeed="0.00" departDelay="0.10" arrival="57741.00" arrivalLane="-266565295#5_1" arrivalPos="172.76" arrivalSpeed="12.95" duration="34.00" routeLength="370.53" waitingTime="0.00" waitingCount="0" stopTime="0.00" timeLoss="5.90" rerouteNo="1" devices="tripinfo_h317c2:1 routing_h317c2:1 emissions_h317c2:1" vType="default_016" speedFactor="0.96" vaporized="">
        <emissions CO_abs="1689.410773" CO2_abs="105680.145349" HC_abs="10.178907" PMx_abs="1.883378" NOx_abs="43.327697" fuel_abs="45.427403" electricity_abs="0"/>
    </tripinfo>
    <tripinfo id="h5979c1:5" depart="57669.00" departLane="399835085#1_1" departPos="5.10" departSpeed="0.00" departDelay="0.00" arrival="57750.00" arrivalLane="-315358254#1_1" arrivalPos="137.16" arrivalSpeed="14.17" duration="81.00" routeLength="659.33" waitingTime="0.00" waitingCount="0" stopTime="0.00" timeLoss="14.15" rerouteNo="1" devices="tripinfo_h5979c1:5 routing_h5979c1:5 emissions_h5979c1:5" vType="default_016" speedFactor="1.09" vaporized="">
        <emissions CO_abs="3507.415742" CO2_abs="182097.939689" HC_abs="20.166406" PMx_abs="3.107943" NOx_abs="74.499599" fuel_abs="78.276802" electricity_abs="0"/>
    </tripinfo>
    <tripinfo id="h3568c1:3" depart="57656.00" departLane="266565295#5_1" departPos="5.10" departSpeed="0.00" departDelay="0.80" arrival="57751.00" arrivalLane="-24634415_1" arrivalPos="62.03" arrivalSpeed="11.33" duration="95.00" routeLength="807.40" waitingTime="0.00" waitingCount="0" stopTime="0.00" timeLoss="19.31" rerouteNo="1" devices="tripinfo_h3568c1:3 routing_h3568c1:3 emissions_h3568c1:3" vType="default_016" speedFactor="0.86" vaporized="">
        <emissions CO_abs="4437.345254" CO2_abs="239297.595607" HC_abs="25.783537" PMx_abs="4.148947" NOx_abs="98.054289" fuel_abs="102.864493" electricity_abs="0"/>
    </tripinfo>
    <tripinfo id="h4538c1:1" depart="57701.00" departLane="-10427692#1_1" departPos="5.10" departSpeed="0.00" departDelay="0.00" arrival="57754.00" arrivalLane="-128361102#1_1" arrivalPos="274.68" arrivalSpeed="14.21" duration="53.00" routeLength="440.74" waitingTime="14.00" waitingCount="1" stopTime="0.00" timeLoss="23.36" rerouteNo="1" devices="tripinfo_h4538c1:1 routing_h4538c1:1 emissions_h4538c1:1" vType="default_016" speedFactor="1.06" vaporized="">
        <emissions CO_abs="3678.384066" CO2_abs="146637.750360" HC_abs="20.205185" PMx_abs="2.842607" NOx_abs="61.434748" fuel_abs="63.034145" electricity_abs="0"/>
    </tripinfo>
    <tripinfo id="S5R_frequency1.2" depart="57624.00" departLane="315358250#0_1" departPos="12.10" departSpeed="0.00" departDelay="12.40" arrival="57759.00" arrivalLane="386687235_1" arrivalPos="80.84" arrivalSpeed="13.63" duration="135.00" routeLength="1115.62" waitingTime="26.00" waitingCount="1" stopTime="0.00" timeLoss="53.05" rerouteNo="1" devices="tripinfo_S5R_frequency1.2 routing_S5R_frequency1.2 emissions_S5R_frequency1.2" vType="bus" speedFactor="1.00" vaporized="">
        <emissions CO_abs="2770.319646" CO2_abs="1570237.756352" HC_abs="584.725577" PMx_abs="292.641574" NOx_abs="12644.201788" fuel_abs="669.623690" electricity_abs="0"/>
    </tripinfo>
    <tripinfo id="carIn22761:1" depart="57616.00" departLane="-306240162#1_0" departPos="5.10" departSpeed="0.00" departDelay="2.10" arrival="57765.00" arrivalLane="399835085#1_1" arrivalPos="212.23" arrivalSpeed="7.54" duration="149.00" routeLength="1093.26" waitingTime="45.00" waitingCount="2" stopTime="0.00" timeLoss="70.55" rerouteNo="1" devices="tripinfo_carIn22761:1 routing_carIn22761:1 emissions_carIn22761:1" vType="default_016" speedFactor="0.99" vaporized="">
        <emissions CO_abs="10808.050123" CO2_abs="412471.317167" HC_abs="58.975891" PMx_abs="8.400116" NOx_abs="174.758570" fuel_abs="177.306002" electricity_abs="0"/>
    </tripinfo>
    <tripinfo id="h3154c1:1" depart="57658.00" departLane="24634507_1" departPos="5.10" departSpeed="0.00" departDelay="0.00" arrival="57772.00" arrivalLane="-266565295#5_1" arrivalPos="172.76" arrivalSpeed="13.73" duration="114.00" routeLength="1206.22" waitingTime="9.00" waitingCount="1" stopTime="0.00" timeLoss="24.31" rerouteNo="1" devices="tripinfo_h3154c1:1 routing_h3154c1:1 emissions_h3154c1:1" vType="default_016" speedFactor="0.99" vaporized="">
        <emissions CO_abs="4253.087013" CO2_abs="291346.357350" HC_abs="26.182765" PMx_abs="4.882433" NOx_abs="116.593759" fuel_abs="125.237631" electricity_abs="0"/>
    </tripinfo>
    <tripinfo id="carIn121703:1" depart="57647.00" departLane="386687232#0_1" departPos="5.10" departSpeed="0.00" departDelay="0.30" arrival="57774.00" arrivalLane="-315358244_1" arrivalPos="33.95" arrivalSpeed="11.50" duration="127.00" routeLength="1157.39" waitingTime="18.00" waitingCount="1" stopTime="0.00" timeLoss="34.10" rerouteNo="1" devices="tripinfo_carIn121703:1 routing_carIn121703:1 emissions_carIn121703:1" vType="default_016" speedFactor="0.91" vaporized="">
        <emissions CO_abs="6142.396008" CO2_abs="285309.927451" HC_abs="34.621128" PMx_abs="5.008222" NOx_abs="116.294460" fuel_abs="122.644100" electricity_abs="0"/>
    </tripinfo>
    <tripinfo id="carIn30817:1" depart="57681.00" departLane="315358244_1" departPos="5.10" departSpeed="0.00" departDelay="0.20" arrival="57774.00" arrivalLane="447569997#1_1" arrivalPos="180.93" arrivalSpeed="6.73" duration="93.00" routeLength="718.04" waitingTime="10.00" waitingCount="1" stopTime="0.00" timeLoss="25.23" rerouteNo="1" devices="tripinfo_carIn30817:1 routing_carIn30817:1 emissions_carIn30817:1" vType="default_016" speedFactor="0.91" vaporized="">
        <emissions CO_abs="3909.636838" CO2_abs="195494.859629" HC_abs="22.348330" PMx_abs="3.367505" NOx_abs="79.850196" fuel_abs="84.035733" electricity_abs="0"/>
    </tripinfo>
    <tripinfo id="h330c1:1" depart="57736.00" departLane="-32978638#0_1" departPos="5.10" departSpeed="0.00" departDelay="0.20" arrival="57775.00" arrivalLane="-266565295#5_1" arrivalPos="172.76" arrivalSpeed="13.16" duration="39.00" routeLength="370.53" waitingTime="0.00" waitingCount="0" stopTime="0.00" timeLoss="11.63" rerouteNo="1" devices="tripinfo_h330c1:1 routing_h330c1:1 emissions_h330c1:1" vType="default_016" speedFactor="0.99" vaporized="">
        <emissions CO_abs="2211.548811" CO2_abs="121356.051226" HC_abs="12.915215" PMx_abs="2.244767" NOx_abs="50.345499" fuel_abs="52.165906" electricity_abs="0"/>
    </tripinfo>
    <tripinfo id="h9563c2:5" depart="57631.00" departLane="315358244_1" departPos="5.10" departSpeed="0.00" departDelay="0.70" arrival="57778.00" arrivalLane="386687235_1" arrivalPos="80.84" arrivalSpeed="12.92" duration="147.00" routeLength="1186.14" waitingTime="36.00" waitingCount="2" stopTime="0.00" timeLoss="57.45" rerouteNo="1" devices="tripinfo_h9563c2:5 routing_h9563c2:5 emissions_h9563c2:5" vType="default_016" speedFactor="0.97" vaporized="">
        <emissions CO_abs="8339.726904" CO2_abs="338947.648095" HC_abs="45.918973" PMx_abs="6.322683" NOx_abs="140.452588" fuel_abs="145.701290" electricity_abs="0"/>
    </tripinfo>
    <tripinfo id="carIn27009:1" depart="57673.00" departLane="-447569998#1_1" departPos="5.10" departSpeed="0.00" departDelay="0.50" arrival="57786.00" arrivalLane="-26677539_1" arrivalPos="152.75" arrivalSpeed="7.47" duration="113.00" routeLength="699.63" waitingTime="12.00" waitingCount="1" stopTime="0.00" timeLoss="28.19" rerouteNo="1" devices="tripinfo_carIn27009:1 routing_carIn27009:1 emissions_carIn27009:1" vType="default_015" speedFactor="0.99" vaporized="">
        <emissions CO_abs="5005.566188" CO2_abs="199098.467948" HC_abs="27.375393" PMx_abs="3.409409" NOx_abs="81.974778" fuel_abs="85.585611" electricity_abs="0"/>
    </tripinfo>
    <tripinfo id="h7181c1:1" depart="57660.00" departLane="315358254#0_1" departPos="5.10" departSpeed="0.00" departDelay="0.10" arrival="57792.00" arrivalLane="306240162#0_0" arrivalPos="220.43" arrivalSpeed="14.26" duration="132.00" routeLength="932.35" waitingTime="50.00" waitingCount="3" stopTime="0.00" timeLoss="76.38" rerouteNo="1" devices="tripinfo_h7181c1:1 routing_h7181c1:1 emissions_h7181c1:1" vType="default_016" speedFactor="0.93" vaporized="">
        <emissions CO_abs="11110.110455" CO2_abs="401435.615529" HC_abs="60.060001" PMx_abs="8.390504" NOx_abs="171.921391" fuel_abs="172.562288" electricity_abs="0"/>
    </tripinfo>
    <tripinfo id="h3326c1:2" depart="57656.00" departLane="22716069#0_1" departPos="5.10" departSpeed="0.00" departDelay="0.00" arrival="57793.00" arrivalLane="24634517#13_1" arrivalPos="111.62" arrivalSpeed="10.99" duration="137.00" routeLength="1312.81" waitingTime="0.00" waitingCount="0" stopTime="0.00" timeLoss="16.36" rerouteNo="1" devices="tripinfo_h3326c1:2 routing_h3326c1:2 emissions_h3326c1:2" vType="default_016" speedFactor="0.81" vaporized="">
        <emissions CO_abs="4509.263084" CO2_abs="282525.490830" HC_abs="27.077863" PMx_abs="4.545054" NOx_abs="113.149525" fuel_abs="121.446392" electricity_abs="0"/>
    </tripinfo>
    <tripinfo id="carIn107282:1" depart="57749.00" departLane="-447569998#1_1" departPos="5.10" departSpeed="0.00" departDelay="0.00" arrival="57793.00" arrivalLane="315358242#0_1" arrivalPos="165.37" arrivalSpeed="13.69" duration="44.00" routeLength="448.50" waitingTime="0.00" waitingCount="0" stopTime="0.00" timeLoss="4.33" rerouteNo="1" devices="tripinfo_carIn107282:1 routing_carIn107282:1 emissions_carIn107282:1" vType="default_016" speedFactor="1.05" vaporized="">
        <emissions CO_abs="1572.272209" CO2_abs="106554.512335" HC_abs="9.601367" PMx_abs="1.653251" NOx_abs="41.911477" fuel_abs="45.803534" electricity_abs="0"/>
    </tripinfo>
    <tripinfo id="carIn86816:1" depart="57617.00" departLane="128361102#0_1" departPos="5.10" departSpeed="0.00" departDelay="0.80" arrival="57805.00" arrivalLane="201956811#0_1" arrivalPos="40.40" arrivalSpeed="12.77" duration="188.00" routeLength="2067.33" waitingTime="0.00" waitingCount="0" stopTime="0.00" timeLoss="25.03" rerouteNo="1" devices="tripinfo_carIn86816:1 routing_carIn86816:1 emissions_carIn86816:1" vType="default_016" speedFactor="0.93" vaporized="">
        <emissions CO_abs="6532.861174" CO2_abs="485698.441480" HC_abs="41.064138" PMx_abs="7.828377" NOx_abs="192.960398" fuel_abs="208.781412" electricity_abs="0"/>
    </tripinfo>
    <tripinfo id="carIn129809:1" depart="57729.00" departLane="-447569998#1_1" departPos="5.10" departSpeed="0.00" departDelay="1.00" arrival="57805.00" arrivalLane="-315358244_1" arrivalPos="33.95" arrivalSpeed="13.96" duration="76.00" routeLength="706.49" waitingTime="8.00" waitingCount="1" stopTime="0.00" timeLoss="19.44" rerouteNo="1" devices="tripinfo_carIn129809:1 routing_carIn129809:1 emissions_carIn129809:1" vType="default_015" speedFactor="1.07" vaporized="">
        <emissions CO_abs="2797.289858" CO2_abs="169984.832518" HC_abs="16.671107" PMx_abs="2.812373" NOx_abs="67.683750" fuel_abs="73.069712" electricity_abs="0"/>
    </tripinfo>
    <tripinfo id="carIn118591:1" depart="57689.00" departLane="315358244_1" departPos="5.10" departSpeed="0.00" departDelay="0.20" arrival="57806.00" arrivalLane="386687235_1" arrivalPos="80.84" arrivalSpeed="12.96" duration="117.00" routeLength="1186.14" waitingTime="4.00" waitingCount="2" stopTime="0.00" timeLoss="31.53" rerouteNo="1" devices="tripinfo_carIn118591:1 routing_carIn118591:1 emissions_carIn118591:1" vType="default_016" speedFactor="1.01" vaporized="">
        <emissions CO_abs="4517.758016" CO2_abs="287874.283316" HC_abs="27.285487" PMx_abs="4.947496" NOx_abs="116.359926" fuel_abs="123.745170" electricity_abs="0"/>
    </tripinfo>
    <tripinfo id="h16072c2:3" depart="57663.00" departLane="315358254#0_1" departPos="5.10" departSpeed="0.00" departDelay="2.50" arrival="57823.00" arrivalLane="386687235_1" arrivalPos="80.84" arrivalSpeed="14.78" duration="160.00" routeLength="1611.92" waitingTime="39.00" waitingCount="1" stopTime="0.00" timeLoss="53.65" rerouteNo="1" devices="tripinfo_h16072c2:3 routing_h16072c2:3 emissions_h16072c2:3" vType="default_016" speedFactor="1.11" vaporized="">
        <emissions CO_abs="9807.842946" CO2_abs="427837.327183" HC_abs="54.578807" PMx_abs="7.877187" NOx_abs="174.519569" fuel_abs="183.911472" electricity_abs="0"/>
    </tripinfo>
    <tripinfo id="h11737c1:1" depart="57665.00" departLane="272042143_1" departPos="5.10" departSpeed="0.00" departDelay="1.50" arrival="57836.00" arrivalLane="-315358254#1_1" arrivalPos="137.16" arrivalSpeed="14.68" duration="171.00" routeLength="1596.88" waitingTime="46.00" waitingCount="2" stopTime="0.00" timeLoss="69.23" rerouteNo="1" devices="tripinfo_h11737c1:1 routing_h11737c1:1 emissions_h11737c1:1" vType="default_016" speedFactor="1.14" vaporized="">
        <emissions CO_abs="11106.372388" CO2_abs="472034.535543" HC_abs="61.538246" PMx_abs="8.934893" NOx_abs="194.562652" fuel_abs="202.910044" electricity_abs="0"/>
    </tripinfo>
    <tripinfo id="carIn126288:1" depart="57674.00" departLane="272042143_1" departPos="5.10" departSpeed="0.00" departDelay="0.00" arrival="57838.00" arrivalLane="-315358254#1_1" arrivalPos="137.16" arrivalSpeed="15.71" duration="164.00" routeLength="1596.88" waitingTime="40.00" waitingCount="2" stopTime="0.00" timeLoss="64.29" rerouteNo="1" devices="tripinfo_carIn126288:1 routing_carIn126288:1 emissions_carIn126288:1" vType="default_016" speedFactor="1.17" vaporized="">
        <emissions CO_abs="10179.924569" CO2_abs="460333.393788" HC_abs="57.142471" PMx_abs="8.857169" NOx_abs="190.700344" fuel_abs="197.879388" electricity_abs="0"/>
    </tripinfo>
    <tripinfo id="carIn48184:1" depart="57613.00" departLane="-306240162#1_0" departPos="5.10" departSpeed="0.00" departDelay="0.70" arrival="57843.00" arrivalLane="386687235_1" arrivalPos="80.84" arrivalSpeed="13.10" duration="230.00" routeLength="2257.41" waitingTime="40.00" waitingCount="3" stopTime="0.00" timeLoss="74.93" rerouteNo="1" devices="tripinfo_carIn48184:1 routing_carIn48184:1 emissions_carIn48184:1" vType="default_016" speedFactor="0.95" vaporized="">
        <emissions CO_abs="11549.119296" CO2_abs="614318.544164" HC_abs="67.074753" PMx_abs="11.312441" NOx_abs="251.706440" fuel_abs="264.070611" electricity_abs="0"/>
    </tripinfo>
    <tripinfo id="h5216c1:1" depart="57664.00" departLane="224892339#0_1" departPos="5.10" departSpeed="0.00" departDelay="0.00" arrival="57848.00" arrivalLane="386687235_1" arrivalPos="80.84" arrivalSpeed="12.91" duration="184.00" routeLength="1823.78" waitingTime="25.00" waitingCount="2" stopTime="0.00" timeLoss="54.29" rerouteNo="1" devices="tripinfo_h5216c1:1 routing_h5216c1:1 emissions_h5216c1:1" vType="default_016" speedFactor="0.99" vaporized="">
        <emissions CO_abs="7879.847999" CO2_abs="461236.058731" HC_abs="46.704191" PMx_abs="8.089457" NOx_abs="186.782203" fuel_abs="198.266562" electricity_abs="0"/>
    </tripinfo>
    <tripinfo id="h5938c1:1" depart="57740.00" departLane="-26677542#0_1" departPos="5.10" departSpeed="0.00" departDelay="0.00" arrival="57849.00" arrivalLane="447569997#1_1" arrivalPos="180.93" arrivalSpeed="7.11" duration="109.00" routeLength="1093.64" waitingTime="0.00" waitingCount="0" stopTime="0.00" timeLoss="10.18" rerouteNo="1" devices="tripinfo_h5938c1:1 routing_h5938c1:1 emissions_h5938c1:1" vType="default_016" speedFactor="0.98" vaporized="">
        <emissions CO_abs="3270.288743" CO2_abs="215045.548674" HC_abs="19.849690" PMx_abs="3.304779" NOx_abs="84.597256" fuel_abs="92.439619" electricity_abs="0"/>
    </tripinfo>
    <tripinfo id="carIn82220:1" depart="57619.00" departLane="-306240162#1_0" departPos="5.10" departSpeed="0.00" departDelay="3.50" arrival="57851.00" arrivalLane="386687235_1" arrivalPos="80.84" arrivalSpeed="13.87" duration="232.00" routeLength="2257.41" waitingTime="41.00" waitingCount="4" stopTime="0.00" timeLoss="91.85" rerouteNo="1" devices="tripinfo_carIn82220:1 routing_carIn82220:1 emissions_carIn82220:1" vType="default_016" speedFactor="1.07" vaporized="">
        <emissions CO_abs="11687.436908" CO2_abs="622174.056542" HC_abs="67.823934" PMx_abs="11.835108" NOx_abs="257.316357" fuel_abs="267.446770" electricity_abs="0"/>
    </tripinfo>
    <tripinfo id="h3864c1:3" depart="57678.00" departLane="24693977#1_1" departPos="5.10" departSpeed="0.00" departDelay="0.00" arrival="57851.00" arrivalLane="201956820_1" arrivalPos="48.33" arrivalSpeed="12.21" duration="173.00" routeLength="1574.85" waitingTime="15.00" waitingCount="1" stopTime="0.00" timeLoss="37.50" rerouteNo="1" devices="tripinfo_h3864c1:3 routing_h3864c1:3 emissions_h3864c1:3" vType="default_016" speedFactor="0.95" vaporized="">
        <emissions CO_abs="7824.156051" CO2_abs="419026.200362" HC_abs="45.390104" PMx_abs="7.157103" NOx_abs="169.830700" fuel_abs="180.122986" electricity_abs="0"/>
    </tripinfo>
    <tripinfo id="randUni15030:1" depart="57735.00" departLane="386687232#0_1" departPos="5.10" departSpeed="0.00" departDelay="0.10" arrival="57852.00" arrivalLane="26677539_1" arrivalPos="151.98" arrivalSpeed="6.42" duration="117.00" routeLength="919.89" waitingTime="4.00" waitingCount="1" stopTime="0.00" timeLoss="20.30" rerouteNo="1" devices="tripinfo_randUni15030:1 routing_randUni15030:1 emissions_randUni15030:1" vType="random_016" speedFactor="0.86" vaporized="">
        <emissions CO_abs="4536.534016" CO2_abs="235418.320401" HC_abs="26.085054" PMx_abs="3.805722" NOx_abs="94.763159" fuel_abs="101.197507" electricity_abs="0"/>
    </tripinfo>
    <tripinfo id="h645c1:1" depart="57622.00" departLane="266565295#5_1" departPos="5.10" departSpeed="0.00" departDelay="0.40" arrival="57854.00" arrivalLane="-315358244_1" arrivalPos="33.95" arrivalSpeed="11.86" duration="232.00" routeLength="1910.83" waitingTime="49.00" waitingCount="4" stopTime="0.00" timeLoss="84.12" rerouteNo="1" devices="tripinfo_h645c1:1 routing_h645c1:1 emissions_h645c1:1" vType="default_016" speedFactor="0.94" vaporized="">
        <emissions CO_abs="11595.656636" CO2_abs="532229.503635" HC_abs="65.246342" PMx_abs="9.578391" NOx_abs="218.428436" fuel_abs="228.785379" electricity_abs="0"/>
    </tripinfo>
    <tripinfo id="h9953c2:3" depart="57682.00" departLane="-54169231#2_1" departPos="5.10" departSpeed="0.00" departDelay="0.00" arrival="57854.00" arrivalLane="386687235_1" arrivalPos="80.84" arrivalSpeed="13.60" duration="172.00" routeLength="1535.60" waitingTime="14.00" waitingCount="2" stopTime="0.00" timeLoss="51.08" rerouteNo="1" devices="tripinfo_h9953c2:3 routing_h9953c2:3 emissions_h9953c2:3" vType="default_016" speedFactor="1.04" vaporized="">
        <emissions CO_abs="7150.628497" CO2_abs="409200.386412" HC_abs="42.126876" PMx_abs="7.205560" NOx_abs="166.891975" fuel_abs="175.898534" electricity_abs="0"/>
    </tripinfo>
    <tripinfo id="carIn107084:1" depart="57601.00" departLane="124812856#0_1" departPos="5.10" departSpeed="0.00" departDelay="0.70" arrival="57855.00" arrivalLane="-128361102#1_1" arrivalPos="274.68" arrivalSpeed="13.96" duration="254.00" routeLength="2250.49" waitingTime="61.00" waitingCount="3" stopTime="0.00" timeLoss="97.09" rerouteNo="1" devices="tripinfo_carIn107084:1 routing_carIn107084:1 emissions_carIn107084:1" vType="default_016" speedFactor="1.05" vaporized="">
        <emissions CO_abs="16041.316947" CO2_abs="705634.804171" HC_abs="89.465670" PMx_abs="13.231577" NOx_abs="291.737123" fuel_abs="303.325633" electricity_abs="0"/>
    </tripinfo>
    <tripinfo id="h8343c1:5" depart="57679.00" departLane="315358254#0_1" departPos="5.10" departSpeed="0.00" departDelay="0.60" arrival="57855.00" arrivalLane="-24634510#5_1" arrivalPos="236.88" arrivalSpeed="12.54" duration="176.00" routeLength="2056.84" waitingTime="11.00" waitingCount="2" stopTime="0.00" timeLoss="43.60" rerouteNo="1" devices="tripinfo_h8343c1:5 routing_h8343c1:5 emissions_h8343c1:5" vType="default_016" speedFactor="0.94" vaporized="">
        <emissions CO_abs="8062.995647" CO2_abs="547415.826963" HC_abs="49.737587" PMx_abs="10.211323" NOx_abs="224.272283" fuel_abs="235.309833" electricity_abs="0"/>
    </tripinfo>
    <tripinfo id="carIn12152:1" depart="57647.00" departLane="24599188#0.94_1" departPos="5.10" departSpeed="0.00" departDelay="0.50" arrival="57856.00" arrivalLane="-315358254#1_1" arrivalPos="137.16" arrivalSpeed="12.89" duration="209.00" routeLength="2034.31" waitingTime="21.00" waitingCount="3" stopTime="0.00" timeLoss="51.35" rerouteNo="1" devices="tripinfo_carIn12152:1 routing_carIn12152:1 emissions_carIn12152:1" vType="default_016" speedFactor="1.00" vaporized="">
        <emissions CO_abs="8170.569460" CO2_abs="480386.671266" HC_abs="48.370366" PMx_abs="8.006037" NOx_abs="192.157479" fuel_abs="206.499199" electricity_abs="0"/>
    </tripinfo>
    <tripinfo id="h6541c1:3" depart="57727.00" departLane="201950247#3_1" departPos="5.10" departSpeed="0.00" departDelay="0.00" arrival="57858.00" arrivalLane="32978638#0_1" arrivalPos="49.29" arrivalSpeed="15.22" duration="131.00" routeLength="1176.17" waitingTime="18.00" waitingCount="2" stopTime="0.00" timeLoss="42.67" rerouteNo="1" devices="tripinfo_h6541c1:3 routing_h6541c1:3 emissions_h6541c1:3" vType="default_016" speedFactor="1.15" vaporized="">
        <emissions CO_abs="6995.252714" CO2_abs="366231.641522" HC_abs="40.466997" PMx_abs="6.895112" NOx_abs="152.509879" fuel_abs="157.427824" electricity_abs="0"/>
    </tripinfo>
    <tripinfo id="carIn77943:1" depart="57608.00" departLane="124812856#0_1" departPos="5.10" departSpeed="0.00" departDelay="2.50" arrival="57859.00" arrivalLane="-128361102#1_1" arrivalPos="274.68" arrivalSpeed="13.10" duration="251.00" routeLength="2250.49" waitingTime="46.00" waitingCount="1" stopTime="0.00" timeLoss="82.25" rerouteNo="1" devices="tripinfo_carIn77943:1 routing_carIn77943:1 emissions_carIn77943:1" vType="default_016" speedFactor="0.98" vaporized="">
        <emissions CO_abs="13549.905545" CO2_abs="609773.489960" HC_abs="75.969975" PMx_abs="11.162852" NOx_abs="251.246088" fuel_abs="262.118571" electricity_abs="0"/>
    </tripinfo>
    <tripinfo id="carIn77438:1" depart="57614.00" departLane="124812856#0_1" departPos="5.10" departSpeed="0.00" departDelay="1.10" arrival="57861.00" arrivalLane="-128361102#1_1" arrivalPos="274.68" arrivalSpeed="12.88" duration="247.00" routeLength="2250.49" waitingTime="46.00" waitingCount="1" stopTime="0.00" timeLoss="82.27" rerouteNo="1" devices="tripinfo_carIn77438:1 routing_carIn77438:1 emissions_carIn77438:1" vType="default_016" speedFactor="1.00" vaporized="">
        <emissions CO_abs="14024.467840" CO2_abs="652390.451759" HC_abs="79.188005" PMx_abs="12.029965" NOx_abs="269.287610" fuel_abs="280.437468" electricity_abs="0"/>
    </tripinfo>
    <tripinfo id="h11868c1:5" depart="57700.00" departLane="315358254#0_1" departPos="5.10" departSpeed="0.00" departDelay="0.10" arrival="57861.00" arrivalLane="386687235_1" arrivalPos="80.84" arrivalSpeed="13.19" duration="161.00" routeLength="1611.92" waitingTime="14.00" waitingCount="2" stopTime="0.00" timeLoss="43.88" rerouteNo="1" devices="tripinfo_h11868c1:5 routing_h11868c1:5 emissions_h11868c1:5" vType="default_016" speedFactor="1.01" vaporized="">
        <emissions CO_abs="6128.536367" CO2_abs="363415.791624" HC_abs="36.402245" PMx_abs="6.257973" NOx_abs="146.493643" fuel_abs="156.217719" electricity_abs="0"/>
    </tripinfo>
    <tripinfo id="carIn81046:1" depart="57611.00" departLane="124812856#0_1" departPos="5.10" departSpeed="0.00" departDelay="2.50" arrival="57862.00" arrivalLane="-128361102#1_1" arrivalPos="274.68" arrivalSpeed="16.00" duration="251.00" routeLength="2232.46" waitingTime="31.00" waitingCount="2" stopTime="0.00" timeLoss="118.58" rerouteNo="1" devices="tripinfo_carIn81046:1 routing_carIn81046:1 emissions_carIn81046:1" vType="default_016" speedFactor="1.23" vaporized="">
        <emissions CO_abs="14265.546132" CO2_abs="700741.623600" HC_abs="81.492421" PMx_abs="13.255378" NOx_abs="292.604082" fuel_abs="301.220452" electricity_abs="0"/>
    </tripinfo>
    <tripinfo id="h16437c1:3" depart="57717.00" departLane="315358254#0_1" departPos="5.10" departSpeed="0.00" departDelay="0.80" arrival="57862.00" arrivalLane="386687235_2" arrivalPos="80.84" arrivalSpeed="13.23" duration="145.00" routeLength="1611.92" waitingTime="5.00" waitingCount="1" stopTime="0.00" timeLoss="31.32" rerouteNo="1" devices="tripinfo_h16437c1:3 routing_h16437c1:3 emissions_h16437c1:3" vType="default_016" speedFactor="1.04" vaporized="">
        <emissions CO_abs="4707.721012" CO2_abs="346605.451047" HC_abs="29.418506" PMx_abs="5.588659" NOx_abs="136.447473" fuel_abs="148.991309" electricity_abs="0"/>
    </tripinfo>