<?xml version="1.0" encoding="UTF-8"?>

<!-- generated on 2021-10-26 14:13:21 by Eclipse SUMO sumo Version 1.10.0
<configuration xmlns:xsi="http://www.w3.org/2001/XMLSchema-instance" xsi:noNamespaceSchemaLocation="http://sumo.dlr.de/xsd/sumoConfiguration.xsd">

    <input>
        <net-file value="/Users/behradkoohy/sumo-scratchpad/RESCO/environments/ingolstadt21/ingolstadt21.net.xml"/>
        <route-files value="/Users/behradkoohy/sumo-scratchpad/RESCO/environments/ingolstadt21/ingolstadt21.rou.xml"/>
    </input>

    <output>
        <tripinfo-output value="/Users/behradkoohy/sumo-scratchpad/RESCO/logs/STOCHASTIC-tr0-ingolstadt21-21-mplight-wait/tripinfo_31.xml"/>
        <tripinfo-output.write-unfinished value="true"/>
    </output>

    <time>
        <begin value="57600"/>
        <end value="61200"/>
    </time>

    <processing>
        <time-to-teleport value="-1"/>
    </processing>

    <report>
        <no-warnings value="true"/>
        <no-step-log value="true"/>
    </report>

    <emissions>
        <device.emissions.probability value="1"/>
    </emissions>

    <traci_server>
        <remote-port value="60116"/>
    </traci_server>

    <random_number>
        <random value="true"/>
    </random_number>

</configuration>
-->

<tripinfos xmlns:xsi="http://www.w3.org/2001/XMLSchema-instance" xsi:noNamespaceSchemaLocation="http://sumo.dlr.de/xsd/tripinfo_file.xsd">
    <tripinfo id="h15454c2:3" depart="57612.00" departLane="24608844_1" departPos="5.10" departSpeed="0.00" departDelay="0.50" arrival="57656.00" arrivalLane="32978638#0_1" arrivalPos="49.29" arrivalSpeed="15.02" duration="44.00" routeLength="354.79" waitingTime="2.00" waitingCount="1" stopTime="0.00" timeLoss="13.29" rerouteNo="1" devices="tripinfo_h15454c2:3 routing_h15454c2:3 emissions_h15454c2:3" vType="default_016" speedFactor="1.13" vaporized="">
        <emissions CO_abs="2513.105869" CO2_abs="135318.466559" HC_abs="14.517312" PMx_abs="2.389856" NOx_abs="55.517411" fuel_abs="58.167954" electricity_abs="0"/>
    </tripinfo>
    <tripinfo id="carIn60260:1" depart="57606.00" departLane="315358254#0_1" departPos="5.10" departSpeed="0.00" departDelay="0.90" arrival="57687.00" arrivalLane="399835085#1_1" arrivalPos="212.23" arrivalSpeed="6.94" duration="81.00" routeLength="430.98" waitingTime="21.00" waitingCount="1" stopTime="0.00" timeLoss="30.31" rerouteNo="1" devices="tripinfo_carIn60260:1 routing_carIn60260:1 emissions_carIn60260:1" vType="default_016" speedFactor="0.92" vaporized="">
        <emissions CO_abs="5435.999667" CO2_abs="169811.899852" HC_abs="28.670572" PMx_abs="3.112332" NOx_abs="70.871791" fuel_abs="72.997043" electricity_abs="0"/>
    </tripinfo>
    <tripinfo id="carIn53971:1" depart="57640.00" departLane="272042143_1" departPos="5.10" departSpeed="0.00" departDelay="0.80" arrival="57692.00" arrivalLane="24634414#1_1" arrivalPos="162.19" arrivalSpeed="8.41" duration="52.00" routeLength="493.04" waitingTime="0.00" waitingCount="0" stopTime="0.00" timeLoss="6.96" rerouteNo="1" devices="tripinfo_carIn53971:1 routing_carIn53971:1 emissions_carIn53971:1" vType="default_016" speedFactor="1.01" vaporized="">
        <emissions CO_abs="2270.050448" CO2_abs="136886.043449" HC_abs="13.432917" PMx_abs="2.244173" NOx_abs="54.936439" fuel_abs="58.841837" electricity_abs="0"/>
    </tripinfo>
    <tripinfo id="h3688c1:1" depart="57625.00" departLane="201201950#1_1" departPos="5.10" departSpeed="0.00" departDelay="0.00" arrival="57714.00" arrivalLane="32978638#0_1" arrivalPos="49.29" arrivalSpeed="12.96" duration="89.00" routeLength="1089.75" waitingTime="0.00" waitingCount="0" stopTime="0.00" timeLoss="9.82" rerouteNo="1" devices="tripinfo_h3688c1:1 routing_h3688c1:1 emissions_h3688c1:1" vType="default_016" speedFactor="1.01" vaporized="">
        <emissions CO_abs="2759.980486" CO2_abs="244465.024306" HC_abs="18.145450" PMx_abs="3.791235" NOx_abs="95.148064" fuel_abs="105.085130" electricity_abs="0"/>
    </tripinfo>
    <tripinfo id="h12244c1:3" depart="57612.00" departLane="315358244_1" departPos="5.10" departSpeed="0.00" departDelay="0.40" arrival="57717.00" arrivalLane="386687235_1" arrivalPos="80.84" arrivalSpeed="11.88" duration="105.00" routeLength="1186.14" waitingTime="0.00" waitingCount="0" stopTime="0.00" timeLoss="9.72" rerouteNo="1" devices="tripinfo_h12244c1:3 routing_h12244c1:3 emissions_h12244c1:3" vType="default_016" speedFactor="0.90" vaporized="">
        <emissions CO_abs="2810.001749" CO2_abs="228813.557157" HC_abs="18.096385" PMx_abs="3.466632" NOx_abs="89.195278" fuel_abs="98.357500" electricity_abs="0"/>
    </tripinfo>
    <tripinfo id="S5R_frequency1.2" depart="57624.00" departLane="315358250#0_1" departPos="12.10" departSpeed="0.00" departDelay="12.40" arrival="57719.00" arrivalLane="386687235_1" arrivalPos="80.84" arrivalSpeed="13.58" duration="95.00" routeLength="1115.62" waitingTime="0.00" waitingCount="0" stopTime="0.00" timeLoss="13.64" rerouteNo="1" devices="tripinfo_S5R_frequency1.2 routing_S5R_frequency1.2 emissions_S5R_frequency1.2" vType="bus" speedFactor="1.00" vaporized="">
        <emissions CO_abs="1836.590564" CO2_abs="1191853.116624" HC_abs="377.567815" PMx_abs="197.350710" NOx_abs="9145.399930" fuel_abs="508.318275" electricity_abs="0"/>
    </tripinfo>
    <tripinfo id="h7800c1:5" depart="57696.00" departLane="-447569998#1_1" departPos="5.10" departSpeed="0.00" departDelay="0.00" arrival="57721.00" arrivalLane="-447569998#1_1" arrivalPos="180.76" arrivalSpeed="7.37" duration="25.00" routeLength="175.66" waitingTime="0.00" waitingCount="0" stopTime="0.00" timeLoss="3.48" rerouteNo="1" devices="tripinfo_h7800c1:5 routing_h7800c1:5 emissions_h7800c1:5" vType="default_016" speedFactor="0.98" vaporized="">
        <emissions CO_abs="1084.019979" CO2_abs="45677.937547" HC_abs="5.978899" PMx_abs="0.728774" NOx_abs="18.474562" fuel_abs="19.635406" electricity_abs="0"/>
    </tripinfo>
    <tripinfo id="h317c2:1" depart="57707.00" departLane="-32978638#0_1" departPos="5.10" departSpeed="0.00" departDelay="0.10" arrival="57739.00" arrivalLane="-266565295#5_1" arrivalPos="172.76" arrivalSpeed="13.79" duration="32.00" routeLength="370.53" waitingTime="0.00" waitingCount="0" stopTime="0.00" timeLoss="5.33" rerouteNo="1" devices="tripinfo_h317c2:1 routing_h317c2:1 emissions_h317c2:1" vType="default_016" speedFactor="1.03" vaporized="">
        <emissions CO_abs="1707.810215" CO2_abs="114084.729876" HC_abs="10.472576" PMx_abs="2.065535" NOx_abs="46.825711" fuel_abs="49.040044" electricity_abs="0"/>
    </tripinfo>
    <tripinfo id="h4538c1:1" depart="57701.00" departLane="-10427692#1_1" departPos="5.10" departSpeed="0.00" departDelay="0.00" arrival="57742.00" arrivalLane="-128361102#1_1" arrivalPos="274.68" arrivalSpeed="12.09" duration="41.00" routeLength="440.74" waitingTime="0.00" waitingCount="0" stopTime="0.00" timeLoss="6.87" rerouteNo="1" devices="tripinfo_h4538c1:1 routing_h4538c1:1 emissions_h4538c1:1" vType="default_016" speedFactor="0.94" vaporized="">
        <emissions CO_abs="1646.731364" CO2_abs="116363.184494" HC_abs="10.208127" PMx_abs="1.877817" NOx_abs="46.209016" fuel_abs="50.019728" electricity_abs="0"/>
    </tripinfo>
    <tripinfo id="carIn22761:1" depart="57616.00" departLane="-306240162#1_0" departPos="5.10" departSpeed="0.00" departDelay="2.10" arrival="57751.00" arrivalLane="399835085#1_1" arrivalPos="212.23" arrivalSpeed="6.55" duration="135.00" routeLength="1093.26" waitingTime="29.00" waitingCount="1" stopTime="0.00" timeLoss="46.18" rerouteNo="1" devices="tripinfo_carIn22761:1 routing_carIn22761:1 emissions_carIn22761:1" vType="default_016" speedFactor="0.89" vaporized="">
        <emissions CO_abs="8820.145837" CO2_abs="360579.813163" HC_abs="48.499209" PMx_abs="6.833161" NOx_abs="149.874557" fuel_abs="154.999963" electricity_abs="0"/>
    </tripinfo>
    <tripinfo id="carIn30817:1" depart="57681.00" departLane="315358244_1" departPos="5.10" departSpeed="0.00" departDelay="0.20" arrival="57760.00" arrivalLane="447569997#1_1" arrivalPos="180.93" arrivalSpeed="8.08" duration="79.00" routeLength="718.04" waitingTime="10.00" waitingCount="1" stopTime="0.00" timeLoss="21.84" rerouteNo="1" devices="tripinfo_carIn30817:1 routing_carIn30817:1 emissions_carIn30817:1" vType="default_016" speedFactor="1.08" vaporized="">
        <emissions CO_abs="3042.450427" CO2_abs="183333.197586" HC_abs="18.114162" PMx_abs="3.073290" NOx_abs="73.584702" fuel_abs="78.807572" electricity_abs="0"/>
    </tripinfo>
    <tripinfo id="carIn27009:1" depart="57673.00" departLane="-447569998#1_1" departPos="5.10" departSpeed="0.00" departDelay="0.50" arrival="57761.00" arrivalLane="-26677539_1" arrivalPos="152.75" arrivalSpeed="8.51" duration="88.00" routeLength="699.63" waitingTime="0.00" waitingCount="0" stopTime="0.00" timeLoss="9.20" rerouteNo="1" devices="tripinfo_carIn27009:1 routing_carIn27009:1 emissions_carIn27009:1" vType="default_015" speedFactor="1.06" vaporized="">
        <emissions CO_abs="3497.815632" CO2_abs="184475.254358" HC_abs="20.153175" PMx_abs="2.856144" NOx_abs="73.768750" fuel_abs="79.299103" electricity_abs="0"/>
    </tripinfo>
    <tripinfo id="carIn80064:1" depart="57603.00" departLane="128361109#1_1" departPos="5.10" departSpeed="0.00" departDelay="0.40" arrival="57763.00" arrivalLane="-315358254#1_1" arrivalPos="137.16" arrivalSpeed="14.86" duration="160.00" routeLength="1587.97" waitingTime="47.00" waitingCount="2" stopTime="0.00" timeLoss="79.75" rerouteNo="1" devices="tripinfo_carIn80064:1 routing_carIn80064:1 emissions_carIn80064:1" vType="default_016" speedFactor="1.11" vaporized="">
        <emissions CO_abs="13865.481449" CO2_abs="597194.477468" HC_abs="77.316463" PMx_abs="12.392771" NOx_abs="251.490418" fuel_abs="256.710002" electricity_abs="0"/>
    </tripinfo>
    <tripinfo id="h3568c1:3" depart="57656.00" departLane="266565295#5_1" departPos="5.10" departSpeed="0.00" departDelay="0.80" arrival="57763.00" arrivalLane="-24634415_1" arrivalPos="62.03" arrivalSpeed="14.06" duration="107.00" routeLength="807.40" waitingTime="31.00" waitingCount="1" stopTime="0.00" timeLoss="47.66" rerouteNo="1" devices="tripinfo_h3568c1:3 routing_h3568c1:3 emissions_h3568c1:3" vType="default_016" speedFactor="1.09" vaporized="">
        <emissions CO_abs="8221.656503" CO2_abs="317239.897020" HC_abs="44.701389" PMx_abs="6.196985" NOx_abs="133.254091" fuel_abs="136.369806" electricity_abs="0"/>
    </tripinfo>
    <tripinfo id="h3326c1:2" depart="57656.00" departLane="22716069#0_1" departPos="5.10" departSpeed="0.00" departDelay="0.00" arrival="57772.00" arrivalLane="24634517#13_1" arrivalPos="111.62" arrivalSpeed="12.78" duration="116.00" routeLength="1312.81" waitingTime="0.00" waitingCount="0" stopTime="0.00" timeLoss="14.61" rerouteNo="1" devices="tripinfo_h3326c1:2 routing_h3326c1:2 emissions_h3326c1:2" vType="default_016" speedFactor="0.95" vaporized="">
        <emissions CO_abs="4048.037465" CO2_abs="306522.449223" HC_abs="25.583073" PMx_abs="5.013037" NOx_abs="122.057343" fuel_abs="131.761002" electricity_abs="0"/>
    </tripinfo>
    <tripinfo id="h5979c1:5" depart="57669.00" departLane="399835085#1_1" departPos="5.10" departSpeed="0.00" departDelay="0.00" arrival="57779.00" arrivalLane="-315358254#1_1" arrivalPos="137.16" arrivalSpeed="12.38" duration="110.00" routeLength="659.33" waitingTime="15.00" waitingCount="1" stopTime="0.00" timeLoss="28.62" rerouteNo="1" devices="tripinfo_h5979c1:5 routing_h5979c1:5 emissions_h5979c1:5" vType="default_016" speedFactor="0.90" vaporized="">
        <emissions CO_abs="6001.759886" CO2_abs="215633.067313" HC_abs="32.281374" PMx_abs="3.717052" NOx_abs="88.790139" fuel_abs="92.693744" electricity_abs="0"/>
    </tripinfo>
    <tripinfo id="h330c1:1" depart="57736.00" departLane="-32978638#0_1" departPos="5.10" departSpeed="0.00" departDelay="0.20" arrival="57794.00" arrivalLane="-266565295#5_1" arrivalPos="172.76" arrivalSpeed="14.03" duration="58.00" routeLength="370.53" waitingTime="23.00" waitingCount="1" stopTime="0.00" timeLoss="32.14" rerouteNo="1" devices="tripinfo_h330c1:1 routing_h330c1:1 emissions_h330c1:1" vType="default_016" speedFactor="1.07" vaporized="">
        <emissions CO_abs="5067.208937" CO2_abs="172629.682819" HC_abs="27.151523" PMx_abs="3.525802" NOx_abs="73.632560" fuel_abs="74.207456" electricity_abs="0"/>
    </tripinfo>
    <tripinfo id="h9563c2:5" depart="57631.00" departLane="315358244_1" departPos="5.10" departSpeed="0.00" departDelay="0.70" arrival="57797.00" arrivalLane="386687235_1" arrivalPos="80.84" arrivalSpeed="11.88" duration="166.00" routeLength="1186.14" waitingTime="47.00" waitingCount="3" stopTime="0.00" timeLoss="69.82" rerouteNo="1" devices="tripinfo_h9563c2:5 routing_h9563c2:5 emissions_h9563c2:5" vType="default_016" speedFactor="0.89" vaporized="">
        <emissions CO_abs="9111.801144" CO2_abs="352590.217876" HC_abs="49.695597" PMx_abs="6.376296" NOx_abs="145.248292" fuel_abs="151.566370" electricity_abs="0"/>
    </tripinfo>
    <tripinfo id="carIn118591:1" depart="57689.00" departLane="315358244_1" departPos="5.10" departSpeed="0.00" departDelay="0.20" arrival="57799.00" arrivalLane="386687235_1" arrivalPos="80.84" arrivalSpeed="13.31" duration="110.00" routeLength="1186.14" waitingTime="6.00" waitingCount="2" stopTime="0.00" timeLoss="25.14" rerouteNo="1" devices="tripinfo_carIn118591:1 routing_carIn118591:1 emissions_carIn118591:1" vType="default_016" speedFactor="1.02" vaporized="">
        <emissions CO_abs="3939.255712" CO2_abs="279088.318638" HC_abs="24.453108" PMx_abs="4.689293" NOx_abs="111.602822" fuel_abs="119.968291" electricity_abs="0"/>
    </tripinfo>
    <tripinfo id="h7181c1:1" depart="57660.00" departLane="315358254#0_1" departPos="5.10" departSpeed="0.00" departDelay="0.10" arrival="57804.00" arrivalLane="306240162#0_0" arrivalPos="220.43" arrivalSpeed="13.04" duration="144.00" routeLength="932.35" waitingTime="65.00" waitingCount="1" stopTime="0.00" timeLoss="81.48" rerouteNo="1" devices="tripinfo_h7181c1:1 routing_h7181c1:1 emissions_h7181c1:1" vType="default_016" speedFactor="0.83" vaporized="">
        <emissions CO_abs="13505.088404" CO2_abs="400408.279357" HC_abs="70.937473" PMx_abs="8.405464" NOx_abs="171.553924" fuel_abs="172.122720" electricity_abs="0"/>
    </tripinfo>
    <tripinfo id="carIn12365:1" depart="57713.00" departLane="315358244_1" departPos="5.10" departSpeed="0.00" departDelay="0.50" arrival="57804.00" arrivalLane="447569997#1_1" arrivalPos="180.93" arrivalSpeed="7.82" duration="91.00" routeLength="718.04" waitingTime="12.00" waitingCount="2" stopTime="0.00" timeLoss="28.26" rerouteNo="1" devices="tripinfo_carIn12365:1 routing_carIn12365:1 emissions_carIn12365:1" vType="default_016" speedFactor="0.99" vaporized="">
        <emissions CO_abs="4076.230113" CO2_abs="209458.894872" HC_abs="23.440417" PMx_abs="3.707470" NOx_abs="85.960534" fuel_abs="90.038108" electricity_abs="0"/>
    </tripinfo>
    <tripinfo id="carIn121703:1" depart="57647.00" departLane="386687232#0_1" departPos="5.10" departSpeed="0.00" departDelay="0.30" arrival="57814.00" arrivalLane="-315358244_1" arrivalPos="33.95" arrivalSpeed="11.70" duration="167.00" routeLength="1157.39" waitingTime="54.00" waitingCount="3" stopTime="0.00" timeLoss="74.99" rerouteNo="1" devices="tripinfo_carIn121703:1 routing_carIn121703:1 emissions_carIn121703:1" vType="default_016" speedFactor="0.92" vaporized="">
        <emissions CO_abs="11786.182565" CO2_abs="402560.323087" HC_abs="63.104246" PMx_abs="7.858667" NOx_abs="169.660279" fuel_abs="173.047085" electricity_abs="0"/>
    </tripinfo>
    <tripinfo id="h16072c2:3" depart="57663.00" departLane="315358254#0_1" departPos="5.10" departSpeed="0.00" departDelay="2.50" arrival="57814.00" arrivalLane="386687235_1" arrivalPos="80.84" arrivalSpeed="13.08" duration="151.00" routeLength="1611.92" waitingTime="21.00" waitingCount="1" stopTime="0.00" timeLoss="34.94" rerouteNo="1" devices="tripinfo_h16072c2:3 routing_h16072c2:3 emissions_h16072c2:3" vType="default_016" speedFactor="1.02" vaporized="">
        <emissions CO_abs="7272.082913" CO2_abs="383736.913259" HC_abs="42.055487" PMx_abs="6.671192" NOx_abs="154.535620" fuel_abs="164.953588" electricity_abs="0"/>
    </tripinfo>
    <tripinfo id="carIn82278:1" depart="57702.00" departLane="-306240162#1_0" departPos="5.10" departSpeed="0.00" departDelay="0.70" arrival="57815.00" arrivalLane="399835085#1_1" arrivalPos="212.23" arrivalSpeed="7.12" duration="113.00" routeLength="1093.26" waitingTime="4.00" waitingCount="2" stopTime="0.00" timeLoss="33.60" rerouteNo="1" devices="tripinfo_carIn82278:1 routing_carIn82278:1 emissions_carIn82278:1" vType="default_016" speedFactor="0.98" vaporized="">
        <emissions CO_abs="6339.335227" CO2_abs="349931.196702" HC_abs="37.157175" PMx_abs="6.684599" NOx_abs="145.758059" fuel_abs="150.420561" electricity_abs="0"/>
    </tripinfo>
    <tripinfo id="carIn129809:1" depart="57729.00" departLane="-447569998#1_1" departPos="5.10" departSpeed="0.00" departDelay="1.00" arrival="57817.00" arrivalLane="-315358244_1" arrivalPos="33.95" arrivalSpeed="10.86" duration="88.00" routeLength="706.49" waitingTime="3.00" waitingCount="1" stopTime="0.00" timeLoss="13.73" rerouteNo="1" devices="tripinfo_carIn129809:1 routing_carIn129809:1 emissions_carIn129809:1" vType="default_015" speedFactor="0.82" vaporized="">
        <emissions CO_abs="3009.063342" CO2_abs="158505.292126" HC_abs="17.345556" PMx_abs="2.493826" NOx_abs="63.292381" fuel_abs="68.135554" electricity_abs="0"/>
    </tripinfo>
    <tripinfo id="h645c1:1" depart="57622.00" departLane="266565295#5_1" departPos="5.10" departSpeed="0.00" departDelay="0.40" arrival="57818.00" arrivalLane="-315358244_1" arrivalPos="33.95" arrivalSpeed="12.79" duration="196.00" routeLength="1910.83" waitingTime="24.00" waitingCount="2" stopTime="0.00" timeLoss="47.45" rerouteNo="1" devices="tripinfo_h645c1:1 routing_h645c1:1 emissions_h645c1:1" vType="default_016" speedFactor="0.93" vaporized="">
        <emissions CO_abs="7378.904723" CO2_abs="422696.848663" HC_abs="43.431978" PMx_abs="6.962663" NOx_abs="168.485597" fuel_abs="181.700930" electricity_abs="0"/>
    </tripinfo>
    <tripinfo id="carIn28951:1" depart="57606.00" departLane="10425609#0_1" departPos="5.10" departSpeed="0.00" departDelay="0.20" arrival="57826.00" arrivalLane="-128361102#1_1" arrivalPos="274.68" arrivalSpeed="13.54" duration="220.00" routeLength="2113.04" waitingTime="33.00" waitingCount="3" stopTime="0.00" timeLoss="62.51" rerouteNo="1" devices="tripinfo_carIn28951:1 routing_carIn28951:1 emissions_carIn28951:1" vType="default_016" speedFactor="0.98" vaporized="">
        <emissions CO_abs="9446.547961" CO2_abs="531917.188505" HC_abs="55.410168" PMx_abs="9.220141" NOx_abs="215.003027" fuel_abs="228.649928" electricity_abs="0"/>
    </tripinfo>
    <tripinfo id="carIn107282:1" depart="57749.00" departLane="-447569998#1_1" departPos="5.10" departSpeed="0.00" departDelay="0.00" arrival="57826.00" arrivalLane="315358242#0_1" arrivalPos="165.37" arrivalSpeed="13.32" duration="77.00" routeLength="448.50" waitingTime="27.00" waitingCount="1" stopTime="0.00" timeLoss="34.02" rerouteNo="1" devices="tripinfo_carIn107282:1 routing_carIn107282:1 emissions_carIn107282:1" vType="default_016" speedFactor="0.98" vaporized="">
        <emissions CO_abs="5493.531562" CO2_abs="168163.014265" HC_abs="28.931988" PMx_abs="3.259631" NOx_abs="70.893030" fuel_abs="72.288105" electricity_abs="0"/>
    </tripinfo>
    <tripinfo id="h20540c1:1" depart="57634.00" departLane="10425609#0_1" departPos="5.10" departSpeed="0.00" departDelay="0.50" arrival="57828.00" arrivalLane="-128361102#1_1" arrivalPos="274.68" arrivalSpeed="14.08" duration="194.00" routeLength="2113.04" waitingTime="18.00" waitingCount="3" stopTime="0.00" timeLoss="51.66" rerouteNo="1" devices="tripinfo_h20540c1:1 routing_h20540c1:1 emissions_h20540c1:1" vType="default_016" speedFactor="1.09" vaporized="">
        <emissions CO_abs="8962.524637" CO2_abs="554888.593906" HC_abs="53.890129" PMx_abs="10.069114" NOx_abs="226.849266" fuel_abs="238.523007" electricity_abs="0"/>
    </tripinfo>
    <tripinfo id="h3864c1:3" depart="57678.00" departLane="24693977#1_1" departPos="5.10" departSpeed="0.00" departDelay="0.00" arrival="57840.00" arrivalLane="201956820_1" arrivalPos="48.33" arrivalSpeed="15.40" duration="162.00" routeLength="1574.85" waitingTime="23.00" waitingCount="2" stopTime="0.00" timeLoss="53.98" rerouteNo="1" devices="tripinfo_h3864c1:3 routing_h3864c1:3 emissions_h3864c1:3" vType="default_016" speedFactor="1.20" vaporized="">
        <emissions CO_abs="9131.992562" CO2_abs="489716.184737" HC_abs="52.946851" PMx_abs="9.377046" NOx_abs="203.817801" fuel_abs="210.508367" electricity_abs="0"/>
    </tripinfo>
    <tripinfo id="carIn85747:1" depart="57673.00" departLane="128361109#1_1" departPos="5.10" departSpeed="0.00" departDelay="0.70" arrival="57844.00" arrivalLane="386687235_1" arrivalPos="80.84" arrivalSpeed="13.40" duration="171.00" routeLength="2088.57" waitingTime="6.00" waitingCount="1" stopTime="0.00" timeLoss="25.23" rerouteNo="1" devices="tripinfo_carIn85747:1 routing_carIn85747:1 emissions_carIn85747:1" vType="default_016" speedFactor="1.04" vaporized="">
        <emissions CO_abs="4778.621594" CO2_abs="421183.427367" HC_abs="31.420100" PMx_abs="6.723824" NOx_abs="164.636758" fuel_abs="181.048649" electricity_abs="0"/>
    </tripinfo>
    <tripinfo id="carIn8642:1" depart="57774.00" departLane="-447569998#1_1" departPos="5.10" departSpeed="0.00" departDelay="0.90" arrival="57853.00" arrivalLane="-315358244_1" arrivalPos="33.95" arrivalSpeed="14.43" duration="79.00" routeLength="706.49" waitingTime="7.00" waitingCount="2" stopTime="0.00" timeLoss="21.72" rerouteNo="1" devices="tripinfo_carIn8642:1 routing_carIn8642:1 emissions_carIn8642:1" vType="default_016" speedFactor="1.06" vaporized="">
        <emissions CO_abs="3472.515285" CO2_abs="190659.108539" HC_abs="20.260181" PMx_abs="3.414025" NOx_abs="78.164117" fuel_abs="81.956591" electricity_abs="0"/>
    </tripinfo>
    <tripinfo id="h5938c1:1" depart="57740.00" departLane="-26677542#0_1" departPos="5.10" departSpeed="0.00" departDelay="0.00" arrival="57856.00" arrivalLane="447569997#1_1" arrivalPos="180.93" arrivalSpeed="7.98" duration="116.00" routeLength="1093.64" waitingTime="1.00" waitingCount="1" stopTime="0.00" timeLoss="16.36" rerouteNo="1" devices="tripinfo_h5938c1:1 routing_h5938c1:1 emissions_h5938c1:1" vType="default_016" speedFactor="0.97" vaporized="">
        <emissions CO_abs="4107.095755" CO2_abs="251820.760213" HC_abs="24.520580" PMx_abs="4.001561" NOx_abs="100.138240" fuel_abs="108.247848" electricity_abs="0"/>
    </tripinfo>
    <tripinfo id="randUni14624:1" depart="57606.00" departLane="315358244_1" departPos="5.10" departSpeed="0.00" departDelay="0.80" arrival="57868.00" arrivalLane="-25149001#4_1" arrivalPos="105.67" arrivalSpeed="7.52" duration="262.00" routeLength="2803.98" waitingTime="10.00" waitingCount="2" stopTime="0.00" timeLoss="41.27" rerouteNo="1" devices="tripinfo_randUni14624:1 routing_randUni14624:1 emissions_randUni14624:1" vType="random_016" speedFactor="0.95" vaporized="">
        <emissions CO_abs="7282.399114" CO2_abs="566878.744928" HC_abs="46.274761" PMx_abs="8.687671" NOx_abs="221.247007" fuel_abs="243.677921" electricity_abs="0"/>
    </tripinfo>
    <tripinfo id="carIn12858:1" depart="57661.00" departLane="128361109#1_1" departPos="5.10" departSpeed="0.00" departDelay="0.90" arrival="57870.00" arrivalLane="399835085#1_1" arrivalPos="212.23" arrivalSpeed="9.32" duration="209.00" routeLength="1738.12" waitingTime="71.00" waitingCount="3" stopTime="0.00" timeLoss="106.14" rerouteNo="1" devices="tripinfo_carIn12858:1 routing_carIn12858:1 emissions_carIn12858:1" vType="default_016" speedFactor="1.12" vaporized="">
        <emissions CO_abs="18906.055635" CO2_abs="706094.951286" HC_abs="102.914540" PMx_abs="14.869972" NOx_abs="300.727828" fuel_abs="303.523592" electricity_abs="0"/>
    </tripinfo>
    <tripinfo id="carIn46110:1" depart="57684.00" departLane="315358244_1" departPos="5.10" departSpeed="0.00" departDelay="1.20" arrival="57873.00" arrivalLane="32978638#0_1" arrivalPos="49.29" arrivalSpeed="12.20" duration="189.00" routeLength="1764.04" waitingTime="33.00" waitingCount="2" stopTime="0.00" timeLoss="54.57" rerouteNo="1" devices="tripinfo_carIn46110:1 routing_carIn46110:1 emissions_carIn46110:1" vType="default_016" speedFactor="0.96" vaporized="">
        <emissions CO_abs="8503.842409" CO2_abs="449390.239941" HC_abs="49.167161" PMx_abs="7.556187" NOx_abs="179.987293" fuel_abs="193.175719" electricity_abs="0"/>
    </tripinfo>
    <tripinfo id="h3536c1:1" depart="57767.00" departLane="-24634413#2_1" departPos="5.10" departSpeed="0.00" departDelay="0.00" arrival="57874.00" arrivalLane="32978638#0_2" arrivalPos="49.29" arrivalSpeed="12.95" duration="107.00" routeLength="957.93" waitingTime="0.00" waitingCount="0" stopTime="0.00" timeLoss="17.69" rerouteNo="1" devices="tripinfo_h3536c1:1 routing_h3536c1:1 emissions_h3536c1:1" vType="default_016" speedFactor="1.02" vaporized="">
        <emissions CO_abs="4695.175504" CO2_abs="266899.796791" HC_abs="27.598315" PMx_abs="4.641676" NOx_abs="109.308804" fuel_abs="114.729352" electricity_abs="0"/>
    </tripinfo>
    <tripinfo id="50R_frequency3.17" depart="57674.00" departLane="-18809673#6_1" departPos="12.10" departSpeed="0.00" departDelay="0.70" arrival="57878.00" arrivalLane="201956811#0_1" arrivalPos="40.40" arrivalSpeed="13.45" duration="204.00" routeLength="1954.47" waitingTime="34.00" waitingCount="1" stopTime="0.00" timeLoss="58.96" rerouteNo="1" devices="tripinfo_50R_frequency3.17 routing_50R_frequency3.17 emissions_50R_frequency3.17" vType="bus" speedFactor="1.00" vaporized="">
        <emissions CO_abs="3931.282328" CO2_abs="2278899.650476" HC_abs="841.628870" PMx_abs="417.381377" NOx_abs="18180.100075" fuel_abs="971.865459" electricity_abs="0"/>
    </tripinfo>
    <tripinfo id="carIn70533:1" depart="57812.00" departLane="-447569998#1_1" departPos="5.10" departSpeed="0.00" departDelay="0.10" arrival="57883.00" arrivalLane="-315358244_1" arrivalPos="33.95" arrivalSpeed="14.94" duration="71.00" routeLength="706.49" waitingTime="2.00" waitingCount="1" stopTime="0.00" timeLoss="15.03" rerouteNo="1" devices="tripinfo_carIn70533:1 routing_carIn70533:1 emissions_carIn70533:1" vType="default_016" speedFactor="1.08" vaporized="">
        <emissions CO_abs="2943.135359" CO2_abs="193707.318871" HC_abs="17.916826" PMx_abs="3.221813" NOx_abs="77.506239" fuel_abs="83.266806" electricity_abs="0"/>
    </tripinfo>
    <tripinfo id="h3154c1:1" depart="57658.00" departLane="24634507_1" departPos="5.10" departSpeed="0.00" departDelay="0.00" arrival="57885.00" arrivalLane="-266565295#5_1" arrivalPos="172.76" arrivalSpeed="14.80" duration="227.00" routeLength="1206.22" waitingTime="123.00" waitingCount="2" stopTime="0.00" timeLoss="146.90" rerouteNo="1" devices="tripinfo_h3154c1:1 routing_h3154c1:1 emissions_h3154c1:1" vType="default_016" speedFactor="1.11" vaporized="">
        <emissions CO_abs="24661.341714" CO2_abs="662685.323636" HC_abs="127.748926" PMx_abs="14.238190" NOx_abs="286.829355" fuel_abs="284.868604" electricity_abs="0"/>
    </tripinfo>
    <tripinfo id="h6846c2:1" depart="57741.00" departLane="26677213#0_1" departPos="5.10" departSpeed="0.00" departDelay="0.00" arrival="57887.00" arrivalLane="386687235_1" arrivalPos="80.84" arrivalSpeed="14.90" duration="146.00" routeLength="1412.24" waitingTime="0.00" waitingCount="0" stopTime="0.00" timeLoss="20.00" rerouteNo="1" devices="tripinfo_h6846c2:1 routing_h6846c2:1 emissions_h6846c2:1" vType="default_016" speedFactor="1.09" vaporized="">
        <emissions CO_abs="6432.626256" CO2_abs="395679.265886" HC_abs="38.485356" PMx_abs="6.901761" NOx_abs="161.697719" fuel_abs="170.085958" electricity_abs="0"/>
    </tripinfo>
    <tripinfo id="h825c2:3" depart="57690.00" departLane="315358254#0_1" departPos="5.10" departSpeed="0.00" departDelay="0.50" arrival="57893.00" arrivalLane="32978638#0_1" arrivalPos="49.29" arrivalSpeed="13.74" duration="203.00" routeLength="2207.01" waitingTime="15.00" waitingCount="2" stopTime="0.00" timeLoss="40.54" rerouteNo="1" devices="tripinfo_h825c2:3 routing_h825c2:3 emissions_h825c2:3" vType="default_016" speedFactor="0.99" vaporized="">
        <emissions CO_abs="7216.161487" CO2_abs="478115.690819" HC_abs="44.010880" PMx_abs="8.088138" NOx_abs="191.656350" fuel_abs="205.522063" electricity_abs="0"/>
    </tripinfo>
    <tripinfo id="carIn7949:1" depart="57676.00" departLane="128361109#1_1" departPos="5.10" departSpeed="0.00" departDelay="2.10" arrival="57894.00" arrivalLane="386687235_1" arrivalPos="80.84" arrivalSpeed="13.35" duration="218.00" routeLength="2088.57" waitingTime="42.00" waitingCount="2" stopTime="0.00" timeLoss="66.11" rerouteNo="1" devices="tripinfo_carIn7949:1 routing_carIn7949:1 emissions_carIn7949:1" vType="default_016" speedFactor="1.00" vaporized="">
        <emissions CO_abs="11191.562797" CO2_abs="527245.937144" HC_abs="63.257881" PMx_abs="9.271825" NOx_abs="213.404992" fuel_abs="226.643371" electricity_abs="0"/>
    </tripinfo>
    <tripinfo id="h9953c2:3" depart="57682.00" departLane="-54169231#2_1" departPos="5.10" departSpeed="0.00" departDelay="0.00" arrival="57895.00" arrivalLane="386687235_1" arrivalPos="80.84" arrivalSpeed="11.08" duration="213.00" routeLength="1535.60" waitingTime="27.00" waitingCount="3" stopTime="0.00" timeLoss="62.54" rerouteNo="1" devices="tripinfo_h9953c2:3 routing_h9953c2:3 emissions_h9953c2:3" vType="default_016" speedFactor="0.83" vaporized="">
        <emissions CO_abs="9818.306368" CO2_abs="449983.305759" HC_abs="55.114474" PMx_abs="7.604921" NOx_abs="183.066904" fuel_abs="193.431445" electricity_abs="0"/>
    </tripinfo>