<?xml version="1.0" encoding="UTF-8"?>

<!-- generated on 2021-10-26 14:37:24 by Eclipse SUMO sumo Version 1.10.0
<configuration xmlns:xsi="http://www.w3.org/2001/XMLSchema-instance" xsi:noNamespaceSchemaLocation="http://sumo.dlr.de/xsd/sumoConfiguration.xsd">

    <input>
        <net-file value="/Users/behradkoohy/sumo-scratchpad/RESCO/environments/ingolstadt21/ingolstadt21.net.xml"/>
        <route-files value="/Users/behradkoohy/sumo-scratchpad/RESCO/environments/ingolstadt21/ingolstadt21.rou.xml"/>
    </input>

    <output>
        <tripinfo-output value="/Users/behradkoohy/sumo-scratchpad/RESCO/logs/STOCHASTIC-tr0-ingolstadt21-21-mplight-wait/tripinfo_72.xml"/>
        <tripinfo-output.write-unfinished value="true"/>
    </output>

    <time>
        <begin value="57600"/>
        <end value="61200"/>
    </time>

    <processing>
        <time-to-teleport value="-1"/>
    </processing>

    <report>
        <no-warnings value="true"/>
        <no-step-log value="true"/>
    </report>

    <emissions>
        <device.emissions.probability value="1"/>
    </emissions>

    <traci_server>
        <remote-port value="60450"/>
    </traci_server>

    <random_number>
        <random value="true"/>
    </random_number>

</configuration>
-->

<tripinfos xmlns:xsi="http://www.w3.org/2001/XMLSchema-instance" xsi:noNamespaceSchemaLocation="http://sumo.dlr.de/xsd/tripinfo_file.xsd">
    <tripinfo id="h15454c2:3" depart="57612.00" departLane="24608844_1" departPos="5.10" departSpeed="0.00" departDelay="0.50" arrival="57652.00" arrivalLane="32978638#0_1" arrivalPos="49.29" arrivalSpeed="13.42" duration="40.00" routeLength="354.79" waitingTime="0.00" waitingCount="0" stopTime="0.00" timeLoss="4.38" rerouteNo="1" devices="tripinfo_h15454c2:3 routing_h15454c2:3 emissions_h15454c2:3" vType="default_016" speedFactor="0.97" vaporized="">
        <emissions CO_abs="1665.739140" CO2_abs="95522.682403" HC_abs="9.803703" PMx_abs="1.590530" NOx_abs="38.615260" fuel_abs="41.061412" electricity_abs="0"/>
    </tripinfo>
    <tripinfo id="carIn60260:1" depart="57606.00" departLane="315358254#0_1" departPos="5.10" departSpeed="0.00" departDelay="0.90" arrival="57663.00" arrivalLane="399835085#1_1" arrivalPos="212.23" arrivalSpeed="7.38" duration="57.00" routeLength="430.98" waitingTime="0.00" waitingCount="0" stopTime="0.00" timeLoss="6.43" rerouteNo="1" devices="tripinfo_carIn60260:1 routing_carIn60260:1 emissions_carIn60260:1" vType="default_016" speedFactor="0.92" vaporized="">
        <emissions CO_abs="2366.385989" CO2_abs="114997.448843" HC_abs="13.411316" PMx_abs="1.816126" NOx_abs="46.184638" fuel_abs="49.433267" electricity_abs="0"/>
    </tripinfo>
    <tripinfo id="carIn53971:1" depart="57640.00" departLane="272042143_1" departPos="5.10" departSpeed="0.00" departDelay="0.80" arrival="57696.00" arrivalLane="24634414#1_1" arrivalPos="162.19" arrivalSpeed="6.95" duration="56.00" routeLength="493.04" waitingTime="0.00" waitingCount="0" stopTime="0.00" timeLoss="7.29" rerouteNo="1" devices="tripinfo_carIn53971:1 routing_carIn53971:1 emissions_carIn53971:1" vType="default_016" speedFactor="0.94" vaporized="">
        <emissions CO_abs="2248.937762" CO2_abs="126472.283180" HC_abs="13.180615" PMx_abs="2.131995" NOx_abs="51.380082" fuel_abs="54.365407" electricity_abs="0"/>
    </tripinfo>
    <tripinfo id="h3688c1:1" depart="57625.00" departLane="201201950#1_1" departPos="5.10" departSpeed="0.00" departDelay="0.00" arrival="57714.00" arrivalLane="32978638#0_1" arrivalPos="49.29" arrivalSpeed="15.64" duration="89.00" routeLength="1089.75" waitingTime="3.00" waitingCount="1" stopTime="0.00" timeLoss="18.38" rerouteNo="1" devices="tripinfo_h3688c1:1 routing_h3688c1:1 emissions_h3688c1:1" vType="default_016" speedFactor="1.13" vaporized="">
        <emissions CO_abs="3586.204216" CO2_abs="280871.972900" HC_abs="22.712437" PMx_abs="4.859650" NOx_abs="112.317263" fuel_abs="120.734522" electricity_abs="0"/>
    </tripinfo>
    <tripinfo id="carIn22761:1" depart="57616.00" departLane="-306240162#1_0" departPos="5.10" departSpeed="0.00" departDelay="2.10" arrival="57716.00" arrivalLane="399835085#1_1" arrivalPos="212.23" arrivalSpeed="6.95" duration="100.00" routeLength="1093.26" waitingTime="0.00" waitingCount="0" stopTime="0.00" timeLoss="17.98" rerouteNo="1" devices="tripinfo_carIn22761:1 routing_carIn22761:1 emissions_carIn22761:1" vType="default_016" speedFactor="0.95" vaporized="">
        <emissions CO_abs="4815.135103" CO2_abs="303503.347601" HC_abs="29.083969" PMx_abs="5.565507" NOx_abs="124.214708" fuel_abs="130.463040" electricity_abs="0"/>
    </tripinfo>
    <tripinfo id="h7800c1:5" depart="57696.00" departLane="-447569998#1_1" departPos="5.10" departSpeed="0.00" departDelay="0.00" arrival="57721.00" arrivalLane="-447569998#1_1" arrivalPos="180.76" arrivalSpeed="7.91" duration="25.00" routeLength="175.66" waitingTime="0.00" waitingCount="0" stopTime="0.00" timeLoss="2.56" rerouteNo="1" devices="tripinfo_h7800c1:5 routing_h7800c1:5 emissions_h7800c1:5" vType="default_016" speedFactor="0.96" vaporized="">
        <emissions CO_abs="1092.557626" CO2_abs="48519.717960" HC_abs="6.087085" PMx_abs="0.788048" NOx_abs="19.717795" fuel_abs="20.856919" electricity_abs="0"/>
    </tripinfo>
    <tripinfo id="carIn121703:1" depart="57647.00" departLane="386687232#0_1" departPos="5.10" departSpeed="0.00" departDelay="0.30" arrival="57735.00" arrivalLane="-315358244_1" arrivalPos="33.95" arrivalSpeed="13.63" duration="88.00" routeLength="1157.39" waitingTime="0.00" waitingCount="0" stopTime="0.00" timeLoss="8.41" rerouteNo="1" devices="tripinfo_carIn121703:1 routing_carIn121703:1 emissions_carIn121703:1" vType="default_016" speedFactor="1.06" vaporized="">
        <emissions CO_abs="2296.802212" CO2_abs="212314.470686" HC_abs="15.362325" PMx_abs="3.376786" NOx_abs="82.780479" fuel_abs="91.264807" electricity_abs="0"/>
    </tripinfo>
    <tripinfo id="h4538c1:1" depart="57701.00" departLane="-10427692#1_1" departPos="5.10" departSpeed="0.00" departDelay="0.00" arrival="57735.00" arrivalLane="-128361102#1_1" arrivalPos="274.68" arrivalSpeed="15.09" duration="34.00" routeLength="440.74" waitingTime="0.00" waitingCount="0" stopTime="0.00" timeLoss="6.53" rerouteNo="1" devices="tripinfo_h4538c1:1 routing_h4538c1:1 emissions_h4538c1:1" vType="default_016" speedFactor="1.14" vaporized="">
        <emissions CO_abs="1518.452652" CO2_abs="103840.260652" HC_abs="9.278505" PMx_abs="1.880420" NOx_abs="42.288975" fuel_abs="44.636379" electricity_abs="0"/>
    </tripinfo>
    <tripinfo id="h3568c1:3" depart="57656.00" departLane="266565295#5_1" departPos="5.10" departSpeed="0.00" departDelay="0.80" arrival="57742.00" arrivalLane="-24634415_1" arrivalPos="62.03" arrivalSpeed="14.32" duration="86.00" routeLength="807.40" waitingTime="4.00" waitingCount="1" stopTime="0.00" timeLoss="26.03" rerouteNo="1" devices="tripinfo_h3568c1:3 routing_h3568c1:3 emissions_h3568c1:3" vType="default_016" speedFactor="1.07" vaporized="">
        <emissions CO_abs="4857.321797" CO2_abs="282741.203058" HC_abs="28.820919" PMx_abs="5.496145" NOx_abs="119.213480" fuel_abs="121.537976" electricity_abs="0"/>
    </tripinfo>
    <tripinfo id="carIn30817:1" depart="57681.00" departLane="315358244_1" departPos="5.10" departSpeed="0.00" departDelay="0.20" arrival="57742.00" arrivalLane="447569997#1_1" arrivalPos="180.93" arrivalSpeed="8.50" duration="61.00" routeLength="718.04" waitingTime="0.00" waitingCount="0" stopTime="0.00" timeLoss="6.35" rerouteNo="1" devices="tripinfo_carIn30817:1 routing_carIn30817:1 emissions_carIn30817:1" vType="default_016" speedFactor="1.13" vaporized="">
        <emissions CO_abs="1897.958245" CO2_abs="136405.145610" HC_abs="11.721636" PMx_abs="2.220995" NOx_abs="53.973917" fuel_abs="58.634895" electricity_abs="0"/>
    </tripinfo>
    <tripinfo id="h317c2:1" depart="57707.00" departLane="-32978638#0_1" departPos="5.10" departSpeed="0.00" departDelay="0.10" arrival="57742.00" arrivalLane="-266565295#5_1" arrivalPos="172.76" arrivalSpeed="12.50" duration="35.00" routeLength="370.53" waitingTime="0.00" waitingCount="0" stopTime="0.00" timeLoss="5.18" rerouteNo="1" devices="tripinfo_h317c2:1 routing_h317c2:1 emissions_h317c2:1" vType="default_016" speedFactor="0.92" vaporized="">
        <emissions CO_abs="1635.188814" CO2_abs="100085.318528" HC_abs="9.799035" PMx_abs="1.787482" NOx_abs="41.125340" fuel_abs="43.022442" electricity_abs="0"/>
    </tripinfo>
    <tripinfo id="carIn80064:1" depart="57603.00" departLane="128361109#1_1" departPos="5.10" departSpeed="0.00" departDelay="0.40" arrival="57762.00" arrivalLane="-315358254#1_1" arrivalPos="137.16" arrivalSpeed="12.15" duration="159.00" routeLength="1587.97" waitingTime="31.00" waitingCount="2" stopTime="0.00" timeLoss="65.35" rerouteNo="1" devices="tripinfo_carIn80064:1 routing_carIn80064:1 emissions_carIn80064:1" vType="default_016" speedFactor="0.95" vaporized="">
        <emissions CO_abs="10198.617801" CO2_abs="500138.443042" HC_abs="58.342492" PMx_abs="9.774711" NOx_abs="207.742487" fuel_abs="214.989126" electricity_abs="0"/>
    </tripinfo>
    <tripinfo id="h3326c1:2" depart="57656.00" departLane="22716069#0_1" departPos="5.10" departSpeed="0.00" departDelay="0.00" arrival="57764.00" arrivalLane="24634517#13_1" arrivalPos="111.62" arrivalSpeed="14.24" duration="108.00" routeLength="1312.81" waitingTime="0.00" waitingCount="0" stopTime="0.00" timeLoss="14.41" rerouteNo="1" devices="tripinfo_h3326c1:2 routing_h3326c1:2 emissions_h3326c1:2" vType="default_016" speedFactor="1.04" vaporized="">
        <emissions CO_abs="4033.478738" CO2_abs="302130.697828" HC_abs="25.445426" PMx_abs="5.186022" NOx_abs="121.564191" fuel_abs="129.872868" electricity_abs="0"/>
    </tripinfo>
    <tripinfo id="carIn27009:1" depart="57673.00" departLane="-447569998#1_1" departPos="5.10" departSpeed="0.00" departDelay="0.50" arrival="57783.00" arrivalLane="-26677539_1" arrivalPos="152.75" arrivalSpeed="7.21" duration="110.00" routeLength="699.63" waitingTime="0.00" waitingCount="0" stopTime="0.00" timeLoss="15.32" rerouteNo="1" devices="tripinfo_carIn27009:1 routing_carIn27009:1 emissions_carIn27009:1" vType="default_015" speedFactor="0.88" vaporized="">
        <emissions CO_abs="4623.576662" CO2_abs="190274.183464" HC_abs="25.412666" PMx_abs="3.145699" NOx_abs="77.839585" fuel_abs="81.792365" electricity_abs="0"/>
    </tripinfo>
    <tripinfo id="h7181c1:1" depart="57660.00" departLane="315358254#0_1" departPos="5.10" departSpeed="0.00" departDelay="0.10" arrival="57785.00" arrivalLane="306240162#0_0" arrivalPos="220.43" arrivalSpeed="15.56" duration="125.00" routeLength="932.35" waitingTime="56.00" waitingCount="1" stopTime="0.00" timeLoss="70.24" rerouteNo="1" devices="tripinfo_h7181c1:1 routing_h7181c1:1 emissions_h7181c1:1" vType="default_016" speedFactor="0.95" vaporized="">
        <emissions CO_abs="11993.191501" CO2_abs="388950.151991" HC_abs="63.729080" PMx_abs="8.128333" NOx_abs="165.121923" fuel_abs="167.196446" electricity_abs="0"/>
    </tripinfo>
    <tripinfo id="h5979c1:5" depart="57669.00" departLane="399835085#1_1" departPos="5.10" departSpeed="0.00" departDelay="0.00" arrival="57787.00" arrivalLane="-315358254#1_1" arrivalPos="137.16" arrivalSpeed="12.69" duration="118.00" routeLength="659.33" waitingTime="24.00" waitingCount="3" stopTime="0.00" timeLoss="44.50" rerouteNo="1" devices="tripinfo_h5979c1:5 routing_h5979c1:5 emissions_h5979c1:5" vType="default_016" speedFactor="1.00" vaporized="">
        <emissions CO_abs="7391.287157" CO2_abs="250295.059841" HC_abs="39.429465" PMx_abs="4.479715" NOx_abs="103.736811" fuel_abs="107.593975" electricity_abs="0"/>
    </tripinfo>
    <tripinfo id="h11737c1:1" depart="57665.00" departLane="272042143_1" departPos="5.10" departSpeed="0.00" departDelay="1.50" arrival="57806.00" arrivalLane="-315358254#1_1" arrivalPos="137.16" arrivalSpeed="15.00" duration="141.00" routeLength="1596.88" waitingTime="13.00" waitingCount="2" stopTime="0.00" timeLoss="37.13" rerouteNo="1" devices="tripinfo_h11737c1:1 routing_h11737c1:1 emissions_h11737c1:1" vType="default_016" speedFactor="1.12" vaporized="">
        <emissions CO_abs="5547.821197" CO2_abs="377034.788304" HC_abs="33.982685" PMx_abs="6.643892" NOx_abs="152.011777" fuel_abs="162.071117" electricity_abs="0"/>
    </tripinfo>
    <tripinfo id="carIn129809:1" depart="57729.00" departLane="-447569998#1_1" departPos="5.10" departSpeed="0.00" departDelay="1.00" arrival="57807.00" arrivalLane="-315358244_1" arrivalPos="33.95" arrivalSpeed="12.98" duration="78.00" routeLength="706.49" waitingTime="3.00" waitingCount="1" stopTime="0.00" timeLoss="18.59" rerouteNo="1" devices="tripinfo_carIn129809:1 routing_carIn129809:1 emissions_carIn129809:1" vType="default_015" speedFactor="1.02" vaporized="">
        <emissions CO_abs="2984.780831" CO2_abs="177090.406705" HC_abs="17.676958" PMx_abs="2.957725" NOx_abs="71.163651" fuel_abs="76.124082" electricity_abs="0"/>
    </tripinfo>
    <tripinfo id="h3154c1:1" depart="57658.00" departLane="24634507_1" departPos="5.10" departSpeed="0.00" departDelay="0.00" arrival="57808.00" arrivalLane="-266565295#5_1" arrivalPos="172.76" arrivalSpeed="12.01" duration="150.00" routeLength="1206.22" waitingTime="27.00" waitingCount="2" stopTime="0.00" timeLoss="53.56" rerouteNo="1" devices="tripinfo_h3154c1:1 routing_h3154c1:1 emissions_h3154c1:1" vType="default_016" speedFactor="0.92" vaporized="">
        <emissions CO_abs="8025.209895" CO2_abs="353046.156467" HC_abs="44.815255" PMx_abs="6.523963" NOx_abs="146.579369" fuel_abs="151.761185" electricity_abs="0"/>
    </tripinfo>
    <tripinfo id="carIn126288:1" depart="57674.00" departLane="272042143_1" departPos="5.10" departSpeed="0.00" departDelay="0.00" arrival="57808.00" arrivalLane="-315358254#1_1" arrivalPos="137.16" arrivalSpeed="16.37" duration="134.00" routeLength="1596.88" waitingTime="9.00" waitingCount="1" stopTime="0.00" timeLoss="36.84" rerouteNo="1" devices="tripinfo_carIn126288:1 routing_carIn126288:1 emissions_carIn126288:1" vType="default_016" speedFactor="1.20" vaporized="">
        <emissions CO_abs="6040.150271" CO2_abs="412468.256548" HC_abs="37.157470" PMx_abs="7.551723" NOx_abs="168.256227" fuel_abs="177.301989" electricity_abs="0"/>
    </tripinfo>
    <tripinfo id="carIn82278:1" depart="57702.00" departLane="-306240162#1_0" departPos="5.10" departSpeed="0.00" departDelay="0.70" arrival="57810.00" arrivalLane="399835085#1_1" arrivalPos="212.23" arrivalSpeed="7.35" duration="108.00" routeLength="1093.26" waitingTime="0.00" waitingCount="0" stopTime="0.00" timeLoss="20.64" rerouteNo="1" devices="tripinfo_carIn82278:1 routing_carIn82278:1 emissions_carIn82278:1" vType="default_016" speedFactor="0.89" vaporized="">
        <emissions CO_abs="5009.522324" CO2_abs="298521.153298" HC_abs="29.821376" PMx_abs="5.436926" NOx_abs="122.223142" fuel_abs="128.321668" electricity_abs="0"/>
    </tripinfo>
    <tripinfo id="h330c1:1" depart="57736.00" departLane="-32978638#0_1" departPos="5.10" departSpeed="0.00" departDelay="0.20" arrival="57815.00" arrivalLane="-266565295#5_1" arrivalPos="172.76" arrivalSpeed="12.86" duration="79.00" routeLength="370.53" waitingTime="43.00" waitingCount="1" stopTime="0.00" timeLoss="51.51" rerouteNo="1" devices="tripinfo_h330c1:1 routing_h330c1:1 emissions_h330c1:1" vType="default_016" speedFactor="1.00" vaporized="">
        <emissions CO_abs="8035.690238" CO2_abs="218898.542931" HC_abs="41.744995" PMx_abs="4.654388" NOx_abs="94.730061" fuel_abs="94.097898" electricity_abs="0"/>
    </tripinfo>
    <tripinfo id="randUni15030:1" depart="57735.00" departLane="386687232#0_1" departPos="5.10" departSpeed="0.00" departDelay="0.10" arrival="57835.00" arrivalLane="26677539_1" arrivalPos="151.98" arrivalSpeed="7.03" duration="100.00" routeLength="919.89" waitingTime="0.00" waitingCount="0" stopTime="0.00" timeLoss="10.83" rerouteNo="1" devices="tripinfo_randUni15030:1 routing_randUni15030:1 emissions_randUni15030:1" vType="random_016" speedFactor="0.94" vaporized="">
        <emissions CO_abs="3554.130674" CO2_abs="209304.926733" HC_abs="21.018524" PMx_abs="3.327002" NOx_abs="83.542936" fuel_abs="89.972051" electricity_abs="0"/>
    </tripinfo>
    <tripinfo id="carIn81860:1" depart="57712.00" departLane="128361102#0_1" departPos="5.10" departSpeed="0.00" departDelay="0.60" arrival="57837.00" arrivalLane="-24634517#17_1" arrivalPos="6.43" arrivalSpeed="6.52" duration="125.00" routeLength="1229.64" waitingTime="15.00" waitingCount="1" stopTime="0.00" timeLoss="35.01" rerouteNo="1" devices="tripinfo_carIn81860:1 routing_carIn81860:1 emissions_carIn81860:1" vType="default_016" speedFactor="1.00" vaporized="">
        <emissions CO_abs="5384.418796" CO2_abs="288455.843105" HC_abs="31.238207" PMx_abs="5.081906" NOx_abs="117.168059" fuel_abs="123.995724" electricity_abs="0"/>
    </tripinfo>
    <tripinfo id="h9953c2:3" depart="57682.00" departLane="-54169231#2_1" departPos="5.10" departSpeed="0.00" departDelay="0.00" arrival="57843.00" arrivalLane="386687235_1" arrivalPos="80.84" arrivalSpeed="14.41" duration="161.00" routeLength="1535.60" waitingTime="13.00" waitingCount="1" stopTime="0.00" timeLoss="42.79" rerouteNo="1" devices="tripinfo_h9953c2:3 routing_h9953c2:3 emissions_h9953c2:3" vType="default_016" speedFactor="1.06" vaporized="">
        <emissions CO_abs="7710.367319" CO2_abs="436305.462725" HC_abs="45.254174" PMx_abs="7.737510" NOx_abs="178.289100" fuel_abs="187.549879" electricity_abs="0"/>
    </tripinfo>
    <tripinfo id="carIn50326:1" depart="57651.00" departLane="128361102#0_1" departPos="5.10" departSpeed="0.00" departDelay="0.30" arrival="57846.00" arrivalLane="18809673#0_1" arrivalPos="473.56" arrivalSpeed="13.00" duration="195.00" routeLength="1591.07" waitingTime="37.00" waitingCount="1" stopTime="0.00" timeLoss="56.38" rerouteNo="1" devices="tripinfo_carIn50326:1 routing_carIn50326:1 emissions_carIn50326:1" vType="default_016" speedFactor="0.94" vaporized="">
        <emissions CO_abs="10243.737795" CO2_abs="429174.720774" HC_abs="56.617606" PMx_abs="7.543057" NOx_abs="175.271694" fuel_abs="184.487027" electricity_abs="0"/>
    </tripinfo>
    <tripinfo id="h5938c1:1" depart="57740.00" departLane="-26677542#0_1" departPos="5.10" departSpeed="0.00" departDelay="0.00" arrival="57846.00" arrivalLane="447569997#1_1" arrivalPos="180.93" arrivalSpeed="8.48" duration="106.00" routeLength="1093.64" waitingTime="0.00" waitingCount="0" stopTime="0.00" timeLoss="10.31" rerouteNo="1" devices="tripinfo_h5938c1:1 routing_h5938c1:1 emissions_h5938c1:1" vType="default_016" speedFactor="1.02" vaporized="">
        <emissions CO_abs="3409.092532" CO2_abs="240811.264254" HC_abs="21.086048" PMx_abs="3.664161" NOx_abs="94.169471" fuel_abs="103.515161" electricity_abs="0"/>
    </tripinfo>
    <tripinfo id="h16072c2:3" depart="57663.00" departLane="315358254#0_1" departPos="5.10" departSpeed="0.00" departDelay="2.50" arrival="57847.00" arrivalLane="386687235_1" arrivalPos="80.84" arrivalSpeed="10.97" duration="184.00" routeLength="1611.92" waitingTime="28.00" waitingCount="1" stopTime="0.00" timeLoss="42.99" rerouteNo="1" devices="tripinfo_h16072c2:3 routing_h16072c2:3 emissions_h16072c2:3" vType="default_016" speedFactor="0.83" vaporized="">
        <emissions CO_abs="7658.570761" CO2_abs="360386.425207" HC_abs="43.205144" PMx_abs="5.959451" NOx_abs="144.695918" fuel_abs="154.917144" electricity_abs="0"/>
    </tripinfo>
    <tripinfo id="h17600c1:1" depart="57662.00" departLane="272042143_1" departPos="5.10" departSpeed="0.00" departDelay="0.30" arrival="57852.00" arrivalLane="201238729#3_1" arrivalPos="431.02" arrivalSpeed="11.44" duration="190.00" routeLength="2100.26" waitingTime="0.00" waitingCount="0" stopTime="0.00" timeLoss="14.06" rerouteNo="1" devices="tripinfo_h17600c1:1 routing_h17600c1:1 emissions_h17600c1:1" vType="default_016" speedFactor="0.86" vaporized="">
        <emissions CO_abs="4457.051382" CO2_abs="390244.301510" HC_abs="29.259254" PMx_abs="5.464174" NOx_abs="149.274311" fuel_abs="167.750305" electricity_abs="0"/>
    </tripinfo>
    <tripinfo id="carIn12365:1" depart="57713.00" departLane="315358244_1" departPos="5.10" departSpeed="0.00" departDelay="0.50" arrival="57853.00" arrivalLane="447569997#1_1" arrivalPos="180.93" arrivalSpeed="8.40" duration="140.00" routeLength="718.04" waitingTime="68.00" waitingCount="1" stopTime="0.00" timeLoss="80.58" rerouteNo="1" devices="tripinfo_carIn12365:1 routing_carIn12365:1 emissions_carIn12365:1" vType="default_016" speedFactor="1.05" vaporized="">
        <emissions CO_abs="13297.361392" CO2_abs="351303.819093" HC_abs="68.783251" PMx_abs="7.341412" NOx_abs="151.302217" fuel_abs="151.015471" electricity_abs="0"/>
    </tripinfo>
    <tripinfo id="carIn73855:1" depart="57743.00" departLane="386687232#0_1" departPos="5.10" departSpeed="0.00" departDelay="0.50" arrival="57854.00" arrivalLane="-315358244_1" arrivalPos="33.95" arrivalSpeed="11.91" duration="111.00" routeLength="1157.39" waitingTime="3.00" waitingCount="1" stopTime="0.00" timeLoss="18.79" rerouteNo="1" devices="tripinfo_carIn73855:1 routing_carIn73855:1 emissions_carIn73855:1" vType="default_016" speedFactor="0.91" vaporized="">
        <emissions CO_abs="3471.866359" CO2_abs="250350.566504" HC_abs="21.635779" PMx_abs="4.018621" NOx_abs="99.363636" fuel_abs="107.615334" electricity_abs="0"/>
    </tripinfo>
    <tripinfo id="randUni31145:1" depart="57814.00" departLane="10425609#0_1" departPos="5.10" departSpeed="0.00" departDelay="0.30" arrival="57856.00" arrivalLane="201956810_1" arrivalPos="71.65" arrivalSpeed="11.21" duration="42.00" routeLength="255.78" waitingTime="9.00" waitingCount="1" stopTime="0.00" timeLoss="18.98" rerouteNo="1" devices="tripinfo_randUni31145:1 routing_randUni31145:1 emissions_randUni31145:1" vType="random_016" speedFactor="0.85" vaporized="">
        <emissions CO_abs="2368.712183" CO2_abs="106403.806251" HC_abs="13.285316" PMx_abs="2.013071" NOx_abs="44.770937" fuel_abs="45.738826" electricity_abs="0"/>
    </tripinfo>
    <tripinfo id="carIn86816:1" depart="57617.00" departLane="128361102#0_1" departPos="5.10" departSpeed="0.00" departDelay="0.80" arrival="57865.00" arrivalLane="201956811#0_1" arrivalPos="40.40" arrivalSpeed="12.55" duration="248.00" routeLength="2067.33" waitingTime="61.00" waitingCount="1" stopTime="0.00" timeLoss="85.30" rerouteNo="1" devices="tripinfo_carIn86816:1 routing_carIn86816:1 emissions_carIn86816:1" vType="default_016" speedFactor="0.93" vaporized="">
        <emissions CO_abs="15162.355480" CO2_abs="589354.997516" HC_abs="82.798512" PMx_abs="10.798021" NOx_abs="242.830888" fuel_abs="253.343198" electricity_abs="0"/>
    </tripinfo>
    <tripinfo id="carIn107282:1" depart="57749.00" departLane="-447569998#1_1" departPos="5.10" departSpeed="0.00" departDelay="0.00" arrival="57868.00" arrivalLane="315358242#0_1" arrivalPos="165.37" arrivalSpeed="11.06" duration="119.00" routeLength="448.50" waitingTime="63.00" waitingCount="1" stopTime="0.00" timeLoss="72.03" rerouteNo="1" devices="tripinfo_carIn107282:1 routing_carIn107282:1 emissions_carIn107282:1" vType="default_016" speedFactor="0.89" vaporized="">
        <emissions CO_abs="12222.737201" CO2_abs="275286.832903" HC_abs="62.081813" PMx_abs="5.936635" NOx_abs="120.199676" fuel_abs="118.339156" electricity_abs="0"/>
    </tripinfo>
    <tripinfo id="h9563c2:5" depart="57631.00" departLane="315358244_1" departPos="5.10" departSpeed="0.00" departDelay="0.70" arrival="57870.00" arrivalLane="386687235_1" arrivalPos="80.84" arrivalSpeed="13.03" duration="239.00" routeLength="1186.14" waitingTime="121.00" waitingCount="4" stopTime="0.00" timeLoss="150.92" rerouteNo="1" devices="tripinfo_h9563c2:5 routing_h9563c2:5 emissions_h9563c2:5" vType="default_016" speedFactor="0.99" vaporized="">
        <emissions CO_abs="21934.773960" CO2_abs="588661.398962" HC_abs="113.687314" PMx_abs="12.309199" NOx_abs="253.136301" fuel_abs="253.048447" electricity_abs="0"/>
    </tripinfo>
    <tripinfo id="h7097c1:1" depart="57670.00" departLane="315358242#0_1" departPos="5.10" departSpeed="0.00" departDelay="0.60" arrival="57870.00" arrivalLane="306240162#0_0" arrivalPos="220.43" arrivalSpeed="15.20" duration="200.00" routeLength="2586.94" waitingTime="0.00" waitingCount="0" stopTime="0.00" timeLoss="18.54" rerouteNo="1" devices="tripinfo_h7097c1:1 routing_h7097c1:1 emissions_h7097c1:1" vType="default_016" speedFactor="0.95" vaporized="">
        <emissions CO_abs="5877.467008" CO2_abs="513343.057737" HC_abs="38.685587" PMx_abs="8.523344" NOx_abs="202.516334" fuel_abs="220.663700" electricity_abs="0"/>
    </tripinfo>
    <tripinfo id="h17890c1:3" depart="57792.00" departLane="386687232#0_1" departPos="5.10" departSpeed="0.00" departDelay="0.00" arrival="57870.00" arrivalLane="32978638#0_1" arrivalPos="49.29" arrivalSpeed="13.85" duration="78.00" routeLength="792.72" waitingTime="7.00" waitingCount="1" stopTime="0.00" timeLoss="20.64" rerouteNo="1" devices="tripinfo_h17890c1:3 routing_h17890c1:3 emissions_h17890c1:3" vType="default_016" speedFactor="1.03" vaporized="">
        <emissions CO_abs="3801.807761" CO2_abs="238149.586516" HC_abs="22.841388" PMx_abs="4.231940" NOx_abs="97.080057" fuel_abs="102.370434" electricity_abs="0"/>
    </tripinfo>
    <tripinfo id="randUni2407:1" depart="57820.00" departLane="10425609#0_1" departPos="5.10" departSpeed="0.00" departDelay="0.80" arrival="57872.00" arrivalLane="201956810_1" arrivalPos="71.65" arrivalSpeed="12.95" duration="52.00" routeLength="255.78" waitingTime="16.00" waitingCount="2" stopTime="0.00" timeLoss="31.72" rerouteNo="1" devices="tripinfo_randUni2407:1 routing_randUni2407:1 emissions_randUni2407:1" vType="random_016" speedFactor="1.00" vaporized="">
        <emissions CO_abs="3527.563046" CO2_abs="133881.753510" HC_abs="19.219160" PMx_abs="2.695147" NOx_abs="57.363518" fuel_abs="57.550740" electricity_abs="0"/>
    </tripinfo>
    <tripinfo id="carIn107084:1" depart="57601.00" departLane="124812856#0_1" departPos="5.10" departSpeed="0.00" departDelay="0.70" arrival="57877.00" arrivalLane="-128361102#1_1" arrivalPos="274.68" arrivalSpeed="12.90" duration="276.00" routeLength="2250.49" waitingTime="75.00" waitingCount="3" stopTime="0.00" timeLoss="110.57" rerouteNo="1" devices="tripinfo_carIn107084:1 routing_carIn107084:1 emissions_carIn107084:1" vType="default_016" speedFactor="0.99" vaporized="">
        <emissions CO_abs="18115.926074" CO2_abs="710168.948293" HC_abs="99.089526" PMx_abs="13.415550" NOx_abs="294.952568" fuel_abs="305.276176" electricity_abs="0"/>
    </tripinfo>
    <tripinfo id="carIn126378:1" depart="57746.00" departLane="386687232#0_1" departPos="5.10" departSpeed="0.00" departDelay="1.80" arrival="57878.00" arrivalLane="-315358244_1" arrivalPos="33.95" arrivalSpeed="12.60" duration="132.00" routeLength="1157.39" waitingTime="30.00" waitingCount="1" stopTime="0.00" timeLoss="44.03" rerouteNo="1" devices="tripinfo_carIn126378:1 routing_carIn126378:1 emissions_carIn126378:1" vType="default_016" speedFactor="0.96" vaporized="">
        <emissions CO_abs="7324.725154" CO2_abs="324922.118675" HC_abs="40.923177" PMx_abs="5.748341" NOx_abs="132.234123" fuel_abs="139.672167" electricity_abs="0"/>
    </tripinfo>
    <tripinfo id="carIn99509:1" depart="57720.00" departLane="-32978638#0_1" departPos="5.10" departSpeed="0.00" departDelay="0.20" arrival="57880.00" arrivalLane="-315358244_1" arrivalPos="33.95" arrivalSpeed="12.18" duration="160.00" routeLength="1785.24" waitingTime="9.00" waitingCount="1" stopTime="0.00" timeLoss="25.90" rerouteNo="1" devices="tripinfo_carIn99509:1 routing_carIn99509:1 emissions_carIn99509:1" vType="default_015" speedFactor="0.97" vaporized="">
        <emissions CO_abs="4637.862438" CO2_abs="353406.790390" HC_abs="29.359487" PMx_abs="5.661506" NOx_abs="139.295546" fuel_abs="151.914819" electricity_abs="0"/>
    </tripinfo>
    <tripinfo id="carIn7949:1" depart="57676.00" departLane="128361109#1_1" departPos="5.10" departSpeed="0.00" departDelay="2.10" arrival="57881.00" arrivalLane="386687235_1" arrivalPos="80.84" arrivalSpeed="14.27" duration="205.00" routeLength="2088.57" waitingTime="46.00" waitingCount="1" stopTime="0.00" timeLoss="64.69" rerouteNo="1" devices="tripinfo_carIn7949:1 routing_carIn7949:1 emissions_carIn7949:1" vType="default_016" speedFactor="1.07" vaporized="">
        <emissions CO_abs="11147.572612" CO2_abs="512834.024048" HC_abs="62.577704" PMx_abs="9.180059" NOx_abs="207.472148" fuel_abs="220.448288" electricity_abs="0"/>
    </tripinfo>
    <tripinfo id="h645c1:1" depart="57622.00" departLane="266565295#5_1" departPos="5.10" departSpeed="0.00" departDelay="0.40" arrival="57883.00" arrivalLane="-315358244_1" arrivalPos="33.95" arrivalSpeed="12.63" duration="261.00" routeLength="1910.83" waitingTime="81.00" waitingCount="3" stopTime="0.00" timeLoss="112.47" rerouteNo="1" devices="tripinfo_h645c1:1 routing_h645c1:1 emissions_h645c1:1" vType="default_016" speedFactor="0.93" vaporized="">
        <emissions CO_abs="16618.422412" CO2_abs="586763.498501" HC_abs="89.354097" PMx_abs="10.923954" NOx_abs="242.949560" fuel_abs="252.230234" electricity_abs="0"/>
    </tripinfo>
    <tripinfo id="carIn85747:1" depart="57673.00" departLane="128361109#1_1" departPos="5.10" departSpeed="0.00" departDelay="0.70" arrival="57885.00" arrivalLane="386687235_1" arrivalPos="80.84" arrivalSpeed="13.28" duration="212.00" routeLength="2088.57" waitingTime="43.00" waitingCount="2" stopTime="0.00" timeLoss="63.84" rerouteNo="1" devices="tripinfo_carIn85747:1 routing_carIn85747:1 emissions_carIn85747:1" vType="default_016" speedFactor="1.02" vaporized="">
        <emissions CO_abs="10823.025706" CO2_abs="512818.070230" HC_abs="61.267701" PMx_abs="9.031320" NOx_abs="207.203149" fuel_abs="220.441344" electricity_abs="0"/>
    </tripinfo>