<?xml version="1.0" encoding="UTF-8"?>

<!-- generated on 2021-10-26 14:47:30 by Eclipse SUMO sumo Version 1.10.0
<configuration xmlns:xsi="http://www.w3.org/2001/XMLSchema-instance" xsi:noNamespaceSchemaLocation="http://sumo.dlr.de/xsd/sumoConfiguration.xsd">

    <input>
        <net-file value="/Users/behradkoohy/sumo-scratchpad/RESCO/environments/ingolstadt21/ingolstadt21.net.xml"/>
        <route-files value="/Users/behradkoohy/sumo-scratchpad/RESCO/environments/ingolstadt21/ingolstadt21.rou.xml"/>
    </input>

    <output>
        <tripinfo-output value="/Users/behradkoohy/sumo-scratchpad/RESCO/logs/STOCHASTIC-tr0-ingolstadt21-21-mplight-wait/tripinfo_88.xml"/>
        <tripinfo-output.write-unfinished value="true"/>
    </output>

    <time>
        <begin value="57600"/>
        <end value="61200"/>
    </time>

    <processing>
        <time-to-teleport value="-1"/>
    </processing>

    <report>
        <no-warnings value="true"/>
        <no-step-log value="true"/>
    </report>

    <emissions>
        <device.emissions.probability value="1"/>
    </emissions>

    <traci_server>
        <remote-port value="60724"/>
    </traci_server>

    <random_number>
        <random value="true"/>
    </random_number>

</configuration>
-->

<tripinfos xmlns:xsi="http://www.w3.org/2001/XMLSchema-instance" xsi:noNamespaceSchemaLocation="http://sumo.dlr.de/xsd/tripinfo_file.xsd">
    <tripinfo id="h15454c2:3" depart="57612.00" departLane="24608844_1" departPos="5.10" departSpeed="0.00" departDelay="0.50" arrival="57650.00" arrivalLane="32978638#0_1" arrivalPos="49.29" arrivalSpeed="13.35" duration="38.00" routeLength="354.79" waitingTime="0.00" waitingCount="0" stopTime="0.00" timeLoss="5.07" rerouteNo="1" devices="tripinfo_h15454c2:3 routing_h15454c2:3 emissions_h15454c2:3" vType="default_016" speedFactor="1.04" vaporized="">
        <emissions CO_abs="2049.258714" CO2_abs="120188.265924" HC_abs="12.143286" PMx_abs="2.095952" NOx_abs="49.158424" fuel_abs="51.663988" electricity_abs="0"/>
    </tripinfo>
    <tripinfo id="carIn60260:1" depart="57606.00" departLane="315358254#0_1" departPos="5.10" departSpeed="0.00" departDelay="0.90" arrival="57663.00" arrivalLane="399835085#1_1" arrivalPos="212.23" arrivalSpeed="8.12" duration="57.00" routeLength="430.98" waitingTime="1.00" waitingCount="1" stopTime="0.00" timeLoss="11.75" rerouteNo="1" devices="tripinfo_carIn60260:1 routing_carIn60260:1 emissions_carIn60260:1" vType="default_016" speedFactor="1.02" vaporized="">
        <emissions CO_abs="2777.439424" CO2_abs="132284.069796" HC_abs="15.707528" PMx_abs="2.284364" NOx_abs="54.429344" fuel_abs="56.863907" electricity_abs="0"/>
    </tripinfo>
    <tripinfo id="carIn53971:1" depart="57640.00" departLane="272042143_1" departPos="5.10" departSpeed="0.00" departDelay="0.80" arrival="57688.00" arrivalLane="24634414#1_1" arrivalPos="162.19" arrivalSpeed="9.64" duration="48.00" routeLength="493.04" waitingTime="0.00" waitingCount="0" stopTime="0.00" timeLoss="9.76" rerouteNo="1" devices="tripinfo_carIn53971:1 routing_carIn53971:1 emissions_carIn53971:1" vType="default_016" speedFactor="1.20" vaporized="">
        <emissions CO_abs="2698.154441" CO2_abs="162887.455645" HC_abs="16.068074" PMx_abs="3.045306" NOx_abs="67.794670" fuel_abs="70.018233" electricity_abs="0"/>
    </tripinfo>
    <tripinfo id="h3688c1:1" depart="57625.00" departLane="201201950#1_1" departPos="5.10" departSpeed="0.00" departDelay="0.00" arrival="57720.00" arrivalLane="32978638#0_1" arrivalPos="49.29" arrivalSpeed="14.58" duration="95.00" routeLength="1089.75" waitingTime="5.00" waitingCount="1" stopTime="0.00" timeLoss="18.68" rerouteNo="1" devices="tripinfo_h3688c1:1 routing_h3688c1:1 emissions_h3688c1:1" vType="default_016" speedFactor="1.05" vaporized="">
        <emissions CO_abs="3587.496172" CO2_abs="260644.218785" HC_abs="22.355135" PMx_abs="4.601699" NOx_abs="105.644481" fuel_abs="112.039514" electricity_abs="0"/>
    </tripinfo>
    <tripinfo id="h7800c1:5" depart="57696.00" departLane="-447569998#1_1" departPos="5.10" departSpeed="0.00" departDelay="0.00" arrival="57720.00" arrivalLane="-447569998#1_1" arrivalPos="180.76" arrivalSpeed="8.25" duration="24.00" routeLength="175.66" waitingTime="0.00" waitingCount="0" stopTime="0.00" timeLoss="3.11" rerouteNo="1" devices="tripinfo_h7800c1:5 routing_h7800c1:5 emissions_h7800c1:5" vType="default_016" speedFactor="1.05" vaporized="">
        <emissions CO_abs="1105.308163" CO2_abs="51571.680442" HC_abs="6.213792" PMx_abs="0.818345" NOx_abs="20.787240" fuel_abs="22.168837" electricity_abs="0"/>
    </tripinfo>
    <tripinfo id="h317c2:1" depart="57707.00" departLane="-32978638#0_1" departPos="5.10" departSpeed="0.00" departDelay="0.10" arrival="57744.00" arrivalLane="-266565295#5_1" arrivalPos="172.76" arrivalSpeed="14.25" duration="37.00" routeLength="370.53" waitingTime="1.00" waitingCount="1" stopTime="0.00" timeLoss="10.67" rerouteNo="1" devices="tripinfo_h317c2:1 routing_h317c2:1 emissions_h317c2:1" vType="default_016" speedFactor="1.04" vaporized="">
        <emissions CO_abs="2137.581902" CO2_abs="123931.768773" HC_abs="12.631689" PMx_abs="2.279574" NOx_abs="51.192843" fuel_abs="53.273028" electricity_abs="0"/>
    </tripinfo>
    <tripinfo id="h4538c1:1" depart="57701.00" departLane="-10427692#1_1" departPos="5.10" departSpeed="0.00" departDelay="0.00" arrival="57761.00" arrivalLane="-128361102#1_1" arrivalPos="274.68" arrivalSpeed="11.51" duration="60.00" routeLength="440.74" waitingTime="12.00" waitingCount="1" stopTime="0.00" timeLoss="22.87" rerouteNo="1" devices="tripinfo_h4538c1:1 routing_h4538c1:1 emissions_h4538c1:1" vType="default_016" speedFactor="0.87" vaporized="">
        <emissions CO_abs="3530.132012" CO2_abs="144495.160179" HC_abs="19.437688" PMx_abs="2.595334" NOx_abs="59.547715" fuel_abs="62.113323" electricity_abs="0"/>
    </tripinfo>
    <tripinfo id="h3568c1:3" depart="57656.00" departLane="266565295#5_1" departPos="5.10" departSpeed="0.00" departDelay="0.80" arrival="57765.00" arrivalLane="-24634415_1" arrivalPos="62.03" arrivalSpeed="13.39" duration="109.00" routeLength="807.40" waitingTime="29.00" waitingCount="1" stopTime="0.00" timeLoss="45.51" rerouteNo="1" devices="tripinfo_h3568c1:3 routing_h3568c1:3 emissions_h3568c1:3" vType="default_016" speedFactor="1.00" vaporized="">
        <emissions CO_abs="8274.155091" CO2_abs="312852.039621" HC_abs="45.021301" PMx_abs="6.113804" NOx_abs="132.000221" fuel_abs="134.483743" electricity_abs="0"/>
    </tripinfo>
    <tripinfo id="h3326c1:2" depart="57656.00" departLane="22716069#0_1" departPos="5.10" departSpeed="0.00" departDelay="0.00" arrival="57766.00" arrivalLane="24634517#13_1" arrivalPos="111.62" arrivalSpeed="13.80" duration="110.00" routeLength="1312.81" waitingTime="0.00" waitingCount="0" stopTime="0.00" timeLoss="14.31" rerouteNo="1" devices="tripinfo_h3326c1:2 routing_h3326c1:2 emissions_h3326c1:2" vType="default_016" speedFactor="1.02" vaporized="">
        <emissions CO_abs="3828.756647" CO2_abs="293760.537338" HC_abs="24.271992" PMx_abs="4.988230" NOx_abs="117.837584" fuel_abs="126.274896" electricity_abs="0"/>
    </tripinfo>
    <tripinfo id="carIn22761:1" depart="57616.00" departLane="-306240162#1_0" departPos="5.10" departSpeed="0.00" departDelay="2.10" arrival="57767.00" arrivalLane="399835085#1_1" arrivalPos="212.23" arrivalSpeed="7.69" duration="151.00" routeLength="1093.26" waitingTime="42.00" waitingCount="2" stopTime="0.00" timeLoss="67.21" rerouteNo="1" devices="tripinfo_carIn22761:1 routing_carIn22761:1 emissions_carIn22761:1" vType="default_016" speedFactor="0.94" vaporized="">
        <emissions CO_abs="11227.177224" CO2_abs="411166.208476" HC_abs="60.805389" PMx_abs="8.356454" NOx_abs="174.899242" fuel_abs="176.745311" electricity_abs="0"/>
    </tripinfo>
    <tripinfo id="carIn27009:1" depart="57673.00" departLane="-447569998#1_1" departPos="5.10" departSpeed="0.00" departDelay="0.50" arrival="57768.00" arrivalLane="-26677539_1" arrivalPos="152.75" arrivalSpeed="8.69" duration="95.00" routeLength="699.63" waitingTime="4.00" waitingCount="1" stopTime="0.00" timeLoss="19.11" rerouteNo="1" devices="tripinfo_carIn27009:1 routing_carIn27009:1 emissions_carIn27009:1" vType="default_015" speedFactor="1.11" vaporized="">
        <emissions CO_abs="4044.611156" CO2_abs="197329.859091" HC_abs="22.970465" PMx_abs="3.276719" NOx_abs="80.372749" fuel_abs="84.824741" electricity_abs="0"/>
    </tripinfo>
    <tripinfo id="carIn30817:1" depart="57681.00" departLane="315358244_1" departPos="5.10" departSpeed="0.00" departDelay="0.20" arrival="57773.00" arrivalLane="447569997#1_1" arrivalPos="180.93" arrivalSpeed="7.08" duration="92.00" routeLength="718.04" waitingTime="12.00" waitingCount="1" stopTime="0.00" timeLoss="24.44" rerouteNo="1" devices="tripinfo_carIn30817:1 routing_carIn30817:1 emissions_carIn30817:1" vType="default_016" speedFactor="0.91" vaporized="">
        <emissions CO_abs="4117.615020" CO2_abs="186750.327656" HC_abs="23.083994" PMx_abs="3.223352" NOx_abs="76.159250" fuel_abs="80.277129" electricity_abs="0"/>
    </tripinfo>
    <tripinfo id="h330c1:1" depart="57736.00" departLane="-32978638#0_1" departPos="5.10" departSpeed="0.00" departDelay="0.20" arrival="57773.00" arrivalLane="-266565295#5_1" arrivalPos="172.76" arrivalSpeed="14.45" duration="37.00" routeLength="370.53" waitingTime="2.00" waitingCount="1" stopTime="0.00" timeLoss="12.44" rerouteNo="1" devices="tripinfo_h330c1:1 routing_h330c1:1 emissions_h330c1:1" vType="default_016" speedFactor="1.13" vaporized="">
        <emissions CO_abs="2083.250495" CO2_abs="127671.259040" HC_abs="12.481864" PMx_abs="2.382100" NOx_abs="52.787869" fuel_abs="54.880340" electricity_abs="0"/>
    </tripinfo>
    <tripinfo id="carIn121703:1" depart="57647.00" departLane="386687232#0_1" departPos="5.10" departSpeed="0.00" departDelay="0.30" arrival="57775.00" arrivalLane="-315358244_1" arrivalPos="33.95" arrivalSpeed="13.09" duration="128.00" routeLength="1157.39" waitingTime="29.00" waitingCount="2" stopTime="0.00" timeLoss="46.33" rerouteNo="1" devices="tripinfo_carIn121703:1 routing_carIn121703:1 emissions_carIn121703:1" vType="default_016" speedFactor="1.03" vaporized="">
        <emissions CO_abs="6741.438389" CO2_abs="318650.095308" HC_abs="38.107931" PMx_abs="5.746909" NOx_abs="130.063358" fuel_abs="136.975532" electricity_abs="0"/>
    </tripinfo>
    <tripinfo id="h12244c1:3" depart="57612.00" departLane="315358244_1" departPos="5.10" departSpeed="0.00" departDelay="0.40" arrival="57778.00" arrivalLane="386687235_1" arrivalPos="80.84" arrivalSpeed="15.76" duration="166.00" routeLength="1186.14" waitingTime="80.00" waitingCount="1" stopTime="0.00" timeLoss="93.12" rerouteNo="1" devices="tripinfo_h12244c1:3 routing_h12244c1:3 emissions_h12244c1:3" vType="default_016" speedFactor="1.20" vaporized="">
        <emissions CO_abs="16077.777118" CO2_abs="477661.495680" HC_abs="84.452415" PMx_abs="9.953501" NOx_abs="203.054789" fuel_abs="205.331605" electricity_abs="0"/>
    </tripinfo>
    <tripinfo id="carIn12365:1" depart="57713.00" departLane="315358244_1" departPos="5.10" departSpeed="0.00" departDelay="0.50" arrival="57779.00" arrivalLane="447569997#1_1" arrivalPos="180.93" arrivalSpeed="7.78" duration="66.00" routeLength="718.04" waitingTime="0.00" waitingCount="0" stopTime="0.00" timeLoss="8.15" rerouteNo="1" devices="tripinfo_carIn12365:1 routing_carIn12365:1 emissions_carIn12365:1" vType="default_016" speedFactor="1.07" vaporized="">
        <emissions CO_abs="2516.773325" CO2_abs="174632.964370" HC_abs="15.558462" PMx_abs="2.997424" NOx_abs="70.479870" fuel_abs="75.067268" electricity_abs="0"/>
    </tripinfo>
    <tripinfo id="h11737c1:1" depart="57665.00" departLane="272042143_1" departPos="5.10" departSpeed="0.00" departDelay="1.50" arrival="57796.00" arrivalLane="-315358254#1_1" arrivalPos="137.16" arrivalSpeed="13.86" duration="131.00" routeLength="1596.88" waitingTime="5.00" waitingCount="1" stopTime="0.00" timeLoss="23.31" rerouteNo="1" devices="tripinfo_h11737c1:1 routing_h11737c1:1 emissions_h11737c1:1" vType="default_016" speedFactor="1.08" vaporized="">
        <emissions CO_abs="4165.842460" CO2_abs="322033.012161" HC_abs="26.464152" PMx_abs="5.579020" NOx_abs="129.275755" fuel_abs="138.427867" electricity_abs="0"/>
    </tripinfo>
    <tripinfo id="carIn82278:1" depart="57702.00" departLane="-306240162#1_0" departPos="5.10" departSpeed="0.00" departDelay="0.70" arrival="57796.00" arrivalLane="399835085#1_1" arrivalPos="212.23" arrivalSpeed="7.80" duration="94.00" routeLength="1093.26" waitingTime="0.00" waitingCount="0" stopTime="0.00" timeLoss="10.64" rerouteNo="1" devices="tripinfo_carIn82278:1 routing_carIn82278:1 emissions_carIn82278:1" vType="default_016" speedFactor="0.94" vaporized="">
        <emissions CO_abs="3678.774415" CO2_abs="249273.577234" HC_abs="22.587232" PMx_abs="4.473134" NOx_abs="100.613710" fuel_abs="107.151979" electricity_abs="0"/>
    </tripinfo>
    <tripinfo id="carIn107282:1" depart="57749.00" departLane="-447569998#1_1" departPos="5.10" departSpeed="0.00" departDelay="0.00" arrival="57800.00" arrivalLane="315358242#0_1" arrivalPos="165.37" arrivalSpeed="12.53" duration="51.00" routeLength="448.50" waitingTime="0.00" waitingCount="0" stopTime="0.00" timeLoss="5.43" rerouteNo="1" devices="tripinfo_carIn107282:1 routing_carIn107282:1 emissions_carIn107282:1" vType="default_016" speedFactor="0.92" vaporized="">
        <emissions CO_abs="1964.092136" CO2_abs="105767.368121" HC_abs="11.384022" PMx_abs="1.701805" NOx_abs="42.445360" fuel_abs="45.465382" electricity_abs="0"/>
    </tripinfo>
    <tripinfo id="h5979c1:5" depart="57669.00" departLane="399835085#1_1" departPos="5.10" departSpeed="0.00" departDelay="0.00" arrival="57801.00" arrivalLane="-315358254#1_1" arrivalPos="137.16" arrivalSpeed="13.56" duration="132.00" routeLength="659.33" waitingTime="49.00" waitingCount="1" stopTime="0.00" timeLoss="63.57" rerouteNo="1" devices="tripinfo_h5979c1:5 routing_h5979c1:5 emissions_h5979c1:5" vType="default_016" speedFactor="1.06" vaporized="">
        <emissions CO_abs="11014.969996" CO2_abs="298746.201005" HC_abs="57.075600" PMx_abs="5.966070" NOx_abs="127.544437" fuel_abs="128.422551" electricity_abs="0"/>
    </tripinfo>
    <tripinfo id="carIn118591:1" depart="57689.00" departLane="315358244_1" departPos="5.10" departSpeed="0.00" departDelay="0.20" arrival="57806.00" arrivalLane="386687235_1" arrivalPos="80.84" arrivalSpeed="12.88" duration="117.00" routeLength="1186.14" waitingTime="9.00" waitingCount="2" stopTime="0.00" timeLoss="30.80" rerouteNo="1" devices="tripinfo_carIn118591:1 routing_carIn118591:1 emissions_carIn118591:1" vType="default_016" speedFactor="1.01" vaporized="">
        <emissions CO_abs="4232.510021" CO2_abs="278016.665934" HC_abs="25.766023" PMx_abs="4.673922" NOx_abs="111.429248" fuel_abs="119.507870" electricity_abs="0"/>
    </tripinfo>
    <tripinfo id="h9563c2:5" depart="57631.00" departLane="315358244_1" departPos="5.10" departSpeed="0.00" departDelay="0.70" arrival="57809.00" arrivalLane="386687235_1" arrivalPos="80.84" arrivalSpeed="12.65" duration="178.00" routeLength="1186.14" waitingTime="65.00" waitingCount="2" stopTime="0.00" timeLoss="84.62" rerouteNo="1" devices="tripinfo_h9563c2:5 routing_h9563c2:5 emissions_h9563c2:5" vType="default_016" speedFactor="0.92" vaporized="">
        <emissions CO_abs="13375.463806" CO2_abs="417448.082597" HC_abs="70.642842" PMx_abs="8.065001" NOx_abs="175.099323" fuel_abs="179.447976" electricity_abs="0"/>
    </tripinfo>
    <tripinfo id="h7181c1:1" depart="57660.00" departLane="315358254#0_1" departPos="5.10" departSpeed="0.00" departDelay="0.10" arrival="57810.00" arrivalLane="306240162#0_0" arrivalPos="220.43" arrivalSpeed="15.87" duration="150.00" routeLength="932.35" waitingTime="77.00" waitingCount="2" stopTime="0.00" timeLoss="98.83" rerouteNo="1" devices="tripinfo_h7181c1:1 routing_h7181c1:1 emissions_h7181c1:1" vType="default_016" speedFactor="1.01" vaporized="">
        <emissions CO_abs="16936.247709" CO2_abs="512152.161726" HC_abs="89.320783" PMx_abs="11.232216" NOx_abs="222.617054" fuel_abs="220.156816" electricity_abs="0"/>
    </tripinfo>
    <tripinfo id="h645c1:1" depart="57622.00" departLane="266565295#5_1" departPos="5.10" departSpeed="0.00" departDelay="0.40" arrival="57823.00" arrivalLane="-315358244_1" arrivalPos="33.95" arrivalSpeed="14.98" duration="201.00" routeLength="1910.83" waitingTime="42.00" waitingCount="4" stopTime="0.00" timeLoss="75.02" rerouteNo="1" devices="tripinfo_h645c1:1 routing_h645c1:1 emissions_h645c1:1" vType="default_016" speedFactor="1.10" vaporized="">
        <emissions CO_abs="11580.392261" CO2_abs="552199.417488" HC_abs="65.550288" PMx_abs="10.465943" NOx_abs="228.409076" fuel_abs="237.368625" electricity_abs="0"/>
    </tripinfo>
    <tripinfo id="carIn129809:1" depart="57729.00" departLane="-447569998#1_1" departPos="5.10" departSpeed="0.00" departDelay="1.00" arrival="57826.00" arrivalLane="-315358244_1" arrivalPos="33.95" arrivalSpeed="11.70" duration="97.00" routeLength="706.49" waitingTime="16.00" waitingCount="1" stopTime="0.00" timeLoss="27.92" rerouteNo="1" devices="tripinfo_carIn129809:1 routing_carIn129809:1 emissions_carIn129809:1" vType="default_015" speedFactor="0.88" vaporized="">
        <emissions CO_abs="4795.083467" CO2_abs="204481.129945" HC_abs="26.574214" PMx_abs="3.558286" NOx_abs="83.773405" fuel_abs="87.899132" electricity_abs="0"/>
    </tripinfo>
    <tripinfo id="carIn12775:1" depart="57676.00" departLane="10425609#0_1" departPos="5.10" departSpeed="0.00" departDelay="0.60" arrival="57828.00" arrivalLane="18809673#0_1" arrivalPos="473.56" arrivalSpeed="14.75" duration="152.00" routeLength="1959.45" waitingTime="0.00" waitingCount="0" stopTime="0.00" timeLoss="16.03" rerouteNo="1" devices="tripinfo_carIn12775:1 routing_carIn12775:1 emissions_carIn12775:1" vType="default_016" speedFactor="1.07" vaporized="">
        <emissions CO_abs="4206.210633" CO2_abs="380869.884292" HC_abs="27.945707" PMx_abs="6.127442" NOx_abs="149.214845" fuel_abs="163.719425" electricity_abs="0"/>
    </tripinfo>
    <tripinfo id="carIn81860:1" depart="57712.00" departLane="128361102#0_1" departPos="5.10" departSpeed="0.00" departDelay="0.60" arrival="57833.00" arrivalLane="-24634517#17_1" arrivalPos="6.43" arrivalSpeed="6.45" duration="121.00" routeLength="1229.64" waitingTime="1.00" waitingCount="1" stopTime="0.00" timeLoss="21.84" rerouteNo="1" devices="tripinfo_carIn81860:1 routing_carIn81860:1 emissions_carIn81860:1" vType="default_016" speedFactor="0.91" vaporized="">
        <emissions CO_abs="4084.877814" CO2_abs="277169.062945" HC_abs="25.022097" PMx_abs="4.343238" NOx_abs="109.416296" fuel_abs="119.143852" electricity_abs="0"/>
    </tripinfo>
    <tripinfo id="carIn12858:1" depart="57661.00" departLane="128361109#1_1" departPos="5.10" departSpeed="0.00" departDelay="0.90" arrival="57834.00" arrivalLane="399835085#1_1" arrivalPos="212.23" arrivalSpeed="8.29" duration="173.00" routeLength="1738.12" waitingTime="26.00" waitingCount="2" stopTime="0.00" timeLoss="58.13" rerouteNo="1" devices="tripinfo_carIn12858:1 routing_carIn12858:1 emissions_carIn12858:1" vType="default_016" speedFactor="1.00" vaporized="">
        <emissions CO_abs="11007.068362" CO2_abs="534042.883533" HC_abs="62.819873" PMx_abs="10.499136" NOx_abs="222.980843" fuel_abs="229.563188" electricity_abs="0"/>
    </tripinfo>
    <tripinfo id="h3154c1:1" depart="57658.00" departLane="24634507_1" departPos="5.10" departSpeed="0.00" departDelay="0.00" arrival="57838.00" arrivalLane="-266565295#5_1" arrivalPos="172.76" arrivalSpeed="12.73" duration="180.00" routeLength="1206.22" waitingTime="68.00" waitingCount="1" stopTime="0.00" timeLoss="84.91" rerouteNo="1" devices="tripinfo_h3154c1:1 routing_h3154c1:1 emissions_h3154c1:1" vType="default_016" speedFactor="0.94" vaporized="">
        <emissions CO_abs="14746.937702" CO2_abs="457876.801236" HC_abs="77.880078" PMx_abs="9.113432" NOx_abs="193.790882" fuel_abs="196.826683" electricity_abs="0"/>
    </tripinfo>
    <tripinfo id="h17549c1:1" depart="57680.00" departLane="-447569998#1_1" departPos="5.10" departSpeed="0.00" departDelay="0.00" arrival="57847.00" arrivalLane="-315358254#1_1" arrivalPos="137.16" arrivalSpeed="14.50" duration="167.00" routeLength="1746.60" waitingTime="18.00" waitingCount="1" stopTime="0.00" timeLoss="36.33" rerouteNo="1" devices="tripinfo_h17549c1:1 routing_h17549c1:1 emissions_h17549c1:1" vType="default_016" speedFactor="1.05" vaporized="">
        <emissions CO_abs="6461.837675" CO2_abs="402143.135852" HC_abs="38.643334" PMx_abs="6.734394" NOx_abs="159.988282" fuel_abs="172.865112" electricity_abs="0"/>
    </tripinfo>
    <tripinfo id="carIn86816:1" depart="57617.00" departLane="128361102#0_1" departPos="5.10" departSpeed="0.00" departDelay="0.80" arrival="57848.00" arrivalLane="201956811#0_1" arrivalPos="40.40" arrivalSpeed="16.51" duration="231.00" routeLength="2067.33" waitingTime="72.00" waitingCount="2" stopTime="0.00" timeLoss="106.06" rerouteNo="1" devices="tripinfo_carIn86816:1 routing_carIn86816:1 emissions_carIn86816:1" vType="default_016" speedFactor="1.22" vaporized="">
        <emissions CO_abs="17831.021986" CO2_abs="686866.885796" HC_abs="97.226677" PMx_abs="13.891129" NOx_abs="289.565047" fuel_abs="295.258449" electricity_abs="0"/>
    </tripinfo>
    <tripinfo id="carIn126288:1" depart="57674.00" departLane="272042143_1" departPos="5.10" departSpeed="0.00" departDelay="0.00" arrival="57851.00" arrivalLane="-315358254#1_1" arrivalPos="137.16" arrivalSpeed="13.19" duration="177.00" routeLength="1596.88" waitingTime="42.00" waitingCount="1" stopTime="0.00" timeLoss="62.60" rerouteNo="1" devices="tripinfo_carIn126288:1 routing_carIn126288:1 emissions_carIn126288:1" vType="default_016" speedFactor="1.02" vaporized="">
        <emissions CO_abs="10737.602661" CO2_abs="450133.869290" HC_abs="59.382753" PMx_abs="8.274861" NOx_abs="184.834662" fuel_abs="193.496191" electricity_abs="0"/>
    </tripinfo>
    <tripinfo id="h3864c1:3" depart="57678.00" departLane="24693977#1_1" departPos="5.10" departSpeed="0.00" departDelay="0.00" arrival="57852.00" arrivalLane="201956820_2" arrivalPos="48.33" arrivalSpeed="12.74" duration="174.00" routeLength="1574.85" waitingTime="14.00" waitingCount="1" stopTime="0.00" timeLoss="41.85" rerouteNo="1" devices="tripinfo_h3864c1:3 routing_h3864c1:3 emissions_h3864c1:3" vType="default_016" speedFactor="0.97" vaporized="">
        <emissions CO_abs="8286.975723" CO2_abs="439442.288476" HC_abs="48.016820" PMx_abs="7.817482" NOx_abs="180.131275" fuel_abs="188.898654" electricity_abs="0"/>
    </tripinfo>
    <tripinfo id="carIn85747:1" depart="57673.00" departLane="128361109#1_1" departPos="5.10" departSpeed="0.00" departDelay="0.70" arrival="57853.00" arrivalLane="386687235_1" arrivalPos="80.84" arrivalSpeed="14.49" duration="180.00" routeLength="2088.57" waitingTime="28.00" waitingCount="1" stopTime="0.00" timeLoss="44.62" rerouteNo="1" devices="tripinfo_carIn85747:1 routing_carIn85747:1 emissions_carIn85747:1" vType="default_016" speedFactor="1.11" vaporized="">
        <emissions CO_abs="7451.907835" CO2_abs="435775.378759" HC_abs="43.771253" PMx_abs="7.276932" NOx_abs="171.253348" fuel_abs="187.322849" electricity_abs="0"/>
    </tripinfo>
    <tripinfo id="carIn7949:1" depart="57676.00" departLane="128361109#1_1" departPos="5.10" departSpeed="0.00" departDelay="2.10" arrival="57853.00" arrivalLane="386687235_2" arrivalPos="80.84" arrivalSpeed="14.25" duration="177.00" routeLength="2088.57" waitingTime="21.00" waitingCount="1" stopTime="0.00" timeLoss="38.93" rerouteNo="1" devices="tripinfo_carIn7949:1 routing_carIn7949:1 emissions_carIn7949:1" vType="default_016" speedFactor="1.09" vaporized="">
        <emissions CO_abs="6438.817396" CO2_abs="405037.928963" HC_abs="38.554414" PMx_abs="6.796216" NOx_abs="159.951299" fuel_abs="174.109506" electricity_abs="0"/>
    </tripinfo>
    <tripinfo id="carIn8642:1" depart="57774.00" departLane="-447569998#1_1" departPos="5.10" departSpeed="0.00" departDelay="0.90" arrival="57853.00" arrivalLane="-315358244_1" arrivalPos="33.95" arrivalSpeed="14.02" duration="79.00" routeLength="706.49" waitingTime="8.00" waitingCount="1" stopTime="0.00" timeLoss="19.63" rerouteNo="1" devices="tripinfo_carIn8642:1 routing_carIn8642:1 emissions_carIn8642:1" vType="default_016" speedFactor="1.02" vaporized="">
        <emissions CO_abs="3605.148768" CO2_abs="188179.616003" HC_abs="20.801020" PMx_abs="3.289877" NOx_abs="76.768837" fuel_abs="80.891021" electricity_abs="0"/>
    </tripinfo>
    <tripinfo id="h17600c1:1" depart="57662.00" departLane="272042143_1" departPos="5.10" departSpeed="0.00" departDelay="0.30" arrival="57854.00" arrivalLane="201238729#3_1" arrivalPos="431.02" arrivalSpeed="12.43" duration="192.00" routeLength="2100.26" waitingTime="11.00" waitingCount="1" stopTime="0.00" timeLoss="29.63" rerouteNo="1" devices="tripinfo_h17600c1:1 routing_h17600c1:1 emissions_h17600c1:1" vType="default_016" speedFactor="0.93" vaporized="">
        <emissions CO_abs="5603.156301" CO2_abs="389938.120830" HC_abs="34.589286" PMx_abs="6.244198" NOx_abs="154.084350" fuel_abs="167.618490" electricity_abs="0"/>
    </tripinfo>
    <tripinfo id="carIn75660:1" depart="57679.00" departLane="128361109#1_1" departPos="5.10" departSpeed="0.00" departDelay="3.40" arrival="57856.00" arrivalLane="386687235_1" arrivalPos="80.84" arrivalSpeed="12.32" duration="177.00" routeLength="2088.57" waitingTime="1.00" waitingCount="1" stopTime="0.00" timeLoss="18.58" rerouteNo="1" devices="tripinfo_carIn75660:1 routing_carIn75660:1 emissions_carIn75660:1" vType="default_016" speedFactor="0.95" vaporized="">
        <emissions CO_abs="4552.458070" CO2_abs="393610.349845" HC_abs="29.882681" PMx_abs="6.064875" NOx_abs="153.383724" fuel_abs="169.196514" electricity_abs="0"/>
    </tripinfo>
    <tripinfo id="h5938c1:1" depart="57740.00" departLane="-26677542#0_1" departPos="5.10" departSpeed="0.00" departDelay="0.00" arrival="57856.00" arrivalLane="447569997#1_1" arrivalPos="180.93" arrivalSpeed="8.86" duration="116.00" routeLength="1093.64" waitingTime="21.00" waitingCount="1" stopTime="0.00" timeLoss="35.15" rerouteNo="1" devices="tripinfo_h5938c1:1 routing_h5938c1:1 emissions_h5938c1:1" vType="default_016" speedFactor="1.19" vaporized="">
        <emissions CO_abs="5991.419912" CO2_abs="289571.799418" HC_abs="34.029325" PMx_abs="5.336939" NOx_abs="118.737702" fuel_abs="124.475608" electricity_abs="0"/>
    </tripinfo>
    <tripinfo id="randUni15030:1" depart="57735.00" departLane="386687232#0_1" departPos="5.10" departSpeed="0.00" departDelay="0.10" arrival="57862.00" arrivalLane="26677539_1" arrivalPos="151.98" arrivalSpeed="7.65" duration="127.00" routeLength="919.89" waitingTime="24.00" waitingCount="1" stopTime="0.00" timeLoss="40.27" rerouteNo="1" devices="tripinfo_randUni15030:1 routing_randUni15030:1 emissions_randUni15030:1" vType="random_016" speedFactor="0.96" vaporized="">
        <emissions CO_abs="7303.213399" CO2_abs="274071.369876" HC_abs="39.639236" PMx_abs="5.061961" NOx_abs="114.074963" fuel_abs="117.813803" electricity_abs="0"/>
    </tripinfo>
    <tripinfo id="carIn46110:1" depart="57684.00" departLane="315358244_1" departPos="5.10" departSpeed="0.00" departDelay="1.20" arrival="57864.00" arrivalLane="32978638#0_1" arrivalPos="49.29" arrivalSpeed="12.86" duration="180.00" routeLength="1764.04" waitingTime="20.00" waitingCount="4" stopTime="0.00" timeLoss="53.78" rerouteNo="1" devices="tripinfo_carIn46110:1 routing_carIn46110:1 emissions_carIn46110:1" vType="default_016" speedFactor="1.02" vaporized="">
        <emissions CO_abs="7542.526814" CO2_abs="450439.093519" HC_abs="44.883173" PMx_abs="7.887642" NOx_abs="182.946091" fuel_abs="193.625206" electricity_abs="0"/>
    </tripinfo>
    <tripinfo id="carIn28951:1" depart="57606.00" departLane="10425609#0_1" departPos="5.10" departSpeed="0.00" departDelay="0.20" arrival="57865.00" arrivalLane="-128361102#1_1" arrivalPos="274.68" arrivalSpeed="14.64" duration="259.00" routeLength="2113.04" waitingTime="84.00" waitingCount="3" stopTime="0.00" timeLoss="114.18" rerouteNo="1" devices="tripinfo_carIn28951:1 routing_carIn28951:1 emissions_carIn28951:1" vType="default_016" speedFactor="1.08" vaporized="">
        <emissions CO_abs="18382.046107" CO2_abs="685411.457548" HC_abs="99.684554" PMx_abs="13.381942" NOx_abs="286.657148" fuel_abs="294.633988" electricity_abs="0"/>
    </tripinfo>
    <tripinfo id="50R_frequency3.17" depart="57674.00" departLane="-18809673#6_1" departPos="12.10" departSpeed="0.00" departDelay="0.70" arrival="57866.00" arrivalLane="201956811#0_1" arrivalPos="40.40" arrivalSpeed="13.65" duration="192.00" routeLength="1954.47" waitingTime="16.00" waitingCount="2" stopTime="0.00" timeLoss="47.63" rerouteNo="1" devices="tripinfo_50R_frequency3.17 routing_50R_frequency3.17 emissions_50R_frequency3.17" vType="bus" speedFactor="1.00" vaporized="">
        <emissions CO_abs="3562.935924" CO2_abs="2191424.256152" HC_abs="747.153488" PMx_abs="380.604830" NOx_abs="17123.048305" fuel_abs="934.597484" electricity_abs="0"/>
    </tripinfo>
    <tripinfo id="carIn118538:1" depart="57683.00" departLane="-447569998#1_1" departPos="5.10" departSpeed="0.00" departDelay="1.00" arrival="57873.00" arrivalLane="399835085#1_1" arrivalPos="212.23" arrivalSpeed="8.48" duration="190.00" routeLength="1907.17" waitingTime="18.00" waitingCount="1" stopTime="0.00" timeLoss="39.69" rerouteNo="1" devices="tripinfo_carIn118538:1 routing_carIn118538:1 emissions_carIn118538:1" vType="default_016" speedFactor="1.08" vaporized="">
        <emissions CO_abs="6766.407957" CO2_abs="402368.427349" HC_abs="40.106715" PMx_abs="6.596270" NOx_abs="159.739668" fuel_abs="172.962392" electricity_abs="0"/>
    </tripinfo>