<?xml version="1.0" encoding="UTF-8"?>

<!-- generated on 2021-10-26 14:17:24 by Eclipse SUMO sumo Version 1.10.0
<configuration xmlns:xsi="http://www.w3.org/2001/XMLSchema-instance" xsi:noNamespaceSchemaLocation="http://sumo.dlr.de/xsd/sumoConfiguration.xsd">

    <input>
        <net-file value="/Users/behradkoohy/sumo-scratchpad/RESCO/environments/ingolstadt21/ingolstadt21.net.xml"/>
        <route-files value="/Users/behradkoohy/sumo-scratchpad/RESCO/environments/ingolstadt21/ingolstadt21.rou.xml"/>
    </input>

    <output>
        <tripinfo-output value="/Users/behradkoohy/sumo-scratchpad/RESCO/logs/STOCHASTIC-tr0-ingolstadt21-21-mplight-wait/tripinfo_38.xml"/>
        <tripinfo-output.write-unfinished value="true"/>
    </output>

    <time>
        <begin value="57600"/>
        <end value="61200"/>
    </time>

    <processing>
        <time-to-teleport value="-1"/>
    </processing>

    <report>
        <no-warnings value="true"/>
        <no-step-log value="true"/>
    </report>

    <emissions>
        <device.emissions.probability value="1"/>
    </emissions>

    <traci_server>
        <remote-port value="60186"/>
    </traci_server>

    <random_number>
        <random value="true"/>
    </random_number>

</configuration>
-->

<tripinfos xmlns:xsi="http://www.w3.org/2001/XMLSchema-instance" xsi:noNamespaceSchemaLocation="http://sumo.dlr.de/xsd/tripinfo_file.xsd">
    <tripinfo id="carIn60260:1" depart="57606.00" departLane="315358254#0_1" departPos="5.10" departSpeed="0.00" departDelay="0.90" arrival="57666.00" arrivalLane="399835085#1_1" arrivalPos="212.23" arrivalSpeed="6.48" duration="60.00" routeLength="430.98" waitingTime="0.00" waitingCount="0" stopTime="0.00" timeLoss="7.87" rerouteNo="1" devices="tripinfo_carIn60260:1 routing_carIn60260:1 emissions_carIn60260:1" vType="default_016" speedFactor="0.88" vaporized="">
        <emissions CO_abs="2468.954519" CO2_abs="114578.320036" HC_abs="13.876744" PMx_abs="1.872741" NOx_abs="46.478430" fuel_abs="49.253091" electricity_abs="0"/>
    </tripinfo>
    <tripinfo id="h15454c2:3" depart="57612.00" departLane="24608844_1" departPos="5.10" departSpeed="0.00" departDelay="0.50" arrival="57668.00" arrivalLane="32978638#0_1" arrivalPos="49.29" arrivalSpeed="12.85" duration="56.00" routeLength="354.79" waitingTime="9.00" waitingCount="1" stopTime="0.00" timeLoss="20.38" rerouteNo="1" devices="tripinfo_h15454c2:3 routing_h15454c2:3 emissions_h15454c2:3" vType="default_016" speedFactor="0.96" vaporized="">
        <emissions CO_abs="3469.029413" CO2_abs="142626.838287" HC_abs="19.124846" PMx_abs="2.633957" NOx_abs="59.609788" fuel_abs="61.310036" electricity_abs="0"/>
    </tripinfo>
    <tripinfo id="carIn53971:1" depart="57640.00" departLane="272042143_1" departPos="5.10" departSpeed="0.00" departDelay="0.80" arrival="57699.00" arrivalLane="24634414#1_1" arrivalPos="162.19" arrivalSpeed="7.12" duration="59.00" routeLength="493.04" waitingTime="0.00" waitingCount="0" stopTime="0.00" timeLoss="9.72" rerouteNo="1" devices="tripinfo_carIn53971:1 routing_carIn53971:1 emissions_carIn53971:1" vType="default_016" speedFactor="0.93" vaporized="">
        <emissions CO_abs="2795.351260" CO2_abs="150860.817626" HC_abs="16.221976" PMx_abs="2.494122" NOx_abs="61.023432" fuel_abs="64.849234" electricity_abs="0"/>
    </tripinfo>
    <tripinfo id="h12244c1:3" depart="57612.00" departLane="315358244_1" departPos="5.10" departSpeed="0.00" departDelay="0.40" arrival="57717.00" arrivalLane="386687235_1" arrivalPos="80.84" arrivalSpeed="12.21" duration="105.00" routeLength="1186.14" waitingTime="0.00" waitingCount="0" stopTime="0.00" timeLoss="10.66" rerouteNo="1" devices="tripinfo_h12244c1:3 routing_h12244c1:3 emissions_h12244c1:3" vType="default_016" speedFactor="0.92" vaporized="">
        <emissions CO_abs="3031.251402" CO2_abs="247886.387019" HC_abs="19.536761" PMx_abs="3.704506" NOx_abs="96.266566" fuel_abs="106.556193" electricity_abs="0"/>
    </tripinfo>
    <tripinfo id="h3688c1:1" depart="57625.00" departLane="201201950#1_1" departPos="5.10" departSpeed="0.00" departDelay="0.00" arrival="57717.00" arrivalLane="32978638#0_1" arrivalPos="49.29" arrivalSpeed="16.07" duration="92.00" routeLength="1089.75" waitingTime="9.00" waitingCount="1" stopTime="0.00" timeLoss="25.69" rerouteNo="1" devices="tripinfo_h3688c1:1 routing_h3688c1:1 emissions_h3688c1:1" vType="default_016" speedFactor="1.20" vaporized="">
        <emissions CO_abs="4419.475220" CO2_abs="301332.240311" HC_abs="27.015319" PMx_abs="5.491384" NOx_abs="122.320900" fuel_abs="129.529556" electricity_abs="0"/>
    </tripinfo>
    <tripinfo id="carIn80064:1" depart="57603.00" departLane="128361109#1_1" departPos="5.10" departSpeed="0.00" departDelay="0.40" arrival="57718.00" arrivalLane="-315358254#1_1" arrivalPos="137.16" arrivalSpeed="15.92" duration="115.00" routeLength="1587.97" waitingTime="3.00" waitingCount="1" stopTime="0.00" timeLoss="37.13" rerouteNo="1" devices="tripinfo_carIn80064:1 routing_carIn80064:1 emissions_carIn80064:1" vType="default_016" speedFactor="1.15" vaporized="">
        <emissions CO_abs="8197.098571" CO2_abs="528054.514104" HC_abs="50.056964" PMx_abs="10.817309" NOx_abs="221.252416" fuel_abs="226.986277" electricity_abs="0"/>
    </tripinfo>
    <tripinfo id="S5R_frequency1.2" depart="57624.00" departLane="315358250#0_1" departPos="12.10" departSpeed="0.00" departDelay="12.40" arrival="57719.00" arrivalLane="386687235_1" arrivalPos="80.84" arrivalSpeed="13.36" duration="95.00" routeLength="1115.62" waitingTime="0.00" waitingCount="0" stopTime="0.00" timeLoss="13.59" rerouteNo="1" devices="tripinfo_S5R_frequency1.2 routing_S5R_frequency1.2 emissions_S5R_frequency1.2" vType="bus" speedFactor="1.00" vaporized="">
        <emissions CO_abs="1822.808451" CO2_abs="1171944.234619" HC_abs="379.073420" PMx_abs="195.858676" NOx_abs="9016.847116" fuel_abs="499.827531" electricity_abs="0"/>
    </tripinfo>
    <tripinfo id="h7800c1:5" depart="57696.00" departLane="-447569998#1_1" departPos="5.10" departSpeed="0.00" departDelay="0.00" arrival="57724.00" arrivalLane="-447569998#1_1" arrivalPos="180.76" arrivalSpeed="6.62" duration="28.00" routeLength="175.66" waitingTime="0.00" waitingCount="0" stopTime="0.00" timeLoss="3.29" rerouteNo="1" devices="tripinfo_h7800c1:5 routing_h7800c1:5 emissions_h7800c1:5" vType="default_016" speedFactor="0.85" vaporized="">
        <emissions CO_abs="1229.819681" CO2_abs="45979.584664" HC_abs="6.645902" PMx_abs="0.740003" NOx_abs="18.689545" fuel_abs="19.765177" electricity_abs="0"/>
    </tripinfo>
    <tripinfo id="h317c2:1" depart="57707.00" departLane="-32978638#0_1" departPos="5.10" departSpeed="0.00" departDelay="0.10" arrival="57739.00" arrivalLane="-266565295#5_1" arrivalPos="172.76" arrivalSpeed="14.29" duration="32.00" routeLength="370.53" waitingTime="0.00" waitingCount="0" stopTime="0.00" timeLoss="5.40" rerouteNo="1" devices="tripinfo_h317c2:1 routing_h317c2:1 emissions_h317c2:1" vType="default_016" speedFactor="1.05" vaporized="">
        <emissions CO_abs="1685.145025" CO2_abs="109609.507484" HC_abs="10.226733" PMx_abs="2.002202" NOx_abs="45.088583" fuel_abs="47.116346" electricity_abs="0"/>
    </tripinfo>
    <tripinfo id="h3568c1:3" depart="57656.00" departLane="266565295#5_1" departPos="5.10" departSpeed="0.00" departDelay="0.80" arrival="57744.00" arrivalLane="-24634415_1" arrivalPos="62.03" arrivalSpeed="14.59" duration="88.00" routeLength="807.40" waitingTime="10.00" waitingCount="1" stopTime="0.00" timeLoss="26.89" rerouteNo="1" devices="tripinfo_h3568c1:3 routing_h3568c1:3 emissions_h3568c1:3" vType="default_016" speedFactor="1.06" vaporized="">
        <emissions CO_abs="4682.350743" CO2_abs="256251.638112" HC_abs="27.370454" PMx_abs="4.811503" NOx_abs="106.648218" fuel_abs="110.151812" electricity_abs="0"/>
    </tripinfo>
    <tripinfo id="h3326c1:2" depart="57656.00" departLane="22716069#0_1" departPos="5.10" departSpeed="0.00" departDelay="0.00" arrival="57753.00" arrivalLane="24634517#13_1" arrivalPos="111.62" arrivalSpeed="16.32" duration="97.00" routeLength="1312.81" waitingTime="0.00" waitingCount="0" stopTime="0.00" timeLoss="15.18" rerouteNo="1" devices="tripinfo_h3326c1:2 routing_h3326c1:2 emissions_h3326c1:2" vType="default_016" speedFactor="1.20" vaporized="">
        <emissions CO_abs="4389.023934" CO2_abs="329494.594375" HC_abs="27.611272" PMx_abs="6.015314" NOx_abs="134.136400" fuel_abs="141.634907" electricity_abs="0"/>
    </tripinfo>
    <tripinfo id="h5979c1:5" depart="57669.00" departLane="399835085#1_1" departPos="5.10" departSpeed="0.00" departDelay="0.00" arrival="57753.00" arrivalLane="-315358254#1_1" arrivalPos="137.16" arrivalSpeed="13.24" duration="84.00" routeLength="659.33" waitingTime="0.00" waitingCount="0" stopTime="0.00" timeLoss="9.66" rerouteNo="1" devices="tripinfo_h5979c1:5 routing_h5979c1:5 emissions_h5979c1:5" vType="default_016" speedFactor="0.98" vaporized="">
        <emissions CO_abs="3104.934434" CO2_abs="155111.220709" HC_abs="17.688904" PMx_abs="2.407390" NOx_abs="61.981692" fuel_abs="66.676729" electricity_abs="0"/>
    </tripinfo>
    <tripinfo id="h7181c1:1" depart="57660.00" departLane="315358254#0_1" departPos="5.10" departSpeed="0.00" departDelay="0.10" arrival="57759.00" arrivalLane="306240162#0_0" arrivalPos="220.43" arrivalSpeed="18.08" duration="99.00" routeLength="932.35" waitingTime="41.00" waitingCount="1" stopTime="0.00" timeLoss="52.48" rerouteNo="1" devices="tripinfo_h7181c1:1 routing_h7181c1:1 emissions_h7181c1:1" vType="default_016" speedFactor="1.10" vaporized="">
        <emissions CO_abs="9645.516580" CO2_abs="354285.454842" HC_abs="52.432111" PMx_abs="7.677692" NOx_abs="151.050742" fuel_abs="152.293894" electricity_abs="0"/>
    </tripinfo>
    <tripinfo id="carIn22761:1" depart="57616.00" departLane="-306240162#1_0" departPos="5.10" departSpeed="0.00" departDelay="2.10" arrival="57760.00" arrivalLane="399835085#1_1" arrivalPos="212.23" arrivalSpeed="6.80" duration="144.00" routeLength="1093.26" waitingTime="38.00" waitingCount="1" stopTime="0.00" timeLoss="54.08" rerouteNo="1" devices="tripinfo_carIn22761:1 routing_carIn22761:1 emissions_carIn22761:1" vType="default_016" speedFactor="0.87" vaporized="">
        <emissions CO_abs="9794.108577" CO2_abs="349276.476154" HC_abs="52.716794" PMx_abs="6.732232" NOx_abs="145.522443" fuel_abs="150.142023" electricity_abs="0"/>
    </tripinfo>
    <tripinfo id="h4538c1:1" depart="57701.00" departLane="-10427692#1_1" departPos="5.10" departSpeed="0.00" departDelay="0.00" arrival="57770.00" arrivalLane="-128361102#1_1" arrivalPos="274.68" arrivalSpeed="12.04" duration="69.00" routeLength="440.74" waitingTime="22.00" waitingCount="1" stopTime="0.00" timeLoss="33.12" rerouteNo="1" devices="tripinfo_h4538c1:1 routing_h4538c1:1 emissions_h4538c1:1" vType="default_016" speedFactor="0.89" vaporized="">
        <emissions CO_abs="4797.371066" CO2_abs="162285.189362" HC_abs="25.635997" PMx_abs="3.117052" NOx_abs="68.164041" fuel_abs="69.761028" electricity_abs="0"/>
    </tripinfo>
    <tripinfo id="carIn30817:1" depart="57681.00" departLane="315358244_1" departPos="5.10" departSpeed="0.00" departDelay="0.20" arrival="57772.00" arrivalLane="447569997#1_1" arrivalPos="180.93" arrivalSpeed="6.37" duration="91.00" routeLength="718.04" waitingTime="11.00" waitingCount="1" stopTime="0.00" timeLoss="21.83" rerouteNo="1" devices="tripinfo_carIn30817:1 routing_carIn30817:1 emissions_carIn30817:1" vType="default_016" speedFactor="0.89" vaporized="">
        <emissions CO_abs="3864.349016" CO2_abs="177628.314980" HC_abs="21.724983" PMx_abs="3.101960" NOx_abs="72.843996" fuel_abs="76.355792" electricity_abs="0"/>
    </tripinfo>
    <tripinfo id="carIn121703:1" depart="57647.00" departLane="386687232#0_1" departPos="5.10" departSpeed="0.00" departDelay="0.30" arrival="57783.00" arrivalLane="-315358244_1" arrivalPos="33.95" arrivalSpeed="11.39" duration="136.00" routeLength="1157.39" waitingTime="20.00" waitingCount="2" stopTime="0.00" timeLoss="36.48" rerouteNo="1" devices="tripinfo_carIn121703:1 routing_carIn121703:1 emissions_carIn121703:1" vType="default_016" speedFactor="0.85" vaporized="">
        <emissions CO_abs="5760.285565" CO2_abs="284742.921776" HC_abs="32.816581" PMx_abs="4.690997" NOx_abs="114.304351" fuel_abs="122.400495" electricity_abs="0"/>
    </tripinfo>
    <tripinfo id="carIn27009:1" depart="57673.00" departLane="-447569998#1_1" departPos="5.10" departSpeed="0.00" departDelay="0.50" arrival="57785.00" arrivalLane="-26677539_1" arrivalPos="152.75" arrivalSpeed="7.95" duration="112.00" routeLength="699.63" waitingTime="11.00" waitingCount="1" stopTime="0.00" timeLoss="26.77" rerouteNo="1" devices="tripinfo_carIn27009:1 routing_carIn27009:1 emissions_carIn27009:1" vType="default_015" speedFactor="0.99" vaporized="">
        <emissions CO_abs="4771.112442" CO2_abs="199321.676353" HC_abs="26.306899" PMx_abs="3.343694" NOx_abs="81.615727" fuel_abs="85.681462" electricity_abs="0"/>
    </tripinfo>
    <tripinfo id="carIn12365:1" depart="57713.00" departLane="315358244_1" departPos="5.10" departSpeed="0.00" departDelay="0.50" arrival="57788.00" arrivalLane="447569997#1_1" arrivalPos="180.93" arrivalSpeed="6.45" duration="75.00" routeLength="718.04" waitingTime="0.00" waitingCount="0" stopTime="0.00" timeLoss="7.91" rerouteNo="1" devices="tripinfo_carIn12365:1 routing_carIn12365:1 emissions_carIn12365:1" vType="default_016" speedFactor="0.92" vaporized="">
        <emissions CO_abs="2613.759891" CO2_abs="162451.292361" HC_abs="15.673237" PMx_abs="2.649245" NOx_abs="65.167314" fuel_abs="69.831280" electricity_abs="0"/>
    </tripinfo>
    <tripinfo id="h330c1:1" depart="57736.00" departLane="-32978638#0_1" departPos="5.10" departSpeed="0.00" departDelay="0.20" arrival="57793.00" arrivalLane="-266565295#5_1" arrivalPos="172.76" arrivalSpeed="14.86" duration="57.00" routeLength="370.53" waitingTime="23.00" waitingCount="1" stopTime="0.00" timeLoss="32.66" rerouteNo="1" devices="tripinfo_h330c1:1 routing_h330c1:1 emissions_h330c1:1" vType="default_016" speedFactor="1.12" vaporized="">
        <emissions CO_abs="5211.018435" CO2_abs="183783.320448" HC_abs="28.077955" PMx_abs="3.761341" NOx_abs="78.373357" fuel_abs="79.001852" electricity_abs="0"/>
    </tripinfo>
    <tripinfo id="carIn107282:1" depart="57749.00" departLane="-447569998#1_1" departPos="5.10" departSpeed="0.00" departDelay="0.00" arrival="57794.00" arrivalLane="315358242#0_1" arrivalPos="165.37" arrivalSpeed="13.63" duration="45.00" routeLength="448.50" waitingTime="0.00" waitingCount="0" stopTime="0.00" timeLoss="4.45" rerouteNo="1" devices="tripinfo_carIn107282:1 routing_carIn107282:1 emissions_carIn107282:1" vType="default_016" speedFactor="1.03" vaporized="">
        <emissions CO_abs="1605.232199" CO2_abs="100145.301691" HC_abs="9.598494" PMx_abs="1.599527" NOx_abs="39.826347" fuel_abs="43.048493" electricity_abs="0"/>
    </tripinfo>
    <tripinfo id="carIn28951:1" depart="57606.00" departLane="10425609#0_1" departPos="5.10" departSpeed="0.00" departDelay="0.20" arrival="57801.00" arrivalLane="-128361102#1_1" arrivalPos="274.68" arrivalSpeed="14.63" duration="195.00" routeLength="2113.04" waitingTime="30.00" waitingCount="2" stopTime="0.00" timeLoss="56.78" rerouteNo="1" devices="tripinfo_carIn28951:1 routing_carIn28951:1 emissions_carIn28951:1" vType="default_016" speedFactor="1.12" vaporized="">
        <emissions CO_abs="9947.144066" CO2_abs="539334.342299" HC_abs="57.946950" PMx_abs="10.032687" NOx_abs="221.388005" fuel_abs="231.837634" electricity_abs="0"/>
    </tripinfo>
    <tripinfo id="carIn129809:1" depart="57729.00" departLane="-447569998#1_1" departPos="5.10" departSpeed="0.00" departDelay="1.00" arrival="57802.00" arrivalLane="-315358244_1" arrivalPos="33.95" arrivalSpeed="15.64" duration="73.00" routeLength="706.49" waitingTime="3.00" waitingCount="1" stopTime="0.00" timeLoss="20.59" rerouteNo="1" devices="tripinfo_carIn129809:1 routing_carIn129809:1 emissions_carIn129809:1" vType="default_015" speedFactor="1.15" vaporized="">
        <emissions CO_abs="2911.343504" CO2_abs="165850.529407" HC_abs="17.074218" PMx_abs="2.900775" NOx_abs="67.157952" fuel_abs="71.292436" electricity_abs="0"/>
    </tripinfo>
    <tripinfo id="h9563c2:5" depart="57631.00" departLane="315358244_1" departPos="5.10" departSpeed="0.00" departDelay="0.70" arrival="57808.00" arrivalLane="386687235_1" arrivalPos="80.84" arrivalSpeed="11.26" duration="177.00" routeLength="1186.14" waitingTime="54.00" waitingCount="3" stopTime="0.00" timeLoss="76.38" rerouteNo="1" devices="tripinfo_h9563c2:5 routing_h9563c2:5 emissions_h9563c2:5" vType="default_016" speedFactor="0.86" vaporized="">
        <emissions CO_abs="10538.541970" CO2_abs="377403.044675" HC_abs="56.787303" PMx_abs="7.072062" NOx_abs="157.463368" fuel_abs="162.232802" electricity_abs="0"/>
    </tripinfo>
    <tripinfo id="carIn118591:1" depart="57689.00" departLane="315358244_1" departPos="5.10" departSpeed="0.00" departDelay="0.20" arrival="57810.00" arrivalLane="386687235_1" arrivalPos="80.84" arrivalSpeed="12.49" duration="121.00" routeLength="1186.14" waitingTime="8.00" waitingCount="2" stopTime="0.00" timeLoss="28.65" rerouteNo="1" devices="tripinfo_carIn118591:1 routing_carIn118591:1 emissions_carIn118591:1" vType="default_016" speedFactor="0.94" vaporized="">
        <emissions CO_abs="4207.033206" CO2_abs="279061.066404" HC_abs="25.649895" PMx_abs="4.568183" NOx_abs="111.306649" fuel_abs="119.956942" electricity_abs="0"/>
    </tripinfo>
    <tripinfo id="carIn81860:1" depart="57712.00" departLane="128361102#0_1" departPos="5.10" departSpeed="0.00" departDelay="0.60" arrival="57820.00" arrivalLane="-24634517#17_1" arrivalPos="6.43" arrivalSpeed="7.51" duration="108.00" routeLength="1229.64" waitingTime="0.00" waitingCount="0" stopTime="0.00" timeLoss="18.47" rerouteNo="1" devices="tripinfo_carIn81860:1 routing_carIn81860:1 emissions_carIn81860:1" vType="default_016" speedFactor="1.01" vaporized="">
        <emissions CO_abs="3727.210815" CO2_abs="270181.002140" HC_abs="23.266503" PMx_abs="4.513065" NOx_abs="107.948855" fuel_abs="116.139368" electricity_abs="0"/>
    </tripinfo>
    <tripinfo id="carIn50326:1" depart="57651.00" departLane="128361102#0_1" departPos="5.10" departSpeed="0.00" departDelay="0.30" arrival="57821.00" arrivalLane="18809673#0_1" arrivalPos="473.56" arrivalSpeed="14.11" duration="170.00" routeLength="1591.07" waitingTime="22.00" waitingCount="2" stopTime="0.00" timeLoss="45.50" rerouteNo="1" devices="tripinfo_carIn50326:1 routing_carIn50326:1 emissions_carIn50326:1" vType="default_016" speedFactor="1.04" vaporized="">
        <emissions CO_abs="7681.861954" CO2_abs="398613.931700" HC_abs="44.220763" PMx_abs="6.908141" NOx_abs="161.455757" fuel_abs="171.348666" electricity_abs="0"/>
    </tripinfo>
    <tripinfo id="h3154c1:1" depart="57658.00" departLane="24634507_1" departPos="5.10" departSpeed="0.00" departDelay="0.00" arrival="57821.00" arrivalLane="-266565295#5_1" arrivalPos="172.76" arrivalSpeed="10.22" duration="163.00" routeLength="1206.22" waitingTime="26.00" waitingCount="2" stopTime="0.00" timeLoss="48.52" rerouteNo="1" devices="tripinfo_h3154c1:1 routing_h3154c1:1 emissions_h3154c1:1" vType="default_016" speedFactor="0.78" vaporized="">
        <emissions CO_abs="8057.101610" CO2_abs="321890.553666" HC_abs="44.151419" PMx_abs="5.698998" NOx_abs="132.582827" fuel_abs="138.369527" electricity_abs="0"/>
    </tripinfo>
    <tripinfo id="h16072c2:3" depart="57663.00" departLane="315358254#0_1" departPos="5.10" departSpeed="0.00" departDelay="2.50" arrival="57833.00" arrivalLane="386687235_2" arrivalPos="80.84" arrivalSpeed="14.43" duration="170.00" routeLength="1611.92" waitingTime="26.00" waitingCount="3" stopTime="0.00" timeLoss="58.13" rerouteNo="1" devices="tripinfo_h16072c2:3 routing_h16072c2:3 emissions_h16072c2:3" vType="default_016" speedFactor="1.05" vaporized="">
        <emissions CO_abs="7489.377762" CO2_abs="401373.241975" HC_abs="43.442205" PMx_abs="7.102854" NOx_abs="163.156932" fuel_abs="172.534389" electricity_abs="0"/>
    </tripinfo>
    <tripinfo id="carIn48184:1" depart="57613.00" departLane="-306240162#1_0" departPos="5.10" departSpeed="0.00" departDelay="0.70" arrival="57834.00" arrivalLane="386687235_1" arrivalPos="80.84" arrivalSpeed="14.35" duration="221.00" routeLength="2257.41" waitingTime="49.00" waitingCount="2" stopTime="0.00" timeLoss="83.01" rerouteNo="1" devices="tripinfo_carIn48184:1 routing_carIn48184:1 emissions_carIn48184:1" vType="default_016" speedFactor="1.08" vaporized="">
        <emissions CO_abs="14023.001755" CO2_abs="663888.502962" HC_abs="79.497565" PMx_abs="12.805640" NOx_abs="273.916095" fuel_abs="285.379330" electricity_abs="0"/>
    </tripinfo>
    <tripinfo id="carIn82220:1" depart="57619.00" departLane="-306240162#1_0" departPos="5.10" departSpeed="0.00" departDelay="3.50" arrival="57836.00" arrivalLane="386687235_1" arrivalPos="80.84" arrivalSpeed="12.14" duration="217.00" routeLength="2257.41" waitingTime="29.00" waitingCount="3" stopTime="0.00" timeLoss="62.69" rerouteNo="1" devices="tripinfo_carIn82220:1 routing_carIn82220:1 emissions_carIn82220:1" vType="default_016" speedFactor="0.96" vaporized="">
        <emissions CO_abs="9840.958585" CO2_abs="578316.860697" HC_abs="58.337022" PMx_abs="10.191715" NOx_abs="233.458626" fuel_abs="248.594809" electricity_abs="0"/>
    </tripinfo>
    <tripinfo id="h645c1:1" depart="57622.00" departLane="266565295#5_1" departPos="5.10" departSpeed="0.00" departDelay="0.40" arrival="57845.00" arrivalLane="-315358244_1" arrivalPos="33.95" arrivalSpeed="11.24" duration="223.00" routeLength="1910.83" waitingTime="24.00" waitingCount="3" stopTime="0.00" timeLoss="52.77" rerouteNo="1" devices="tripinfo_h645c1:1 routing_h645c1:1 emissions_h645c1:1" vType="default_016" speedFactor="0.82" vaporized="">
        <emissions CO_abs="8762.641062" CO2_abs="450263.195771" HC_abs="50.344946" PMx_abs="7.542903" NOx_abs="181.997265" fuel_abs="193.551031" electricity_abs="0"/>
    </tripinfo>
    <tripinfo id="carIn8642:1" depart="57774.00" departLane="-447569998#1_1" departPos="5.10" departSpeed="0.00" departDelay="0.90" arrival="57846.00" arrivalLane="-315358244_1" arrivalPos="33.95" arrivalSpeed="13.53" duration="72.00" routeLength="706.49" waitingTime="5.00" waitingCount="1" stopTime="0.00" timeLoss="14.55" rerouteNo="1" devices="tripinfo_carIn8642:1 routing_carIn8642:1 emissions_carIn8642:1" vType="default_016" speedFactor="1.05" vaporized="">
        <emissions CO_abs="2545.189633" CO2_abs="163118.598481" HC_abs="15.368817" PMx_abs="2.659687" NOx_abs="64.965819" fuel_abs="70.118106" electricity_abs="0"/>
    </tripinfo>
    <tripinfo id="carIn82278:1" depart="57702.00" departLane="-306240162#1_0" departPos="5.10" departSpeed="0.00" departDelay="0.70" arrival="57849.00" arrivalLane="399835085#1_1" arrivalPos="212.23" arrivalSpeed="7.14" duration="147.00" routeLength="1093.26" waitingTime="32.00" waitingCount="2" stopTime="0.00" timeLoss="59.30" rerouteNo="1" devices="tripinfo_carIn82278:1 routing_carIn82278:1 emissions_carIn82278:1" vType="default_016" speedFactor="0.89" vaporized="">
        <emissions CO_abs="9514.998805" CO2_abs="377508.722370" HC_abs="52.223017" PMx_abs="7.366620" NOx_abs="158.994247" fuel_abs="162.276946" electricity_abs="0"/>
    </tripinfo>
    <tripinfo id="50R_frequency3.17" depart="57674.00" departLane="-18809673#6_1" departPos="12.10" departSpeed="0.00" departDelay="0.70" arrival="57850.00" arrivalLane="201956811#0_1" arrivalPos="40.40" arrivalSpeed="12.56" duration="176.00" routeLength="1954.47" waitingTime="5.00" waitingCount="1" stopTime="0.00" timeLoss="30.82" rerouteNo="1" devices="tripinfo_50R_frequency3.17 routing_50R_frequency3.17 emissions_50R_frequency3.17" vType="bus" speedFactor="1.00" vaporized="">
        <emissions CO_abs="3632.062044" CO2_abs="2288373.534224" HC_abs="763.439619" PMx_abs="389.544349" NOx_abs="17723.791128" fuel_abs="975.968445" electricity_abs="0"/>
    </tripinfo>
    <tripinfo id="carIn12858:1" depart="57661.00" departLane="128361109#1_1" departPos="5.10" departSpeed="0.00" departDelay="0.90" arrival="57852.00" arrivalLane="399835085#1_1" arrivalPos="212.23" arrivalSpeed="7.10" duration="191.00" routeLength="1738.12" waitingTime="47.00" waitingCount="2" stopTime="0.00" timeLoss="76.12" rerouteNo="1" devices="tripinfo_carIn12858:1 routing_carIn12858:1 emissions_carIn12858:1" vType="default_016" speedFactor="1.00" vaporized="">
        <emissions CO_abs="13474.877631" CO2_abs="583886.140654" HC_abs="75.225148" PMx_abs="11.590981" NOx_abs="243.862816" fuel_abs="250.989894" electricity_abs="0"/>
    </tripinfo>
    <tripinfo id="h6541c1:3" depart="57727.00" departLane="201950247#3_1" departPos="5.10" departSpeed="0.00" departDelay="0.00" arrival="57853.00" arrivalLane="32978638#0_2" arrivalPos="49.29" arrivalSpeed="14.95" duration="126.00" routeLength="1180.49" waitingTime="10.00" waitingCount="2" stopTime="0.00" timeLoss="33.81" rerouteNo="1" devices="tripinfo_h6541c1:3 routing_h6541c1:3 emissions_h6541c1:3" vType="default_016" speedFactor="1.12" vaporized="">
        <emissions CO_abs="5932.085907" CO2_abs="341715.083309" HC_abs="35.029209" PMx_abs="6.047437" NOx_abs="139.759370" fuel_abs="146.889263" electricity_abs="0"/>
    </tripinfo>
    <tripinfo id="carIn46110:1" depart="57684.00" departLane="315358244_1" departPos="5.10" departSpeed="0.00" departDelay="1.20" arrival="57854.00" arrivalLane="32978638#0_1" arrivalPos="49.29" arrivalSpeed="13.98" duration="170.00" routeLength="1764.04" waitingTime="21.00" waitingCount="3" stopTime="0.00" timeLoss="47.05" rerouteNo="1" devices="tripinfo_carIn46110:1 routing_carIn46110:1 emissions_carIn46110:1" vType="default_016" speedFactor="1.04" vaporized="">
        <emissions CO_abs="6546.292117" CO2_abs="405363.346087" HC_abs="39.224584" PMx_abs="6.926236" NOx_abs="162.547674" fuel_abs="174.249147" electricity_abs="0"/>
    </tripinfo>
    <tripinfo id="carIn12152:1" depart="57647.00" departLane="24599188#0.94_1" departPos="5.10" departSpeed="0.00" departDelay="0.50" arrival="57866.00" arrivalLane="-315358254#1_1" arrivalPos="137.16" arrivalSpeed="13.54" duration="219.00" routeLength="2034.31" waitingTime="45.00" waitingCount="2" stopTime="0.00" timeLoss="64.86" rerouteNo="1" devices="tripinfo_carIn12152:1 routing_carIn12152:1 emissions_carIn12152:1" vType="default_016" speedFactor="1.02" vaporized="">
        <emissions CO_abs="11417.414403" CO2_abs="493297.183688" HC_abs="63.379965" PMx_abs="8.769433" NOx_abs="200.681726" fuel_abs="212.050672" electricity_abs="0"/>
    </tripinfo>
    <tripinfo id="h20540c1:1" depart="57634.00" departLane="10425609#0_1" departPos="5.10" departSpeed="0.00" departDelay="0.50" arrival="57870.00" arrivalLane="-128361102#1_1" arrivalPos="274.68" arrivalSpeed="11.48" duration="236.00" routeLength="2113.04" waitingTime="37.00" waitingCount="1" stopTime="0.00" timeLoss="63.24" rerouteNo="1" devices="tripinfo_h20540c1:1 routing_h20540c1:1 emissions_h20540c1:1" vType="default_016" speedFactor="0.90" vaporized="">
        <emissions CO_abs="11179.045806" CO2_abs="531038.416411" HC_abs="63.237937" PMx_abs="9.031829" NOx_abs="214.472907" fuel_abs="228.273853" electricity_abs="0"/>
    </tripinfo>
    <tripinfo id="h17549c1:1" depart="57680.00" departLane="-447569998#1_1" departPos="5.10" departSpeed="0.00" departDelay="0.00" arrival="57870.00" arrivalLane="-315358254#1_1" arrivalPos="137.16" arrivalSpeed="12.38" duration="190.00" routeLength="1746.60" waitingTime="21.00" waitingCount="2" stopTime="0.00" timeLoss="41.60" rerouteNo="1" devices="tripinfo_h17549c1:1 routing_h17549c1:1 emissions_h17549c1:1" vType="default_016" speedFactor="0.93" vaporized="">
        <emissions CO_abs="7778.917187" CO2_abs="390945.018162" HC_abs="44.489147" PMx_abs="6.515349" NOx_abs="157.055525" fuel_abs="168.052677" electricity_abs="0"/>
    </tripinfo>
    <tripinfo id="randUni31145:1" depart="57814.00" departLane="10425609#0_1" departPos="5.10" departSpeed="0.00" departDelay="0.30" arrival="57871.00" arrivalLane="201956810_1" arrivalPos="71.65" arrivalSpeed="16.50" duration="57.00" routeLength="255.78" waitingTime="26.00" waitingCount="1" stopTime="0.00" timeLoss="40.59" rerouteNo="1" devices="tripinfo_randUni31145:1 routing_randUni31145:1 emissions_randUni31145:1" vType="random_016" speedFactor="1.21" vaporized="">
        <emissions CO_abs="6314.200872" CO2_abs="200633.521419" HC_abs="33.523158" PMx_abs="4.372978" NOx_abs="87.896240" fuel_abs="86.245212" electricity_abs="0"/>
    </tripinfo>
    <tripinfo id="h11737c1:1" depart="57665.00" departLane="272042143_1" departPos="5.10" departSpeed="0.00" departDelay="1.50" arrival="57872.00" arrivalLane="-315358254#1_1" arrivalPos="137.16" arrivalSpeed="15.74" duration="207.00" routeLength="1596.88" waitingTime="80.00" waitingCount="2" stopTime="0.00" timeLoss="106.30" rerouteNo="1" devices="tripinfo_h11737c1:1 routing_h11737c1:1 emissions_h11737c1:1" vType="default_016" speedFactor="1.16" vaporized="">
        <emissions CO_abs="16096.455872" CO2_abs="559476.302561" HC_abs="86.283629" PMx_abs="11.174643" NOx_abs="234.921984" fuel_abs="240.499554" electricity_abs="0"/>
    </tripinfo>
    <tripinfo id="h5216c1:1" depart="57664.00" departLane="224892339#0_1" departPos="5.10" departSpeed="0.00" departDelay="0.00" arrival="57873.00" arrivalLane="386687235_1" arrivalPos="80.84" arrivalSpeed="14.12" duration="209.00" routeLength="1823.78" waitingTime="51.00" waitingCount="4" stopTime="0.00" timeLoss="84.41" rerouteNo="1" devices="tripinfo_h5216c1:1 routing_h5216c1:1 emissions_h5216c1:1" vType="default_016" speedFactor="1.03" vaporized="">
        <emissions CO_abs="11582.637930" CO2_abs="535936.473080" HC_abs="65.340911" PMx_abs="10.098158" NOx_abs="221.614520" fuel_abs="230.378217" electricity_abs="0"/>
    </tripinfo>