<?xml version="1.0" encoding="UTF-8"?>

<!-- generated on 2021-10-26 14:06:34 by Eclipse SUMO sumo Version 1.10.0
<configuration xmlns:xsi="http://www.w3.org/2001/XMLSchema-instance" xsi:noNamespaceSchemaLocation="http://sumo.dlr.de/xsd/sumoConfiguration.xsd">

    <input>
        <net-file value="/Users/behradkoohy/sumo-scratchpad/RESCO/environments/ingolstadt21/ingolstadt21.net.xml"/>
        <route-files value="/Users/behradkoohy/sumo-scratchpad/RESCO/environments/ingolstadt21/ingolstadt21.rou.xml"/>
    </input>

    <output>
        <tripinfo-output value="/Users/behradkoohy/sumo-scratchpad/RESCO/logs/STOCHASTIC-tr0-ingolstadt21-21-mplight-wait/tripinfo_21.xml"/>
        <tripinfo-output.write-unfinished value="true"/>
    </output>

    <time>
        <begin value="57600"/>
        <end value="61200"/>
    </time>

    <processing>
        <time-to-teleport value="-1"/>
    </processing>

    <report>
        <no-warnings value="true"/>
        <no-step-log value="true"/>
    </report>

    <emissions>
        <device.emissions.probability value="1"/>
    </emissions>

    <traci_server>
        <remote-port value="60023"/>
    </traci_server>

    <random_number>
        <random value="true"/>
    </random_number>

</configuration>
-->

<tripinfos xmlns:xsi="http://www.w3.org/2001/XMLSchema-instance" xsi:noNamespaceSchemaLocation="http://sumo.dlr.de/xsd/tripinfo_file.xsd">
    <tripinfo id="carIn60260:1" depart="57606.00" departLane="315358254#0_1" departPos="5.10" departSpeed="0.00" departDelay="0.90" arrival="57659.00" arrivalLane="399835085#1_1" arrivalPos="212.23" arrivalSpeed="7.02" duration="53.00" routeLength="430.98" waitingTime="0.00" waitingCount="0" stopTime="0.00" timeLoss="6.74" rerouteNo="1" devices="tripinfo_carIn60260:1 routing_carIn60260:1 emissions_carIn60260:1" vType="default_016" speedFactor="0.99" vaporized="">
        <emissions CO_abs="2130.308774" CO2_abs="110153.578436" HC_abs="12.235084" PMx_abs="1.761220" NOx_abs="44.283624" fuel_abs="47.350921" electricity_abs="0"/>
    </tripinfo>
    <tripinfo id="h15454c2:3" depart="57612.00" departLane="24608844_1" departPos="5.10" departSpeed="0.00" departDelay="0.50" arrival="57668.00" arrivalLane="32978638#0_1" arrivalPos="49.29" arrivalSpeed="12.13" duration="56.00" routeLength="354.79" waitingTime="8.00" waitingCount="1" stopTime="0.00" timeLoss="18.81" rerouteNo="1" devices="tripinfo_h15454c2:3 routing_h15454c2:3 emissions_h15454c2:3" vType="default_016" speedFactor="0.93" vaporized="">
        <emissions CO_abs="2472.789507" CO2_abs="110794.621560" HC_abs="13.841289" PMx_abs="1.987211" NOx_abs="45.906110" fuel_abs="47.626438" electricity_abs="0"/>
    </tripinfo>
    <tripinfo id="carIn53971:1" depart="57640.00" departLane="272042143_1" departPos="5.10" departSpeed="0.00" departDelay="0.80" arrival="57699.00" arrivalLane="24634414#1_1" arrivalPos="162.19" arrivalSpeed="6.60" duration="59.00" routeLength="493.04" waitingTime="0.00" waitingCount="0" stopTime="0.00" timeLoss="7.34" rerouteNo="1" devices="tripinfo_carIn53971:1 routing_carIn53971:1 emissions_carIn53971:1" vType="default_016" speedFactor="0.88" vaporized="">
        <emissions CO_abs="2265.863354" CO2_abs="115882.132772" HC_abs="12.995314" PMx_abs="1.916244" NOx_abs="47.017427" fuel_abs="49.813336" electricity_abs="0"/>
    </tripinfo>
    <tripinfo id="h7800c1:5" depart="57696.00" departLane="-447569998#1_1" departPos="5.10" departSpeed="0.00" departDelay="0.00" arrival="57722.00" arrivalLane="-447569998#1_1" arrivalPos="180.76" arrivalSpeed="8.00" duration="26.00" routeLength="175.66" waitingTime="0.00" waitingCount="0" stopTime="0.00" timeLoss="3.29" rerouteNo="1" devices="tripinfo_h7800c1:5 routing_h7800c1:5 emissions_h7800c1:5" vType="default_016" speedFactor="0.97" vaporized="">
        <emissions CO_abs="1255.545644" CO2_abs="53226.676937" HC_abs="6.927160" PMx_abs="0.821773" NOx_abs="21.354058" fuel_abs="22.880389" electricity_abs="0"/>
    </tripinfo>
    <tripinfo id="carIn22761:1" depart="57616.00" departLane="-306240162#1_0" departPos="5.10" departSpeed="0.00" departDelay="2.10" arrival="57728.00" arrivalLane="399835085#1_1" arrivalPos="212.23" arrivalSpeed="7.12" duration="112.00" routeLength="1093.26" waitingTime="8.00" waitingCount="1" stopTime="0.00" timeLoss="26.69" rerouteNo="1" devices="tripinfo_carIn22761:1 routing_carIn22761:1 emissions_carIn22761:1" vType="default_016" speedFactor="0.92" vaporized="">
        <emissions CO_abs="5282.084533" CO2_abs="290301.856792" HC_abs="30.863623" PMx_abs="5.302695" NOx_abs="119.270041" fuel_abs="124.788835" electricity_abs="0"/>
    </tripinfo>
    <tripinfo id="h4538c1:1" depart="57701.00" departLane="-10427692#1_1" departPos="5.10" departSpeed="0.00" departDelay="0.00" arrival="57739.00" arrivalLane="-128361102#1_1" arrivalPos="274.68" arrivalSpeed="13.06" duration="38.00" routeLength="440.74" waitingTime="0.00" waitingCount="0" stopTime="0.00" timeLoss="7.00" rerouteNo="1" devices="tripinfo_h4538c1:1 routing_h4538c1:1 emissions_h4538c1:1" vType="default_016" speedFactor="1.02" vaporized="">
        <emissions CO_abs="1442.313457" CO2_abs="107558.039424" HC_abs="9.070109" PMx_abs="1.718708" NOx_abs="42.382633" fuel_abs="46.234739" electricity_abs="0"/>
    </tripinfo>
    <tripinfo id="h317c2:1" depart="57707.00" departLane="-32978638#0_1" departPos="5.10" departSpeed="0.00" departDelay="0.10" arrival="57743.00" arrivalLane="-266565295#5_1" arrivalPos="172.76" arrivalSpeed="12.38" duration="36.00" routeLength="370.53" waitingTime="0.00" waitingCount="0" stopTime="0.00" timeLoss="5.51" rerouteNo="1" devices="tripinfo_h317c2:1 routing_h317c2:1 emissions_h317c2:1" vType="default_016" speedFactor="0.91" vaporized="">
        <emissions CO_abs="1634.945740" CO2_abs="103771.613445" HC_abs="9.887851" PMx_abs="1.861546" NOx_abs="42.705578" fuel_abs="44.606958" electricity_abs="0"/>
    </tripinfo>
    <tripinfo id="h3688c1:1" depart="57625.00" departLane="201201950#1_1" departPos="5.10" departSpeed="0.00" departDelay="0.00" arrival="57752.00" arrivalLane="32978638#0_1" arrivalPos="49.29" arrivalSpeed="12.24" duration="127.00" routeLength="1089.75" waitingTime="29.00" waitingCount="1" stopTime="0.00" timeLoss="43.31" rerouteNo="1" devices="tripinfo_h3688c1:1 routing_h3688c1:1 emissions_h3688c1:1" vType="default_016" speedFactor="0.96" vaporized="">
        <emissions CO_abs="7294.053665" CO2_abs="310826.900526" HC_abs="40.465279" PMx_abs="5.590550" NOx_abs="127.282206" fuel_abs="133.613233" electricity_abs="0"/>
    </tripinfo>
    <tripinfo id="h7181c1:1" depart="57660.00" departLane="315358254#0_1" departPos="5.10" departSpeed="0.00" departDelay="0.10" arrival="57758.00" arrivalLane="306240162#0_0" arrivalPos="220.43" arrivalSpeed="14.22" duration="98.00" routeLength="932.35" waitingTime="24.00" waitingCount="1" stopTime="0.00" timeLoss="39.38" rerouteNo="1" devices="tripinfo_h7181c1:1 routing_h7181c1:1 emissions_h7181c1:1" vType="default_016" speedFactor="0.87" vaporized="">
        <emissions CO_abs="6811.982201" CO2_abs="293511.312537" HC_abs="37.860984" PMx_abs="5.679764" NOx_abs="121.629317" fuel_abs="126.169313" electricity_abs="0"/>
    </tripinfo>
    <tripinfo id="h3568c1:3" depart="57656.00" departLane="266565295#5_1" departPos="5.10" departSpeed="0.00" departDelay="0.80" arrival="57760.00" arrivalLane="-24634415_1" arrivalPos="62.03" arrivalSpeed="11.30" duration="104.00" routeLength="807.40" waitingTime="14.00" waitingCount="1" stopTime="0.00" timeLoss="31.74" rerouteNo="1" devices="tripinfo_h3568c1:3 routing_h3568c1:3 emissions_h3568c1:3" vType="default_016" speedFactor="0.89" vaporized="">
        <emissions CO_abs="5753.131248" CO2_abs="252827.068933" HC_abs="32.098002" PMx_abs="4.571392" NOx_abs="104.547827" fuel_abs="108.680926" electricity_abs="0"/>
    </tripinfo>
    <tripinfo id="h12244c1:3" depart="57612.00" departLane="315358244_1" departPos="5.10" departSpeed="0.00" departDelay="0.40" arrival="57767.00" arrivalLane="386687235_1" arrivalPos="80.84" arrivalSpeed="13.16" duration="155.00" routeLength="1186.14" waitingTime="45.00" waitingCount="4" stopTime="0.00" timeLoss="69.43" rerouteNo="1" devices="tripinfo_h12244c1:3 routing_h12244c1:3 emissions_h12244c1:3" vType="default_016" speedFactor="1.01" vaporized="">
        <emissions CO_abs="9790.726105" CO2_abs="383705.740487" HC_abs="53.573507" PMx_abs="7.200867" NOx_abs="159.074846" fuel_abs="164.941424" electricity_abs="0"/>
    </tripinfo>
    <tripinfo id="h5979c1:5" depart="57669.00" departLane="399835085#1_1" departPos="5.10" departSpeed="0.00" departDelay="0.00" arrival="57769.00" arrivalLane="-315358254#1_1" arrivalPos="137.16" arrivalSpeed="10.86" duration="100.00" routeLength="659.33" waitingTime="1.00" waitingCount="1" stopTime="0.00" timeLoss="15.42" rerouteNo="1" devices="tripinfo_h5979c1:5 routing_h5979c1:5 emissions_h5979c1:5" vType="default_016" speedFactor="0.86" vaporized="">
        <emissions CO_abs="4390.809126" CO2_abs="186951.276555" HC_abs="24.257073" PMx_abs="2.946356" NOx_abs="75.305335" fuel_abs="80.364077" electricity_abs="0"/>
    </tripinfo>
    <tripinfo id="carIn30817:1" depart="57681.00" departLane="315358244_1" departPos="5.10" departSpeed="0.00" departDelay="0.20" arrival="57769.00" arrivalLane="447569997#1_1" arrivalPos="180.93" arrivalSpeed="9.28" duration="88.00" routeLength="718.04" waitingTime="21.00" waitingCount="1" stopTime="0.00" timeLoss="33.16" rerouteNo="1" devices="tripinfo_carIn30817:1 routing_carIn30817:1 emissions_carIn30817:1" vType="default_016" speedFactor="1.13" vaporized="">
        <emissions CO_abs="5811.301406" CO2_abs="230276.972592" HC_abs="31.858442" PMx_abs="4.373904" NOx_abs="96.015888" fuel_abs="98.987705" electricity_abs="0"/>
    </tripinfo>
    <tripinfo id="h9563c2:5" depart="57631.00" departLane="315358244_1" departPos="5.10" departSpeed="0.00" departDelay="0.70" arrival="57770.00" arrivalLane="386687235_1" arrivalPos="80.84" arrivalSpeed="11.71" duration="139.00" routeLength="1186.14" waitingTime="16.00" waitingCount="3" stopTime="0.00" timeLoss="45.05" rerouteNo="1" devices="tripinfo_h9563c2:5 routing_h9563c2:5 emissions_h9563c2:5" vType="default_016" speedFactor="0.92" vaporized="">
        <emissions CO_abs="5344.204359" CO2_abs="286590.759019" HC_abs="31.008188" PMx_abs="4.864267" NOx_abs="115.832910" fuel_abs="123.194220" electricity_abs="0"/>
    </tripinfo>
    <tripinfo id="h3326c1:2" depart="57656.00" departLane="22716069#0_1" departPos="5.10" departSpeed="0.00" departDelay="0.00" arrival="57772.00" arrivalLane="24634517#13_1" arrivalPos="111.62" arrivalSpeed="12.63" duration="116.00" routeLength="1312.81" waitingTime="0.00" waitingCount="0" stopTime="0.00" timeLoss="14.74" rerouteNo="1" devices="tripinfo_h3326c1:2 routing_h3326c1:2 emissions_h3326c1:2" vType="default_016" speedFactor="0.96" vaporized="">
        <emissions CO_abs="3984.827435" CO2_abs="300686.707679" HC_abs="25.161676" PMx_abs="4.947856" NOx_abs="119.931615" fuel_abs="129.252429" electricity_abs="0"/>
    </tripinfo>
    <tripinfo id="carIn27009:1" depart="57673.00" departLane="-447569998#1_1" departPos="5.10" departSpeed="0.00" departDelay="0.50" arrival="57773.00" arrivalLane="-26677539_1" arrivalPos="152.75" arrivalSpeed="7.68" duration="100.00" routeLength="699.63" waitingTime="2.00" waitingCount="1" stopTime="0.00" timeLoss="16.87" rerouteNo="1" devices="tripinfo_carIn27009:1 routing_carIn27009:1 emissions_carIn27009:1" vType="default_015" speedFactor="1.01" vaporized="">
        <emissions CO_abs="4193.398753" CO2_abs="195109.180248" HC_abs="23.565103" PMx_abs="3.122806" NOx_abs="78.917125" fuel_abs="83.870478" electricity_abs="0"/>
    </tripinfo>
    <tripinfo id="carIn50326:1" depart="57651.00" departLane="128361102#0_1" departPos="5.10" departSpeed="0.00" departDelay="0.30" arrival="57775.00" arrivalLane="18809673#0_1" arrivalPos="473.56" arrivalSpeed="16.35" duration="124.00" routeLength="1591.07" waitingTime="0.00" waitingCount="0" stopTime="0.00" timeLoss="16.12" rerouteNo="1" devices="tripinfo_carIn50326:1 routing_carIn50326:1 emissions_carIn50326:1" vType="default_016" speedFactor="1.21" vaporized="">
        <emissions CO_abs="4283.202012" CO2_abs="358255.676284" HC_abs="27.698363" PMx_abs="5.980342" NOx_abs="141.506384" fuel_abs="153.998512" electricity_abs="0"/>
    </tripinfo>
    <tripinfo id="carIn28951:1" depart="57606.00" departLane="10425609#0_1" departPos="5.10" departSpeed="0.00" departDelay="0.20" arrival="57783.00" arrivalLane="-128361102#1_1" arrivalPos="274.68" arrivalSpeed="14.55" duration="177.00" routeLength="2113.04" waitingTime="14.00" waitingCount="1" stopTime="0.00" timeLoss="36.21" rerouteNo="1" devices="tripinfo_carIn28951:1 routing_carIn28951:1 emissions_carIn28951:1" vType="default_016" speedFactor="1.10" vaporized="">
        <emissions CO_abs="7555.696574" CO2_abs="480751.288752" HC_abs="45.575016" PMx_abs="8.603847" NOx_abs="194.714434" fuel_abs="206.654616" electricity_abs="0"/>
    </tripinfo>
    <tripinfo id="carIn107084:1" depart="57601.00" departLane="124812856#0_1" departPos="5.10" departSpeed="0.00" departDelay="0.70" arrival="57785.00" arrivalLane="-128361102#1_1" arrivalPos="274.68" arrivalSpeed="15.10" duration="184.00" routeLength="2250.49" waitingTime="6.00" waitingCount="2" stopTime="0.00" timeLoss="38.67" rerouteNo="1" devices="tripinfo_carIn107084:1 routing_carIn107084:1 emissions_carIn107084:1" vType="default_016" speedFactor="1.13" vaporized="">
        <emissions CO_abs="6891.596734" CO2_abs="531501.477415" HC_abs="43.616122" PMx_abs="9.263295" NOx_abs="213.419366" fuel_abs="228.469105" electricity_abs="0"/>
    </tripinfo>
    <tripinfo id="h330c1:1" depart="57736.00" departLane="-32978638#0_1" departPos="5.10" departSpeed="0.00" departDelay="0.20" arrival="57785.00" arrivalLane="-266565295#5_1" arrivalPos="172.76" arrivalSpeed="13.41" duration="49.00" routeLength="370.53" waitingTime="11.00" waitingCount="1" stopTime="0.00" timeLoss="21.14" rerouteNo="1" devices="tripinfo_h330c1:1 routing_h330c1:1 emissions_h330c1:1" vType="default_016" speedFactor="0.98" vaporized="">
        <emissions CO_abs="2763.249255" CO2_abs="135368.486154" HC_abs="15.738541" PMx_abs="2.410907" NOx_abs="55.350964" fuel_abs="58.189686" electricity_abs="0"/>
    </tripinfo>
    <tripinfo id="h16072c2:3" depart="57663.00" departLane="315358254#0_1" departPos="5.10" departSpeed="0.00" departDelay="2.50" arrival="57793.00" arrivalLane="386687235_1" arrivalPos="80.84" arrivalSpeed="14.38" duration="130.00" routeLength="1611.92" waitingTime="4.00" waitingCount="1" stopTime="0.00" timeLoss="25.07" rerouteNo="1" devices="tripinfo_h16072c2:3 routing_h16072c2:3 emissions_h16072c2:3" vType="default_016" speedFactor="1.12" vaporized="">
        <emissions CO_abs="4827.985368" CO2_abs="362995.639034" HC_abs="30.440042" PMx_abs="6.402652" NOx_abs="146.293859" fuel_abs="156.035857" electricity_abs="0"/>
    </tripinfo>
    <tripinfo id="carIn12858:1" depart="57661.00" departLane="128361109#1_1" departPos="5.10" departSpeed="0.00" departDelay="0.90" arrival="57799.00" arrivalLane="399835085#1_1" arrivalPos="212.23" arrivalSpeed="8.26" duration="138.00" routeLength="1738.12" waitingTime="3.00" waitingCount="1" stopTime="0.00" timeLoss="31.18" rerouteNo="1" devices="tripinfo_carIn12858:1 routing_carIn12858:1 emissions_carIn12858:1" vType="default_016" speedFactor="1.08" vaporized="">
        <emissions CO_abs="7681.862243" CO2_abs="513931.826234" HC_abs="47.313757" PMx_abs="10.050225" NOx_abs="212.136702" fuel_abs="220.916078" electricity_abs="0"/>
    </tripinfo>
    <tripinfo id="carIn121703:1" depart="57647.00" departLane="386687232#0_1" departPos="5.10" departSpeed="0.00" departDelay="0.30" arrival="57802.00" arrivalLane="-315358244_1" arrivalPos="33.95" arrivalSpeed="12.16" duration="155.00" routeLength="1157.39" waitingTime="53.00" waitingCount="1" stopTime="0.00" timeLoss="66.28" rerouteNo="1" devices="tripinfo_carIn121703:1 routing_carIn121703:1 emissions_carIn121703:1" vType="default_016" speedFactor="0.95" vaporized="">
        <emissions CO_abs="10903.218286" CO2_abs="362461.284068" HC_abs="58.120797" PMx_abs="6.953141" NOx_abs="151.330796" fuel_abs="155.810365" electricity_abs="0"/>
    </tripinfo>
    <tripinfo id="carIn107282:1" depart="57749.00" departLane="-447569998#1_1" departPos="5.10" departSpeed="0.00" departDelay="0.00" arrival="57805.00" arrivalLane="315358242#0_1" arrivalPos="165.37" arrivalSpeed="13.86" duration="56.00" routeLength="448.50" waitingTime="6.00" waitingCount="1" stopTime="0.00" timeLoss="14.83" rerouteNo="1" devices="tripinfo_carIn107282:1 routing_carIn107282:1 emissions_carIn107282:1" vType="default_016" speedFactor="1.01" vaporized="">
        <emissions CO_abs="2208.747536" CO2_abs="119121.523161" HC_abs="12.835602" PMx_abs="2.088646" NOx_abs="48.710775" fuel_abs="51.205581" electricity_abs="0"/>
    </tripinfo>
    <tripinfo id="S5R_frequency1.2" depart="57657.00" departLane="315358250#0_1" departPos="12.10" departSpeed="0.00" departDelay="45.40" arrival="57806.00" arrivalLane="386687235_1" arrivalPos="80.84" arrivalSpeed="13.78" duration="149.00" routeLength="1115.62" waitingTime="51.00" waitingCount="1" stopTime="0.00" timeLoss="67.69" rerouteNo="1" devices="tripinfo_S5R_frequency1.2 routing_S5R_frequency1.2 emissions_S5R_frequency1.2" vType="bus" speedFactor="1.00" vaporized="">
        <emissions CO_abs="2838.560465" CO2_abs="1435301.424245" HC_abs="629.572203" PMx_abs="297.214534" NOx_abs="12054.314265" fuel_abs="612.036266" electricity_abs="0"/>
    </tripinfo>
    <tripinfo id="carIn118591:1" depart="57689.00" departLane="315358244_1" departPos="5.10" departSpeed="0.00" departDelay="0.20" arrival="57808.00" arrivalLane="386687235_1" arrivalPos="80.84" arrivalSpeed="15.17" duration="119.00" routeLength="1186.14" waitingTime="15.00" waitingCount="1" stopTime="0.00" timeLoss="39.98" rerouteNo="1" devices="tripinfo_carIn118591:1 routing_carIn118591:1 emissions_carIn118591:1" vType="default_016" speedFactor="1.09" vaporized="">
        <emissions CO_abs="5830.314845" CO2_abs="313765.725173" HC_abs="33.928275" PMx_abs="5.692947" NOx_abs="128.617232" fuel_abs="134.875160" electricity_abs="0"/>
    </tripinfo>
    <tripinfo id="carIn86816:1" depart="57617.00" departLane="128361102#0_1" departPos="5.10" departSpeed="0.00" departDelay="0.80" arrival="57809.00" arrivalLane="201956811#0_1" arrivalPos="40.40" arrivalSpeed="12.94" duration="192.00" routeLength="2067.33" waitingTime="11.00" waitingCount="3" stopTime="0.00" timeLoss="40.82" rerouteNo="1" devices="tripinfo_carIn86816:1 routing_carIn86816:1 emissions_carIn86816:1" vType="default_016" speedFactor="1.00" vaporized="">
        <emissions CO_abs="6569.808447" CO2_abs="448684.025160" HC_abs="40.429054" PMx_abs="7.650706" NOx_abs="180.501433" fuel_abs="192.870328" electricity_abs="0"/>
    </tripinfo>
    <tripinfo id="h3154c1:1" depart="57658.00" departLane="24634507_1" departPos="5.10" departSpeed="0.00" departDelay="0.00" arrival="57817.00" arrivalLane="-266565295#5_1" arrivalPos="172.76" arrivalSpeed="13.59" duration="159.00" routeLength="1206.22" waitingTime="45.00" waitingCount="2" stopTime="0.00" timeLoss="69.18" rerouteNo="1" devices="tripinfo_h3154c1:1 routing_h3154c1:1 emissions_h3154c1:1" vType="default_016" speedFactor="0.99" vaporized="">
        <emissions CO_abs="10226.129569" CO2_abs="394511.141658" HC_abs="55.829740" PMx_abs="7.541453" NOx_abs="164.688715" fuel_abs="169.586182" electricity_abs="0"/>
    </tripinfo>
    <tripinfo id="carIn80064:1" depart="57603.00" departLane="128361109#1_1" departPos="5.10" departSpeed="0.00" departDelay="0.40" arrival="57819.00" arrivalLane="-315358254#1_1" arrivalPos="137.16" arrivalSpeed="13.23" duration="216.00" routeLength="1587.97" waitingTime="92.00" waitingCount="2" stopTime="0.00" timeLoss="127.23" rerouteNo="1" devices="tripinfo_carIn80064:1 routing_carIn80064:1 emissions_carIn80064:1" vType="default_016" speedFactor="1.02" vaporized="">
        <emissions CO_abs="20893.099129" CO2_abs="698437.261588" HC_abs="111.754540" PMx_abs="14.748368" NOx_abs="298.132244" fuel_abs="300.233620" electricity_abs="0"/>
    </tripinfo>
    <tripinfo id="h5938c1:1" depart="57740.00" departLane="-26677542#0_1" departPos="5.10" departSpeed="0.00" departDelay="0.00" arrival="57833.00" arrivalLane="447569997#1_1" arrivalPos="180.93" arrivalSpeed="9.23" duration="93.00" routeLength="1093.64" waitingTime="0.00" waitingCount="0" stopTime="0.00" timeLoss="10.15" rerouteNo="1" devices="tripinfo_h5938c1:1 routing_h5938c1:1 emissions_h5938c1:1" vType="default_016" speedFactor="1.17" vaporized="">
        <emissions CO_abs="3059.494477" CO2_abs="229068.533444" HC_abs="19.137689" PMx_abs="3.841651" NOx_abs="91.320752" fuel_abs="98.466754" electricity_abs="0"/>
    </tripinfo>
    <tripinfo id="h11737c1:1" depart="57665.00" departLane="272042143_1" departPos="5.10" departSpeed="0.00" departDelay="1.50" arrival="57837.00" arrivalLane="-315358254#1_1" arrivalPos="137.16" arrivalSpeed="14.23" duration="172.00" routeLength="1596.88" waitingTime="42.00" waitingCount="2" stopTime="0.00" timeLoss="65.63" rerouteNo="1" devices="tripinfo_h11737c1:1 routing_h11737c1:1 emissions_h11737c1:1" vType="default_016" speedFactor="1.10" vaporized="">
        <emissions CO_abs="11049.917003" CO2_abs="478017.583589" HC_abs="61.447189" PMx_abs="8.957353" NOx_abs="196.766761" fuel_abs="205.481877" electricity_abs="0"/>
    </tripinfo>
    <tripinfo id="carIn126288:1" depart="57674.00" departLane="272042143_1" departPos="5.10" departSpeed="0.00" departDelay="0.00" arrival="57839.00" arrivalLane="-315358254#1_1" arrivalPos="137.16" arrivalSpeed="13.47" duration="165.00" routeLength="1596.88" waitingTime="31.00" waitingCount="2" stopTime="0.00" timeLoss="51.27" rerouteNo="1" devices="tripinfo_carIn126288:1 routing_carIn126288:1 emissions_carIn126288:1" vType="default_016" speedFactor="1.03" vaporized="">
        <emissions CO_abs="7883.410579" CO2_abs="398870.195711" HC_abs="45.167342" PMx_abs="6.973438" NOx_abs="161.053520" fuel_abs="171.458994" electricity_abs="0"/>
    </tripinfo>
    <tripinfo id="carIn102915:1" depart="57643.00" departLane="128361102#0_1" departPos="5.10" departSpeed="0.00" departDelay="0.40" arrival="57844.00" arrivalLane="201956811#0_1" arrivalPos="40.40" arrivalSpeed="12.51" duration="201.00" routeLength="2067.33" waitingTime="23.00" waitingCount="1" stopTime="0.00" timeLoss="44.79" rerouteNo="1" devices="tripinfo_carIn102915:1 routing_carIn102915:1 emissions_carIn102915:1" vType="default_016" speedFactor="0.97" vaporized="">
        <emissions CO_abs="7882.975233" CO2_abs="458390.618537" HC_abs="46.568012" PMx_abs="7.594513" NOx_abs="182.776075" fuel_abs="197.044146" electricity_abs="0"/>
    </tripinfo>
    <tripinfo id="carIn12152:1" depart="57647.00" departLane="24599188#0.94_1" departPos="5.10" departSpeed="0.00" departDelay="0.50" arrival="57844.00" arrivalLane="-315358254#1_1" arrivalPos="137.16" arrivalSpeed="12.04" duration="197.00" routeLength="2034.31" waitingTime="5.00" waitingCount="2" stopTime="0.00" timeLoss="30.05" rerouteNo="1" devices="tripinfo_carIn12152:1 routing_carIn12152:1 emissions_carIn12152:1" vType="default_016" speedFactor="0.95" vaporized="">
        <emissions CO_abs="5832.282136" CO2_abs="404916.066279" HC_abs="35.970897" PMx_abs="6.520825" NOx_abs="160.845619" fuel_abs="174.056789" electricity_abs="0"/>
    </tripinfo>
    <tripinfo id="h6541c1:3" depart="57727.00" departLane="201950247#3_1" departPos="5.10" departSpeed="0.00" departDelay="0.00" arrival="57844.00" arrivalLane="32978638#0_1" arrivalPos="49.29" arrivalSpeed="14.46" duration="117.00" routeLength="1176.17" waitingTime="4.00" waitingCount="1" stopTime="0.00" timeLoss="26.36" rerouteNo="1" devices="tripinfo_h6541c1:3 routing_h6541c1:3 emissions_h6541c1:3" vType="default_016" speedFactor="1.13" vaporized="">
        <emissions CO_abs="5251.294503" CO2_abs="328789.733098" HC_abs="31.595973" PMx_abs="5.776611" NOx_abs="133.803510" fuel_abs="141.332894" electricity_abs="0"/>
    </tripinfo>
    <tripinfo id="carIn129809:1" depart="57729.00" departLane="-447569998#1_1" departPos="5.10" departSpeed="0.00" departDelay="1.00" arrival="57844.00" arrivalLane="-315358244_1" arrivalPos="33.95" arrivalSpeed="12.05" duration="115.00" routeLength="706.49" waitingTime="20.00" waitingCount="2" stopTime="0.00" timeLoss="45.82" rerouteNo="1" devices="tripinfo_carIn129809:1 routing_carIn129809:1 emissions_carIn129809:1" vType="default_015" speedFactor="0.87" vaporized="">
        <emissions CO_abs="6227.979508" CO2_abs="240728.599300" HC_abs="33.932201" PMx_abs="4.245402" NOx_abs="98.984278" fuel_abs="103.481037" electricity_abs="0"/>
    </tripinfo>
    <tripinfo id="randUni33724:1" depart="57646.00" departLane="128361102#0_1" departPos="5.10" departSpeed="0.00" departDelay="1.20" arrival="57845.00" arrivalLane="201956811#0_1" arrivalPos="40.40" arrivalSpeed="15.57" duration="199.00" routeLength="2067.33" waitingTime="21.00" waitingCount="1" stopTime="0.00" timeLoss="69.81" rerouteNo="1" devices="tripinfo_randUni33724:1 routing_randUni33724:1 emissions_randUni33724:1" vType="random_016" speedFactor="1.17" vaporized="">
        <emissions CO_abs="8885.960494" CO2_abs="516568.731620" HC_abs="52.574701" PMx_abs="9.069567" NOx_abs="209.565606" fuel_abs="222.051824" electricity_abs="0"/>
    </tripinfo>
    <tripinfo id="carIn81860:1" depart="57712.00" departLane="128361102#0_1" departPos="5.10" departSpeed="0.00" departDelay="0.60" arrival="57855.00" arrivalLane="-24634517#17_1" arrivalPos="6.43" arrivalSpeed="6.90" duration="143.00" routeLength="1229.64" waitingTime="29.00" waitingCount="2" stopTime="0.00" timeLoss="52.37" rerouteNo="1" devices="tripinfo_carIn81860:1 routing_carIn81860:1 emissions_carIn81860:1" vType="default_016" speedFactor="0.99" vaporized="">
        <emissions CO_abs="8477.844558" CO2_abs="360331.635733" HC_abs="46.982366" PMx_abs="6.517144" NOx_abs="147.663237" fuel_abs="154.893497" electricity_abs="0"/>
    </tripinfo>
    <tripinfo id="carIn12365:1" depart="57713.00" departLane="315358244_1" departPos="5.10" departSpeed="0.00" departDelay="0.50" arrival="57855.00" arrivalLane="447569997#1_1" arrivalPos="180.93" arrivalSpeed="9.14" duration="142.00" routeLength="718.04" waitingTime="69.00" waitingCount="2" stopTime="0.00" timeLoss="85.85" rerouteNo="1" devices="tripinfo_carIn12365:1 routing_carIn12365:1 emissions_carIn12365:1" vType="default_016" speedFactor="1.11" vaporized="">
        <emissions CO_abs="13603.642926" CO2_abs="362734.684383" HC_abs="70.460367" PMx_abs="7.630654" NOx_abs="156.486748" fuel_abs="155.929095" electricity_abs="0"/>
    </tripinfo>
    <tripinfo id="h17549c1:1" depart="57680.00" departLane="-447569998#1_1" departPos="5.10" departSpeed="0.00" departDelay="0.00" arrival="57856.00" arrivalLane="-315358254#1_1" arrivalPos="137.16" arrivalSpeed="14.01" duration="176.00" routeLength="1746.60" waitingTime="29.00" waitingCount="2" stopTime="0.00" timeLoss="51.02" rerouteNo="1" devices="tripinfo_h17549c1:1 routing_h17549c1:1 emissions_h17549c1:1" vType="default_016" speedFactor="1.09" vaporized="">
        <emissions CO_abs="8711.555270" CO2_abs="444854.839389" HC_abs="50.053013" PMx_abs="7.978708" NOx_abs="180.924038" fuel_abs="191.225652" electricity_abs="0"/>
    </tripinfo>
    <tripinfo id="h17600c1:1" depart="57662.00" departLane="272042143_1" departPos="5.10" departSpeed="0.00" departDelay="0.30" arrival="57860.00" arrivalLane="201238729#3_1" arrivalPos="431.02" arrivalSpeed="14.43" duration="198.00" routeLength="2100.26" waitingTime="38.00" waitingCount="1" stopTime="0.00" timeLoss="54.65" rerouteNo="1" devices="tripinfo_h17600c1:1 routing_h17600c1:1 emissions_h17600c1:1" vType="default_016" speedFactor="1.06" vaporized="">
        <emissions CO_abs="9622.572372" CO2_abs="480958.430661" HC_abs="54.928168" PMx_abs="8.442799" NOx_abs="193.350300" fuel_abs="206.745720" electricity_abs="0"/>
    </tripinfo>
    <tripinfo id="carIn46110:1" depart="57684.00" departLane="315358244_1" departPos="5.10" departSpeed="0.00" departDelay="1.20" arrival="57863.00" arrivalLane="32978638#0_1" arrivalPos="49.29" arrivalSpeed="12.23" duration="179.00" routeLength="1764.04" waitingTime="19.00" waitingCount="1" stopTime="0.00" timeLoss="38.45" rerouteNo="1" devices="tripinfo_carIn46110:1 routing_carIn46110:1 emissions_carIn46110:1" vType="default_016" speedFactor="0.91" vaporized="">
        <emissions CO_abs="6586.123503" CO2_abs="389545.754618" HC_abs="39.014393" PMx_abs="6.194598" NOx_abs="153.854604" fuel_abs="167.450718" electricity_abs="0"/>
    </tripinfo>
    <tripinfo id="h645c1:1" depart="57622.00" departLane="266565295#5_1" departPos="5.10" departSpeed="0.00" departDelay="0.40" arrival="57864.00" arrivalLane="-315358244_1" arrivalPos="33.95" arrivalSpeed="11.57" duration="242.00" routeLength="1910.83" waitingTime="48.00" waitingCount="5" stopTime="0.00" timeLoss="85.07" rerouteNo="1" devices="tripinfo_h645c1:1 routing_h645c1:1 emissions_h645c1:1" vType="default_016" speedFactor="0.89" vaporized="">
        <emissions CO_abs="11139.148399" CO2_abs="501480.569787" HC_abs="62.407231" PMx_abs="8.867151" NOx_abs="205.375626" fuel_abs="215.567937" electricity_abs="0"/>
    </tripinfo>
    <tripinfo id="randUni15030:1" depart="57735.00" departLane="386687232#0_1" departPos="5.10" departSpeed="0.00" departDelay="0.10" arrival="57864.00" arrivalLane="26677539_1" arrivalPos="151.98" arrivalSpeed="7.47" duration="129.00" routeLength="919.89" waitingTime="26.00" waitingCount="1" stopTime="0.00" timeLoss="40.08" rerouteNo="1" devices="tripinfo_randUni15030:1 routing_randUni15030:1 emissions_randUni15030:1" vType="random_016" speedFactor="0.94" vaporized="">
        <emissions CO_abs="7420.386250" CO2_abs="266355.447936" HC_abs="39.975172" PMx_abs="4.871635" NOx_abs="110.473630" fuel_abs="114.497353" electricity_abs="0"/>
    </tripinfo>