<?xml version="1.0" encoding="UTF-8"?>

<!-- generated on 2021-10-26 14:18:39 by Eclipse SUMO sumo Version 1.10.0
<configuration xmlns:xsi="http://www.w3.org/2001/XMLSchema-instance" xsi:noNamespaceSchemaLocation="http://sumo.dlr.de/xsd/sumoConfiguration.xsd">

    <input>
        <net-file value="/Users/behradkoohy/sumo-scratchpad/RESCO/environments/ingolstadt21/ingolstadt21.net.xml"/>
        <route-files value="/Users/behradkoohy/sumo-scratchpad/RESCO/environments/ingolstadt21/ingolstadt21.rou.xml"/>
    </input>

    <output>
        <tripinfo-output value="/Users/behradkoohy/sumo-scratchpad/RESCO/logs/STOCHASTIC-tr0-ingolstadt21-21-mplight-wait/tripinfo_40.xml"/>
        <tripinfo-output.write-unfinished value="true"/>
    </output>

    <time>
        <begin value="57600"/>
        <end value="61200"/>
    </time>

    <processing>
        <time-to-teleport value="-1"/>
    </processing>

    <report>
        <no-warnings value="true"/>
        <no-step-log value="true"/>
    </report>

    <emissions>
        <device.emissions.probability value="1"/>
    </emissions>

    <traci_server>
        <remote-port value="60220"/>
    </traci_server>

    <random_number>
        <random value="true"/>
    </random_number>

</configuration>
-->

<tripinfos xmlns:xsi="http://www.w3.org/2001/XMLSchema-instance" xsi:noNamespaceSchemaLocation="http://sumo.dlr.de/xsd/tripinfo_file.xsd">
    <tripinfo id="h15454c2:3" depart="57612.00" departLane="24608844_1" departPos="5.10" departSpeed="0.00" departDelay="0.50" arrival="57661.00" arrivalLane="32978638#0_1" arrivalPos="49.29" arrivalSpeed="12.00" duration="49.00" routeLength="354.79" waitingTime="2.00" waitingCount="1" stopTime="0.00" timeLoss="12.10" rerouteNo="1" devices="tripinfo_h15454c2:3 routing_h15454c2:3 emissions_h15454c2:3" vType="default_016" speedFactor="0.92" vaporized="">
        <emissions CO_abs="2440.511970" CO2_abs="113531.639010" HC_abs="13.749594" PMx_abs="1.989880" NOx_abs="46.898363" fuel_abs="48.802953" electricity_abs="0"/>
    </tripinfo>
    <tripinfo id="carIn60260:1" depart="57606.00" departLane="315358254#0_1" departPos="5.10" departSpeed="0.00" departDelay="0.90" arrival="57666.00" arrivalLane="399835085#1_1" arrivalPos="212.23" arrivalSpeed="8.94" duration="60.00" routeLength="430.98" waitingTime="11.00" waitingCount="1" stopTime="0.00" timeLoss="22.44" rerouteNo="1" devices="tripinfo_carIn60260:1 routing_carIn60260:1 emissions_carIn60260:1" vType="default_016" speedFactor="1.22" vaporized="">
        <emissions CO_abs="3703.673895" CO2_abs="152188.016743" HC_abs="20.431911" PMx_abs="2.870625" NOx_abs="63.733206" fuel_abs="65.419972" electricity_abs="0"/>
    </tripinfo>
    <tripinfo id="carIn53971:1" depart="57640.00" departLane="272042143_1" departPos="5.10" departSpeed="0.00" departDelay="0.80" arrival="57696.00" arrivalLane="24634414#1_1" arrivalPos="162.19" arrivalSpeed="6.92" duration="56.00" routeLength="493.04" waitingTime="0.00" waitingCount="0" stopTime="0.00" timeLoss="8.56" rerouteNo="1" devices="tripinfo_carIn53971:1 routing_carIn53971:1 emissions_carIn53971:1" vType="default_016" speedFactor="0.96" vaporized="">
        <emissions CO_abs="2212.096818" CO2_abs="127242.886377" HC_abs="13.025591" PMx_abs="2.103455" NOx_abs="51.339854" fuel_abs="54.696687" electricity_abs="0"/>
    </tripinfo>
    <tripinfo id="carIn22761:1" depart="57616.00" departLane="-306240162#1_0" departPos="5.10" departSpeed="0.00" departDelay="2.10" arrival="57720.00" arrivalLane="399835085#1_1" arrivalPos="212.23" arrivalSpeed="7.27" duration="104.00" routeLength="1093.26" waitingTime="0.00" waitingCount="0" stopTime="0.00" timeLoss="17.98" rerouteNo="1" devices="tripinfo_carIn22761:1 routing_carIn22761:1 emissions_carIn22761:1" vType="default_016" speedFactor="0.91" vaporized="">
        <emissions CO_abs="4658.474923" CO2_abs="279115.265595" HC_abs="27.791690" PMx_abs="5.033593" NOx_abs="114.316677" fuel_abs="119.979919" electricity_abs="0"/>
    </tripinfo>
    <tripinfo id="h7800c1:5" depart="57696.00" departLane="-447569998#1_1" departPos="5.10" departSpeed="0.00" departDelay="0.00" arrival="57725.00" arrivalLane="-447569998#1_2" arrivalPos="180.76" arrivalSpeed="3.69" duration="29.00" routeLength="175.66" waitingTime="2.00" waitingCount="1" stopTime="0.00" timeLoss="8.51" rerouteNo="1" devices="tripinfo_h7800c1:5 routing_h7800c1:5 emissions_h7800c1:5" vType="default_016" speedFactor="1.04" vaporized="">
        <emissions CO_abs="1308.619633" CO2_abs="54238.764346" HC_abs="7.209330" PMx_abs="0.931432" NOx_abs="22.351847" fuel_abs="23.315335" electricity_abs="0"/>
    </tripinfo>
    <tripinfo id="h317c2:1" depart="57707.00" departLane="-32978638#0_1" departPos="5.10" departSpeed="0.00" departDelay="0.10" arrival="57744.00" arrivalLane="-266565295#5_1" arrivalPos="172.76" arrivalSpeed="13.55" duration="37.00" routeLength="370.53" waitingTime="1.00" waitingCount="1" stopTime="0.00" timeLoss="10.10" rerouteNo="1" devices="tripinfo_h317c2:1 routing_h317c2:1 emissions_h317c2:1" vType="default_016" speedFactor="1.02" vaporized="">
        <emissions CO_abs="1985.487674" CO2_abs="124101.036219" HC_abs="11.929317" PMx_abs="2.206393" NOx_abs="50.624724" fuel_abs="53.345787" electricity_abs="0"/>
    </tripinfo>
    <tripinfo id="S5R_frequency1.2" depart="57615.00" departLane="315358250#0_1" departPos="12.10" departSpeed="0.00" departDelay="3.40" arrival="57746.00" arrivalLane="386687235_1" arrivalPos="80.84" arrivalSpeed="13.34" duration="131.00" routeLength="1115.62" waitingTime="24.00" waitingCount="2" stopTime="0.00" timeLoss="50.07" rerouteNo="1" devices="tripinfo_S5R_frequency1.2 routing_S5R_frequency1.2 emissions_S5R_frequency1.2" vType="bus" speedFactor="1.00" vaporized="">
        <emissions CO_abs="2662.090049" CO2_abs="1537602.419741" HC_abs="567.702293" PMx_abs="282.342654" NOx_abs="12285.808651" fuel_abs="655.725217" electricity_abs="0"/>
    </tripinfo>
    <tripinfo id="h12244c1:3" depart="57612.00" departLane="315358244_1" departPos="5.10" departSpeed="0.00" departDelay="0.40" arrival="57752.00" arrivalLane="386687235_1" arrivalPos="80.84" arrivalSpeed="15.22" duration="140.00" routeLength="1186.14" waitingTime="48.00" waitingCount="1" stopTime="0.00" timeLoss="61.95" rerouteNo="1" devices="tripinfo_h12244c1:3 routing_h12244c1:3 emissions_h12244c1:3" vType="default_016" speedFactor="1.11" vaporized="">
        <emissions CO_abs="9997.276838" CO2_abs="368663.669452" HC_abs="53.947580" PMx_abs="6.992010" NOx_abs="152.053884" fuel_abs="158.475854" electricity_abs="0"/>
    </tripinfo>
    <tripinfo id="h4538c1:1" depart="57701.00" departLane="-10427692#1_1" departPos="5.10" departSpeed="0.00" departDelay="0.00" arrival="57752.00" arrivalLane="-128361102#1_1" arrivalPos="274.68" arrivalSpeed="15.22" duration="51.00" routeLength="440.74" waitingTime="13.00" waitingCount="1" stopTime="0.00" timeLoss="23.54" rerouteNo="1" devices="tripinfo_h4538c1:1 routing_h4538c1:1 emissions_h4538c1:1" vType="default_016" speedFactor="1.16" vaporized="">
        <emissions CO_abs="3210.130425" CO2_abs="144230.528328" HC_abs="17.933606" PMx_abs="2.701605" NOx_abs="59.383197" fuel_abs="61.999194" electricity_abs="0"/>
    </tripinfo>
    <tripinfo id="h3688c1:1" depart="57625.00" departLane="201201950#1_1" departPos="5.10" departSpeed="0.00" departDelay="0.00" arrival="57754.00" arrivalLane="32978638#0_1" arrivalPos="49.29" arrivalSpeed="11.69" duration="129.00" routeLength="1089.75" waitingTime="24.00" waitingCount="1" stopTime="0.00" timeLoss="37.87" rerouteNo="1" devices="tripinfo_h3688c1:1 routing_h3688c1:1 emissions_h3688c1:1" vType="default_016" speedFactor="0.88" vaporized="">
        <emissions CO_abs="6622.503471" CO2_abs="294357.824193" HC_abs="36.996612" PMx_abs="5.111396" NOx_abs="119.766017" fuel_abs="126.533768" electricity_abs="0"/>
    </tripinfo>
    <tripinfo id="h5979c1:5" depart="57669.00" departLane="399835085#1_1" departPos="5.10" departSpeed="0.00" departDelay="0.00" arrival="57757.00" arrivalLane="-315358254#1_1" arrivalPos="137.16" arrivalSpeed="15.53" duration="88.00" routeLength="659.33" waitingTime="5.00" waitingCount="1" stopTime="0.00" timeLoss="24.15" rerouteNo="1" devices="tripinfo_h5979c1:5 routing_h5979c1:5 emissions_h5979c1:5" vType="default_016" speedFactor="1.15" vaporized="">
        <emissions CO_abs="4024.956273" CO2_abs="209201.757252" HC_abs="23.122789" PMx_abs="3.631457" NOx_abs="85.769821" fuel_abs="89.927594" electricity_abs="0"/>
    </tripinfo>
    <tripinfo id="h3568c1:3" depart="57656.00" departLane="266565295#5_1" departPos="5.10" departSpeed="0.00" departDelay="0.80" arrival="57759.00" arrivalLane="-24634415_1" arrivalPos="62.03" arrivalSpeed="11.50" duration="103.00" routeLength="807.40" waitingTime="15.00" waitingCount="1" stopTime="0.00" timeLoss="31.33" rerouteNo="1" devices="tripinfo_h3568c1:3 routing_h3568c1:3 emissions_h3568c1:3" vType="default_016" speedFactor="0.90" vaporized="">
        <emissions CO_abs="5323.981216" CO2_abs="241172.749295" HC_abs="29.868528" PMx_abs="4.316967" NOx_abs="99.440001" fuel_abs="103.671096" electricity_abs="0"/>
    </tripinfo>
    <tripinfo id="carIn30817:1" depart="57681.00" departLane="315358244_1" departPos="5.10" departSpeed="0.00" departDelay="0.20" arrival="57773.00" arrivalLane="447569997#1_1" arrivalPos="180.93" arrivalSpeed="7.61" duration="92.00" routeLength="718.04" waitingTime="19.00" waitingCount="1" stopTime="0.00" timeLoss="32.08" rerouteNo="1" devices="tripinfo_carIn30817:1 routing_carIn30817:1 emissions_carIn30817:1" vType="default_016" speedFactor="1.03" vaporized="">
        <emissions CO_abs="5053.728398" CO2_abs="222263.611455" HC_abs="28.145578" PMx_abs="4.017846" NOx_abs="91.341149" fuel_abs="95.542880" electricity_abs="0"/>
    </tripinfo>
    <tripinfo id="h3326c1:2" depart="57656.00" departLane="22716069#0_1" departPos="5.10" departSpeed="0.00" departDelay="0.00" arrival="57780.00" arrivalLane="24634517#13_1" arrivalPos="111.62" arrivalSpeed="11.71" duration="124.00" routeLength="1312.81" waitingTime="0.00" waitingCount="0" stopTime="0.00" timeLoss="15.57" rerouteNo="1" devices="tripinfo_h3326c1:2 routing_h3326c1:2 emissions_h3326c1:2" vType="default_016" speedFactor="0.90" vaporized="">
        <emissions CO_abs="4022.695749" CO2_abs="295633.023048" HC_abs="25.168118" PMx_abs="4.589277" NOx_abs="116.457952" fuel_abs="127.080544" electricity_abs="0"/>
    </tripinfo>
    <tripinfo id="h3154c1:1" depart="57658.00" departLane="24634507_1" departPos="5.10" departSpeed="0.00" departDelay="0.00" arrival="57782.00" arrivalLane="-266565295#5_1" arrivalPos="172.76" arrivalSpeed="12.44" duration="124.00" routeLength="1206.22" waitingTime="14.00" waitingCount="1" stopTime="0.00" timeLoss="31.80" rerouteNo="1" devices="tripinfo_h3154c1:1 routing_h3154c1:1 emissions_h3154c1:1" vType="default_016" speedFactor="0.97" vaporized="">
        <emissions CO_abs="5860.292199" CO2_abs="327989.092412" HC_abs="34.342080" PMx_abs="5.690950" NOx_abs="132.974913" fuel_abs="140.989382" electricity_abs="0"/>
    </tripinfo>
    <tripinfo id="h7181c1:1" depart="57660.00" departLane="315358254#0_1" departPos="5.10" departSpeed="0.00" departDelay="0.10" arrival="57782.00" arrivalLane="306240162#0_0" arrivalPos="220.43" arrivalSpeed="15.68" duration="122.00" routeLength="932.35" waitingTime="48.00" waitingCount="2" stopTime="0.00" timeLoss="67.93" rerouteNo="1" devices="tripinfo_h7181c1:1 routing_h7181c1:1 emissions_h7181c1:1" vType="default_016" speedFactor="0.96" vaporized="">
        <emissions CO_abs="10867.434363" CO2_abs="390908.282494" HC_abs="58.772609" PMx_abs="8.208767" NOx_abs="166.938876" fuel_abs="168.037045" electricity_abs="0"/>
    </tripinfo>
    <tripinfo id="carIn27009:1" depart="57673.00" departLane="-447569998#1_1" departPos="5.10" departSpeed="0.00" departDelay="0.50" arrival="57796.00" arrivalLane="-26677539_1" arrivalPos="152.75" arrivalSpeed="7.27" duration="123.00" routeLength="699.63" waitingTime="23.00" waitingCount="1" stopTime="0.00" timeLoss="37.77" rerouteNo="1" devices="tripinfo_carIn27009:1 routing_carIn27009:1 emissions_carIn27009:1" vType="default_015" speedFactor="0.98" vaporized="">
        <emissions CO_abs="7558.045281" CO2_abs="246615.986186" HC_abs="40.080594" PMx_abs="4.367187" NOx_abs="102.301694" fuel_abs="106.012723" electricity_abs="0"/>
    </tripinfo>
    <tripinfo id="carIn129809:1" depart="57729.00" departLane="-447569998#1_1" departPos="5.10" departSpeed="0.00" departDelay="1.00" arrival="57797.00" arrivalLane="-315358244_1" arrivalPos="33.95" arrivalSpeed="13.71" duration="68.00" routeLength="706.49" waitingTime="0.00" waitingCount="0" stopTime="0.00" timeLoss="8.75" rerouteNo="1" devices="tripinfo_carIn129809:1 routing_carIn129809:1 emissions_carIn129809:1" vType="default_015" speedFactor="1.02" vaporized="">
        <emissions CO_abs="2291.613205" CO2_abs="149014.178177" HC_abs="13.883636" PMx_abs="2.443280" NOx_abs="59.404701" fuel_abs="64.055137" electricity_abs="0"/>
    </tripinfo>
    <tripinfo id="h9563c2:5" depart="57631.00" departLane="315358244_1" departPos="5.10" departSpeed="0.00" departDelay="0.70" arrival="57798.00" arrivalLane="386687235_1" arrivalPos="80.84" arrivalSpeed="10.82" duration="167.00" routeLength="1186.14" waitingTime="45.00" waitingCount="2" stopTime="0.00" timeLoss="65.90" rerouteNo="1" devices="tripinfo_h9563c2:5 routing_h9563c2:5 emissions_h9563c2:5" vType="default_016" speedFactor="0.85" vaporized="">
        <emissions CO_abs="9996.584257" CO2_abs="352650.409418" HC_abs="53.724355" PMx_abs="6.525323" NOx_abs="146.429152" fuel_abs="151.592754" electricity_abs="0"/>
    </tripinfo>
    <tripinfo id="h330c1:1" depart="57736.00" departLane="-32978638#0_1" departPos="5.10" departSpeed="0.00" departDelay="0.20" arrival="57799.00" arrivalLane="-266565295#5_1" arrivalPos="172.76" arrivalSpeed="10.36" duration="63.00" routeLength="370.53" waitingTime="20.00" waitingCount="1" stopTime="0.00" timeLoss="29.63" rerouteNo="1" devices="tripinfo_h330c1:1 routing_h330c1:1 emissions_h330c1:1" vType="default_016" speedFactor="0.83" vaporized="">
        <emissions CO_abs="4237.898160" CO2_abs="141745.702463" HC_abs="22.601953" PMx_abs="2.709186" NOx_abs="59.624094" fuel_abs="60.931826" electricity_abs="0"/>
    </tripinfo>
    <tripinfo id="carIn121703:1" depart="57647.00" departLane="386687232#0_1" departPos="5.10" departSpeed="0.00" departDelay="0.30" arrival="57801.00" arrivalLane="-315358244_1" arrivalPos="33.95" arrivalSpeed="15.25" duration="154.00" routeLength="1157.39" waitingTime="59.00" waitingCount="2" stopTime="0.00" timeLoss="79.23" rerouteNo="1" devices="tripinfo_carIn121703:1 routing_carIn121703:1 emissions_carIn121703:1" vType="default_016" speedFactor="1.13" vaporized="">
        <emissions CO_abs="11744.483194" CO2_abs="402927.827027" HC_abs="62.904268" PMx_abs="7.990087" NOx_abs="168.908444" fuel_abs="173.204993" electricity_abs="0"/>
    </tripinfo>
    <tripinfo id="h645c1:1" depart="57622.00" departLane="266565295#5_1" departPos="5.10" departSpeed="0.00" departDelay="0.40" arrival="57802.00" arrivalLane="-315358244_2" arrivalPos="33.95" arrivalSpeed="14.88" duration="180.00" routeLength="1910.83" waitingTime="31.00" waitingCount="2" stopTime="0.00" timeLoss="54.66" rerouteNo="1" devices="tripinfo_h645c1:1 routing_h645c1:1 emissions_h645c1:1" vType="default_016" speedFactor="1.10" vaporized="">
        <emissions CO_abs="8311.419199" CO2_abs="472073.145246" HC_abs="48.543234" PMx_abs="8.021214" NOx_abs="187.536956" fuel_abs="202.925727" electricity_abs="0"/>
    </tripinfo>
    <tripinfo id="carIn107282:1" depart="57749.00" departLane="-447569998#1_1" departPos="5.10" departSpeed="0.00" departDelay="0.00" arrival="57809.00" arrivalLane="315358242#0_1" arrivalPos="165.37" arrivalSpeed="10.93" duration="60.00" routeLength="448.50" waitingTime="2.00" waitingCount="1" stopTime="0.00" timeLoss="11.08" rerouteNo="1" devices="tripinfo_carIn107282:1 routing_carIn107282:1 emissions_carIn107282:1" vType="default_016" speedFactor="0.86" vaporized="">
        <emissions CO_abs="2382.209692" CO2_abs="117641.812171" HC_abs="13.564822" PMx_abs="1.951212" NOx_abs="47.740340" fuel_abs="50.569819" electricity_abs="0"/>
    </tripinfo>
    <tripinfo id="h11737c1:1" depart="57665.00" departLane="272042143_1" departPos="5.10" departSpeed="0.00" departDelay="1.50" arrival="57812.00" arrivalLane="-315358254#1_1" arrivalPos="137.16" arrivalSpeed="11.85" duration="147.00" routeLength="1596.88" waitingTime="0.00" waitingCount="0" stopTime="0.00" timeLoss="15.66" rerouteNo="1" devices="tripinfo_h11737c1:1 routing_h11737c1:1 emissions_h11737c1:1" vType="default_016" speedFactor="0.89" vaporized="">
        <emissions CO_abs="4263.095957" CO2_abs="336119.581807" HC_abs="27.178651" PMx_abs="5.024666" NOx_abs="130.799984" fuel_abs="144.484127" electricity_abs="0"/>
    </tripinfo>
    <tripinfo id="carIn86816:1" depart="57617.00" departLane="128361102#0_1" departPos="5.10" departSpeed="0.00" departDelay="0.80" arrival="57815.00" arrivalLane="201956811#0_1" arrivalPos="40.40" arrivalSpeed="14.20" duration="198.00" routeLength="2067.33" waitingTime="31.00" waitingCount="1" stopTime="0.00" timeLoss="54.58" rerouteNo="1" devices="tripinfo_carIn86816:1 routing_carIn86816:1 emissions_carIn86816:1" vType="default_016" speedFactor="1.06" vaporized="">
        <emissions CO_abs="9571.314144" CO2_abs="522728.459299" HC_abs="55.733657" PMx_abs="9.147438" NOx_abs="210.738490" fuel_abs="224.700280" electricity_abs="0"/>
    </tripinfo>
    <tripinfo id="carIn80064:1" depart="57603.00" departLane="128361109#1_1" departPos="5.10" departSpeed="0.00" departDelay="0.40" arrival="57821.00" arrivalLane="-315358254#1_1" arrivalPos="137.16" arrivalSpeed="12.48" duration="218.00" routeLength="1587.97" waitingTime="84.00" waitingCount="2" stopTime="0.00" timeLoss="120.54" rerouteNo="1" devices="tripinfo_carIn80064:1 routing_carIn80064:1 emissions_carIn80064:1" vType="default_016" speedFactor="0.92" vaporized="">
        <emissions CO_abs="18604.333326" CO2_abs="632954.883270" HC_abs="99.596233" PMx_abs="12.948798" NOx_abs="268.070714" fuel_abs="272.085323" electricity_abs="0"/>
    </tripinfo>
    <tripinfo id="carIn12365:1" depart="57713.00" departLane="315358244_1" departPos="5.10" departSpeed="0.00" departDelay="0.50" arrival="57824.00" arrivalLane="447569997#1_1" arrivalPos="180.93" arrivalSpeed="7.43" duration="111.00" routeLength="718.04" waitingTime="37.00" waitingCount="1" stopTime="0.00" timeLoss="50.88" rerouteNo="1" devices="tripinfo_carIn12365:1 routing_carIn12365:1 emissions_carIn12365:1" vType="default_016" speedFactor="1.03" vaporized="">
        <emissions CO_abs="8004.105373" CO2_abs="266238.207492" HC_abs="42.617690" PMx_abs="5.170530" NOx_abs="111.842023" fuel_abs="114.447041" electricity_abs="0"/>
    </tripinfo>
    <tripinfo id="carIn107084:1" depart="57601.00" departLane="124812856#0_1" departPos="5.10" departSpeed="0.00" departDelay="0.70" arrival="57826.00" arrivalLane="-128361102#1_1" arrivalPos="274.68" arrivalSpeed="13.52" duration="225.00" routeLength="2250.49" waitingTime="16.00" waitingCount="3" stopTime="0.00" timeLoss="64.26" rerouteNo="1" devices="tripinfo_carIn107084:1 routing_carIn107084:1 emissions_carIn107084:1" vType="default_016" speedFactor="1.03" vaporized="">
        <emissions CO_abs="8383.521103" CO2_abs="527541.863938" HC_abs="50.449113" PMx_abs="8.776278" NOx_abs="210.888962" fuel_abs="226.768871" electricity_abs="0"/>
    </tripinfo>
    <tripinfo id="carIn50326:1" depart="57651.00" departLane="128361102#0_1" departPos="5.10" departSpeed="0.00" departDelay="0.30" arrival="57831.00" arrivalLane="18809673#0_1" arrivalPos="473.56" arrivalSpeed="13.43" duration="180.00" routeLength="1591.07" waitingTime="27.00" waitingCount="3" stopTime="0.00" timeLoss="55.27" rerouteNo="1" devices="tripinfo_carIn50326:1 routing_carIn50326:1 emissions_carIn50326:1" vType="default_016" speedFactor="1.04" vaporized="">
        <emissions CO_abs="8876.163068" CO2_abs="423685.812884" HC_abs="50.304238" PMx_abs="7.513108" NOx_abs="172.996778" fuel_abs="182.126425" electricity_abs="0"/>
    </tripinfo>
    <tripinfo id="carIn102915:1" depart="57643.00" departLane="128361102#0_1" departPos="5.10" departSpeed="0.00" departDelay="0.40" arrival="57833.00" arrivalLane="201956811#0_1" arrivalPos="40.40" arrivalSpeed="13.02" duration="190.00" routeLength="2067.33" waitingTime="15.00" waitingCount="2" stopTime="0.00" timeLoss="42.66" rerouteNo="1" devices="tripinfo_carIn102915:1 routing_carIn102915:1 emissions_carIn102915:1" vType="default_016" speedFactor="1.03" vaporized="">
        <emissions CO_abs="7381.764110" CO2_abs="476144.615037" HC_abs="44.744875" PMx_abs="8.312489" NOx_abs="192.595700" fuel_abs="204.674543" electricity_abs="0"/>
    </tripinfo>
    <tripinfo id="randUni33724:1" depart="57646.00" departLane="128361102#0_1" departPos="5.10" departSpeed="0.00" departDelay="1.20" arrival="57835.00" arrivalLane="201956811#0_1" arrivalPos="40.40" arrivalSpeed="13.63" duration="189.00" routeLength="2067.33" waitingTime="12.00" waitingCount="2" stopTime="0.00" timeLoss="44.64" rerouteNo="1" devices="tripinfo_randUni33724:1 routing_randUni33724:1 emissions_randUni33724:1" vType="random_016" speedFactor="1.05" vaporized="">
        <emissions CO_abs="7322.847667" CO2_abs="515412.240962" HC_abs="45.357435" PMx_abs="8.854368" NOx_abs="207.140768" fuel_abs="221.553728" electricity_abs="0"/>
    </tripinfo>
    <tripinfo id="carIn126288:1" depart="57674.00" departLane="272042143_1" departPos="5.10" departSpeed="0.00" departDelay="0.00" arrival="57837.00" arrivalLane="-315358254#1_1" arrivalPos="137.16" arrivalSpeed="13.14" duration="163.00" routeLength="1596.88" waitingTime="21.00" waitingCount="1" stopTime="0.00" timeLoss="46.08" rerouteNo="1" devices="tripinfo_carIn126288:1 routing_carIn126288:1 emissions_carIn126288:1" vType="default_016" speedFactor="0.99" vaporized="">
        <emissions CO_abs="8065.721980" CO2_abs="421712.161003" HC_abs="46.598540" PMx_abs="7.494962" NOx_abs="172.056709" fuel_abs="181.277368" electricity_abs="0"/>
    </tripinfo>
    <tripinfo id="carIn12152:1" depart="57647.00" departLane="24599188#0.94_1" departPos="5.10" departSpeed="0.00" departDelay="0.50" arrival="57839.00" arrivalLane="-315358254#1_1" arrivalPos="137.16" arrivalSpeed="15.45" duration="192.00" routeLength="2034.31" waitingTime="18.00" waitingCount="3" stopTime="0.00" timeLoss="50.08" rerouteNo="1" devices="tripinfo_carIn12152:1 routing_carIn12152:1 emissions_carIn12152:1" vType="default_016" speedFactor="1.12" vaporized="">
        <emissions CO_abs="7358.130411" CO2_abs="482987.178164" HC_abs="44.731499" PMx_abs="8.395919" NOx_abs="194.410379" fuel_abs="207.615878" electricity_abs="0"/>
    </tripinfo>
    <tripinfo id="h17600c1:1" depart="57662.00" departLane="272042143_1" departPos="5.10" departSpeed="0.00" departDelay="0.30" arrival="57841.00" arrivalLane="201238729#3_1" arrivalPos="431.02" arrivalSpeed="13.07" duration="179.00" routeLength="2100.26" waitingTime="3.00" waitingCount="1" stopTime="0.00" timeLoss="20.61" rerouteNo="1" devices="tripinfo_h17600c1:1 routing_h17600c1:1 emissions_h17600c1:1" vType="default_016" speedFactor="0.96" vaporized="">
        <emissions CO_abs="4655.910852" CO2_abs="407926.135177" HC_abs="30.672084" PMx_abs="6.243920" NOx_abs="158.656364" fuel_abs="175.350280" electricity_abs="0"/>
    </tripinfo>
    <tripinfo id="h17549c1:1" depart="57680.00" departLane="-447569998#1_1" departPos="5.10" departSpeed="0.00" departDelay="0.00" arrival="57841.00" arrivalLane="-315358254#1_1" arrivalPos="137.16" arrivalSpeed="14.57" duration="161.00" routeLength="1746.60" waitingTime="18.00" waitingCount="1" stopTime="0.00" timeLoss="36.63" rerouteNo="1" devices="tripinfo_h17549c1:1 routing_h17549c1:1 emissions_h17549c1:1" vType="default_016" speedFactor="1.10" vaporized="">
        <emissions CO_abs="7158.550457" CO2_abs="417472.334456" HC_abs="42.212711" PMx_abs="7.252175" NOx_abs="167.902888" fuel_abs="179.454492" electricity_abs="0"/>
    </tripinfo>
    <tripinfo id="h16072c2:3" depart="57663.00" departLane="315358254#0_1" departPos="5.10" departSpeed="0.00" departDelay="2.50" arrival="57844.00" arrivalLane="386687235_1" arrivalPos="80.84" arrivalSpeed="11.86" duration="181.00" routeLength="1611.92" waitingTime="33.00" waitingCount="2" stopTime="0.00" timeLoss="55.99" rerouteNo="1" devices="tripinfo_h16072c2:3 routing_h16072c2:3 emissions_h16072c2:3" vType="default_016" speedFactor="0.94" vaporized="">
        <emissions CO_abs="8689.503370" CO2_abs="401374.699945" HC_abs="48.949402" PMx_abs="7.155172" NOx_abs="164.019139" fuel_abs="172.535923" electricity_abs="0"/>
    </tripinfo>
    <tripinfo id="h9953c2:3" depart="57682.00" departLane="-54169231#2_1" departPos="5.10" departSpeed="0.00" departDelay="0.00" arrival="57845.00" arrivalLane="386687235_1" arrivalPos="80.84" arrivalSpeed="14.44" duration="163.00" routeLength="1535.60" waitingTime="25.00" waitingCount="1" stopTime="0.00" timeLoss="53.43" rerouteNo="1" devices="tripinfo_h9953c2:3 routing_h9953c2:3 emissions_h9953c2:3" vType="default_016" speedFactor="1.15" vaporized="">
        <emissions CO_abs="9406.414376" CO2_abs="478936.222364" HC_abs="53.827481" PMx_abs="8.863041" NOx_abs="197.593380" fuel_abs="205.875358" electricity_abs="0"/>
    </tripinfo>
    <tripinfo id="carIn48184:1" depart="57613.00" departLane="-306240162#1_0" departPos="5.10" departSpeed="0.00" departDelay="0.70" arrival="57847.00" arrivalLane="386687235_1" arrivalPos="80.84" arrivalSpeed="14.73" duration="234.00" routeLength="2257.41" waitingTime="60.00" waitingCount="3" stopTime="0.00" timeLoss="97.93" rerouteNo="1" devices="tripinfo_carIn48184:1 routing_carIn48184:1 emissions_carIn48184:1" vType="default_016" speedFactor="1.09" vaporized="">
        <emissions CO_abs="15985.387313" CO2_abs="705321.585500" HC_abs="89.536469" PMx_abs="13.977366" NOx_abs="294.812701" fuel_abs="303.190005" electricity_abs="0"/>
    </tripinfo>
    <tripinfo id="randUni15030:1" depart="57735.00" departLane="386687232#0_1" departPos="5.10" departSpeed="0.00" departDelay="0.10" arrival="57851.00" arrivalLane="26677539_1" arrivalPos="151.98" arrivalSpeed="6.95" duration="116.00" routeLength="919.89" waitingTime="16.00" waitingCount="1" stopTime="0.00" timeLoss="30.13" rerouteNo="1" devices="tripinfo_randUni15030:1 routing_randUni15030:1 emissions_randUni15030:1" vType="random_016" speedFactor="0.97" vaporized="">
        <emissions CO_abs="5485.431013" CO2_abs="254392.214532" HC_abs="30.866824" PMx_abs="4.278290" NOx_abs="102.853920" fuel_abs="109.353983" electricity_abs="0"/>
    </tripinfo>
    <tripinfo id="carIn100288:1" depart="57664.00" departLane="128361102#0_1" departPos="5.10" departSpeed="0.00" departDelay="0.60" arrival="57855.00" arrivalLane="201956811#0_1" arrivalPos="40.40" arrivalSpeed="14.30" duration="191.00" routeLength="2067.33" waitingTime="22.00" waitingCount="2" stopTime="0.00" timeLoss="49.85" rerouteNo="1" devices="tripinfo_carIn100288:1 routing_carIn100288:1 emissions_carIn100288:1" vType="default_016" speedFactor="1.07" vaporized="">
        <emissions CO_abs="8749.354865" CO2_abs="517748.470175" HC_abs="51.842556" PMx_abs="9.184882" NOx_abs="209.793299" fuel_abs="222.558723" electricity_abs="0"/>
    </tripinfo>
    <tripinfo id="carIn12775:1" depart="57676.00" departLane="10425609#0_1" departPos="5.10" departSpeed="0.00" departDelay="0.60" arrival="57856.00" arrivalLane="18809673#0_1" arrivalPos="473.56" arrivalSpeed="13.20" duration="180.00" routeLength="1959.45" waitingTime="17.00" waitingCount="1" stopTime="0.00" timeLoss="37.01" rerouteNo="1" devices="tripinfo_carIn12775:1 routing_carIn12775:1 emissions_carIn12775:1" vType="default_016" speedFactor="1.02" vaporized="">
        <emissions CO_abs="6723.518218" CO2_abs="419119.056934" HC_abs="40.306161" PMx_abs="6.944325" NOx_abs="166.347791" fuel_abs="180.162490" electricity_abs="0"/>
    </tripinfo>
    <tripinfo id="carIn82278:1" depart="57702.00" departLane="-306240162#1_0" departPos="5.10" departSpeed="0.00" departDelay="0.70" arrival="57859.00" arrivalLane="399835085#1_1" arrivalPos="212.23" arrivalSpeed="7.18" duration="157.00" routeLength="1093.26" waitingTime="45.00" waitingCount="2" stopTime="0.00" timeLoss="70.48" rerouteNo="1" devices="tripinfo_carIn82278:1 routing_carIn82278:1 emissions_carIn82278:1" vType="default_016" speedFactor="0.90" vaporized="">
        <emissions CO_abs="11243.008030" CO2_abs="407269.543343" HC_abs="60.758220" PMx_abs="8.144345" NOx_abs="172.181117" fuel_abs="175.070606" electricity_abs="0"/>
    </tripinfo>
    <tripinfo id="h5938c1:1" depart="57740.00" departLane="-26677542#0_1" departPos="5.10" departSpeed="0.00" departDelay="0.00" arrival="57861.00" arrivalLane="447569997#1_1" arrivalPos="180.93" arrivalSpeed="9.00" duration="121.00" routeLength="1093.64" waitingTime="17.00" waitingCount="1" stopTime="0.00" timeLoss="31.59" rerouteNo="1" devices="tripinfo_h5938c1:1 routing_h5938c1:1 emissions_h5938c1:1" vType="default_016" speedFactor="1.09" vaporized="">
        <emissions CO_abs="5920.466373" CO2_abs="295207.379364" HC_abs="33.710884" PMx_abs="5.115314" NOx_abs="119.440804" fuel_abs="126.898397" electricity_abs="0"/>
    </tripinfo>
    <tripinfo id="h5216c1:1" depart="57664.00" departLane="224892339#0_1" departPos="5.10" departSpeed="0.00" departDelay="0.00" arrival="57873.00" arrivalLane="386687235_1" arrivalPos="80.84" arrivalSpeed="15.02" duration="209.00" routeLength="1823.78" waitingTime="36.00" waitingCount="2" stopTime="0.00" timeLoss="91.62" rerouteNo="1" devices="tripinfo_h5216c1:1 routing_h5216c1:1 emissions_h5216c1:1" vType="default_016" speedFactor="1.09" vaporized="">
        <emissions CO_abs="11769.089903" CO2_abs="560316.831916" HC_abs="66.808310" PMx_abs="10.672576" NOx_abs="233.781884" fuel_abs="240.857783" electricity_abs="0"/>
    </tripinfo>