<?xml version="1.0" encoding="UTF-8"?>

<!-- generated on 2021-10-26 14:14:32 by Eclipse SUMO sumo Version 1.10.0
<configuration xmlns:xsi="http://www.w3.org/2001/XMLSchema-instance" xsi:noNamespaceSchemaLocation="http://sumo.dlr.de/xsd/sumoConfiguration.xsd">

    <input>
        <net-file value="/Users/behradkoohy/sumo-scratchpad/RESCO/environments/ingolstadt21/ingolstadt21.net.xml"/>
        <route-files value="/Users/behradkoohy/sumo-scratchpad/RESCO/environments/ingolstadt21/ingolstadt21.rou.xml"/>
    </input>

    <output>
        <tripinfo-output value="/Users/behradkoohy/sumo-scratchpad/RESCO/logs/STOCHASTIC-tr0-ingolstadt21-21-mplight-wait/tripinfo_33.xml"/>
        <tripinfo-output.write-unfinished value="true"/>
    </output>

    <time>
        <begin value="57600"/>
        <end value="61200"/>
    </time>

    <processing>
        <time-to-teleport value="-1"/>
    </processing>

    <report>
        <no-warnings value="true"/>
        <no-step-log value="true"/>
    </report>

    <emissions>
        <device.emissions.probability value="1"/>
    </emissions>

    <traci_server>
        <remote-port value="60142"/>
    </traci_server>

    <random_number>
        <random value="true"/>
    </random_number>

</configuration>
-->

<tripinfos xmlns:xsi="http://www.w3.org/2001/XMLSchema-instance" xsi:noNamespaceSchemaLocation="http://sumo.dlr.de/xsd/tripinfo_file.xsd">
    <tripinfo id="h15454c2:3" depart="57612.00" departLane="24608844_1" departPos="5.10" departSpeed="0.00" departDelay="0.50" arrival="57654.00" arrivalLane="32978638#0_1" arrivalPos="49.29" arrivalSpeed="12.20" duration="42.00" routeLength="354.79" waitingTime="0.00" waitingCount="0" stopTime="0.00" timeLoss="5.36" rerouteNo="1" devices="tripinfo_h15454c2:3 routing_h15454c2:3 emissions_h15454c2:3" vType="default_016" speedFactor="0.94" vaporized="">
        <emissions CO_abs="1969.539175" CO2_abs="107571.860351" HC_abs="11.472626" PMx_abs="1.846487" NOx_abs="43.983444" fuel_abs="46.240857" electricity_abs="0"/>
    </tripinfo>
    <tripinfo id="carIn53971:1" depart="57640.00" departLane="272042143_1" departPos="5.10" departSpeed="0.00" departDelay="0.80" arrival="57696.00" arrivalLane="24634414#1_1" arrivalPos="162.19" arrivalSpeed="7.49" duration="56.00" routeLength="493.04" waitingTime="0.00" waitingCount="0" stopTime="0.00" timeLoss="7.00" rerouteNo="1" devices="tripinfo_carIn53971:1 routing_carIn53971:1 emissions_carIn53971:1" vType="default_016" speedFactor="0.94" vaporized="">
        <emissions CO_abs="2375.870365" CO2_abs="134105.916767" HC_abs="13.927139" PMx_abs="2.214144" NOx_abs="54.194682" fuel_abs="57.646864" electricity_abs="0"/>
    </tripinfo>
    <tripinfo id="h3688c1:1" depart="57625.00" departLane="201201950#1_1" departPos="5.10" departSpeed="0.00" departDelay="0.00" arrival="57712.00" arrivalLane="32978638#0_1" arrivalPos="49.29" arrivalSpeed="13.63" duration="87.00" routeLength="1089.75" waitingTime="0.00" waitingCount="0" stopTime="0.00" timeLoss="11.57" rerouteNo="1" devices="tripinfo_h3688c1:1 routing_h3688c1:1 emissions_h3688c1:1" vType="default_016" speedFactor="1.06" vaporized="">
        <emissions CO_abs="2918.916903" CO2_abs="241045.695485" HC_abs="18.882498" PMx_abs="3.985739" NOx_abs="95.545805" fuel_abs="103.615093" electricity_abs="0"/>
    </tripinfo>
    <tripinfo id="carIn60260:1" depart="57606.00" departLane="315358254#0_1" departPos="5.10" departSpeed="0.00" departDelay="0.90" arrival="57713.00" arrivalLane="399835085#1_1" arrivalPos="212.23" arrivalSpeed="7.96" duration="107.00" routeLength="430.98" waitingTime="51.00" waitingCount="1" stopTime="0.00" timeLoss="61.97" rerouteNo="1" devices="tripinfo_carIn60260:1 routing_carIn60260:1 emissions_carIn60260:1" vType="default_016" speedFactor="1.03" vaporized="">
        <emissions CO_abs="10002.900705" CO2_abs="244636.765734" HC_abs="51.242584" PMx_abs="5.055206" NOx_abs="105.361500" fuel_abs="105.163038" electricity_abs="0"/>
    </tripinfo>
    <tripinfo id="S5R_frequency1.2" depart="57615.00" departLane="315358250#0_1" departPos="12.10" departSpeed="0.00" departDelay="3.40" arrival="57718.00" arrivalLane="386687235_1" arrivalPos="80.84" arrivalSpeed="13.43" duration="103.00" routeLength="1115.62" waitingTime="4.00" waitingCount="1" stopTime="0.00" timeLoss="21.10" rerouteNo="1" devices="tripinfo_S5R_frequency1.2 routing_S5R_frequency1.2 emissions_S5R_frequency1.2" vType="bus" speedFactor="1.00" vaporized="">
        <emissions CO_abs="2041.290711" CO2_abs="1277041.533142" HC_abs="429.961197" PMx_abs="218.749103" NOx_abs="9914.899950" fuel_abs="544.642795" electricity_abs="0"/>
    </tripinfo>
    <tripinfo id="h7800c1:5" depart="57696.00" departLane="-447569998#1_1" departPos="5.10" departSpeed="0.00" departDelay="0.00" arrival="57719.00" arrivalLane="-447569998#1_2" arrivalPos="180.76" arrivalSpeed="8.59" duration="23.00" routeLength="175.66" waitingTime="0.00" waitingCount="0" stopTime="0.00" timeLoss="2.90" rerouteNo="1" devices="tripinfo_h7800c1:5 routing_h7800c1:5 emissions_h7800c1:5" vType="default_016" speedFactor="1.05" vaporized="">
        <emissions CO_abs="1031.362088" CO2_abs="46820.293610" HC_abs="5.773344" PMx_abs="0.773732" NOx_abs="19.073277" fuel_abs="20.126361" electricity_abs="0"/>
    </tripinfo>
    <tripinfo id="h12244c1:3" depart="57612.00" departLane="315358244_1" departPos="5.10" departSpeed="0.00" departDelay="0.40" arrival="57720.00" arrivalLane="386687235_1" arrivalPos="80.84" arrivalSpeed="13.87" duration="108.00" routeLength="1186.14" waitingTime="7.00" waitingCount="1" stopTime="0.00" timeLoss="28.26" rerouteNo="1" devices="tripinfo_h12244c1:3 routing_h12244c1:3 emissions_h12244c1:3" vType="default_016" speedFactor="1.09" vaporized="">
        <emissions CO_abs="4032.665416" CO2_abs="276652.505217" HC_abs="24.685612" PMx_abs="4.674237" NOx_abs="110.391473" fuel_abs="118.921322" electricity_abs="0"/>
    </tripinfo>
    <tripinfo id="carIn22761:1" depart="57616.00" departLane="-306240162#1_0" departPos="5.10" departSpeed="0.00" departDelay="2.10" arrival="57731.00" arrivalLane="399835085#1_1" arrivalPos="212.23" arrivalSpeed="9.10" duration="115.00" routeLength="1093.26" waitingTime="13.00" waitingCount="2" stopTime="0.00" timeLoss="44.43" rerouteNo="1" devices="tripinfo_carIn22761:1 routing_carIn22761:1 emissions_carIn22761:1" vType="default_016" speedFactor="1.11" vaporized="">
        <emissions CO_abs="7135.747199" CO2_abs="388488.952054" HC_abs="41.751237" PMx_abs="7.700142" NOx_abs="162.878030" fuel_abs="166.994636" electricity_abs="0"/>
    </tripinfo>
    <tripinfo id="h9563c2:5" depart="57631.00" departLane="315358244_1" departPos="5.10" departSpeed="0.00" departDelay="0.70" arrival="57733.00" arrivalLane="386687235_1" arrivalPos="80.84" arrivalSpeed="12.13" duration="102.00" routeLength="1186.14" waitingTime="0.00" waitingCount="0" stopTime="0.00" timeLoss="11.71" rerouteNo="1" devices="tripinfo_h9563c2:5 routing_h9563c2:5 emissions_h9563c2:5" vType="default_016" speedFactor="0.96" vaporized="">
        <emissions CO_abs="2968.333418" CO2_abs="235566.937442" HC_abs="19.004574" PMx_abs="3.766956" NOx_abs="92.947425" fuel_abs="101.260277" electricity_abs="0"/>
    </tripinfo>
    <tripinfo id="h317c2:1" depart="57707.00" departLane="-32978638#0_1" departPos="5.10" departSpeed="0.00" departDelay="0.10" arrival="57744.00" arrivalLane="-266565295#5_1" arrivalPos="172.76" arrivalSpeed="14.05" duration="37.00" routeLength="370.53" waitingTime="0.00" waitingCount="0" stopTime="0.00" timeLoss="11.22" rerouteNo="1" devices="tripinfo_h317c2:1 routing_h317c2:1 emissions_h317c2:1" vType="default_016" speedFactor="1.08" vaporized="">
        <emissions CO_abs="2122.823412" CO2_abs="123459.445114" HC_abs="12.544010" PMx_abs="2.336030" NOx_abs="51.442951" fuel_abs="53.069884" electricity_abs="0"/>
    </tripinfo>
    <tripinfo id="carIn121703:1" depart="57647.00" departLane="386687232#0_1" departPos="5.10" departSpeed="0.00" departDelay="0.30" arrival="57745.00" arrivalLane="-315358244_1" arrivalPos="33.95" arrivalSpeed="14.00" duration="98.00" routeLength="1157.39" waitingTime="3.00" waitingCount="1" stopTime="0.00" timeLoss="16.33" rerouteNo="1" devices="tripinfo_carIn121703:1 routing_carIn121703:1 emissions_carIn121703:1" vType="default_016" speedFactor="1.03" vaporized="">
        <emissions CO_abs="3449.860646" CO2_abs="272535.445416" HC_abs="22.056782" PMx_abs="4.531767" NOx_abs="108.298157" fuel_abs="117.151255" electricity_abs="0"/>
    </tripinfo>
    <tripinfo id="h7181c1:1" depart="57660.00" departLane="315358254#0_1" departPos="5.10" departSpeed="0.00" departDelay="0.10" arrival="57749.00" arrivalLane="306240162#0_0" arrivalPos="220.43" arrivalSpeed="15.73" duration="89.00" routeLength="932.35" waitingTime="15.00" waitingCount="1" stopTime="0.00" timeLoss="35.41" rerouteNo="1" devices="tripinfo_h7181c1:1 routing_h7181c1:1 emissions_h7181c1:1" vType="default_016" speedFactor="0.97" vaporized="">
        <emissions CO_abs="6111.627107" CO2_abs="328043.024046" HC_abs="35.535207" PMx_abs="6.594519" NOx_abs="137.969833" fuel_abs="141.011465" electricity_abs="0"/>
    </tripinfo>
    <tripinfo id="carIn27009:1" depart="57673.00" departLane="-447569998#1_1" departPos="5.10" departSpeed="0.00" departDelay="0.50" arrival="57758.00" arrivalLane="-26677539_1" arrivalPos="152.75" arrivalSpeed="8.75" duration="85.00" routeLength="699.63" waitingTime="0.00" waitingCount="0" stopTime="0.00" timeLoss="9.49" rerouteNo="1" devices="tripinfo_carIn27009:1 routing_carIn27009:1 emissions_carIn27009:1" vType="default_015" speedFactor="1.12" vaporized="">
        <emissions CO_abs="3376.371556" CO2_abs="183693.777274" HC_abs="19.614150" PMx_abs="2.988307" NOx_abs="74.336987" fuel_abs="78.962869" electricity_abs="0"/>
    </tripinfo>
    <tripinfo id="carIn30817:1" depart="57681.00" departLane="315358244_1" departPos="5.10" departSpeed="0.00" departDelay="0.20" arrival="57767.00" arrivalLane="447569997#1_1" arrivalPos="180.93" arrivalSpeed="8.94" duration="86.00" routeLength="718.04" waitingTime="21.00" waitingCount="1" stopTime="0.00" timeLoss="32.35" rerouteNo="1" devices="tripinfo_carIn30817:1 routing_carIn30817:1 emissions_carIn30817:1" vType="default_016" speedFactor="1.15" vaporized="">
        <emissions CO_abs="5690.000734" CO2_abs="229575.752613" HC_abs="31.279984" PMx_abs="4.366491" NOx_abs="95.565032" fuel_abs="98.686196" electricity_abs="0"/>
    </tripinfo>
    <tripinfo id="h4538c1:1" depart="57701.00" departLane="-10427692#1_1" departPos="5.10" departSpeed="0.00" departDelay="0.00" arrival="57768.00" arrivalLane="-128361102#1_1" arrivalPos="274.68" arrivalSpeed="12.89" duration="67.00" routeLength="440.74" waitingTime="22.00" waitingCount="1" stopTime="0.00" timeLoss="32.96" rerouteNo="1" devices="tripinfo_h4538c1:1 routing_h4538c1:1 emissions_h4538c1:1" vType="default_016" speedFactor="0.95" vaporized="">
        <emissions CO_abs="4810.188766" CO2_abs="172717.930433" HC_abs="25.939077" PMx_abs="3.304933" NOx_abs="72.213241" fuel_abs="74.245509" electricity_abs="0"/>
    </tripinfo>
    <tripinfo id="h3326c1:2" depart="57656.00" departLane="22716069#0_1" departPos="5.10" departSpeed="0.00" departDelay="0.00" arrival="57770.00" arrivalLane="24634517#13_1" arrivalPos="111.62" arrivalSpeed="12.97" duration="114.00" routeLength="1312.81" waitingTime="0.00" waitingCount="0" stopTime="0.00" timeLoss="15.34" rerouteNo="1" devices="tripinfo_h3326c1:2 routing_h3326c1:2 emissions_h3326c1:2" vType="default_016" speedFactor="0.99" vaporized="">
        <emissions CO_abs="4283.430254" CO2_abs="323259.943951" HC_abs="27.084758" PMx_abs="5.462723" NOx_abs="129.820053" fuel_abs="138.955490" electricity_abs="0"/>
    </tripinfo>
    <tripinfo id="h330c1:1" depart="57736.00" departLane="-32978638#0_1" departPos="5.10" departSpeed="0.00" departDelay="0.20" arrival="57775.00" arrivalLane="-266565295#5_1" arrivalPos="172.76" arrivalSpeed="11.06" duration="39.00" routeLength="370.53" waitingTime="0.00" waitingCount="0" stopTime="0.00" timeLoss="5.14" rerouteNo="1" devices="tripinfo_h330c1:1 routing_h330c1:1 emissions_h330c1:1" vType="default_016" speedFactor="0.81" vaporized="">
        <emissions CO_abs="1640.726895" CO2_abs="97178.312882" HC_abs="9.735955" PMx_abs="1.651731" NOx_abs="39.531530" fuel_abs="41.773002" electricity_abs="0"/>
    </tripinfo>
    <tripinfo id="h5979c1:5" depart="57669.00" departLane="399835085#1_1" departPos="5.10" departSpeed="0.00" departDelay="0.00" arrival="57778.00" arrivalLane="-315358254#1_1" arrivalPos="137.16" arrivalSpeed="12.20" duration="109.00" routeLength="659.33" waitingTime="17.00" waitingCount="1" stopTime="0.00" timeLoss="29.98" rerouteNo="1" devices="tripinfo_h5979c1:5 routing_h5979c1:5 emissions_h5979c1:5" vType="default_016" speedFactor="0.93" vaporized="">
        <emissions CO_abs="5712.138211" CO2_abs="214358.102415" HC_abs="30.957344" PMx_abs="3.760228" NOx_abs="88.441357" fuel_abs="92.145386" electricity_abs="0"/>
    </tripinfo>
    <tripinfo id="carIn86816:1" depart="57617.00" departLane="128361102#0_1" departPos="5.10" departSpeed="0.00" departDelay="0.80" arrival="57780.00" arrivalLane="201956811#0_1" arrivalPos="40.40" arrivalSpeed="17.19" duration="163.00" routeLength="2067.33" waitingTime="16.00" waitingCount="2" stopTime="0.00" timeLoss="47.55" rerouteNo="1" devices="tripinfo_carIn86816:1 routing_carIn86816:1 emissions_carIn86816:1" vType="default_016" speedFactor="1.31" vaporized="">
        <emissions CO_abs="8956.617942" CO2_abs="570399.341394" HC_abs="54.020467" PMx_abs="10.844881" NOx_abs="233.367361" fuel_abs="245.189690" electricity_abs="0"/>
    </tripinfo>
    <tripinfo id="h3568c1:3" depart="57656.00" departLane="266565295#5_1" departPos="5.10" departSpeed="0.00" departDelay="0.80" arrival="57784.00" arrivalLane="-24634415_1" arrivalPos="62.03" arrivalSpeed="13.92" duration="128.00" routeLength="807.40" waitingTime="48.00" waitingCount="1" stopTime="0.00" timeLoss="68.67" rerouteNo="1" devices="tripinfo_h3568c1:3 routing_h3568c1:3 emissions_h3568c1:3" vType="default_016" speedFactor="1.07" vaporized="">
        <emissions CO_abs="11248.443613" CO2_abs="362205.517031" HC_abs="59.708621" PMx_abs="7.388433" NOx_abs="154.681244" fuel_abs="155.699977" electricity_abs="0"/>
    </tripinfo>
    <tripinfo id="carIn80064:1" depart="57603.00" departLane="128361109#1_1" departPos="5.10" departSpeed="0.00" departDelay="0.40" arrival="57793.00" arrivalLane="-315358254#1_1" arrivalPos="137.16" arrivalSpeed="14.41" duration="190.00" routeLength="1587.97" waitingTime="68.00" waitingCount="3" stopTime="0.00" timeLoss="105.90" rerouteNo="1" devices="tripinfo_carIn80064:1 routing_carIn80064:1 emissions_carIn80064:1" vType="default_016" speedFactor="1.06" vaporized="">
        <emissions CO_abs="17399.491469" CO2_abs="669859.762332" HC_abs="95.221702" PMx_abs="14.052523" NOx_abs="284.697389" fuel_abs="287.947105" electricity_abs="0"/>
    </tripinfo>
    <tripinfo id="carIn28951:1" depart="57606.00" departLane="10425609#0_1" departPos="5.10" departSpeed="0.00" departDelay="0.20" arrival="57795.00" arrivalLane="-128361102#1_1" arrivalPos="274.68" arrivalSpeed="13.48" duration="189.00" routeLength="2113.04" waitingTime="7.00" waitingCount="1" stopTime="0.00" timeLoss="30.13" rerouteNo="1" devices="tripinfo_carIn28951:1 routing_carIn28951:1 emissions_carIn28951:1" vType="default_016" speedFactor="0.97" vaporized="">
        <emissions CO_abs="6479.370953" CO2_abs="464768.720751" HC_abs="40.382746" PMx_abs="7.873734" NOx_abs="186.744592" fuel_abs="199.784247" electricity_abs="0"/>
    </tripinfo>
    <tripinfo id="h16072c2:3" depart="57662.00" departLane="315358254#0_1" departPos="5.10" departSpeed="0.00" departDelay="1.50" arrival="57797.00" arrivalLane="386687235_1" arrivalPos="80.84" arrivalSpeed="14.14" duration="135.00" routeLength="1611.92" waitingTime="5.00" waitingCount="1" stopTime="0.00" timeLoss="23.05" rerouteNo="1" devices="tripinfo_h16072c2:3 routing_h16072c2:3 emissions_h16072c2:3" vType="default_016" speedFactor="1.05" vaporized="">
        <emissions CO_abs="4619.517664" CO2_abs="352890.765376" HC_abs="29.285829" PMx_abs="5.949527" NOx_abs="140.623030" fuel_abs="151.692571" electricity_abs="0"/>
    </tripinfo>
    <tripinfo id="carIn12365:1" depart="57713.00" departLane="315358244_1" departPos="5.10" departSpeed="0.00" departDelay="0.50" arrival="57804.00" arrivalLane="447569997#1_1" arrivalPos="180.93" arrivalSpeed="5.99" duration="91.00" routeLength="718.04" waitingTime="7.00" waitingCount="1" stopTime="0.00" timeLoss="19.93" rerouteNo="1" devices="tripinfo_carIn12365:1 routing_carIn12365:1 emissions_carIn12365:1" vType="default_016" speedFactor="0.87" vaporized="">
        <emissions CO_abs="3478.715073" CO2_abs="182993.810707" HC_abs="20.063085" PMx_abs="2.951736" NOx_abs="73.397602" fuel_abs="78.662169" electricity_abs="0"/>
    </tripinfo>
    <tripinfo id="h3154c1:1" depart="57658.00" departLane="24634507_1" departPos="5.10" departSpeed="0.00" departDelay="0.00" arrival="57805.00" arrivalLane="-266565295#5_1" arrivalPos="172.76" arrivalSpeed="14.73" duration="147.00" routeLength="1206.22" waitingTime="46.00" waitingCount="2" stopTime="0.00" timeLoss="68.24" rerouteNo="1" devices="tripinfo_h3154c1:1 routing_h3154c1:1 emissions_h3154c1:1" vType="default_016" speedFactor="1.13" vaporized="">
        <emissions CO_abs="10582.266698" CO2_abs="425084.430855" HC_abs="58.166052" PMx_abs="8.501894" NOx_abs="179.363645" fuel_abs="182.727629" electricity_abs="0"/>
    </tripinfo>
    <tripinfo id="carIn118591:1" depart="57689.00" departLane="315358244_1" departPos="5.10" departSpeed="0.00" departDelay="0.20" arrival="57806.00" arrivalLane="386687235_1" arrivalPos="80.84" arrivalSpeed="14.47" duration="117.00" routeLength="1186.14" waitingTime="15.00" waitingCount="2" stopTime="0.00" timeLoss="34.23" rerouteNo="1" devices="tripinfo_carIn118591:1 routing_carIn118591:1 emissions_carIn118591:1" vType="default_016" speedFactor="1.05" vaporized="">
        <emissions CO_abs="5538.955041" CO2_abs="306848.908331" HC_abs="32.373845" PMx_abs="5.445277" NOx_abs="124.479933" fuel_abs="131.901992" electricity_abs="0"/>
    </tripinfo>
    <tripinfo id="carIn50326:1" depart="57651.00" departLane="128361102#0_1" departPos="5.10" departSpeed="0.00" departDelay="0.30" arrival="57821.00" arrivalLane="18809673#0_1" arrivalPos="473.56" arrivalSpeed="11.81" duration="170.00" routeLength="1591.07" waitingTime="5.00" waitingCount="1" stopTime="0.00" timeLoss="25.35" rerouteNo="1" devices="tripinfo_carIn50326:1 routing_carIn50326:1 emissions_carIn50326:1" vType="default_016" speedFactor="0.90" vaporized="">
        <emissions CO_abs="5545.430531" CO2_abs="361950.356535" HC_abs="33.598134" PMx_abs="5.538846" NOx_abs="142.472678" fuel_abs="155.588264" electricity_abs="0"/>
    </tripinfo>
    <tripinfo id="carIn12858:1" depart="57661.00" departLane="128361109#1_1" departPos="5.10" departSpeed="0.00" departDelay="0.90" arrival="57845.00" arrivalLane="399835085#1_1" arrivalPos="212.23" arrivalSpeed="5.69" duration="184.00" routeLength="1738.12" waitingTime="40.00" waitingCount="3" stopTime="0.00" timeLoss="79.50" rerouteNo="1" devices="tripinfo_carIn12858:1 routing_carIn12858:1 emissions_carIn12858:1" vType="default_016" speedFactor="1.10" vaporized="">
        <emissions CO_abs="13169.416049" CO2_abs="611664.556998" HC_abs="74.623537" PMx_abs="12.549395" NOx_abs="257.948140" fuel_abs="262.929340" electricity_abs="0"/>
    </tripinfo>
    <tripinfo id="carIn46110:1" depart="57684.00" departLane="315358244_1" departPos="5.10" departSpeed="0.00" departDelay="1.20" arrival="57848.00" arrivalLane="32978638#0_1" arrivalPos="49.29" arrivalSpeed="13.13" duration="164.00" routeLength="1764.04" waitingTime="17.00" waitingCount="1" stopTime="0.00" timeLoss="34.10" rerouteNo="1" devices="tripinfo_carIn46110:1 routing_carIn46110:1 emissions_carIn46110:1" vType="default_016" speedFactor="0.99" vaporized="">
        <emissions CO_abs="6770.782649" CO2_abs="411078.540932" HC_abs="40.453926" PMx_abs="7.029598" NOx_abs="165.207696" fuel_abs="176.705962" electricity_abs="0"/>
    </tripinfo>
    <tripinfo id="randUni31145:1" depart="57814.00" departLane="10425609#0_1" departPos="5.10" departSpeed="0.00" departDelay="0.30" arrival="57852.00" arrivalLane="201956810_1" arrivalPos="71.65" arrivalSpeed="12.74" duration="38.00" routeLength="255.78" waitingTime="4.00" waitingCount="1" stopTime="0.00" timeLoss="17.46" rerouteNo="1" devices="tripinfo_randUni31145:1 routing_randUni31145:1 emissions_randUni31145:1" vType="random_016" speedFactor="0.96" vaporized="">
        <emissions CO_abs="2594.984366" CO2_abs="121925.636476" HC_abs="14.699530" PMx_abs="2.391393" NOx_abs="51.895444" fuel_abs="52.410816" electricity_abs="0"/>
    </tripinfo>
    <tripinfo id="carIn82278:1" depart="57702.00" departLane="-306240162#1_0" departPos="5.10" departSpeed="0.00" departDelay="0.70" arrival="57854.00" arrivalLane="399835085#1_1" arrivalPos="212.23" arrivalSpeed="7.30" duration="152.00" routeLength="1093.26" waitingTime="38.00" waitingCount="3" stopTime="0.00" timeLoss="74.26" rerouteNo="1" devices="tripinfo_carIn82278:1 routing_carIn82278:1 emissions_carIn82278:1" vType="default_016" speedFactor="1.01" vaporized="">
        <emissions CO_abs="10493.933116" CO2_abs="412247.323870" HC_abs="57.497280" PMx_abs="8.240811" NOx_abs="174.246834" fuel_abs="177.209625" electricity_abs="0"/>
    </tripinfo>
    <tripinfo id="randUni15030:1" depart="57735.00" departLane="386687232#0_1" departPos="5.10" departSpeed="0.00" departDelay="0.10" arrival="57854.00" arrivalLane="26677539_1" arrivalPos="151.98" arrivalSpeed="8.39" duration="119.00" routeLength="919.89" waitingTime="25.00" waitingCount="1" stopTime="0.00" timeLoss="40.29" rerouteNo="1" devices="tripinfo_randUni15030:1 routing_randUni15030:1 emissions_randUni15030:1" vType="random_016" speedFactor="1.05" vaporized="">
        <emissions CO_abs="7460.953447" CO2_abs="292671.658076" HC_abs="40.765754" PMx_abs="5.392610" NOx_abs="121.236942" fuel_abs="125.809198" electricity_abs="0"/>
    </tripinfo>
    <tripinfo id="carIn107282:1" depart="57749.00" departLane="-447569998#1_1" departPos="5.10" departSpeed="0.00" departDelay="0.00" arrival="57854.00" arrivalLane="315358242#0_1" arrivalPos="165.37" arrivalSpeed="14.76" duration="105.00" routeLength="448.50" waitingTime="58.00" waitingCount="1" stopTime="0.00" timeLoss="66.54" rerouteNo="1" devices="tripinfo_carIn107282:1 routing_carIn107282:1 emissions_carIn107282:1" vType="default_016" speedFactor="1.10" vaporized="">
        <emissions CO_abs="10997.412978" CO2_abs="274560.960402" HC_abs="56.457402" PMx_abs="5.828119" NOx_abs="118.735484" fuel_abs="118.026289" electricity_abs="0"/>
    </tripinfo>
    <tripinfo id="randUni2407:1" depart="57820.00" departLane="10425609#0_1" departPos="5.10" departSpeed="0.00" departDelay="0.80" arrival="57854.00" arrivalLane="201956810_1" arrivalPos="71.65" arrivalSpeed="14.07" duration="34.00" routeLength="255.78" waitingTime="4.00" waitingCount="1" stopTime="0.00" timeLoss="14.79" rerouteNo="1" devices="tripinfo_randUni2407:1 routing_randUni2407:1 emissions_randUni2407:1" vType="random_016" speedFactor="1.06" vaporized="">
        <emissions CO_abs="2121.329752" CO2_abs="112699.243655" HC_abs="12.310657" PMx_abs="2.074218" NOx_abs="46.830547" fuel_abs="48.444767" electricity_abs="0"/>
    </tripinfo>
    <tripinfo id="carIn102915:1" depart="57643.00" departLane="128361102#0_1" departPos="5.10" departSpeed="0.00" departDelay="0.40" arrival="57857.00" arrivalLane="201956811#0_1" arrivalPos="40.40" arrivalSpeed="12.78" duration="214.00" routeLength="2067.33" waitingTime="28.00" waitingCount="1" stopTime="0.00" timeLoss="52.16" rerouteNo="1" devices="tripinfo_carIn102915:1 routing_carIn102915:1 emissions_carIn102915:1" vType="default_016" speedFactor="0.93" vaporized="">
        <emissions CO_abs="9817.449402" CO2_abs="513273.177768" HC_abs="56.673310" PMx_abs="8.789692" NOx_abs="207.273206" fuel_abs="220.636337" electricity_abs="0"/>
    </tripinfo>
    <tripinfo id="50R_frequency3.17" depart="57674.00" departLane="-18809673#6_1" departPos="12.10" departSpeed="0.00" departDelay="0.70" arrival="57859.00" arrivalLane="201956811#0_1" arrivalPos="40.40" arrivalSpeed="13.52" duration="185.00" routeLength="1954.47" waitingTime="16.00" waitingCount="1" stopTime="0.00" timeLoss="39.98" rerouteNo="1" devices="tripinfo_50R_frequency3.17 routing_50R_frequency3.17 emissions_50R_frequency3.17" vType="bus" speedFactor="1.00" vaporized="">
        <emissions CO_abs="3555.175862" CO2_abs="2167511.511184" HC_abs="756.280335" PMx_abs="379.961054" NOx_abs="16977.208842" fuel_abs="924.402752" electricity_abs="0"/>
    </tripinfo>
    <tripinfo id="randUni33724:1" depart="57646.00" departLane="128361102#0_1" departPos="5.10" departSpeed="0.00" departDelay="1.20" arrival="57862.00" arrivalLane="201956811#0_1" arrivalPos="40.40" arrivalSpeed="11.77" duration="216.00" routeLength="2067.33" waitingTime="16.00" waitingCount="2" stopTime="0.00" timeLoss="46.40" rerouteNo="1" devices="tripinfo_randUni33724:1 routing_randUni33724:1 emissions_randUni33724:1" vType="random_016" speedFactor="0.89" vaporized="">
        <emissions CO_abs="7452.051215" CO2_abs="471747.113258" HC_abs="44.890169" PMx_abs="7.649382" NOx_abs="188.337840" fuel_abs="202.785132" electricity_abs="0"/>
    </tripinfo>
    <tripinfo id="carIn100288:1" depart="57664.00" departLane="128361102#0_1" departPos="5.10" departSpeed="0.00" departDelay="0.60" arrival="57864.00" arrivalLane="201956811#0_1" arrivalPos="40.40" arrivalSpeed="13.40" duration="200.00" routeLength="2067.33" waitingTime="5.00" waitingCount="2" stopTime="0.00" timeLoss="53.10" rerouteNo="1" devices="tripinfo_carIn100288:1 routing_carIn100288:1 emissions_carIn100288:1" vType="default_016" speedFactor="1.03" vaporized="">
        <emissions CO_abs="7822.212998" CO2_abs="517140.687124" HC_abs="47.739119" PMx_abs="8.947943" NOx_abs="209.777560" fuel_abs="222.296880" electricity_abs="0"/>
    </tripinfo>
    <tripinfo id="carIn73855:1" depart="57743.00" departLane="386687232#0_1" departPos="5.10" departSpeed="0.00" departDelay="0.50" arrival="57873.00" arrivalLane="-315358244_2" arrivalPos="33.95" arrivalSpeed="15.35" duration="130.00" routeLength="1157.39" waitingTime="27.00" waitingCount="3" stopTime="0.00" timeLoss="55.76" rerouteNo="1" devices="tripinfo_carIn73855:1 routing_carIn73855:1 emissions_carIn73855:1" vType="default_016" speedFactor="1.15" vaporized="">
        <emissions CO_abs="7777.927808" CO2_abs="365470.074602" HC_abs="43.934570" PMx_abs="7.036091" NOx_abs="152.251359" fuel_abs="157.100983" electricity_abs="0"/>
    </tripinfo>
    <tripinfo id="h645c1:1" depart="57622.00" departLane="266565295#5_1" departPos="5.10" departSpeed="0.00" departDelay="0.40" arrival="57874.00" arrivalLane="-315358244_1" arrivalPos="33.95" arrivalSpeed="11.90" duration="252.00" routeLength="1910.83" waitingTime="77.00" waitingCount="3" stopTime="0.00" timeLoss="104.04" rerouteNo="1" devices="tripinfo_h645c1:1 routing_h645c1:1 emissions_h645c1:1" vType="default_016" speedFactor="0.94" vaporized="">
        <emissions CO_abs="15858.097999" CO2_abs="563132.285146" HC_abs="85.325120" PMx_abs="10.374241" NOx_abs="232.140865" fuel_abs="242.072079" electricity_abs="0"/>
    </tripinfo>
    <tripinfo id="carIn129809:1" depart="57729.00" departLane="-447569998#1_1" departPos="5.10" departSpeed="0.00" departDelay="1.00" arrival="57875.00" arrivalLane="-315358244_2" arrivalPos="33.95" arrivalSpeed="14.45" duration="146.00" routeLength="706.49" waitingTime="71.00" waitingCount="2" stopTime="0.00" timeLoss="89.26" rerouteNo="1" devices="tripinfo_carIn129809:1 routing_carIn129809:1 emissions_carIn129809:1" vType="default_015" speedFactor="1.08" vaporized="">
        <emissions CO_abs="13689.243430" CO2_abs="360472.554153" HC_abs="70.778850" PMx_abs="7.573115" NOx_abs="155.452164" fuel_abs="154.956829" electricity_abs="0"/>
    </tripinfo>
    <tripinfo id="h11737c1:1" depart="57665.00" departLane="272042143_1" departPos="5.10" departSpeed="0.00" departDelay="1.50" arrival="57876.00" arrivalLane="-315358254#1_1" arrivalPos="137.16" arrivalSpeed="15.24" duration="211.00" routeLength="1596.88" waitingTime="86.00" waitingCount="2" stopTime="0.00" timeLoss="108.99" rerouteNo="1" devices="tripinfo_h11737c1:1 routing_h11737c1:1 emissions_h11737c1:1" vType="default_016" speedFactor="1.14" vaporized="">
        <emissions CO_abs="16927.503865" CO2_abs="560962.254008" HC_abs="90.168176" PMx_abs="11.228334" NOx_abs="236.026662" fuel_abs="241.138934" electricity_abs="0"/>
    </tripinfo>
    <tripinfo id="carIn126378:1" depart="57746.00" departLane="386687232#0_1" departPos="5.10" departSpeed="0.00" departDelay="1.80" arrival="57876.00" arrivalLane="-315358244_1" arrivalPos="33.95" arrivalSpeed="12.53" duration="130.00" routeLength="1157.39" waitingTime="19.00" waitingCount="2" stopTime="0.00" timeLoss="38.13" rerouteNo="1" devices="tripinfo_carIn126378:1 routing_carIn126378:1 emissions_carIn126378:1" vType="default_016" speedFactor="0.92" vaporized="">
        <emissions CO_abs="6113.911352" CO2_abs="296270.769410" HC_abs="34.733617" PMx_abs="5.080840" NOx_abs="119.877549" fuel_abs="127.355726" electricity_abs="0"/>
    </tripinfo>
    <tripinfo id="carIn81860:1" depart="57712.00" departLane="128361102#0_1" departPos="5.10" departSpeed="0.00" departDelay="0.60" arrival="57877.00" arrivalLane="-24634517#17_1" arrivalPos="6.43" arrivalSpeed="6.43" duration="165.00" routeLength="1229.64" waitingTime="41.00" waitingCount="2" stopTime="0.00" timeLoss="65.09" rerouteNo="1" devices="tripinfo_carIn81860:1 routing_carIn81860:1 emissions_carIn81860:1" vType="default_016" speedFactor="0.90" vaporized="">