<?xml version="1.0" encoding="UTF-8"?>

<!-- generated on 2021-10-26 14:11:17 by Eclipse SUMO sumo Version 1.10.0
<configuration xmlns:xsi="http://www.w3.org/2001/XMLSchema-instance" xsi:noNamespaceSchemaLocation="http://sumo.dlr.de/xsd/sumoConfiguration.xsd">

    <input>
        <net-file value="/Users/behradkoohy/sumo-scratchpad/RESCO/environments/ingolstadt21/ingolstadt21.net.xml"/>
        <route-files value="/Users/behradkoohy/sumo-scratchpad/RESCO/environments/ingolstadt21/ingolstadt21.rou.xml"/>
    </input>

    <output>
        <tripinfo-output value="/Users/behradkoohy/sumo-scratchpad/RESCO/logs/STOCHASTIC-tr0-ingolstadt21-21-mplight-wait/tripinfo_28.xml"/>
        <tripinfo-output.write-unfinished value="true"/>
    </output>

    <time>
        <begin value="57600"/>
        <end value="61200"/>
    </time>

    <processing>
        <time-to-teleport value="-1"/>
    </processing>

    <report>
        <no-warnings value="true"/>
        <no-step-log value="true"/>
    </report>

    <emissions>
        <device.emissions.probability value="1"/>
    </emissions>

    <traci_server>
        <remote-port value="60087"/>
    </traci_server>

    <random_number>
        <random value="true"/>
    </random_number>

</configuration>
-->

<tripinfos xmlns:xsi="http://www.w3.org/2001/XMLSchema-instance" xsi:noNamespaceSchemaLocation="http://sumo.dlr.de/xsd/tripinfo_file.xsd">
    <tripinfo id="h15454c2:3" depart="57612.00" departLane="24608844_1" departPos="5.10" departSpeed="0.00" departDelay="0.50" arrival="57666.00" arrivalLane="32978638#0_1" arrivalPos="49.29" arrivalSpeed="9.53" duration="54.00" routeLength="354.79" waitingTime="0.00" waitingCount="0" stopTime="0.00" timeLoss="7.23" rerouteNo="1" devices="tripinfo_h15454c2:3 routing_h15454c2:3 emissions_h15454c2:3" vType="default_016" speedFactor="0.73" vaporized="">
        <emissions CO_abs="2144.559853" CO2_abs="88053.668333" HC_abs="11.791284" PMx_abs="1.494306" NOx_abs="36.177335" fuel_abs="37.851216" electricity_abs="0"/>
    </tripinfo>
    <tripinfo id="carIn53971:1" depart="57640.00" departLane="272042143_1" departPos="5.10" departSpeed="0.00" departDelay="0.80" arrival="57691.00" arrivalLane="24634414#1_1" arrivalPos="162.19" arrivalSpeed="9.16" duration="51.00" routeLength="493.04" waitingTime="0.00" waitingCount="0" stopTime="0.00" timeLoss="9.31" rerouteNo="1" devices="tripinfo_carIn53971:1 routing_carIn53971:1 emissions_carIn53971:1" vType="default_016" speedFactor="1.10" vaporized="">
        <emissions CO_abs="2311.524572" CO2_abs="138368.807445" HC_abs="13.721477" PMx_abs="2.436368" NOx_abs="56.570507" fuel_abs="59.478987" electricity_abs="0"/>
    </tripinfo>
    <tripinfo id="carIn60260:1" depart="57606.00" departLane="315358254#0_1" departPos="5.10" departSpeed="0.00" departDelay="0.90" arrival="57720.00" arrivalLane="399835085#1_1" arrivalPos="212.23" arrivalSpeed="7.11" duration="114.00" routeLength="430.98" waitingTime="48.00" waitingCount="1" stopTime="0.00" timeLoss="61.07" rerouteNo="1" devices="tripinfo_carIn60260:1 routing_carIn60260:1 emissions_carIn60260:1" vType="default_016" speedFactor="0.88" vaporized="">
        <emissions CO_abs="9943.470645" CO2_abs="236867.030174" HC_abs="50.784864" PMx_abs="4.936510" NOx_abs="102.710929" fuel_abs="101.823142" electricity_abs="0"/>
    </tripinfo>
    <tripinfo id="h7800c1:5" depart="57696.00" departLane="-447569998#1_1" departPos="5.10" departSpeed="0.00" departDelay="0.00" arrival="57722.00" arrivalLane="-447569998#1_1" arrivalPos="180.76" arrivalSpeed="6.83" duration="26.00" routeLength="175.66" waitingTime="0.00" waitingCount="0" stopTime="0.00" timeLoss="3.47" rerouteNo="1" devices="tripinfo_h7800c1:5 routing_h7800c1:5 emissions_h7800c1:5" vType="default_016" speedFactor="0.95" vaporized="">
        <emissions CO_abs="1102.075319" CO2_abs="44130.001884" HC_abs="6.030598" PMx_abs="0.739009" NOx_abs="18.090120" fuel_abs="18.969992" electricity_abs="0"/>
    </tripinfo>
    <tripinfo id="h7181c1:1" depart="57660.00" departLane="315358254#0_1" departPos="5.10" departSpeed="0.00" departDelay="0.10" arrival="57723.00" arrivalLane="306240162#0_0" arrivalPos="220.43" arrivalSpeed="16.80" duration="63.00" routeLength="932.35" waitingTime="0.00" waitingCount="0" stopTime="0.00" timeLoss="15.88" rerouteNo="1" devices="tripinfo_h7181c1:1 routing_h7181c1:1 emissions_h7181c1:1" vType="default_016" speedFactor="1.08" vaporized="">
        <emissions CO_abs="4582.443111" CO2_abs="294130.317085" HC_abs="27.963507" PMx_abs="6.030599" NOx_abs="123.680470" fuel_abs="126.433021" electricity_abs="0"/>
    </tripinfo>
    <tripinfo id="h3688c1:1" depart="57625.00" departLane="201201950#1_1" departPos="5.10" departSpeed="0.00" departDelay="0.00" arrival="57745.00" arrivalLane="32978638#0_1" arrivalPos="49.29" arrivalSpeed="12.43" duration="120.00" routeLength="1089.75" waitingTime="18.00" waitingCount="2" stopTime="0.00" timeLoss="36.84" rerouteNo="1" devices="tripinfo_h3688c1:1 routing_h3688c1:1 emissions_h3688c1:1" vType="default_016" speedFactor="0.96" vaporized="">
        <emissions CO_abs="4557.355242" CO2_abs="270589.601527" HC_abs="27.055136" PMx_abs="4.642757" NOx_abs="109.371187" fuel_abs="116.315478" electricity_abs="0"/>
    </tripinfo>
    <tripinfo id="carIn80064:1" depart="57603.00" departLane="128361109#1_1" departPos="5.10" departSpeed="0.00" departDelay="0.40" arrival="57753.00" arrivalLane="-315358254#1_1" arrivalPos="137.16" arrivalSpeed="10.87" duration="150.00" routeLength="1587.97" waitingTime="14.00" waitingCount="2" stopTime="0.00" timeLoss="45.01" rerouteNo="1" devices="tripinfo_carIn80064:1 routing_carIn80064:1 emissions_carIn80064:1" vType="default_016" speedFactor="0.86" vaporized="">
        <emissions CO_abs="6967.189222" CO2_abs="430924.333190" HC_abs="41.715224" PMx_abs="7.843190" NOx_abs="175.359108" fuel_abs="185.236079" electricity_abs="0"/>
    </tripinfo>
    <tripinfo id="h12244c1:3" depart="57612.00" departLane="315358244_1" departPos="5.10" departSpeed="0.00" departDelay="0.40" arrival="57756.00" arrivalLane="386687235_1" arrivalPos="80.84" arrivalSpeed="14.27" duration="144.00" routeLength="1186.14" waitingTime="35.00" waitingCount="2" stopTime="0.00" timeLoss="62.63" rerouteNo="1" devices="tripinfo_h12244c1:3 routing_h12244c1:3 emissions_h12244c1:3" vType="default_016" speedFactor="1.06" vaporized="">
        <emissions CO_abs="8074.961603" CO2_abs="360245.941742" HC_abs="45.137268" PMx_abs="6.515389" NOx_abs="147.298617" fuel_abs="154.856347" electricity_abs="0"/>
    </tripinfo>
    <tripinfo id="carIn22761:1" depart="57616.00" departLane="-306240162#1_0" departPos="5.10" departSpeed="0.00" departDelay="2.10" arrival="57756.00" arrivalLane="399835085#1_1" arrivalPos="212.23" arrivalSpeed="8.09" duration="140.00" routeLength="1093.26" waitingTime="33.00" waitingCount="2" stopTime="0.00" timeLoss="59.74" rerouteNo="1" devices="tripinfo_carIn22761:1 routing_carIn22761:1 emissions_carIn22761:1" vType="default_016" speedFactor="0.97" vaporized="">
        <emissions CO_abs="8946.866569" CO2_abs="376190.503014" HC_abs="49.572946" PMx_abs="7.514732" NOx_abs="158.982956" fuel_abs="161.709612" electricity_abs="0"/>
    </tripinfo>
    <tripinfo id="h317c2:1" depart="57707.00" departLane="-32978638#0_1" departPos="5.10" departSpeed="0.00" departDelay="0.10" arrival="57756.00" arrivalLane="-266565295#5_1" arrivalPos="172.76" arrivalSpeed="12.56" duration="49.00" routeLength="370.53" waitingTime="12.00" waitingCount="1" stopTime="0.00" timeLoss="20.80" rerouteNo="1" devices="tripinfo_h317c2:1 routing_h317c2:1 emissions_h317c2:1" vType="default_016" speedFactor="0.98" vaporized="">
        <emissions CO_abs="3388.146819" CO2_abs="129689.164481" HC_abs="18.486747" PMx_abs="2.578375" NOx_abs="55.127910" fuel_abs="55.748552" electricity_abs="0"/>
    </tripinfo>
    <tripinfo id="h9563c2:5" depart="57631.00" departLane="315358244_1" departPos="5.10" departSpeed="0.00" departDelay="0.70" arrival="57758.00" arrivalLane="386687235_1" arrivalPos="80.84" arrivalSpeed="14.20" duration="127.00" routeLength="1186.14" waitingTime="24.00" waitingCount="1" stopTime="0.00" timeLoss="45.63" rerouteNo="1" devices="tripinfo_h9563c2:5 routing_h9563c2:5 emissions_h9563c2:5" vType="default_016" speedFactor="1.06" vaporized="">
        <emissions CO_abs="6960.319203" CO2_abs="323770.451307" HC_abs="39.290968" PMx_abs="5.985114" NOx_abs="133.287357" fuel_abs="139.176438" electricity_abs="0"/>
    </tripinfo>
    <tripinfo id="h3568c1:3" depart="57656.00" departLane="266565295#5_1" departPos="5.10" departSpeed="0.00" departDelay="0.80" arrival="57763.00" arrivalLane="-24634415_1" arrivalPos="62.03" arrivalSpeed="16.13" duration="107.00" routeLength="807.40" waitingTime="24.00" waitingCount="2" stopTime="0.00" timeLoss="53.40" rerouteNo="1" devices="tripinfo_h3568c1:3 routing_h3568c1:3 emissions_h3568c1:3" vType="default_016" speedFactor="1.21" vaporized="">
        <emissions CO_abs="8230.326166" CO2_abs="356563.339921" HC_abs="45.948620" PMx_abs="7.207140" NOx_abs="151.933893" fuel_abs="153.272262" electricity_abs="0"/>
    </tripinfo>
    <tripinfo id="h3326c1:2" depart="57656.00" departLane="22716069#0_1" departPos="5.10" departSpeed="0.00" departDelay="0.00" arrival="57769.00" arrivalLane="24634517#13_1" arrivalPos="111.62" arrivalSpeed="12.80" duration="113.00" routeLength="1312.81" waitingTime="0.00" waitingCount="0" stopTime="0.00" timeLoss="15.13" rerouteNo="1" devices="tripinfo_h3326c1:2 routing_h3326c1:2 emissions_h3326c1:2" vType="default_016" speedFactor="0.99" vaporized="">
        <emissions CO_abs="4071.257101" CO2_abs="304383.001574" HC_abs="25.654942" PMx_abs="5.089171" NOx_abs="121.828822" fuel_abs="130.841227" electricity_abs="0"/>
    </tripinfo>
    <tripinfo id="h5979c1:5" depart="57669.00" departLane="399835085#1_1" departPos="5.10" departSpeed="0.00" departDelay="0.00" arrival="57771.00" arrivalLane="-315358254#1_1" arrivalPos="137.16" arrivalSpeed="13.30" duration="102.00" routeLength="659.33" waitingTime="10.00" waitingCount="1" stopTime="0.00" timeLoss="31.74" rerouteNo="1" devices="tripinfo_h5979c1:5 routing_h5979c1:5 emissions_h5979c1:5" vType="default_016" speedFactor="1.04" vaporized="">
        <emissions CO_abs="5075.229425" CO2_abs="208885.777649" HC_abs="27.923388" PMx_abs="3.565346" NOx_abs="85.625636" fuel_abs="89.792738" electricity_abs="0"/>
    </tripinfo>
    <tripinfo id="h3154c1:1" depart="57658.00" departLane="24634507_1" departPos="5.10" departSpeed="0.00" departDelay="0.00" arrival="57773.00" arrivalLane="-266565295#5_1" arrivalPos="172.76" arrivalSpeed="16.18" duration="115.00" routeLength="1206.22" waitingTime="19.00" waitingCount="2" stopTime="0.00" timeLoss="43.63" rerouteNo="1" devices="tripinfo_h3154c1:1 routing_h3154c1:1 emissions_h3154c1:1" vType="default_016" speedFactor="1.24" vaporized="">
        <emissions CO_abs="6926.727001" CO2_abs="385932.333734" HC_abs="40.645654" PMx_abs="7.613565" NOx_abs="161.628677" fuel_abs="165.895549" electricity_abs="0"/>
    </tripinfo>
    <tripinfo id="carIn30817:1" depart="57681.00" departLane="315358244_1" departPos="5.10" departSpeed="0.00" departDelay="0.20" arrival="57776.00" arrivalLane="447569997#1_1" arrivalPos="180.93" arrivalSpeed="8.09" duration="95.00" routeLength="718.04" waitingTime="20.00" waitingCount="1" stopTime="0.00" timeLoss="32.87" rerouteNo="1" devices="tripinfo_carIn30817:1 routing_carIn30817:1 emissions_carIn30817:1" vType="default_016" speedFactor="0.99" vaporized="">
        <emissions CO_abs="5624.176449" CO2_abs="230073.288945" HC_abs="30.986111" PMx_abs="4.231015" NOx_abs="95.294664" fuel_abs="98.900180" electricity_abs="0"/>
    </tripinfo>
    <tripinfo id="carIn27009:1" depart="57673.00" departLane="-447569998#1_1" departPos="5.10" departSpeed="0.00" departDelay="0.50" arrival="57780.00" arrivalLane="-26677539_1" arrivalPos="152.75" arrivalSpeed="8.80" duration="107.00" routeLength="699.63" waitingTime="13.00" waitingCount="1" stopTime="0.00" timeLoss="28.76" rerouteNo="1" devices="tripinfo_carIn27009:1 routing_carIn27009:1 emissions_carIn27009:1" vType="default_015" speedFactor="1.07" vaporized="">
        <emissions CO_abs="5225.786647" CO2_abs="208860.536983" HC_abs="28.612301" PMx_abs="3.605935" NOx_abs="85.984616" fuel_abs="89.781944" electricity_abs="0"/>
    </tripinfo>
    <tripinfo id="h11737c1:1" depart="57665.00" departLane="272042143_1" departPos="5.10" departSpeed="0.00" departDelay="1.50" arrival="57790.00" arrivalLane="-315358254#1_1" arrivalPos="137.16" arrivalSpeed="13.81" duration="125.00" routeLength="1596.88" waitingTime="0.00" waitingCount="0" stopTime="0.00" timeLoss="13.56" rerouteNo="1" devices="tripinfo_h11737c1:1 routing_h11737c1:1 emissions_h11737c1:1" vType="default_016" speedFactor="1.04" vaporized="">
        <emissions CO_abs="3839.783431" CO2_abs="339292.504351" HC_abs="25.380151" PMx_abs="5.519608" NOx_abs="133.641049" fuel_abs="145.847078" electricity_abs="0"/>
    </tripinfo>
    <tripinfo id="carIn12365:1" depart="57713.00" departLane="315358244_1" departPos="5.10" departSpeed="0.00" departDelay="0.50" arrival="57792.00" arrivalLane="447569997#1_1" arrivalPos="180.93" arrivalSpeed="7.66" duration="79.00" routeLength="718.04" waitingTime="9.00" waitingCount="2" stopTime="0.00" timeLoss="21.00" rerouteNo="1" devices="tripinfo_carIn12365:1 routing_carIn12365:1 emissions_carIn12365:1" vType="default_016" speedFactor="1.06" vaporized="">
        <emissions CO_abs="3060.116218" CO2_abs="165939.023755" HC_abs="17.756752" PMx_abs="2.826214" NOx_abs="67.038693" fuel_abs="71.330689" electricity_abs="0"/>
    </tripinfo>
    <tripinfo id="carIn121703:1" depart="57647.00" departLane="386687232#0_1" departPos="5.10" departSpeed="0.00" departDelay="0.30" arrival="57793.00" arrivalLane="-315358244_1" arrivalPos="33.95" arrivalSpeed="13.33" duration="146.00" routeLength="1157.39" waitingTime="37.00" waitingCount="3" stopTime="0.00" timeLoss="61.81" rerouteNo="1" devices="tripinfo_carIn121703:1 routing_carIn121703:1 emissions_carIn121703:1" vType="default_016" speedFactor="1.00" vaporized="">
        <emissions CO_abs="8667.769341" CO2_abs="355952.387360" HC_abs="47.820282" PMx_abs="6.695423" NOx_abs="147.800657" fuel_abs="153.010853" electricity_abs="0"/>
    </tripinfo>
    <tripinfo id="carIn28951:1" depart="57606.00" departLane="10425609#0_1" departPos="5.10" departSpeed="0.00" departDelay="0.20" arrival="57795.00" arrivalLane="-128361102#1_1" arrivalPos="274.68" arrivalSpeed="13.70" duration="189.00" routeLength="2113.04" waitingTime="13.00" waitingCount="2" stopTime="0.00" timeLoss="45.04" rerouteNo="1" devices="tripinfo_carIn28951:1 routing_carIn28951:1 emissions_carIn28951:1" vType="default_016" speedFactor="1.08" vaporized="">
        <emissions CO_abs="7153.471269" CO2_abs="488728.252288" HC_abs="43.914695" PMx_abs="8.484300" NOx_abs="196.709390" fuel_abs="210.083481" electricity_abs="0"/>
    </tripinfo>
    <tripinfo id="h330c1:1" depart="57736.00" departLane="-32978638#0_1" departPos="5.10" departSpeed="0.00" departDelay="0.20" arrival="57795.00" arrivalLane="-266565295#5_1" arrivalPos="172.76" arrivalSpeed="13.21" duration="59.00" routeLength="370.53" waitingTime="21.00" waitingCount="1" stopTime="0.00" timeLoss="31.96" rerouteNo="1" devices="tripinfo_h330c1:1 routing_h330c1:1 emissions_h330c1:1" vType="default_016" speedFactor="1.01" vaporized="">
        <emissions CO_abs="5079.683602" CO2_abs="171434.007646" HC_abs="27.140285" PMx_abs="3.393228" NOx_abs="72.464632" fuel_abs="73.693676" electricity_abs="0"/>
    </tripinfo>
    <tripinfo id="carIn129809:1" depart="57729.00" departLane="-447569998#1_1" departPos="5.10" departSpeed="0.00" departDelay="1.00" arrival="57796.00" arrivalLane="-315358244_1" arrivalPos="33.95" arrivalSpeed="13.29" duration="67.00" routeLength="706.49" waitingTime="0.00" waitingCount="0" stopTime="0.00" timeLoss="9.06" rerouteNo="1" devices="tripinfo_carIn129809:1 routing_carIn129809:1 emissions_carIn129809:1" vType="default_015" speedFactor="1.05" vaporized="">
        <emissions CO_abs="2485.735287" CO2_abs="162826.945074" HC_abs="15.096095" PMx_abs="2.602183" NOx_abs="64.462529" fuel_abs="69.992777" electricity_abs="0"/>
    </tripinfo>
    <tripinfo id="carIn107282:1" depart="57749.00" departLane="-447569998#1_1" departPos="5.10" departSpeed="0.00" departDelay="0.00" arrival="57805.00" arrivalLane="315358242#0_1" arrivalPos="165.37" arrivalSpeed="14.04" duration="56.00" routeLength="448.50" waitingTime="7.00" waitingCount="1" stopTime="0.00" timeLoss="15.64" rerouteNo="1" devices="tripinfo_carIn107282:1 routing_carIn107282:1 emissions_carIn107282:1" vType="default_016" speedFactor="1.04" vaporized="">
        <emissions CO_abs="2440.895846" CO2_abs="124594.779903" HC_abs="14.018835" PMx_abs="2.160009" NOx_abs="50.793149" fuel_abs="53.558466" electricity_abs="0"/>
    </tripinfo>
    <tripinfo id="S5R_frequency1.2" depart="57612.00" departLane="315358250#0_1" departPos="12.10" departSpeed="0.00" departDelay="0.40" arrival="57810.00" arrivalLane="386687235_1" arrivalPos="80.84" arrivalSpeed="13.46" duration="198.00" routeLength="1115.62" waitingTime="79.00" waitingCount="3" stopTime="0.00" timeLoss="116.61" rerouteNo="1" devices="tripinfo_S5R_frequency1.2 routing_S5R_frequency1.2 emissions_S5R_frequency1.2" vType="bus" speedFactor="1.00" vaporized="">
        <emissions CO_abs="3830.303722" CO2_abs="1860008.028644" HC_abs="842.835543" PMx_abs="398.594459" NOx_abs="15892.366678" fuel_abs="793.094981" electricity_abs="0"/>
    </tripinfo>
    <tripinfo id="h645c1:1" depart="57622.00" departLane="266565295#5_1" departPos="5.10" departSpeed="0.00" departDelay="0.40" arrival="57823.00" arrivalLane="-315358244_1" arrivalPos="33.95" arrivalSpeed="15.14" duration="201.00" routeLength="1910.83" waitingTime="44.00" waitingCount="3" stopTime="0.00" timeLoss="73.64" rerouteNo="1" devices="tripinfo_h645c1:1 routing_h645c1:1 emissions_h645c1:1" vType="default_016" speedFactor="1.09" vaporized="">
        <emissions CO_abs="10283.371359" CO2_abs="497819.455019" HC_abs="58.426573" PMx_abs="9.026509" NOx_abs="202.922790" fuel_abs="213.993385" electricity_abs="0"/>
    </tripinfo>
    <tripinfo id="h4538c1:1" depart="57701.00" departLane="-10427692#1_1" departPos="5.10" departSpeed="0.00" departDelay="0.00" arrival="57826.00" arrivalLane="-128361102#1_1" arrivalPos="274.68" arrivalSpeed="12.76" duration="125.00" routeLength="440.74" waitingTime="83.00" waitingCount="1" stopTime="0.00" timeLoss="93.16" rerouteNo="1" devices="tripinfo_h4538c1:1 routing_h4538c1:1 emissions_h4538c1:1" vType="default_016" speedFactor="0.99" vaporized="">
        <emissions CO_abs="14519.487793" CO2_abs="314002.144729" HC_abs="73.476694" PMx_abs="6.990686" NOx_abs="137.967163" fuel_abs="134.982151" electricity_abs="0"/>
    </tripinfo>
    <tripinfo id="h17600c1:1" depart="57662.00" departLane="272042143_1" departPos="5.10" departSpeed="0.00" departDelay="0.30" arrival="57831.00" arrivalLane="201238729#3_1" arrivalPos="431.02" arrivalSpeed="14.13" duration="169.00" routeLength="2100.26" waitingTime="5.00" waitingCount="1" stopTime="0.00" timeLoss="22.09" rerouteNo="1" devices="tripinfo_h17600c1:1 routing_h17600c1:1 emissions_h17600c1:1" vType="default_016" speedFactor="1.04" vaporized="">
        <emissions CO_abs="4224.670091" CO2_abs="381621.640052" HC_abs="28.097658" PMx_abs="5.905143" NOx_abs="147.855274" fuel_abs="164.042971" electricity_abs="0"/>
    </tripinfo>
    <tripinfo id="50R_frequency3.17" depart="57674.00" departLane="-18809673#6_1" departPos="12.10" departSpeed="0.00" departDelay="0.70" arrival="57835.00" arrivalLane="201956811#0_1" arrivalPos="40.40" arrivalSpeed="13.43" duration="161.00" routeLength="1954.47" waitingTime="0.00" waitingCount="0" stopTime="0.00" timeLoss="16.14" rerouteNo="1" devices="tripinfo_50R_frequency3.17 routing_50R_frequency3.17 emissions_50R_frequency3.17" vType="bus" speedFactor="1.00" vaporized="">
        <emissions CO_abs="2968.360871" CO2_abs="1903110.256873" HC_abs="630.474631" PMx_abs="319.652446" NOx_abs="14640.585719" fuel_abs="811.677487" electricity_abs="0"/>
    </tripinfo>
    <tripinfo id="carIn118591:1" depart="57689.00" departLane="315358244_1" departPos="5.10" departSpeed="0.00" departDelay="0.20" arrival="57840.00" arrivalLane="386687235_1" arrivalPos="80.84" arrivalSpeed="11.45" duration="151.00" routeLength="1186.14" waitingTime="26.00" waitingCount="3" stopTime="0.00" timeLoss="54.64" rerouteNo="1" devices="tripinfo_carIn118591:1 routing_carIn118591:1 emissions_carIn118591:1" vType="default_016" speedFactor="0.90" vaporized="">
        <emissions CO_abs="6722.866446" CO2_abs="320457.342602" HC_abs="38.083257" PMx_abs="5.625078" NOx_abs="131.006786" fuel_abs="137.752472" electricity_abs="0"/>
    </tripinfo>
    <tripinfo id="h5216c1:1" depart="57664.00" departLane="224892339#0_1" departPos="5.10" departSpeed="0.00" departDelay="0.00" arrival="57843.00" arrivalLane="386687235_2" arrivalPos="80.84" arrivalSpeed="13.31" duration="179.00" routeLength="1823.78" waitingTime="26.00" waitingCount="2" stopTime="0.00" timeLoss="52.75" rerouteNo="1" devices="tripinfo_h5216c1:1 routing_h5216c1:1 emissions_h5216c1:1" vType="default_016" speedFactor="1.01" vaporized="">
        <emissions CO_abs="8912.706040" CO2_abs="472287.605476" HC_abs="51.684081" PMx_abs="8.735955" NOx_abs="194.049028" fuel_abs="203.017206" electricity_abs="0"/>
    </tripinfo>
    <tripinfo id="h16072c2:3" depart="57663.00" departLane="315358254#0_1" departPos="5.10" departSpeed="0.00" departDelay="2.50" arrival="57844.00" arrivalLane="386687235_1" arrivalPos="80.84" arrivalSpeed="13.06" duration="181.00" routeLength="1611.92" waitingTime="36.00" waitingCount="3" stopTime="0.00" timeLoss="62.98" rerouteNo="1" devices="tripinfo_h16072c2:3 routing_h16072c2:3 emissions_h16072c2:3" vType="default_016" speedFactor="1.00" vaporized="">
        <emissions CO_abs="8726.615739" CO2_abs="437072.947573" HC_abs="49.922879" PMx_abs="7.591885" NOx_abs="176.576715" fuel_abs="187.881008" electricity_abs="0"/>
    </tripinfo>
    <tripinfo id="carIn82278:1" depart="57702.00" departLane="-306240162#1_0" departPos="5.10" departSpeed="0.00" departDelay="0.70" arrival="57846.00" arrivalLane="399835085#1_1" arrivalPos="212.23" arrivalSpeed="6.35" duration="144.00" routeLength="1093.26" waitingTime="30.00" waitingCount="2" stopTime="0.00" timeLoss="66.06" rerouteNo="1" devices="tripinfo_carIn82278:1 routing_carIn82278:1 emissions_carIn82278:1" vType="default_016" speedFactor="1.01" vaporized="">
        <emissions CO_abs="10459.159577" CO2_abs="435037.383181" HC_abs="57.945140" PMx_abs="8.723157" NOx_abs="184.302034" fuel_abs="187.005630" electricity_abs="0"/>
    </tripinfo>
    <tripinfo id="carIn8642:1" depart="57774.00" departLane="-447569998#1_1" departPos="5.10" departSpeed="0.00" departDelay="0.90" arrival="57853.00" arrivalLane="-315358244_1" arrivalPos="33.95" arrivalSpeed="14.10" duration="79.00" routeLength="706.49" waitingTime="7.00" waitingCount="1" stopTime="0.00" timeLoss="19.54" rerouteNo="1" devices="tripinfo_carIn8642:1 routing_carIn8642:1 emissions_carIn8642:1" vType="default_016" speedFactor="1.02" vaporized="">
        <emissions CO_abs="3554.236856" CO2_abs="197015.299586" HC_abs="20.762714" PMx_abs="3.349223" NOx_abs="79.632001" fuel_abs="84.689104" electricity_abs="0"/>
    </tripinfo>
    <tripinfo id="carIn12858:1" depart="57661.00" departLane="128361109#1_1" departPos="5.10" departSpeed="0.00" departDelay="0.90" arrival="57854.00" arrivalLane="399835085#1_1" arrivalPos="212.23" arrivalSpeed="6.71" duration="193.00" routeLength="1738.12" waitingTime="22.00" waitingCount="2" stopTime="0.00" timeLoss="54.30" rerouteNo="1" devices="tripinfo_carIn12858:1 routing_carIn12858:1 emissions_carIn12858:1" vType="default_016" speedFactor="0.83" vaporized="">
        <emissions CO_abs="10073.394677" CO2_abs="499019.124215" HC_abs="57.599307" PMx_abs="9.275232" NOx_abs="206.011890" fuel_abs="214.508423" electricity_abs="0"/>
    </tripinfo>
    <tripinfo id="randUni15030:1" depart="57735.00" departLane="386687232#0_1" departPos="5.10" departSpeed="0.00" departDelay="0.10" arrival="57854.00" arrivalLane="26677539_1" arrivalPos="151.98" arrivalSpeed="8.59" duration="119.00" routeLength="919.89" waitingTime="24.00" waitingCount="1" stopTime="0.00" timeLoss="41.45" rerouteNo="1" devices="tripinfo_randUni15030:1 routing_randUni15030:1 emissions_randUni15030:1" vType="random_016" speedFactor="1.08" vaporized="">
        <emissions CO_abs="7328.944035" CO2_abs="285184.585128" HC_abs="40.052056" PMx_abs="5.385792" NOx_abs="118.991495" fuel_abs="122.590626" electricity_abs="0"/>
    </tripinfo>
    <tripinfo id="carIn73855:1" depart="57743.00" departLane="386687232#0_1" departPos="5.10" departSpeed="0.00" departDelay="0.50" arrival="57855.00" arrivalLane="-315358244_1" arrivalPos="33.95" arrivalSpeed="14.77" duration="112.00" routeLength="1157.39" waitingTime="20.00" waitingCount="1" stopTime="0.00" timeLoss="34.59" rerouteNo="1" devices="tripinfo_carIn73855:1 routing_carIn73855:1 emissions_carIn73855:1" vType="default_016" speedFactor="1.09" vaporized="">
        <emissions CO_abs="5726.128028" CO2_abs="289774.047658" HC_abs="32.781391" PMx_abs="5.264299" NOx_abs="118.192319" fuel_abs="124.562439" electricity_abs="0"/>
    </tripinfo>
    <tripinfo id="h5938c1:1" depart="57740.00" departLane="-26677542#0_1" departPos="5.10" departSpeed="0.00" departDelay="0.00" arrival="57861.00" arrivalLane="447569997#1_1" arrivalPos="180.93" arrivalSpeed="7.92" duration="121.00" routeLength="1093.64" waitingTime="4.00" waitingCount="2" stopTime="0.00" timeLoss="24.96" rerouteNo="1" devices="tripinfo_h5938c1:1 routing_h5938c1:1 emissions_h5938c1:1" vType="default_016" speedFactor="1.01" vaporized="">
        <emissions CO_abs="4461.937763" CO2_abs="264539.657654" HC_abs="26.440320" PMx_abs="4.257578" NOx_abs="105.518799" fuel_abs="113.715250" electricity_abs="0"/>
    </tripinfo>
    <tripinfo id="h8343c1:5" depart="57679.00" departLane="315358254#0_1" departPos="5.10" departSpeed="0.00" departDelay="0.60" arrival="57862.00" arrivalLane="-24634510#5_1" arrivalPos="236.88" arrivalSpeed="12.11" duration="183.00" routeLength="2056.84" waitingTime="24.00" waitingCount="2" stopTime="0.00" timeLoss="52.23" rerouteNo="1" devices="tripinfo_h8343c1:5 routing_h8343c1:5 emissions_h8343c1:5" vType="default_016" speedFactor="0.95" vaporized="">
        <emissions CO_abs="9648.396815" CO2_abs="566299.176355" HC_abs="57.385200" PMx_abs="10.747934" NOx_abs="233.109111" fuel_abs="243.427792" electricity_abs="0"/>
    </tripinfo>
    <tripinfo id="randUni31145:1" depart="57814.00" departLane="10425609#0_1" departPos="5.10" departSpeed="0.00" departDelay="0.30" arrival="57864.00" arrivalLane="201956810_1" arrivalPos="71.65" arrivalSpeed="15.39" duration="50.00" routeLength="255.78" waitingTime="21.00" waitingCount="1" stopTime="0.00" timeLoss="32.00" rerouteNo="1" devices="tripinfo_randUni31145:1 routing_randUni31145:1 emissions_randUni31145:1" vType="random_016" speedFactor="1.12" vaporized="">
        <emissions CO_abs="5064.577654" CO2_abs="167611.906994" HC_abs="27.034637" PMx_abs="3.551398" NOx_abs="72.760483" fuel_abs="72.050372" electricity_abs="0"/>
    </tripinfo>
    <tripinfo id="randUni2407:1" depart="57820.00" departLane="10425609#0_1" departPos="5.10" departSpeed="0.00" departDelay="0.80" arrival="57870.00" arrivalLane="201956810_1" arrivalPos="71.65" arrivalSpeed="11.47" duration="50.00" routeLength="255.78" waitingTime="15.00" waitingCount="1" stopTime="0.00" timeLoss="26.50" rerouteNo="1" devices="tripinfo_randUni2407:1 routing_randUni2407:1 emissions_randUni2407:1" vType="random_016" speedFactor="0.84" vaporized="">
        <emissions CO_abs="3781.646748" CO2_abs="129973.444363" HC_abs="20.269418" PMx_abs="2.582736" NOx_abs="55.490304" fuel_abs="55.871060" electricity_abs="0"/>
    </tripinfo>
    <tripinfo id="carIn46110:1" depart="57684.00" departLane="315358244_1" departPos="5.10" departSpeed="0.00" departDelay="1.20" arrival="57871.00" arrivalLane="32978638#0_1" arrivalPos="49.29" arrivalSpeed="13.54" duration="187.00" routeLength="1764.04" waitingTime="30.00" waitingCount="2" stopTime="0.00" timeLoss="60.51" rerouteNo="1" devices="tripinfo_carIn46110:1 routing_carIn46110:1 emissions_carIn46110:1" vType="default_016" speedFactor="1.01" vaporized="">
        <emissions CO_abs="9217.328608" CO2_abs="474409.797084" HC_abs="53.000771" PMx_abs="8.353281" NOx_abs="192.325532" fuel_abs="203.930302" electricity_abs="0"/>
    </tripinfo>
    <tripinfo id="h5170c2:1" depart="57631.00" departLane="201201953#4_1" departPos="5.10" departSpeed="0.00" departDelay="0.00" arrival="57874.00" arrivalLane="-266565295#5_1" arrivalPos="172.76" arrivalSpeed="15.01" duration="243.00" routeLength="3097.92" waitingTime="6.00" waitingCount="2" stopTime="0.00" timeLoss="43.36" rerouteNo="1" devices="tripinfo_h5170c2:1 routing_h5170c2:1 emissions_h5170c2:1" vType="default_016" speedFactor="1.14" vaporized="">
        <emissions CO_abs="8492.256970" CO2_abs="676494.497323" HC_abs="54.435608" PMx_abs="11.831834" NOx_abs="271.381028" fuel_abs="290.795011" electricity_abs="0"/>
    </tripinfo>
    <tripinfo id="h6541c1:3" depart="57727.00" departLane="201950247#3_1" departPos="5.10" departSpeed="0.00" departDelay="0.00" arrival="57877.00" arrivalLane="32978638#0_1" arrivalPos="49.29" arrivalSpeed="11.94" duration="150.00" routeLength="1176.17" waitingTime="11.00" waitingCount="1" stopTime="0.00" timeLoss="31.96" rerouteNo="1" devices="tripinfo_h6541c1:3 routing_h6541c1:3 emissions_h6541c1:3" vType="default_016" speedFactor="0.87" vaporized="">
        <emissions CO_abs="6589.258506" CO2_abs="323404.926808" HC_abs="37.468570" PMx_abs="5.296608" NOx_abs="130.260930" fuel_abs="139.019888" electricity_abs="0"/>
    </tripinfo>