<?xml version="1.0" encoding="UTF-8"?>

<!-- generated on 2021-10-26 13:58:50 by Eclipse SUMO sumo Version 1.10.0
<configuration xmlns:xsi="http://www.w3.org/2001/XMLSchema-instance" xsi:noNamespaceSchemaLocation="http://sumo.dlr.de/xsd/sumoConfiguration.xsd">

    <input>
        <net-file value="/Users/behradkoohy/sumo-scratchpad/RESCO/environments/ingolstadt21/ingolstadt21.net.xml"/>
        <route-files value="/Users/behradkoohy/sumo-scratchpad/RESCO/environments/ingolstadt21/ingolstadt21.rou.xml"/>
    </input>

    <output>
        <tripinfo-output value="/Users/behradkoohy/sumo-scratchpad/RESCO/logs/STOCHASTIC-tr0-ingolstadt21-21-mplight-wait/tripinfo_8.xml"/>
        <tripinfo-output.write-unfinished value="true"/>
    </output>

    <time>
        <begin value="57600"/>
        <end value="61200"/>
    </time>

    <processing>
        <time-to-teleport value="-1"/>
    </processing>

    <report>
        <no-warnings value="true"/>
        <no-step-log value="true"/>
    </report>

    <emissions>
        <device.emissions.probability value="1"/>
    </emissions>

    <traci_server>
        <remote-port value="59927"/>
    </traci_server>

    <random_number>
        <random value="true"/>
    </random_number>

</configuration>
-->

<tripinfos xmlns:xsi="http://www.w3.org/2001/XMLSchema-instance" xsi:noNamespaceSchemaLocation="http://sumo.dlr.de/xsd/tripinfo_file.xsd">
    <tripinfo id="h15454c2:3" depart="57612.00" departLane="24608844_1" departPos="5.10" departSpeed="0.00" departDelay="0.50" arrival="57650.00" arrivalLane="32978638#0_1" arrivalPos="49.29" arrivalSpeed="13.53" duration="38.00" routeLength="354.79" waitingTime="0.00" waitingCount="0" stopTime="0.00" timeLoss="5.10" rerouteNo="1" devices="tripinfo_h15454c2:3 routing_h15454c2:3 emissions_h15454c2:3" vType="default_016" speedFactor="1.05" vaporized="">
        <emissions CO_abs="1763.752644" CO2_abs="101820.706066" HC_abs="10.420971" PMx_abs="1.820470" NOx_abs="41.957278" fuel_abs="43.768483" electricity_abs="0"/>
    </tripinfo>
    <tripinfo id="carIn60260:1" depart="57606.00" departLane="315358254#0_1" departPos="5.10" departSpeed="0.00" departDelay="0.90" arrival="57656.00" arrivalLane="399835085#1_1" arrivalPos="212.23" arrivalSpeed="7.72" duration="50.00" routeLength="430.98" waitingTime="0.00" waitingCount="0" stopTime="0.00" timeLoss="6.37" rerouteNo="1" devices="tripinfo_carIn60260:1 routing_carIn60260:1 emissions_carIn60260:1" vType="default_016" speedFactor="1.07" vaporized="">
        <emissions CO_abs="2050.008466" CO2_abs="110555.874436" HC_abs="11.898386" PMx_abs="1.854965" NOx_abs="44.999462" fuel_abs="47.523646" electricity_abs="0"/>
    </tripinfo>
    <tripinfo id="carIn53971:1" depart="57640.00" departLane="272042143_1" departPos="5.10" departSpeed="0.00" departDelay="0.80" arrival="57697.00" arrivalLane="24634414#1_1" arrivalPos="162.19" arrivalSpeed="7.57" duration="57.00" routeLength="493.04" waitingTime="0.00" waitingCount="0" stopTime="0.00" timeLoss="7.82" rerouteNo="1" devices="tripinfo_carIn53971:1 routing_carIn53971:1 emissions_carIn53971:1" vType="default_016" speedFactor="0.93" vaporized="">
        <emissions CO_abs="2502.968661" CO2_abs="133921.397692" HC_abs="14.502816" PMx_abs="2.244975" NOx_abs="54.427449" fuel_abs="57.567597" electricity_abs="0"/>
    </tripinfo>
    <tripinfo id="carIn22761:1" depart="57616.00" departLane="-306240162#1_0" departPos="5.10" departSpeed="0.00" departDelay="2.10" arrival="57712.00" arrivalLane="399835085#1_1" arrivalPos="212.23" arrivalSpeed="8.12" duration="96.00" routeLength="1093.26" waitingTime="5.00" waitingCount="1" stopTime="0.00" timeLoss="22.63" rerouteNo="1" devices="tripinfo_carIn22761:1 routing_carIn22761:1 emissions_carIn22761:1" vType="default_016" speedFactor="1.06" vaporized="">
        <emissions CO_abs="4767.590292" CO2_abs="307347.891800" HC_abs="29.020851" PMx_abs="5.791089" NOx_abs="125.504627" fuel_abs="132.115451" electricity_abs="0"/>
    </tripinfo>
    <tripinfo id="h3688c1:1" depart="57625.00" departLane="201201950#1_1" departPos="5.10" departSpeed="0.00" departDelay="0.00" arrival="57719.00" arrivalLane="32978638#0_1" arrivalPos="49.29" arrivalSpeed="16.19" duration="94.00" routeLength="1089.75" waitingTime="12.00" waitingCount="1" stopTime="0.00" timeLoss="26.27" rerouteNo="1" devices="tripinfo_h3688c1:1 routing_h3688c1:1 emissions_h3688c1:1" vType="default_016" speedFactor="1.19" vaporized="">
        <emissions CO_abs="4752.924514" CO2_abs="298555.648400" HC_abs="28.571259" PMx_abs="5.597228" NOx_abs="122.602603" fuel_abs="128.336076" electricity_abs="0"/>
    </tripinfo>
    <tripinfo id="h7800c1:5" depart="57696.00" departLane="-447569998#1_1" departPos="5.10" departSpeed="0.00" departDelay="0.00" arrival="57720.00" arrivalLane="-447569998#1_2" arrivalPos="180.76" arrivalSpeed="8.50" duration="24.00" routeLength="175.66" waitingTime="0.00" waitingCount="0" stopTime="0.00" timeLoss="3.75" rerouteNo="1" devices="tripinfo_h7800c1:5 routing_h7800c1:5 emissions_h7800c1:5" vType="default_016" speedFactor="1.09" vaporized="">
        <emissions CO_abs="1114.258651" CO2_abs="50056.098447" HC_abs="6.225079" PMx_abs="0.827387" NOx_abs="20.382594" fuel_abs="21.517328" electricity_abs="0"/>
    </tripinfo>
    <tripinfo id="h317c2:1" depart="57707.00" departLane="-32978638#0_1" departPos="5.10" departSpeed="0.00" departDelay="0.10" arrival="57741.00" arrivalLane="-266565295#5_1" arrivalPos="172.76" arrivalSpeed="12.86" duration="34.00" routeLength="370.53" waitingTime="0.00" waitingCount="0" stopTime="0.00" timeLoss="6.54" rerouteNo="1" devices="tripinfo_h317c2:1 routing_h317c2:1 emissions_h317c2:1" vType="default_016" speedFactor="1.02" vaporized="">
        <emissions CO_abs="1514.599489" CO2_abs="108297.153132" HC_abs="9.397629" PMx_abs="1.786435" NOx_abs="43.128536" fuel_abs="46.552407" electricity_abs="0"/>
    </tripinfo>
    <tripinfo id="h3568c1:3" depart="57656.00" departLane="266565295#5_1" departPos="5.10" departSpeed="0.00" departDelay="0.80" arrival="57743.00" arrivalLane="-24634415_1" arrivalPos="62.03" arrivalSpeed="15.40" duration="87.00" routeLength="807.40" waitingTime="5.00" waitingCount="2" stopTime="0.00" timeLoss="28.67" rerouteNo="1" devices="tripinfo_h3568c1:3 routing_h3568c1:3 emissions_h3568c1:3" vType="default_016" speedFactor="1.12" vaporized="">
        <emissions CO_abs="5103.505366" CO2_abs="291335.589396" HC_abs="30.096059" PMx_abs="5.599924" NOx_abs="122.318590" fuel_abs="125.232509" electricity_abs="0"/>
    </tripinfo>
    <tripinfo id="carIn27009:1" depart="57673.00" departLane="-447569998#1_1" departPos="5.10" departSpeed="0.00" departDelay="0.50" arrival="57750.00" arrivalLane="-26677539_1" arrivalPos="152.75" arrivalSpeed="9.64" duration="77.00" routeLength="699.63" waitingTime="0.00" waitingCount="0" stopTime="0.00" timeLoss="9.98" rerouteNo="1" devices="tripinfo_carIn27009:1 routing_carIn27009:1 emissions_carIn27009:1" vType="default_015" speedFactor="1.25" vaporized="">
        <emissions CO_abs="2756.351198" CO2_abs="163340.409524" HC_abs="16.332316" PMx_abs="2.658098" NOx_abs="65.873916" fuel_abs="70.213554" electricity_abs="0"/>
    </tripinfo>
    <tripinfo id="carIn30817:1" depart="57681.00" departLane="315358244_1" departPos="5.10" departSpeed="0.00" departDelay="0.20" arrival="57755.00" arrivalLane="447569997#1_1" arrivalPos="180.93" arrivalSpeed="8.03" duration="74.00" routeLength="718.04" waitingTime="0.00" waitingCount="0" stopTime="0.00" timeLoss="11.50" rerouteNo="1" devices="tripinfo_carIn30817:1 routing_carIn30817:1 emissions_carIn30817:1" vType="default_016" speedFactor="0.98" vaporized="">
        <emissions CO_abs="2988.183271" CO2_abs="175788.848689" HC_abs="17.708207" PMx_abs="2.995851" NOx_abs="71.327404" fuel_abs="75.564501" electricity_abs="0"/>
    </tripinfo>
    <tripinfo id="h5979c1:5" depart="57669.00" departLane="399835085#1_1" departPos="5.10" departSpeed="0.00" departDelay="0.00" arrival="57762.00" arrivalLane="-315358254#1_1" arrivalPos="137.16" arrivalSpeed="12.85" duration="93.00" routeLength="659.33" waitingTime="4.00" waitingCount="1" stopTime="0.00" timeLoss="17.33" rerouteNo="1" devices="tripinfo_h5979c1:5 routing_h5979c1:5 emissions_h5979c1:5" vType="default_016" speedFactor="0.97" vaporized="">
        <emissions CO_abs="3717.401839" CO2_abs="173188.469959" HC_abs="20.932152" PMx_abs="2.948696" NOx_abs="71.026375" fuel_abs="74.447289" electricity_abs="0"/>
    </tripinfo>
    <tripinfo id="h7181c1:1" depart="57660.00" departLane="315358254#0_1" departPos="5.10" departSpeed="0.00" departDelay="0.10" arrival="57763.00" arrivalLane="306240162#0_0" arrivalPos="220.43" arrivalSpeed="13.76" duration="103.00" routeLength="932.35" waitingTime="26.00" waitingCount="2" stopTime="0.00" timeLoss="43.67" rerouteNo="1" devices="tripinfo_h7181c1:1 routing_h7181c1:1 emissions_h7181c1:1" vType="default_016" speedFactor="0.86" vaporized="">
        <emissions CO_abs="5869.815882" CO2_abs="272733.522100" HC_abs="33.165129" PMx_abs="5.152639" NOx_abs="112.407489" fuel_abs="117.237528" electricity_abs="0"/>
    </tripinfo>
    <tripinfo id="h4538c1:1" depart="57701.00" departLane="-10427692#1_1" departPos="5.10" departSpeed="0.00" departDelay="0.00" arrival="57768.00" arrivalLane="-128361102#1_1" arrivalPos="274.68" arrivalSpeed="12.23" duration="67.00" routeLength="440.74" waitingTime="22.00" waitingCount="1" stopTime="0.00" timeLoss="33.00" rerouteNo="1" devices="tripinfo_h4538c1:1 routing_h4538c1:1 emissions_h4538c1:1" vType="default_016" speedFactor="0.94" vaporized="">
        <emissions CO_abs="4541.929086" CO2_abs="154570.323533" HC_abs="24.299918" PMx_abs="2.996674" NOx_abs="65.030295" fuel_abs="66.444605" electricity_abs="0"/>
    </tripinfo>
    <tripinfo id="h3326c1:2" depart="57656.00" departLane="22716069#0_1" departPos="5.10" departSpeed="0.00" departDelay="0.00" arrival="57769.00" arrivalLane="24634517#13_1" arrivalPos="111.62" arrivalSpeed="13.21" duration="113.00" routeLength="1312.81" waitingTime="0.00" waitingCount="0" stopTime="0.00" timeLoss="15.00" rerouteNo="1" devices="tripinfo_h3326c1:2 routing_h3326c1:2 emissions_h3326c1:2" vType="default_016" speedFactor="0.99" vaporized="">
        <emissions CO_abs="3937.671605" CO2_abs="310788.277518" HC_abs="25.173381" PMx_abs="5.078052" NOx_abs="123.418477" fuel_abs="133.594594" electricity_abs="0"/>
    </tripinfo>
    <tripinfo id="h12244c1:3" depart="57612.00" departLane="315358244_1" departPos="5.10" departSpeed="0.00" departDelay="0.40" arrival="57773.00" arrivalLane="386687235_1" arrivalPos="80.84" arrivalSpeed="13.82" duration="161.00" routeLength="1186.14" waitingTime="55.00" waitingCount="3" stopTime="0.00" timeLoss="78.96" rerouteNo="1" devices="tripinfo_h12244c1:3 routing_h12244c1:3 emissions_h12244c1:3" vType="default_016" speedFactor="1.06" vaporized="">
        <emissions CO_abs="11062.323684" CO2_abs="403773.462440" HC_abs="59.879745" PMx_abs="7.986687" NOx_abs="170.104204" fuel_abs="173.567838" electricity_abs="0"/>
    </tripinfo>
    <tripinfo id="h9563c2:5" depart="57631.00" departLane="315358244_1" departPos="5.10" departSpeed="0.00" departDelay="0.70" arrival="57775.00" arrivalLane="386687235_1" arrivalPos="80.84" arrivalSpeed="13.85" duration="144.00" routeLength="1186.14" waitingTime="35.00" waitingCount="3" stopTime="0.00" timeLoss="59.36" rerouteNo="1" devices="tripinfo_h9563c2:5 routing_h9563c2:5 emissions_h9563c2:5" vType="default_016" speedFactor="1.02" vaporized="">
        <emissions CO_abs="8366.431309" CO2_abs="367930.677055" HC_abs="46.687904" PMx_abs="6.781292" NOx_abs="151.672305" fuel_abs="158.159600" electricity_abs="0"/>
    </tripinfo>
    <tripinfo id="h330c1:1" depart="57736.00" departLane="-32978638#0_1" departPos="5.10" departSpeed="0.00" departDelay="0.20" arrival="57776.00" arrivalLane="-266565295#5_1" arrivalPos="172.76" arrivalSpeed="12.39" duration="40.00" routeLength="370.53" waitingTime="1.00" waitingCount="1" stopTime="0.00" timeLoss="10.53" rerouteNo="1" devices="tripinfo_h330c1:1 routing_h330c1:1 emissions_h330c1:1" vType="default_016" speedFactor="0.94" vaporized="">
        <emissions CO_abs="1943.053784" CO2_abs="108554.870922" HC_abs="11.394216" PMx_abs="1.939719" NOx_abs="44.666105" fuel_abs="46.663282" electricity_abs="0"/>
    </tripinfo>
    <tripinfo id="S5R_frequency1.2" depart="57646.00" departLane="315358250#0_1" departPos="12.10" departSpeed="0.00" departDelay="34.40" arrival="57783.00" arrivalLane="386687235_1" arrivalPos="80.84" arrivalSpeed="13.52" duration="137.00" routeLength="1115.62" waitingTime="27.00" waitingCount="2" stopTime="0.00" timeLoss="55.19" rerouteNo="1" devices="tripinfo_S5R_frequency1.2 routing_S5R_frequency1.2 emissions_S5R_frequency1.2" vType="bus" speedFactor="1.00" vaporized="">
        <emissions CO_abs="2771.533623" CO2_abs="1573906.599327" HC_abs="589.196370" PMx_abs="293.119695" NOx_abs="12659.340252" fuel_abs="671.194024" electricity_abs="0"/>
    </tripinfo>
    <tripinfo id="carIn121703:1" depart="57647.00" departLane="386687232#0_1" departPos="5.10" departSpeed="0.00" departDelay="0.30" arrival="57784.00" arrivalLane="-315358244_1" arrivalPos="33.95" arrivalSpeed="13.63" duration="137.00" routeLength="1157.39" waitingTime="40.00" waitingCount="2" stopTime="0.00" timeLoss="56.46" rerouteNo="1" devices="tripinfo_carIn121703:1 routing_carIn121703:1 emissions_carIn121703:1" vType="default_016" speedFactor="1.05" vaporized="">
        <emissions CO_abs="9230.663747" CO2_abs="357807.088622" HC_abs="50.410292" PMx_abs="6.815262" NOx_abs="148.504382" fuel_abs="153.808494" electricity_abs="0"/>
    </tripinfo>
    <tripinfo id="carIn118591:1" depart="57689.00" departLane="315358244_1" departPos="5.10" departSpeed="0.00" departDelay="0.20" arrival="57786.00" arrivalLane="386687235_1" arrivalPos="80.84" arrivalSpeed="12.99" duration="97.00" routeLength="1186.14" waitingTime="0.00" waitingCount="0" stopTime="0.00" timeLoss="10.74" rerouteNo="1" devices="tripinfo_carIn118591:1 routing_carIn118591:1 emissions_carIn118591:1" vType="default_016" speedFactor="1.00" vaporized="">
        <emissions CO_abs="2819.358029" CO2_abs="237168.115453" HC_abs="18.360645" PMx_abs="3.733061" NOx_abs="92.828158" fuel_abs="101.948540" electricity_abs="0"/>
    </tripinfo>
    <tripinfo id="h3154c1:1" depart="57658.00" departLane="24634507_1" departPos="5.10" departSpeed="0.00" departDelay="0.00" arrival="57789.00" arrivalLane="-266565295#5_1" arrivalPos="172.76" arrivalSpeed="11.85" duration="131.00" routeLength="1206.22" waitingTime="10.00" waitingCount="1" stopTime="0.00" timeLoss="29.83" rerouteNo="1" devices="tripinfo_h3154c1:1 routing_h3154c1:1 emissions_h3154c1:1" vType="default_016" speedFactor="0.88" vaporized="">
        <emissions CO_abs="5071.418396" CO2_abs="297493.027944" HC_abs="30.032843" PMx_abs="5.064484" NOx_abs="120.639918" fuel_abs="127.880219" electricity_abs="0"/>
    </tripinfo>
    <tripinfo id="carIn129809:1" depart="57729.00" departLane="-447569998#1_1" departPos="5.10" departSpeed="0.00" departDelay="1.00" arrival="57807.00" arrivalLane="-315358244_1" arrivalPos="33.95" arrivalSpeed="14.04" duration="78.00" routeLength="706.49" waitingTime="8.00" waitingCount="1" stopTime="0.00" timeLoss="21.99" rerouteNo="1" devices="tripinfo_carIn129809:1 routing_carIn129809:1 emissions_carIn129809:1" vType="default_015" speedFactor="1.09" vaporized="">
        <emissions CO_abs="2944.242075" CO2_abs="169636.339519" HC_abs="17.363885" PMx_abs="3.017260" NOx_abs="69.264186" fuel_abs="72.919680" electricity_abs="0"/>
    </tripinfo>
    <tripinfo id="h16072c2:3" depart="57663.00" departLane="315358254#0_1" departPos="5.10" departSpeed="0.00" departDelay="2.50" arrival="57813.00" arrivalLane="386687235_2" arrivalPos="80.84" arrivalSpeed="11.47" duration="150.00" routeLength="1611.92" waitingTime="0.00" waitingCount="0" stopTime="0.00" timeLoss="15.42" rerouteNo="1" devices="tripinfo_h16072c2:3 routing_h16072c2:3 emissions_h16072c2:3" vType="default_016" speedFactor="0.87" vaporized="">
        <emissions CO_abs="4154.018890" CO2_abs="319964.008549" HC_abs="26.297784" PMx_abs="4.762063" NOx_abs="124.633620" fuel_abs="137.539591" electricity_abs="0"/>
    </tripinfo>
    <tripinfo id="carIn48184:1" depart="57613.00" departLane="-306240162#1_0" departPos="5.10" departSpeed="0.00" departDelay="0.70" arrival="57814.00" arrivalLane="386687235_1" arrivalPos="80.84" arrivalSpeed="12.37" duration="201.00" routeLength="2257.41" waitingTime="16.00" waitingCount="2" stopTime="0.00" timeLoss="41.93" rerouteNo="1" devices="tripinfo_carIn48184:1 routing_carIn48184:1 emissions_carIn48184:1" vType="default_016" speedFactor="0.93" vaporized="">
        <emissions CO_abs="7739.775825" CO2_abs="514646.198736" HC_abs="47.244244" PMx_abs="8.783707" NOx_abs="205.519276" fuel_abs="221.224994" electricity_abs="0"/>
    </tripinfo>
    <tripinfo id="h645c1:1" depart="57622.00" departLane="266565295#5_1" departPos="5.10" departSpeed="0.00" departDelay="0.40" arrival="57814.00" arrivalLane="-315358244_1" arrivalPos="33.95" arrivalSpeed="13.56" duration="192.00" routeLength="1910.83" waitingTime="35.00" waitingCount="3" stopTime="0.00" timeLoss="62.26" rerouteNo="1" devices="tripinfo_h645c1:1 routing_h645c1:1 emissions_h645c1:1" vType="default_016" speedFactor="1.07" vaporized="">
        <emissions CO_abs="9439.970136" CO2_abs="493649.504767" HC_abs="54.386952" PMx_abs="8.892404" NOx_abs="201.031789" fuel_abs="212.200285" electricity_abs="0"/>
    </tripinfo>
    <tripinfo id="carIn82278:1" depart="57702.00" departLane="-306240162#1_0" departPos="5.10" departSpeed="0.00" departDelay="0.70" arrival="57816.00" arrivalLane="399835085#1_1" arrivalPos="212.23" arrivalSpeed="7.48" duration="114.00" routeLength="1093.26" waitingTime="7.00" waitingCount="1" stopTime="0.00" timeLoss="29.65" rerouteNo="1" devices="tripinfo_carIn82278:1 routing_carIn82278:1 emissions_carIn82278:1" vType="default_016" speedFactor="0.93" vaporized="">
        <emissions CO_abs="5897.048325" CO2_abs="323251.447989" HC_abs="34.436989" PMx_abs="5.906064" NOx_abs="132.719699" fuel_abs="138.952531" electricity_abs="0"/>
    </tripinfo>
    <tripinfo id="carIn50326:1" depart="57651.00" departLane="128361102#0_1" departPos="5.10" departSpeed="0.00" departDelay="0.30" arrival="57817.00" arrivalLane="18809673#0_1" arrivalPos="473.56" arrivalSpeed="12.32" duration="166.00" routeLength="1591.07" waitingTime="7.00" waitingCount="1" stopTime="0.00" timeLoss="30.45" rerouteNo="1" devices="tripinfo_carIn50326:1 routing_carIn50326:1 emissions_carIn50326:1" vType="default_016" speedFactor="0.95" vaporized="">
        <emissions CO_abs="5322.261667" CO2_abs="353182.078232" HC_abs="32.403352" PMx_abs="5.488754" NOx_abs="139.254605" fuel_abs="151.818953" electricity_abs="0"/>
    </tripinfo>
    <tripinfo id="carIn12365:1" depart="57713.00" departLane="315358244_1" departPos="5.10" departSpeed="0.00" departDelay="0.50" arrival="57820.00" arrivalLane="447569997#1_1" arrivalPos="180.93" arrivalSpeed="6.65" duration="107.00" routeLength="718.04" waitingTime="17.00" waitingCount="1" stopTime="0.00" timeLoss="30.01" rerouteNo="1" devices="tripinfo_carIn12365:1 routing_carIn12365:1 emissions_carIn12365:1" vType="default_016" speedFactor="0.80" vaporized="">
        <emissions CO_abs="5663.013491" CO2_abs="213629.528285" HC_abs="30.705087" PMx_abs="3.666038" NOx_abs="87.413197" fuel_abs="91.832316" electricity_abs="0"/>
    </tripinfo>
    <tripinfo id="h11737c1:1" depart="57665.00" departLane="272042143_1" departPos="5.10" departSpeed="0.00" departDelay="1.50" arrival="57821.00" arrivalLane="-315358254#1_1" arrivalPos="137.16" arrivalSpeed="12.08" duration="156.00" routeLength="1596.88" waitingTime="8.00" waitingCount="1" stopTime="0.00" timeLoss="24.92" rerouteNo="1" devices="tripinfo_h11737c1:1 routing_h11737c1:1 emissions_h11737c1:1" vType="default_016" speedFactor="0.89" vaporized="">
        <emissions CO_abs="5121.175086" CO2_abs="345139.073821" HC_abs="31.304403" PMx_abs="5.347189" NOx_abs="135.746537" fuel_abs="148.361565" electricity_abs="0"/>
    </tripinfo>
    <tripinfo id="h5216c1:1" depart="57664.00" departLane="224892339#0_1" departPos="5.10" departSpeed="0.00" departDelay="0.00" arrival="57821.00" arrivalLane="386687235_1" arrivalPos="80.84" arrivalSpeed="15.80" duration="157.00" routeLength="1823.78" waitingTime="18.00" waitingCount="1" stopTime="0.00" timeLoss="44.72" rerouteNo="1" devices="tripinfo_h5216c1:1 routing_h5216c1:1 emissions_h5216c1:1" vType="default_016" speedFactor="1.14" vaporized="">
        <emissions CO_abs="7276.131568" CO2_abs="448179.379655" HC_abs="43.597006" PMx_abs="8.093745" NOx_abs="181.514546" fuel_abs="192.653476" electricity_abs="0"/>
    </tripinfo>
    <tripinfo id="carIn107282:1" depart="57749.00" departLane="-447569998#1_1" departPos="5.10" departSpeed="0.00" departDelay="0.00" arrival="57821.00" arrivalLane="315358242#0_1" arrivalPos="165.37" arrivalSpeed="10.96" duration="72.00" routeLength="448.50" waitingTime="10.00" waitingCount="1" stopTime="0.00" timeLoss="18.98" rerouteNo="1" devices="tripinfo_carIn107282:1 routing_carIn107282:1 emissions_carIn107282:1" vType="default_016" speedFactor="0.79" vaporized="">
        <emissions CO_abs="3257.985561" CO2_abs="137409.917615" HC_abs="17.993815" PMx_abs="2.280329" NOx_abs="55.848093" fuel_abs="59.067786" electricity_abs="0"/>
    </tripinfo>
    <tripinfo id="carIn126288:1" depart="57674.00" departLane="272042143_1" departPos="5.10" departSpeed="0.00" departDelay="0.00" arrival="57823.00" arrivalLane="-315358254#1_1" arrivalPos="137.16" arrivalSpeed="15.59" duration="149.00" routeLength="1596.88" waitingTime="8.00" waitingCount="1" stopTime="0.00" timeLoss="44.97" rerouteNo="1" devices="tripinfo_carIn126288:1 routing_carIn126288:1 emissions_carIn126288:1" vType="default_016" speedFactor="1.12" vaporized="">
        <emissions CO_abs="5684.037144" CO2_abs="393901.656734" HC_abs="35.037560" PMx_abs="6.733156" NOx_abs="158.675496" fuel_abs="169.321577" electricity_abs="0"/>
    </tripinfo>
    <tripinfo id="carIn12858:1" depart="57661.00" departLane="128361109#1_1" departPos="5.10" departSpeed="0.00" departDelay="0.90" arrival="57827.00" arrivalLane="399835085#1_1" arrivalPos="212.23" arrivalSpeed="6.99" duration="166.00" routeLength="1738.12" waitingTime="7.00" waitingCount="2" stopTime="0.00" timeLoss="40.96" rerouteNo="1" devices="tripinfo_carIn12858:1 routing_carIn12858:1 emissions_carIn12858:1" vType="default_016" speedFactor="0.92" vaporized="">
        <emissions CO_abs="7500.983193" CO2_abs="475025.720489" HC_abs="45.344242" PMx_abs="8.699390" NOx_abs="193.600113" fuel_abs="204.193193" electricity_abs="0"/>
    </tripinfo>
    <tripinfo id="h9953c2:3" depart="57682.00" departLane="-54169231#2_1" departPos="5.10" departSpeed="0.00" departDelay="0.00" arrival="57828.00" arrivalLane="386687235_1" arrivalPos="80.84" arrivalSpeed="13.10" duration="146.00" routeLength="1535.60" waitingTime="0.00" waitingCount="0" stopTime="0.00" timeLoss="23.67" rerouteNo="1" devices="tripinfo_h9953c2:3 routing_h9953c2:3 emissions_h9953c2:3" vType="default_016" speedFactor="1.03" vaporized="">
        <emissions CO_abs="5295.345730" CO2_abs="354744.358911" HC_abs="32.337573" PMx_abs="5.915696" NOx_abs="142.309205" fuel_abs="152.489862" electricity_abs="0"/>
    </tripinfo>
    <tripinfo id="carIn46110:1" depart="57684.00" departLane="315358244_1" departPos="5.10" departSpeed="0.00" departDelay="1.20" arrival="57835.00" arrivalLane="32978638#0_1" arrivalPos="49.29" arrivalSpeed="15.06" duration="151.00" routeLength="1764.04" waitingTime="3.00" waitingCount="2" stopTime="0.00" timeLoss="35.13" rerouteNo="1" devices="tripinfo_carIn46110:1 routing_carIn46110:1 emissions_carIn46110:1" vType="default_016" speedFactor="1.11" vaporized="">
        <emissions CO_abs="4811.016762" CO2_abs="374709.779804" HC_abs="30.543781" PMx_abs="6.111743" NOx_abs="148.198990" fuel_abs="161.071823" electricity_abs="0"/>
    </tripinfo>
    <tripinfo id="randUni31145:1" depart="57814.00" departLane="10425609#0_1" departPos="5.10" departSpeed="0.00" departDelay="0.30" arrival="57837.00" arrivalLane="201956810_1" arrivalPos="71.65" arrivalSpeed="15.23" duration="23.00" routeLength="255.78" waitingTime="0.00" waitingCount="0" stopTime="0.00" timeLoss="5.26" rerouteNo="1" devices="tripinfo_randUni31145:1 routing_randUni31145:1 emissions_randUni31145:1" vType="random_016" speedFactor="1.11" vaporized="">
        <emissions CO_abs="1545.046723" CO2_abs="97652.156068" HC_abs="9.349624" PMx_abs="1.823951" NOx_abs="40.556101" fuel_abs="41.976372" electricity_abs="0"/>
    </tripinfo>
    <tripinfo id="carIn8642:1" depart="57774.00" departLane="-447569998#1_1" departPos="5.10" departSpeed="0.00" departDelay="0.90" arrival="57843.00" arrivalLane="-315358244_1" arrivalPos="33.95" arrivalSpeed="14.53" duration="69.00" routeLength="706.49" waitingTime="2.00" waitingCount="1" stopTime="0.00" timeLoss="13.56" rerouteNo="1" devices="tripinfo_carIn8642:1 routing_carIn8642:1 emissions_carIn8642:1" vType="default_016" speedFactor="1.10" vaporized="">
        <emissions CO_abs="2880.372424" CO2_abs="180222.839418" HC_abs="17.323317" PMx_abs="3.176788" NOx_abs="73.403101" fuel_abs="77.470213" electricity_abs="0"/>
    </tripinfo>
    <tripinfo id="carIn86816:1" depart="57617.00" departLane="128361102#0_1" departPos="5.10" departSpeed="0.00" departDelay="0.80" arrival="57851.00" arrivalLane="201956811#0_1" arrivalPos="40.40" arrivalSpeed="11.45" duration="234.00" routeLength="2067.33" waitingTime="34.00" waitingCount="3" stopTime="0.00" timeLoss="65.97" rerouteNo="1" devices="tripinfo_carIn86816:1 routing_carIn86816:1 emissions_carIn86816:1" vType="default_016" speedFactor="0.90" vaporized="">
        <emissions CO_abs="10198.761518" CO2_abs="513818.125146" HC_abs="58.403868" PMx_abs="8.815151" NOx_abs="208.273932" fuel_abs="220.870811" electricity_abs="0"/>
    </tripinfo>
    <tripinfo id="carIn102915:1" depart="57643.00" departLane="128361102#0_1" departPos="5.10" departSpeed="0.00" departDelay="0.40" arrival="57853.00" arrivalLane="201956811#0_1" arrivalPos="40.40" arrivalSpeed="11.32" duration="210.00" routeLength="2067.33" waitingTime="14.00" waitingCount="2" stopTime="0.00" timeLoss="43.24" rerouteNo="1" devices="tripinfo_carIn102915:1 routing_carIn102915:1 emissions_carIn102915:1" vType="default_016" speedFactor="0.90" vaporized="">
        <emissions CO_abs="7083.047114" CO2_abs="450362.565861" HC_abs="42.744679" PMx_abs="7.442330" NOx_abs="180.467362" fuel_abs="193.592559" electricity_abs="0"/>
    </tripinfo>
    <tripinfo id="randUni2407:1" depart="57820.00" departLane="10425609#0_1" departPos="5.10" departSpeed="0.00" departDelay="0.80" arrival="57854.00" arrivalLane="201956810_1" arrivalPos="71.65" arrivalSpeed="13.57" duration="34.00" routeLength="255.78" waitingTime="3.00" waitingCount="1" stopTime="0.00" timeLoss="14.97" rerouteNo="1" devices="tripinfo_randUni2407:1 routing_randUni2407:1 emissions_randUni2407:1" vType="random_016" speedFactor="1.02" vaporized="">
        <emissions CO_abs="2222.279168" CO2_abs="112855.916258" HC_abs="12.794763" PMx_abs="2.211280" NOx_abs="47.904451" fuel_abs="48.511978" electricity_abs="0"/>
    </tripinfo>
    <tripinfo id="h8343c1:5" depart="57679.00" departLane="315358254#0_1" departPos="5.10" departSpeed="0.00" departDelay="0.60" arrival="57857.00" arrivalLane="-24634510#5_1" arrivalPos="236.88" arrivalSpeed="14.11" duration="178.00" routeLength="2056.84" waitingTime="23.00" waitingCount="3" stopTime="0.00" timeLoss="57.20" rerouteNo="1" devices="tripinfo_h8343c1:5 routing_h8343c1:5 emissions_h8343c1:5" vType="default_016" speedFactor="1.03" vaporized="">
        <emissions CO_abs="9466.257272" CO2_abs="585022.190279" HC_abs="57.091432" PMx_abs="11.314467" NOx_abs="240.824876" fuel_abs="251.475407" electricity_abs="0"/>
    </tripinfo>
    <tripinfo id="h6541c1:3" depart="57727.00" departLane="201950247#3_1" departPos="5.10" departSpeed="0.00" departDelay="0.00" arrival="57864.00" arrivalLane="32978638#0_1" arrivalPos="49.29" arrivalSpeed="12.59" duration="137.00" routeLength="1176.17" waitingTime="14.00" waitingCount="1" stopTime="0.00" timeLoss="34.66" rerouteNo="1" devices="tripinfo_h6541c1:3 routing_h6541c1:3 emissions_h6541c1:3" vType="default_016" speedFactor="1.00" vaporized="">
        <emissions CO_abs="6138.001126" CO2_abs="309096.197019" HC_abs="35.119158" PMx_abs="5.330726" NOx_abs="125.658396" fuel_abs="132.868599" electricity_abs="0"/>
    </tripinfo>
    <tripinfo id="h5938c1:1" depart="57740.00" departLane="-26677542#0_1" departPos="5.10" departSpeed="0.00" departDelay="0.00" arrival="57870.00" arrivalLane="447569997#1_1" arrivalPos="180.93" arrivalSpeed="8.28" duration="130.00" routeLength="1093.64" waitingTime="27.00" waitingCount="1" stopTime="0.00" timeLoss="39.51" rerouteNo="1" devices="tripinfo_h5938c1:1 routing_h5938c1:1 emissions_h5938c1:1" vType="default_016" speedFactor="1.07" vaporized="">
        <emissions CO_abs="7282.463322" CO2_abs="310070.288129" HC_abs="40.343028" PMx_abs="5.537824" NOx_abs="126.578606" fuel_abs="133.288064" electricity_abs="0"/>
    </tripinfo>
    <tripinfo id="carIn80064:1" depart="57603.00" departLane="128361109#1_1" departPos="5.10" departSpeed="0.00" departDelay="0.40" arrival="57877.00" arrivalLane="-315358254#1_1" arrivalPos="137.16" arrivalSpeed="15.50" duration="274.00" routeLength="1587.97" waitingTime="153.00" waitingCount="4" stopTime="0.00" timeLoss="194.39" rerouteNo="1" devices="tripinfo_carIn80064:1 routing_carIn80064:1 emissions_carIn80064:1" vType="default_016" speedFactor="1.13" vaporized="">
        <emissions CO_abs="30161.421642" CO2_abs="881608.098294" HC_abs="158.345498" PMx_abs="19.572682" NOx_abs="383.001924" fuel_abs="378.974045" electricity_abs="0"/>
    </tripinfo>