<?xml version="1.0" encoding="UTF-8"?>

<!-- generated on 2021-10-26 14:00:34 by Eclipse SUMO sumo Version 1.10.0
<configuration xmlns:xsi="http://www.w3.org/2001/XMLSchema-instance" xsi:noNamespaceSchemaLocation="http://sumo.dlr.de/xsd/sumoConfiguration.xsd">

    <input>
        <net-file value="/Users/behradkoohy/sumo-scratchpad/RESCO/environments/ingolstadt21/ingolstadt21.net.xml"/>
        <route-files value="/Users/behradkoohy/sumo-scratchpad/RESCO/environments/ingolstadt21/ingolstadt21.rou.xml"/>
    </input>

    <output>
        <tripinfo-output value="/Users/behradkoohy/sumo-scratchpad/RESCO/logs/STOCHASTIC-tr0-ingolstadt21-21-mplight-wait/tripinfo_11.xml"/>
        <tripinfo-output.write-unfinished value="true"/>
    </output>

    <time>
        <begin value="57600"/>
        <end value="61200"/>
    </time>

    <processing>
        <time-to-teleport value="-1"/>
    </processing>

    <report>
        <no-warnings value="true"/>
        <no-step-log value="true"/>
    </report>

    <emissions>
        <device.emissions.probability value="1"/>
    </emissions>

    <traci_server>
        <remote-port value="59945"/>
    </traci_server>

    <random_number>
        <random value="true"/>
    </random_number>

</configuration>
-->

<tripinfos xmlns:xsi="http://www.w3.org/2001/XMLSchema-instance" xsi:noNamespaceSchemaLocation="http://sumo.dlr.de/xsd/tripinfo_file.xsd">
    <tripinfo id="h15454c2:3" depart="57612.00" departLane="24608844_1" departPos="5.10" departSpeed="0.00" departDelay="0.50" arrival="57643.00" arrivalLane="32978638#0_1" arrivalPos="49.29" arrivalSpeed="17.90" duration="31.00" routeLength="354.79" waitingTime="0.00" waitingCount="0" stopTime="0.00" timeLoss="5.07" rerouteNo="1" devices="tripinfo_h15454c2:3 routing_h15454c2:3 emissions_h15454c2:3" vType="default_016" speedFactor="1.33" vaporized="">
        <emissions CO_abs="1870.044614" CO2_abs="122265.973935" HC_abs="11.402609" PMx_abs="2.251021" NOx_abs="50.231229" fuel_abs="52.556799" electricity_abs="0"/>
    </tripinfo>
    <tripinfo id="carIn60260:1" depart="57606.00" departLane="315358254#0_1" departPos="5.10" departSpeed="0.00" departDelay="0.90" arrival="57652.00" arrivalLane="399835085#1_1" arrivalPos="212.23" arrivalSpeed="8.41" duration="46.00" routeLength="430.98" waitingTime="0.00" waitingCount="0" stopTime="0.00" timeLoss="6.52" rerouteNo="1" devices="tripinfo_carIn60260:1 routing_carIn60260:1 emissions_carIn60260:1" vType="default_016" speedFactor="1.16" vaporized="">
        <emissions CO_abs="1871.829880" CO2_abs="113163.087332" HC_abs="11.131050" PMx_abs="1.865859" NOx_abs="45.515640" fuel_abs="48.644271" electricity_abs="0"/>
    </tripinfo>
    <tripinfo id="carIn53971:1" depart="57640.00" departLane="272042143_1" departPos="5.10" departSpeed="0.00" departDelay="0.80" arrival="57695.00" arrivalLane="24634414#1_1" arrivalPos="162.19" arrivalSpeed="7.51" duration="55.00" routeLength="493.04" waitingTime="0.00" waitingCount="0" stopTime="0.00" timeLoss="9.45" rerouteNo="1" devices="tripinfo_carIn53971:1 routing_carIn53971:1 emissions_carIn53971:1" vType="default_016" speedFactor="1.00" vaporized="">
        <emissions CO_abs="2401.265289" CO2_abs="136356.688524" HC_abs="14.114116" PMx_abs="2.342835" NOx_abs="55.625183" fuel_abs="58.614238" electricity_abs="0"/>
    </tripinfo>
    <tripinfo id="h7800c1:5" depart="57696.00" departLane="-447569998#1_1" departPos="5.10" departSpeed="0.00" departDelay="0.00" arrival="57721.00" arrivalLane="-447569998#1_1" arrivalPos="180.76" arrivalSpeed="7.81" duration="25.00" routeLength="175.66" waitingTime="0.00" waitingCount="0" stopTime="0.00" timeLoss="2.67" rerouteNo="1" devices="tripinfo_h7800c1:5 routing_h7800c1:5 emissions_h7800c1:5" vType="default_016" speedFactor="0.95" vaporized="">
        <emissions CO_abs="1163.549535" CO2_abs="49358.729966" HC_abs="6.418412" PMx_abs="0.752839" NOx_abs="19.753071" fuel_abs="21.217699" electricity_abs="0"/>
    </tripinfo>
    <tripinfo id="h3688c1:1" depart="57625.00" departLane="201201950#1_1" departPos="5.10" departSpeed="0.00" departDelay="0.00" arrival="57726.00" arrivalLane="32978638#0_1" arrivalPos="49.29" arrivalSpeed="11.39" duration="101.00" routeLength="1089.75" waitingTime="0.00" waitingCount="0" stopTime="0.00" timeLoss="11.25" rerouteNo="1" devices="tripinfo_h3688c1:1 routing_h3688c1:1 emissions_h3688c1:1" vType="default_016" speedFactor="0.89" vaporized="">
        <emissions CO_abs="3124.143550" CO2_abs="229381.635049" HC_abs="19.554069" PMx_abs="3.628906" NOx_abs="90.818181" fuel_abs="98.601679" electricity_abs="0"/>
    </tripinfo>
    <tripinfo id="h12244c1:3" depart="57612.00" departLane="315358244_1" departPos="5.10" departSpeed="0.00" departDelay="0.40" arrival="57727.00" arrivalLane="386687235_1" arrivalPos="80.84" arrivalSpeed="14.21" duration="115.00" routeLength="1186.14" waitingTime="16.00" waitingCount="1" stopTime="0.00" timeLoss="32.22" rerouteNo="1" devices="tripinfo_h12244c1:3 routing_h12244c1:3 emissions_h12244c1:3" vType="default_016" speedFactor="1.05" vaporized="">
        <emissions CO_abs="5579.124692" CO2_abs="306380.752602" HC_abs="32.571629" PMx_abs="5.374180" NOx_abs="123.969406" fuel_abs="131.700887" electricity_abs="0"/>
    </tripinfo>
    <tripinfo id="h7181c1:1" depart="57660.00" departLane="315358254#0_1" departPos="5.10" departSpeed="0.00" departDelay="0.10" arrival="57731.00" arrivalLane="306240162#0_0" arrivalPos="220.43" arrivalSpeed="16.96" duration="71.00" routeLength="932.35" waitingTime="6.00" waitingCount="1" stopTime="0.00" timeLoss="22.03" rerouteNo="1" devices="tripinfo_h7181c1:1 routing_h7181c1:1 emissions_h7181c1:1" vType="default_016" speedFactor="1.05" vaporized="">
        <emissions CO_abs="4006.297337" CO2_abs="271436.223313" HC_abs="24.640409" PMx_abs="5.306787" NOx_abs="111.656943" fuel_abs="116.678146" electricity_abs="0"/>
    </tripinfo>
    <tripinfo id="h4538c1:1" depart="57701.00" departLane="-10427692#1_1" departPos="5.10" departSpeed="0.00" departDelay="0.00" arrival="57736.00" arrivalLane="-128361102#1_1" arrivalPos="274.68" arrivalSpeed="14.67" duration="35.00" routeLength="440.74" waitingTime="0.00" waitingCount="0" stopTime="0.00" timeLoss="6.20" rerouteNo="1" devices="tripinfo_h4538c1:1 routing_h4538c1:1 emissions_h4538c1:1" vType="default_016" speedFactor="1.10" vaporized="">
        <emissions CO_abs="1506.772934" CO2_abs="106341.287275" HC_abs="9.367440" PMx_abs="1.857730" NOx_abs="42.964287" fuel_abs="45.711532" electricity_abs="0"/>
    </tripinfo>
    <tripinfo id="carIn22761:1" depart="57616.00" departLane="-306240162#1_0" departPos="5.10" departSpeed="0.00" departDelay="2.10" arrival="57743.00" arrivalLane="399835085#1_1" arrivalPos="212.23" arrivalSpeed="7.27" duration="127.00" routeLength="1093.26" waitingTime="31.00" waitingCount="1" stopTime="0.00" timeLoss="50.55" rerouteNo="1" devices="tripinfo_carIn22761:1 routing_carIn22761:1 emissions_carIn22761:1" vType="default_016" speedFactor="1.02" vaporized="">
        <emissions CO_abs="9490.230050" CO2_abs="405951.725582" HC_abs="52.841979" PMx_abs="8.047717" NOx_abs="169.866012" fuel_abs="174.502904" electricity_abs="0"/>
    </tripinfo>
    <tripinfo id="h317c2:1" depart="57707.00" departLane="-32978638#0_1" departPos="5.10" departSpeed="0.00" departDelay="0.10" arrival="57744.00" arrivalLane="-266565295#5_1" arrivalPos="172.76" arrivalSpeed="14.45" duration="37.00" routeLength="370.53" waitingTime="0.00" waitingCount="0" stopTime="0.00" timeLoss="11.38" rerouteNo="1" devices="tripinfo_h317c2:1 routing_h317c2:1 emissions_h317c2:1" vType="default_016" speedFactor="1.07" vaporized="">
        <emissions CO_abs="2133.410867" CO2_abs="131668.824673" HC_abs="12.771865" PMx_abs="2.369648" NOx_abs="53.837277" fuel_abs="56.598842" electricity_abs="0"/>
    </tripinfo>
    <tripinfo id="h3568c1:3" depart="57656.00" departLane="266565295#5_1" departPos="5.10" departSpeed="0.00" departDelay="0.80" arrival="57758.00" arrivalLane="-24634415_1" arrivalPos="62.03" arrivalSpeed="12.71" duration="102.00" routeLength="807.40" waitingTime="16.00" waitingCount="1" stopTime="0.00" timeLoss="32.66" rerouteNo="1" devices="tripinfo_h3568c1:3 routing_h3568c1:3 emissions_h3568c1:3" vType="default_016" speedFactor="0.94" vaporized="">
        <emissions CO_abs="6108.615700" CO2_abs="274686.135066" HC_abs="34.242853" PMx_abs="5.016597" NOx_abs="113.746431" fuel_abs="118.077142" electricity_abs="0"/>
    </tripinfo>
    <tripinfo id="h3326c1:2" depart="57656.00" departLane="22716069#0_1" departPos="5.10" departSpeed="0.00" departDelay="0.00" arrival="57765.00" arrivalLane="24634517#13_1" arrivalPos="111.62" arrivalSpeed="15.25" duration="109.00" routeLength="1312.81" waitingTime="4.00" waitingCount="1" stopTime="0.00" timeLoss="22.24" rerouteNo="1" devices="tripinfo_h3326c1:2 routing_h3326c1:2 emissions_h3326c1:2" vType="default_016" speedFactor="1.13" vaporized="">
        <emissions CO_abs="4515.049312" CO2_abs="340950.381030" HC_abs="28.501157" PMx_abs="5.997995" NOx_abs="137.443556" fuel_abs="146.559564" electricity_abs="0"/>
    </tripinfo>
    <tripinfo id="S5R_frequency1.2" depart="57624.00" departLane="315358250#0_1" departPos="12.10" departSpeed="0.00" departDelay="12.40" arrival="57767.00" arrivalLane="386687235_1" arrivalPos="80.84" arrivalSpeed="13.01" duration="143.00" routeLength="1115.62" waitingTime="28.00" waitingCount="2" stopTime="0.00" timeLoss="61.29" rerouteNo="1" devices="tripinfo_S5R_frequency1.2 routing_S5R_frequency1.2 emissions_S5R_frequency1.2" vType="bus" speedFactor="1.00" vaporized="">
        <emissions CO_abs="2787.043266" CO2_abs="1555493.439548" HC_abs="587.147655" PMx_abs="293.696059" NOx_abs="12601.416210" fuel_abs="663.324191" electricity_abs="0"/>
    </tripinfo>
    <tripinfo id="carIn27009:1" depart="57673.00" departLane="-447569998#1_1" departPos="5.10" departSpeed="0.00" departDelay="0.50" arrival="57771.00" arrivalLane="-26677539_1" arrivalPos="152.75" arrivalSpeed="8.61" duration="98.00" routeLength="699.63" waitingTime="3.00" waitingCount="1" stopTime="0.00" timeLoss="17.20" rerouteNo="1" devices="tripinfo_carIn27009:1 routing_carIn27009:1 emissions_carIn27009:1" vType="default_015" speedFactor="1.04" vaporized="">
        <emissions CO_abs="3760.628965" CO2_abs="179178.682895" HC_abs="21.245201" PMx_abs="2.931163" NOx_abs="72.833807" fuel_abs="77.022356" electricity_abs="0"/>
    </tripinfo>
    <tripinfo id="h3154c1:1" depart="57658.00" departLane="24634507_1" departPos="5.10" departSpeed="0.00" departDelay="0.00" arrival="57777.00" arrivalLane="-266565295#5_1" arrivalPos="172.76" arrivalSpeed="12.75" duration="119.00" routeLength="1206.22" waitingTime="5.00" waitingCount="2" stopTime="0.00" timeLoss="29.13" rerouteNo="1" devices="tripinfo_h3154c1:1 routing_h3154c1:1 emissions_h3154c1:1" vType="default_016" speedFactor="0.99" vaporized="">
        <emissions CO_abs="4902.766252" CO2_abs="329751.796048" HC_abs="30.043222" PMx_abs="5.656983" NOx_abs="133.315366" fuel_abs="141.746346" electricity_abs="0"/>
    </tripinfo>
    <tripinfo id="carIn30817:1" depart="57681.00" departLane="315358244_1" departPos="5.10" departSpeed="0.00" departDelay="0.20" arrival="57780.00" arrivalLane="447569997#1_1" arrivalPos="180.93" arrivalSpeed="8.07" duration="99.00" routeLength="718.04" waitingTime="29.00" waitingCount="1" stopTime="0.00" timeLoss="41.93" rerouteNo="1" devices="tripinfo_carIn30817:1 routing_carIn30817:1 emissions_carIn30817:1" vType="default_016" speedFactor="1.08" vaporized="">
        <emissions CO_abs="6346.510123" CO2_abs="236342.118982" HC_abs="34.335009" PMx_abs="4.336643" NOx_abs="97.269306" fuel_abs="101.595469" electricity_abs="0"/>
    </tripinfo>
    <tripinfo id="h9563c2:5" depart="57631.00" departLane="315358244_1" departPos="5.10" departSpeed="0.00" departDelay="0.70" arrival="57783.00" arrivalLane="386687235_1" arrivalPos="80.84" arrivalSpeed="12.83" duration="152.00" routeLength="1186.14" waitingTime="41.00" waitingCount="2" stopTime="0.00" timeLoss="61.65" rerouteNo="1" devices="tripinfo_h9563c2:5 routing_h9563c2:5 emissions_h9563c2:5" vType="default_016" speedFactor="0.95" vaporized="">
        <emissions CO_abs="10282.296618" CO2_abs="404413.072387" HC_abs="56.285851" PMx_abs="7.540600" NOx_abs="167.594791" fuel_abs="173.842785" electricity_abs="0"/>
    </tripinfo>
    <tripinfo id="carIn12365:1" depart="57713.00" departLane="315358244_1" departPos="5.10" departSpeed="0.00" departDelay="0.50" arrival="57786.00" arrivalLane="447569997#1_1" arrivalPos="180.93" arrivalSpeed="8.41" duration="73.00" routeLength="718.04" waitingTime="0.00" waitingCount="0" stopTime="0.00" timeLoss="14.33" rerouteNo="1" devices="tripinfo_carIn12365:1 routing_carIn12365:1 emissions_carIn12365:1" vType="default_016" speedFactor="1.06" vaporized="">
        <emissions CO_abs="2889.016728" CO2_abs="178458.764297" HC_abs="17.289772" PMx_abs="3.023781" NOx_abs="72.153177" fuel_abs="76.712102" electricity_abs="0"/>
    </tripinfo>
    <tripinfo id="carIn86816:1" depart="57617.00" departLane="128361102#0_1" departPos="5.10" departSpeed="0.00" departDelay="0.80" arrival="57791.00" arrivalLane="201956811#0_1" arrivalPos="40.40" arrivalSpeed="14.29" duration="174.00" routeLength="2067.33" waitingTime="10.00" waitingCount="1" stopTime="0.00" timeLoss="30.80" rerouteNo="1" devices="tripinfo_carIn86816:1 routing_carIn86816:1 emissions_carIn86816:1" vType="default_016" speedFactor="1.05" vaporized="">
        <emissions CO_abs="5842.091505" CO2_abs="450888.916037" HC_abs="36.984789" PMx_abs="7.416845" NOx_abs="178.125913" fuel_abs="193.818006" electricity_abs="0"/>
    </tripinfo>
    <tripinfo id="h330c1:1" depart="57736.00" departLane="-32978638#0_1" departPos="5.10" departSpeed="0.00" departDelay="0.20" arrival="57794.00" arrivalLane="-266565295#5_1" arrivalPos="172.76" arrivalSpeed="13.07" duration="58.00" routeLength="370.53" waitingTime="22.00" waitingCount="1" stopTime="0.00" timeLoss="31.15" rerouteNo="1" devices="tripinfo_h330c1:1 routing_h330c1:1 emissions_h330c1:1" vType="default_016" speedFactor="1.01" vaporized="">
        <emissions CO_abs="5083.669877" CO2_abs="169381.265662" HC_abs="27.126336" PMx_abs="3.424171" NOx_abs="72.105499" fuel_abs="72.811213" electricity_abs="0"/>
    </tripinfo>
    <tripinfo id="carIn80064:1" depart="57603.00" departLane="128361109#1_1" departPos="5.10" departSpeed="0.00" departDelay="0.40" arrival="57798.00" arrivalLane="-315358254#1_1" arrivalPos="137.16" arrivalSpeed="13.53" duration="195.00" routeLength="1587.97" waitingTime="65.00" waitingCount="4" stopTime="0.00" timeLoss="105.00" rerouteNo="1" devices="tripinfo_carIn80064:1 routing_carIn80064:1 emissions_carIn80064:1" vType="default_016" speedFactor="1.00" vaporized="">
        <emissions CO_abs="15327.686988" CO2_abs="600524.276462" HC_abs="84.079072" PMx_abs="12.330631" NOx_abs="253.709614" fuel_abs="258.142584" electricity_abs="0"/>
    </tripinfo>
    <tripinfo id="carIn12858:1" depart="57661.00" departLane="128361109#1_1" departPos="5.10" departSpeed="0.00" departDelay="0.90" arrival="57800.00" arrivalLane="399835085#1_1" arrivalPos="212.23" arrivalSpeed="7.86" duration="139.00" routeLength="1738.12" waitingTime="3.00" waitingCount="1" stopTime="0.00" timeLoss="31.83" rerouteNo="1" devices="tripinfo_carIn12858:1 routing_carIn12858:1 emissions_carIn12858:1" vType="default_016" speedFactor="1.08" vaporized="">
        <emissions CO_abs="7190.668547" CO2_abs="472785.212275" HC_abs="44.072122" PMx_abs="9.176731" NOx_abs="195.327726" fuel_abs="203.229156" electricity_abs="0"/>
    </tripinfo>
    <tripinfo id="carIn107282:1" depart="57749.00" departLane="-447569998#1_1" departPos="5.10" departSpeed="0.00" departDelay="0.00" arrival="57807.00" arrivalLane="315358242#0_1" arrivalPos="165.37" arrivalSpeed="12.59" duration="58.00" routeLength="448.50" waitingTime="3.00" waitingCount="1" stopTime="0.00" timeLoss="12.70" rerouteNo="1" devices="tripinfo_carIn107282:1 routing_carIn107282:1 emissions_carIn107282:1" vType="default_016" speedFactor="0.92" vaporized="">
        <emissions CO_abs="2697.425750" CO2_abs="133493.039765" HC_abs="15.361966" PMx_abs="2.185206" NOx_abs="53.915957" fuel_abs="57.383716" electricity_abs="0"/>
    </tripinfo>
    <tripinfo id="carIn28951:1" depart="57606.00" departLane="10425609#0_1" departPos="5.10" departSpeed="0.00" departDelay="0.20" arrival="57811.00" arrivalLane="-128361102#1_1" arrivalPos="274.68" arrivalSpeed="17.01" duration="205.00" routeLength="2095.01" waitingTime="50.00" waitingCount="2" stopTime="0.00" timeLoss="79.35" rerouteNo="1" devices="tripinfo_carIn28951:1 routing_carIn28951:1 emissions_carIn28951:1" vType="default_016" speedFactor="1.23" vaporized="">
        <emissions CO_abs="13557.899005" CO2_abs="616594.241813" HC_abs="76.156580" PMx_abs="12.014705" NOx_abs="256.140987" fuel_abs="265.049556" electricity_abs="0"/>
    </tripinfo>
    <tripinfo id="carIn3969:1" depart="57627.00" departLane="124812856#0_1" departPos="5.10" departSpeed="0.00" departDelay="3.30" arrival="57814.00" arrivalLane="-128361102#1_1" arrivalPos="274.68" arrivalSpeed="15.52" duration="187.00" routeLength="2232.46" waitingTime="7.00" waitingCount="2" stopTime="0.00" timeLoss="45.75" rerouteNo="1" devices="tripinfo_carIn3969:1 routing_carIn3969:1 emissions_carIn3969:1" vType="default_016" speedFactor="1.16" vaporized="">
        <emissions CO_abs="8344.383276" CO2_abs="581605.038937" HC_abs="51.651687" PMx_abs="10.534206" NOx_abs="236.670893" fuel_abs="250.006485" electricity_abs="0"/>
    </tripinfo>
    <tripinfo id="carIn50326:1" depart="57651.00" departLane="128361102#0_1" departPos="5.10" departSpeed="0.00" departDelay="0.30" arrival="57815.00" arrivalLane="18809673#0_1" arrivalPos="473.56" arrivalSpeed="12.17" duration="164.00" routeLength="1591.07" waitingTime="0.00" waitingCount="0" stopTime="0.00" timeLoss="18.78" rerouteNo="1" devices="tripinfo_carIn50326:1 routing_carIn50326:1 emissions_carIn50326:1" vType="default_016" speedFactor="0.89" vaporized="">
        <emissions CO_abs="5347.757422" CO2_abs="339631.284640" HC_abs="32.202315" PMx_abs="5.342722" NOx_abs="134.934933" fuel_abs="145.994039" electricity_abs="0"/>
    </tripinfo>
    <tripinfo id="carIn118591:1" depart="57689.00" departLane="315358244_1" departPos="5.10" departSpeed="0.00" departDelay="0.20" arrival="57816.00" arrivalLane="386687235_1" arrivalPos="80.84" arrivalSpeed="15.00" duration="127.00" routeLength="1186.14" waitingTime="27.00" waitingCount="2" stopTime="0.00" timeLoss="46.37" rerouteNo="1" devices="tripinfo_carIn118591:1 routing_carIn118591:1 emissions_carIn118591:1" vType="default_016" speedFactor="1.08" vaporized="">
        <emissions CO_abs="6768.337204" CO2_abs="338658.871080" HC_abs="38.644338" PMx_abs="6.035006" NOx_abs="137.216586" fuel_abs="145.576359" electricity_abs="0"/>
    </tripinfo>
    <tripinfo id="h11737c1:1" depart="57665.00" departLane="272042143_1" departPos="5.10" departSpeed="0.00" departDelay="1.50" arrival="57817.00" arrivalLane="-315358254#1_1" arrivalPos="137.16" arrivalSpeed="13.19" duration="152.00" routeLength="1596.88" waitingTime="17.00" waitingCount="1" stopTime="0.00" timeLoss="34.74" rerouteNo="1" devices="tripinfo_h11737c1:1 routing_h11737c1:1 emissions_h11737c1:1" vType="default_016" speedFactor="0.99" vaporized="">
        <emissions CO_abs="5908.934360" CO2_abs="367312.042049" HC_abs="35.400683" PMx_abs="6.063547" NOx_abs="146.016445" fuel_abs="157.892741" electricity_abs="0"/>
    </tripinfo>
    <tripinfo id="carIn12152:1" depart="57647.00" departLane="24599188#0.94_1" departPos="5.10" departSpeed="0.00" departDelay="0.50" arrival="57819.00" arrivalLane="-315358254#1_1" arrivalPos="137.16" arrivalSpeed="15.00" duration="172.00" routeLength="2034.31" waitingTime="11.00" waitingCount="1" stopTime="0.00" timeLoss="32.24" rerouteNo="1" devices="tripinfo_carIn12152:1 routing_carIn12152:1 emissions_carIn12152:1" vType="default_016" speedFactor="1.14" vaporized="">
        <emissions CO_abs="6228.544940" CO2_abs="448873.971592" HC_abs="38.799713" PMx_abs="7.647534" NOx_abs="178.874502" fuel_abs="192.951845" electricity_abs="0"/>
    </tripinfo>
    <tripinfo id="h5979c1:5" depart="57669.00" departLane="399835085#1_1" departPos="5.10" departSpeed="0.00" departDelay="0.00" arrival="57821.00" arrivalLane="-315358254#1_1" arrivalPos="137.16" arrivalSpeed="15.34" duration="152.00" routeLength="659.33" waitingTime="58.00" waitingCount="1" stopTime="0.00" timeLoss="85.61" rerouteNo="1" devices="tripinfo_h5979c1:5 routing_h5979c1:5 emissions_h5979c1:5" vType="default_016" speedFactor="1.12" vaporized="">
        <emissions CO_abs="13287.934691" CO2_abs="346997.328395" HC_abs="68.576207" PMx_abs="7.081667" NOx_abs="148.923814" fuel_abs="149.164562" electricity_abs="0"/>
    </tripinfo>
    <tripinfo id="h645c1:1" depart="57622.00" departLane="266565295#5_1" departPos="5.10" departSpeed="0.00" departDelay="0.40" arrival="57833.00" arrivalLane="-315358244_1" arrivalPos="33.95" arrivalSpeed="14.19" duration="211.00" routeLength="1910.83" waitingTime="45.00" waitingCount="4" stopTime="0.00" timeLoss="76.99" rerouteNo="1" devices="tripinfo_h645c1:1 routing_h645c1:1 emissions_h645c1:1" vType="default_016" speedFactor="1.03" vaporized="">
        <emissions CO_abs="11046.954226" CO2_abs="515043.093440" HC_abs="62.308824" PMx_abs="9.329316" NOx_abs="210.500547" fuel_abs="221.397467" electricity_abs="0"/>
    </tripinfo>
    <tripinfo id="carIn121703:1" depart="57647.00" departLane="386687232#0_1" departPos="5.10" departSpeed="0.00" departDelay="0.30" arrival="57834.00" arrivalLane="-315358244_2" arrivalPos="33.95" arrivalSpeed="11.64" duration="187.00" routeLength="1157.39" waitingTime="63.00" waitingCount="3" stopTime="0.00" timeLoss="90.24" rerouteNo="1" devices="tripinfo_carIn121703:1 routing_carIn121703:1 emissions_carIn121703:1" vType="default_016" speedFactor="0.87" vaporized="">
        <emissions CO_abs="12583.929459" CO2_abs="406360.666280" HC_abs="66.802247" PMx_abs="7.943635" NOx_abs="171.642426" fuel_abs="174.681263" electricity_abs="0"/>
    </tripinfo>
    <tripinfo id="h16072c2:3" depart="57663.00" departLane="315358254#0_1" departPos="5.10" departSpeed="0.00" departDelay="2.50" arrival="57834.00" arrivalLane="386687235_1" arrivalPos="80.84" arrivalSpeed="12.55" duration="171.00" routeLength="1611.92" waitingTime="22.00" waitingCount="3" stopTime="0.00" timeLoss="44.00" rerouteNo="1" devices="tripinfo_h16072c2:3 routing_h16072c2:3 emissions_h16072c2:3" vType="default_016" speedFactor="0.92" vaporized="">
        <emissions CO_abs="6794.238814" CO2_abs="386871.632301" HC_abs="39.959024" PMx_abs="6.545482" NOx_abs="155.873383" fuel_abs="166.300776" electricity_abs="0"/>
    </tripinfo>
    <tripinfo id="carIn85747:1" depart="57673.00" departLane="128361109#1_1" departPos="5.10" departSpeed="0.00" departDelay="0.70" arrival="57834.00" arrivalLane="386687235_2" arrivalPos="80.84" arrivalSpeed="14.09" duration="161.00" routeLength="2088.57" waitingTime="0.00" waitingCount="0" stopTime="0.00" timeLoss="18.50" rerouteNo="1" devices="tripinfo_carIn85747:1 routing_carIn85747:1 emissions_carIn85747:1" vType="default_016" speedFactor="1.06" vaporized="">
        <emissions CO_abs="4178.663882" CO2_abs="394161.694746" HC_abs="28.125932" PMx_abs="6.155706" NOx_abs="152.791921" fuel_abs="169.433180" electricity_abs="0"/>
    </tripinfo>
    <tripinfo id="carIn129809:1" depart="57729.00" departLane="-447569998#1_1" departPos="5.10" departSpeed="0.00" departDelay="1.00" arrival="57835.00" arrivalLane="-315358244_1" arrivalPos="33.95" arrivalSpeed="14.57" duration="106.00" routeLength="706.49" waitingTime="31.00" waitingCount="2" stopTime="0.00" timeLoss="50.64" rerouteNo="1" devices="tripinfo_carIn129809:1 routing_carIn129809:1 emissions_carIn129809:1" vType="default_015" speedFactor="1.09" vaporized="">
        <emissions CO_abs="7368.938188" CO2_abs="273196.668826" HC_abs="39.955705" PMx_abs="5.242006" NOx_abs="114.153736" fuel_abs="117.437660" electricity_abs="0"/>
    </tripinfo>
    <tripinfo id="carIn88905:1" depart="57688.00" departLane="128361109#1_1" departPos="5.10" departSpeed="0.00" departDelay="5.80" arrival="57842.00" arrivalLane="386687235_1" arrivalPos="80.84" arrivalSpeed="14.54" duration="154.00" routeLength="2088.57" waitingTime="0.00" waitingCount="0" stopTime="0.00" timeLoss="11.84" rerouteNo="1" devices="tripinfo_carIn88905:1 routing_carIn88905:1 emissions_carIn88905:1" vType="default_016" speedFactor="1.06" vaporized="">
        <emissions CO_abs="3245.162651" CO2_abs="354912.819419" HC_abs="22.868561" PMx_abs="5.306168" NOx_abs="135.437157" fuel_abs="152.561742" electricity_abs="0"/>
    </tripinfo>
    <tripinfo id="carIn7949:1" depart="57676.00" departLane="128361109#1_1" departPos="5.10" departSpeed="0.00" departDelay="2.10" arrival="57844.00" arrivalLane="386687235_1" arrivalPos="80.84" arrivalSpeed="14.16" duration="168.00" routeLength="2088.57" waitingTime="7.00" waitingCount="1" stopTime="0.00" timeLoss="24.03" rerouteNo="1" devices="tripinfo_carIn7949:1 routing_carIn7949:1 emissions_carIn7949:1" vType="default_016" speedFactor="1.05" vaporized="">
        <emissions CO_abs="3992.759079" CO2_abs="366096.913674" HC_abs="26.578421" PMx_abs="5.634262" NOx_abs="141.256709" fuel_abs="157.369565" electricity_abs="0"/>
    </tripinfo>
    <tripinfo id="h19577c1:1" depart="57694.00" departLane="128361109#1_1" departPos="5.10" departSpeed="0.00" departDelay="2.80" arrival="57844.00" arrivalLane="386687235_2" arrivalPos="80.84" arrivalSpeed="14.74" duration="150.00" routeLength="2088.57" waitingTime="0.00" waitingCount="0" stopTime="0.00" timeLoss="17.30" rerouteNo="1" devices="tripinfo_h19577c1:1 routing_h19577c1:1 emissions_h19577c1:1" vType="default_016" speedFactor="1.14" vaporized="">
        <emissions CO_abs="3652.939446" CO2_abs="366484.499531" HC_abs="25.083568" PMx_abs="5.883453" NOx_abs="142.566275" fuel_abs="157.535545" electricity_abs="0"/>
    </tripinfo>
    <tripinfo id="carIn102915:1" depart="57643.00" departLane="128361102#0_1" departPos="5.10" departSpeed="0.00" departDelay="0.40" arrival="57845.00" arrivalLane="201956811#0_1" arrivalPos="40.40" arrivalSpeed="12.34" duration="202.00" routeLength="2067.33" waitingTime="22.00" waitingCount="2" stopTime="0.00" timeLoss="47.23" rerouteNo="1" devices="tripinfo_carIn102915:1 routing_carIn102915:1 emissions_carIn102915:1" vType="default_016" speedFactor="0.98" vaporized="">
        <emissions CO_abs="7907.523300" CO2_abs="494676.441995" HC_abs="47.522418" PMx_abs="8.262653" NOx_abs="197.786466" fuel_abs="212.641365" electricity_abs="0"/>
    </tripinfo>
    <tripinfo id="randUni33724:1" depart="57646.00" departLane="128361102#0_1" departPos="5.10" departSpeed="0.00" departDelay="1.20" arrival="57848.00" arrivalLane="201956811#0_1" arrivalPos="40.40" arrivalSpeed="12.70" duration="202.00" routeLength="2067.33" waitingTime="17.00" waitingCount="2" stopTime="0.00" timeLoss="46.55" rerouteNo="1" devices="tripinfo_randUni33724:1 routing_randUni33724:1 emissions_randUni33724:1" vType="random_016" speedFactor="0.97" vaporized="">
        <emissions CO_abs="8011.318667" CO2_abs="505516.220994" HC_abs="48.250882" PMx_abs="8.398549" NOx_abs="202.021964" fuel_abs="217.300939" electricity_abs="0"/>
    </tripinfo>
    <tripinfo id="carIn8642:1" depart="57774.00" departLane="-447569998#1_1" departPos="5.10" departSpeed="0.00" departDelay="0.90" arrival="57850.00" arrivalLane="-315358244_1" arrivalPos="33.95" arrivalSpeed="11.92" duration="76.00" routeLength="706.49" waitingTime="0.00" waitingCount="0" stopTime="0.00" timeLoss="7.20" rerouteNo="1" devices="tripinfo_carIn8642:1 routing_carIn8642:1 emissions_carIn8642:1" vType="default_016" speedFactor="0.88" vaporized="">
        <emissions CO_abs="2440.774293" CO2_abs="143559.593868" HC_abs="14.417184" PMx_abs="2.212606" NOx_abs="56.821964" fuel_abs="61.710800" electricity_abs="0"/>
    </tripinfo>
    <tripinfo id="50R_frequency3.17" depart="57674.00" departLane="-18809673#6_1" departPos="12.10" departSpeed="0.00" departDelay="0.70" arrival="57851.00" arrivalLane="201956811#0_1" arrivalPos="40.40" arrivalSpeed="12.52" duration="177.00" routeLength="1954.47" waitingTime="4.00" waitingCount="1" stopTime="0.00" timeLoss="32.29" rerouteNo="1" devices="tripinfo_50R_frequency3.17 routing_50R_frequency3.17 emissions_50R_frequency3.17" vType="bus" speedFactor="1.00" vaporized="">
        <emissions CO_abs="3509.625243" CO2_abs="2213909.049624" HC_abs="737.257021" PMx_abs="376.454876" NOx_abs="17140.190372" fuel_abs="944.210677" electricity_abs="0"/>
    </tripinfo>
    <tripinfo id="h5938c1:1" depart="57740.00" departLane="-26677542#0_1" departPos="5.10" departSpeed="0.00" departDelay="0.00" arrival="57851.00" arrivalLane="447569997#1_1" arrivalPos="180.93" arrivalSpeed="8.32" duration="111.00" routeLength="1093.64" waitingTime="7.00" waitingCount="1" stopTime="0.00" timeLoss="23.41" rerouteNo="1" devices="tripinfo_h5938c1:1 routing_h5938c1:1 emissions_h5938c1:1" vType="default_016" speedFactor="1.11" vaporized="">
        <emissions CO_abs="4749.898791" CO2_abs="275457.603807" HC_abs="28.014382" PMx_abs="4.758371" NOx_abs="111.606615" fuel_abs="118.408068" electricity_abs="0"/>
    </tripinfo>
    <tripinfo id="randUni15030:1" depart="57735.00" departLane="386687232#0_1" departPos="5.10" departSpeed="0.00" departDelay="0.10" arrival="57858.00" arrivalLane="26677539_1" arrivalPos="151.98" arrivalSpeed="5.97" duration="123.00" routeLength="919.89" waitingTime="4.00" waitingCount="1" stopTime="0.00" timeLoss="19.57" rerouteNo="1" devices="tripinfo_randUni15030:1 routing_randUni15030:1 emissions_randUni15030:1" vType="random_016" speedFactor="0.81" vaporized="">
        <emissions CO_abs="4532.917699" CO2_abs="217708.476022" HC_abs="25.632310" PMx_abs="3.441229" NOx_abs="87.296588" fuel_abs="93.585100" electricity_abs="0"/>
    </tripinfo>