<?xml version="1.0" encoding="UTF-8"?>

<!-- generated on 2021-10-26 14:41:32 by Eclipse SUMO sumo Version 1.10.0
<configuration xmlns:xsi="http://www.w3.org/2001/XMLSchema-instance" xsi:noNamespaceSchemaLocation="http://sumo.dlr.de/xsd/sumoConfiguration.xsd">

    <input>
        <net-file value="/Users/behradkoohy/sumo-scratchpad/RESCO/environments/ingolstadt21/ingolstadt21.net.xml"/>
        <route-files value="/Users/behradkoohy/sumo-scratchpad/RESCO/environments/ingolstadt21/ingolstadt21.rou.xml"/>
    </input>

    <output>
        <tripinfo-output value="/Users/behradkoohy/sumo-scratchpad/RESCO/logs/STOCHASTIC-tr0-ingolstadt21-21-mplight-wait/tripinfo_79.xml"/>
        <tripinfo-output.write-unfinished value="true"/>
    </output>

    <time>
        <begin value="57600"/>
        <end value="61200"/>
    </time>

    <processing>
        <time-to-teleport value="-1"/>
    </processing>

    <report>
        <no-warnings value="true"/>
        <no-step-log value="true"/>
    </report>

    <emissions>
        <device.emissions.probability value="1"/>
    </emissions>

    <traci_server>
        <remote-port value="60526"/>
    </traci_server>

    <random_number>
        <random value="true"/>
    </random_number>

</configuration>
-->

<tripinfos xmlns:xsi="http://www.w3.org/2001/XMLSchema-instance" xsi:noNamespaceSchemaLocation="http://sumo.dlr.de/xsd/tripinfo_file.xsd">
    <tripinfo id="h15454c2:3" depart="57612.00" departLane="24608844_1" departPos="5.10" departSpeed="0.00" departDelay="0.50" arrival="57645.00" arrivalLane="32978638#0_1" arrivalPos="49.29" arrivalSpeed="16.30" duration="33.00" routeLength="354.79" waitingTime="0.00" waitingCount="0" stopTime="0.00" timeLoss="5.21" rerouteNo="1" devices="tripinfo_h15454c2:3 routing_h15454c2:3 emissions_h15454c2:3" vType="default_016" speedFactor="1.24" vaporized="">
        <emissions CO_abs="1729.040923" CO2_abs="108739.947868" HC_abs="10.383321" PMx_abs="1.923796" NOx_abs="44.337551" fuel_abs="46.742702" electricity_abs="0"/>
    </tripinfo>
    <tripinfo id="carIn53971:1" depart="57640.00" departLane="272042143_1" departPos="5.10" departSpeed="0.00" departDelay="0.80" arrival="57690.00" arrivalLane="24634414#1_1" arrivalPos="162.19" arrivalSpeed="8.98" duration="50.00" routeLength="493.04" waitingTime="0.00" waitingCount="0" stopTime="0.00" timeLoss="8.95" rerouteNo="1" devices="tripinfo_carIn53971:1 routing_carIn53971:1 emissions_carIn53971:1" vType="default_016" speedFactor="1.11" vaporized="">
        <emissions CO_abs="2473.250829" CO2_abs="146883.377141" HC_abs="14.711017" PMx_abs="2.618361" NOx_abs="60.405876" fuel_abs="63.139008" electricity_abs="0"/>
    </tripinfo>
    <tripinfo id="h12244c1:3" depart="57612.00" departLane="315358244_1" departPos="5.10" departSpeed="0.00" departDelay="0.40" arrival="57705.00" arrivalLane="386687235_1" arrivalPos="80.84" arrivalSpeed="14.65" duration="93.00" routeLength="1186.14" waitingTime="0.00" waitingCount="0" stopTime="0.00" timeLoss="11.94" rerouteNo="1" devices="tripinfo_h12244c1:3 routing_h12244c1:3 emissions_h12244c1:3" vType="default_016" speedFactor="1.07" vaporized="">
        <emissions CO_abs="3075.087043" CO2_abs="247426.178484" HC_abs="19.743074" PMx_abs="4.165176" NOx_abs="98.481828" fuel_abs="106.357746" electricity_abs="0"/>
    </tripinfo>
    <tripinfo id="h3688c1:1" depart="57625.00" departLane="201201950#1_1" departPos="5.10" departSpeed="0.00" departDelay="0.00" arrival="57706.00" arrivalLane="32978638#0_1" arrivalPos="49.29" arrivalSpeed="15.56" duration="81.00" routeLength="1089.75" waitingTime="0.00" waitingCount="0" stopTime="0.00" timeLoss="11.60" rerouteNo="1" devices="tripinfo_h3688c1:1 routing_h3688c1:1 emissions_h3688c1:1" vType="default_016" speedFactor="1.15" vaporized="">
        <emissions CO_abs="3472.122363" CO2_abs="277254.976363" HC_abs="22.184089" PMx_abs="4.931476" NOx_abs="111.870289" fuel_abs="119.179466" electricity_abs="0"/>
    </tripinfo>
    <tripinfo id="h7800c1:5" depart="57696.00" departLane="-447569998#1_1" departPos="5.10" departSpeed="0.00" departDelay="0.00" arrival="57722.00" arrivalLane="-447569998#1_1" arrivalPos="180.76" arrivalSpeed="7.60" duration="26.00" routeLength="175.66" waitingTime="0.00" waitingCount="0" stopTime="0.00" timeLoss="3.53" rerouteNo="1" devices="tripinfo_h7800c1:5 routing_h7800c1:5 emissions_h7800c1:5" vType="default_016" speedFactor="0.97" vaporized="">
        <emissions CO_abs="1234.531809" CO2_abs="52663.724484" HC_abs="6.831304" PMx_abs="0.877161" NOx_abs="21.540381" fuel_abs="22.638290" electricity_abs="0"/>
    </tripinfo>
    <tripinfo id="h3568c1:3" depart="57656.00" departLane="266565295#5_1" departPos="5.10" departSpeed="0.00" departDelay="0.80" arrival="57734.00" arrivalLane="-24634415_1" arrivalPos="62.03" arrivalSpeed="14.17" duration="78.00" routeLength="807.40" waitingTime="0.00" waitingCount="0" stopTime="0.00" timeLoss="16.58" rerouteNo="1" devices="tripinfo_h3568c1:3 routing_h3568c1:3 emissions_h3568c1:3" vType="default_016" speedFactor="1.06" vaporized="">
        <emissions CO_abs="3826.019857" CO2_abs="237251.258468" HC_abs="23.026149" PMx_abs="4.352572" NOx_abs="98.078425" fuel_abs="101.984070" electricity_abs="0"/>
    </tripinfo>
    <tripinfo id="S5R_frequency1.2" depart="57624.00" departLane="315358250#0_1" departPos="12.10" departSpeed="0.00" departDelay="12.40" arrival="57747.00" arrivalLane="386687235_1" arrivalPos="80.84" arrivalSpeed="13.66" duration="123.00" routeLength="1115.62" waitingTime="16.00" waitingCount="2" stopTime="0.00" timeLoss="41.11" rerouteNo="1" devices="tripinfo_S5R_frequency1.2 routing_S5R_frequency1.2 emissions_S5R_frequency1.2" vType="bus" speedFactor="1.00" vaporized="">
        <emissions CO_abs="2163.616504" CO2_abs="1279479.417875" HC_abs="455.574505" PMx_abs="229.887820" NOx_abs="10140.717476" fuel_abs="545.652783" electricity_abs="0"/>
    </tripinfo>
    <tripinfo id="carIn60260:1" depart="57606.00" departLane="315358254#0_1" departPos="5.10" departSpeed="0.00" departDelay="0.90" arrival="57749.00" arrivalLane="399835085#1_1" arrivalPos="212.23" arrivalSpeed="6.18" duration="143.00" routeLength="430.98" waitingTime="79.00" waitingCount="1" stopTime="0.00" timeLoss="90.76" rerouteNo="1" devices="tripinfo_carIn60260:1 routing_carIn60260:1 emissions_carIn60260:1" vType="default_016" speedFactor="0.88" vaporized="">
        <emissions CO_abs="15009.345665" CO2_abs="312558.328317" HC_abs="75.623739" PMx_abs="6.855761" NOx_abs="137.516641" fuel_abs="134.362033" electricity_abs="0"/>
    </tripinfo>
    <tripinfo id="h317c2:1" depart="57707.00" departLane="-32978638#0_1" departPos="5.10" departSpeed="0.00" departDelay="0.10" arrival="57753.00" arrivalLane="-266565295#5_1" arrivalPos="172.76" arrivalSpeed="15.61" duration="46.00" routeLength="370.53" waitingTime="11.00" waitingCount="1" stopTime="0.00" timeLoss="22.82" rerouteNo="1" devices="tripinfo_h317c2:1 routing_h317c2:1 emissions_h317c2:1" vType="default_016" speedFactor="1.21" vaporized="">
        <emissions CO_abs="3318.374161" CO2_abs="155590.090119" HC_abs="18.751202" PMx_abs="3.097995" NOx_abs="65.634179" fuel_abs="66.881796" electricity_abs="0"/>
    </tripinfo>
    <tripinfo id="carIn30817:1" depart="57681.00" departLane="315358244_1" departPos="5.10" departSpeed="0.00" departDelay="0.20" arrival="57767.00" arrivalLane="447569997#1_1" arrivalPos="180.93" arrivalSpeed="6.54" duration="86.00" routeLength="718.04" waitingTime="0.00" waitingCount="0" stopTime="0.00" timeLoss="12.14" rerouteNo="1" devices="tripinfo_carIn30817:1 routing_carIn30817:1 emissions_carIn30817:1" vType="default_016" speedFactor="0.83" vaporized="">
        <emissions CO_abs="3316.320868" CO2_abs="178332.871288" HC_abs="19.221172" PMx_abs="2.909172" NOx_abs="71.967053" fuel_abs="76.658469" electricity_abs="0"/>
    </tripinfo>
    <tripinfo id="h3326c1:2" depart="57656.00" departLane="22716069#0_1" departPos="5.10" departSpeed="0.00" departDelay="0.00" arrival="57768.00" arrivalLane="24634517#13_1" arrivalPos="111.62" arrivalSpeed="12.93" duration="112.00" routeLength="1312.81" waitingTime="0.00" waitingCount="0" stopTime="0.00" timeLoss="14.98" rerouteNo="1" devices="tripinfo_h3326c1:2 routing_h3326c1:2 emissions_h3326c1:2" vType="default_016" speedFactor="1.00" vaporized="">
        <emissions CO_abs="3970.025167" CO2_abs="308554.249828" HC_abs="25.280691" PMx_abs="5.078623" NOx_abs="122.782111" fuel_abs="132.634277" electricity_abs="0"/>
    </tripinfo>
    <tripinfo id="h5979c1:5" depart="57669.00" departLane="399835085#1_1" departPos="5.10" departSpeed="0.00" departDelay="0.00" arrival="57769.00" arrivalLane="-315358254#1_1" arrivalPos="137.16" arrivalSpeed="11.00" duration="100.00" routeLength="659.33" waitingTime="0.00" waitingCount="0" stopTime="0.00" timeLoss="12.05" rerouteNo="1" devices="tripinfo_h5979c1:5 routing_h5979c1:5 emissions_h5979c1:5" vType="default_016" speedFactor="0.84" vaporized="">
        <emissions CO_abs="4294.953042" CO2_abs="182158.695022" HC_abs="23.714362" PMx_abs="2.892786" NOx_abs="73.560376" fuel_abs="78.303883" electricity_abs="0"/>
    </tripinfo>
    <tripinfo id="h330c1:1" depart="57736.00" departLane="-32978638#0_1" departPos="5.10" departSpeed="0.00" departDelay="0.20" arrival="57769.00" arrivalLane="-266565295#5_1" arrivalPos="172.76" arrivalSpeed="13.75" duration="33.00" routeLength="370.53" waitingTime="0.00" waitingCount="0" stopTime="0.00" timeLoss="6.21" rerouteNo="1" devices="tripinfo_h330c1:1 routing_h330c1:1 emissions_h330c1:1" vType="default_016" speedFactor="1.01" vaporized="">
        <emissions CO_abs="1732.381303" CO2_abs="114130.209692" HC_abs="10.571308" PMx_abs="2.000732" NOx_abs="46.424462" fuel_abs="49.059714" electricity_abs="0"/>
    </tripinfo>
    <tripinfo id="carIn27009:1" depart="57673.00" departLane="-447569998#1_1" departPos="5.10" departSpeed="0.00" departDelay="0.50" arrival="57776.00" arrivalLane="-26677539_1" arrivalPos="152.75" arrivalSpeed="7.12" duration="103.00" routeLength="699.63" waitingTime="0.00" waitingCount="0" stopTime="0.00" timeLoss="12.15" rerouteNo="1" devices="tripinfo_carIn27009:1 routing_carIn27009:1 emissions_carIn27009:1" vType="default_015" speedFactor="0.93" vaporized="">
        <emissions CO_abs="4364.320985" CO2_abs="191440.867237" HC_abs="24.227435" PMx_abs="2.949241" NOx_abs="76.830996" fuel_abs="82.293975" electricity_abs="0"/>
    </tripinfo>
    <tripinfo id="h7181c1:1" depart="57660.00" departLane="315358254#0_1" departPos="5.10" departSpeed="0.00" departDelay="0.10" arrival="57779.00" arrivalLane="306240162#0_0" arrivalPos="220.43" arrivalSpeed="17.94" duration="119.00" routeLength="932.35" waitingTime="43.00" waitingCount="3" stopTime="0.00" timeLoss="73.81" rerouteNo="1" devices="tripinfo_h7181c1:1 routing_h7181c1:1 emissions_h7181c1:1" vType="default_016" speedFactor="1.14" vaporized="">
        <emissions CO_abs="10932.484858" CO2_abs="454177.818835" HC_abs="60.699311" PMx_abs="9.723759" NOx_abs="194.658206" fuel_abs="195.232608" electricity_abs="0"/>
    </tripinfo>
    <tripinfo id="h3154c1:1" depart="57658.00" departLane="24634507_1" departPos="5.10" departSpeed="0.00" departDelay="0.00" arrival="57785.00" arrivalLane="-266565295#5_1" arrivalPos="172.76" arrivalSpeed="15.31" duration="127.00" routeLength="1206.22" waitingTime="25.00" waitingCount="2" stopTime="0.00" timeLoss="46.96" rerouteNo="1" devices="tripinfo_h3154c1:1 routing_h3154c1:1 emissions_h3154c1:1" vType="default_016" speedFactor="1.12" vaporized="">
        <emissions CO_abs="7901.502840" CO2_abs="387421.420693" HC_abs="45.071123" PMx_abs="7.377733" NOx_abs="160.895293" fuel_abs="166.536830" electricity_abs="0"/>
    </tripinfo>
    <tripinfo id="carIn121703:1" depart="57647.00" departLane="386687232#0_1" departPos="5.10" departSpeed="0.00" departDelay="0.30" arrival="57792.00" arrivalLane="-315358244_1" arrivalPos="33.95" arrivalSpeed="14.75" duration="145.00" routeLength="1157.39" waitingTime="56.00" waitingCount="1" stopTime="0.00" timeLoss="70.43" rerouteNo="1" devices="tripinfo_carIn121703:1 routing_carIn121703:1 emissions_carIn121703:1" vType="default_016" speedFactor="1.13" vaporized="">
        <emissions CO_abs="11172.917583" CO2_abs="392223.445515" HC_abs="59.891958" PMx_abs="7.607731" NOx_abs="162.903527" fuel_abs="168.603597" electricity_abs="0"/>
    </tripinfo>
    <tripinfo id="h9563c2:5" depart="57631.00" departLane="315358244_1" departPos="5.10" departSpeed="0.00" departDelay="0.70" arrival="57803.00" arrivalLane="386687235_1" arrivalPos="80.84" arrivalSpeed="15.43" duration="172.00" routeLength="1186.14" waitingTime="62.00" waitingCount="4" stopTime="0.00" timeLoss="94.76" rerouteNo="1" devices="tripinfo_h9563c2:5 routing_h9563c2:5 emissions_h9563c2:5" vType="default_016" speedFactor="1.13" vaporized="">
        <emissions CO_abs="12505.817511" CO2_abs="451448.345669" HC_abs="67.530574" PMx_abs="8.994320" NOx_abs="190.337494" fuel_abs="194.061610" electricity_abs="0"/>
    </tripinfo>
    <tripinfo id="carIn118591:1" depart="57689.00" departLane="315358244_1" departPos="5.10" departSpeed="0.00" departDelay="0.20" arrival="57805.00" arrivalLane="386687235_1" arrivalPos="80.84" arrivalSpeed="15.79" duration="116.00" routeLength="1186.14" waitingTime="16.00" waitingCount="2" stopTime="0.00" timeLoss="41.96" rerouteNo="1" devices="tripinfo_carIn118591:1 routing_carIn118591:1 emissions_carIn118591:1" vType="default_016" speedFactor="1.18" vaporized="">
        <emissions CO_abs="5684.090567" CO2_abs="310201.657951" HC_abs="32.949109" PMx_abs="5.667642" NOx_abs="126.535499" fuel_abs="133.343027" electricity_abs="0"/>
    </tripinfo>
    <tripinfo id="h11737c1:1" depart="57665.00" departLane="272042143_1" departPos="5.10" departSpeed="0.00" departDelay="1.50" arrival="57806.00" arrivalLane="-315358254#1_1" arrivalPos="137.16" arrivalSpeed="14.83" duration="141.00" routeLength="1596.88" waitingTime="12.00" waitingCount="1" stopTime="0.00" timeLoss="39.22" rerouteNo="1" devices="tripinfo_h11737c1:1 routing_h11737c1:1 emissions_h11737c1:1" vType="default_016" speedFactor="1.14" vaporized="">
        <emissions CO_abs="6259.796940" CO2_abs="394989.877366" HC_abs="37.755972" PMx_abs="7.084462" NOx_abs="160.088931" fuel_abs="169.789451" electricity_abs="0"/>
    </tripinfo>
    <tripinfo id="h4538c1:1" depart="57701.00" departLane="-10427692#1_1" departPos="5.10" departSpeed="0.00" departDelay="0.00" arrival="57807.00" arrivalLane="-128361102#1_1" arrivalPos="274.68" arrivalSpeed="13.47" duration="106.00" routeLength="440.74" waitingTime="63.00" waitingCount="1" stopTime="0.00" timeLoss="73.43" rerouteNo="1" devices="tripinfo_h4538c1:1 routing_h4538c1:1 emissions_h4538c1:1" vType="default_016" speedFactor="0.98" vaporized="">
        <emissions CO_abs="11319.382869" CO2_abs="269340.241911" HC_abs="57.848330" PMx_abs="5.753837" NOx_abs="116.607944" fuel_abs="115.782464" electricity_abs="0"/>
    </tripinfo>
    <tripinfo id="carIn126288:1" depart="57674.00" departLane="272042143_1" departPos="5.10" departSpeed="0.00" departDelay="0.00" arrival="57811.00" arrivalLane="-315358254#1_1" arrivalPos="137.16" arrivalSpeed="13.82" duration="137.00" routeLength="1596.88" waitingTime="4.00" waitingCount="1" stopTime="0.00" timeLoss="21.77" rerouteNo="1" devices="tripinfo_carIn126288:1 routing_carIn126288:1 emissions_carIn126288:1" vType="default_016" speedFactor="1.01" vaporized="">
        <emissions CO_abs="4255.195365" CO2_abs="347070.556030" HC_abs="27.431264" PMx_abs="5.533112" NOx_abs="136.386956" fuel_abs="149.190937" electricity_abs="0"/>
    </tripinfo>
    <tripinfo id="carIn22761:1" depart="57616.00" departLane="-306240162#1_0" departPos="5.10" departSpeed="0.00" departDelay="2.10" arrival="57814.00" arrivalLane="399835085#1_1" arrivalPos="212.23" arrivalSpeed="8.34" duration="198.00" routeLength="1093.26" waitingTime="89.00" waitingCount="3" stopTime="0.00" timeLoss="120.57" rerouteNo="1" devices="tripinfo_carIn22761:1 routing_carIn22761:1 emissions_carIn22761:1" vType="default_016" speedFactor="1.00" vaporized="">
        <emissions CO_abs="18578.037462" CO2_abs="549997.075617" HC_abs="97.563826" PMx_abs="11.777260" NOx_abs="237.743350" fuel_abs="236.425763" electricity_abs="0"/>
    </tripinfo>
    <tripinfo id="carIn107282:1" depart="57749.00" departLane="-447569998#1_1" departPos="5.10" departSpeed="0.00" departDelay="0.00" arrival="57815.00" arrivalLane="315358242#0_1" arrivalPos="165.37" arrivalSpeed="15.32" duration="66.00" routeLength="448.50" waitingTime="18.00" waitingCount="1" stopTime="0.00" timeLoss="29.00" rerouteNo="1" devices="tripinfo_carIn107282:1 routing_carIn107282:1 emissions_carIn107282:1" vType="default_016" speedFactor="1.15" vaporized="">
        <emissions CO_abs="4480.723078" CO2_abs="168665.767393" HC_abs="24.316075" PMx_abs="3.227524" NOx_abs="70.610004" fuel_abs="72.503422" electricity_abs="0"/>
    </tripinfo>
    <tripinfo id="carIn12858:1" depart="57661.00" departLane="128361109#1_1" departPos="5.10" departSpeed="0.00" departDelay="0.90" arrival="57816.00" arrivalLane="399835085#1_1" arrivalPos="212.23" arrivalSpeed="9.28" duration="155.00" routeLength="1738.12" waitingTime="24.00" waitingCount="1" stopTime="0.00" timeLoss="57.77" rerouteNo="1" devices="tripinfo_carIn12858:1 routing_carIn12858:1 emissions_carIn12858:1" vType="default_016" speedFactor="1.19" vaporized="">
        <emissions CO_abs="11610.003832" CO2_abs="585284.005735" HC_abs="66.689098" PMx_abs="11.988284" NOx_abs="246.057990" fuel_abs="251.588633" electricity_abs="0"/>
    </tripinfo>
    <tripinfo id="carIn82278:1" depart="57702.00" departLane="-306240162#1_0" departPos="5.10" departSpeed="0.00" departDelay="0.70" arrival="57822.00" arrivalLane="399835085#1_1" arrivalPos="212.23" arrivalSpeed="7.37" duration="120.00" routeLength="1093.26" waitingTime="11.00" waitingCount="1" stopTime="0.00" timeLoss="35.40" rerouteNo="1" devices="tripinfo_carIn82278:1 routing_carIn82278:1 emissions_carIn82278:1" vType="default_016" speedFactor="0.92" vaporized="">
        <emissions CO_abs="6324.454738" CO2_abs="320024.005525" HC_abs="36.295912" PMx_abs="5.884018" NOx_abs="131.923102" fuel_abs="137.565516" electricity_abs="0"/>
    </tripinfo>
    <tripinfo id="h645c1:1" depart="57622.00" departLane="266565295#5_1" departPos="5.10" departSpeed="0.00" departDelay="0.40" arrival="57824.00" arrivalLane="-315358244_1" arrivalPos="33.95" arrivalSpeed="12.59" duration="202.00" routeLength="1910.83" waitingTime="29.00" waitingCount="2" stopTime="0.00" timeLoss="51.61" rerouteNo="1" devices="tripinfo_h645c1:1 routing_h645c1:1 emissions_h645c1:1" vType="default_016" speedFactor="0.93" vaporized="">
        <emissions CO_abs="7858.821345" CO2_abs="427227.713328" HC_abs="45.715659" PMx_abs="7.081057" NOx_abs="170.785446" fuel_abs="183.648826" electricity_abs="0"/>
    </tripinfo>
    <tripinfo id="carIn129809:1" depart="57729.00" departLane="-447569998#1_1" departPos="5.10" departSpeed="0.00" departDelay="1.00" arrival="57824.00" arrivalLane="-315358244_2" arrivalPos="33.95" arrivalSpeed="12.16" duration="95.00" routeLength="706.49" waitingTime="12.00" waitingCount="2" stopTime="0.00" timeLoss="31.38" rerouteNo="1" devices="tripinfo_carIn129809:1 routing_carIn129809:1 emissions_carIn129809:1" vType="default_015" speedFactor="0.96" vaporized="">
        <emissions CO_abs="3783.628171" CO2_abs="199678.612001" HC_abs="21.864943" PMx_abs="3.351197" NOx_abs="80.740141" fuel_abs="85.834149" electricity_abs="0"/>
    </tripinfo>
    <tripinfo id="carIn50326:1" depart="57651.00" departLane="128361102#0_1" departPos="5.10" departSpeed="0.00" departDelay="0.30" arrival="57829.00" arrivalLane="18809673#0_1" arrivalPos="473.56" arrivalSpeed="13.23" duration="178.00" routeLength="1591.07" waitingTime="27.00" waitingCount="1" stopTime="0.00" timeLoss="46.52" rerouteNo="1" devices="tripinfo_carIn50326:1 routing_carIn50326:1 emissions_carIn50326:1" vType="default_016" speedFactor="0.99" vaporized="">
        <emissions CO_abs="8352.755808" CO2_abs="411711.525810" HC_abs="47.591855" PMx_abs="6.983608" NOx_abs="165.644428" fuel_abs="176.979428" electricity_abs="0"/>
    </tripinfo>
    <tripinfo id="carIn12365:1" depart="57713.00" departLane="315358244_1" departPos="5.10" departSpeed="0.00" departDelay="0.50" arrival="57829.00" arrivalLane="447569997#1_1" arrivalPos="180.93" arrivalSpeed="9.90" duration="116.00" routeLength="718.04" waitingTime="45.00" waitingCount="3" stopTime="0.00" timeLoss="65.10" rerouteNo="1" devices="tripinfo_carIn12365:1 routing_carIn12365:1 emissions_carIn12365:1" vType="default_016" speedFactor="1.22" vaporized="">
        <emissions CO_abs="9542.708668" CO2_abs="301012.339206" HC_abs="50.541070" PMx_abs="6.153946" NOx_abs="128.558837" fuel_abs="129.395247" electricity_abs="0"/>
    </tripinfo>
    <tripinfo id="randUni15030:1" depart="57735.00" departLane="386687232#0_1" departPos="5.10" departSpeed="0.00" departDelay="0.10" arrival="57830.00" arrivalLane="26677539_1" arrivalPos="151.98" arrivalSpeed="9.08" duration="95.00" routeLength="919.89" waitingTime="6.00" waitingCount="1" stopTime="0.00" timeLoss="20.61" rerouteNo="1" devices="tripinfo_randUni15030:1 routing_randUni15030:1 emissions_randUni15030:1" vType="random_016" speedFactor="1.13" vaporized="">
        <emissions CO_abs="3885.613031" CO2_abs="236965.410601" HC_abs="23.127994" PMx_abs="3.972043" NOx_abs="95.173798" fuel_abs="101.861844" electricity_abs="0"/>
    </tripinfo>
    <tripinfo id="carIn17767:1" depart="57640.00" departLane="124812856#0_1" departPos="5.10" departSpeed="0.00" departDelay="12.80" arrival="57834.00" arrivalLane="-128361102#1_1" arrivalPos="274.68" arrivalSpeed="15.01" duration="194.00" routeLength="2232.46" waitingTime="9.00" waitingCount="2" stopTime="0.00" timeLoss="52.02" rerouteNo="1" devices="tripinfo_carIn17767:1 routing_carIn17767:1 emissions_carIn17767:1" vType="default_016" speedFactor="1.15" vaporized="">
        <emissions CO_abs="8060.194118" CO2_abs="549934.009935" HC_abs="49.337108" PMx_abs="9.639245" NOx_abs="221.767534" fuel_abs="236.393091" electricity_abs="0"/>
    </tripinfo>
    <tripinfo id="50R_frequency3.17" depart="57674.00" departLane="-18809673#6_1" departPos="12.10" departSpeed="0.00" departDelay="0.70" arrival="57837.00" arrivalLane="201956811#0_1" arrivalPos="40.40" arrivalSpeed="11.48" duration="163.00" routeLength="1954.47" waitingTime="0.00" waitingCount="0" stopTime="0.00" timeLoss="18.47" rerouteNo="1" devices="tripinfo_50R_frequency3.17 routing_50R_frequency3.17 emissions_50R_frequency3.17" vType="bus" speedFactor="1.00" vaporized="">
        <emissions CO_abs="3200.923713" CO2_abs="2032573.445185" HC_abs="684.412823" PMx_abs="344.468806" NOx_abs="15684.307366" fuel_abs="866.890809" electricity_abs="0"/>
    </tripinfo>
    <tripinfo id="h3864c1:3" depart="57678.00" departLane="24693977#1_1" departPos="5.10" departSpeed="0.00" departDelay="0.00" arrival="57840.00" arrivalLane="201956820_1" arrivalPos="48.33" arrivalSpeed="15.08" duration="162.00" routeLength="1574.85" waitingTime="23.00" waitingCount="1" stopTime="0.00" timeLoss="47.61" rerouteNo="1" devices="tripinfo_h3864c1:3 routing_h3864c1:3 emissions_h3864c1:3" vType="default_016" speedFactor="1.13" vaporized="">
        <emissions CO_abs="8477.722236" CO2_abs="450190.388715" HC_abs="49.133230" PMx_abs="8.242051" NOx_abs="184.926040" fuel_abs="193.518570" electricity_abs="0"/>
    </tripinfo>
    <tripinfo id="carIn73855:1" depart="57743.00" departLane="386687232#0_1" departPos="5.10" departSpeed="0.00" departDelay="0.50" arrival="57841.00" arrivalLane="-315358244_1" arrivalPos="33.95" arrivalSpeed="14.32" duration="98.00" routeLength="1157.39" waitingTime="4.00" waitingCount="1" stopTime="0.00" timeLoss="22.74" rerouteNo="1" devices="tripinfo_carIn73855:1 routing_carIn73855:1 emissions_carIn73855:1" vType="default_016" speedFactor="1.12" vaporized="">
        <emissions CO_abs="3640.137069" CO2_abs="263706.609323" HC_abs="22.469456" PMx_abs="4.511162" NOx_abs="105.319733" fuel_abs="113.356163" electricity_abs="0"/>
    </tripinfo>
    <tripinfo id="carIn126378:1" depart="57746.00" departLane="386687232#0_1" departPos="5.10" departSpeed="0.00" departDelay="1.80" arrival="57844.00" arrivalLane="-315358244_2" arrivalPos="33.95" arrivalSpeed="13.63" duration="98.00" routeLength="1157.39" waitingTime="2.00" waitingCount="1" stopTime="0.00" timeLoss="18.65" rerouteNo="1" devices="tripinfo_carIn126378:1 routing_carIn126378:1 emissions_carIn126378:1" vType="default_016" speedFactor="1.07" vaporized="">
        <emissions CO_abs="3527.258279" CO2_abs="263190.577747" HC_abs="22.168083" PMx_abs="4.434245" NOx_abs="104.972271" fuel_abs="113.134371" electricity_abs="0"/>
    </tripinfo>
    <tripinfo id="carIn12152:1" depart="57647.00" departLane="24599188#0.94_1" departPos="5.10" departSpeed="0.00" departDelay="0.50" arrival="57846.00" arrivalLane="-315358254#1_1" arrivalPos="137.16" arrivalSpeed="13.57" duration="199.00" routeLength="2034.31" waitingTime="19.00" waitingCount="2" stopTime="0.00" timeLoss="47.38" rerouteNo="1" devices="tripinfo_carIn12152:1 routing_carIn12152:1 emissions_carIn12152:1" vType="default_016" speedFactor="1.04" vaporized="">
        <emissions CO_abs="7482.458439" CO2_abs="467029.589351" HC_abs="44.855043" PMx_abs="7.596903" NOx_abs="184.685420" fuel_abs="200.757494" electricity_abs="0"/>
    </tripinfo>
    <tripinfo id="h17549c1:1" depart="57680.00" departLane="-447569998#1_1" departPos="5.10" departSpeed="0.00" departDelay="0.00" arrival="57849.00" arrivalLane="-315358254#1_1" arrivalPos="137.16" arrivalSpeed="13.60" duration="169.00" routeLength="1746.60" waitingTime="16.00" waitingCount="2" stopTime="0.00" timeLoss="37.69" rerouteNo="1" devices="tripinfo_h17549c1:1 routing_h17549c1:1 emissions_h17549c1:1" vType="default_016" speedFactor="1.04" vaporized="">
        <emissions CO_abs="5993.324461" CO2_abs="401393.072416" HC_abs="36.524572" PMx_abs="6.569332" NOx_abs="159.025035" fuel_abs="172.542509" electricity_abs="0"/>
    </tripinfo>
    <tripinfo id="carIn86816:1" depart="57617.00" departLane="128361102#0_1" departPos="5.10" departSpeed="0.00" departDelay="0.80" arrival="57855.00" arrivalLane="201956811#0_1" arrivalPos="40.40" arrivalSpeed="12.02" duration="238.00" routeLength="2067.33" waitingTime="52.00" waitingCount="2" stopTime="0.00" timeLoss="78.62" rerouteNo="1" devices="tripinfo_carIn86816:1 routing_carIn86816:1 emissions_carIn86816:1" vType="default_016" speedFactor="0.95" vaporized="">
        <emissions CO_abs="13213.355171" CO2_abs="560861.024881" HC_abs="73.274866" PMx_abs="10.184040" NOx_abs="230.428575" fuel_abs="241.093737" electricity_abs="0"/>
    </tripinfo>
    <tripinfo id="h5938c1:1" depart="57740.00" departLane="-26677542#0_1" departPos="5.10" departSpeed="0.00" departDelay="0.00" arrival="57857.00" arrivalLane="447569997#1_1" arrivalPos="180.93" arrivalSpeed="7.88" duration="117.00" routeLength="1093.64" waitingTime="0.00" waitingCount="0" stopTime="0.00" timeLoss="14.51" rerouteNo="1" devices="tripinfo_h5938c1:1 routing_h5938c1:1 emissions_h5938c1:1" vType="default_016" speedFactor="0.95" vaporized="">
        <emissions CO_abs="4017.630925" CO2_abs="236816.436061" HC_abs="23.768069" PMx_abs="3.771877" NOx_abs="94.445215" fuel_abs="101.798178" electricity_abs="0"/>
    </tripinfo>
    <tripinfo id="carIn102915:1" depart="57643.00" departLane="128361102#0_1" departPos="5.10" departSpeed="0.00" departDelay="0.40" arrival="57864.00" arrivalLane="201956811#0_1" arrivalPos="40.40" arrivalSpeed="11.65" duration="221.00" routeLength="2067.33" waitingTime="23.00" waitingCount="2" stopTime="0.00" timeLoss="48.58" rerouteNo="1" devices="tripinfo_carIn102915:1 routing_carIn102915:1 emissions_carIn102915:1" vType="default_016" speedFactor="0.88" vaporized="">
        <emissions CO_abs="9010.238271" CO2_abs="493752.920060" HC_abs="52.503814" PMx_abs="8.235202" NOx_abs="198.591944" fuel_abs="212.245232" electricity_abs="0"/>
    </tripinfo>
    <tripinfo id="carIn77438:1" depart="57613.00" departLane="124812856#0_1" departPos="5.10" departSpeed="0.00" departDelay="0.10" arrival="57865.00" arrivalLane="-128361102#1_1" arrivalPos="274.68" arrivalSpeed="13.78" duration="252.00" routeLength="2250.49" waitingTime="52.00" waitingCount="4" stopTime="0.00" timeLoss="94.55" rerouteNo="1" devices="tripinfo_carIn77438:1 routing_carIn77438:1 emissions_carIn77438:1" vType="default_016" speedFactor="1.04" vaporized="">
        <emissions CO_abs="13799.876221" CO2_abs="665035.605584" HC_abs="78.434286" PMx_abs="12.279488" NOx_abs="273.931775" fuel_abs="285.872742" electricity_abs="0"/>
    </tripinfo>
    <tripinfo id="randUni33724:1" depart="57646.00" departLane="128361102#0_1" departPos="5.10" departSpeed="0.00" departDelay="1.20" arrival="57866.00" arrivalLane="201956811#0_1" arrivalPos="40.40" arrivalSpeed="11.80" duration="220.00" routeLength="2067.33" waitingTime="33.00" waitingCount="2" stopTime="0.00" timeLoss="58.40" rerouteNo="1" devices="tripinfo_randUni33724:1 routing_randUni33724:1 emissions_randUni33724:1" vType="random_016" speedFactor="0.94" vaporized="">
        <emissions CO_abs="10520.397581" CO2_abs="528796.363461" HC_abs="60.231172" PMx_abs="9.096234" NOx_abs="213.834440" fuel_abs="227.309438" electricity_abs="0"/>
    </tripinfo>
    <tripinfo id="carIn107084:1" depart="57601.00" departLane="124812856#0_1" departPos="5.10" departSpeed="0.00" departDelay="0.70" arrival="57867.00" arrivalLane="-128361102#1_1" arrivalPos="274.68" arrivalSpeed="15.79" duration="266.00" routeLength="2250.49" waitingTime="50.00" waitingCount="5" stopTime="0.00" timeLoss="121.19" rerouteNo="1" devices="tripinfo_carIn107084:1 routing_carIn107084:1 emissions_carIn107084:1" vType="default_016" speedFactor="1.14" vaporized="">