<?xml version="1.0" encoding="UTF-8"?>

<!-- generated on 2021-10-26 14:52:06 by Eclipse SUMO sumo Version 1.10.0
<configuration xmlns:xsi="http://www.w3.org/2001/XMLSchema-instance" xsi:noNamespaceSchemaLocation="http://sumo.dlr.de/xsd/sumoConfiguration.xsd">

    <input>
        <net-file value="/Users/behradkoohy/sumo-scratchpad/RESCO/environments/ingolstadt21/ingolstadt21.net.xml"/>
        <route-files value="/Users/behradkoohy/sumo-scratchpad/RESCO/environments/ingolstadt21/ingolstadt21.rou.xml"/>
    </input>

    <output>
        <tripinfo-output value="/Users/behradkoohy/sumo-scratchpad/RESCO/logs/STOCHASTIC-tr0-ingolstadt21-21-mplight-wait/tripinfo_96.xml"/>
        <tripinfo-output.write-unfinished value="true"/>
    </output>

    <time>
        <begin value="57600"/>
        <end value="61200"/>
    </time>

    <processing>
        <time-to-teleport value="-1"/>
    </processing>

    <report>
        <no-warnings value="true"/>
        <no-step-log value="true"/>
    </report>

    <emissions>
        <device.emissions.probability value="1"/>
    </emissions>

    <traci_server>
        <remote-port value="60766"/>
    </traci_server>

    <random_number>
        <random value="true"/>
    </random_number>

</configuration>
-->

<tripinfos xmlns:xsi="http://www.w3.org/2001/XMLSchema-instance" xsi:noNamespaceSchemaLocation="http://sumo.dlr.de/xsd/tripinfo_file.xsd">
    <tripinfo id="h15454c2:3" depart="57612.00" departLane="24608844_1" departPos="5.10" departSpeed="0.00" departDelay="0.50" arrival="57657.00" arrivalLane="32978638#0_1" arrivalPos="49.29" arrivalSpeed="12.19" duration="45.00" routeLength="354.79" waitingTime="0.00" waitingCount="0" stopTime="0.00" timeLoss="7.15" rerouteNo="1" devices="tripinfo_h15454c2:3 routing_h15454c2:3 emissions_h15454c2:3" vType="default_016" speedFactor="0.91" vaporized="">
        <emissions CO_abs="2260.848449" CO2_abs="114242.210447" HC_abs="12.925397" PMx_abs="1.845484" NOx_abs="46.066072" fuel_abs="49.108485" electricity_abs="0"/>
    </tripinfo>
    <tripinfo id="carIn53971:1" depart="57640.00" departLane="272042143_1" departPos="5.10" departSpeed="0.00" departDelay="0.80" arrival="57692.00" arrivalLane="24634414#1_1" arrivalPos="162.19" arrivalSpeed="8.09" duration="52.00" routeLength="493.04" waitingTime="0.00" waitingCount="0" stopTime="0.00" timeLoss="8.58" rerouteNo="1" devices="tripinfo_carIn53971:1 routing_carIn53971:1 emissions_carIn53971:1" vType="default_016" speedFactor="1.06" vaporized="">
        <emissions CO_abs="2456.717069" CO2_abs="142938.562052" HC_abs="14.480267" PMx_abs="2.527348" NOx_abs="58.713747" fuel_abs="61.443354" electricity_abs="0"/>
    </tripinfo>
    <tripinfo id="h7800c1:5" depart="57696.00" departLane="-447569998#1_1" departPos="5.10" departSpeed="0.00" departDelay="0.00" arrival="57725.00" arrivalLane="-447569998#1_2" arrivalPos="180.76" arrivalSpeed="2.97" duration="29.00" routeLength="175.66" waitingTime="2.00" waitingCount="1" stopTime="0.00" timeLoss="8.38" rerouteNo="1" devices="tripinfo_h7800c1:5 routing_h7800c1:5 emissions_h7800c1:5" vType="default_016" speedFactor="1.03" vaporized="">
        <emissions CO_abs="1213.255724" CO2_abs="48181.361912" HC_abs="6.638837" PMx_abs="0.854007" NOx_abs="20.038793" fuel_abs="20.711473" electricity_abs="0"/>
    </tripinfo>
    <tripinfo id="h3688c1:1" depart="57625.00" departLane="201201950#1_1" departPos="5.10" departSpeed="0.00" departDelay="0.00" arrival="57740.00" arrivalLane="32978638#0_1" arrivalPos="49.29" arrivalSpeed="15.00" duration="115.00" routeLength="1089.75" waitingTime="27.00" waitingCount="1" stopTime="0.00" timeLoss="41.90" rerouteNo="1" devices="tripinfo_h3688c1:1 routing_h3688c1:1 emissions_h3688c1:1" vType="default_016" speedFactor="1.10" vaporized="">
        <emissions CO_abs="7170.780576" CO2_abs="326626.210517" HC_abs="39.984027" PMx_abs="5.967468" NOx_abs="133.296792" fuel_abs="140.404267" electricity_abs="0"/>
    </tripinfo>
    <tripinfo id="h317c2:1" depart="57707.00" departLane="-32978638#0_1" departPos="5.10" departSpeed="0.00" departDelay="0.10" arrival="57745.00" arrivalLane="-266565295#5_1" arrivalPos="172.76" arrivalSpeed="12.62" duration="38.00" routeLength="370.53" waitingTime="1.00" waitingCount="1" stopTime="0.00" timeLoss="10.31" rerouteNo="1" devices="tripinfo_h317c2:1 routing_h317c2:1 emissions_h317c2:1" vType="default_016" speedFactor="1.00" vaporized="">
        <emissions CO_abs="2120.924665" CO2_abs="115970.229025" HC_abs="12.403416" PMx_abs="2.214079" NOx_abs="48.678638" fuel_abs="49.850657" electricity_abs="0"/>
    </tripinfo>
    <tripinfo id="carIn60260:1" depart="57606.00" departLane="315358254#0_1" departPos="5.10" departSpeed="0.00" departDelay="0.90" arrival="57750.00" arrivalLane="399835085#1_1" arrivalPos="212.23" arrivalSpeed="6.11" duration="144.00" routeLength="430.98" waitingTime="81.00" waitingCount="1" stopTime="0.00" timeLoss="90.43" rerouteNo="1" devices="tripinfo_carIn60260:1 routing_carIn60260:1 emissions_carIn60260:1" vType="default_016" speedFactor="0.87" vaporized="">
        <emissions CO_abs="15247.475067" CO2_abs="319515.239141" HC_abs="76.856570" PMx_abs="6.922031" NOx_abs="140.005118" fuel_abs="137.352709" electricity_abs="0"/>
    </tripinfo>
    <tripinfo id="h4538c1:1" depart="57701.00" departLane="-10427692#1_1" departPos="5.10" departSpeed="0.00" departDelay="0.00" arrival="57750.00" arrivalLane="-128361102#1_1" arrivalPos="274.68" arrivalSpeed="16.11" duration="49.00" routeLength="440.74" waitingTime="14.00" waitingCount="1" stopTime="0.00" timeLoss="23.91" rerouteNo="1" devices="tripinfo_h4538c1:1 routing_h4538c1:1 emissions_h4538c1:1" vType="default_016" speedFactor="1.25" vaporized="">
        <emissions CO_abs="3506.585847" CO2_abs="151350.777420" HC_abs="19.509413" PMx_abs="3.041416" NOx_abs="63.785749" fuel_abs="65.059710" electricity_abs="0"/>
    </tripinfo>
    <tripinfo id="h7181c1:1" depart="57660.00" departLane="315358254#0_1" departPos="5.10" departSpeed="0.00" departDelay="0.10" arrival="57761.00" arrivalLane="306240162#0_0" arrivalPos="220.43" arrivalSpeed="16.80" duration="101.00" routeLength="932.35" waitingTime="31.00" waitingCount="2" stopTime="0.00" timeLoss="49.72" rerouteNo="1" devices="tripinfo_h7181c1:1 routing_h7181c1:1 emissions_h7181c1:1" vType="default_016" speedFactor="1.01" vaporized="">
        <emissions CO_abs="8252.445394" CO2_abs="355606.368179" HC_abs="46.008664" PMx_abs="7.234613" NOx_abs="148.879077" fuel_abs="152.861158" electricity_abs="0"/>
    </tripinfo>
    <tripinfo id="carIn30817:1" depart="57681.00" departLane="315358244_1" departPos="5.10" departSpeed="0.00" departDelay="0.20" arrival="57763.00" arrivalLane="447569997#1_1" arrivalPos="180.93" arrivalSpeed="8.26" duration="82.00" routeLength="718.04" waitingTime="8.00" waitingCount="1" stopTime="0.00" timeLoss="22.15" rerouteNo="1" devices="tripinfo_carIn30817:1 routing_carIn30817:1 emissions_carIn30817:1" vType="default_016" speedFactor="1.03" vaporized="">
        <emissions CO_abs="3241.132029" CO2_abs="183770.693595" HC_abs="19.003378" PMx_abs="2.995297" NOx_abs="73.220614" fuel_abs="78.995926" electricity_abs="0"/>
    </tripinfo>
    <tripinfo id="h3326c1:2" depart="57656.00" departLane="22716069#0_1" departPos="5.10" departSpeed="0.00" departDelay="0.00" arrival="57766.00" arrivalLane="24634517#13_1" arrivalPos="111.62" arrivalSpeed="13.51" duration="110.00" routeLength="1312.81" waitingTime="0.00" waitingCount="0" stopTime="0.00" timeLoss="14.69" rerouteNo="1" devices="tripinfo_h3326c1:2 routing_h3326c1:2 emissions_h3326c1:2" vType="default_016" speedFactor="1.02" vaporized="">
        <emissions CO_abs="4017.897028" CO2_abs="309757.507965" HC_abs="25.507150" PMx_abs="5.226383" NOx_abs="124.025240" fuel_abs="133.151336" electricity_abs="0"/>
    </tripinfo>
    <tripinfo id="carIn80064:1" depart="57603.00" departLane="128361109#1_1" departPos="5.10" departSpeed="0.00" departDelay="0.40" arrival="57768.00" arrivalLane="-315358254#1_1" arrivalPos="137.16" arrivalSpeed="15.19" duration="165.00" routeLength="1587.97" waitingTime="51.00" waitingCount="2" stopTime="0.00" timeLoss="83.81" rerouteNo="1" devices="tripinfo_carIn80064:1 routing_carIn80064:1 emissions_carIn80064:1" vType="default_016" speedFactor="1.10" vaporized="">
        <emissions CO_abs="15095.571718" CO2_abs="623707.905847" HC_abs="83.602624" PMx_abs="13.173750" NOx_abs="264.803736" fuel_abs="268.107176" electricity_abs="0"/>
    </tripinfo>
    <tripinfo id="carIn22761:1" depart="57616.00" departLane="-306240162#1_0" departPos="5.10" departSpeed="0.00" departDelay="2.10" arrival="57770.00" arrivalLane="399835085#1_1" arrivalPos="212.23" arrivalSpeed="6.65" duration="154.00" routeLength="1093.26" waitingTime="39.00" waitingCount="2" stopTime="0.00" timeLoss="64.79" rerouteNo="1" devices="tripinfo_carIn22761:1 routing_carIn22761:1 emissions_carIn22761:1" vType="default_016" speedFactor="0.87" vaporized="">
        <emissions CO_abs="10341.015108" CO2_abs="375311.758030" HC_abs="55.930940" PMx_abs="7.410369" NOx_abs="158.053732" fuel_abs="161.333234" electricity_abs="0"/>
    </tripinfo>
    <tripinfo id="h3568c1:3" depart="57656.00" departLane="266565295#5_1" departPos="5.10" departSpeed="0.00" departDelay="0.80" arrival="57773.00" arrivalLane="-24634415_1" arrivalPos="62.03" arrivalSpeed="10.65" duration="117.00" routeLength="807.40" waitingTime="22.00" waitingCount="1" stopTime="0.00" timeLoss="39.44" rerouteNo="1" devices="tripinfo_h3568c1:3 routing_h3568c1:3 emissions_h3568c1:3" vType="default_016" speedFactor="0.83" vaporized="">
        <emissions CO_abs="6620.253155" CO2_abs="262372.495208" HC_abs="36.257069" PMx_abs="4.798156" NOx_abs="109.026199" fuel_abs="112.784603" electricity_abs="0"/>
    </tripinfo>
    <tripinfo id="h330c1:1" depart="57736.00" departLane="-32978638#0_1" departPos="5.10" departSpeed="0.00" departDelay="0.20" arrival="57777.00" arrivalLane="-266565295#5_1" arrivalPos="172.76" arrivalSpeed="11.97" duration="41.00" routeLength="370.53" waitingTime="1.00" waitingCount="1" stopTime="0.00" timeLoss="11.07" rerouteNo="1" devices="tripinfo_h330c1:1 routing_h330c1:1 emissions_h330c1:1" vType="default_016" speedFactor="0.92" vaporized="">
        <emissions CO_abs="1916.775418" CO2_abs="105171.920326" HC_abs="11.190551" PMx_abs="1.862474" NOx_abs="43.189400" fuel_abs="45.209143" electricity_abs="0"/>
    </tripinfo>
    <tripinfo id="h3154c1:1" depart="57658.00" departLane="24634507_1" departPos="5.10" departSpeed="0.00" departDelay="0.00" arrival="57785.00" arrivalLane="-266565295#5_1" arrivalPos="172.76" arrivalSpeed="15.21" duration="127.00" routeLength="1206.22" waitingTime="32.00" waitingCount="1" stopTime="0.00" timeLoss="47.63" rerouteNo="1" devices="tripinfo_h3154c1:1 routing_h3154c1:1 emissions_h3154c1:1" vType="default_016" speedFactor="1.12" vaporized="">
        <emissions CO_abs="8908.833938" CO2_abs="381956.690617" HC_abs="49.496748" PMx_abs="7.362277" NOx_abs="158.847264" fuel_abs="164.188617" electricity_abs="0"/>
    </tripinfo>
    <tripinfo id="carIn12365:1" depart="57713.00" departLane="315358244_1" departPos="5.10" departSpeed="0.00" departDelay="0.50" arrival="57798.00" arrivalLane="447569997#1_1" arrivalPos="180.93" arrivalSpeed="7.83" duration="85.00" routeLength="718.04" waitingTime="13.00" waitingCount="1" stopTime="0.00" timeLoss="28.39" rerouteNo="1" devices="tripinfo_carIn12365:1 routing_carIn12365:1 emissions_carIn12365:1" vType="default_016" speedFactor="1.08" vaporized="">
        <emissions CO_abs="4671.376797" CO2_abs="213612.464061" HC_abs="26.290409" PMx_abs="3.978974" NOx_abs="88.743401" fuel_abs="91.823725" electricity_abs="0"/>
    </tripinfo>
    <tripinfo id="carIn86816:1" depart="57617.00" departLane="128361102#0_1" departPos="5.10" departSpeed="0.00" departDelay="0.80" arrival="57801.00" arrivalLane="201956811#0_1" arrivalPos="40.40" arrivalSpeed="13.86" duration="184.00" routeLength="2067.33" waitingTime="14.00" waitingCount="2" stopTime="0.00" timeLoss="40.37" rerouteNo="1" devices="tripinfo_carIn86816:1 routing_carIn86816:1 emissions_carIn86816:1" vType="default_016" speedFactor="1.05" vaporized="">
        <emissions CO_abs="7382.463090" CO2_abs="503039.256817" HC_abs="45.353745" PMx_abs="8.595239" NOx_abs="201.607695" fuel_abs="216.235414" electricity_abs="0"/>
    </tripinfo>
    <tripinfo id="carIn12858:1" depart="57661.00" departLane="128361109#1_1" departPos="5.10" departSpeed="0.00" departDelay="0.90" arrival="57803.00" arrivalLane="399835085#1_1" arrivalPos="212.23" arrivalSpeed="7.91" duration="142.00" routeLength="1738.12" waitingTime="0.00" waitingCount="0" stopTime="0.00" timeLoss="29.09" rerouteNo="1" devices="tripinfo_carIn12858:1 routing_carIn12858:1 emissions_carIn12858:1" vType="default_016" speedFactor="1.01" vaporized="">
        <emissions CO_abs="7989.293474" CO2_abs="519686.754658" HC_abs="48.775472" PMx_abs="9.885656" NOx_abs="213.910828" fuel_abs="223.390351" electricity_abs="0"/>
    </tripinfo>
    <tripinfo id="h16072c2:3" depart="57663.00" departLane="315358254#0_1" departPos="5.10" departSpeed="0.00" departDelay="2.50" arrival="57806.00" arrivalLane="386687235_1" arrivalPos="80.84" arrivalSpeed="14.26" duration="143.00" routeLength="1611.92" waitingTime="9.00" waitingCount="2" stopTime="0.00" timeLoss="28.69" rerouteNo="1" devices="tripinfo_h16072c2:3 routing_h16072c2:3 emissions_h16072c2:3" vType="default_016" speedFactor="1.03" vaporized="">
        <emissions CO_abs="4654.112960" CO2_abs="355340.958932" HC_abs="29.445479" PMx_abs="5.860535" NOx_abs="140.803523" fuel_abs="152.745994" electricity_abs="0"/>
    </tripinfo>
    <tripinfo id="carIn27009:1" depart="57673.00" departLane="-447569998#1_1" departPos="5.10" departSpeed="0.00" departDelay="0.50" arrival="57806.00" arrivalLane="-26677539_1" arrivalPos="152.75" arrivalSpeed="6.72" duration="133.00" routeLength="699.63" waitingTime="18.00" waitingCount="1" stopTime="0.00" timeLoss="33.43" rerouteNo="1" devices="tripinfo_carIn27009:1 routing_carIn27009:1 emissions_carIn27009:1" vType="default_015" speedFactor="0.85" vaporized="">
        <emissions CO_abs="7358.033877" CO2_abs="237224.310227" HC_abs="38.943033" PMx_abs="4.180208" NOx_abs="98.563378" fuel_abs="101.975604" electricity_abs="0"/>
    </tripinfo>
    <tripinfo id="carIn82278:1" depart="57702.00" departLane="-306240162#1_0" departPos="5.10" departSpeed="0.00" departDelay="0.70" arrival="57811.00" arrivalLane="399835085#1_1" arrivalPos="212.23" arrivalSpeed="8.31" duration="109.00" routeLength="1093.26" waitingTime="13.00" waitingCount="1" stopTime="0.00" timeLoss="33.06" rerouteNo="1" devices="tripinfo_carIn82278:1 routing_carIn82278:1 emissions_carIn82278:1" vType="default_016" speedFactor="1.03" vaporized="">
        <emissions CO_abs="6274.946152" CO2_abs="335114.074859" HC_abs="36.542889" PMx_abs="6.416923" NOx_abs="138.380920" fuel_abs="144.051599" electricity_abs="0"/>
    </tripinfo>
    <tripinfo id="carIn81046:1" depart="57611.00" departLane="124812856#0_1" departPos="5.10" departSpeed="0.00" departDelay="2.50" arrival="57813.00" arrivalLane="-128361102#1_1" arrivalPos="274.68" arrivalSpeed="15.21" duration="202.00" routeLength="2232.46" waitingTime="19.00" waitingCount="3" stopTime="0.00" timeLoss="59.56" rerouteNo="1" devices="tripinfo_carIn81046:1 routing_carIn81046:1 emissions_carIn81046:1" vType="default_016" speedFactor="1.15" vaporized="">
        <emissions CO_abs="9880.214015" CO2_abs="612950.303866" HC_abs="59.339629" PMx_abs="11.361534" NOx_abs="251.490922" fuel_abs="263.480922" electricity_abs="0"/>
    </tripinfo>
    <tripinfo id="h12244c1:3" depart="57612.00" departLane="315358244_1" departPos="5.10" departSpeed="0.00" departDelay="0.40" arrival="57824.00" arrivalLane="386687235_1" arrivalPos="80.84" arrivalSpeed="13.07" duration="212.00" routeLength="1186.14" waitingTime="102.00" waitingCount="4" stopTime="0.00" timeLoss="127.76" rerouteNo="1" devices="tripinfo_h12244c1:3 routing_h12244c1:3 emissions_h12244c1:3" vType="default_016" speedFactor="1.03" vaporized="">
        <emissions CO_abs="17788.182959" CO2_abs="505218.058388" HC_abs="92.787032" PMx_abs="10.311628" NOx_abs="214.897523" fuel_abs="217.178141" electricity_abs="0"/>
    </tripinfo>
    <tripinfo id="carIn107282:1" depart="57749.00" departLane="-447569998#1_1" departPos="5.10" departSpeed="0.00" departDelay="0.00" arrival="57824.00" arrivalLane="315358242#0_1" arrivalPos="165.37" arrivalSpeed="15.50" duration="75.00" routeLength="448.50" waitingTime="28.00" waitingCount="1" stopTime="0.00" timeLoss="37.11" rerouteNo="1" devices="tripinfo_carIn107282:1 routing_carIn107282:1 emissions_carIn107282:1" vType="default_016" speedFactor="1.12" vaporized="">
        <emissions CO_abs="6070.158901" CO2_abs="195061.422463" HC_abs="32.163155" PMx_abs="3.836937" NOx_abs="82.354607" fuel_abs="83.850575" electricity_abs="0"/>
    </tripinfo>
    <tripinfo id="h9563c2:5" depart="57631.00" departLane="315358244_1" departPos="5.10" departSpeed="0.00" departDelay="0.70" arrival="57832.00" arrivalLane="386687235_1" arrivalPos="80.84" arrivalSpeed="12.31" duration="201.00" routeLength="1186.14" waitingTime="78.00" waitingCount="5" stopTime="0.00" timeLoss="108.83" rerouteNo="1" devices="tripinfo_h9563c2:5 routing_h9563c2:5 emissions_h9563c2:5" vType="default_016" speedFactor="0.94" vaporized="">
        <emissions CO_abs="14128.635570" CO2_abs="420105.061122" HC_abs="74.192640" PMx_abs="8.550013" NOx_abs="179.345886" fuel_abs="180.590003" electricity_abs="0"/>
    </tripinfo>
    <tripinfo id="carIn121703:1" depart="57647.00" departLane="386687232#0_1" departPos="5.10" departSpeed="0.00" departDelay="0.30" arrival="57844.00" arrivalLane="-315358244_1" arrivalPos="33.95" arrivalSpeed="12.44" duration="197.00" routeLength="1157.39" waitingTime="87.00" waitingCount="3" stopTime="0.00" timeLoss="110.49" rerouteNo="1" devices="tripinfo_carIn121703:1 routing_carIn121703:1 emissions_carIn121703:1" vType="default_016" speedFactor="0.98" vaporized="">
        <emissions CO_abs="16708.280641" CO2_abs="486543.471960" HC_abs="87.502376" PMx_abs="9.952985" NOx_abs="207.700803" fuel_abs="209.150047" electricity_abs="0"/>
    </tripinfo>
    <tripinfo id="carIn129809:1" depart="57729.00" departLane="-447569998#1_1" departPos="5.10" departSpeed="0.00" departDelay="1.00" arrival="57845.00" arrivalLane="-315358244_2" arrivalPos="33.95" arrivalSpeed="10.57" duration="116.00" routeLength="706.49" waitingTime="26.00" waitingCount="1" stopTime="0.00" timeLoss="39.68" rerouteNo="1" devices="tripinfo_carIn129809:1 routing_carIn129809:1 emissions_carIn129809:1" vType="default_015" speedFactor="0.80" vaporized="">
        <emissions CO_abs="6849.944401" CO2_abs="228967.798005" HC_abs="36.482435" PMx_abs="4.150277" NOx_abs="95.068253" fuel_abs="98.426069" electricity_abs="0"/>
    </tripinfo>
    <tripinfo id="h645c1:1" depart="57622.00" departLane="266565295#5_1" departPos="5.10" departSpeed="0.00" departDelay="0.40" arrival="57846.00" arrivalLane="-315358244_1" arrivalPos="33.95" arrivalSpeed="12.14" duration="224.00" routeLength="1910.83" waitingTime="49.00" waitingCount="3" stopTime="0.00" timeLoss="76.53" rerouteNo="1" devices="tripinfo_h645c1:1 routing_h645c1:1 emissions_h645c1:1" vType="default_016" speedFactor="0.94" vaporized="">
        <emissions CO_abs="10506.869333" CO2_abs="500488.211624" HC_abs="59.522556" PMx_abs="8.773369" NOx_abs="203.397587" fuel_abs="215.141065" electricity_abs="0"/>
    </tripinfo>
    <tripinfo id="randUni15030:1" depart="57735.00" departLane="386687232#0_1" departPos="5.10" departSpeed="0.00" departDelay="0.10" arrival="57846.00" arrivalLane="26677539_1" arrivalPos="151.98" arrivalSpeed="7.35" duration="111.00" routeLength="919.89" waitingTime="3.00" waitingCount="1" stopTime="0.00" timeLoss="17.80" rerouteNo="1" devices="tripinfo_randUni15030:1 routing_randUni15030:1 emissions_randUni15030:1" vType="random_016" speedFactor="0.89" vaporized="">
        <emissions CO_abs="3971.240488" CO2_abs="214264.354044" HC_abs="23.018238" PMx_abs="3.399297" NOx_abs="85.659510" fuel_abs="92.104192" electricity_abs="0"/>
    </tripinfo>
    <tripinfo id="carIn126378:1" depart="57746.00" departLane="386687232#0_1" departPos="5.10" departSpeed="0.00" departDelay="1.80" arrival="57847.00" arrivalLane="-315358244_2" arrivalPos="33.95" arrivalSpeed="13.40" duration="101.00" routeLength="1157.39" waitingTime="6.00" waitingCount="1" stopTime="0.00" timeLoss="24.12" rerouteNo="1" devices="tripinfo_carIn126378:1 routing_carIn126378:1 emissions_carIn126378:1" vType="default_016" speedFactor="1.11" vaporized="">
        <emissions CO_abs="3558.893163" CO2_abs="253258.496826" HC_abs="21.972939" PMx_abs="4.281230" NOx_abs="100.815612" fuel_abs="108.865122" electricity_abs="0"/>
    </tripinfo>
    <tripinfo id="carIn8642:1" depart="57774.00" departLane="-447569998#1_1" departPos="5.10" departSpeed="0.00" departDelay="0.90" arrival="57853.00" arrivalLane="-315358244_1" arrivalPos="33.95" arrivalSpeed="12.11" duration="79.00" routeLength="706.49" waitingTime="0.00" waitingCount="0" stopTime="0.00" timeLoss="11.44" rerouteNo="1" devices="tripinfo_carIn8642:1 routing_carIn8642:1 emissions_carIn8642:1" vType="default_016" speedFactor="0.90" vaporized="">
        <emissions CO_abs="3036.939610" CO2_abs="167011.652891" HC_abs="17.698726" PMx_abs="2.752953" NOx_abs="67.337954" fuel_abs="71.791834" electricity_abs="0"/>
    </tripinfo>
    <tripinfo id="S5R_frequency1.2" depart="57677.00" departLane="315358250#0_1" departPos="12.10" departSpeed="0.00" departDelay="65.40" arrival="57856.00" arrivalLane="386687235_1" arrivalPos="80.84" arrivalSpeed="12.94" duration="179.00" routeLength="1115.62" waitingTime="59.00" waitingCount="4" stopTime="0.00" timeLoss="97.74" rerouteNo="1" devices="tripinfo_S5R_frequency1.2 routing_S5R_frequency1.2 emissions_S5R_frequency1.2" vType="bus" speedFactor="1.00" vaporized="">
        <emissions CO_abs="2940.429989" CO2_abs="1453781.279502" HC_abs="644.841185" PMx_abs="306.535990" NOx_abs="12331.710636" fuel_abs="619.893096" electricity_abs="0"/>
    </tripinfo>
    <tripinfo id="h11737c1:1" depart="57665.00" departLane="272042143_1" departPos="5.10" departSpeed="0.00" departDelay="1.50" arrival="57856.00" arrivalLane="-315358254#1_1" arrivalPos="137.16" arrivalSpeed="14.15" duration="191.00" routeLength="1596.88" waitingTime="62.00" waitingCount="2" stopTime="0.00" timeLoss="82.13" rerouteNo="1" devices="tripinfo_h11737c1:1 routing_h11737c1:1 emissions_h11737c1:1" vType="default_016" speedFactor="1.07" vaporized="">
        <emissions CO_abs="13459.799466" CO2_abs="491590.038187" HC_abs="72.744309" PMx_abs="9.465504" NOx_abs="204.481406" fuel_abs="211.317529" electricity_abs="0"/>
    </tripinfo>
    <tripinfo id="carIn126288:1" depart="57674.00" departLane="272042143_1" departPos="5.10" departSpeed="0.00" departDelay="0.00" arrival="57859.00" arrivalLane="-315358254#1_1" arrivalPos="137.16" arrivalSpeed="13.89" duration="185.00" routeLength="1596.88" waitingTime="53.00" waitingCount="1" stopTime="0.00" timeLoss="70.91" rerouteNo="1" devices="tripinfo_carIn126288:1 routing_carIn126288:1 emissions_carIn126288:1" vType="default_016" speedFactor="1.02" vaporized="">
        <emissions CO_abs="12268.399776" CO2_abs="466949.126649" HC_abs="66.742268" PMx_abs="8.781991" NOx_abs="193.079480" fuel_abs="200.725115" electricity_abs="0"/>
    </tripinfo>
    <tripinfo id="h6541c1:3" depart="57727.00" departLane="201950247#3_1" departPos="5.10" departSpeed="0.00" departDelay="0.00" arrival="57860.00" arrivalLane="32978638#0_1" arrivalPos="49.29" arrivalSpeed="14.26" duration="133.00" routeLength="1176.17" waitingTime="14.00" waitingCount="2" stopTime="0.00" timeLoss="35.49" rerouteNo="1" devices="tripinfo_h6541c1:3 routing_h6541c1:3 emissions_h6541c1:3" vType="default_016" speedFactor="1.05" vaporized="">
        <emissions CO_abs="6263.296908" CO2_abs="327952.179543" HC_abs="36.166934" PMx_abs="5.926124" NOx_abs="135.196926" fuel_abs="140.973420" electricity_abs="0"/>
    </tripinfo>
    <tripinfo id="carIn12152:1" depart="57647.00" departLane="24599188#0.94_1" departPos="5.10" departSpeed="0.00" departDelay="0.50" arrival="57861.00" arrivalLane="-315358254#1_1" arrivalPos="137.16" arrivalSpeed="14.05" duration="214.00" routeLength="2034.31" waitingTime="40.00" waitingCount="2" stopTime="0.00" timeLoss="64.89" rerouteNo="1" devices="tripinfo_carIn12152:1 routing_carIn12152:1 emissions_carIn12152:1" vType="default_016" speedFactor="1.06" vaporized="">
        <emissions CO_abs="10998.511024" CO2_abs="514662.986724" HC_abs="62.056918" PMx_abs="9.299892" NOx_abs="210.350578" fuel_abs="221.234055" electricity_abs="0"/>
    </tripinfo>
    <tripinfo id="h5979c1:5" depart="57669.00" departLane="399835085#1_1" departPos="5.10" departSpeed="0.00" departDelay="0.00" arrival="57863.00" arrivalLane="-315358254#1_1" arrivalPos="137.16" arrivalSpeed="14.60" duration="194.00" routeLength="659.33" waitingTime="111.00" waitingCount="1" stopTime="0.00" timeLoss="126.86" rerouteNo="1" devices="tripinfo_h5979c1:5 routing_h5979c1:5 emissions_h5979c1:5" vType="default_016" speedFactor="1.09" vaporized="">
        <emissions CO_abs="21643.041388" CO2_abs="482375.677206" HC_abs="109.836267" PMx_abs="10.569033" NOx_abs="211.688263" fuel_abs="207.361585" electricity_abs="0"/>
    </tripinfo>
    <tripinfo id="h8343c1:5" depart="57679.00" departLane="315358254#0_1" departPos="5.10" departSpeed="0.00" departDelay="0.60" arrival="57866.00" arrivalLane="-24634510#5_1" arrivalPos="236.88" arrivalSpeed="14.12" duration="187.00" routeLength="2056.84" waitingTime="36.00" waitingCount="2" stopTime="0.00" timeLoss="64.83" rerouteNo="1" devices="tripinfo_h8343c1:5 routing_h8343c1:5 emissions_h8343c1:5" vType="default_016" speedFactor="1.02" vaporized="">
        <emissions CO_abs="11628.885462" CO2_abs="616200.471992" HC_abs="67.601699" PMx_abs="12.026072" NOx_abs="255.092563" fuel_abs="264.878753" electricity_abs="0"/>
    </tripinfo>
    <tripinfo id="carIn118591:1" depart="57689.00" departLane="315358244_1" departPos="5.10" departSpeed="0.00" departDelay="0.20" arrival="57866.00" arrivalLane="386687235_1" arrivalPos="80.84" arrivalSpeed="14.33" duration="177.00" routeLength="1186.14" waitingTime="50.00" waitingCount="6" stopTime="0.00" timeLoss="93.71" rerouteNo="1" devices="tripinfo_carIn118591:1 routing_carIn118591:1 emissions_carIn118591:1" vType="default_016" speedFactor="1.04" vaporized="">
        <emissions CO_abs="10374.807226" CO2_abs="403390.802744" HC_abs="56.636045" PMx_abs="7.755980" NOx_abs="168.797040" fuel_abs="173.403063" electricity_abs="0"/>
    </tripinfo>
    <tripinfo id="50R_frequency3.17" depart="57674.00" departLane="-18809673#6_1" departPos="12.10" departSpeed="0.00" departDelay="0.70" arrival="57867.00" arrivalLane="201956811#0_1" arrivalPos="40.40" arrivalSpeed="13.57" duration="193.00" routeLength="1954.47" waitingTime="24.00" waitingCount="1" stopTime="0.00" timeLoss="47.93" rerouteNo="1" devices="tripinfo_50R_frequency3.17 routing_50R_frequency3.17 emissions_50R_frequency3.17" vType="bus" speedFactor="1.00" vaporized="">
        <emissions CO_abs="3740.038065" CO2_abs="2242211.822911" HC_abs="791.144092" PMx_abs="398.425877" NOx_abs="17676.480059" fuel_abs="956.240879" electricity_abs="0"/>
    </tripinfo>
    <tripinfo id="randUni31145:1" depart="57814.00" departLane="10425609#0_1" departPos="5.10" departSpeed="0.00" departDelay="0.30" arrival="57869.00" arrivalLane="201956810_1" arrivalPos="71.65" arrivalSpeed="9.75" duration="55.00" routeLength="255.78" waitingTime="19.00" waitingCount="1" stopTime="0.00" timeLoss="29.23" rerouteNo="1" devices="tripinfo_randUni31145:1 routing_randUni31145:1 emissions_randUni31145:1" vType="random_016" speedFactor="0.78" vaporized="">
        <emissions CO_abs="4257.913874" CO2_abs="127765.752762" HC_abs="22.374922" PMx_abs="2.569644" NOx_abs="54.798179" fuel_abs="54.922460" electricity_abs="0"/>
    </tripinfo>
    <tripinfo id="randUni2407:1" depart="57820.00" departLane="10425609#0_1" departPos="5.10" departSpeed="0.00" departDelay="0.80" arrival="57871.00" arrivalLane="201956810_1" arrivalPos="71.65" arrivalSpeed="14.04" duration="51.00" routeLength="255.78" waitingTime="16.00" waitingCount="1" stopTime="0.00" timeLoss="31.09" rerouteNo="1" devices="tripinfo_randUni2407:1 routing_randUni2407:1 emissions_randUni2407:1" vType="random_016" speedFactor="1.02" vaporized="">
        <emissions CO_abs="4224.618337" CO2_abs="144207.042799" HC_abs="22.630492" PMx_abs="2.926696" NOx_abs="62.020559" fuel_abs="61.989514" electricity_abs="0"/>
    </tripinfo>
    <tripinfo id="carIn50326:1" depart="57651.00" departLane="128361102#0_1" departPos="5.10" departSpeed="0.00" departDelay="0.30" arrival="57872.00" arrivalLane="18809673#0_1" arrivalPos="473.56" arrivalSpeed="13.03" duration="221.00" routeLength="1591.07" waitingTime="69.00" waitingCount="2" stopTime="0.00" timeLoss="92.61" rerouteNo="1" devices="tripinfo_carIn50326:1 routing_carIn50326:1 emissions_carIn50326:1" vType="default_016" speedFactor="1.01" vaporized="">
        <emissions CO_abs="14783.513993" CO2_abs="517130.251476" HC_abs="79.373033" PMx_abs="9.794990" NOx_abs="215.215184" fuel_abs="222.297057" electricity_abs="0"/>
    </tripinfo>
    <tripinfo id="carIn46110:1" depart="57684.00" departLane="315358244_1" departPos="5.10" departSpeed="0.00" departDelay="1.20" arrival="57875.00" arrivalLane="32978638#0_2" arrivalPos="49.29" arrivalSpeed="14.53" duration="191.00" routeLength="1768.36" waitingTime="42.00" waitingCount="3" stopTime="0.00" timeLoss="76.99" rerouteNo="1" devices="tripinfo_carIn46110:1 routing_carIn46110:1 emissions_carIn46110:1" vType="default_016" speedFactor="1.13" vaporized="">
        <emissions CO_abs="11584.903644" CO2_abs="508735.654173" HC_abs="64.518247" PMx_abs="9.721439" NOx_abs="211.029020" fuel_abs="218.685925" electricity_abs="0"/>