<?xml version="1.0" encoding="UTF-8"?>

<!-- generated on 2021-10-26 14:03:30 by Eclipse SUMO sumo Version 1.10.0
<configuration xmlns:xsi="http://www.w3.org/2001/XMLSchema-instance" xsi:noNamespaceSchemaLocation="http://sumo.dlr.de/xsd/sumoConfiguration.xsd">

    <input>
        <net-file value="/Users/behradkoohy/sumo-scratchpad/RESCO/environments/ingolstadt21/ingolstadt21.net.xml"/>
        <route-files value="/Users/behradkoohy/sumo-scratchpad/RESCO/environments/ingolstadt21/ingolstadt21.rou.xml"/>
    </input>

    <output>
        <tripinfo-output value="/Users/behradkoohy/sumo-scratchpad/RESCO/logs/STOCHASTIC-tr0-ingolstadt21-21-mplight-wait/tripinfo_16.xml"/>
        <tripinfo-output.write-unfinished value="true"/>
    </output>

    <time>
        <begin value="57600"/>
        <end value="61200"/>
    </time>

    <processing>
        <time-to-teleport value="-1"/>
    </processing>

    <report>
        <no-warnings value="true"/>
        <no-step-log value="true"/>
    </report>

    <emissions>
        <device.emissions.probability value="1"/>
    </emissions>

    <traci_server>
        <remote-port value="59982"/>
    </traci_server>

    <random_number>
        <random value="true"/>
    </random_number>

</configuration>
-->

<tripinfos xmlns:xsi="http://www.w3.org/2001/XMLSchema-instance" xsi:noNamespaceSchemaLocation="http://sumo.dlr.de/xsd/tripinfo_file.xsd">
    <tripinfo id="carIn60260:1" depart="57606.00" departLane="315358254#0_1" departPos="5.10" departSpeed="0.00" departDelay="0.90" arrival="57666.00" arrivalLane="399835085#1_1" arrivalPos="212.23" arrivalSpeed="8.76" duration="60.00" routeLength="430.98" waitingTime="13.00" waitingCount="1" stopTime="0.00" timeLoss="21.94" rerouteNo="1" devices="tripinfo_carIn60260:1 routing_carIn60260:1 emissions_carIn60260:1" vType="default_016" speedFactor="1.20" vaporized="">
        <emissions CO_abs="3731.780880" CO2_abs="155609.475143" HC_abs="20.644619" PMx_abs="2.948714" NOx_abs="65.238838" fuel_abs="66.890664" electricity_abs="0"/>
    </tripinfo>
    <tripinfo id="h15454c2:3" depart="57612.00" departLane="24608844_1" departPos="5.10" departSpeed="0.00" departDelay="0.50" arrival="57668.00" arrivalLane="32978638#0_1" arrivalPos="49.29" arrivalSpeed="11.63" duration="56.00" routeLength="354.79" waitingTime="5.00" waitingCount="2" stopTime="0.00" timeLoss="18.14" rerouteNo="1" devices="tripinfo_h15454c2:3 routing_h15454c2:3 emissions_h15454c2:3" vType="default_016" speedFactor="0.90" vaporized="">
        <emissions CO_abs="2865.354610" CO2_abs="128063.212521" HC_abs="16.022632" PMx_abs="2.264676" NOx_abs="52.991888" fuel_abs="55.049596" electricity_abs="0"/>
    </tripinfo>
    <tripinfo id="carIn53971:1" depart="57640.00" departLane="272042143_1" departPos="5.10" departSpeed="0.00" departDelay="0.80" arrival="57687.00" arrivalLane="24634414#1_1" arrivalPos="162.19" arrivalSpeed="8.65" duration="47.00" routeLength="493.04" waitingTime="0.00" waitingCount="0" stopTime="0.00" timeLoss="7.64" rerouteNo="1" devices="tripinfo_carIn53971:1 routing_carIn53971:1 emissions_carIn53971:1" vType="default_016" speedFactor="1.16" vaporized="">
        <emissions CO_abs="2291.971802" CO2_abs="149151.139623" HC_abs="13.911671" PMx_abs="2.622134" NOx_abs="60.741841" fuel_abs="64.113723" electricity_abs="0"/>
    </tripinfo>
    <tripinfo id="S5R_frequency1.2" depart="57615.00" departLane="315358250#0_1" departPos="12.10" departSpeed="0.00" departDelay="3.40" arrival="57720.00" arrivalLane="386687235_1" arrivalPos="80.84" arrivalSpeed="13.35" duration="105.00" routeLength="1115.62" waitingTime="3.00" waitingCount="1" stopTime="0.00" timeLoss="23.07" rerouteNo="1" devices="tripinfo_S5R_frequency1.2 routing_S5R_frequency1.2 emissions_S5R_frequency1.2" vType="bus" speedFactor="1.00" vaporized="">
        <emissions CO_abs="2018.627425" CO2_abs="1245190.833994" HC_abs="429.952362" PMx_abs="216.159305" NOx_abs="9711.004700" fuel_abs="531.056836" electricity_abs="0"/>
    </tripinfo>
    <tripinfo id="carIn22761:1" depart="57616.00" departLane="-306240162#1_0" departPos="5.10" departSpeed="0.00" departDelay="2.10" arrival="57720.00" arrivalLane="399835085#1_1" arrivalPos="212.23" arrivalSpeed="8.77" duration="104.00" routeLength="1093.26" waitingTime="12.00" waitingCount="1" stopTime="0.00" timeLoss="34.31" rerouteNo="1" devices="tripinfo_carIn22761:1 routing_carIn22761:1 emissions_carIn22761:1" vType="default_016" speedFactor="1.11" vaporized="">
        <emissions CO_abs="5990.086893" CO2_abs="336706.252949" HC_abs="35.270210" PMx_abs="6.545388" NOx_abs="139.625773" fuel_abs="144.735588" electricity_abs="0"/>
    </tripinfo>
    <tripinfo id="h7800c1:5" depart="57696.00" departLane="-447569998#1_1" departPos="5.10" departSpeed="0.00" departDelay="0.00" arrival="57720.00" arrivalLane="-447569998#1_2" arrivalPos="180.76" arrivalSpeed="8.01" duration="24.00" routeLength="175.66" waitingTime="0.00" waitingCount="0" stopTime="0.00" timeLoss="3.84" rerouteNo="1" devices="tripinfo_h7800c1:5 routing_h7800c1:5 emissions_h7800c1:5" vType="default_016" speedFactor="1.05" vaporized="">
        <emissions CO_abs="1149.441500" CO2_abs="51258.571167" HC_abs="6.414528" PMx_abs="0.860277" NOx_abs="21.000460" fuel_abs="22.034210" electricity_abs="0"/>
    </tripinfo>
    <tripinfo id="h3688c1:1" depart="57625.00" departLane="201201950#1_1" departPos="5.10" departSpeed="0.00" departDelay="0.00" arrival="57725.00" arrivalLane="32978638#0_1" arrivalPos="49.29" arrivalSpeed="13.34" duration="100.00" routeLength="1089.75" waitingTime="10.00" waitingCount="1" stopTime="0.00" timeLoss="22.58" rerouteNo="1" devices="tripinfo_h3688c1:1 routing_h3688c1:1 emissions_h3688c1:1" vType="default_016" speedFactor="1.04" vaporized="">
        <emissions CO_abs="4172.101867" CO2_abs="276048.806511" HC_abs="25.373774" PMx_abs="4.666267" NOx_abs="110.311240" fuel_abs="118.661939" electricity_abs="0"/>
    </tripinfo>
    <tripinfo id="h4538c1:1" depart="57701.00" departLane="-10427692#1_1" departPos="5.10" departSpeed="0.00" departDelay="0.00" arrival="57739.00" arrivalLane="-128361102#1_1" arrivalPos="274.68" arrivalSpeed="12.58" duration="38.00" routeLength="440.74" waitingTime="0.00" waitingCount="0" stopTime="0.00" timeLoss="6.70" rerouteNo="1" devices="tripinfo_h4538c1:1 routing_h4538c1:1 emissions_h4538c1:1" vType="default_016" speedFactor="1.00" vaporized="">
        <emissions CO_abs="1551.286963" CO2_abs="105900.617636" HC_abs="9.548814" PMx_abs="1.819131" NOx_abs="42.747808" fuel_abs="45.522181" electricity_abs="0"/>
    </tripinfo>
    <tripinfo id="h317c2:1" depart="57707.00" departLane="-32978638#0_1" departPos="5.10" departSpeed="0.00" departDelay="0.10" arrival="57746.00" arrivalLane="-266565295#5_1" arrivalPos="172.76" arrivalSpeed="12.24" duration="39.00" routeLength="370.53" waitingTime="0.00" waitingCount="0" stopTime="0.00" timeLoss="10.11" rerouteNo="1" devices="tripinfo_h317c2:1 routing_h317c2:1 emissions_h317c2:1" vType="default_016" speedFactor="0.95" vaporized="">
        <emissions CO_abs="1993.416513" CO2_abs="116465.021801" HC_abs="11.810377" PMx_abs="2.081267" NOx_abs="47.844754" fuel_abs="50.063460" electricity_abs="0"/>
    </tripinfo>
    <tripinfo id="h7181c1:1" depart="57660.00" departLane="315358254#0_1" departPos="5.10" departSpeed="0.00" departDelay="0.10" arrival="57751.00" arrivalLane="306240162#0_0" arrivalPos="220.43" arrivalSpeed="15.34" duration="91.00" routeLength="932.35" waitingTime="19.00" waitingCount="1" stopTime="0.00" timeLoss="35.55" rerouteNo="1" devices="tripinfo_h7181c1:1 routing_h7181c1:1 emissions_h7181c1:1" vType="default_016" speedFactor="0.93" vaporized="">
        <emissions CO_abs="6603.415909" CO2_abs="320631.621778" HC_abs="37.690526" PMx_abs="6.293487" NOx_abs="133.315145" fuel_abs="137.826478" electricity_abs="0"/>
    </tripinfo>
    <tripinfo id="h12244c1:3" depart="57612.00" departLane="315358244_1" departPos="5.10" departSpeed="0.00" departDelay="0.40" arrival="57760.00" arrivalLane="386687235_1" arrivalPos="80.84" arrivalSpeed="12.55" duration="148.00" routeLength="1186.14" waitingTime="39.00" waitingCount="1" stopTime="0.00" timeLoss="54.07" rerouteNo="1" devices="tripinfo_h12244c1:3 routing_h12244c1:3 emissions_h12244c1:3" vType="default_016" speedFactor="0.92" vaporized="">
        <emissions CO_abs="9351.427760" CO2_abs="352042.141384" HC_abs="50.820459" PMx_abs="6.628744" NOx_abs="146.478030" fuel_abs="151.330613" electricity_abs="0"/>
    </tripinfo>
    <tripinfo id="h9563c2:5" depart="57631.00" departLane="315358244_1" departPos="5.10" departSpeed="0.00" departDelay="0.70" arrival="57762.00" arrivalLane="386687235_1" arrivalPos="80.84" arrivalSpeed="11.89" duration="131.00" routeLength="1186.14" waitingTime="21.00" waitingCount="1" stopTime="0.00" timeLoss="39.96" rerouteNo="1" devices="tripinfo_h9563c2:5 routing_h9563c2:5 emissions_h9563c2:5" vType="default_016" speedFactor="0.95" vaporized="">
        <emissions CO_abs="6694.908532" CO2_abs="320535.674257" HC_abs="37.982470" PMx_abs="5.710942" NOx_abs="131.089208" fuel_abs="137.786041" electricity_abs="0"/>
    </tripinfo>
    <tripinfo id="carIn27009:1" depart="57673.00" departLane="-447569998#1_1" departPos="5.10" departSpeed="0.00" departDelay="0.50" arrival="57763.00" arrivalLane="-26677539_1" arrivalPos="152.75" arrivalSpeed="8.70" duration="90.00" routeLength="699.63" waitingTime="0.00" waitingCount="0" stopTime="0.00" timeLoss="11.38" rerouteNo="1" devices="tripinfo_carIn27009:1 routing_carIn27009:1 emissions_carIn27009:1" vType="default_015" speedFactor="1.07" vaporized="">
        <emissions CO_abs="3746.668405" CO2_abs="191777.849652" HC_abs="21.483459" PMx_abs="3.147208" NOx_abs="77.913048" fuel_abs="82.438034" electricity_abs="0"/>
    </tripinfo>
    <tripinfo id="h5979c1:5" depart="57669.00" departLane="399835085#1_1" departPos="5.10" departSpeed="0.00" departDelay="0.00" arrival="57769.00" arrivalLane="-315358254#1_1" arrivalPos="137.16" arrivalSpeed="12.50" duration="100.00" routeLength="659.33" waitingTime="5.00" waitingCount="1" stopTime="0.00" timeLoss="19.38" rerouteNo="1" devices="tripinfo_h5979c1:5 routing_h5979c1:5 emissions_h5979c1:5" vType="default_016" speedFactor="0.91" vaporized="">
        <emissions CO_abs="4301.593115" CO2_abs="191879.961145" HC_abs="23.991254" PMx_abs="3.130729" NOx_abs="77.902739" fuel_abs="82.482422" electricity_abs="0"/>
    </tripinfo>
    <tripinfo id="carIn121703:1" depart="57647.00" departLane="386687232#0_1" departPos="5.10" departSpeed="0.00" departDelay="0.30" arrival="57770.00" arrivalLane="-315358244_1" arrivalPos="33.95" arrivalSpeed="10.94" duration="123.00" routeLength="1157.39" waitingTime="13.00" waitingCount="1" stopTime="0.00" timeLoss="25.86" rerouteNo="1" devices="tripinfo_carIn121703:1 routing_carIn121703:1 emissions_carIn121703:1" vType="default_016" speedFactor="0.87" vaporized="">
        <emissions CO_abs="4643.610388" CO2_abs="247334.423963" HC_abs="26.856875" PMx_abs="3.940397" NOx_abs="98.064147" fuel_abs="106.319894" electricity_abs="0"/>
    </tripinfo>
    <tripinfo id="carIn86816:1" depart="57617.00" departLane="128361102#0_1" departPos="5.10" departSpeed="0.00" departDelay="0.80" arrival="57772.00" arrivalLane="201956811#0_1" arrivalPos="40.40" arrivalSpeed="16.65" duration="155.00" routeLength="2067.33" waitingTime="5.00" waitingCount="1" stopTime="0.00" timeLoss="36.27" rerouteNo="1" devices="tripinfo_carIn86816:1 routing_carIn86816:1 emissions_carIn86816:1" vType="default_016" speedFactor="1.27" vaporized="">
        <emissions CO_abs="7295.222586" CO2_abs="560252.636673" HC_abs="46.163157" PMx_abs="10.227669" NOx_abs="226.017255" fuel_abs="240.827471" electricity_abs="0"/>
    </tripinfo>
    <tripinfo id="h3568c1:3" depart="57656.00" departLane="266565295#5_1" departPos="5.10" departSpeed="0.00" departDelay="0.80" arrival="57779.00" arrivalLane="-24634415_1" arrivalPos="62.03" arrivalSpeed="12.58" duration="123.00" routeLength="807.40" waitingTime="35.00" waitingCount="1" stopTime="0.00" timeLoss="53.41" rerouteNo="1" devices="tripinfo_h3568c1:3 routing_h3568c1:3 emissions_h3568c1:3" vType="default_016" speedFactor="0.93" vaporized="">
        <emissions CO_abs="8674.538790" CO2_abs="306641.703997" HC_abs="46.691442" PMx_abs="5.989320" NOx_abs="129.621167" fuel_abs="131.814608" electricity_abs="0"/>
    </tripinfo>
    <tripinfo id="h3326c1:2" depart="57656.00" departLane="22716069#0_1" departPos="5.10" departSpeed="0.00" departDelay="0.00" arrival="57781.00" arrivalLane="24634517#13_1" arrivalPos="111.62" arrivalSpeed="11.76" duration="125.00" routeLength="1312.81" waitingTime="0.00" waitingCount="0" stopTime="0.00" timeLoss="17.61" rerouteNo="1" devices="tripinfo_h3326c1:2 routing_h3326c1:2 emissions_h3326c1:2" vType="default_016" speedFactor="0.91" vaporized="">
        <emissions CO_abs="4358.408126" CO2_abs="312403.767553" HC_abs="27.102507" PMx_abs="4.956925" NOx_abs="123.779242" fuel_abs="134.289527" electricity_abs="0"/>
    </tripinfo>
    <tripinfo id="h330c1:1" depart="57736.00" departLane="-32978638#0_1" departPos="5.10" departSpeed="0.00" departDelay="0.20" arrival="57784.00" arrivalLane="-266565295#5_1" arrivalPos="172.76" arrivalSpeed="13.96" duration="48.00" routeLength="370.53" waitingTime="12.00" waitingCount="1" stopTime="0.00" timeLoss="22.96" rerouteNo="1" devices="tripinfo_h330c1:1 routing_h330c1:1 emissions_h330c1:1" vType="default_016" speedFactor="1.10" vaporized="">
        <emissions CO_abs="3523.616552" CO2_abs="149398.963674" HC_abs="19.527863" PMx_abs="2.884631" NOx_abs="62.551642" fuel_abs="64.220903" electricity_abs="0"/>
    </tripinfo>
    <tripinfo id="h645c1:1" depart="57622.00" departLane="266565295#5_1" departPos="5.10" departSpeed="0.00" departDelay="0.40" arrival="57786.00" arrivalLane="-315358244_1" arrivalPos="33.95" arrivalSpeed="14.04" duration="164.00" routeLength="1910.83" waitingTime="8.00" waitingCount="2" stopTime="0.00" timeLoss="28.39" rerouteNo="1" devices="tripinfo_h645c1:1 routing_h645c1:1 emissions_h645c1:1" vType="default_016" speedFactor="1.02" vaporized="">
        <emissions CO_abs="4786.847471" CO2_abs="388342.674682" HC_abs="30.872885" PMx_abs="6.256194" NOx_abs="152.831700" fuel_abs="166.932025" electricity_abs="0"/>
    </tripinfo>
    <tripinfo id="carIn80064:1" depart="57603.00" departLane="128361109#1_1" departPos="5.10" departSpeed="0.00" departDelay="0.40" arrival="57787.00" arrivalLane="-315358254#1_1" arrivalPos="137.16" arrivalSpeed="13.97" duration="184.00" routeLength="1587.97" waitingTime="64.00" waitingCount="4" stopTime="0.00" timeLoss="101.02" rerouteNo="1" devices="tripinfo_carIn80064:1 routing_carIn80064:1 emissions_carIn80064:1" vType="default_016" speedFactor="1.08" vaporized="">
        <emissions CO_abs="15629.219876" CO2_abs="632131.507613" HC_abs="86.249022" PMx_abs="13.273221" NOx_abs="269.257751" fuel_abs="271.728416" electricity_abs="0"/>
    </tripinfo>
    <tripinfo id="carIn107084:1" depart="57601.00" departLane="124812856#0_1" departPos="5.10" departSpeed="0.00" departDelay="0.70" arrival="57794.00" arrivalLane="-128361102#1_1" arrivalPos="274.68" arrivalSpeed="14.31" duration="193.00" routeLength="2250.49" waitingTime="16.00" waitingCount="2" stopTime="0.00" timeLoss="41.54" rerouteNo="1" devices="tripinfo_carIn107084:1 routing_carIn107084:1 emissions_carIn107084:1" vType="default_016" speedFactor="1.08" vaporized="">
        <emissions CO_abs="7440.806043" CO2_abs="526395.103787" HC_abs="46.059238" PMx_abs="9.075762" NOx_abs="210.706342" fuel_abs="226.274798" electricity_abs="0"/>
    </tripinfo>
    <tripinfo id="carIn28951:1" depart="57606.00" departLane="10425609#0_1" departPos="5.10" departSpeed="0.00" departDelay="0.20" arrival="57796.00" arrivalLane="-128361102#1_1" arrivalPos="274.68" arrivalSpeed="13.85" duration="190.00" routeLength="2113.04" waitingTime="18.00" waitingCount="1" stopTime="0.00" timeLoss="45.48" rerouteNo="1" devices="tripinfo_carIn28951:1 routing_carIn28951:1 emissions_carIn28951:1" vType="default_016" speedFactor="1.07" vaporized="">
        <emissions CO_abs="8277.926223" CO2_abs="509922.447772" HC_abs="49.416584" PMx_abs="8.884997" NOx_abs="205.420305" fuel_abs="219.194597" electricity_abs="0"/>
    </tripinfo>
    <tripinfo id="carIn30817:1" depart="57681.00" departLane="315358244_1" departPos="5.10" departSpeed="0.00" departDelay="0.20" arrival="57796.00" arrivalLane="447569997#1_1" arrivalPos="180.93" arrivalSpeed="7.67" duration="115.00" routeLength="718.04" waitingTime="40.00" waitingCount="1" stopTime="0.00" timeLoss="51.75" rerouteNo="1" devices="tripinfo_carIn30817:1 routing_carIn30817:1 emissions_carIn30817:1" vType="default_016" speedFactor="0.98" vaporized="">
        <emissions CO_abs="9011.220996" CO2_abs="271724.533130" HC_abs="47.391408" PMx_abs="5.428804" NOx_abs="115.453828" fuel_abs="116.805898" electricity_abs="0"/>
    </tripinfo>
    <tripinfo id="carIn107282:1" depart="57749.00" departLane="-447569998#1_1" departPos="5.10" departSpeed="0.00" departDelay="0.00" arrival="57805.00" arrivalLane="315358242#0_1" arrivalPos="165.37" arrivalSpeed="11.36" duration="56.00" routeLength="448.50" waitingTime="0.00" waitingCount="0" stopTime="0.00" timeLoss="5.81" rerouteNo="1" devices="tripinfo_carIn107282:1 routing_carIn107282:1 emissions_carIn107282:1" vType="default_016" speedFactor="0.84" vaporized="">
        <emissions CO_abs="2191.223976" CO2_abs="111767.662345" HC_abs="12.546299" PMx_abs="1.775206" NOx_abs="44.863659" fuel_abs="48.044799" electricity_abs="0"/>
    </tripinfo>
    <tripinfo id="carIn12365:1" depart="57713.00" departLane="315358244_1" departPos="5.10" departSpeed="0.00" departDelay="0.50" arrival="57809.00" arrivalLane="447569997#1_1" arrivalPos="180.93" arrivalSpeed="7.98" duration="96.00" routeLength="718.04" waitingTime="17.00" waitingCount="2" stopTime="0.00" timeLoss="38.94" rerouteNo="1" devices="tripinfo_carIn12365:1 routing_carIn12365:1 emissions_carIn12365:1" vType="default_016" speedFactor="1.08" vaporized="">
        <emissions CO_abs="4673.787774" CO2_abs="223519.916482" HC_abs="26.489543" PMx_abs="4.166114" NOx_abs="93.156318" fuel_abs="96.082330" electricity_abs="0"/>
    </tripinfo>
    <tripinfo id="h3154c1:1" depart="57658.00" departLane="24634507_1" departPos="5.10" departSpeed="0.00" departDelay="0.00" arrival="57818.00" arrivalLane="-266565295#5_1" arrivalPos="172.76" arrivalSpeed="12.43" duration="160.00" routeLength="1206.22" waitingTime="40.00" waitingCount="2" stopTime="0.00" timeLoss="66.54" rerouteNo="1" devices="tripinfo_h3154c1:1 routing_h3154c1:1 emissions_h3154c1:1" vType="default_016" speedFactor="0.96" vaporized="">
        <emissions CO_abs="10779.501623" CO2_abs="418684.277143" HC_abs="58.909344" PMx_abs="7.994075" NOx_abs="175.267494" fuel_abs="179.977240" electricity_abs="0"/>
    </tripinfo>
    <tripinfo id="carIn48184:1" depart="57613.00" departLane="-306240162#1_0" departPos="5.10" departSpeed="0.00" departDelay="0.70" arrival="57826.00" arrivalLane="386687235_1" arrivalPos="80.84" arrivalSpeed="11.53" duration="213.00" routeLength="2257.41" waitingTime="19.00" waitingCount="1" stopTime="0.00" timeLoss="41.09" rerouteNo="1" devices="tripinfo_carIn48184:1 routing_carIn48184:1 emissions_carIn48184:1" vType="default_016" speedFactor="0.86" vaporized="">
        <emissions CO_abs="8078.352421" CO2_abs="517208.740739" HC_abs="48.843103" PMx_abs="8.485328" NOx_abs="204.843384" fuel_abs="222.327266" electricity_abs="0"/>
    </tripinfo>
    <tripinfo id="carIn82278:1" depart="57702.00" departLane="-306240162#1_0" departPos="5.10" departSpeed="0.00" departDelay="0.70" arrival="57834.00" arrivalLane="399835085#1_1" arrivalPos="212.23" arrivalSpeed="7.21" duration="132.00" routeLength="1093.26" waitingTime="23.00" waitingCount="2" stopTime="0.00" timeLoss="53.69" rerouteNo="1" devices="tripinfo_carIn82278:1 routing_carIn82278:1 emissions_carIn82278:1" vType="default_016" speedFactor="1.00" vaporized="">
        <emissions CO_abs="8135.045693" CO2_abs="376436.369274" HC_abs="45.967732" PMx_abs="7.334009" NOx_abs="157.509562" fuel_abs="161.814941" electricity_abs="0"/>
    </tripinfo>
    <tripinfo id="h17600c1:1" depart="57662.00" departLane="272042143_1" departPos="5.10" departSpeed="0.00" departDelay="0.30" arrival="57838.00" arrivalLane="201238729#3_1" arrivalPos="431.02" arrivalSpeed="11.71" duration="176.00" routeLength="2100.26" waitingTime="0.00" waitingCount="0" stopTime="0.00" timeLoss="12.84" rerouteNo="1" devices="tripinfo_h17600c1:1 routing_h17600c1:1 emissions_h17600c1:1" vType="default_016" speedFactor="0.93" vaporized="">
        <emissions CO_abs="3729.893604" CO2_abs="367435.853914" HC_abs="25.459744" PMx_abs="5.182613" NOx_abs="139.870450" fuel_abs="157.945511" electricity_abs="0"/>
    </tripinfo>
    <tripinfo id="carIn12858:1" depart="57661.00" departLane="128361109#1_1" departPos="5.10" departSpeed="0.00" departDelay="0.90" arrival="57840.00" arrivalLane="399835085#1_1" arrivalPos="212.23" arrivalSpeed="7.33" duration="179.00" routeLength="1738.12" waitingTime="38.00" waitingCount="2" stopTime="0.00" timeLoss="65.95" rerouteNo="1" devices="tripinfo_carIn12858:1 routing_carIn12858:1 emissions_carIn12858:1" vType="default_016" speedFactor="1.02" vaporized="">
        <emissions CO_abs="12688.030377" CO2_abs="572530.660551" HC_abs="71.396678" PMx_abs="11.353195" NOx_abs="238.749691" fuel_abs="246.108217" electricity_abs="0"/>
    </tripinfo>
    <tripinfo id="randUni15030:1" depart="57735.00" departLane="386687232#0_1" departPos="5.10" departSpeed="0.00" departDelay="0.10" arrival="57847.00" arrivalLane="26677539_1" arrivalPos="151.98" arrivalSpeed="6.83" duration="112.00" routeLength="919.89" waitingTime="5.00" waitingCount="1" stopTime="0.00" timeLoss="21.37" rerouteNo="1" devices="tripinfo_randUni15030:1 routing_randUni15030:1 emissions_randUni15030:1" vType="random_016" speedFactor="0.92" vaporized="">
        <emissions CO_abs="4120.413549" CO2_abs="227989.791943" HC_abs="24.045084" PMx_abs="3.759367" NOx_abs="92.015475" fuel_abs="98.003939" electricity_abs="0"/>
    </tripinfo>
    <tripinfo id="h11737c1:1" depart="57665.00" departLane="272042143_1" departPos="5.10" departSpeed="0.00" departDelay="1.50" arrival="57849.00" arrivalLane="-315358254#1_1" arrivalPos="137.16" arrivalSpeed="10.53" duration="184.00" routeLength="1596.88" waitingTime="24.00" waitingCount="2" stopTime="0.00" timeLoss="46.39" rerouteNo="1" devices="tripinfo_h11737c1:1 routing_h11737c1:1 emissions_h11737c1:1" vType="default_016" speedFactor="0.84" vaporized="">
        <emissions CO_abs="7447.301215" CO2_abs="382121.008476" HC_abs="42.740676" PMx_abs="6.189597" NOx_abs="152.626403" fuel_abs="164.259676" electricity_abs="0"/>
    </tripinfo>
    <tripinfo id="h5938c1:1" depart="57740.00" departLane="-26677542#0_1" departPos="5.10" departSpeed="0.00" departDelay="0.00" arrival="57850.00" arrivalLane="447569997#1_1" arrivalPos="180.93" arrivalSpeed="7.37" duration="110.00" routeLength="1093.64" waitingTime="0.00" waitingCount="0" stopTime="0.00" timeLoss="12.14" rerouteNo="1" devices="tripinfo_h5938c1:1 routing_h5938c1:1 emissions_h5938c1:1" vType="default_016" speedFactor="0.99" vaporized="">
        <emissions CO_abs="3662.212523" CO2_abs="243704.648440" HC_abs="22.305754" PMx_abs="3.751646" NOx_abs="95.856923" fuel_abs="104.758998" electricity_abs="0"/>
    </tripinfo>
    <tripinfo id="carIn126288:1" depart="57674.00" departLane="272042143_1" departPos="5.10" departSpeed="0.00" departDelay="0.00" arrival="57851.00" arrivalLane="-315358254#1_1" arrivalPos="137.16" arrivalSpeed="12.66" duration="177.00" routeLength="1596.88" waitingTime="22.00" waitingCount="2" stopTime="0.00" timeLoss="60.57" rerouteNo="1" devices="tripinfo_carIn126288:1 routing_carIn126288:1 emissions_carIn126288:1" vType="default_016" speedFactor="1.00" vaporized="">
        <emissions CO_abs="8218.017712" CO2_abs="428854.414210" HC_abs="47.454285" PMx_abs="7.557741" NOx_abs="175.052542" fuel_abs="184.347603" electricity_abs="0"/>
    </tripinfo>
    <tripinfo id="carIn73855:1" depart="57743.00" departLane="386687232#0_1" departPos="5.10" departSpeed="0.00" departDelay="0.50" arrival="57853.00" arrivalLane="-315358244_1" arrivalPos="33.95" arrivalSpeed="14.32" duration="110.00" routeLength="1157.39" waitingTime="14.00" waitingCount="1" stopTime="0.00" timeLoss="31.98" rerouteNo="1" devices="tripinfo_carIn73855:1 routing_carIn73855:1 emissions_carIn73855:1" vType="default_016" speedFactor="1.08" vaporized="">
        <emissions CO_abs="4867.676545" CO2_abs="282733.333226" HC_abs="28.683757" PMx_abs="4.872356" NOx_abs="113.387702" fuel_abs="121.535725" electricity_abs="0"/>
    </tripinfo>
    <tripinfo id="carIn118591:1" depart="57689.00" departLane="315358244_1" departPos="5.10" departSpeed="0.00" departDelay="0.20" arrival="57857.00" arrivalLane="386687235_1" arrivalPos="80.84" arrivalSpeed="14.21" duration="168.00" routeLength="1186.14" waitingTime="67.00" waitingCount="2" stopTime="0.00" timeLoss="86.55" rerouteNo="1" devices="tripinfo_carIn118591:1 routing_carIn118591:1 emissions_carIn118591:1" vType="default_016" speedFactor="1.07" vaporized="">
        <emissions CO_abs="13021.426985" CO2_abs="420056.824790" HC_abs="69.096897" PMx_abs="8.296860" NOx_abs="176.522542" fuel_abs="180.568819" electricity_abs="0"/>
    </tripinfo>
    <tripinfo id="carIn126378:1" depart="57746.00" departLane="386687232#0_1" departPos="5.10" departSpeed="0.00" departDelay="1.80" arrival="57859.00" arrivalLane="-315358244_1" arrivalPos="33.95" arrivalSpeed="12.42" duration="113.00" routeLength="1157.39" waitingTime="6.00" waitingCount="1" stopTime="0.00" timeLoss="23.35" rerouteNo="1" devices="tripinfo_carIn126378:1 routing_carIn126378:1 emissions_carIn126378:1" vType="default_016" speedFactor="0.94" vaporized="">
        <emissions CO_abs="3614.406324" CO2_abs="249120.550936" HC_abs="22.253140" PMx_abs="4.002717" NOx_abs="98.829117" fuel_abs="107.086739" electricity_abs="0"/>
    </tripinfo>
    <tripinfo id="carIn82220:1" depart="57619.00" departLane="-306240162#1_0" departPos="5.10" departSpeed="0.00" departDelay="3.50" arrival="57873.00" arrivalLane="386687235_1" arrivalPos="80.84" arrivalSpeed="13.56" duration="254.00" routeLength="2257.41" waitingTime="66.00" waitingCount="3" stopTime="0.00" timeLoss="109.93" rerouteNo="1" devices="tripinfo_carIn82220:1 routing_carIn82220:1 emissions_carIn82220:1" vType="default_016" speedFactor="1.03" vaporized="">
        <emissions CO_abs="16366.344543" CO2_abs="687854.143754" HC_abs="90.816842" PMx_abs="13.629257" NOx_abs="289.228763" fuel_abs="295.681928" electricity_abs="0"/>
    </tripinfo>
    <tripinfo id="carIn462:1" depart="57622.00" departLane="-306240162#1_0" departPos="5.10" departSpeed="0.00" departDelay="4.80" arrival="57874.00" arrivalLane="386687235_1" arrivalPos="80.84" arrivalSpeed="14.38" duration="252.00" routeLength="2257.41" waitingTime="64.00" waitingCount="3" stopTime="0.00" timeLoss="113.73" rerouteNo="1" devices="tripinfo_carIn462:1 routing_carIn462:1 emissions_carIn462:1" vType="default_016" speedFactor="1.08" vaporized="">
        <emissions CO_abs="16439.712813" CO2_abs="722873.678276" HC_abs="91.985399" PMx_abs="14.182305" NOx_abs="302.121534" fuel_abs="310.735134" electricity_abs="0"/>
    </tripinfo>
    <tripinfo id="h13311c1:3" depart="57635.00" departLane="399835085#1_1" departPos="5.10" departSpeed="0.00" departDelay="0.00" arrival="57874.00" arrivalLane="32978638#0_1" arrivalPos="49.29" arrivalSpeed="13.57" duration="239.00" routeLength="2580.65" waitingTime="4.00" waitingCount="2" stopTime="0.00" timeLoss="29.47" rerouteNo="1" devices="tripinfo_h13311c1:3 routing_h13311c1:3 emissions_h13311c1:3" vType="default_016" speedFactor="1.01" vaporized="">
        <emissions CO_abs="7026.233301" CO2_abs="513760.282738" HC_abs="43.855816" PMx_abs="8.024522" NOx_abs="201.739700" fuel_abs="220.844574" electricity_abs="0"/>
    </tripinfo>
    <tripinfo id="carIn116184:1" depart="57627.00" departLane="-306240162#1_0" departPos="5.10" departSpeed="0.00" departDelay="0.10" arrival="57876.00" arrivalLane="386687235_1" arrivalPos="80.84" arrivalSpeed="13.52" duration="249.00" routeLength="2257.41" waitingTime="58.00" waitingCount="3" stopTime="0.00" timeLoss="95.44" rerouteNo="1" devices="tripinfo_carIn116184:1 routing_carIn116184:1 emissions_carIn116184:1" vType="default_016" speedFactor="0.97" vaporized="">
        <emissions CO_abs="13967.652072" CO2_abs="632639.313591" HC_abs="78.445678" PMx_abs="11.926183" NOx_abs="261.188171" fuel_abs="271.947287" electricity_abs="0"/>
    </tripinfo>
    <tripinfo id="h16072c2:3" depart="57663.00" departLane="315358254#0_1" departPos="5.10" departSpeed="0.00" departDelay="2.50" arrival="57876.00" arrivalLane="386687235_2" arrivalPos="80.84" arrivalSpeed="13.56" duration="213.00" routeLength="1611.92" waitingTime="54.00" waitingCount="3" stopTime="0.00" timeLoss="96.04" rerouteNo="1" devices="tripinfo_h16072c2:3 routing_h16072c2:3 emissions_h16072c2:3" vType="default_016" speedFactor="1.01" vaporized="">
        <emissions CO_abs="11829.204617" CO2_abs="491018.337225" HC_abs="65.330715" PMx_abs="9.137950" NOx_abs="203.440545" fuel_abs="211.070757" electricity_abs="0"/>
    </tripinfo>
    <tripinfo id="carIn31257:1" depart="57630.00" departLane="-306240162#1_0" departPos="5.10" departSpeed="0.00" departDelay="1.60" arrival="57878.00" arrivalLane="386687235_2" arrivalPos="80.84" arrivalSpeed="12.76" duration="248.00" routeLength="2257.41" waitingTime="62.00" waitingCount="2" stopTime="0.00" timeLoss="96.22" rerouteNo="1" devices="tripinfo_carIn31257:1 routing_carIn31257:1 emissions_carIn31257:1" vType="default_016" speedFactor="0.98" vaporized="">
        <emissions CO_abs="15441.804326" CO2_abs="661697.127938" HC_abs="85.806954" PMx_abs="12.344181" NOx_abs="271.374900" fuel_abs="284.439135" electricity_abs="0"/>
    </tripinfo>