<?xml version="1.0" encoding="UTF-8"?>

<!-- generated on 2021-10-26 14:27:02 by Eclipse SUMO sumo Version 1.10.0
<configuration xmlns:xsi="http://www.w3.org/2001/XMLSchema-instance" xsi:noNamespaceSchemaLocation="http://sumo.dlr.de/xsd/sumoConfiguration.xsd">

    <input>
        <net-file value="/Users/behradkoohy/sumo-scratchpad/RESCO/environments/ingolstadt21/ingolstadt21.net.xml"/>
        <route-files value="/Users/behradkoohy/sumo-scratchpad/RESCO/environments/ingolstadt21/ingolstadt21.rou.xml"/>
    </input>

    <output>
        <tripinfo-output value="/Users/behradkoohy/sumo-scratchpad/RESCO/logs/STOCHASTIC-tr0-ingolstadt21-21-mplight-wait/tripinfo_54.xml"/>
        <tripinfo-output.write-unfinished value="true"/>
    </output>

    <time>
        <begin value="57600"/>
        <end value="61200"/>
    </time>

    <processing>
        <time-to-teleport value="-1"/>
    </processing>

    <report>
        <no-warnings value="true"/>
        <no-step-log value="true"/>
    </report>

    <emissions>
        <device.emissions.probability value="1"/>
    </emissions>

    <traci_server>
        <remote-port value="60317"/>
    </traci_server>

    <random_number>
        <random value="true"/>
    </random_number>

</configuration>
-->

<tripinfos xmlns:xsi="http://www.w3.org/2001/XMLSchema-instance" xsi:noNamespaceSchemaLocation="http://sumo.dlr.de/xsd/tripinfo_file.xsd">
    <tripinfo id="h15454c2:3" depart="57612.00" departLane="24608844_1" departPos="5.10" departSpeed="0.00" departDelay="0.50" arrival="57651.00" arrivalLane="32978638#0_1" arrivalPos="49.29" arrivalSpeed="13.70" duration="39.00" routeLength="354.79" waitingTime="0.00" waitingCount="0" stopTime="0.00" timeLoss="5.07" rerouteNo="1" devices="tripinfo_h15454c2:3 routing_h15454c2:3 emissions_h15454c2:3" vType="default_016" speedFactor="1.00" vaporized="">
        <emissions CO_abs="2074.065973" CO2_abs="118355.931820" HC_abs="12.231019" PMx_abs="2.171836" NOx_abs="49.201567" fuel_abs="50.876216" electricity_abs="0"/>
    </tripinfo>
    <tripinfo id="carIn60260:1" depart="57606.00" departLane="315358254#0_1" departPos="5.10" departSpeed="0.00" departDelay="0.90" arrival="57659.00" arrivalLane="399835085#1_1" arrivalPos="212.23" arrivalSpeed="7.09" duration="53.00" routeLength="430.98" waitingTime="0.00" waitingCount="0" stopTime="0.00" timeLoss="6.32" rerouteNo="1" devices="tripinfo_carIn60260:1 routing_carIn60260:1 emissions_carIn60260:1" vType="default_016" speedFactor="1.00" vaporized="">
        <emissions CO_abs="2144.640646" CO2_abs="111611.205724" HC_abs="12.343154" PMx_abs="1.830969" NOx_abs="45.177372" fuel_abs="47.977417" electricity_abs="0"/>
    </tripinfo>
    <tripinfo id="carIn53971:1" depart="57640.00" departLane="272042143_1" departPos="5.10" departSpeed="0.00" departDelay="0.80" arrival="57691.00" arrivalLane="24634414#1_1" arrivalPos="162.19" arrivalSpeed="8.54" duration="51.00" routeLength="493.04" waitingTime="0.00" waitingCount="0" stopTime="0.00" timeLoss="8.75" rerouteNo="1" devices="tripinfo_carIn53971:1 routing_carIn53971:1 emissions_carIn53971:1" vType="default_016" speedFactor="1.08" vaporized="">
        <emissions CO_abs="2365.657924" CO2_abs="140933.085161" HC_abs="14.079949" PMx_abs="2.502742" NOx_abs="57.884238" fuel_abs="60.581236" electricity_abs="0"/>
    </tripinfo>
    <tripinfo id="carIn80064:1" depart="57603.00" departLane="128361109#1_1" departPos="5.10" departSpeed="0.00" departDelay="0.40" arrival="57711.00" arrivalLane="-315358254#1_1" arrivalPos="137.16" arrivalSpeed="14.11" duration="108.00" routeLength="1587.97" waitingTime="0.00" waitingCount="0" stopTime="0.00" timeLoss="20.66" rerouteNo="1" devices="tripinfo_carIn80064:1 routing_carIn80064:1 emissions_carIn80064:1" vType="default_016" speedFactor="1.02" vaporized="">
        <emissions CO_abs="6268.312627" CO2_abs="447113.633586" HC_abs="39.281941" PMx_abs="8.757026" NOx_abs="184.704647" fuel_abs="192.193572" electricity_abs="0"/>
    </tripinfo>
    <tripinfo id="h3688c1:1" depart="57625.00" departLane="201201950#1_1" departPos="5.10" departSpeed="0.00" departDelay="0.00" arrival="57721.00" arrivalLane="32978638#0_1" arrivalPos="49.29" arrivalSpeed="12.05" duration="96.00" routeLength="1089.75" waitingTime="0.00" waitingCount="0" stopTime="0.00" timeLoss="10.83" rerouteNo="1" devices="tripinfo_h3688c1:1 routing_h3688c1:1 emissions_h3688c1:1" vType="default_016" speedFactor="0.94" vaporized="">
        <emissions CO_abs="3488.686726" CO2_abs="266234.825811" HC_abs="22.112744" PMx_abs="4.388968" NOx_abs="106.267932" fuel_abs="114.442983" electricity_abs="0"/>
    </tripinfo>
    <tripinfo id="h7800c1:5" depart="57696.00" departLane="-447569998#1_1" departPos="5.10" departSpeed="0.00" departDelay="0.00" arrival="57721.00" arrivalLane="-447569998#1_2" arrivalPos="180.76" arrivalSpeed="7.28" duration="25.00" routeLength="175.66" waitingTime="0.00" waitingCount="0" stopTime="0.00" timeLoss="3.21" rerouteNo="1" devices="tripinfo_h7800c1:5 routing_h7800c1:5 emissions_h7800c1:5" vType="default_016" speedFactor="1.00" vaporized="">
        <emissions CO_abs="989.374375" CO2_abs="43139.474014" HC_abs="5.497485" PMx_abs="0.722234" NOx_abs="17.673738" fuel_abs="18.544124" electricity_abs="0"/>
    </tripinfo>
    <tripinfo id="h3568c1:3" depart="57656.00" departLane="266565295#5_1" departPos="5.10" departSpeed="0.00" departDelay="0.80" arrival="57742.00" arrivalLane="-24634415_1" arrivalPos="62.03" arrivalSpeed="15.79" duration="86.00" routeLength="807.40" waitingTime="7.00" waitingCount="2" stopTime="0.00" timeLoss="32.16" rerouteNo="1" devices="tripinfo_h3568c1:3 routing_h3568c1:3 emissions_h3568c1:3" vType="default_016" speedFactor="1.21" vaporized="">
        <emissions CO_abs="5488.334850" CO2_abs="322377.536919" HC_abs="32.615266" PMx_abs="6.213648" NOx_abs="135.090718" fuel_abs="138.575975" electricity_abs="0"/>
    </tripinfo>
    <tripinfo id="h4538c1:1" depart="57701.00" departLane="-10427692#1_1" departPos="5.10" departSpeed="0.00" departDelay="0.00" arrival="57743.00" arrivalLane="-128361102#1_1" arrivalPos="274.68" arrivalSpeed="14.82" duration="42.00" routeLength="440.74" waitingTime="3.00" waitingCount="1" stopTime="0.00" timeLoss="12.74" rerouteNo="1" devices="tripinfo_h4538c1:1 routing_h4538c1:1 emissions_h4538c1:1" vType="default_016" speedFactor="1.08" vaporized="">
        <emissions CO_abs="1797.082062" CO2_abs="118566.533781" HC_abs="10.975169" PMx_abs="2.082589" NOx_abs="48.037841" fuel_abs="50.966715" electricity_abs="0"/>
    </tripinfo>
    <tripinfo id="carIn30817:1" depart="57681.00" departLane="315358244_1" departPos="5.10" departSpeed="0.00" departDelay="0.20" arrival="57753.00" arrivalLane="447569997#1_1" arrivalPos="180.93" arrivalSpeed="7.08" duration="72.00" routeLength="718.04" waitingTime="0.00" waitingCount="0" stopTime="0.00" timeLoss="7.58" rerouteNo="1" devices="tripinfo_carIn30817:1 routing_carIn30817:1 emissions_carIn30817:1" vType="default_016" speedFactor="0.96" vaporized="">
        <emissions CO_abs="2425.071028" CO2_abs="153384.108371" HC_abs="14.583229" PMx_abs="2.378381" NOx_abs="60.595483" fuel_abs="65.933828" electricity_abs="0"/>
    </tripinfo>
    <tripinfo id="h317c2:1" depart="57707.00" departLane="-32978638#0_1" departPos="5.10" departSpeed="0.00" departDelay="0.10" arrival="57754.00" arrivalLane="-266565295#5_1" arrivalPos="172.76" arrivalSpeed="15.06" duration="47.00" routeLength="370.53" waitingTime="12.00" waitingCount="1" stopTime="0.00" timeLoss="22.00" rerouteNo="1" devices="tripinfo_h317c2:1 routing_h317c2:1 emissions_h317c2:1" vType="default_016" speedFactor="1.13" vaporized="">
        <emissions CO_abs="3356.295845" CO2_abs="145707.996041" HC_abs="18.670555" PMx_abs="2.867128" NOx_abs="61.361897" fuel_abs="62.634141" electricity_abs="0"/>
    </tripinfo>
    <tripinfo id="h7181c1:1" depart="57660.00" departLane="315358254#0_1" departPos="5.10" departSpeed="0.00" departDelay="0.10" arrival="57760.00" arrivalLane="306240162#0_0" arrivalPos="220.43" arrivalSpeed="17.25" duration="100.00" routeLength="932.35" waitingTime="35.00" waitingCount="2" stopTime="0.00" timeLoss="53.66" rerouteNo="1" devices="tripinfo_h7181c1:1 routing_h7181c1:1 emissions_h7181c1:1" vType="default_016" speedFactor="1.11" vaporized="">
        <emissions CO_abs="9207.217610" CO2_abs="368423.437345" HC_abs="50.702376" PMx_abs="7.824581" NOx_abs="156.270464" fuel_abs="158.370781" electricity_abs="0"/>
    </tripinfo>
    <tripinfo id="h3326c1:2" depart="57656.00" departLane="22716069#0_1" departPos="5.10" departSpeed="0.00" departDelay="0.00" arrival="57764.00" arrivalLane="24634517#13_1" arrivalPos="111.62" arrivalSpeed="14.43" duration="108.00" routeLength="1312.81" waitingTime="0.00" waitingCount="0" stopTime="0.00" timeLoss="16.34" rerouteNo="1" devices="tripinfo_h3326c1:2 routing_h3326c1:2 emissions_h3326c1:2" vType="default_016" speedFactor="1.07" vaporized="">
        <emissions CO_abs="4106.352692" CO2_abs="318794.210773" HC_abs="26.133977" PMx_abs="5.447748" NOx_abs="127.816879" fuel_abs="137.035721" electricity_abs="0"/>
    </tripinfo>
    <tripinfo id="h3154c1:1" depart="57658.00" departLane="24634507_1" departPos="5.10" departSpeed="0.00" departDelay="0.00" arrival="57768.00" arrivalLane="-266565295#5_1" arrivalPos="172.76" arrivalSpeed="12.08" duration="110.00" routeLength="1206.22" waitingTime="0.00" waitingCount="0" stopTime="0.00" timeLoss="16.10" rerouteNo="1" devices="tripinfo_h3154c1:1 routing_h3154c1:1 emissions_h3154c1:1" vType="default_016" speedFactor="0.95" vaporized="">
        <emissions CO_abs="4050.799200" CO2_abs="284428.794470" HC_abs="25.105812" PMx_abs="4.805989" NOx_abs="114.600385" fuel_abs="122.263859" electricity_abs="0"/>
    </tripinfo>
    <tripinfo id="carIn27009:1" depart="57673.00" departLane="-447569998#1_1" departPos="5.10" departSpeed="0.00" departDelay="0.50" arrival="57776.00" arrivalLane="-26677539_1" arrivalPos="152.75" arrivalSpeed="6.60" duration="103.00" routeLength="699.63" waitingTime="0.00" waitingCount="0" stopTime="0.00" timeLoss="12.93" rerouteNo="1" devices="tripinfo_carIn27009:1 routing_carIn27009:1 emissions_carIn27009:1" vType="default_015" speedFactor="0.93" vaporized="">
        <emissions CO_abs="4221.526882" CO2_abs="186040.999557" HC_abs="23.490933" PMx_abs="3.053125" NOx_abs="75.883176" fuel_abs="79.972451" electricity_abs="0"/>
    </tripinfo>
    <tripinfo id="h12244c1:3" depart="57612.00" departLane="315358244_1" departPos="5.10" departSpeed="0.00" departDelay="0.40" arrival="57777.00" arrivalLane="386687235_1" arrivalPos="80.84" arrivalSpeed="12.12" duration="165.00" routeLength="1186.14" waitingTime="50.00" waitingCount="1" stopTime="0.00" timeLoss="72.41" rerouteNo="1" devices="tripinfo_h12244c1:3 routing_h12244c1:3 emissions_h12244c1:3" vType="default_016" speedFactor="0.93" vaporized="">
        <emissions CO_abs="11902.733013" CO2_abs="415990.894457" HC_abs="63.948581" PMx_abs="8.061201" NOx_abs="174.812087" fuel_abs="178.820301" electricity_abs="0"/>
    </tripinfo>
    <tripinfo id="carIn22761:1" depart="57616.00" departLane="-306240162#1_0" departPos="5.10" departSpeed="0.00" departDelay="2.10" arrival="57788.00" arrivalLane="399835085#1_1" arrivalPos="212.23" arrivalSpeed="6.88" duration="172.00" routeLength="1093.26" waitingTime="63.00" waitingCount="2" stopTime="0.00" timeLoss="86.93" rerouteNo="1" devices="tripinfo_carIn22761:1 routing_carIn22761:1 emissions_carIn22761:1" vType="default_016" speedFactor="0.92" vaporized="">
        <emissions CO_abs="13915.844683" CO2_abs="453388.607171" HC_abs="74.035137" PMx_abs="9.233883" NOx_abs="192.620689" fuel_abs="194.896504" electricity_abs="0"/>
    </tripinfo>
    <tripinfo id="carIn107282:1" depart="57749.00" departLane="-447569998#1_1" departPos="5.10" departSpeed="0.00" departDelay="0.00" arrival="57791.00" arrivalLane="315358242#0_1" arrivalPos="165.37" arrivalSpeed="15.28" duration="42.00" routeLength="448.50" waitingTime="0.00" waitingCount="0" stopTime="0.00" timeLoss="3.86" rerouteNo="1" devices="tripinfo_carIn107282:1 routing_carIn107282:1 emissions_carIn107282:1" vType="default_016" speedFactor="1.11" vaporized="">
        <emissions CO_abs="1603.639899" CO2_abs="117787.807856" HC_abs="10.026457" PMx_abs="1.902966" NOx_abs="46.519998" fuel_abs="50.632081" electricity_abs="0"/>
    </tripinfo>
    <tripinfo id="S5R_frequency1.2" depart="57677.00" departLane="315358250#0_1" departPos="12.10" departSpeed="0.00" departDelay="65.40" arrival="57794.00" arrivalLane="386687235_1" arrivalPos="80.84" arrivalSpeed="13.53" duration="117.00" routeLength="1115.62" waitingTime="6.00" waitingCount="1" stopTime="0.00" timeLoss="35.00" rerouteNo="1" devices="tripinfo_S5R_frequency1.2 routing_S5R_frequency1.2 emissions_S5R_frequency1.2" vType="bus" speedFactor="1.00" vaporized="">
        <emissions CO_abs="2464.148062" CO2_abs="1481442.300800" HC_abs="514.824412" PMx_abs="262.201923" NOx_abs="11674.860557" fuel_abs="631.788801" electricity_abs="0"/>
    </tripinfo>
    <tripinfo id="h330c1:1" depart="57736.00" departLane="-32978638#0_1" departPos="5.10" departSpeed="0.00" departDelay="0.20" arrival="57796.00" arrivalLane="-266565295#5_1" arrivalPos="172.76" arrivalSpeed="12.43" duration="60.00" routeLength="370.53" waitingTime="23.00" waitingCount="1" stopTime="0.00" timeLoss="31.12" rerouteNo="1" devices="tripinfo_h330c1:1 routing_h330c1:1 emissions_h330c1:1" vType="default_016" speedFactor="0.97" vaporized="">
        <emissions CO_abs="5136.399176" CO2_abs="170708.966232" HC_abs="27.397493" PMx_abs="3.393302" NOx_abs="72.334962" fuel_abs="73.382044" electricity_abs="0"/>
    </tripinfo>
    <tripinfo id="h5979c1:5" depart="57669.00" departLane="399835085#1_1" departPos="5.10" departSpeed="0.00" departDelay="0.00" arrival="57799.00" arrivalLane="-315358254#1_1" arrivalPos="137.16" arrivalSpeed="11.76" duration="130.00" routeLength="659.33" waitingTime="32.00" waitingCount="1" stopTime="0.00" timeLoss="47.12" rerouteNo="1" devices="tripinfo_h5979c1:5 routing_h5979c1:5 emissions_h5979c1:5" vType="default_016" speedFactor="0.88" vaporized="">
        <emissions CO_abs="8598.847181" CO2_abs="248834.654569" HC_abs="44.884778" PMx_abs="4.620533" NOx_abs="104.446943" fuel_abs="106.966984" electricity_abs="0"/>
    </tripinfo>
    <tripinfo id="carIn86816:1" depart="57617.00" departLane="128361102#0_1" departPos="5.10" departSpeed="0.00" departDelay="0.80" arrival="57813.00" arrivalLane="201956811#0_1" arrivalPos="40.40" arrivalSpeed="15.07" duration="196.00" routeLength="2067.33" waitingTime="29.00" waitingCount="2" stopTime="0.00" timeLoss="56.86" rerouteNo="1" devices="tripinfo_carIn86816:1 routing_carIn86816:1 emissions_carIn86816:1" vType="default_016" speedFactor="1.09" vaporized="">
        <emissions CO_abs="9725.770562" CO2_abs="540004.951869" HC_abs="56.911336" PMx_abs="9.827399" NOx_abs="220.419557" fuel_abs="232.126016" electricity_abs="0"/>
    </tripinfo>
    <tripinfo id="carIn129809:1" depart="57729.00" departLane="-447569998#1_1" departPos="5.10" departSpeed="0.00" departDelay="1.00" arrival="57823.00" arrivalLane="-315358244_1" arrivalPos="33.95" arrivalSpeed="13.46" duration="94.00" routeLength="706.49" waitingTime="15.00" waitingCount="2" stopTime="0.00" timeLoss="32.67" rerouteNo="1" devices="tripinfo_carIn129809:1 routing_carIn129809:1 emissions_carIn129809:1" vType="default_015" speedFactor="0.99" vaporized="">
        <emissions CO_abs="4435.095233" CO2_abs="214355.864362" HC_abs="25.201477" PMx_abs="3.807448" NOx_abs="88.016816" fuel_abs="92.143335" electricity_abs="0"/>
    </tripinfo>
    <tripinfo id="h5216c1:1" depart="57664.00" departLane="224892339#0_1" departPos="5.10" departSpeed="0.00" departDelay="0.00" arrival="57825.00" arrivalLane="386687235_1" arrivalPos="80.84" arrivalSpeed="13.73" duration="161.00" routeLength="1823.78" waitingTime="0.00" waitingCount="0" stopTime="0.00" timeLoss="38.10" rerouteNo="1" devices="tripinfo_h5216c1:1 routing_h5216c1:1 emissions_h5216c1:1" vType="default_016" speedFactor="1.04" vaporized="">
        <emissions CO_abs="6395.297931" CO2_abs="447622.125800" HC_abs="39.624972" PMx_abs="7.761281" NOx_abs="180.821850" fuel_abs="192.413536" electricity_abs="0"/>
    </tripinfo>
    <tripinfo id="carIn121703:1" depart="57647.00" departLane="386687232#0_1" departPos="5.10" departSpeed="0.00" departDelay="0.30" arrival="57826.00" arrivalLane="-315358244_1" arrivalPos="33.95" arrivalSpeed="13.03" duration="179.00" routeLength="1157.39" waitingTime="78.00" waitingCount="2" stopTime="0.00" timeLoss="93.55" rerouteNo="1" devices="tripinfo_carIn121703:1 routing_carIn121703:1 emissions_carIn121703:1" vType="default_016" speedFactor="0.99" vaporized="">
        <emissions CO_abs="14104.054153" CO2_abs="430062.491657" HC_abs="74.276457" PMx_abs="8.555226" NOx_abs="181.542886" fuel_abs="184.870461" electricity_abs="0"/>
    </tripinfo>
    <tripinfo id="h11737c1:1" depart="57665.00" departLane="272042143_1" departPos="5.10" departSpeed="0.00" departDelay="1.50" arrival="57827.00" arrivalLane="-315358254#1_1" arrivalPos="137.16" arrivalSpeed="12.81" duration="162.00" routeLength="1596.88" waitingTime="25.00" waitingCount="1" stopTime="0.00" timeLoss="40.73" rerouteNo="1" devices="tripinfo_h11737c1:1 routing_h11737c1:1 emissions_h11737c1:1" vType="default_016" speedFactor="0.96" vaporized="">
        <emissions CO_abs="7263.169812" CO2_abs="371322.340994" HC_abs="41.733443" PMx_abs="6.390988" NOx_abs="149.776708" fuel_abs="159.617276" electricity_abs="0"/>
    </tripinfo>
    <tripinfo id="h645c1:1" depart="57622.00" departLane="266565295#5_1" departPos="5.10" departSpeed="0.00" departDelay="0.40" arrival="57828.00" arrivalLane="-315358244_1" arrivalPos="33.95" arrivalSpeed="12.90" duration="206.00" routeLength="1910.83" waitingTime="36.00" waitingCount="2" stopTime="0.00" timeLoss="58.75" rerouteNo="1" devices="tripinfo_h645c1:1 routing_h645c1:1 emissions_h645c1:1" vType="default_016" speedFactor="0.94" vaporized="">
        <emissions CO_abs="9820.974667" CO2_abs="473253.492780" HC_abs="55.738147" PMx_abs="8.102036" NOx_abs="190.698576" fuel_abs="203.434122" electricity_abs="0"/>
    </tripinfo>
    <tripinfo id="carIn126288:1" depart="57674.00" departLane="272042143_1" departPos="5.10" departSpeed="0.00" departDelay="0.00" arrival="57830.00" arrivalLane="-315358254#1_1" arrivalPos="137.16" arrivalSpeed="12.40" duration="156.00" routeLength="1596.88" waitingTime="9.00" waitingCount="1" stopTime="0.00" timeLoss="27.89" rerouteNo="1" devices="tripinfo_carIn126288:1 routing_carIn126288:1 emissions_carIn126288:1" vType="default_016" speedFactor="0.91" vaporized="">
        <emissions CO_abs="5410.199939" CO2_abs="359725.816079" HC_abs="32.986616" PMx_abs="5.731385" NOx_abs="142.482312" fuel_abs="154.631649" electricity_abs="0"/>
    </tripinfo>
    <tripinfo id="carIn12152:1" depart="57647.00" departLane="24599188#0.94_1" departPos="5.10" departSpeed="0.00" departDelay="0.50" arrival="57837.00" arrivalLane="-315358254#1_1" arrivalPos="137.16" arrivalSpeed="13.51" duration="190.00" routeLength="2034.31" waitingTime="14.00" waitingCount="2" stopTime="0.00" timeLoss="39.37" rerouteNo="1" devices="tripinfo_carIn12152:1 routing_carIn12152:1 emissions_carIn12152:1" vType="default_016" speedFactor="1.05" vaporized="">
        <emissions CO_abs="6901.272499" CO2_abs="440946.996122" HC_abs="41.740868" PMx_abs="7.570592" NOx_abs="177.325058" fuel_abs="189.544845" electricity_abs="0"/>
    </tripinfo>
    <tripinfo id="h3864c1:3" depart="57678.00" departLane="24693977#1_1" departPos="5.10" departSpeed="0.00" departDelay="0.00" arrival="57840.00" arrivalLane="201956820_1" arrivalPos="48.33" arrivalSpeed="13.72" duration="162.00" routeLength="1574.85" waitingTime="11.00" waitingCount="1" stopTime="0.00" timeLoss="34.57" rerouteNo="1" devices="tripinfo_h3864c1:3 routing_h3864c1:3 emissions_h3864c1:3" vType="default_016" speedFactor="1.01" vaporized="">
        <emissions CO_abs="7260.793182" CO2_abs="434188.516148" HC_abs="43.207739" PMx_abs="7.603498" NOx_abs="176.710679" fuel_abs="186.639705" electricity_abs="0"/>
    </tripinfo>
    <tripinfo id="carIn12365:1" depart="57713.00" departLane="315358244_1" departPos="5.10" departSpeed="0.00" departDelay="0.50" arrival="57841.00" arrivalLane="447569997#1_1" arrivalPos="180.93" arrivalSpeed="7.95" duration="128.00" routeLength="718.04" waitingTime="58.00" waitingCount="1" stopTime="0.00" timeLoss="71.27" rerouteNo="1" devices="tripinfo_carIn12365:1 routing_carIn12365:1 emissions_carIn12365:1" vType="default_016" speedFactor="1.09" vaporized="">
        <emissions CO_abs="11848.359289" CO2_abs="315733.776609" HC_abs="61.307359" PMx_abs="6.523643" NOx_abs="135.230360" fuel_abs="135.724974" electricity_abs="0"/>
    </tripinfo>
    <tripinfo id="randUni15030:1" depart="57735.00" departLane="386687232#0_1" departPos="5.10" departSpeed="0.00" departDelay="0.10" arrival="57842.00" arrivalLane="26677539_1" arrivalPos="151.98" arrivalSpeed="7.45" duration="107.00" routeLength="919.89" waitingTime="5.00" waitingCount="1" stopTime="0.00" timeLoss="21.08" rerouteNo="1" devices="tripinfo_randUni15030:1 routing_randUni15030:1 emissions_randUni15030:1" vType="random_016" speedFactor="0.98" vaporized="">
        <emissions CO_abs="3711.818808" CO2_abs="207556.948574" HC_abs="21.712102" PMx_abs="3.411683" NOx_abs="83.574874" fuel_abs="89.220651" electricity_abs="0"/>
    </tripinfo>
    <tripinfo id="h17600c1:1" depart="57662.00" departLane="272042143_1" departPos="5.10" departSpeed="0.00" departDelay="0.30" arrival="57843.00" arrivalLane="201238729#3_1" arrivalPos="431.02" arrivalSpeed="12.43" duration="181.00" routeLength="2100.26" waitingTime="9.00" waitingCount="1" stopTime="0.00" timeLoss="27.12" rerouteNo="1" devices="tripinfo_h17600c1:1 routing_h17600c1:1 emissions_h17600c1:1" vType="default_016" speedFactor="0.99" vaporized="">
        <emissions CO_abs="5237.075740" CO2_abs="400787.397594" HC_abs="33.179178" PMx_abs="6.451847" NOx_abs="157.964557" fuel_abs="172.281713" electricity_abs="0"/>
    </tripinfo>
    <tripinfo id="randUni31145:1" depart="57814.00" departLane="10425609#0_1" departPos="5.10" departSpeed="0.00" departDelay="0.30" arrival="57844.00" arrivalLane="201956810_1" arrivalPos="71.65" arrivalSpeed="14.21" duration="30.00" routeLength="255.78" waitingTime="0.00" waitingCount="0" stopTime="0.00" timeLoss="11.39" rerouteNo="1" devices="tripinfo_randUni31145:1 routing_randUni31145:1 emissions_randUni31145:1" vType="random_016" speedFactor="1.07" vaporized="">
        <emissions CO_abs="2300.244189" CO2_abs="116251.488119" HC_abs="13.193511" PMx_abs="2.263612" NOx_abs="49.274168" fuel_abs="49.971613" electricity_abs="0"/>
    </tripinfo>
    <tripinfo id="50R_frequency3.17" depart="57674.00" departLane="-18809673#6_1" departPos="12.10" departSpeed="0.00" departDelay="0.70" arrival="57845.00" arrivalLane="201956811#0_1" arrivalPos="40.40" arrivalSpeed="11.64" duration="171.00" routeLength="1954.47" waitingTime="2.00" waitingCount="1" stopTime="0.00" timeLoss="26.13" rerouteNo="1" devices="tripinfo_50R_frequency3.17 routing_50R_frequency3.17 emissions_50R_frequency3.17" vType="bus" speedFactor="1.00" vaporized="">
        <emissions CO_abs="3133.516836" CO2_abs="1976328.014664" HC_abs="660.947549" PMx_abs="336.277012" NOx_abs="15298.386012" fuel_abs="842.887398" electricity_abs="0"/>
    </tripinfo>
    <tripinfo id="carIn50326:1" depart="57651.00" departLane="128361102#0_1" departPos="5.10" departSpeed="0.00" departDelay="0.30" arrival="57847.00" arrivalLane="18809673#0_1" arrivalPos="473.56" arrivalSpeed="15.59" duration="196.00" routeLength="1591.07" waitingTime="53.00" waitingCount="2" stopTime="0.00" timeLoss="85.47" rerouteNo="1" devices="tripinfo_carIn50326:1 routing_carIn50326:1 emissions_carIn50326:1" vType="default_016" speedFactor="1.18" vaporized="">
        <emissions CO_abs="13112.506171" CO2_abs="500252.652270" HC_abs="71.280040" PMx_abs="9.586826" NOx_abs="208.251001" fuel_abs="215.040791" electricity_abs="0"/>
    </tripinfo>
    <tripinfo id="randUni2407:1" depart="57820.00" departLane="10425609#0_1" departPos="5.10" departSpeed="0.00" departDelay="0.80" arrival="57848.00" arrivalLane="201956810_1" arrivalPos="71.65" arrivalSpeed="11.75" duration="28.00" routeLength="255.78" waitingTime="0.00" waitingCount="0" stopTime="0.00" timeLoss="6.39" rerouteNo="1" devices="tripinfo_randUni2407:1 routing_randUni2407:1 emissions_randUni2407:1" vType="random_016" speedFactor="0.93" vaporized="">
        <emissions CO_abs="1637.120747" CO2_abs="85650.339876" HC_abs="9.470390" PMx_abs="1.595800" NOx_abs="35.854912" fuel_abs="36.817533" electricity_abs="0"/>
    </tripinfo>
    <tripinfo id="h8343c1:5" depart="57679.00" departLane="315358254#0_1" departPos="5.10" departSpeed="0.00" departDelay="0.60" arrival="57850.00" arrivalLane="-24634510#5_1" arrivalPos="236.88" arrivalSpeed="13.21" duration="171.00" routeLength="2056.84" waitingTime="14.00" waitingCount="2" stopTime="0.00" timeLoss="49.31" rerouteNo="1" devices="tripinfo_h8343c1:5 routing_h8343c1:5 emissions_h8343c1:5" vType="default_016" speedFactor="1.03" vaporized="">
        <emissions CO_abs="9196.917987" CO2_abs="583425.769357" HC_abs="55.764842" PMx_abs="11.124254" NOx_abs="240.105084" fuel_abs="250.789106" electricity_abs="0"/>
    </tripinfo>
    <tripinfo id="h9953c2:3" depart="57682.00" departLane="-54169231#2_1" departPos="5.10" departSpeed="0.00" departDelay="0.00" arrival="57853.00" arrivalLane="386687235_2" arrivalPos="80.84" arrivalSpeed="13.62" duration="171.00" routeLength="1535.60" waitingTime="16.00" waitingCount="4" stopTime="0.00" timeLoss="49.66" rerouteNo="1" devices="tripinfo_h9953c2:3 routing_h9953c2:3 emissions_h9953c2:3" vType="default_016" speedFactor="1.03" vaporized="">
        <emissions CO_abs="7345.600170" CO2_abs="441955.653794" HC_abs="43.781883" PMx_abs="7.708623" NOx_abs="179.822882" fuel_abs="189.978472" electricity_abs="0"/>
    </tripinfo>
    <tripinfo id="carIn48184:1" depart="57613.00" departLane="-306240162#1_0" departPos="5.10" departSpeed="0.00" departDelay="0.70" arrival="57854.00" arrivalLane="386687235_1" arrivalPos="80.84" arrivalSpeed="11.97" duration="241.00" routeLength="2257.41" waitingTime="41.00" waitingCount="3" stopTime="0.00" timeLoss="70.27" rerouteNo="1" devices="tripinfo_carIn48184:1 routing_carIn48184:1 emissions_carIn48184:1" vType="default_016" speedFactor="0.87" vaporized="">
        <emissions CO_abs="11867.661540" CO2_abs="577965.171973" HC_abs="67.427370" PMx_abs="10.134830" NOx_abs="233.854468" fuel_abs="248.445351" electricity_abs="0"/>
    </tripinfo>
    <tripinfo id="h16072c2:3" depart="57663.00" departLane="315358254#0_1" departPos="5.10" departSpeed="0.00" departDelay="2.50" arrival="57856.00" arrivalLane="386687235_1" arrivalPos="80.84" arrivalSpeed="12.26" duration="193.00" routeLength="1611.92" waitingTime="36.00" waitingCount="4" stopTime="0.00" timeLoss="66.50" rerouteNo="1" devices="tripinfo_h16072c2:3 routing_h16072c2:3 emissions_h16072c2:3" vType="default_016" speedFactor="0.93" vaporized="">
        <emissions CO_abs="8337.216796" CO2_abs="419564.714926" HC_abs="47.766928" PMx_abs="7.369425" NOx_abs="171.079834" fuel_abs="180.354622" electricity_abs="0"/>
    </tripinfo>
    <tripinfo id="h9563c2:5" depart="57631.00" departLane="315358244_1" departPos="5.10" departSpeed="0.00" departDelay="0.70" arrival="57867.00" arrivalLane="386687235_1" arrivalPos="80.84" arrivalSpeed="12.60" duration="236.00" routeLength="1186.14" waitingTime="111.00" waitingCount="2" stopTime="0.00" timeLoss="144.16" rerouteNo="1" devices="tripinfo_h9563c2:5 routing_h9563c2:5 emissions_h9563c2:5" vType="default_016" speedFactor="0.94" vaporized="">
        <emissions CO_abs="22528.633662" CO2_abs="589095.387850" HC_abs="116.388301" PMx_abs="12.396976" NOx_abs="254.483203" fuel_abs="253.235312" electricity_abs="0"/>
    </tripinfo>
    <tripinfo id="carIn12858:1" depart="57661.00" departLane="128361109#1_1" departPos="5.10" departSpeed="0.00" departDelay="0.90" arrival="57871.00" arrivalLane="399835085#1_1" arrivalPos="212.23" arrivalSpeed="8.52" duration="210.00" routeLength="1738.12" waitingTime="75.00" waitingCount="1" stopTime="0.00" timeLoss="103.51" rerouteNo="1" devices="tripinfo_carIn12858:1 routing_carIn12858:1 emissions_carIn12858:1" vType="default_016" speedFactor="1.09" vaporized="">
        <emissions CO_abs="18782.808736" CO2_abs="667955.593796" HC_abs="101.464818" PMx_abs="14.224969" NOx_abs="285.783388" fuel_abs="287.129423" electricity_abs="0"/>
    </tripinfo>
    <tripinfo id="carIn118591:1" depart="57689.00" departLane="315358244_1" departPos="5.10" departSpeed="0.00" departDelay="0.20" arrival="57871.00" arrivalLane="386687235_1" arrivalPos="80.84" arrivalSpeed="10.80" duration="182.00" routeLength="1186.14" waitingTime="60.00" waitingCount="2" stopTime="0.00" timeLoss="80.84" rerouteNo="1" devices="tripinfo_carIn118591:1 routing_carIn118591:1 emissions_carIn118591:1" vType="default_016" speedFactor="0.85" vaporized="">
        <emissions CO_abs="13184.460127" CO2_abs="417198.459397" HC_abs="69.711911" PMx_abs="7.770604" NOx_abs="173.461284" fuel_abs="179.340921" electricity_abs="0"/>
    </tripinfo>
    <tripinfo id="carIn73855:1" depart="57743.00" departLane="386687232#0_1" departPos="5.10" departSpeed="0.00" departDelay="0.50" arrival="57873.00" arrivalLane="-315358244_1" arrivalPos="33.95" arrivalSpeed="12.07" duration="130.00" routeLength="1157.39" waitingTime="18.00" waitingCount="1" stopTime="0.00" timeLoss="39.06" rerouteNo="1" devices="tripinfo_carIn73855:1 routing_carIn73855:1 emissions_carIn73855:1" vType="default_016" speedFactor="0.93" vaporized="">
        <emissions CO_abs="6495.217109" CO2_abs="325597.955782" HC_abs="37.167983" PMx_abs="5.639820" NOx_abs="132.237440" fuel_abs="139.962095" electricity_abs="0"/>
    </tripinfo>