<?xml version="1.0" encoding="UTF-8"?>

<!-- generated on 2021-10-26 14:15:06 by Eclipse SUMO sumo Version 1.10.0
<configuration xmlns:xsi="http://www.w3.org/2001/XMLSchema-instance" xsi:noNamespaceSchemaLocation="http://sumo.dlr.de/xsd/sumoConfiguration.xsd">

    <input>
        <net-file value="/Users/behradkoohy/sumo-scratchpad/RESCO/environments/ingolstadt21/ingolstadt21.net.xml"/>
        <route-files value="/Users/behradkoohy/sumo-scratchpad/RESCO/environments/ingolstadt21/ingolstadt21.rou.xml"/>
    </input>

    <output>
        <tripinfo-output value="/Users/behradkoohy/sumo-scratchpad/RESCO/logs/STOCHASTIC-tr0-ingolstadt21-21-mplight-wait/tripinfo_34.xml"/>
        <tripinfo-output.write-unfinished value="true"/>
    </output>

    <time>
        <begin value="57600"/>
        <end value="61200"/>
    </time>

    <processing>
        <time-to-teleport value="-1"/>
    </processing>

    <report>
        <no-warnings value="true"/>
        <no-step-log value="true"/>
    </report>

    <emissions>
        <device.emissions.probability value="1"/>
    </emissions>

    <traci_server>
        <remote-port value="60146"/>
    </traci_server>

    <random_number>
        <random value="true"/>
    </random_number>

</configuration>
-->

<tripinfos xmlns:xsi="http://www.w3.org/2001/XMLSchema-instance" xsi:noNamespaceSchemaLocation="http://sumo.dlr.de/xsd/tripinfo_file.xsd">
    <tripinfo id="h15454c2:3" depart="57612.00" departLane="24608844_1" departPos="5.10" departSpeed="0.00" departDelay="0.50" arrival="57652.00" arrivalLane="32978638#0_1" arrivalPos="49.29" arrivalSpeed="13.37" duration="40.00" routeLength="354.79" waitingTime="0.00" waitingCount="0" stopTime="0.00" timeLoss="4.85" rerouteNo="1" devices="tripinfo_h15454c2:3 routing_h15454c2:3 emissions_h15454c2:3" vType="default_016" speedFactor="0.98" vaporized="">
        <emissions CO_abs="1676.966448" CO2_abs="96121.020499" HC_abs="9.869940" PMx_abs="1.606297" NOx_abs="38.886694" fuel_abs="41.318607" electricity_abs="0"/>
    </tripinfo>
    <tripinfo id="carIn53971:1" depart="57640.00" departLane="272042143_1" departPos="5.10" departSpeed="0.00" departDelay="0.80" arrival="57693.00" arrivalLane="24634414#1_1" arrivalPos="162.19" arrivalSpeed="7.65" duration="53.00" routeLength="493.04" waitingTime="0.00" waitingCount="0" stopTime="0.00" timeLoss="8.71" rerouteNo="1" devices="tripinfo_carIn53971:1 routing_carIn53971:1 emissions_carIn53971:1" vType="default_016" speedFactor="1.02" vaporized="">
        <emissions CO_abs="2652.693280" CO2_abs="148610.746554" HC_abs="15.564638" PMx_abs="2.664367" NOx_abs="61.371278" fuel_abs="63.881621" electricity_abs="0"/>
    </tripinfo>
    <tripinfo id="h7800c1:5" depart="57696.00" departLane="-447569998#1_1" departPos="5.10" departSpeed="0.00" departDelay="0.00" arrival="57726.00" arrivalLane="-447569998#1_2" arrivalPos="180.76" arrivalSpeed="5.87" duration="30.00" routeLength="175.66" waitingTime="0.00" waitingCount="0" stopTime="0.00" timeLoss="4.54" rerouteNo="1" devices="tripinfo_h7800c1:5 routing_h7800c1:5 emissions_h7800c1:5" vType="default_016" speedFactor="0.85" vaporized="">
        <emissions CO_abs="1411.690141" CO2_abs="51200.967804" HC_abs="7.591392" PMx_abs="0.825013" NOx_abs="20.839876" fuel_abs="22.009718" electricity_abs="0"/>
    </tripinfo>
    <tripinfo id="carIn60260:1" depart="57606.00" departLane="315358254#0_1" departPos="5.10" departSpeed="0.00" departDelay="0.90" arrival="57739.00" arrivalLane="399835085#1_1" arrivalPos="212.23" arrivalSpeed="8.24" duration="133.00" routeLength="430.98" waitingTime="81.00" waitingCount="1" stopTime="0.00" timeLoss="91.65" rerouteNo="1" devices="tripinfo_carIn60260:1 routing_carIn60260:1 emissions_carIn60260:1" vType="default_016" speedFactor="1.11" vaporized="">
        <emissions CO_abs="15028.666370" CO2_abs="325909.148860" HC_abs="76.072828" PMx_abs="7.287641" NOx_abs="144.000662" fuel_abs="140.100546" electricity_abs="0"/>
    </tripinfo>
    <tripinfo id="h3688c1:1" depart="57625.00" departLane="201201950#1_1" departPos="5.10" departSpeed="0.00" departDelay="0.00" arrival="57739.00" arrivalLane="32978638#0_1" arrivalPos="49.29" arrivalSpeed="14.96" duration="114.00" routeLength="1089.75" waitingTime="26.00" waitingCount="1" stopTime="0.00" timeLoss="40.63" rerouteNo="1" devices="tripinfo_h3688c1:1 routing_h3688c1:1 emissions_h3688c1:1" vType="default_016" speedFactor="1.10" vaporized="">
        <emissions CO_abs="7739.213596" CO2_abs="350463.920157" HC_abs="43.320948" PMx_abs="6.688375" NOx_abs="145.357256" fuel_abs="150.650780" electricity_abs="0"/>
    </tripinfo>
    <tripinfo id="h4538c1:1" depart="57701.00" departLane="-10427692#1_1" departPos="5.10" departSpeed="0.00" departDelay="0.00" arrival="57745.00" arrivalLane="-128361102#1_1" arrivalPos="274.68" arrivalSpeed="13.63" duration="44.00" routeLength="440.74" waitingTime="3.00" waitingCount="1" stopTime="0.00" timeLoss="13.52" rerouteNo="1" devices="tripinfo_h4538c1:1 routing_h4538c1:1 emissions_h4538c1:1" vType="default_016" speedFactor="1.05" vaporized="">
        <emissions CO_abs="1946.569649" CO2_abs="123749.615795" HC_abs="11.744245" PMx_abs="2.155133" NOx_abs="50.101829" fuel_abs="53.194777" electricity_abs="0"/>
    </tripinfo>
    <tripinfo id="h5979c1:5" depart="57669.00" departLane="399835085#1_1" departPos="5.10" departSpeed="0.00" departDelay="0.00" arrival="57748.00" arrivalLane="-315358254#1_1" arrivalPos="137.16" arrivalSpeed="13.82" duration="79.00" routeLength="659.33" waitingTime="0.00" waitingCount="0" stopTime="0.00" timeLoss="8.94" rerouteNo="1" devices="tripinfo_h5979c1:5 routing_h5979c1:5 emissions_h5979c1:5" vType="default_016" speedFactor="1.05" vaporized="">
        <emissions CO_abs="3144.647498" CO2_abs="170676.998067" HC_abs="18.248092" PMx_abs="2.703897" NOx_abs="68.349288" fuel_abs="73.367601" electricity_abs="0"/>
    </tripinfo>
    <tripinfo id="carIn121703:1" depart="57647.00" departLane="386687232#0_1" departPos="5.10" departSpeed="0.00" departDelay="0.30" arrival="57756.00" arrivalLane="-315358244_1" arrivalPos="33.95" arrivalSpeed="12.69" duration="109.00" routeLength="1157.39" waitingTime="7.00" waitingCount="2" stopTime="0.00" timeLoss="24.98" rerouteNo="1" devices="tripinfo_carIn121703:1 routing_carIn121703:1 emissions_carIn121703:1" vType="default_016" speedFactor="1.00" vaporized="">
        <emissions CO_abs="3782.408102" CO2_abs="275592.029503" HC_abs="23.624540" PMx_abs="4.533671" NOx_abs="109.570863" fuel_abs="118.465437" electricity_abs="0"/>
    </tripinfo>
    <tripinfo id="h317c2:1" depart="57707.00" departLane="-32978638#0_1" departPos="5.10" departSpeed="0.00" departDelay="0.10" arrival="57759.00" arrivalLane="-266565295#5_1" arrivalPos="172.76" arrivalSpeed="11.18" duration="52.00" routeLength="370.53" waitingTime="10.00" waitingCount="1" stopTime="0.00" timeLoss="19.54" rerouteNo="1" devices="tripinfo_h317c2:1 routing_h317c2:1 emissions_h317c2:1" vType="default_016" speedFactor="0.85" vaporized="">
        <emissions CO_abs="2893.688848" CO2_abs="118359.077061" HC_abs="15.935765" PMx_abs="2.161409" NOx_abs="49.160572" fuel_abs="50.878283" electricity_abs="0"/>
    </tripinfo>
    <tripinfo id="carIn27009:1" depart="57673.00" departLane="-447569998#1_1" departPos="5.10" departSpeed="0.00" departDelay="0.50" arrival="57762.00" arrivalLane="-26677539_1" arrivalPos="152.75" arrivalSpeed="8.89" duration="89.00" routeLength="699.63" waitingTime="0.00" waitingCount="0" stopTime="0.00" timeLoss="10.77" rerouteNo="1" devices="tripinfo_carIn27009:1 routing_carIn27009:1 emissions_carIn27009:1" vType="default_015" speedFactor="1.07" vaporized="">
        <emissions CO_abs="3556.061390" CO2_abs="182675.354966" HC_abs="20.389311" PMx_abs="2.908834" NOx_abs="73.607306" fuel_abs="78.525345" electricity_abs="0"/>
    </tripinfo>
    <tripinfo id="h330c1:1" depart="57736.00" departLane="-32978638#0_1" departPos="5.10" departSpeed="0.00" departDelay="0.20" arrival="57766.00" arrivalLane="-266565295#5_1" arrivalPos="172.76" arrivalSpeed="15.31" duration="30.00" routeLength="370.53" waitingTime="0.00" waitingCount="0" stopTime="0.00" timeLoss="6.05" rerouteNo="1" devices="tripinfo_h330c1:1 routing_h330c1:1 emissions_h330c1:1" vType="default_016" speedFactor="1.16" vaporized="">
        <emissions CO_abs="1800.733542" CO2_abs="122024.357139" HC_abs="11.052282" PMx_abs="2.260967" NOx_abs="50.187955" fuel_abs="52.452857" electricity_abs="0"/>
    </tripinfo>
    <tripinfo id="carIn22761:1" depart="57616.00" departLane="-306240162#1_0" departPos="5.10" departSpeed="0.00" departDelay="2.10" arrival="57767.00" arrivalLane="399835085#1_1" arrivalPos="212.23" arrivalSpeed="7.39" duration="151.00" routeLength="1093.26" waitingTime="40.00" waitingCount="2" stopTime="0.00" timeLoss="67.56" rerouteNo="1" devices="tripinfo_carIn22761:1 routing_carIn22761:1 emissions_carIn22761:1" vType="default_016" speedFactor="0.94" vaporized="">
        <emissions CO_abs="10499.627456" CO2_abs="403216.286906" HC_abs="57.335081" PMx_abs="7.989423" NOx_abs="169.965338" fuel_abs="173.327840" electricity_abs="0"/>
    </tripinfo>
    <tripinfo id="carIn30817:1" depart="57681.00" departLane="315358244_1" departPos="5.10" departSpeed="0.00" departDelay="0.20" arrival="57775.00" arrivalLane="447569997#1_1" arrivalPos="180.93" arrivalSpeed="7.83" duration="94.00" routeLength="718.04" waitingTime="9.00" waitingCount="3" stopTime="0.00" timeLoss="29.77" rerouteNo="1" devices="tripinfo_carIn30817:1 routing_carIn30817:1 emissions_carIn30817:1" vType="default_016" speedFactor="0.96" vaporized="">
        <emissions CO_abs="4224.053060" CO2_abs="205504.964771" HC_abs="24.006922" PMx_abs="3.521235" NOx_abs="83.736151" fuel_abs="88.338827" electricity_abs="0"/>
    </tripinfo>
    <tripinfo id="h3326c1:2" depart="57656.00" departLane="22716069#0_1" departPos="5.10" departSpeed="0.00" departDelay="0.00" arrival="57776.00" arrivalLane="24634517#13_1" arrivalPos="111.62" arrivalSpeed="13.00" duration="120.00" routeLength="1312.81" waitingTime="0.00" waitingCount="0" stopTime="0.00" timeLoss="15.70" rerouteNo="1" devices="tripinfo_h3326c1:2 routing_h3326c1:2 emissions_h3326c1:2" vType="default_016" speedFactor="0.94" vaporized="">
        <emissions CO_abs="4465.148194" CO2_abs="317783.877207" HC_abs="27.786536" PMx_abs="5.426024" NOx_abs="128.393596" fuel_abs="136.601655" electricity_abs="0"/>
    </tripinfo>
    <tripinfo id="h3568c1:3" depart="57656.00" departLane="266565295#5_1" departPos="5.10" departSpeed="0.00" departDelay="0.80" arrival="57787.00" arrivalLane="-24634415_1" arrivalPos="62.03" arrivalSpeed="9.13" duration="131.00" routeLength="807.40" waitingTime="24.00" waitingCount="2" stopTime="0.00" timeLoss="43.31" rerouteNo="1" devices="tripinfo_h3568c1:3 routing_h3568c1:3 emissions_h3568c1:3" vType="default_016" speedFactor="0.74" vaporized="">
        <emissions CO_abs="7459.252165" CO2_abs="263811.214874" HC_abs="40.101939" PMx_abs="4.947549" NOx_abs="110.963079" fuel_abs="113.403500" electricity_abs="0"/>
    </tripinfo>
    <tripinfo id="h645c1:1" depart="57622.00" departLane="266565295#5_1" departPos="5.10" departSpeed="0.00" departDelay="0.40" arrival="57793.00" arrivalLane="-315358244_1" arrivalPos="33.95" arrivalSpeed="13.07" duration="171.00" routeLength="1910.83" waitingTime="8.00" waitingCount="2" stopTime="0.00" timeLoss="36.04" rerouteNo="1" devices="tripinfo_h645c1:1 routing_h645c1:1 emissions_h645c1:1" vType="default_016" speedFactor="1.03" vaporized="">
        <emissions CO_abs="6088.221353" CO2_abs="447327.627845" HC_abs="38.207398" PMx_abs="7.713735" NOx_abs="180.045241" fuel_abs="192.286785" electricity_abs="0"/>
    </tripinfo>
    <tripinfo id="carIn107282:1" depart="57749.00" departLane="-447569998#1_1" departPos="5.10" departSpeed="0.00" departDelay="0.00" arrival="57796.00" arrivalLane="315358242#0_1" arrivalPos="165.37" arrivalSpeed="13.64" duration="47.00" routeLength="448.50" waitingTime="0.00" waitingCount="0" stopTime="0.00" timeLoss="4.70" rerouteNo="1" devices="tripinfo_carIn107282:1 routing_carIn107282:1 emissions_carIn107282:1" vType="default_016" speedFactor="0.99" vaporized="">
        <emissions CO_abs="1817.605937" CO2_abs="111125.251077" HC_abs="10.855524" PMx_abs="1.810594" NOx_abs="44.536780" fuel_abs="47.768309" electricity_abs="0"/>
    </tripinfo>
    <tripinfo id="h12244c1:3" depart="57612.00" departLane="315358244_1" departPos="5.10" departSpeed="0.00" departDelay="0.40" arrival="57803.00" arrivalLane="386687235_1" arrivalPos="80.84" arrivalSpeed="15.43" duration="191.00" routeLength="1186.14" waitingTime="92.00" waitingCount="2" stopTime="0.00" timeLoss="114.29" rerouteNo="1" devices="tripinfo_h12244c1:3 routing_h12244c1:3 emissions_h12244c1:3" vType="default_016" speedFactor="1.12" vaporized="">
        <emissions CO_abs="17596.497997" CO2_abs="519100.402994" HC_abs="92.291741" PMx_abs="10.707109" NOx_abs="220.901002" fuel_abs="223.145058" electricity_abs="0"/>
    </tripinfo>
    <tripinfo id="carIn82278:1" depart="57702.00" departLane="-306240162#1_0" departPos="5.10" departSpeed="0.00" departDelay="0.70" arrival="57803.00" arrivalLane="399835085#1_1" arrivalPos="212.23" arrivalSpeed="7.89" duration="101.00" routeLength="1093.26" waitingTime="10.00" waitingCount="1" stopTime="0.00" timeLoss="24.34" rerouteNo="1" devices="tripinfo_carIn82278:1 routing_carIn82278:1 emissions_carIn82278:1" vType="default_016" speedFactor="1.01" vaporized="">
        <emissions CO_abs="5391.256433" CO2_abs="296214.799357" HC_abs="31.564356" PMx_abs="5.710361" NOx_abs="122.721824" fuel_abs="127.330204" electricity_abs="0"/>
    </tripinfo>
    <tripinfo id="h7181c1:1" depart="57660.00" departLane="315358254#0_1" departPos="5.10" departSpeed="0.00" departDelay="0.10" arrival="57804.00" arrivalLane="306240162#0_0" arrivalPos="220.43" arrivalSpeed="12.39" duration="144.00" routeLength="932.35" waitingTime="62.00" waitingCount="2" stopTime="0.00" timeLoss="81.00" rerouteNo="1" devices="tripinfo_h7181c1:1 routing_h7181c1:1 emissions_h7181c1:1" vType="default_016" speedFactor="0.81" vaporized="">
        <emissions CO_abs="12866.051633" CO2_abs="385960.709408" HC_abs="67.686835" PMx_abs="7.992493" NOx_abs="164.692371" fuel_abs="165.912209" electricity_abs="0"/>
    </tripinfo>
    <tripinfo id="h3154c1:1" depart="57658.00" departLane="24634507_1" departPos="5.10" departSpeed="0.00" departDelay="0.00" arrival="57805.00" arrivalLane="-266565295#5_1" arrivalPos="172.76" arrivalSpeed="15.89" duration="147.00" routeLength="1206.22" waitingTime="39.00" waitingCount="3" stopTime="0.00" timeLoss="70.05" rerouteNo="1" devices="tripinfo_h3154c1:1 routing_h3154c1:1 emissions_h3154c1:1" vType="default_016" speedFactor="1.15" vaporized="">
        <emissions CO_abs="10881.892533" CO2_abs="464273.780152" HC_abs="60.528644" PMx_abs="9.167415" NOx_abs="195.344104" fuel_abs="199.573236" electricity_abs="0"/>
    </tripinfo>
    <tripinfo id="carIn118591:1" depart="57689.00" departLane="315358244_1" departPos="5.10" departSpeed="0.00" departDelay="0.20" arrival="57806.00" arrivalLane="386687235_1" arrivalPos="80.84" arrivalSpeed="14.66" duration="117.00" routeLength="1186.14" waitingTime="14.00" waitingCount="2" stopTime="0.00" timeLoss="35.90" rerouteNo="1" devices="tripinfo_carIn118591:1 routing_carIn118591:1 emissions_carIn118591:1" vType="default_016" speedFactor="1.07" vaporized="">
        <emissions CO_abs="4823.137578" CO2_abs="305060.728700" HC_abs="29.100735" PMx_abs="5.469393" NOx_abs="124.530538" fuel_abs="131.132612" electricity_abs="0"/>
    </tripinfo>
    <tripinfo id="h9563c2:5" depart="57631.00" departLane="315358244_1" departPos="5.10" departSpeed="0.00" departDelay="0.70" arrival="57809.00" arrivalLane="386687235_1" arrivalPos="80.84" arrivalSpeed="12.87" duration="178.00" routeLength="1186.14" waitingTime="60.00" waitingCount="3" stopTime="0.00" timeLoss="86.93" rerouteNo="1" devices="tripinfo_h9563c2:5 routing_h9563c2:5 emissions_h9563c2:5" vType="default_016" speedFactor="0.95" vaporized="">
        <emissions CO_abs="12974.934966" CO2_abs="421675.879173" HC_abs="68.938770" PMx_abs="8.174673" NOx_abs="177.098831" fuel_abs="181.264868" electricity_abs="0"/>
    </tripinfo>
    <tripinfo id="carIn50326:1" depart="57651.00" departLane="128361102#0_1" departPos="5.10" departSpeed="0.00" departDelay="0.30" arrival="57809.00" arrivalLane="18809673#0_1" arrivalPos="473.56" arrivalSpeed="14.12" duration="158.00" routeLength="1591.07" waitingTime="19.00" waitingCount="1" stopTime="0.00" timeLoss="39.00" rerouteNo="1" devices="tripinfo_carIn50326:1 routing_carIn50326:1 emissions_carIn50326:1" vType="default_016" speedFactor="1.09" vaporized="">
        <emissions CO_abs="7290.190672" CO2_abs="416636.067630" HC_abs="42.667531" PMx_abs="7.041141" NOx_abs="166.534981" fuel_abs="179.095400" electricity_abs="0"/>
    </tripinfo>
    <tripinfo id="carIn28951:1" depart="57606.00" departLane="10425609#0_1" departPos="5.10" departSpeed="0.00" departDelay="0.20" arrival="57812.00" arrivalLane="-128361102#1_1" arrivalPos="274.68" arrivalSpeed="12.39" duration="206.00" routeLength="2113.04" waitingTime="15.00" waitingCount="1" stopTime="0.00" timeLoss="37.93" rerouteNo="1" devices="tripinfo_carIn28951:1 routing_carIn28951:1 emissions_carIn28951:1" vType="default_016" speedFactor="0.92" vaporized="">
        <emissions CO_abs="7419.100726" CO2_abs="463787.443079" HC_abs="44.600227" PMx_abs="7.720793" NOx_abs="185.850710" fuel_abs="199.363426" electricity_abs="0"/>
    </tripinfo>
    <tripinfo id="carIn12365:1" depart="57713.00" departLane="315358244_1" departPos="5.10" departSpeed="0.00" departDelay="0.50" arrival="57813.00" arrivalLane="447569997#1_1" arrivalPos="180.93" arrivalSpeed="7.23" duration="100.00" routeLength="718.04" waitingTime="17.00" waitingCount="1" stopTime="0.00" timeLoss="32.09" rerouteNo="1" devices="tripinfo_carIn12365:1 routing_carIn12365:1 emissions_carIn12365:1" vType="default_016" speedFactor="0.91" vaporized="">
        <emissions CO_abs="4687.377530" CO2_abs="196373.622885" HC_abs="25.909975" PMx_abs="3.506606" NOx_abs="81.069128" fuel_abs="84.413934" electricity_abs="0"/>
    </tripinfo>
    <tripinfo id="h11737c1:1" depart="57665.00" departLane="272042143_1" departPos="5.10" departSpeed="0.00" departDelay="1.50" arrival="57817.00" arrivalLane="-315358254#1_1" arrivalPos="137.16" arrivalSpeed="12.80" duration="152.00" routeLength="1596.88" waitingTime="11.00" waitingCount="1" stopTime="0.00" timeLoss="27.97" rerouteNo="1" devices="tripinfo_h11737c1:1 routing_h11737c1:1 emissions_h11737c1:1" vType="default_016" speedFactor="0.94" vaporized="">
        <emissions CO_abs="5205.862387" CO2_abs="347304.481181" HC_abs="31.805673" PMx_abs="5.715090" NOx_abs="138.583469" fuel_abs="149.291940" electricity_abs="0"/>
    </tripinfo>
    <tripinfo id="carIn86816:1" depart="57617.00" departLane="128361102#0_1" departPos="5.10" departSpeed="0.00" departDelay="0.80" arrival="57819.00" arrivalLane="201956811#0_1" arrivalPos="40.40" arrivalSpeed="13.19" duration="202.00" routeLength="2067.33" waitingTime="20.00" waitingCount="1" stopTime="0.00" timeLoss="50.00" rerouteNo="1" devices="tripinfo_carIn86816:1 routing_carIn86816:1 emissions_carIn86816:1" vType="default_016" speedFactor="1.00" vaporized="">
        <emissions CO_abs="9007.723057" CO2_abs="521888.932880" HC_abs="53.173427" PMx_abs="8.964742" NOx_abs="210.235109" fuel_abs="224.339103" electricity_abs="0"/>
    </tripinfo>
    <tripinfo id="carIn102915:1" depart="57643.00" departLane="128361102#0_1" departPos="5.10" departSpeed="0.00" departDelay="0.40" arrival="57820.00" arrivalLane="201956811#0_1" arrivalPos="40.40" arrivalSpeed="14.04" duration="177.00" routeLength="2067.33" waitingTime="0.00" waitingCount="0" stopTime="0.00" timeLoss="34.36" rerouteNo="1" devices="tripinfo_carIn102915:1 routing_carIn102915:1 emissions_carIn102915:1" vType="default_016" speedFactor="1.06" vaporized="">
        <emissions CO_abs="6876.728489" CO2_abs="493270.904156" HC_abs="42.879688" PMx_abs="8.645813" NOx_abs="200.015751" fuel_abs="212.035676" electricity_abs="0"/>
    </tripinfo>
    <tripinfo id="carIn129809:1" depart="57729.00" departLane="-447569998#1_1" departPos="5.10" departSpeed="0.00" departDelay="1.00" arrival="57823.00" arrivalLane="-315358244_1" arrivalPos="33.95" arrivalSpeed="13.15" duration="94.00" routeLength="706.49" waitingTime="8.00" waitingCount="1" stopTime="0.00" timeLoss="33.16" rerouteNo="1" devices="tripinfo_carIn129809:1 routing_carIn129809:1 emissions_carIn129809:1" vType="default_015" speedFactor="1.00" vaporized="">
        <emissions CO_abs="4272.918797" CO2_abs="207098.889833" HC_abs="24.272819" PMx_abs="3.644443" NOx_abs="84.895449" fuel_abs="89.023872" electricity_abs="0"/>
    </tripinfo>
    <tripinfo id="S5R_frequency1.2" depart="57699.00" departLane="315358250#0_1" departPos="12.10" departSpeed="0.00" departDelay="87.40" arrival="57839.00" arrivalLane="386687235_1" arrivalPos="80.84" arrivalSpeed="13.34" duration="140.00" routeLength="1115.62" waitingTime="25.00" waitingCount="3" stopTime="0.00" timeLoss="58.77" rerouteNo="1" devices="tripinfo_S5R_frequency1.2 routing_S5R_frequency1.2 emissions_S5R_frequency1.2" vType="bus" speedFactor="1.00" vaporized="">
        <emissions CO_abs="2765.603200" CO2_abs="1571878.543204" HC_abs="584.875435" PMx_abs="292.331144" NOx_abs="12642.712884" fuel_abs="670.326507" electricity_abs="0"/>
    </tripinfo>
    <tripinfo id="randUni33724:1" depart="57646.00" departLane="128361102#0_1" departPos="5.10" departSpeed="0.00" departDelay="1.20" arrival="57839.00" arrivalLane="201956811#0_1" arrivalPos="40.40" arrivalSpeed="12.75" duration="193.00" routeLength="2067.33" waitingTime="12.00" waitingCount="2" stopTime="0.00" timeLoss="41.49" rerouteNo="1" devices="tripinfo_randUni33724:1 routing_randUni33724:1 emissions_randUni33724:1" vType="random_016" speedFactor="1.00" vaporized="">
        <emissions CO_abs="6327.450994" CO2_abs="465509.824717" HC_abs="39.656505" PMx_abs="7.679718" NOx_abs="185.201049" fuel_abs="200.103041" electricity_abs="0"/>
    </tripinfo>
    <tripinfo id="carIn126288:1" depart="57674.00" departLane="272042143_1" departPos="5.10" departSpeed="0.00" departDelay="0.00" arrival="57839.00" arrivalLane="-315358254#1_1" arrivalPos="137.16" arrivalSpeed="11.20" duration="165.00" routeLength="1596.88" waitingTime="4.00" waitingCount="1" stopTime="0.00" timeLoss="21.76" rerouteNo="1" devices="tripinfo_carIn126288:1 routing_carIn126288:1 emissions_carIn126288:1" vType="default_016" speedFactor="0.81" vaporized="">
        <emissions CO_abs="4755.939008" CO2_abs="328038.370767" HC_abs="29.203581" PMx_abs="4.899419" NOx_abs="128.515430" fuel_abs="141.010766" electricity_abs="0"/>
    </tripinfo>
    <tripinfo id="randUni15030:1" depart="57735.00" departLane="386687232#0_1" departPos="5.10" departSpeed="0.00" departDelay="0.10" arrival="57843.00" arrivalLane="26677539_1" arrivalPos="151.98" arrivalSpeed="6.92" duration="108.00" routeLength="919.89" waitingTime="6.00" waitingCount="1" stopTime="0.00" timeLoss="21.73" rerouteNo="1" devices="tripinfo_randUni15030:1 routing_randUni15030:1 emissions_randUni15030:1" vType="random_016" speedFactor="0.97" vaporized="">
        <emissions CO_abs="4420.682121" CO2_abs="244609.409150" HC_abs="25.789900" PMx_abs="3.976997" NOx_abs="98.085753" fuel_abs="105.148181" electricity_abs="0"/>
    </tripinfo>
    <tripinfo id="h3864c1:3" depart="57678.00" departLane="24693977#1_1" departPos="5.10" departSpeed="0.00" departDelay="0.00" arrival="57850.00" arrivalLane="201956820_1" arrivalPos="48.33" arrivalSpeed="13.57" duration="172.00" routeLength="1574.85" waitingTime="16.00" waitingCount="3" stopTime="0.00" timeLoss="51.63" rerouteNo="1" devices="tripinfo_h3864c1:3 routing_h3864c1:3 emissions_h3864c1:3" vType="default_016" speedFactor="1.07" vaporized="">
        <emissions CO_abs="9023.462460" CO2_abs="479259.627492" HC_abs="52.316542" PMx_abs="9.011461" NOx_abs="199.860484" fuel_abs="206.013738" electricity_abs="0"/>
    </tripinfo>
    <tripinfo id="carIn88905:1" depart="57688.00" departLane="128361109#1_1" departPos="5.10" departSpeed="0.00" departDelay="5.80" arrival="57850.00" arrivalLane="386687235_2" arrivalPos="80.84" arrivalSpeed="16.62" duration="162.00" routeLength="2088.57" waitingTime="13.00" waitingCount="1" stopTime="0.00" timeLoss="37.31" rerouteNo="1" devices="tripinfo_carIn88905:1 routing_carIn88905:1 emissions_carIn88905:1" vType="default_016" speedFactor="1.21" vaporized="">
        <emissions CO_abs="6949.324462" CO2_abs="494753.873924" HC_abs="43.084255" PMx_abs="8.827901" NOx_abs="198.894984" fuel_abs="212.673187" electricity_abs="0"/>
    </tripinfo>
    <tripinfo id="carIn7949:1" depart="57676.00" departLane="128361109#1_1" departPos="5.10" departSpeed="0.00" departDelay="2.10" arrival="57852.00" arrivalLane="386687235_1" arrivalPos="80.84" arrivalSpeed="15.37" duration="176.00" routeLength="2088.57" waitingTime="18.00" waitingCount="1" stopTime="0.00" timeLoss="44.71" rerouteNo="1" devices="tripinfo_carIn7949:1 routing_carIn7949:1 emissions_carIn7949:1" vType="default_016" speedFactor="1.15" vaporized="">
        <emissions CO_abs="7436.460374" CO2_abs="495077.674278" HC_abs="45.105622" PMx_abs="8.564736" NOx_abs="197.438913" fuel_abs="212.813157" electricity_abs="0"/>
    </tripinfo>
    <tripinfo id="carIn100288:1" depart="57664.00" departLane="128361102#0_1" departPos="5.10" departSpeed="0.00" departDelay="0.60" arrival="57854.00" arrivalLane="201956811#0_1" arrivalPos="40.40" arrivalSpeed="11.59" duration="190.00" routeLength="2067.33" waitingTime="1.00" waitingCount="1" stopTime="0.00" timeLoss="27.11" rerouteNo="1" devices="tripinfo_carIn100288:1 routing_carIn100288:1 emissions_carIn100288:1" vType="default_016" speedFactor="0.93" vaporized="">
        <emissions CO_abs="6156.786702" CO2_abs="435616.083483" HC_abs="38.226932" PMx_abs="7.306474" NOx_abs="175.157098" fuel_abs="187.252897" electricity_abs="0"/>
    </tripinfo>
    <tripinfo id="carIn85747:1" depart="57673.00" departLane="128361109#1_1" departPos="5.10" departSpeed="0.00" departDelay="0.70" arrival="57854.00" arrivalLane="386687235_1" arrivalPos="80.84" arrivalSpeed="13.20" duration="181.00" routeLength="2088.57" waitingTime="12.00" waitingCount="2" stopTime="0.00" timeLoss="35.74" rerouteNo="1" devices="tripinfo_carIn85747:1 routing_carIn85747:1 emissions_carIn85747:1" vType="default_016" speedFactor="1.04" vaporized="">
        <emissions CO_abs="6071.553366" CO2_abs="427365.303803" HC_abs="37.624856" PMx_abs="7.249352" NOx_abs="170.680751" fuel_abs="183.706303" electricity_abs="0"/>
    </tripinfo>
    <tripinfo id="carIn81860:1" depart="57712.00" departLane="128361102#0_1" departPos="5.10" departSpeed="0.00" departDelay="0.60" arrival="57854.00" arrivalLane="-24634517#17_1" arrivalPos="6.43" arrivalSpeed="6.78" duration="142.00" routeLength="1229.64" waitingTime="19.00" waitingCount="1" stopTime="0.00" timeLoss="41.91" rerouteNo="1" devices="tripinfo_carIn81860:1 routing_carIn81860:1 emissions_carIn81860:1" vType="default_016" speedFactor="0.90" vaporized="">
        <emissions CO_abs="7018.304986" CO2_abs="341641.313172" HC_abs="39.916811" PMx_abs="5.930853" NOx_abs="139.067229" fuel_abs="146.858650" electricity_abs="0"/>
    </tripinfo>
    <tripinfo id="carIn29531:1" depart="57667.00" departLane="128361102#0_1" departPos="5.10" departSpeed="0.00" departDelay="1.60" arrival="57856.00" arrivalLane="201956811#0_1" arrivalPos="40.40" arrivalSpeed="14.24" duration="189.00" routeLength="2067.33" waitingTime="4.00" waitingCount="1" stopTime="0.00" timeLoss="49.15" rerouteNo="1" devices="tripinfo_carIn29531:1 routing_carIn29531:1 emissions_carIn29531:1" vType="default_016" speedFactor="1.08" vaporized="">
        <emissions CO_abs="7590.241247" CO2_abs="509137.350042" HC_abs="46.578840" PMx_abs="9.152447" NOx_abs="208.788747" fuel_abs="218.855964" electricity_abs="0"/>
    </tripinfo>
    <tripinfo id="carIn75660:1" depart="57679.00" departLane="128361109#1_1" departPos="5.10" departSpeed="0.00" departDelay="3.40" arrival="57856.00" arrivalLane="386687235_1" arrivalPos="80.84" arrivalSpeed="12.43" duration="177.00" routeLength="2088.57" waitingTime="7.00" waitingCount="1" stopTime="0.00" timeLoss="24.59" rerouteNo="1" devices="tripinfo_carIn75660:1 routing_carIn75660:1 emissions_carIn75660:1" vType="default_016" speedFactor="0.99" vaporized="">
        <emissions CO_abs="4155.767324" CO2_abs="395073.521361" HC_abs="28.062069" PMx_abs="5.790147" NOx_abs="151.183659" fuel_abs="169.825655" electricity_abs="0"/>
    </tripinfo>
    <tripinfo id="h17600c1:1" depart="57662.00" departLane="272042143_1" departPos="5.10" departSpeed="0.00" departDelay="0.30" arrival="57859.00" arrivalLane="201238729#3_1" arrivalPos="431.02" arrivalSpeed="15.46" duration="197.00" routeLength="2100.26" waitingTime="37.00" waitingCount="2" stopTime="0.00" timeLoss="61.27" rerouteNo="1" devices="tripinfo_h17600c1:1 routing_h17600c1:1 emissions_h17600c1:1" vType="default_016" speedFactor="1.12" vaporized="">
        <emissions CO_abs="10150.093919" CO2_abs="519408.022795" HC_abs="58.434674" PMx_abs="9.531432" NOx_abs="211.786008" fuel_abs="223.272890" electricity_abs="0"/>
    </tripinfo>
    <tripinfo id="carIn73855:1" depart="57743.00" departLane="386687232#0_1" departPos="5.10" departSpeed="0.00" departDelay="0.50" arrival="57864.00" arrivalLane="-315358244_2" arrivalPos="33.95" arrivalSpeed="11.22" duration="121.00" routeLength="1157.39" waitingTime="4.00" waitingCount="1" stopTime="0.00" timeLoss="23.27" rerouteNo="1" devices="tripinfo_carIn73855:1 routing_carIn73855:1 emissions_carIn73855:1" vType="default_016" speedFactor="0.87" vaporized="">
        <emissions CO_abs="3931.583505" CO2_abs="252214.037230" HC_abs="23.756218" PMx_abs="4.067444" NOx_abs="100.664103" fuel_abs="108.416659" electricity_abs="0"/>
    </tripinfo>