<?xml version="1.0" encoding="UTF-8"?>

<!-- generated on 2021-10-26 14:50:24 by Eclipse SUMO sumo Version 1.10.0
<configuration xmlns:xsi="http://www.w3.org/2001/XMLSchema-instance" xsi:noNamespaceSchemaLocation="http://sumo.dlr.de/xsd/sumoConfiguration.xsd">

    <input>
        <net-file value="/Users/behradkoohy/sumo-scratchpad/RESCO/environments/ingolstadt21/ingolstadt21.net.xml"/>
        <route-files value="/Users/behradkoohy/sumo-scratchpad/RESCO/environments/ingolstadt21/ingolstadt21.rou.xml"/>
    </input>

    <output>
        <tripinfo-output value="/Users/behradkoohy/sumo-scratchpad/RESCO/logs/STOCHASTIC-tr0-ingolstadt21-21-mplight-wait/tripinfo_93.xml"/>
        <tripinfo-output.write-unfinished value="true"/>
    </output>

    <time>
        <begin value="57600"/>
        <end value="61200"/>
    </time>

    <processing>
        <time-to-teleport value="-1"/>
    </processing>

    <report>
        <no-warnings value="true"/>
        <no-step-log value="true"/>
    </report>

    <emissions>
        <device.emissions.probability value="1"/>
    </emissions>

    <traci_server>
        <remote-port value="60753"/>
    </traci_server>

    <random_number>
        <random value="true"/>
    </random_number>

</configuration>
-->

<tripinfos xmlns:xsi="http://www.w3.org/2001/XMLSchema-instance" xsi:noNamespaceSchemaLocation="http://sumo.dlr.de/xsd/tripinfo_file.xsd">
    <tripinfo id="h15454c2:3" depart="57612.00" departLane="24608844_1" departPos="5.10" departSpeed="0.00" departDelay="0.50" arrival="57652.00" arrivalLane="32978638#0_1" arrivalPos="49.29" arrivalSpeed="12.79" duration="40.00" routeLength="354.79" waitingTime="0.00" waitingCount="0" stopTime="0.00" timeLoss="4.44" rerouteNo="1" devices="tripinfo_h15454c2:3 routing_h15454c2:3 emissions_h15454c2:3" vType="default_016" speedFactor="0.96" vaporized="">
        <emissions CO_abs="1748.600780" CO2_abs="94280.104118" HC_abs="10.150336" PMx_abs="1.585785" NOx_abs="38.328047" fuel_abs="40.527331" electricity_abs="0"/>
    </tripinfo>
    <tripinfo id="carIn53971:1" depart="57640.00" departLane="272042143_1" departPos="5.10" departSpeed="0.00" departDelay="0.80" arrival="57696.00" arrivalLane="24634414#1_1" arrivalPos="162.19" arrivalSpeed="7.28" duration="56.00" routeLength="493.04" waitingTime="0.00" waitingCount="0" stopTime="0.00" timeLoss="7.68" rerouteNo="1" devices="tripinfo_carIn53971:1 routing_carIn53971:1 emissions_carIn53971:1" vType="default_016" speedFactor="0.94" vaporized="">
        <emissions CO_abs="2234.215993" CO2_abs="127318.145124" HC_abs="13.120344" PMx_abs="2.072754" NOx_abs="51.224234" fuel_abs="54.729098" electricity_abs="0"/>
    </tripinfo>
    <tripinfo id="carIn22761:1" depart="57616.00" departLane="-306240162#1_0" departPos="5.10" departSpeed="0.00" departDelay="2.10" arrival="57720.00" arrivalLane="399835085#1_1" arrivalPos="212.23" arrivalSpeed="7.88" duration="104.00" routeLength="1093.26" waitingTime="7.00" waitingCount="1" stopTime="0.00" timeLoss="32.56" rerouteNo="1" devices="tripinfo_carIn22761:1 routing_carIn22761:1 emissions_carIn22761:1" vType="default_016" speedFactor="1.10" vaporized="">
        <emissions CO_abs="5297.061853" CO2_abs="330296.432058" HC_abs="31.988145" PMx_abs="6.454614" NOx_abs="137.364239" fuel_abs="141.979716" electricity_abs="0"/>
    </tripinfo>
    <tripinfo id="h7800c1:5" depart="57696.00" departLane="-447569998#1_1" departPos="5.10" departSpeed="0.00" departDelay="0.00" arrival="57720.00" arrivalLane="-447569998#1_1" arrivalPos="180.76" arrivalSpeed="7.80" duration="24.00" routeLength="175.66" waitingTime="0.00" waitingCount="0" stopTime="0.00" timeLoss="3.22" rerouteNo="1" devices="tripinfo_h7800c1:5 routing_h7800c1:5 emissions_h7800c1:5" vType="default_016" speedFactor="1.03" vaporized="">
        <emissions CO_abs="1165.749837" CO2_abs="51950.762048" HC_abs="6.499546" PMx_abs="0.843448" NOx_abs="21.078530" fuel_abs="22.331805" electricity_abs="0"/>
    </tripinfo>
    <tripinfo id="carIn60260:1" depart="57606.00" departLane="315358254#0_1" departPos="5.10" departSpeed="0.00" departDelay="0.90" arrival="57742.00" arrivalLane="399835085#1_1" arrivalPos="212.23" arrivalSpeed="7.21" duration="136.00" routeLength="430.98" waitingTime="82.00" waitingCount="1" stopTime="0.00" timeLoss="91.20" rerouteNo="1" devices="tripinfo_carIn60260:1 routing_carIn60260:1 emissions_carIn60260:1" vType="default_016" speedFactor="1.02" vaporized="">
        <emissions CO_abs="15589.911249" CO2_abs="339255.920027" HC_abs="78.900405" PMx_abs="7.362263" NOx_abs="148.411472" fuel_abs="145.838303" electricity_abs="0"/>
    </tripinfo>
    <tripinfo id="h3568c1:3" depart="57656.00" departLane="266565295#5_1" departPos="5.10" departSpeed="0.00" departDelay="0.80" arrival="57743.00" arrivalLane="-24634415_1" arrivalPos="62.03" arrivalSpeed="11.81" duration="87.00" routeLength="807.40" waitingTime="1.00" waitingCount="1" stopTime="0.00" timeLoss="17.88" rerouteNo="1" devices="tripinfo_h3568c1:3 routing_h3568c1:3 emissions_h3568c1:3" vType="default_016" speedFactor="0.93" vaporized="">
        <emissions CO_abs="3979.290208" CO2_abs="232159.478862" HC_abs="23.559740" PMx_abs="4.097931" NOx_abs="95.311595" fuel_abs="99.795742" electricity_abs="0"/>
    </tripinfo>
    <tripinfo id="h317c2:1" depart="57707.00" departLane="-32978638#0_1" departPos="5.10" departSpeed="0.00" departDelay="0.10" arrival="57756.00" arrivalLane="-266565295#5_1" arrivalPos="172.76" arrivalSpeed="12.56" duration="49.00" routeLength="370.53" waitingTime="11.00" waitingCount="1" stopTime="0.00" timeLoss="20.17" rerouteNo="1" devices="tripinfo_h317c2:1 routing_h317c2:1 emissions_h317c2:1" vType="default_016" speedFactor="0.97" vaporized="">
        <emissions CO_abs="2994.013976" CO2_abs="131996.006277" HC_abs="16.746571" PMx_abs="2.546486" NOx_abs="55.526763" fuel_abs="56.739916" electricity_abs="0"/>
    </tripinfo>
    <tripinfo id="h5979c1:5" depart="57669.00" departLane="399835085#1_1" departPos="5.10" departSpeed="0.00" departDelay="0.00" arrival="57762.00" arrivalLane="-315358254#1_1" arrivalPos="137.16" arrivalSpeed="14.43" duration="93.00" routeLength="659.33" waitingTime="0.00" waitingCount="0" stopTime="0.00" timeLoss="24.47" rerouteNo="1" devices="tripinfo_h5979c1:5 routing_h5979c1:5 emissions_h5979c1:5" vType="default_016" speedFactor="1.07" vaporized="">
        <emissions CO_abs="4491.266637" CO2_abs="204561.289928" HC_abs="25.166686" PMx_abs="3.484773" NOx_abs="83.814379" fuel_abs="87.933389" electricity_abs="0"/>
    </tripinfo>
    <tripinfo id="h3688c1:1" depart="57625.00" departLane="201201950#1_1" departPos="5.10" departSpeed="0.00" departDelay="0.00" arrival="57766.00" arrivalLane="32978638#0_1" arrivalPos="49.29" arrivalSpeed="10.99" duration="141.00" routeLength="1089.75" waitingTime="28.00" waitingCount="1" stopTime="0.00" timeLoss="42.45" rerouteNo="1" devices="tripinfo_h3688c1:1 routing_h3688c1:1 emissions_h3688c1:1" vType="default_016" speedFactor="0.81" vaporized="">
        <emissions CO_abs="7826.948442" CO2_abs="314553.040395" HC_abs="42.906897" PMx_abs="5.390375" NOx_abs="127.964493" fuel_abs="135.215665" electricity_abs="0"/>
    </tripinfo>
    <tripinfo id="h330c1:1" depart="57736.00" departLane="-32978638#0_1" departPos="5.10" departSpeed="0.00" departDelay="0.20" arrival="57771.00" arrivalLane="-266565295#5_1" arrivalPos="172.76" arrivalSpeed="12.02" duration="35.00" routeLength="370.53" waitingTime="0.00" waitingCount="0" stopTime="0.00" timeLoss="5.66" rerouteNo="1" devices="tripinfo_h330c1:1 routing_h330c1:1 emissions_h330c1:1" vType="default_016" speedFactor="0.95" vaporized="">
        <emissions CO_abs="1624.966005" CO2_abs="106965.086939" HC_abs="9.912450" PMx_abs="1.891288" NOx_abs="43.722554" fuel_abs="45.979697" electricity_abs="0"/>
    </tripinfo>
    <tripinfo id="carIn30817:1" depart="57681.00" departLane="315358244_1" departPos="5.10" departSpeed="0.00" departDelay="0.20" arrival="57775.00" arrivalLane="447569997#1_1" arrivalPos="180.93" arrivalSpeed="8.15" duration="94.00" routeLength="718.04" waitingTime="22.00" waitingCount="1" stopTime="0.00" timeLoss="37.04" rerouteNo="1" devices="tripinfo_carIn30817:1 routing_carIn30817:1 emissions_carIn30817:1" vType="default_016" speedFactor="1.08" vaporized="">
        <emissions CO_abs="6466.702611" CO2_abs="250230.314104" HC_abs="35.329323" PMx_abs="4.850883" NOx_abs="105.362332" fuel_abs="107.564863" electricity_abs="0"/>
    </tripinfo>
    <tripinfo id="h3326c1:2" depart="57656.00" departLane="22716069#0_1" departPos="5.10" departSpeed="0.00" departDelay="0.00" arrival="57776.00" arrivalLane="24634517#13_1" arrivalPos="111.62" arrivalSpeed="12.92" duration="120.00" routeLength="1312.81" waitingTime="0.00" waitingCount="0" stopTime="0.00" timeLoss="17.16" rerouteNo="1" devices="tripinfo_h3326c1:2 routing_h3326c1:2 emissions_h3326c1:2" vType="default_016" speedFactor="0.95" vaporized="">
        <emissions CO_abs="4196.440370" CO2_abs="310831.303777" HC_abs="26.368660" PMx_abs="5.102851" NOx_abs="124.065328" fuel_abs="133.613229" electricity_abs="0"/>
    </tripinfo>
    <tripinfo id="h7181c1:1" depart="57660.00" departLane="315358254#0_1" departPos="5.10" departSpeed="0.00" departDelay="0.10" arrival="57779.00" arrivalLane="306240162#0_0" arrivalPos="220.43" arrivalSpeed="19.49" duration="119.00" routeLength="932.35" waitingTime="54.00" waitingCount="2" stopTime="0.00" timeLoss="75.57" rerouteNo="1" devices="tripinfo_h7181c1:1 routing_h7181c1:1 emissions_h7181c1:1" vType="default_016" speedFactor="1.18" vaporized="">
        <emissions CO_abs="13249.808648" CO2_abs="468265.532905" HC_abs="71.536101" PMx_abs="10.288656" NOx_abs="200.881459" fuel_abs="201.289780" electricity_abs="0"/>
    </tripinfo>
    <tripinfo id="carIn121703:1" depart="57647.00" departLane="386687232#0_1" departPos="5.10" departSpeed="0.00" departDelay="0.30" arrival="57786.00" arrivalLane="-315358244_1" arrivalPos="33.95" arrivalSpeed="12.59" duration="139.00" routeLength="1157.39" waitingTime="37.00" waitingCount="2" stopTime="0.00" timeLoss="53.37" rerouteNo="1" devices="tripinfo_carIn121703:1 routing_carIn121703:1 emissions_carIn121703:1" vType="default_016" speedFactor="0.99" vaporized="">
        <emissions CO_abs="8253.195098" CO2_abs="334823.234442" HC_abs="45.415234" PMx_abs="6.153738" NOx_abs="137.807587" fuel_abs="143.928544" electricity_abs="0"/>
    </tripinfo>
    <tripinfo id="carIn12365:1" depart="57713.00" departLane="315358244_1" departPos="5.10" departSpeed="0.00" departDelay="0.50" arrival="57793.00" arrivalLane="447569997#1_1" arrivalPos="180.93" arrivalSpeed="8.06" duration="80.00" routeLength="718.04" waitingTime="9.00" waitingCount="1" stopTime="0.00" timeLoss="21.79" rerouteNo="1" devices="tripinfo_carIn12365:1 routing_carIn12365:1 emissions_carIn12365:1" vType="default_016" speedFactor="1.06" vaporized="">
        <emissions CO_abs="3618.624080" CO2_abs="193440.712366" HC_abs="20.894982" PMx_abs="3.363825" NOx_abs="78.653318" fuel_abs="83.152511" electricity_abs="0"/>
    </tripinfo>
    <tripinfo id="carIn27009:1" depart="57673.00" departLane="-447569998#1_1" departPos="5.10" departSpeed="0.00" departDelay="0.50" arrival="57805.00" arrivalLane="-26677539_1" arrivalPos="152.75" arrivalSpeed="5.49" duration="132.00" routeLength="699.63" waitingTime="6.00" waitingCount="1" stopTime="0.00" timeLoss="23.52" rerouteNo="1" devices="tripinfo_carIn27009:1 routing_carIn27009:1 emissions_carIn27009:1" vType="default_015" speedFactor="0.78" vaporized="">
        <emissions CO_abs="5601.973175" CO2_abs="202778.615881" HC_abs="30.152999" PMx_abs="3.464199" NOx_abs="83.822964" fuel_abs="87.167984" electricity_abs="0"/>
    </tripinfo>
    <tripinfo id="h12244c1:3" depart="57612.00" departLane="315358244_1" departPos="5.10" departSpeed="0.00" departDelay="0.40" arrival="57807.00" arrivalLane="386687235_1" arrivalPos="80.84" arrivalSpeed="13.67" duration="195.00" routeLength="1186.14" waitingTime="89.00" waitingCount="2" stopTime="0.00" timeLoss="110.68" rerouteNo="1" devices="tripinfo_h12244c1:3 routing_h12244c1:3 emissions_h12244c1:3" vType="default_016" speedFactor="1.03" vaporized="">
        <emissions CO_abs="17500.030639" CO2_abs="500365.717665" HC_abs="91.395742" PMx_abs="10.235537" NOx_abs="213.038234" fuel_abs="215.092128" electricity_abs="0"/>
    </tripinfo>
    <tripinfo id="carIn118591:1" depart="57689.00" departLane="315358244_1" departPos="5.10" departSpeed="0.00" departDelay="0.20" arrival="57812.00" arrivalLane="386687235_1" arrivalPos="80.84" arrivalSpeed="12.64" duration="123.00" routeLength="1186.14" waitingTime="16.00" waitingCount="1" stopTime="0.00" timeLoss="29.21" rerouteNo="1" devices="tripinfo_carIn118591:1 routing_carIn118591:1 emissions_carIn118591:1" vType="default_016" speedFactor="0.92" vaporized="">
        <emissions CO_abs="5484.671233" CO2_abs="287885.764222" HC_abs="31.647393" PMx_abs="4.700763" NOx_abs="114.576713" fuel_abs="123.751336" electricity_abs="0"/>
    </tripinfo>
    <tripinfo id="carIn7949:1" depart="57676.00" departLane="128361109#1_1" departPos="5.10" departSpeed="0.00" departDelay="2.10" arrival="57821.00" arrivalLane="386687235_2" arrivalPos="80.84" arrivalSpeed="15.79" duration="145.00" routeLength="2088.57" waitingTime="0.00" waitingCount="0" stopTime="0.00" timeLoss="15.50" rerouteNo="1" devices="tripinfo_carIn7949:1 routing_carIn7949:1 emissions_carIn7949:1" vType="default_016" speedFactor="1.16" vaporized="">
        <emissions CO_abs="4101.970721" CO2_abs="393519.381489" HC_abs="27.516112" PMx_abs="6.482709" NOx_abs="153.281832" fuel_abs="169.156589" electricity_abs="0"/>
    </tripinfo>
    <tripinfo id="h16072c2:3" depart="57663.00" departLane="315358254#0_1" departPos="5.10" departSpeed="0.00" departDelay="2.50" arrival="57823.00" arrivalLane="386687235_1" arrivalPos="80.84" arrivalSpeed="13.94" duration="160.00" routeLength="1611.92" waitingTime="21.00" waitingCount="3" stopTime="0.00" timeLoss="47.40" rerouteNo="1" devices="tripinfo_h16072c2:3 routing_h16072c2:3 emissions_h16072c2:3" vType="default_016" speedFactor="1.04" vaporized="">
        <emissions CO_abs="6553.520262" CO2_abs="393440.114146" HC_abs="38.984081" PMx_abs="6.755510" NOx_abs="158.042014" fuel_abs="169.123952" electricity_abs="0"/>
    </tripinfo>
    <tripinfo id="carIn85747:1" depart="57673.00" departLane="128361109#1_1" departPos="5.10" departSpeed="0.00" departDelay="0.70" arrival="57825.00" arrivalLane="386687235_1" arrivalPos="80.84" arrivalSpeed="13.80" duration="152.00" routeLength="2088.57" waitingTime="0.00" waitingCount="0" stopTime="0.00" timeLoss="11.48" rerouteNo="1" devices="tripinfo_carIn85747:1 routing_carIn85747:1 emissions_carIn85747:1" vType="default_016" speedFactor="1.07" vaporized="">
        <emissions CO_abs="3372.795333" CO2_abs="362658.440588" HC_abs="23.571185" PMx_abs="5.540609" NOx_abs="139.030322" fuel_abs="155.891117" electricity_abs="0"/>
    </tripinfo>
    <tripinfo id="carIn107282:1" depart="57749.00" departLane="-447569998#1_1" departPos="5.10" departSpeed="0.00" departDelay="0.00" arrival="57827.00" arrivalLane="315358242#0_1" arrivalPos="165.37" arrivalSpeed="13.33" duration="78.00" routeLength="448.50" waitingTime="27.00" waitingCount="1" stopTime="0.00" timeLoss="34.44" rerouteNo="1" devices="tripinfo_carIn107282:1 routing_carIn107282:1 emissions_carIn107282:1" vType="default_016" speedFactor="0.97" vaporized="">
        <emissions CO_abs="5851.994633" CO2_abs="178619.947369" HC_abs="30.814246" PMx_abs="3.503063" NOx_abs="75.626306" fuel_abs="76.783164" electricity_abs="0"/>
    </tripinfo>
    <tripinfo id="h3154c1:1" depart="57658.00" departLane="24634507_1" departPos="5.10" departSpeed="0.00" departDelay="0.00" arrival="57837.00" arrivalLane="-266565295#5_1" arrivalPos="172.76" arrivalSpeed="13.21" duration="179.00" routeLength="1206.22" waitingTime="70.00" waitingCount="1" stopTime="0.00" timeLoss="87.81" rerouteNo="1" devices="tripinfo_h3154c1:1 routing_h3154c1:1 emissions_h3154c1:1" vType="default_016" speedFactor="0.98" vaporized="">
        <emissions CO_abs="15163.597632" CO2_abs="476486.150816" HC_abs="80.227699" PMx_abs="9.513945" NOx_abs="201.671853" fuel_abs="204.826069" electricity_abs="0"/>
    </tripinfo>
    <tripinfo id="h4538c1:1" depart="57701.00" departLane="-10427692#1_1" departPos="5.10" departSpeed="0.00" departDelay="0.00" arrival="57838.00" arrivalLane="-128361102#1_1" arrivalPos="274.68" arrivalSpeed="12.15" duration="137.00" routeLength="440.74" waitingTime="93.00" waitingCount="1" stopTime="0.00" timeLoss="103.78" rerouteNo="1" devices="tripinfo_h4538c1:1 routing_h4538c1:1 emissions_h4538c1:1" vType="default_016" speedFactor="0.95" vaporized="">
        <emissions CO_abs="16977.025965" CO2_abs="361510.204454" HC_abs="85.787846" PMx_abs="8.136524" NOx_abs="159.554610" fuel_abs="155.404824" electricity_abs="0"/>
    </tripinfo>
    <tripinfo id="randUni31145:1" depart="57814.00" departLane="10425609#0_1" departPos="5.10" departSpeed="0.00" departDelay="0.30" arrival="57844.00" arrivalLane="201956810_1" arrivalPos="71.65" arrivalSpeed="11.83" duration="30.00" routeLength="255.78" waitingTime="0.00" waitingCount="0" stopTime="0.00" timeLoss="8.71" rerouteNo="1" devices="tripinfo_randUni31145:1 routing_randUni31145:1 emissions_randUni31145:1" vType="random_016" speedFactor="0.94" vaporized="">
        <emissions CO_abs="2016.948936" CO2_abs="100945.247573" HC_abs="11.575012" PMx_abs="1.978393" NOx_abs="42.957709" fuel_abs="43.392099" electricity_abs="0"/>
    </tripinfo>
    <tripinfo id="randUni2407:1" depart="57820.00" departLane="10425609#0_1" departPos="5.10" departSpeed="0.00" departDelay="0.80" arrival="57846.00" arrivalLane="201956810_1" arrivalPos="71.65" arrivalSpeed="16.10" duration="26.00" routeLength="255.78" waitingTime="0.00" waitingCount="0" stopTime="0.00" timeLoss="9.08" rerouteNo="1" devices="tripinfo_randUni2407:1 routing_randUni2407:1 emissions_randUni2407:1" vType="random_016" speedFactor="1.18" vaporized="">
        <emissions CO_abs="1824.575580" CO2_abs="105526.110718" HC_abs="10.819023" PMx_abs="2.060581" NOx_abs="44.575625" fuel_abs="45.361017" electricity_abs="0"/>
    </tripinfo>
    <tripinfo id="randUni15030:1" depart="57735.00" departLane="386687232#0_1" departPos="5.10" departSpeed="0.00" departDelay="0.10" arrival="57848.00" arrivalLane="26677539_1" arrivalPos="151.98" arrivalSpeed="9.55" duration="113.00" routeLength="919.89" waitingTime="26.00" waitingCount="1" stopTime="0.00" timeLoss="42.64" rerouteNo="1" devices="tripinfo_randUni15030:1 routing_randUni15030:1 emissions_randUni15030:1" vType="random_016" speedFactor="1.18" vaporized="">
        <emissions CO_abs="7476.392399" CO2_abs="316819.684902" HC_abs="41.422458" PMx_abs="5.949980" NOx_abs="131.240197" fuel_abs="136.188967" electricity_abs="0"/>
    </tripinfo>
    <tripinfo id="carIn46110:1" depart="57684.00" departLane="315358244_1" departPos="5.10" departSpeed="0.00" departDelay="1.20" arrival="57849.00" arrivalLane="32978638#0_1" arrivalPos="49.29" arrivalSpeed="15.34" duration="165.00" routeLength="1764.04" waitingTime="20.00" waitingCount="2" stopTime="0.00" timeLoss="54.01" rerouteNo="1" devices="tripinfo_carIn46110:1 routing_carIn46110:1 emissions_carIn46110:1" vType="default_016" speedFactor="1.16" vaporized="">
        <emissions CO_abs="7482.744911" CO2_abs="455348.925105" HC_abs="44.650797" PMx_abs="8.102491" NOx_abs="184.053279" fuel_abs="195.735577" electricity_abs="0"/>
    </tripinfo>
    <tripinfo id="h9563c2:5" depart="57631.00" departLane="315358244_1" departPos="5.10" departSpeed="0.00" departDelay="0.70" arrival="57852.00" arrivalLane="386687235_1" arrivalPos="80.84" arrivalSpeed="10.71" duration="221.00" routeLength="1186.14" waitingTime="89.00" waitingCount="2" stopTime="0.00" timeLoss="110.64" rerouteNo="1" devices="tripinfo_h9563c2:5 routing_h9563c2:5 emissions_h9563c2:5" vType="default_016" speedFactor="0.78" vaporized="">
        <emissions CO_abs="17288.362062" CO2_abs="484838.466479" HC_abs="90.002700" PMx_abs="9.577036" NOx_abs="205.808914" fuel_abs="208.418077" electricity_abs="0"/>
    </tripinfo>
    <tripinfo id="carIn12858:1" depart="57661.00" departLane="128361109#1_1" departPos="5.10" departSpeed="0.00" departDelay="0.90" arrival="57852.00" arrivalLane="399835085#1_1" arrivalPos="212.23" arrivalSpeed="8.28" duration="191.00" routeLength="1738.12" waitingTime="44.00" waitingCount="3" stopTime="0.00" timeLoss="76.37" rerouteNo="1" devices="tripinfo_carIn12858:1 routing_carIn12858:1 emissions_carIn12858:1" vType="default_016" speedFactor="1.02" vaporized="">
        <emissions CO_abs="13385.869829" CO2_abs="601810.375982" HC_abs="75.283043" PMx_abs="12.047859" NOx_abs="251.826143" fuel_abs="258.694258" electricity_abs="0"/>
    </tripinfo>
    <tripinfo id="S5R_frequency1.2" depart="57734.00" departLane="315358250#0_1" departPos="12.10" departSpeed="0.00" departDelay="122.40" arrival="57855.00" arrivalLane="386687235_1" arrivalPos="80.84" arrivalSpeed="13.33" duration="121.00" routeLength="1115.62" waitingTime="17.00" waitingCount="1" stopTime="0.00" timeLoss="39.23" rerouteNo="1" devices="tripinfo_S5R_frequency1.2 routing_S5R_frequency1.2 emissions_S5R_frequency1.2" vType="bus" speedFactor="1.00" vaporized="">
        <emissions CO_abs="2174.005117" CO2_abs="1256860.974989" HC_abs="465.034044" PMx_abs="230.698321" NOx_abs="10037.321825" fuel_abs="536.002351" electricity_abs="0"/>
    </tripinfo>
    <tripinfo id="h11737c1:1" depart="57665.00" departLane="272042143_1" departPos="5.10" departSpeed="0.00" departDelay="1.50" arrival="57856.00" arrivalLane="-315358254#1_1" arrivalPos="137.16" arrivalSpeed="15.02" duration="191.00" routeLength="1596.88" waitingTime="65.00" waitingCount="1" stopTime="0.00" timeLoss="84.45" rerouteNo="1" devices="tripinfo_h11737c1:1 routing_h11737c1:1 emissions_h11737c1:1" vType="default_016" speedFactor="1.09" vaporized="">
        <emissions CO_abs="14005.862031" CO2_abs="508508.781366" HC_abs="75.563417" PMx_abs="9.862894" NOx_abs="211.906198" fuel_abs="218.590265" electricity_abs="0"/>
    </tripinfo>
    <tripinfo id="carIn12775:1" depart="57676.00" departLane="10425609#0_1" departPos="5.10" departSpeed="0.00" departDelay="0.60" arrival="57858.00" arrivalLane="18809673#0_1" arrivalPos="473.56" arrivalSpeed="15.05" duration="182.00" routeLength="1959.45" waitingTime="34.00" waitingCount="2" stopTime="0.00" timeLoss="56.27" rerouteNo="1" devices="tripinfo_carIn12775:1 routing_carIn12775:1 emissions_carIn12775:1" vType="default_016" speedFactor="1.16" vaporized="">
        <emissions CO_abs="8689.957340" CO2_abs="470688.421288" HC_abs="50.377876" PMx_abs="8.467530" NOx_abs="190.210539" fuel_abs="202.330108" electricity_abs="0"/>
    </tripinfo>
    <tripinfo id="h6541c1:3" depart="57727.00" departLane="201950247#3_1" departPos="5.10" departSpeed="0.00" departDelay="0.00" arrival="57858.00" arrivalLane="32978638#0_1" arrivalPos="49.29" arrivalSpeed="13.23" duration="131.00" routeLength="1176.17" waitingTime="5.00" waitingCount="1" stopTime="0.00" timeLoss="23.97" rerouteNo="1" devices="tripinfo_h6541c1:3 routing_h6541c1:3 emissions_h6541c1:3" vType="default_016" speedFactor="0.96" vaporized="">
        <emissions CO_abs="5314.010496" CO2_abs="304408.756936" HC_abs="31.257924" PMx_abs="5.057289" NOx_abs="122.647667" fuel_abs="130.853305" electricity_abs="0"/>
    </tripinfo>
    <tripinfo id="h17549c1:1" depart="57680.00" departLane="-447569998#1_1" departPos="5.10" departSpeed="0.00" departDelay="0.00" arrival="57860.00" arrivalLane="-315358254#1_1" arrivalPos="137.16" arrivalSpeed="13.48" duration="180.00" routeLength="1746.60" waitingTime="18.00" waitingCount="2" stopTime="0.00" timeLoss="40.10" rerouteNo="1" devices="tripinfo_h17549c1:1 routing_h17549c1:1 emissions_h17549c1:1" vType="default_016" speedFactor="0.98" vaporized="">
        <emissions CO_abs="7275.501613" CO2_abs="427942.447855" HC_abs="43.052299" PMx_abs="6.932111" NOx_abs="169.723467" fuel_abs="183.955828" electricity_abs="0"/>
    </tripinfo>
    <tripinfo id="h5938c1:1" depart="57740.00" departLane="-26677542#0_1" departPos="5.10" departSpeed="0.00" departDelay="0.00" arrival="57862.00" arrivalLane="447569997#1_1" arrivalPos="180.93" arrivalSpeed="7.70" duration="122.00" routeLength="1093.64" waitingTime="15.00" waitingCount="1" stopTime="0.00" timeLoss="31.38" rerouteNo="1" devices="tripinfo_h5938c1:1 routing_h5938c1:1 emissions_h5938c1:1" vType="default_016" speedFactor="1.07" vaporized="">
        <emissions CO_abs="5362.542233" CO2_abs="279857.141061" HC_abs="30.888875" PMx_abs="4.919194" NOx_abs="113.979622" fuel_abs="120.299573" electricity_abs="0"/>
    </tripinfo>
    <tripinfo id="carIn107084:1" depart="57601.00" departLane="124812856#0_1" departPos="5.10" departSpeed="0.00" departDelay="0.70" arrival="57863.00" arrivalLane="-128361102#1_1" arrivalPos="274.68" arrivalSpeed="15.05" duration="262.00" routeLength="2250.49" waitingTime="90.00" waitingCount="2" stopTime="0.00" timeLoss="117.65" rerouteNo="1" devices="tripinfo_carIn107084:1 routing_carIn107084:1 emissions_carIn107084:1" vType="default_016" speedFactor="1.14" vaporized="">
        <emissions CO_abs="20031.158635" CO2_abs="737505.354081" HC_abs="108.339801" PMx_abs="14.798425" NOx_abs="310.605934" fuel_abs="317.026922" electricity_abs="0"/>
    </tripinfo>
    <tripinfo id="h17600c1:1" depart="57662.00" departLane="272042143_1" departPos="5.10" departSpeed="0.00" departDelay="0.30" arrival="57865.00" arrivalLane="201238729#3_1" arrivalPos="431.02" arrivalSpeed="12.75" duration="203.00" routeLength="2100.26" waitingTime="22.00" waitingCount="1" stopTime="0.00" timeLoss="38.64" rerouteNo="1" devices="tripinfo_h17600c1:1 routing_h17600c1:1 emissions_h17600c1:1" vType="default_016" speedFactor="0.92" vaporized="">
        <emissions CO_abs="7330.624476" CO2_abs="448688.045478" HC_abs="43.769503" PMx_abs="7.025246" NOx_abs="175.956060" fuel_abs="192.873718" electricity_abs="0"/>
    </tripinfo>
    <tripinfo id="carIn77943:1" depart="57608.00" departLane="124812856#0_1" departPos="5.10" departSpeed="0.00" departDelay="2.50" arrival="57868.00" arrivalLane="-128361102#1_1" arrivalPos="274.68" arrivalSpeed="13.46" duration="260.00" routeLength="2250.49" waitingTime="68.00" waitingCount="2" stopTime="0.00" timeLoss="94.11" rerouteNo="1" devices="tripinfo_carIn77943:1 routing_carIn77943:1 emissions_carIn77943:1" vType="default_016" speedFactor="0.99" vaporized="">
        <emissions CO_abs="15879.860688" CO2_abs="656756.168442" HC_abs="87.666111" PMx_abs="12.118887" NOx_abs="270.408146" fuel_abs="282.315686" electricity_abs="0"/>
    </tripinfo>
    <tripinfo id="carIn50326:1" depart="57651.00" departLane="128361102#0_1" departPos="5.10" departSpeed="0.00" departDelay="0.30" arrival="57869.00" arrivalLane="18809673#0_1" arrivalPos="473.56" arrivalSpeed="14.55" duration="218.00" routeLength="1591.07" waitingTime="71.00" waitingCount="3" stopTime="0.00" timeLoss="101.15" rerouteNo="1" devices="tripinfo_carIn50326:1 routing_carIn50326:1 emissions_carIn50326:1" vType="default_016" speedFactor="1.11" vaporized="">
        <emissions CO_abs="14983.387585" CO2_abs="545645.773736" HC_abs="80.939810" PMx_abs="10.619289" NOx_abs="228.700635" fuel_abs="234.553975" electricity_abs="0"/>
    </tripinfo>
    <tripinfo id="50R_frequency3.17" depart="57674.00" departLane="-18809673#6_1" departPos="12.10" departSpeed="0.00" departDelay="0.70" arrival="57870.00" arrivalLane="201956811#0_1" arrivalPos="40.40" arrivalSpeed="10.51" duration="196.00" routeLength="1954.47" waitingTime="14.00" waitingCount="2" stopTime="0.00" timeLoss="51.31" rerouteNo="1" devices="tripinfo_50R_frequency3.17 routing_50R_frequency3.17 emissions_50R_frequency3.17" vType="bus" speedFactor="1.00" vaporized="">
        <emissions CO_abs="3791.577223" CO2_abs="2310573.117872" HC_abs="795.800035" PMx_abs="404.505805" NOx_abs="18114.161438" fuel_abs="985.404013" electricity_abs="0"/>
    </tripinfo>
    <tripinfo id="h645c1:1" depart="57622.00" departLane="266565295#5_1" departPos="5.10" departSpeed="0.00" departDelay="0.40" arrival="57874.00" arrivalLane="-315358244_2" arrivalPos="33.95" arrivalSpeed="12.14" duration="252.00" routeLength="1910.83" waitingTime="68.00" waitingCount="4" stopTime="0.00" timeLoss="99.77" rerouteNo="1" devices="tripinfo_h645c1:1 routing_h645c1:1 emissions_h645c1:1" vType="default_016" speedFactor="0.91" vaporized="">
        <emissions CO_abs="13831.854396" CO2_abs="553309.143716" HC_abs="75.853518" PMx_abs="9.845872" NOx_abs="226.175022" fuel_abs="237.848433" electricity_abs="0"/>
    </tripinfo>
    <tripinfo id="carIn129809:1" depart="57729.00" departLane="-447569998#1_1" departPos="5.10" departSpeed="0.00" departDelay="1.00" arrival="57875.00" arrivalLane="-315358244_1" arrivalPos="33.95" arrivalSpeed="10.27" duration="146.00" routeLength="706.49" waitingTime="55.00" waitingCount="2" stopTime="0.00" timeLoss="71.65" rerouteNo="1" devices="tripinfo_carIn129809:1 routing_carIn129809:1 emissions_carIn129809:1" vType="default_015" speedFactor="0.82" vaporized="">
        <emissions CO_abs="11525.442413" CO2_abs="312521.613951" HC_abs="59.739986" PMx_abs="6.185332" NOx_abs="132.927628" fuel_abs="134.344319" electricity_abs="0"/>
    </tripinfo>
    <tripinfo id="carIn73855:1" depart="57743.00" departLane="386687232#0_1" departPos="5.10" departSpeed="0.00" departDelay="0.50" arrival="57875.00" arrivalLane="-315358244_2" arrivalPos="33.95" arrivalSpeed="11.23" duration="132.00" routeLength="1157.39" waitingTime="19.00" waitingCount="1" stopTime="0.00" timeLoss="38.28" rerouteNo="1" devices="tripinfo_carIn73855:1 routing_carIn73855:1 emissions_carIn73855:1" vType="default_016" speedFactor="0.90" vaporized="">
        <emissions CO_abs="6555.382810" CO2_abs="302815.417490" HC_abs="36.890122" PMx_abs="5.227868" NOx_abs="122.972919" fuel_abs="130.169211" electricity_abs="0"/>
    </tripinfo>