<?xml version="1.0" encoding="UTF-8"?>

<!-- generated on 2021-10-26 14:53:48 by Eclipse SUMO sumo Version 1.10.0
<configuration xmlns:xsi="http://www.w3.org/2001/XMLSchema-instance" xsi:noNamespaceSchemaLocation="http://sumo.dlr.de/xsd/sumoConfiguration.xsd">

    <input>
        <net-file value="/Users/behradkoohy/sumo-scratchpad/RESCO/environments/ingolstadt21/ingolstadt21.net.xml"/>
        <route-files value="/Users/behradkoohy/sumo-scratchpad/RESCO/environments/ingolstadt21/ingolstadt21.rou.xml"/>
    </input>

    <output>
        <tripinfo-output value="/Users/behradkoohy/sumo-scratchpad/RESCO/logs/STOCHASTIC-tr0-ingolstadt21-21-mplight-wait/tripinfo_99.xml"/>
        <tripinfo-output.write-unfinished value="true"/>
    </output>

    <time>
        <begin value="57600"/>
        <end value="61200"/>
    </time>

    <processing>
        <time-to-teleport value="-1"/>
    </processing>

    <report>
        <no-warnings value="true"/>
        <no-step-log value="true"/>
    </report>

    <emissions>
        <device.emissions.probability value="1"/>
    </emissions>

    <traci_server>
        <remote-port value="60790"/>
    </traci_server>

    <random_number>
        <random value="true"/>
    </random_number>

</configuration>
-->

<tripinfos xmlns:xsi="http://www.w3.org/2001/XMLSchema-instance" xsi:noNamespaceSchemaLocation="http://sumo.dlr.de/xsd/tripinfo_file.xsd">
    <tripinfo id="h15454c2:3" depart="57612.00" departLane="24608844_1" departPos="5.10" departSpeed="0.00" departDelay="0.50" arrival="57658.00" arrivalLane="32978638#0_1" arrivalPos="49.29" arrivalSpeed="12.22" duration="46.00" routeLength="354.79" waitingTime="0.00" waitingCount="0" stopTime="0.00" timeLoss="10.07" rerouteNo="1" devices="tripinfo_h15454c2:3 routing_h15454c2:3 emissions_h15454c2:3" vType="default_016" speedFactor="0.95" vaporized="">
        <emissions CO_abs="2469.124290" CO2_abs="119908.677043" HC_abs="14.018036" PMx_abs="2.022462" NOx_abs="48.887779" fuel_abs="51.544242" electricity_abs="0"/>
    </tripinfo>
    <tripinfo id="carIn60260:1" depart="57606.00" departLane="315358254#0_1" departPos="5.10" departSpeed="0.00" departDelay="0.90" arrival="57678.00" arrivalLane="399835085#1_1" arrivalPos="212.23" arrivalSpeed="7.24" duration="72.00" routeLength="430.98" waitingTime="11.00" waitingCount="1" stopTime="0.00" timeLoss="20.90" rerouteNo="1" devices="tripinfo_carIn60260:1 routing_carIn60260:1 emissions_carIn60260:1" vType="default_016" speedFactor="0.90" vaporized="">
        <emissions CO_abs="3631.660085" CO2_abs="135821.708203" HC_abs="19.671135" PMx_abs="2.392131" NOx_abs="56.212520" fuel_abs="58.385198" electricity_abs="0"/>
    </tripinfo>
    <tripinfo id="carIn53971:1" depart="57640.00" departLane="272042143_1" departPos="5.10" departSpeed="0.00" departDelay="0.80" arrival="57699.00" arrivalLane="24634414#1_1" arrivalPos="162.19" arrivalSpeed="6.49" duration="59.00" routeLength="493.04" waitingTime="0.00" waitingCount="0" stopTime="0.00" timeLoss="8.67" rerouteNo="1" devices="tripinfo_carIn53971:1 routing_carIn53971:1 emissions_carIn53971:1" vType="default_016" speedFactor="0.91" vaporized="">
        <emissions CO_abs="2539.365905" CO2_abs="131065.921344" HC_abs="14.592401" PMx_abs="2.161230" NOx_abs="53.052631" fuel_abs="56.340269" electricity_abs="0"/>
    </tripinfo>
    <tripinfo id="h3688c1:1" depart="57625.00" departLane="201201950#1_1" departPos="5.10" departSpeed="0.00" departDelay="0.00" arrival="57740.00" arrivalLane="32978638#0_1" arrivalPos="49.29" arrivalSpeed="13.27" duration="115.00" routeLength="1089.75" waitingTime="24.00" waitingCount="1" stopTime="0.00" timeLoss="37.96" rerouteNo="1" devices="tripinfo_h3688c1:1 routing_h3688c1:1 emissions_h3688c1:1" vType="default_016" speedFactor="1.04" vaporized="">
        <emissions CO_abs="6600.606475" CO2_abs="313580.743660" HC_abs="37.291638" PMx_abs="5.637401" NOx_abs="127.794633" fuel_abs="134.796407" electricity_abs="0"/>
    </tripinfo>
    <tripinfo id="h7800c1:5" depart="57696.00" departLane="-447569998#1_1" departPos="5.10" departSpeed="0.00" departDelay="0.00" arrival="57745.00" arrivalLane="-447569998#1_2" arrivalPos="180.76" arrivalSpeed="4.43" duration="49.00" routeLength="175.66" waitingTime="21.00" waitingCount="1" stopTime="0.00" timeLoss="26.83" rerouteNo="1" devices="tripinfo_h7800c1:5 routing_h7800c1:5 emissions_h7800c1:5" vType="default_016" speedFactor="0.97" vaporized="">
        <emissions CO_abs="4005.635451" CO2_abs="96982.898833" HC_abs="20.495177" PMx_abs="2.018466" NOx_abs="42.093308" fuel_abs="41.690436" electricity_abs="0"/>
    </tripinfo>
    <tripinfo id="h5979c1:5" depart="57669.00" departLane="399835085#1_1" departPos="5.10" departSpeed="0.00" departDelay="0.00" arrival="57756.00" arrivalLane="-315358254#1_1" arrivalPos="137.16" arrivalSpeed="14.19" duration="87.00" routeLength="659.33" waitingTime="0.00" waitingCount="0" stopTime="0.00" timeLoss="16.72" rerouteNo="1" devices="tripinfo_h5979c1:5 routing_h5979c1:5 emissions_h5979c1:5" vType="default_016" speedFactor="1.04" vaporized="">
        <emissions CO_abs="4179.998519" CO2_abs="202497.604080" HC_abs="23.662890" PMx_abs="3.385203" NOx_abs="82.527478" fuel_abs="87.046153" electricity_abs="0"/>
    </tripinfo>
    <tripinfo id="carIn30817:1" depart="57681.00" departLane="315358244_1" departPos="5.10" departSpeed="0.00" departDelay="0.20" arrival="57757.00" arrivalLane="447569997#1_1" arrivalPos="180.93" arrivalSpeed="6.85" duration="76.00" routeLength="718.04" waitingTime="0.00" waitingCount="0" stopTime="0.00" timeLoss="7.15" rerouteNo="1" devices="tripinfo_carIn30817:1 routing_carIn30817:1 emissions_carIn30817:1" vType="default_016" speedFactor="0.90" vaporized="">
        <emissions CO_abs="2347.547698" CO2_abs="148424.507138" HC_abs="14.079347" PMx_abs="2.110260" NOx_abs="57.365773" fuel_abs="63.802186" electricity_abs="0"/>
    </tripinfo>
    <tripinfo id="h7181c1:1" depart="57660.00" departLane="315358254#0_1" departPos="5.10" departSpeed="0.00" departDelay="0.10" arrival="57762.00" arrivalLane="306240162#0_0" arrivalPos="220.43" arrivalSpeed="15.29" duration="102.00" routeLength="932.35" waitingTime="30.00" waitingCount="2" stopTime="0.00" timeLoss="46.88" rerouteNo="1" devices="tripinfo_h7181c1:1 routing_h7181c1:1 emissions_h7181c1:1" vType="default_016" speedFactor="0.94" vaporized="">
        <emissions CO_abs="7527.216914" CO2_abs="312652.233424" HC_abs="41.721501" PMx_abs="6.323401" NOx_abs="131.489572" fuel_abs="134.397083" electricity_abs="0"/>
    </tripinfo>
    <tripinfo id="carIn121703:1" depart="57647.00" departLane="386687232#0_1" departPos="5.10" departSpeed="0.00" departDelay="0.30" arrival="57763.00" arrivalLane="-315358244_1" arrivalPos="33.95" arrivalSpeed="12.97" duration="116.00" routeLength="1157.39" waitingTime="16.00" waitingCount="2" stopTime="0.00" timeLoss="31.42" rerouteNo="1" devices="tripinfo_carIn121703:1 routing_carIn121703:1 emissions_carIn121703:1" vType="default_016" speedFactor="1.00" vaporized="">
        <emissions CO_abs="4530.209541" CO2_abs="270654.193552" HC_abs="26.858938" PMx_abs="4.440675" NOx_abs="107.423267" fuel_abs="116.343590" electricity_abs="0"/>
    </tripinfo>
    <tripinfo id="carIn80064:1" depart="57603.00" departLane="128361109#1_1" departPos="5.10" departSpeed="0.00" departDelay="0.40" arrival="57766.00" arrivalLane="-315358254#1_1" arrivalPos="137.16" arrivalSpeed="15.19" duration="163.00" routeLength="1587.97" waitingTime="51.00" waitingCount="2" stopTime="0.00" timeLoss="85.65" rerouteNo="1" devices="tripinfo_carIn80064:1 routing_carIn80064:1 emissions_carIn80064:1" vType="default_016" speedFactor="1.15" vaporized="">
        <emissions CO_abs="14643.076203" CO2_abs="638393.374339" HC_abs="81.864102" PMx_abs="13.413087" NOx_abs="269.563706" fuel_abs="274.419386" electricity_abs="0"/>
    </tripinfo>
    <tripinfo id="h3568c1:3" depart="57656.00" departLane="266565295#5_1" departPos="5.10" departSpeed="0.00" departDelay="0.80" arrival="57767.00" arrivalLane="-24634415_1" arrivalPos="62.03" arrivalSpeed="12.64" duration="111.00" routeLength="807.40" waitingTime="22.00" waitingCount="2" stopTime="0.00" timeLoss="42.17" rerouteNo="1" devices="tripinfo_h3568c1:3 routing_h3568c1:3 emissions_h3568c1:3" vType="default_016" speedFactor="0.95" vaporized="">
        <emissions CO_abs="6660.603303" CO2_abs="296326.287005" HC_abs="37.272153" PMx_abs="5.538438" NOx_abs="123.716759" fuel_abs="127.379267" electricity_abs="0"/>
    </tripinfo>
    <tripinfo id="h3154c1:1" depart="57658.00" departLane="24634507_1" departPos="5.10" departSpeed="0.00" departDelay="0.00" arrival="57768.00" arrivalLane="-266565295#5_1" arrivalPos="172.76" arrivalSpeed="12.21" duration="110.00" routeLength="1206.22" waitingTime="0.00" waitingCount="0" stopTime="0.00" timeLoss="11.54" rerouteNo="1" devices="tripinfo_h3154c1:1 routing_h3154c1:1 emissions_h3154c1:1" vType="default_016" speedFactor="0.91" vaporized="">
        <emissions CO_abs="3157.785832" CO2_abs="251767.612742" HC_abs="20.202946" PMx_abs="3.782136" NOx_abs="97.975799" fuel_abs="108.224602" electricity_abs="0"/>
    </tripinfo>
    <tripinfo id="h3326c1:2" depart="57656.00" departLane="22716069#0_1" departPos="5.10" departSpeed="0.00" departDelay="0.00" arrival="57772.00" arrivalLane="24634517#13_1" arrivalPos="111.62" arrivalSpeed="12.30" duration="116.00" routeLength="1312.81" waitingTime="0.00" waitingCount="0" stopTime="0.00" timeLoss="15.31" rerouteNo="1" devices="tripinfo_h3326c1:2 routing_h3326c1:2 emissions_h3326c1:2" vType="default_016" speedFactor="0.96" vaporized="">
        <emissions CO_abs="3907.973242" CO2_abs="303479.262463" HC_abs="24.857976" PMx_abs="4.806486" NOx_abs="119.679045" fuel_abs="130.453037" electricity_abs="0"/>
    </tripinfo>
    <tripinfo id="h12244c1:3" depart="57612.00" departLane="315358244_1" departPos="5.10" departSpeed="0.00" departDelay="0.40" arrival="57773.00" arrivalLane="386687235_1" arrivalPos="80.84" arrivalSpeed="13.51" duration="161.00" routeLength="1186.14" waitingTime="58.00" waitingCount="2" stopTime="0.00" timeLoss="74.60" rerouteNo="1" devices="tripinfo_h12244c1:3 routing_h12244c1:3 emissions_h12244c1:3" vType="default_016" speedFactor="1.00" vaporized="">
        <emissions CO_abs="11316.853159" CO2_abs="387733.822610" HC_abs="60.554979" PMx_abs="7.384367" NOx_abs="161.151513" fuel_abs="166.674028" electricity_abs="0"/>
    </tripinfo>
    <tripinfo id="h317c2:1" depart="57707.00" departLane="-32978638#0_1" departPos="5.10" departSpeed="0.00" departDelay="0.10" arrival="57776.00" arrivalLane="-266565295#5_1" arrivalPos="172.76" arrivalSpeed="12.57" duration="69.00" routeLength="370.53" waitingTime="30.00" waitingCount="1" stopTime="0.00" timeLoss="39.88" rerouteNo="1" devices="tripinfo_h317c2:1 routing_h317c2:1 emissions_h317c2:1" vType="default_016" speedFactor="0.94" vaporized="">
        <emissions CO_abs="6499.698482" CO2_abs="188147.729622" HC_abs="34.004679" PMx_abs="3.824821" NOx_abs="80.328778" fuel_abs="80.878964" electricity_abs="0"/>
    </tripinfo>
    <tripinfo id="S5R_frequency1.2" depart="57612.00" departLane="315358250#0_1" departPos="12.10" departSpeed="0.00" departDelay="0.40" arrival="57779.00" arrivalLane="386687235_1" arrivalPos="80.84" arrivalSpeed="13.57" duration="167.00" routeLength="1115.62" waitingTime="62.00" waitingCount="2" stopTime="0.00" timeLoss="85.17" rerouteNo="1" devices="tripinfo_S5R_frequency1.2 routing_S5R_frequency1.2 emissions_S5R_frequency1.2" vType="bus" speedFactor="1.00" vaporized="">
        <emissions CO_abs="3197.709685" CO2_abs="1581825.341669" HC_abs="702.872535" PMx_abs="333.482842" NOx_abs="13412.894016" fuel_abs="674.493261" electricity_abs="0"/>
    </tripinfo>
    <tripinfo id="h330c1:1" depart="57736.00" departLane="-32978638#0_1" departPos="5.10" departSpeed="0.00" departDelay="0.20" arrival="57780.00" arrivalLane="-266565295#5_1" arrivalPos="172.76" arrivalSpeed="10.96" duration="44.00" routeLength="370.53" waitingTime="4.00" waitingCount="1" stopTime="0.00" timeLoss="12.35" rerouteNo="1" devices="tripinfo_h330c1:1 routing_h330c1:1 emissions_h330c1:1" vType="default_016" speedFactor="0.88" vaporized="">
        <emissions CO_abs="2074.827446" CO2_abs="117231.810908" HC_abs="12.186726" PMx_abs="2.041428" NOx_abs="47.990864" fuel_abs="50.393193" electricity_abs="0"/>
    </tripinfo>
    <tripinfo id="h4538c1:1" depart="57701.00" departLane="-10427692#1_1" departPos="5.10" departSpeed="0.00" departDelay="0.00" arrival="57791.00" arrivalLane="-128361102#1_1" arrivalPos="274.68" arrivalSpeed="11.17" duration="90.00" routeLength="440.74" waitingTime="44.00" waitingCount="1" stopTime="0.00" timeLoss="52.73" rerouteNo="1" devices="tripinfo_h4538c1:1 routing_h4538c1:1 emissions_h4538c1:1" vType="default_016" speedFactor="0.86" vaporized="">
        <emissions CO_abs="8268.510369" CO2_abs="211297.388860" HC_abs="42.585762" PMx_abs="4.380112" NOx_abs="90.911140" fuel_abs="90.830980" electricity_abs="0"/>
    </tripinfo>
    <tripinfo id="carIn27009:1" depart="57673.00" departLane="-447569998#1_1" departPos="5.10" departSpeed="0.00" departDelay="0.50" arrival="57804.00" arrivalLane="-26677539_1" arrivalPos="152.75" arrivalSpeed="8.80" duration="131.00" routeLength="699.63" waitingTime="45.00" waitingCount="1" stopTime="0.00" timeLoss="60.69" rerouteNo="1" devices="tripinfo_carIn27009:1 routing_carIn27009:1 emissions_carIn27009:1" vType="default_015" speedFactor="1.19" vaporized="">
        <emissions CO_abs="10812.179782" CO2_abs="319602.192246" HC_abs="56.659923" PMx_abs="6.211716" NOx_abs="135.505098" fuel_abs="137.387371" electricity_abs="0"/>
    </tripinfo>
    <tripinfo id="carIn107282:1" depart="57749.00" departLane="-447569998#1_1" departPos="5.10" departSpeed="0.00" departDelay="0.00" arrival="57805.00" arrivalLane="315358242#0_1" arrivalPos="165.37" arrivalSpeed="14.47" duration="56.00" routeLength="448.50" waitingTime="7.00" waitingCount="1" stopTime="0.00" timeLoss="16.14" rerouteNo="1" devices="tripinfo_carIn107282:1 routing_carIn107282:1 emissions_carIn107282:1" vType="default_016" speedFactor="1.05" vaporized="">
        <emissions CO_abs="2633.025033" CO2_abs="133437.433453" HC_abs="15.048353" PMx_abs="2.357552" NOx_abs="54.648512" fuel_abs="57.359521" electricity_abs="0"/>
    </tripinfo>
    <tripinfo id="h9563c2:5" depart="57631.00" departLane="315358244_1" departPos="5.10" departSpeed="0.00" departDelay="0.70" arrival="57807.00" arrivalLane="386687235_1" arrivalPos="80.84" arrivalSpeed="13.07" duration="176.00" routeLength="1186.14" waitingTime="64.00" waitingCount="2" stopTime="0.00" timeLoss="85.58" rerouteNo="1" devices="tripinfo_h9563c2:5 routing_h9563c2:5 emissions_h9563c2:5" vType="default_016" speedFactor="0.96" vaporized="">
        <emissions CO_abs="13266.953394" CO2_abs="424658.069787" HC_abs="70.327677" PMx_abs="8.193445" NOx_abs="177.679060" fuel_abs="182.547090" electricity_abs="0"/>
    </tripinfo>
    <tripinfo id="carIn118591:1" depart="57689.00" departLane="315358244_1" departPos="5.10" departSpeed="0.00" departDelay="0.20" arrival="57809.00" arrivalLane="386687235_1" arrivalPos="80.84" arrivalSpeed="12.06" duration="120.00" routeLength="1186.14" waitingTime="11.00" waitingCount="2" stopTime="0.00" timeLoss="29.43" rerouteNo="1" devices="tripinfo_carIn118591:1 routing_carIn118591:1 emissions_carIn118591:1" vType="default_016" speedFactor="0.96" vaporized="">
        <emissions CO_abs="4213.814832" CO2_abs="264649.928195" HC_abs="25.356384" PMx_abs="4.390478" NOx_abs="105.841230" fuel_abs="113.762296" electricity_abs="0"/>
    </tripinfo>
    <tripinfo id="h5216c1:1" depart="57664.00" departLane="224892339#0_1" departPos="5.10" departSpeed="0.00" departDelay="0.00" arrival="57812.00" arrivalLane="386687235_1" arrivalPos="80.84" arrivalSpeed="14.09" duration="148.00" routeLength="1823.78" waitingTime="6.00" waitingCount="1" stopTime="0.00" timeLoss="24.24" rerouteNo="1" devices="tripinfo_h5216c1:1 routing_h5216c1:1 emissions_h5216c1:1" vType="default_016" speedFactor="1.04" vaporized="">
        <emissions CO_abs="5335.021339" CO2_abs="414272.729717" HC_abs="33.936937" PMx_abs="7.167322" NOx_abs="166.085063" fuel_abs="178.077687" electricity_abs="0"/>
    </tripinfo>
    <tripinfo id="h9953c2:3" depart="57682.00" departLane="-54169231#2_1" departPos="5.10" departSpeed="0.00" departDelay="0.00" arrival="57816.00" arrivalLane="386687235_1" arrivalPos="80.84" arrivalSpeed="14.41" duration="134.00" routeLength="1535.60" waitingTime="0.00" waitingCount="0" stopTime="0.00" timeLoss="18.32" rerouteNo="1" devices="tripinfo_h9953c2:3 routing_h9953c2:3 emissions_h9953c2:3" vType="default_016" speedFactor="1.08" vaporized="">
        <emissions CO_abs="5238.213846" CO2_abs="386732.894398" HC_abs="32.710222" PMx_abs="6.427546" NOx_abs="154.159268" fuel_abs="166.240043" electricity_abs="0"/>
    </tripinfo>
    <tripinfo id="carIn129809:1" depart="57729.00" departLane="-447569998#1_1" departPos="5.10" departSpeed="0.00" departDelay="1.00" arrival="57821.00" arrivalLane="-315358244_1" arrivalPos="33.95" arrivalSpeed="16.70" duration="92.00" routeLength="706.49" waitingTime="21.00" waitingCount="1" stopTime="0.00" timeLoss="41.85" rerouteNo="1" devices="tripinfo_carIn129809:1 routing_carIn129809:1 emissions_carIn129809:1" vType="default_015" speedFactor="1.21" vaporized="">
        <emissions CO_abs="5439.041775" CO2_abs="218413.889481" HC_abs="29.857926" PMx_abs="4.117268" NOx_abs="90.241833" fuel_abs="93.888241" electricity_abs="0"/>
    </tripinfo>
    <tripinfo id="carIn12365:1" depart="57713.00" departLane="315358244_1" departPos="5.10" departSpeed="0.00" departDelay="0.50" arrival="57825.00" arrivalLane="447569997#1_1" arrivalPos="180.93" arrivalSpeed="6.35" duration="112.00" routeLength="718.04" waitingTime="28.00" waitingCount="1" stopTime="0.00" timeLoss="39.62" rerouteNo="1" devices="tripinfo_carIn12365:1 routing_carIn12365:1 emissions_carIn12365:1" vType="default_016" speedFactor="0.85" vaporized="">
        <emissions CO_abs="6810.175368" CO2_abs="229380.540216" HC_abs="36.320818" PMx_abs="4.189146" NOx_abs="95.291279" fuel_abs="98.603418" electricity_abs="0"/>
    </tripinfo>
    <tripinfo id="carIn81046:1" depart="57611.00" departLane="124812856#0_1" departPos="5.10" departSpeed="0.00" departDelay="2.50" arrival="57832.00" arrivalLane="-128361102#1_1" arrivalPos="274.68" arrivalSpeed="15.84" duration="221.00" routeLength="2232.46" waitingTime="21.00" waitingCount="1" stopTime="0.00" timeLoss="82.16" rerouteNo="1" devices="tripinfo_carIn81046:1 routing_carIn81046:1 emissions_carIn81046:1" vType="default_016" speedFactor="1.17" vaporized="">
        <emissions CO_abs="11553.023837" CO2_abs="642722.047520" HC_abs="67.716707" PMx_abs="11.974817" NOx_abs="265.761460" fuel_abs="276.279287" electricity_abs="0"/>
    </tripinfo>
    <tripinfo id="carIn22761:1" depart="57616.00" departLane="-306240162#1_0" departPos="5.10" departSpeed="0.00" departDelay="2.10" arrival="57832.00" arrivalLane="399835085#1_1" arrivalPos="212.23" arrivalSpeed="8.60" duration="216.00" routeLength="1093.26" waitingTime="116.00" waitingCount="2" stopTime="0.00" timeLoss="143.08" rerouteNo="1" devices="tripinfo_carIn22761:1 routing_carIn22761:1 emissions_carIn22761:1" vType="default_016" speedFactor="1.07" vaporized="">
        <emissions CO_abs="23418.654946" CO2_abs="636291.082279" HC_abs="121.646970" PMx_abs="13.835848" NOx_abs="275.878244" fuel_abs="273.522119" electricity_abs="0"/>
    </tripinfo>
    <tripinfo id="h8343c1:5" depart="57679.00" departLane="315358254#0_1" departPos="5.10" departSpeed="0.00" departDelay="0.60" arrival="57833.00" arrivalLane="-24634510#5_1" arrivalPos="236.88" arrivalSpeed="15.66" duration="154.00" routeLength="2056.84" waitingTime="10.00" waitingCount="1" stopTime="0.00" timeLoss="44.99" rerouteNo="1" devices="tripinfo_h8343c1:5 routing_h8343c1:5 emissions_h8343c1:5" vType="default_016" speedFactor="1.15" vaporized="">
        <emissions CO_abs="9349.100504" CO2_abs="590005.820307" HC_abs="56.612385" PMx_abs="11.736315" NOx_abs="245.010469" fuel_abs="253.616956" electricity_abs="0"/>
    </tripinfo>
    <tripinfo id="carIn107084:1" depart="57601.00" departLane="124812856#0_1" departPos="5.10" departSpeed="0.00" departDelay="0.70" arrival="57836.00" arrivalLane="-128361102#1_1" arrivalPos="274.68" arrivalSpeed="14.29" duration="235.00" routeLength="2250.49" waitingTime="52.00" waitingCount="2" stopTime="0.00" timeLoss="84.24" rerouteNo="1" devices="tripinfo_carIn107084:1 routing_carIn107084:1 emissions_carIn107084:1" vType="default_016" speedFactor="1.09" vaporized="">
        <emissions CO_abs="14080.247220" CO2_abs="649194.876076" HC_abs="79.109513" PMx_abs="11.966069" NOx_abs="266.036638" fuel_abs="279.064072" electricity_abs="0"/>
    </tripinfo>
    <tripinfo id="randUni15030:1" depart="57735.00" departLane="386687232#0_1" departPos="5.10" departSpeed="0.00" departDelay="0.10" arrival="57842.00" arrivalLane="26677539_1" arrivalPos="151.98" arrivalSpeed="8.86" duration="107.00" routeLength="919.89" waitingTime="15.00" waitingCount="1" stopTime="0.00" timeLoss="33.16" rerouteNo="1" devices="tripinfo_randUni15030:1 routing_randUni15030:1 emissions_randUni15030:1" vType="random_016" speedFactor="1.13" vaporized="">
        <emissions CO_abs="5702.658522" CO2_abs="273200.774149" HC_abs="32.215966" PMx_abs="4.914066" NOx_abs="112.078553" fuel_abs="117.438469" electricity_abs="0"/>
    </tripinfo>
    <tripinfo id="carIn82278:1" depart="57702.00" departLane="-306240162#1_0" departPos="5.10" departSpeed="0.00" departDelay="0.70" arrival="57844.00" arrivalLane="399835085#1_1" arrivalPos="212.23" arrivalSpeed="6.84" duration="142.00" routeLength="1093.26" waitingTime="20.00" waitingCount="2" stopTime="0.00" timeLoss="49.76" rerouteNo="1" devices="tripinfo_carIn82278:1 routing_carIn82278:1 emissions_carIn82278:1" vType="default_016" speedFactor="0.85" vaporized="">
        <emissions CO_abs="8363.964655" CO2_abs="350303.309142" HC_abs="46.245883" PMx_abs="6.511225" NOx_abs="145.249950" fuel_abs="150.582460" electricity_abs="0"/>
    </tripinfo>
    <tripinfo id="50R_frequency3.17" depart="57674.00" departLane="-18809673#6_1" departPos="12.10" departSpeed="0.00" departDelay="0.70" arrival="57848.00" arrivalLane="201956811#0_1" arrivalPos="40.40" arrivalSpeed="13.40" duration="174.00" routeLength="1954.47" waitingTime="6.00" waitingCount="1" stopTime="0.00" timeLoss="29.04" rerouteNo="1" devices="tripinfo_50R_frequency3.17 routing_50R_frequency3.17 emissions_50R_frequency3.17" vType="bus" speedFactor="1.00" vaporized="">
        <emissions CO_abs="3390.902379" CO2_abs="2138438.902686" HC_abs="710.990646" PMx_abs="363.619626" NOx_abs="16559.143987" fuel_abs="912.021762" electricity_abs="0"/>
    </tripinfo>
    <tripinfo id="h3864c1:3" depart="57678.00" departLane="24693977#1_1" departPos="5.10" departSpeed="0.00" departDelay="0.00" arrival="57852.00" arrivalLane="201956820_2" arrivalPos="48.33" arrivalSpeed="13.46" duration="174.00" routeLength="1574.85" waitingTime="15.00" waitingCount="2" stopTime="0.00" timeLoss="46.99" rerouteNo="1" devices="tripinfo_h3864c1:3 routing_h3864c1:3 emissions_h3864c1:3" vType="default_016" speedFactor="1.01" vaporized="">
        <emissions CO_abs="8373.314173" CO2_abs="459391.867930" HC_abs="48.887026" PMx_abs="8.238742" NOx_abs="188.946552" fuel_abs="197.473807" electricity_abs="0"/>
    </tripinfo>
    <tripinfo id="randUni31145:1" depart="57814.00" departLane="10425609#0_1" departPos="5.10" departSpeed="0.00" departDelay="0.30" arrival="57852.00" arrivalLane="201956810_1" arrivalPos="71.65" arrivalSpeed="12.92" duration="38.00" routeLength="255.78" waitingTime="5.00" waitingCount="1" stopTime="0.00" timeLoss="18.53" rerouteNo="1" devices="tripinfo_randUni31145:1 routing_randUni31145:1 emissions_randUni31145:1" vType="random_016" speedFactor="1.02" vaporized="">
        <emissions CO_abs="2584.025200" CO2_abs="123664.744541" HC_abs="14.697253" PMx_abs="2.461939" NOx_abs="52.805521" fuel_abs="53.158296" electricity_abs="0"/>
    </tripinfo>
    <tripinfo id="randUni2407:1" depart="57820.00" departLane="10425609#0_1" departPos="5.10" departSpeed="0.00" departDelay="0.80" arrival="57854.00" arrivalLane="201956810_1" arrivalPos="71.65" arrivalSpeed="15.61" duration="34.00" routeLength="255.78" waitingTime="5.00" waitingCount="1" stopTime="0.00" timeLoss="15.79" rerouteNo="1" devices="tripinfo_randUni2407:1 routing_randUni2407:1 emissions_randUni2407:1" vType="random_016" speedFactor="1.14" vaporized="">
        <emissions CO_abs="2340.230486" CO2_abs="124361.572482" HC_abs="13.593891" PMx_abs="2.411967" NOx_abs="52.448910" fuel_abs="53.457734" electricity_abs="0"/>
    </tripinfo>
    <tripinfo id="carIn50326:1" depart="57651.00" departLane="128361102#0_1" departPos="5.10" departSpeed="0.00" departDelay="0.30" arrival="57865.00" arrivalLane="18809673#0_1" arrivalPos="473.56" arrivalSpeed="12.23" duration="214.00" routeLength="1591.07" waitingTime="48.00" waitingCount="2" stopTime="0.00" timeLoss="74.68" rerouteNo="1" devices="tripinfo_carIn50326:1 routing_carIn50326:1 emissions_carIn50326:1" vType="default_016" speedFactor="0.93" vaporized="">
        <emissions CO_abs="12583.975932" CO2_abs="484435.726723" HC_abs="68.543861" PMx_abs="8.624745" NOx_abs="198.830342" fuel_abs="208.242454" electricity_abs="0"/>
    </tripinfo>
    <tripinfo id="h17600c1:1" depart="57662.00" departLane="272042143_1" departPos="5.10" departSpeed="0.00" departDelay="0.30" arrival="57870.00" arrivalLane="201238729#3_1" arrivalPos="431.02" arrivalSpeed="15.14" duration="208.00" routeLength="2100.26" waitingTime="60.00" waitingCount="1" stopTime="0.00" timeLoss="77.75" rerouteNo="1" devices="tripinfo_h17600c1:1 routing_h17600c1:1 emissions_h17600c1:1" vType="default_016" speedFactor="1.16" vaporized="">
        <emissions CO_abs="13258.465876" CO2_abs="554133.655913" HC_abs="72.823551" PMx_abs="10.247698" NOx_abs="225.035508" fuel_abs="238.202065" electricity_abs="0"/>
    </tripinfo>
    <tripinfo id="carIn8642:1" depart="57774.00" departLane="-447569998#1_1" departPos="5.10" departSpeed="0.00" departDelay="0.90" arrival="57873.00" arrivalLane="-315358244_1" arrivalPos="33.95" arrivalSpeed="15.54" duration="99.00" routeLength="706.49" waitingTime="30.00" waitingCount="2" stopTime="0.00" timeLoss="44.37" rerouteNo="1" devices="tripinfo_carIn8642:1 routing_carIn8642:1 emissions_carIn8642:1" vType="default_016" speedFactor="1.12" vaporized="">
        <emissions CO_abs="6209.192084" CO2_abs="249020.977218" HC_abs="34.097587" PMx_abs="4.765893" NOx_abs="103.984066" fuel_abs="107.044957" electricity_abs="0"/>
    </tripinfo>
    <tripinfo id="carIn126378:1" depart="57746.00" departLane="386687232#0_1" departPos="5.10" departSpeed="0.00" departDelay="1.80" arrival="57875.00" arrivalLane="-315358244_1" arrivalPos="33.95" arrivalSpeed="13.68" duration="129.00" routeLength="1157.39" waitingTime="23.00" waitingCount="2" stopTime="0.00" timeLoss="46.55" rerouteNo="1" devices="tripinfo_carIn126378:1 routing_carIn126378:1 emissions_carIn126378:1" vType="default_016" speedFactor="1.03" vaporized="">
        <emissions CO_abs="5630.466804" CO2_abs="285466.249649" HC_abs="32.247735" PMx_abs="5.025402" NOx_abs="115.785366" fuel_abs="122.710889" electricity_abs="0"/>
    </tripinfo>
    <tripinfo id="h5938c1:1" depart="57740.00" departLane="-26677542#0_1" departPos="5.10" departSpeed="0.00" departDelay="0.00" arrival="57882.00" arrivalLane="447569997#1_1" arrivalPos="180.93" arrivalSpeed="8.25" duration="142.00" routeLength="1093.64" waitingTime="35.00" waitingCount="1" stopTime="0.00" timeLoss="51.42" rerouteNo="1" devices="tripinfo_h5938c1:1 routing_h5938c1:1 emissions_h5938c1:1" vType="default_016" speedFactor="1.07" vaporized="">
        <emissions CO_abs="8408.578715" CO2_abs="324728.284189" HC_abs="45.861837" PMx_abs="5.940073" NOx_abs="133.930119" fuel_abs="139.589426" electricity_abs="0"/>
    </tripinfo>
    <tripinfo id="carIn7949:1" depart="57676.00" departLane="128361109#1_1" departPos="5.10" departSpeed="0.00" departDelay="2.10" arrival="57883.00" arrivalLane="386687235_1" arrivalPos="80.84" arrivalSpeed="14.80" duration="207.00" routeLength="2088.57" waitingTime="47.00" waitingCount="2" stopTime="0.00" timeLoss="67.33" rerouteNo="1" devices="tripinfo_carIn7949:1 routing_carIn7949:1 emissions_carIn7949:1" vType="default_016" speedFactor="1.08" vaporized="">
        <emissions CO_abs="10360.729185" CO2_abs="496939.187136" HC_abs="58.740895" PMx_abs="8.917086" NOx_abs="201.166151" fuel_abs="213.615297" electricity_abs="0"/>
    </tripinfo>
    <tripinfo id="carIn75660:1" depart="57679.00" departLane="128361109#1_1" departPos="5.10" departSpeed="0.00" departDelay="3.40" arrival="57883.00" arrivalLane="386687235_2" arrivalPos="80.84" arrivalSpeed="13.98" duration="204.00" routeLength="2088.57" waitingTime="39.00" waitingCount="2" stopTime="0.00" timeLoss="65.59" rerouteNo="1" devices="tripinfo_carIn75660:1 routing_carIn75660:1 emissions_carIn75660:1" vType="default_016" speedFactor="1.09" vaporized="">
        <emissions CO_abs="10494.151968" CO2_abs="526539.182758" HC_abs="59.874305" PMx_abs="9.265744" NOx_abs="211.893818" fuel_abs="226.339058" electricity_abs="0"/>
    </tripinfo>
    <tripinfo id="carIn73855:1" depart="57743.00" departLane="386687232#0_1" departPos="5.10" departSpeed="0.00" departDelay="0.50" arrival="57883.00" arrivalLane="-315358244_1" arrivalPos="33.95" arrivalSpeed="10.70" duration="140.00" routeLength="1157.39" waitingTime="22.00" waitingCount="2" stopTime="0.00" timeLoss="39.93" rerouteNo="1" devices="tripinfo_carIn73855:1 routing_carIn73855:1 emissions_carIn73855:1" vType="default_016" speedFactor="0.85" vaporized="">
        <emissions CO_abs="5935.372218" CO2_abs="281767.720509" HC_abs="33.538644" PMx_abs="4.646577" NOx_abs="113.143414" fuel_abs="121.121759" electricity_abs="0"/>
    </tripinfo>