<?xml version="1.0" encoding="UTF-8"?>

<!-- generated on 2021-10-26 14:08:34 by Eclipse SUMO sumo Version 1.10.0
<configuration xmlns:xsi="http://www.w3.org/2001/XMLSchema-instance" xsi:noNamespaceSchemaLocation="http://sumo.dlr.de/xsd/sumoConfiguration.xsd">

    <input>
        <net-file value="/Users/behradkoohy/sumo-scratchpad/RESCO/environments/ingolstadt21/ingolstadt21.net.xml"/>
        <route-files value="/Users/behradkoohy/sumo-scratchpad/RESCO/environments/ingolstadt21/ingolstadt21.rou.xml"/>
    </input>

    <output>
        <tripinfo-output value="/Users/behradkoohy/sumo-scratchpad/RESCO/logs/STOCHASTIC-tr0-ingolstadt21-21-mplight-wait/tripinfo_24.xml"/>
        <tripinfo-output.write-unfinished value="true"/>
    </output>

    <time>
        <begin value="57600"/>
        <end value="61200"/>
    </time>

    <processing>
        <time-to-teleport value="-1"/>
    </processing>

    <report>
        <no-warnings value="true"/>
        <no-step-log value="true"/>
    </report>

    <emissions>
        <device.emissions.probability value="1"/>
    </emissions>

    <traci_server>
        <remote-port value="60038"/>
    </traci_server>

    <random_number>
        <random value="true"/>
    </random_number>

</configuration>
-->

<tripinfos xmlns:xsi="http://www.w3.org/2001/XMLSchema-instance" xsi:noNamespaceSchemaLocation="http://sumo.dlr.de/xsd/tripinfo_file.xsd">
    <tripinfo id="h15454c2:3" depart="57612.00" departLane="24608844_1" departPos="5.10" departSpeed="0.00" departDelay="0.50" arrival="57648.00" arrivalLane="32978638#0_1" arrivalPos="49.29" arrivalSpeed="15.08" duration="36.00" routeLength="354.79" waitingTime="0.00" waitingCount="0" stopTime="0.00" timeLoss="5.35" rerouteNo="1" devices="tripinfo_h15454c2:3 routing_h15454c2:3 emissions_h15454c2:3" vType="default_016" speedFactor="1.12" vaporized="">
        <emissions CO_abs="1712.982581" CO2_abs="102245.165679" HC_abs="10.138214" PMx_abs="1.744268" NOx_abs="41.425510" fuel_abs="43.951027" electricity_abs="0"/>
    </tripinfo>
    <tripinfo id="carIn60260:1" depart="57606.00" departLane="315358254#0_1" departPos="5.10" departSpeed="0.00" departDelay="0.90" arrival="57670.00" arrivalLane="399835085#1_1" arrivalPos="212.23" arrivalSpeed="8.93" duration="64.00" routeLength="430.98" waitingTime="12.00" waitingCount="1" stopTime="0.00" timeLoss="21.49" rerouteNo="1" devices="tripinfo_carIn60260:1 routing_carIn60260:1 emissions_carIn60260:1" vType="default_016" speedFactor="1.08" vaporized="">
        <emissions CO_abs="3875.526136" CO2_abs="151052.113179" HC_abs="21.157651" PMx_abs="2.743663" NOx_abs="62.820419" fuel_abs="64.931996" electricity_abs="0"/>
    </tripinfo>
    <tripinfo id="carIn53971:1" depart="57640.00" departLane="272042143_1" departPos="5.10" departSpeed="0.00" departDelay="0.80" arrival="57693.00" arrivalLane="24634414#1_1" arrivalPos="162.19" arrivalSpeed="7.96" duration="53.00" routeLength="493.04" waitingTime="0.00" waitingCount="0" stopTime="0.00" timeLoss="8.17" rerouteNo="1" devices="tripinfo_carIn53971:1 routing_carIn53971:1 emissions_carIn53971:1" vType="default_016" speedFactor="1.03" vaporized="">
        <emissions CO_abs="2319.132059" CO2_abs="133042.553227" HC_abs="13.664832" PMx_abs="2.289350" NOx_abs="54.255570" fuel_abs="57.189603" electricity_abs="0"/>
    </tripinfo>
    <tripinfo id="h3688c1:1" depart="57625.00" departLane="201201950#1_1" departPos="5.10" departSpeed="0.00" departDelay="0.00" arrival="57716.00" arrivalLane="32978638#0_1" arrivalPos="49.29" arrivalSpeed="12.78" duration="91.00" routeLength="1089.75" waitingTime="0.00" waitingCount="0" stopTime="0.00" timeLoss="10.68" rerouteNo="1" devices="tripinfo_h3688c1:1 routing_h3688c1:1 emissions_h3688c1:1" vType="default_016" speedFactor="1.00" vaporized="">
        <emissions CO_abs="2875.547140" CO2_abs="241527.935203" HC_abs="18.673314" PMx_abs="3.866026" NOx_abs="95.099288" fuel_abs="103.822521" electricity_abs="0"/>
    </tripinfo>
    <tripinfo id="h4538c1:1" depart="57701.00" departLane="-10427692#1_1" departPos="5.10" departSpeed="0.00" departDelay="0.00" arrival="57735.00" arrivalLane="-128361102#1_1" arrivalPos="274.68" arrivalSpeed="15.76" duration="34.00" routeLength="440.74" waitingTime="0.00" waitingCount="0" stopTime="0.00" timeLoss="6.27" rerouteNo="1" devices="tripinfo_h4538c1:1 routing_h4538c1:1 emissions_h4538c1:1" vType="default_016" speedFactor="1.15" vaporized="">
        <emissions CO_abs="1531.183803" CO2_abs="99277.231353" HC_abs="9.330955" PMx_abs="1.861561" NOx_abs="41.057307" fuel_abs="42.674898" electricity_abs="0"/>
    </tripinfo>
    <tripinfo id="h7181c1:1" depart="57660.00" departLane="315358254#0_1" departPos="5.10" departSpeed="0.00" departDelay="0.10" arrival="57739.00" arrivalLane="306240162#0_0" arrivalPos="220.43" arrivalSpeed="14.36" duration="79.00" routeLength="932.35" waitingTime="5.00" waitingCount="1" stopTime="0.00" timeLoss="20.54" rerouteNo="1" devices="tripinfo_h7181c1:1 routing_h7181c1:1 emissions_h7181c1:1" vType="default_016" speedFactor="0.89" vaporized="">
        <emissions CO_abs="3565.795853" CO2_abs="251476.190169" HC_abs="22.192744" PMx_abs="4.530052" NOx_abs="101.484616" fuel_abs="108.098661" electricity_abs="0"/>
    </tripinfo>
    <tripinfo id="carIn30817:1" depart="57681.00" departLane="315358244_1" departPos="5.10" departSpeed="0.00" departDelay="0.20" arrival="57745.00" arrivalLane="447569997#1_1" arrivalPos="180.93" arrivalSpeed="8.14" duration="64.00" routeLength="718.04" waitingTime="0.00" waitingCount="0" stopTime="0.00" timeLoss="6.76" rerouteNo="1" devices="tripinfo_carIn30817:1 routing_carIn30817:1 emissions_carIn30817:1" vType="default_016" speedFactor="1.08" vaporized="">
        <emissions CO_abs="1897.264283" CO2_abs="133641.439769" HC_abs="11.737667" PMx_abs="2.127567" NOx_abs="52.734963" fuel_abs="57.446999" electricity_abs="0"/>
    </tripinfo>
    <tripinfo id="h5979c1:5" depart="57669.00" departLane="399835085#1_1" departPos="5.10" departSpeed="0.00" departDelay="0.00" arrival="57758.00" arrivalLane="-315358254#1_1" arrivalPos="137.16" arrivalSpeed="12.64" duration="89.00" routeLength="659.33" waitingTime="3.00" waitingCount="1" stopTime="0.00" timeLoss="14.41" rerouteNo="1" devices="tripinfo_h5979c1:5 routing_h5979c1:5 emissions_h5979c1:5" vType="default_016" speedFactor="0.99" vaporized="">
        <emissions CO_abs="3653.973818" CO2_abs="172217.243785" HC_abs="20.618619" PMx_abs="2.911394" NOx_abs="70.464119" fuel_abs="74.029794" electricity_abs="0"/>
    </tripinfo>
    <tripinfo id="h3326c1:2" depart="57656.00" departLane="22716069#0_1" departPos="5.10" departSpeed="0.00" departDelay="0.00" arrival="57770.00" arrivalLane="24634517#13_1" arrivalPos="111.62" arrivalSpeed="12.70" duration="114.00" routeLength="1312.81" waitingTime="0.00" waitingCount="0" stopTime="0.00" timeLoss="15.07" rerouteNo="1" devices="tripinfo_h3326c1:2 routing_h3326c1:2 emissions_h3326c1:2" vType="default_016" speedFactor="0.99" vaporized="">
        <emissions CO_abs="4163.561631" CO2_abs="313096.257430" HC_abs="26.313669" PMx_abs="5.329857" NOx_abs="125.980523" fuel_abs="134.586515" electricity_abs="0"/>
    </tripinfo>
    <tripinfo id="carIn22761:1" depart="57616.00" departLane="-306240162#1_0" departPos="5.10" departSpeed="0.00" departDelay="2.10" arrival="57774.00" arrivalLane="399835085#1_1" arrivalPos="212.23" arrivalSpeed="7.37" duration="158.00" routeLength="1093.26" waitingTime="61.00" waitingCount="2" stopTime="0.00" timeLoss="81.56" rerouteNo="1" devices="tripinfo_carIn22761:1 routing_carIn22761:1 emissions_carIn22761:1" vType="default_016" speedFactor="1.02" vaporized="">
        <emissions CO_abs="13382.841925" CO2_abs="441183.362654" HC_abs="71.321622" PMx_abs="8.962234" NOx_abs="185.659513" fuel_abs="189.649944" electricity_abs="0"/>
    </tripinfo>
    <tripinfo id="h317c2:1" depart="57707.00" departLane="-32978638#0_1" departPos="5.10" departSpeed="0.00" departDelay="0.10" arrival="57785.00" arrivalLane="-266565295#5_1" arrivalPos="172.76" arrivalSpeed="13.24" duration="78.00" routeLength="370.53" waitingTime="41.00" waitingCount="1" stopTime="0.00" timeLoss="51.11" rerouteNo="1" devices="tripinfo_h317c2:1 routing_h317c2:1 emissions_h317c2:1" vType="default_016" speedFactor="1.03" vaporized="">
        <emissions CO_abs="8025.090568" CO2_abs="212997.466295" HC_abs="41.560611" PMx_abs="4.599011" NOx_abs="92.764990" fuel_abs="91.561257" electricity_abs="0"/>
    </tripinfo>
    <tripinfo id="h3568c1:3" depart="57656.00" departLane="266565295#5_1" departPos="5.10" departSpeed="0.00" departDelay="0.80" arrival="57786.00" arrivalLane="-24634415_1" arrivalPos="62.03" arrivalSpeed="13.64" duration="130.00" routeLength="807.40" waitingTime="41.00" waitingCount="2" stopTime="0.00" timeLoss="66.40" rerouteNo="1" devices="tripinfo_h3568c1:3 routing_h3568c1:3 emissions_h3568c1:3" vType="default_016" speedFactor="1.02" vaporized="">
        <emissions CO_abs="10576.640821" CO2_abs="362226.210745" HC_abs="56.670031" PMx_abs="7.314737" NOx_abs="154.711677" fuel_abs="155.708362" electricity_abs="0"/>
    </tripinfo>
    <tripinfo id="carIn121703:1" depart="57647.00" departLane="386687232#0_1" departPos="5.10" departSpeed="0.00" departDelay="0.30" arrival="57787.00" arrivalLane="-315358244_1" arrivalPos="33.95" arrivalSpeed="12.55" duration="140.00" routeLength="1157.39" waitingTime="40.00" waitingCount="1" stopTime="0.00" timeLoss="54.35" rerouteNo="1" devices="tripinfo_carIn121703:1 routing_carIn121703:1 emissions_carIn121703:1" vType="default_016" speedFactor="0.99" vaporized="">
        <emissions CO_abs="8818.224303" CO2_abs="344550.219564" HC_abs="48.193418" PMx_abs="6.275784" NOx_abs="141.189367" fuel_abs="148.110218" electricity_abs="0"/>
    </tripinfo>
    <tripinfo id="h330c1:1" depart="57736.00" departLane="-32978638#0_1" departPos="5.10" departSpeed="0.00" departDelay="0.20" arrival="57788.00" arrivalLane="-266565295#5_1" arrivalPos="172.76" arrivalSpeed="12.09" duration="52.00" routeLength="370.53" waitingTime="14.00" waitingCount="1" stopTime="0.00" timeLoss="23.14" rerouteNo="1" devices="tripinfo_h330c1:1 routing_h330c1:1 emissions_h330c1:1" vType="default_016" speedFactor="0.96" vaporized="">
        <emissions CO_abs="3460.858423" CO2_abs="143901.816321" HC_abs="19.135766" PMx_abs="2.711895" NOx_abs="60.035392" fuel_abs="61.858033" electricity_abs="0"/>
    </tripinfo>
    <tripinfo id="carIn86816:1" depart="57617.00" departLane="128361102#0_1" departPos="5.10" departSpeed="0.00" departDelay="0.80" arrival="57793.00" arrivalLane="201956811#0_1" arrivalPos="40.40" arrivalSpeed="13.00" duration="176.00" routeLength="2067.33" waitingTime="0.00" waitingCount="0" stopTime="0.00" timeLoss="20.43" rerouteNo="1" devices="tripinfo_carIn86816:1 routing_carIn86816:1 emissions_carIn86816:1" vType="default_016" speedFactor="0.97" vaporized="">
        <emissions CO_abs="5034.584918" CO2_abs="421111.997583" HC_abs="32.708387" PMx_abs="6.545397" NOx_abs="164.646862" fuel_abs="181.018347" electricity_abs="0"/>
    </tripinfo>
    <tripinfo id="carIn81860:1" depart="57712.00" departLane="128361102#0_1" departPos="5.10" departSpeed="0.00" departDelay="0.60" arrival="57803.00" arrivalLane="-24634517#17_1" arrivalPos="6.43" arrivalSpeed="9.05" duration="91.00" routeLength="1229.64" waitingTime="0.00" waitingCount="0" stopTime="0.00" timeLoss="22.19" rerouteNo="1" devices="tripinfo_carIn81860:1 routing_carIn81860:1 emissions_carIn81860:1" vType="default_016" speedFactor="1.31" vaporized="">
        <emissions CO_abs="4282.748274" CO2_abs="294475.741189" HC_abs="26.528237" PMx_abs="5.714468" NOx_abs="122.073651" fuel_abs="126.581697" electricity_abs="0"/>
    </tripinfo>
    <tripinfo id="h7800c1:5" depart="57696.00" departLane="-447569998#1_1" departPos="5.10" departSpeed="0.00" departDelay="0.00" arrival="57805.00" arrivalLane="-447569998#1_2" arrivalPos="180.76" arrivalSpeed="3.37" duration="109.00" routeLength="175.66" waitingTime="74.00" waitingCount="1" stopTime="0.00" timeLoss="81.19" rerouteNo="1" devices="tripinfo_h7800c1:5 routing_h7800c1:5 emissions_h7800c1:5" vType="default_016" speedFactor="0.77" vaporized="">
        <emissions CO_abs="13042.139993" CO2_abs="238985.273245" HC_abs="64.964678" PMx_abs="5.550750" NOx_abs="107.123688" fuel_abs="102.735445" electricity_abs="0"/>
    </tripinfo>
    <tripinfo id="carIn50326:1" depart="57651.00" departLane="128361102#0_1" departPos="5.10" departSpeed="0.00" departDelay="0.30" arrival="57807.00" arrivalLane="18809673#0_1" arrivalPos="473.56" arrivalSpeed="12.82" duration="156.00" routeLength="1591.07" waitingTime="0.00" waitingCount="0" stopTime="0.00" timeLoss="20.63" rerouteNo="1" devices="tripinfo_carIn50326:1 routing_carIn50326:1 emissions_carIn50326:1" vType="default_016" speedFactor="0.96" vaporized="">
        <emissions CO_abs="5157.091672" CO2_abs="342727.862924" HC_abs="31.450367" PMx_abs="5.548858" NOx_abs="136.721262" fuel_abs="147.324738" electricity_abs="0"/>
    </tripinfo>
    <tripinfo id="h645c1:1" depart="57622.00" departLane="266565295#5_1" departPos="5.10" departSpeed="0.00" departDelay="0.40" arrival="57808.00" arrivalLane="-315358244_1" arrivalPos="33.95" arrivalSpeed="11.96" duration="186.00" routeLength="1910.83" waitingTime="18.00" waitingCount="1" stopTime="0.00" timeLoss="34.38" rerouteNo="1" devices="tripinfo_h645c1:1 routing_h645c1:1 emissions_h645c1:1" vType="default_016" speedFactor="0.91" vaporized="">
        <emissions CO_abs="6556.251878" CO2_abs="377866.104249" HC_abs="38.613000" PMx_abs="6.058809" NOx_abs="149.518068" fuel_abs="162.430158" electricity_abs="0"/>
    </tripinfo>
    <tripinfo id="h11737c1:1" depart="57665.00" departLane="272042143_1" departPos="5.10" departSpeed="0.00" departDelay="1.50" arrival="57808.00" arrivalLane="-315358254#1_1" arrivalPos="137.16" arrivalSpeed="14.37" duration="143.00" routeLength="1596.88" waitingTime="12.00" waitingCount="1" stopTime="0.00" timeLoss="30.68" rerouteNo="1" devices="tripinfo_h11737c1:1 routing_h11737c1:1 emissions_h11737c1:1" vType="default_016" speedFactor="1.03" vaporized="">
        <emissions CO_abs="5779.166375" CO2_abs="377712.194258" HC_abs="35.068201" PMx_abs="6.185788" NOx_abs="149.306126" fuel_abs="162.363228" electricity_abs="0"/>
    </tripinfo>
    <tripinfo id="carIn126288:1" depart="57674.00" departLane="272042143_1" departPos="5.10" departSpeed="0.00" departDelay="0.00" arrival="57810.00" arrivalLane="-315358254#1_1" arrivalPos="137.16" arrivalSpeed="14.36" duration="136.00" routeLength="1596.88" waitingTime="9.00" waitingCount="1" stopTime="0.00" timeLoss="28.63" rerouteNo="1" devices="tripinfo_carIn126288:1 routing_carIn126288:1 emissions_carIn126288:1" vType="default_016" speedFactor="1.09" vaporized="">
        <emissions CO_abs="5597.137612" CO2_abs="388997.820251" HC_abs="34.557105" PMx_abs="6.824994" NOx_abs="156.913916" fuel_abs="167.213436" electricity_abs="0"/>
    </tripinfo>
    <tripinfo id="h3154c1:1" depart="57658.00" departLane="24634507_1" departPos="5.10" departSpeed="0.00" departDelay="0.00" arrival="57817.00" arrivalLane="-266565295#5_1" arrivalPos="172.76" arrivalSpeed="13.03" duration="159.00" routeLength="1206.22" waitingTime="49.00" waitingCount="2" stopTime="0.00" timeLoss="68.88" rerouteNo="1" devices="tripinfo_h3154c1:1 routing_h3154c1:1 emissions_h3154c1:1" vType="default_016" speedFactor="0.99" vaporized="">
        <emissions CO_abs="10915.079888" CO2_abs="416446.376470" HC_abs="59.458924" PMx_abs="8.002890" NOx_abs="174.283444" fuel_abs="179.015369" electricity_abs="0"/>
    </tripinfo>
    <tripinfo id="randUni15030:1" depart="57735.00" departLane="386687232#0_1" departPos="5.10" departSpeed="0.00" departDelay="0.10" arrival="57817.00" arrivalLane="26677539_1" arrivalPos="151.98" arrivalSpeed="9.00" duration="82.00" routeLength="919.89" waitingTime="0.00" waitingCount="0" stopTime="0.00" timeLoss="11.31" rerouteNo="1" devices="tripinfo_randUni15030:1 routing_randUni15030:1 emissions_randUni15030:1" vType="random_016" speedFactor="1.18" vaporized="">
        <emissions CO_abs="3361.633032" CO2_abs="237620.171587" HC_abs="20.787017" PMx_abs="3.994227" NOx_abs="95.011127" fuel_abs="102.142877" electricity_abs="0"/>
    </tripinfo>
    <tripinfo id="carIn80064:1" depart="57603.00" departLane="128361109#1_1" departPos="5.10" departSpeed="0.00" departDelay="0.40" arrival="57818.00" arrivalLane="-315358254#1_1" arrivalPos="137.16" arrivalSpeed="12.10" duration="215.00" routeLength="1587.97" waitingTime="88.00" waitingCount="1" stopTime="0.00" timeLoss="112.99" rerouteNo="1" devices="tripinfo_carIn80064:1 routing_carIn80064:1 emissions_carIn80064:1" vType="default_016" speedFactor="0.88" vaporized="">
        <emissions CO_abs="20061.723900" CO2_abs="643323.573647" HC_abs="106.546542" PMx_abs="13.415210" NOx_abs="274.191400" fuel_abs="276.543063" electricity_abs="0"/>
    </tripinfo>
    <tripinfo id="carIn12152:1" depart="57647.00" departLane="24599188#0.94_1" departPos="5.10" departSpeed="0.00" departDelay="0.50" arrival="57826.00" arrivalLane="-315358254#1_1" arrivalPos="137.16" arrivalSpeed="13.70" duration="179.00" routeLength="2034.31" waitingTime="4.00" waitingCount="1" stopTime="0.00" timeLoss="27.53" rerouteNo="1" devices="tripinfo_carIn12152:1 routing_carIn12152:1 emissions_carIn12152:1" vType="default_016" speedFactor="1.05" vaporized="">
        <emissions CO_abs="5465.525087" CO2_abs="420415.398448" HC_abs="34.666161" PMx_abs="6.877783" NOx_abs="166.550956" fuel_abs="180.718756" electricity_abs="0"/>
    </tripinfo>
    <tripinfo id="carIn28951:1" depart="57606.00" departLane="10425609#0_1" departPos="5.10" departSpeed="0.00" departDelay="0.20" arrival="57827.00" arrivalLane="-128361102#1_1" arrivalPos="274.68" arrivalSpeed="13.25" duration="221.00" routeLength="2113.04" waitingTime="33.00" waitingCount="2" stopTime="0.00" timeLoss="63.86" rerouteNo="1" devices="tripinfo_carIn28951:1 routing_carIn28951:1 emissions_carIn28951:1" vType="default_016" speedFactor="0.99" vaporized="">
        <emissions CO_abs="10037.962730" CO2_abs="551374.269218" HC_abs="58.539275" PMx_abs="9.500495" NOx_abs="222.545403" fuel_abs="237.014042" electricity_abs="0"/>
    </tripinfo>
    <tripinfo id="carIn107282:1" depart="57749.00" departLane="-447569998#1_1" departPos="5.10" departSpeed="0.00" departDelay="0.00" arrival="57831.00" arrivalLane="315358242#0_1" arrivalPos="165.37" arrivalSpeed="11.64" duration="82.00" routeLength="448.50" waitingTime="29.00" waitingCount="1" stopTime="0.00" timeLoss="37.41" rerouteNo="1" devices="tripinfo_carIn107282:1 routing_carIn107282:1 emissions_carIn107282:1" vType="default_016" speedFactor="0.93" vaporized="">
        <emissions CO_abs="6167.745787" CO2_abs="175293.547321" HC_abs="32.165005" PMx_abs="3.487142" NOx_abs="74.703875" fuel_abs="75.353518" electricity_abs="0"/>
    </tripinfo>
    <tripinfo id="h12244c1:3" depart="57612.00" departLane="315358244_1" departPos="5.10" departSpeed="0.00" departDelay="0.40" arrival="57841.00" arrivalLane="386687235_1" arrivalPos="80.84" arrivalSpeed="12.12" duration="229.00" routeLength="1186.14" waitingTime="113.00" waitingCount="3" stopTime="0.00" timeLoss="134.61" rerouteNo="1" devices="tripinfo_h12244c1:3 routing_h12244c1:3 emissions_h12244c1:3" vType="default_016" speedFactor="0.92" vaporized="">
        <emissions CO_abs="21042.821316" CO2_abs="538032.204208" HC_abs="108.413519" PMx_abs="11.261053" NOx_abs="231.690323" fuel_abs="231.285235" electricity_abs="0"/>
    </tripinfo>
    <tripinfo id="carIn102915:1" depart="57643.00" departLane="128361102#0_1" departPos="5.10" departSpeed="0.00" departDelay="0.40" arrival="57841.00" arrivalLane="201956811#0_1" arrivalPos="40.40" arrivalSpeed="12.46" duration="198.00" routeLength="2067.33" waitingTime="5.00" waitingCount="2" stopTime="0.00" timeLoss="30.15" rerouteNo="1" devices="tripinfo_carIn102915:1 routing_carIn102915:1 emissions_carIn102915:1" vType="default_016" speedFactor="0.90" vaporized="">
        <emissions CO_abs="6166.556452" CO2_abs="449691.337296" HC_abs="38.521529" PMx_abs="7.090919" NOx_abs="177.756365" fuel_abs="193.303795" electricity_abs="0"/>
    </tripinfo>
    <tripinfo id="randUni33724:1" depart="57646.00" departLane="128361102#0_1" departPos="5.10" departSpeed="0.00" departDelay="1.20" arrival="57843.00" arrivalLane="201956811#0_1" arrivalPos="40.40" arrivalSpeed="17.04" duration="197.00" routeLength="2067.33" waitingTime="3.00" waitingCount="2" stopTime="0.00" timeLoss="75.59" rerouteNo="1" devices="tripinfo_randUni33724:1 routing_randUni33724:1 emissions_randUni33724:1" vType="random_016" speedFactor="1.25" vaporized="">
        <emissions CO_abs="7731.292238" CO2_abs="529567.931093" HC_abs="47.631579" PMx_abs="9.203107" NOx_abs="215.241223" fuel_abs="227.638509" electricity_abs="0"/>
    </tripinfo>
    <tripinfo id="randUni31145:1" depart="57814.00" departLane="10425609#0_1" departPos="5.10" departSpeed="0.00" departDelay="0.30" arrival="57843.00" arrivalLane="201956810_1" arrivalPos="71.65" arrivalSpeed="13.95" duration="29.00" routeLength="255.78" waitingTime="0.00" waitingCount="0" stopTime="0.00" timeLoss="10.54" rerouteNo="1" devices="tripinfo_randUni31145:1 routing_randUni31145:1 emissions_randUni31145:1" vType="random_016" speedFactor="1.07" vaporized="">
        <emissions CO_abs="2111.594487" CO2_abs="113089.552155" HC_abs="12.293144" PMx_abs="2.185694" NOx_abs="47.733500" fuel_abs="48.612363" electricity_abs="0"/>
    </tripinfo>
    <tripinfo id="randUni2407:1" depart="57820.00" departLane="10425609#0_1" departPos="5.10" departSpeed="0.00" departDelay="0.80" arrival="57848.00" arrivalLane="201956810_1" arrivalPos="71.65" arrivalSpeed="11.91" duration="28.00" routeLength="255.78" waitingTime="0.00" waitingCount="0" stopTime="0.00" timeLoss="5.52" rerouteNo="1" devices="tripinfo_randUni2407:1 routing_randUni2407:1 emissions_randUni2407:1" vType="random_016" speedFactor="0.90" vaporized="">
        <emissions CO_abs="1479.021214" CO2_abs="81580.278311" HC_abs="8.654959" PMx_abs="1.504831" NOx_abs="34.005139" fuel_abs="35.067942" electricity_abs="0"/>
    </tripinfo>
    <tripinfo id="carIn12365:1" depart="57713.00" departLane="315358244_1" departPos="5.10" departSpeed="0.00" departDelay="0.50" arrival="57849.00" arrivalLane="447569997#1_1" arrivalPos="180.93" arrivalSpeed="7.45" duration="136.00" routeLength="718.04" waitingTime="49.00" waitingCount="3" stopTime="0.00" timeLoss="70.83" rerouteNo="1" devices="tripinfo_carIn12365:1 routing_carIn12365:1 emissions_carIn12365:1" vType="default_016" speedFactor="0.95" vaporized="">
        <emissions CO_abs="9688.524952" CO2_abs="284686.090840" HC_abs="50.759877" PMx_abs="5.659637" NOx_abs="121.173795" fuel_abs="122.377881" electricity_abs="0"/>
    </tripinfo>
    <tripinfo id="h9563c2:5" depart="57631.00" departLane="315358244_1" departPos="5.10" departSpeed="0.00" departDelay="0.70" arrival="57867.00" arrivalLane="386687235_1" arrivalPos="80.84" arrivalSpeed="12.74" duration="236.00" routeLength="1186.14" waitingTime="114.00" waitingCount="4" stopTime="0.00" timeLoss="144.15" rerouteNo="1" devices="tripinfo_h9563c2:5 routing_h9563c2:5 emissions_h9563c2:5" vType="default_016" speedFactor="0.94" vaporized="">
        <emissions CO_abs="21555.302310" CO2_abs="554928.653734" HC_abs="111.164296" PMx_abs="11.714620" NOx_abs="239.754943" fuel_abs="238.548260" electricity_abs="0"/>
    </tripinfo>
    <tripinfo id="S5R_frequency1.2" depart="57647.00" departLane="315358250#0_1" departPos="12.10" departSpeed="0.00" departDelay="35.40" arrival="57871.00" arrivalLane="386687235_1" arrivalPos="80.84" arrivalSpeed="13.72" duration="224.00" routeLength="1115.62" waitingTime="114.00" waitingCount="4" stopTime="0.00" timeLoss="142.31" rerouteNo="1" devices="tripinfo_S5R_frequency1.2 routing_S5R_frequency1.2 emissions_S5R_frequency1.2" vType="bus" speedFactor="1.00" vaporized="">
        <emissions CO_abs="4196.164558" CO2_abs="1842663.301972" HC_abs="944.859829" PMx_abs="432.891692" NOx_abs="16413.680362" fuel_abs="785.625745" electricity_abs="0"/>
    </tripinfo>
    <tripinfo id="carIn12775:1" depart="57676.00" departLane="10425609#0_1" departPos="5.10" departSpeed="0.00" departDelay="0.60" arrival="57872.00" arrivalLane="18809673#0_1" arrivalPos="473.56" arrivalSpeed="13.56" duration="196.00" routeLength="1959.45" waitingTime="31.00" waitingCount="1" stopTime="0.00" timeLoss="53.02" rerouteNo="1" devices="tripinfo_carIn12775:1 routing_carIn12775:1 emissions_carIn12775:1" vType="default_016" speedFactor="1.02" vaporized="">
        <emissions CO_abs="9245.626159" CO2_abs="467254.546217" HC_abs="53.057097" PMx_abs="8.329949" NOx_abs="190.100453" fuel_abs="200.854538" electricity_abs="0"/>
    </tripinfo>
    <tripinfo id="carIn73855:1" depart="57743.00" departLane="386687232#0_1" departPos="5.10" departSpeed="0.00" departDelay="0.50" arrival="57873.00" arrivalLane="-315358244_1" arrivalPos="33.95" arrivalSpeed="14.26" duration="130.00" routeLength="1157.39" waitingTime="29.00" waitingCount="2" stopTime="0.00" timeLoss="49.25" rerouteNo="1" devices="tripinfo_carIn73855:1 routing_carIn73855:1 emissions_carIn73855:1" vType="default_016" speedFactor="1.04" vaporized="">
        <emissions CO_abs="7595.665141" CO2_abs="350144.305645" HC_abs="42.820106" PMx_abs="6.491635" NOx_abs="144.358823" fuel_abs="150.513565" electricity_abs="0"/>
    </tripinfo>
    <tripinfo id="carIn27009:1" depart="57673.00" departLane="-447569998#1_1" departPos="5.10" departSpeed="0.00" departDelay="0.50" arrival="57874.00" arrivalLane="-26677539_1" arrivalPos="152.75" arrivalSpeed="7.31" duration="201.00" routeLength="699.63" waitingTime="102.00" waitingCount="1" stopTime="0.00" timeLoss="116.91" rerouteNo="1" devices="tripinfo_carIn27009:1 routing_carIn27009:1 emissions_carIn27009:1" vType="default_015" speedFactor="0.99" vaporized="">
        <emissions CO_abs="20082.107602" CO2_abs="445943.956601" HC_abs="101.811288" PMx_abs="9.489652" NOx_abs="194.445453" fuel_abs="191.700908" electricity_abs="0"/>
    </tripinfo>
    <tripinfo id="carIn129809:1" depart="57729.00" departLane="-447569998#1_1" departPos="5.10" departSpeed="0.00" departDelay="1.00" arrival="57874.00" arrivalLane="-315358244_2" arrivalPos="33.95" arrivalSpeed="14.97" duration="145.00" routeLength="706.49" waitingTime="71.00" waitingCount="2" stopTime="0.00" timeLoss="92.55" rerouteNo="1" devices="tripinfo_carIn129809:1 routing_carIn129809:1 emissions_carIn129809:1" vType="default_015" speedFactor="1.15" vaporized="">
        <emissions CO_abs="13953.195735" CO2_abs="362089.813769" HC_abs="71.987087" PMx_abs="7.688081" NOx_abs="156.522479" fuel_abs="155.652100" electricity_abs="0"/>
    </tripinfo>
    <tripinfo id="carIn53503:1" depart="57764.00" departLane="-306240162#1_0" departPos="5.10" departSpeed="0.00" departDelay="3.40" arrival="57874.00" arrivalLane="24634510#6_1" arrivalPos="76.64" arrivalSpeed="13.26" duration="110.00" routeLength="1440.47" waitingTime="0.00" waitingCount="0" stopTime="0.00" timeLoss="13.86" rerouteNo="1" devices="tripinfo_carIn53503:1 routing_carIn53503:1 emissions_carIn53503:1" vType="default_016" speedFactor="1.04" vaporized="">
        <emissions CO_abs="3734.777951" CO2_abs="303091.232407" HC_abs="24.121999" PMx_abs="5.253459" NOx_abs="121.550857" fuel_abs="130.285488" electricity_abs="0"/>
    </tripinfo>
    <tripinfo id="carIn100288:1" depart="57664.00" departLane="128361102#0_1" departPos="5.10" departSpeed="0.00" departDelay="0.60" arrival="57875.00" arrivalLane="201956811#0_1" arrivalPos="40.40" arrivalSpeed="12.07" duration="211.00" routeLength="2067.33" waitingTime="20.00" waitingCount="2" stopTime="0.00" timeLoss="47.13" rerouteNo="1" devices="tripinfo_carIn100288:1 routing_carIn100288:1 emissions_carIn100288:1" vType="default_016" speedFactor="0.92" vaporized="">
        <emissions CO_abs="8305.649940" CO2_abs="498536.952815" HC_abs="49.441364" PMx_abs="8.325602" NOx_abs="200.026694" fuel_abs="214.301066" electricity_abs="0"/>
    </tripinfo>
    <tripinfo id="carIn29531:1" depart="57667.00" departLane="128361102#0_1" departPos="5.10" departSpeed="0.00" departDelay="1.60" arrival="57877.00" arrivalLane="201956811#0_1" arrivalPos="40.40" arrivalSpeed="12.54" duration="210.00" routeLength="2067.33" waitingTime="17.00" waitingCount="2" stopTime="0.00" timeLoss="47.16" rerouteNo="1" devices="tripinfo_carIn29531:1 routing_carIn29531:1 emissions_carIn29531:1" vType="default_016" speedFactor="0.93" vaporized="">
        <emissions CO_abs="7315.361278" CO2_abs="473348.630824" HC_abs="44.360977" PMx_abs="7.910858" NOx_abs="190.126101" fuel_abs="203.473101" electricity_abs="0"/>
    </tripinfo>
    <tripinfo id="carIn2912:1" depart="57670.00" departLane="128361102#0_1" departPos="5.10" departSpeed="0.00" departDelay="3.10" arrival="57878.00" arrivalLane="201956811#0_1" arrivalPos="40.40" arrivalSpeed="14.58" duration="208.00" routeLength="2067.33" waitingTime="15.00" waitingCount="2" stopTime="0.00" timeLoss="64.25" rerouteNo="1" devices="tripinfo_carIn2912:1 routing_carIn2912:1 emissions_carIn2912:1" vType="default_016" speedFactor="1.05" vaporized="">
        <emissions CO_abs="8075.090270" CO2_abs="521443.677140" HC_abs="48.982418" PMx_abs="9.003431" NOx_abs="211.359097" fuel_abs="224.146747" electricity_abs="0"/>
    </tripinfo>
    <tripinfo id="carIn126378:1" depart="57746.00" departLane="386687232#0_1" departPos="5.10" departSpeed="0.00" departDelay="1.80" arrival="57878.00" arrivalLane="-315358244_1" arrivalPos="33.95" arrivalSpeed="9.17" duration="132.00" routeLength="1157.39" waitingTime="0.00" waitingCount="0" stopTime="0.00" timeLoss="12.57" rerouteNo="1" devices="tripinfo_carIn126378:1 routing_carIn126378:1 emissions_carIn126378:1" vType="default_016" speedFactor="0.71" vaporized="">