<?xml version="1.0" encoding="UTF-8"?>

<!-- generated on 2021-10-26 14:24:44 by Eclipse SUMO sumo Version 1.10.0
<configuration xmlns:xsi="http://www.w3.org/2001/XMLSchema-instance" xsi:noNamespaceSchemaLocation="http://sumo.dlr.de/xsd/sumoConfiguration.xsd">

    <input>
        <net-file value="/Users/behradkoohy/sumo-scratchpad/RESCO/environments/ingolstadt21/ingolstadt21.net.xml"/>
        <route-files value="/Users/behradkoohy/sumo-scratchpad/RESCO/environments/ingolstadt21/ingolstadt21.rou.xml"/>
    </input>

    <output>
        <tripinfo-output value="/Users/behradkoohy/sumo-scratchpad/RESCO/logs/STOCHASTIC-tr0-ingolstadt21-21-mplight-wait/tripinfo_50.xml"/>
        <tripinfo-output.write-unfinished value="true"/>
    </output>

    <time>
        <begin value="57600"/>
        <end value="61200"/>
    </time>

    <processing>
        <time-to-teleport value="-1"/>
    </processing>

    <report>
        <no-warnings value="true"/>
        <no-step-log value="true"/>
    </report>

    <emissions>
        <device.emissions.probability value="1"/>
    </emissions>

    <traci_server>
        <remote-port value="60299"/>
    </traci_server>

    <random_number>
        <random value="true"/>
    </random_number>

</configuration>
-->

<tripinfos xmlns:xsi="http://www.w3.org/2001/XMLSchema-instance" xsi:noNamespaceSchemaLocation="http://sumo.dlr.de/xsd/tripinfo_file.xsd">
    <tripinfo id="h15454c2:3" depart="57612.00" departLane="24608844_1" departPos="5.10" departSpeed="0.00" departDelay="0.50" arrival="57655.00" arrivalLane="32978638#0_1" arrivalPos="49.29" arrivalSpeed="12.41" duration="43.00" routeLength="354.79" waitingTime="0.00" waitingCount="0" stopTime="0.00" timeLoss="5.30" rerouteNo="1" devices="tripinfo_h15454c2:3 routing_h15454c2:3 emissions_h15454c2:3" vType="default_016" speedFactor="0.90" vaporized="">
        <emissions CO_abs="2144.356359" CO2_abs="112732.944179" HC_abs="12.391149" PMx_abs="1.964227" NOx_abs="46.336756" fuel_abs="48.459420" electricity_abs="0"/>
    </tripinfo>
    <tripinfo id="carIn60260:1" depart="57606.00" departLane="315358254#0_1" departPos="5.10" departSpeed="0.00" departDelay="0.90" arrival="57664.00" arrivalLane="399835085#1_1" arrivalPos="212.23" arrivalSpeed="8.04" duration="58.00" routeLength="430.98" waitingTime="1.00" waitingCount="1" stopTime="0.00" timeLoss="10.84" rerouteNo="1" devices="tripinfo_carIn60260:1 routing_carIn60260:1 emissions_carIn60260:1" vType="default_016" speedFactor="0.97" vaporized="">
        <emissions CO_abs="2743.139427" CO2_abs="129416.490995" HC_abs="15.468586" PMx_abs="2.182975" NOx_abs="52.831017" fuel_abs="55.631352" electricity_abs="0"/>
    </tripinfo>
    <tripinfo id="carIn53971:1" depart="57640.00" departLane="272042143_1" departPos="5.10" departSpeed="0.00" departDelay="0.80" arrival="57699.00" arrivalLane="24634414#1_1" arrivalPos="162.19" arrivalSpeed="6.77" duration="59.00" routeLength="493.04" waitingTime="0.00" waitingCount="0" stopTime="0.00" timeLoss="9.00" rerouteNo="1" devices="tripinfo_carIn53971:1 routing_carIn53971:1 emissions_carIn53971:1" vType="default_016" speedFactor="0.91" vaporized="">
        <emissions CO_abs="2643.647859" CO2_abs="141594.919427" HC_abs="15.335225" PMx_abs="2.442849" NOx_abs="57.964322" fuel_abs="60.866041" electricity_abs="0"/>
    </tripinfo>
    <tripinfo id="h3688c1:1" depart="57625.00" departLane="201201950#1_1" departPos="5.10" departSpeed="0.00" departDelay="0.00" arrival="57706.00" arrivalLane="32978638#0_1" arrivalPos="49.29" arrivalSpeed="15.60" duration="81.00" routeLength="1089.75" waitingTime="0.00" waitingCount="0" stopTime="0.00" timeLoss="11.20" rerouteNo="1" devices="tripinfo_h3688c1:1 routing_h3688c1:1 emissions_h3688c1:1" vType="default_016" speedFactor="1.14" vaporized="">
        <emissions CO_abs="3284.104326" CO2_abs="274188.694936" HC_abs="21.233475" PMx_abs="4.715175" NOx_abs="109.280804" fuel_abs="117.861560" electricity_abs="0"/>
    </tripinfo>
    <tripinfo id="h7181c1:1" depart="57660.00" departLane="315358254#0_1" departPos="5.10" departSpeed="0.00" departDelay="0.10" arrival="57729.00" arrivalLane="306240162#0_0" arrivalPos="220.43" arrivalSpeed="14.40" duration="69.00" routeLength="932.35" waitingTime="0.00" waitingCount="0" stopTime="0.00" timeLoss="10.30" rerouteNo="1" devices="tripinfo_h7181c1:1 routing_h7181c1:1 emissions_h7181c1:1" vType="default_016" speedFactor="0.88" vaporized="">
        <emissions CO_abs="3594.488436" CO2_abs="252003.909307" HC_abs="22.385164" PMx_abs="4.886736" NOx_abs="104.609170" fuel_abs="108.324921" electricity_abs="0"/>
    </tripinfo>
    <tripinfo id="h7800c1:5" depart="57696.00" departLane="-447569998#1_1" departPos="5.10" departSpeed="0.00" departDelay="0.00" arrival="57735.00" arrivalLane="-447569998#1_2" arrivalPos="180.76" arrivalSpeed="3.18" duration="39.00" routeLength="175.66" waitingTime="8.00" waitingCount="1" stopTime="0.00" timeLoss="15.15" rerouteNo="1" devices="tripinfo_h7800c1:5 routing_h7800c1:5 emissions_h7800c1:5" vType="default_016" speedFactor="0.89" vaporized="">
        <emissions CO_abs="1874.276186" CO2_abs="58702.891964" HC_abs="9.894393" PMx_abs="1.116262" NOx_abs="24.919457" fuel_abs="25.234530" electricity_abs="0"/>
    </tripinfo>
    <tripinfo id="carIn22761:1" depart="57616.00" departLane="-306240162#1_0" departPos="5.10" departSpeed="0.00" departDelay="2.10" arrival="57738.00" arrivalLane="399835085#1_1" arrivalPos="212.23" arrivalSpeed="7.19" duration="122.00" routeLength="1093.26" waitingTime="12.00" waitingCount="2" stopTime="0.00" timeLoss="34.81" rerouteNo="1" devices="tripinfo_carIn22761:1 routing_carIn22761:1 emissions_carIn22761:1" vType="default_016" speedFactor="0.90" vaporized="">
        <emissions CO_abs="5845.187219" CO2_abs="323870.742251" HC_abs="34.220808" PMx_abs="6.044152" NOx_abs="133.878913" fuel_abs="139.218480" electricity_abs="0"/>
    </tripinfo>
    <tripinfo id="h317c2:1" depart="57707.00" departLane="-32978638#0_1" departPos="5.10" departSpeed="0.00" departDelay="0.10" arrival="57743.00" arrivalLane="-266565295#5_1" arrivalPos="172.76" arrivalSpeed="11.56" duration="36.00" routeLength="370.53" waitingTime="0.00" waitingCount="0" stopTime="0.00" timeLoss="5.12" rerouteNo="1" devices="tripinfo_h317c2:1 routing_h317c2:1 emissions_h317c2:1" vType="default_016" speedFactor="0.89" vaporized="">
        <emissions CO_abs="1592.798379" CO2_abs="97181.682685" HC_abs="9.532287" PMx_abs="1.713349" NOx_abs="39.854582" fuel_abs="41.774323" electricity_abs="0"/>
    </tripinfo>
    <tripinfo id="h9563c2:5" depart="57631.00" departLane="315358244_1" departPos="5.10" departSpeed="0.00" departDelay="0.70" arrival="57746.00" arrivalLane="386687235_1" arrivalPos="80.84" arrivalSpeed="13.23" duration="115.00" routeLength="1186.14" waitingTime="10.00" waitingCount="2" stopTime="0.00" timeLoss="31.50" rerouteNo="1" devices="tripinfo_h9563c2:5 routing_h9563c2:5 emissions_h9563c2:5" vType="default_016" speedFactor="1.03" vaporized="">
        <emissions CO_abs="4513.661469" CO2_abs="282236.095012" HC_abs="27.155862" PMx_abs="4.814196" NOx_abs="113.408894" fuel_abs="121.321725" electricity_abs="0"/>
    </tripinfo>
    <tripinfo id="carIn30817:1" depart="57681.00" departLane="315358244_1" departPos="5.10" departSpeed="0.00" departDelay="0.20" arrival="57746.00" arrivalLane="447569997#1_1" arrivalPos="180.93" arrivalSpeed="7.92" duration="65.00" routeLength="718.04" waitingTime="0.00" waitingCount="0" stopTime="0.00" timeLoss="7.38" rerouteNo="1" devices="tripinfo_carIn30817:1 routing_carIn30817:1 emissions_carIn30817:1" vType="default_016" speedFactor="1.08" vaporized="">
        <emissions CO_abs="2091.867410" CO2_abs="153257.832851" HC_abs="13.042784" PMx_abs="2.442166" NOx_abs="60.371950" fuel_abs="65.879215" electricity_abs="0"/>
    </tripinfo>
    <tripinfo id="h12244c1:3" depart="57612.00" departLane="315358244_1" departPos="5.10" departSpeed="0.00" departDelay="0.40" arrival="57749.00" arrivalLane="386687235_1" arrivalPos="80.84" arrivalSpeed="12.60" duration="137.00" routeLength="1186.14" waitingTime="25.00" waitingCount="2" stopTime="0.00" timeLoss="44.67" rerouteNo="1" devices="tripinfo_h12244c1:3 routing_h12244c1:3 emissions_h12244c1:3" vType="default_016" speedFactor="0.94" vaporized="">
        <emissions CO_abs="6409.677621" CO2_abs="296833.143505" HC_abs="36.112069" PMx_abs="5.222251" NOx_abs="120.833007" fuel_abs="127.597524" electricity_abs="0"/>
    </tripinfo>
    <tripinfo id="h3326c1:2" depart="57656.00" departLane="22716069#0_1" departPos="5.10" departSpeed="0.00" departDelay="0.00" arrival="57761.00" arrivalLane="24634517#13_1" arrivalPos="111.62" arrivalSpeed="14.18" duration="105.00" routeLength="1312.81" waitingTime="0.00" waitingCount="0" stopTime="0.00" timeLoss="13.92" rerouteNo="1" devices="tripinfo_h3326c1:2 routing_h3326c1:2 emissions_h3326c1:2" vType="default_016" speedFactor="1.08" vaporized="">
        <emissions CO_abs="4148.809058" CO2_abs="319883.642616" HC_abs="26.414616" PMx_abs="5.702338" NOx_abs="129.782320" fuel_abs="137.503687" electricity_abs="0"/>
    </tripinfo>
    <tripinfo id="h3154c1:1" depart="57658.00" departLane="24634507_1" departPos="5.10" departSpeed="0.00" departDelay="0.00" arrival="57771.00" arrivalLane="-266565295#5_1" arrivalPos="172.76" arrivalSpeed="13.41" duration="113.00" routeLength="1206.22" waitingTime="5.00" waitingCount="1" stopTime="0.00" timeLoss="23.60" rerouteNo="1" devices="tripinfo_h3154c1:1 routing_h3154c1:1 emissions_h3154c1:1" vType="default_016" speedFactor="1.00" vaporized="">
        <emissions CO_abs="4567.094695" CO2_abs="300856.546620" HC_abs="27.873700" PMx_abs="5.404278" NOx_abs="123.242151" fuel_abs="129.325205" electricity_abs="0"/>
    </tripinfo>
    <tripinfo id="carIn28951:1" depart="57606.00" departLane="10425609#0_1" departPos="5.10" departSpeed="0.00" departDelay="0.20" arrival="57774.00" arrivalLane="-128361102#1_1" arrivalPos="274.68" arrivalSpeed="14.67" duration="168.00" routeLength="2113.04" waitingTime="1.00" waitingCount="1" stopTime="0.00" timeLoss="23.85" rerouteNo="1" devices="tripinfo_carIn28951:1 routing_carIn28951:1 emissions_carIn28951:1" vType="default_016" speedFactor="1.08" vaporized="">
        <emissions CO_abs="5733.699766" CO2_abs="468432.585391" HC_abs="37.017808" PMx_abs="7.959561" NOx_abs="186.879371" fuel_abs="201.358603" electricity_abs="0"/>
    </tripinfo>
    <tripinfo id="carIn48184:1" depart="57613.00" departLane="-306240162#1_0" departPos="5.10" departSpeed="0.00" departDelay="0.70" arrival="57781.00" arrivalLane="386687235_1" arrivalPos="80.84" arrivalSpeed="15.23" duration="168.00" routeLength="2257.41" waitingTime="10.00" waitingCount="1" stopTime="0.00" timeLoss="33.23" rerouteNo="1" devices="tripinfo_carIn48184:1 routing_carIn48184:1 emissions_carIn48184:1" vType="default_016" speedFactor="1.10" vaporized="">
        <emissions CO_abs="7439.752713" CO2_abs="535331.889575" HC_abs="46.487654" PMx_abs="9.803415" NOx_abs="215.413198" fuel_abs="230.115638" electricity_abs="0"/>
    </tripinfo>
    <tripinfo id="h16072c2:3" depart="57663.00" departLane="315358254#0_1" departPos="5.10" departSpeed="0.00" departDelay="2.50" arrival="57785.00" arrivalLane="386687235_1" arrivalPos="80.84" arrivalSpeed="14.04" duration="122.00" routeLength="1611.92" waitingTime="0.00" waitingCount="0" stopTime="0.00" timeLoss="11.05" rerouteNo="1" devices="tripinfo_h16072c2:3 routing_h16072c2:3 emissions_h16072c2:3" vType="default_016" speedFactor="1.06" vaporized="">
        <emissions CO_abs="3234.132577" CO2_abs="304378.234672" HC_abs="21.801339" PMx_abs="4.859911" NOx_abs="118.813921" fuel_abs="130.838963" electricity_abs="0"/>
    </tripinfo>
    <tripinfo id="h3568c1:3" depart="57656.00" departLane="266565295#5_1" departPos="5.10" departSpeed="0.00" departDelay="0.80" arrival="57787.00" arrivalLane="-24634415_1" arrivalPos="62.03" arrivalSpeed="13.85" duration="131.00" routeLength="807.40" waitingTime="43.00" waitingCount="2" stopTime="0.00" timeLoss="66.41" rerouteNo="1" devices="tripinfo_h3568c1:3 routing_h3568c1:3 emissions_h3568c1:3" vType="default_016" speedFactor="1.00" vaporized="">
        <emissions CO_abs="11136.973372" CO2_abs="382238.139551" HC_abs="59.733177" PMx_abs="7.815542" NOx_abs="163.879956" fuel_abs="164.310626" electricity_abs="0"/>
    </tripinfo>
    <tripinfo id="carIn12365:1" depart="57713.00" departLane="315358244_1" departPos="5.10" departSpeed="0.00" departDelay="0.50" arrival="57787.00" arrivalLane="447569997#1_1" arrivalPos="180.93" arrivalSpeed="7.93" duration="74.00" routeLength="718.04" waitingTime="0.00" waitingCount="0" stopTime="0.00" timeLoss="11.61" rerouteNo="1" devices="tripinfo_carIn12365:1 routing_carIn12365:1 emissions_carIn12365:1" vType="default_016" speedFactor="0.99" vaporized="">
        <emissions CO_abs="2801.867607" CO2_abs="165400.678348" HC_abs="16.608554" PMx_abs="2.767893" NOx_abs="66.741030" fuel_abs="71.099122" electricity_abs="0"/>
    </tripinfo>
    <tripinfo id="carIn80064:1" depart="57603.00" departLane="128361109#1_1" departPos="5.10" departSpeed="0.00" departDelay="0.40" arrival="57792.00" arrivalLane="-315358254#1_1" arrivalPos="137.16" arrivalSpeed="12.76" duration="189.00" routeLength="1587.97" waitingTime="68.00" waitingCount="1" stopTime="0.00" timeLoss="92.11" rerouteNo="1" devices="tripinfo_carIn80064:1 routing_carIn80064:1 emissions_carIn80064:1" vType="default_016" speedFactor="0.92" vaporized="">
        <emissions CO_abs="16930.942193" CO2_abs="623529.634441" HC_abs="91.896261" PMx_abs="12.754012" NOx_abs="263.586926" fuel_abs="268.032612" electricity_abs="0"/>
    </tripinfo>
    <tripinfo id="h330c1:1" depart="57736.00" departLane="-32978638#0_1" departPos="5.10" departSpeed="0.00" departDelay="0.20" arrival="57794.00" arrivalLane="-266565295#5_1" arrivalPos="172.76" arrivalSpeed="13.16" duration="58.00" routeLength="370.53" waitingTime="23.00" waitingCount="1" stopTime="0.00" timeLoss="31.08" rerouteNo="1" devices="tripinfo_h330c1:1 routing_h330c1:1 emissions_h330c1:1" vType="default_016" speedFactor="1.01" vaporized="">
        <emissions CO_abs="4753.542793" CO2_abs="167580.373114" HC_abs="25.567796" PMx_abs="3.258028" NOx_abs="70.360379" fuel_abs="72.037048" electricity_abs="0"/>
    </tripinfo>
    <tripinfo id="carIn27009:1" depart="57673.00" departLane="-447569998#1_1" departPos="5.10" departSpeed="0.00" departDelay="0.50" arrival="57796.00" arrivalLane="-26677539_1" arrivalPos="152.75" arrivalSpeed="8.55" duration="123.00" routeLength="699.63" waitingTime="35.00" waitingCount="1" stopTime="0.00" timeLoss="49.02" rerouteNo="1" devices="tripinfo_carIn27009:1 routing_carIn27009:1 emissions_carIn27009:1" vType="default_015" speedFactor="1.14" vaporized="">
        <emissions CO_abs="8514.433908" CO2_abs="271089.258768" HC_abs="45.040217" PMx_abs="5.017275" NOx_abs="113.388432" fuel_abs="116.532934" electricity_abs="0"/>
    </tripinfo>
    <tripinfo id="S5R_frequency1.2" depart="57646.00" departLane="315358250#0_1" departPos="12.10" departSpeed="0.00" departDelay="34.40" arrival="57797.00" arrivalLane="386687235_1" arrivalPos="80.84" arrivalSpeed="13.47" duration="151.00" routeLength="1115.62" waitingTime="40.00" waitingCount="3" stopTime="0.00" timeLoss="69.42" rerouteNo="1" devices="tripinfo_S5R_frequency1.2 routing_S5R_frequency1.2 emissions_S5R_frequency1.2" vType="bus" speedFactor="1.00" vaporized="">
        <emissions CO_abs="2899.924194" CO2_abs="1553674.334039" HC_abs="632.261372" PMx_abs="305.248271" NOx_abs="12762.912790" fuel_abs="662.541996" electricity_abs="0"/>
    </tripinfo>
    <tripinfo id="h4538c1:1" depart="57701.00" departLane="-10427692#1_1" departPos="5.10" departSpeed="0.00" departDelay="0.00" arrival="57799.00" arrivalLane="-128361102#1_1" arrivalPos="274.68" arrivalSpeed="12.02" duration="98.00" routeLength="440.74" waitingTime="53.00" waitingCount="1" stopTime="0.00" timeLoss="63.16" rerouteNo="1" devices="tripinfo_h4538c1:1 routing_h4538c1:1 emissions_h4538c1:1" vType="default_016" speedFactor="0.91" vaporized="">
        <emissions CO_abs="9738.014524" CO2_abs="244177.653942" HC_abs="50.029518" PMx_abs="4.986735" NOx_abs="104.277577" fuel_abs="104.965610" electricity_abs="0"/>
    </tripinfo>
    <tripinfo id="carIn121703:1" depart="57647.00" departLane="386687232#0_1" departPos="5.10" departSpeed="0.00" departDelay="0.30" arrival="57803.00" arrivalLane="-315358244_1" arrivalPos="33.95" arrivalSpeed="13.94" duration="156.00" routeLength="1157.39" waitingTime="59.00" waitingCount="2" stopTime="0.00" timeLoss="78.05" rerouteNo="1" devices="tripinfo_carIn121703:1 routing_carIn121703:1 emissions_carIn121703:1" vType="default_016" speedFactor="1.08" vaporized="">
        <emissions CO_abs="11962.169975" CO2_abs="405808.909831" HC_abs="63.948493" PMx_abs="8.059676" NOx_abs="170.637675" fuel_abs="174.443520" electricity_abs="0"/>
    </tripinfo>
    <tripinfo id="h645c1:1" depart="57622.00" departLane="266565295#5_1" departPos="5.10" departSpeed="0.00" departDelay="0.40" arrival="57807.00" arrivalLane="-315358244_1" arrivalPos="33.95" arrivalSpeed="13.24" duration="185.00" routeLength="1910.83" waitingTime="29.00" waitingCount="1" stopTime="0.00" timeLoss="44.86" rerouteNo="1" devices="tripinfo_h645c1:1 routing_h645c1:1 emissions_h645c1:1" vType="default_016" speedFactor="0.99" vaporized="">
        <emissions CO_abs="8302.359728" CO2_abs="436369.673703" HC_abs="47.929723" PMx_abs="7.437752" NOx_abs="174.713768" fuel_abs="187.578624" electricity_abs="0"/>
    </tripinfo>
    <tripinfo id="carIn107282:1" depart="57749.00" departLane="-447569998#1_1" departPos="5.10" departSpeed="0.00" departDelay="0.00" arrival="57819.00" arrivalLane="315358242#0_1" arrivalPos="165.37" arrivalSpeed="11.22" duration="70.00" routeLength="448.50" waitingTime="13.00" waitingCount="1" stopTime="0.00" timeLoss="21.94" rerouteNo="1" devices="tripinfo_carIn107282:1 routing_carIn107282:1 emissions_carIn107282:1" vType="default_016" speedFactor="0.87" vaporized="">
        <emissions CO_abs="3652.028427" CO2_abs="135021.242291" HC_abs="19.751627" PMx_abs="2.393894" NOx_abs="55.690128" fuel_abs="58.041147" electricity_abs="0"/>
    </tripinfo>
    <tripinfo id="carIn12858:1" depart="57661.00" departLane="128361109#1_1" departPos="5.10" departSpeed="0.00" departDelay="0.90" arrival="57820.00" arrivalLane="399835085#1_1" arrivalPos="212.23" arrivalSpeed="8.07" duration="159.00" routeLength="1738.12" waitingTime="20.00" waitingCount="2" stopTime="0.00" timeLoss="51.52" rerouteNo="1" devices="tripinfo_carIn12858:1 routing_carIn12858:1 emissions_carIn12858:1" vType="default_016" speedFactor="1.07" vaporized="">
        <emissions CO_abs="10280.555580" CO2_abs="553319.659095" HC_abs="60.069365" PMx_abs="11.081517" NOx_abs="231.318216" fuel_abs="237.848322" electricity_abs="0"/>
    </tripinfo>
    <tripinfo id="randUni15030:1" depart="57735.00" departLane="386687232#0_1" departPos="5.10" departSpeed="0.00" departDelay="0.10" arrival="57820.00" arrivalLane="26677539_1" arrivalPos="151.98" arrivalSpeed="8.62" duration="85.00" routeLength="919.89" waitingTime="0.00" waitingCount="0" stopTime="0.00" timeLoss="10.57" rerouteNo="1" devices="tripinfo_randUni15030:1 routing_randUni15030:1 emissions_randUni15030:1" vType="random_016" speedFactor="1.12" vaporized="">
        <emissions CO_abs="3034.108674" CO2_abs="203147.162135" HC_abs="18.531526" PMx_abs="3.507898" NOx_abs="82.198404" fuel_abs="87.324347" electricity_abs="0"/>
    </tripinfo>
    <tripinfo id="h9953c2:3" depart="57682.00" departLane="-54169231#2_1" departPos="5.10" departSpeed="0.00" departDelay="0.00" arrival="57824.00" arrivalLane="386687235_1" arrivalPos="80.84" arrivalSpeed="13.73" duration="142.00" routeLength="1535.60" waitingTime="1.00" waitingCount="1" stopTime="0.00" timeLoss="23.98" rerouteNo="1" devices="tripinfo_h9953c2:3 routing_h9953c2:3 emissions_h9953c2:3" vType="default_016" speedFactor="1.07" vaporized="">
        <emissions CO_abs="5693.468682" CO2_abs="376547.548688" HC_abs="34.673899" PMx_abs="6.436930" NOx_abs="152.175328" fuel_abs="161.861957" electricity_abs="0"/>
    </tripinfo>
    <tripinfo id="carIn129809:1" depart="57729.00" departLane="-447569998#1_1" departPos="5.10" departSpeed="0.00" departDelay="1.00" arrival="57843.00" arrivalLane="-315358244_1" arrivalPos="33.95" arrivalSpeed="13.87" duration="114.00" routeLength="706.49" waitingTime="38.00" waitingCount="2" stopTime="0.00" timeLoss="53.82" rerouteNo="1" devices="tripinfo_carIn129809:1 routing_carIn129809:1 emissions_carIn129809:1" vType="default_015" speedFactor="1.01" vaporized="">
        <emissions CO_abs="8636.667152" CO2_abs="281552.440273" HC_abs="45.909936" PMx_abs="5.589273" NOx_abs="119.338083" fuel_abs="121.030066" electricity_abs="0"/>
    </tripinfo>
    <tripinfo id="h6541c1:3" depart="57727.00" departLane="201950247#3_1" departPos="5.10" departSpeed="0.00" departDelay="0.00" arrival="57844.00" arrivalLane="32978638#0_1" arrivalPos="49.29" arrivalSpeed="14.65" duration="117.00" routeLength="1176.17" waitingTime="6.00" waitingCount="1" stopTime="0.00" timeLoss="23.27" rerouteNo="1" devices="tripinfo_h6541c1:3 routing_h6541c1:3 emissions_h6541c1:3" vType="default_016" speedFactor="1.09" vaporized="">
        <emissions CO_abs="4478.104792" CO2_abs="300778.609341" HC_abs="27.368158" PMx_abs="5.090664" NOx_abs="120.965686" fuel_abs="129.292120" electricity_abs="0"/>
    </tripinfo>
    <tripinfo id="carIn118591:1" depart="57689.00" departLane="315358244_1" departPos="5.10" departSpeed="0.00" departDelay="0.20" arrival="57845.00" arrivalLane="386687235_1" arrivalPos="80.84" arrivalSpeed="15.00" duration="156.00" routeLength="1186.14" waitingTime="59.00" waitingCount="2" stopTime="0.00" timeLoss="76.80" rerouteNo="1" devices="tripinfo_carIn118591:1 routing_carIn118591:1 emissions_carIn118591:1" vType="default_016" speedFactor="1.09" vaporized="">
        <emissions CO_abs="11284.146646" CO2_abs="383085.114046" HC_abs="60.302006" PMx_abs="7.543179" NOx_abs="160.538715" fuel_abs="164.675432" electricity_abs="0"/>
    </tripinfo>
    <tripinfo id="carIn8642:1" depart="57774.00" departLane="-447569998#1_1" departPos="5.10" departSpeed="0.00" departDelay="0.90" arrival="57845.00" arrivalLane="-315358244_1" arrivalPos="33.95" arrivalSpeed="13.05" duration="71.00" routeLength="706.49" waitingTime="0.00" waitingCount="0" stopTime="0.00" timeLoss="12.44" rerouteNo="1" devices="tripinfo_carIn8642:1 routing_carIn8642:1 emissions_carIn8642:1" vType="default_016" speedFactor="1.03" vaporized="">
        <emissions CO_abs="2867.299129" CO2_abs="178108.986668" HC_abs="17.191481" PMx_abs="2.907324" NOx_abs="71.182160" fuel_abs="76.561919" electricity_abs="0"/>
    </tripinfo>
    <tripinfo id="carIn50326:1" depart="57651.00" departLane="128361102#0_1" departPos="5.10" departSpeed="0.00" departDelay="0.30" arrival="57850.00" arrivalLane="18809673#0_1" arrivalPos="473.56" arrivalSpeed="14.11" duration="199.00" routeLength="1591.07" waitingTime="53.00" waitingCount="1" stopTime="0.00" timeLoss="73.88" rerouteNo="1" devices="tripinfo_carIn50326:1 routing_carIn50326:1 emissions_carIn50326:1" vType="default_016" speedFactor="1.04" vaporized="">
        <emissions CO_abs="13317.668074" CO2_abs="491810.488048" HC_abs="72.020256" PMx_abs="9.277062" NOx_abs="204.298570" fuel_abs="211.412352" electricity_abs="0"/>
    </tripinfo>
    <tripinfo id="h17600c1:1" depart="57662.00" departLane="272042143_1" departPos="5.10" departSpeed="0.00" departDelay="0.30" arrival="57854.00" arrivalLane="201238729#3_1" arrivalPos="431.02" arrivalSpeed="12.83" duration="192.00" routeLength="2100.26" waitingTime="9.00" waitingCount="2" stopTime="0.00" timeLoss="30.05" rerouteNo="1" devices="tripinfo_h17600c1:1 routing_h17600c1:1 emissions_h17600c1:1" vType="default_016" speedFactor="0.94" vaporized="">
        <emissions CO_abs="5129.105541" CO2_abs="409554.914733" HC_abs="32.880406" PMx_abs="6.396362" NOx_abs="160.704951" fuel_abs="176.050559" electricity_abs="0"/>
    </tripinfo>
    <tripinfo id="h11737c1:1" depart="57665.00" departLane="272042143_1" departPos="5.10" departSpeed="0.00" departDelay="1.50" arrival="57858.00" arrivalLane="-315358254#1_1" arrivalPos="137.16" arrivalSpeed="11.52" duration="193.00" routeLength="1596.88" waitingTime="45.00" waitingCount="1" stopTime="0.00" timeLoss="63.85" rerouteNo="1" devices="tripinfo_h11737c1:1 routing_h11737c1:1 emissions_h11737c1:1" vType="default_016" speedFactor="0.90" vaporized="">
        <emissions CO_abs="11451.605864" CO2_abs="451269.573444" HC_abs="62.674896" PMx_abs="8.251331" NOx_abs="186.168089" fuel_abs="193.984936" electricity_abs="0"/>
    </tripinfo>
    <tripinfo id="carIn126288:1" depart="57674.00" departLane="272042143_1" departPos="5.10" departSpeed="0.00" departDelay="0.00" arrival="57860.00" arrivalLane="-315358254#1_1" arrivalPos="137.16" arrivalSpeed="14.17" duration="186.00" routeLength="1596.88" waitingTime="44.00" waitingCount="1" stopTime="0.00" timeLoss="72.74" rerouteNo="1" devices="tripinfo_carIn126288:1 routing_carIn126288:1 emissions_carIn126288:1" vType="default_016" speedFactor="1.03" vaporized="">
        <emissions CO_abs="11860.998652" CO2_abs="491135.913402" HC_abs="65.555088" PMx_abs="9.304726" NOx_abs="204.396803" fuel_abs="211.121096" electricity_abs="0"/>
    </tripinfo>
    <tripinfo id="h5979c1:5" depart="57669.00" departLane="399835085#1_1" departPos="5.10" departSpeed="0.00" departDelay="0.00" arrival="57863.00" arrivalLane="-315358254#1_1" arrivalPos="137.16" arrivalSpeed="12.33" duration="194.00" routeLength="659.33" waitingTime="99.00" waitingCount="1" stopTime="0.00" timeLoss="111.64" rerouteNo="1" devices="tripinfo_h5979c1:5 routing_h5979c1:5 emissions_h5979c1:5" vType="default_016" speedFactor="0.89" vaporized="">
        <emissions CO_abs="20205.850456" CO2_abs="445504.654938" HC_abs="102.367370" PMx_abs="9.517837" NOx_abs="194.497704" fuel_abs="191.512128" electricity_abs="0"/>
    </tripinfo>
    <tripinfo id="randUni31145:1" depart="57814.00" departLane="10425609#0_1" departPos="5.10" departSpeed="0.00" departDelay="0.30" arrival="57863.00" arrivalLane="201956810_1" arrivalPos="71.65" arrivalSpeed="10.25" duration="49.00" routeLength="255.78" waitingTime="11.00" waitingCount="2" stopTime="0.00" timeLoss="24.29" rerouteNo="1" devices="tripinfo_randUni31145:1 routing_randUni31145:1 emissions_randUni31145:1" vType="random_016" speedFactor="0.81" vaporized="">
        <emissions CO_abs="2837.132062" CO2_abs="111451.371349" HC_abs="15.537131" PMx_abs="2.176881" NOx_abs="47.467737" fuel_abs="47.908763" electricity_abs="0"/>
    </tripinfo>
    <tripinfo id="randUni2407:1" depart="57820.00" departLane="10425609#0_1" departPos="5.10" departSpeed="0.00" departDelay="0.80" arrival="57865.00" arrivalLane="201956810_1" arrivalPos="71.65" arrivalSpeed="11.15" duration="45.00" routeLength="255.78" waitingTime="7.00" waitingCount="2" stopTime="0.00" timeLoss="21.46" rerouteNo="1" devices="tripinfo_randUni2407:1 routing_randUni2407:1 emissions_randUni2407:1" vType="random_016" speedFactor="0.83" vaporized="">
        <emissions CO_abs="3050.739639" CO2_abs="116931.966436" HC_abs="16.627698" PMx_abs="2.240884" NOx_abs="49.542055" fuel_abs="50.264792" electricity_abs="0"/>
    </tripinfo>
    <tripinfo id="50R_frequency3.17" depart="57674.00" departLane="-18809673#6_1" departPos="12.10" departSpeed="0.00" departDelay="0.70" arrival="57866.00" arrivalLane="201956811#0_1" arrivalPos="40.40" arrivalSpeed="13.50" duration="192.00" routeLength="1954.47" waitingTime="18.00" waitingCount="2" stopTime="0.00" timeLoss="46.97" rerouteNo="1" devices="tripinfo_50R_frequency3.17 routing_50R_frequency3.17 emissions_50R_frequency3.17" vType="bus" speedFactor="1.00" vaporized="">
        <emissions CO_abs="3713.650197" CO2_abs="2265812.663007" HC_abs="785.665433" PMx_abs="396.664367" NOx_abs="17747.717911" fuel_abs="966.322449" electricity_abs="0"/>
    </tripinfo>
    <tripinfo id="h3536c1:1" depart="57767.00" departLane="-24634413#2_1" departPos="5.10" departSpeed="0.00" departDelay="0.00" arrival="57872.00" arrivalLane="32978638#0_2" arrivalPos="49.29" arrivalSpeed="16.53" duration="105.00" routeLength="957.93" waitingTime="4.00" waitingCount="2" stopTime="0.00" timeLoss="30.42" rerouteNo="1" devices="tripinfo_h3536c1:1 routing_h3536c1:1 emissions_h3536c1:1" vType="default_016" speedFactor="1.22" vaporized="">
        <emissions CO_abs="5564.558753" CO2_abs="316639.591295" HC_abs="32.790322" PMx_abs="5.843560" NOx_abs="131.594990" fuel_abs="136.109973" electricity_abs="0"/>
    </tripinfo>
    <tripinfo id="carIn73855:1" depart="57743.00" departLane="386687232#0_1" departPos="5.10" departSpeed="0.00" departDelay="0.50" arrival="57873.00" arrivalLane="-315358244_1" arrivalPos="33.95" arrivalSpeed="15.27" duration="130.00" routeLength="1157.39" waitingTime="34.00" waitingCount="2" stopTime="0.00" timeLoss="56.03" rerouteNo="1" devices="tripinfo_carIn73855:1 routing_carIn73855:1 emissions_carIn73855:1" vType="default_016" speedFactor="1.14" vaporized="">
        <emissions CO_abs="8794.080617" CO2_abs="389572.716077" HC_abs="49.134037" PMx_abs="7.455165" NOx_abs="161.422370" fuel_abs="167.462310" electricity_abs="0"/>
    </tripinfo>
    <tripinfo id="carIn126378:1" depart="57746.00" departLane="386687232#0_1" departPos="5.10" departSpeed="0.00" departDelay="1.80" arrival="57873.00" arrivalLane="-315358244_2" arrivalPos="33.95" arrivalSpeed="12.74" duration="127.00" routeLength="1157.39" waitingTime="23.00" waitingCount="2" stopTime="0.00" timeLoss="43.70" rerouteNo="1" devices="tripinfo_carIn126378:1 routing_carIn126378:1 emissions_carIn126378:1" vType="default_016" speedFactor="1.01" vaporized="">
        <emissions CO_abs="6914.403793" CO2_abs="317379.080469" HC_abs="38.884865" PMx_abs="5.794863" NOx_abs="130.391751" fuel_abs="136.429196" electricity_abs="0"/>
    </tripinfo>