<?xml version="1.0" encoding="UTF-8"?>

<!-- generated on 2021-10-26 13:59:25 by Eclipse SUMO sumo Version 1.10.0
<configuration xmlns:xsi="http://www.w3.org/2001/XMLSchema-instance" xsi:noNamespaceSchemaLocation="http://sumo.dlr.de/xsd/sumoConfiguration.xsd">

    <input>
        <net-file value="/Users/behradkoohy/sumo-scratchpad/RESCO/environments/ingolstadt21/ingolstadt21.net.xml"/>
        <route-files value="/Users/behradkoohy/sumo-scratchpad/RESCO/environments/ingolstadt21/ingolstadt21.rou.xml"/>
    </input>

    <output>
        <tripinfo-output value="/Users/behradkoohy/sumo-scratchpad/RESCO/logs/STOCHASTIC-tr0-ingolstadt21-21-mplight-wait/tripinfo_9.xml"/>
        <tripinfo-output.write-unfinished value="true"/>
    </output>

    <time>
        <begin value="57600"/>
        <end value="61200"/>
    </time>

    <processing>
        <time-to-teleport value="-1"/>
    </processing>

    <report>
        <no-warnings value="true"/>
        <no-step-log value="true"/>
    </report>

    <emissions>
        <device.emissions.probability value="1"/>
    </emissions>

    <traci_server>
        <remote-port value="59931"/>
    </traci_server>

    <random_number>
        <random value="true"/>
    </random_number>

</configuration>
-->

<tripinfos xmlns:xsi="http://www.w3.org/2001/XMLSchema-instance" xsi:noNamespaceSchemaLocation="http://sumo.dlr.de/xsd/tripinfo_file.xsd">
    <tripinfo id="h15454c2:3" depart="57612.00" departLane="24608844_1" departPos="5.10" departSpeed="0.00" departDelay="0.50" arrival="57667.00" arrivalLane="32978638#0_1" arrivalPos="49.29" arrivalSpeed="14.58" duration="55.00" routeLength="354.79" waitingTime="11.00" waitingCount="1" stopTime="0.00" timeLoss="23.40" rerouteNo="1" devices="tripinfo_h15454c2:3 routing_h15454c2:3 emissions_h15454c2:3" vType="default_016" speedFactor="1.08" vaporized="">
        <emissions CO_abs="3228.899465" CO2_abs="130119.218815" HC_abs="17.749946" PMx_abs="2.459845" NOx_abs="54.655637" fuel_abs="55.933448" electricity_abs="0"/>
    </tripinfo>
    <tripinfo id="carIn53971:1" depart="57640.00" departLane="272042143_1" departPos="5.10" departSpeed="0.00" departDelay="0.80" arrival="57699.00" arrivalLane="24634414#1_1" arrivalPos="162.19" arrivalSpeed="6.58" duration="59.00" routeLength="493.04" waitingTime="0.00" waitingCount="0" stopTime="0.00" timeLoss="9.42" rerouteNo="1" devices="tripinfo_carIn53971:1 routing_carIn53971:1 emissions_carIn53971:1" vType="default_016" speedFactor="0.92" vaporized="">
        <emissions CO_abs="2464.434746" CO2_abs="128915.729428" HC_abs="14.217151" PMx_abs="2.203714" NOx_abs="52.712885" fuel_abs="55.415833" electricity_abs="0"/>
    </tripinfo>
    <tripinfo id="carIn60260:1" depart="57606.00" departLane="315358254#0_1" departPos="5.10" departSpeed="0.00" departDelay="0.90" arrival="57714.00" arrivalLane="399835085#1_1" arrivalPos="212.23" arrivalSpeed="8.04" duration="108.00" routeLength="430.98" waitingTime="49.00" waitingCount="1" stopTime="0.00" timeLoss="61.33" rerouteNo="1" devices="tripinfo_carIn60260:1 routing_carIn60260:1 emissions_carIn60260:1" vType="default_016" speedFactor="0.98" vaporized="">
        <emissions CO_abs="9703.657554" CO2_abs="234622.897202" HC_abs="49.649815" PMx_abs="4.899664" NOx_abs="101.620093" fuel_abs="100.858325" electricity_abs="0"/>
    </tripinfo>
    <tripinfo id="h3688c1:1" depart="57625.00" departLane="201201950#1_1" departPos="5.10" departSpeed="0.00" departDelay="0.00" arrival="57721.00" arrivalLane="32978638#0_1" arrivalPos="49.29" arrivalSpeed="13.73" duration="96.00" routeLength="1089.75" waitingTime="1.00" waitingCount="1" stopTime="0.00" timeLoss="17.92" rerouteNo="1" devices="tripinfo_h3688c1:1 routing_h3688c1:1 emissions_h3688c1:1" vType="default_016" speedFactor="1.03" vaporized="">
        <emissions CO_abs="3622.846867" CO2_abs="261615.074701" HC_abs="22.620657" PMx_abs="4.415975" NOx_abs="104.870054" fuel_abs="112.457179" electricity_abs="0"/>
    </tripinfo>
    <tripinfo id="h12244c1:3" depart="57612.00" departLane="315358244_1" departPos="5.10" departSpeed="0.00" departDelay="0.40" arrival="57723.00" arrivalLane="386687235_1" arrivalPos="80.84" arrivalSpeed="15.33" duration="111.00" routeLength="1186.14" waitingTime="13.00" waitingCount="2" stopTime="0.00" timeLoss="36.68" rerouteNo="1" devices="tripinfo_h12244c1:3 routing_h12244c1:3 emissions_h12244c1:3" vType="default_016" speedFactor="1.17" vaporized="">
        <emissions CO_abs="4582.005819" CO2_abs="298034.641344" HC_abs="27.793366" PMx_abs="5.387400" NOx_abs="121.232518" fuel_abs="128.112280" electricity_abs="0"/>
    </tripinfo>
    <tripinfo id="carIn22761:1" depart="57616.00" departLane="-306240162#1_0" departPos="5.10" departSpeed="0.00" departDelay="2.10" arrival="57723.00" arrivalLane="399835085#1_1" arrivalPos="212.23" arrivalSpeed="7.73" duration="107.00" routeLength="1093.26" waitingTime="5.00" waitingCount="1" stopTime="0.00" timeLoss="31.76" rerouteNo="1" devices="tripinfo_carIn22761:1 routing_carIn22761:1 emissions_carIn22761:1" vType="default_016" speedFactor="1.05" vaporized="">
        <emissions CO_abs="5772.728971" CO2_abs="339282.039283" HC_abs="34.366272" PMx_abs="6.533951" NOx_abs="141.257946" fuel_abs="145.842585" electricity_abs="0"/>
    </tripinfo>
    <tripinfo id="S5R_frequency1.2" depart="57624.00" departLane="315358250#0_1" departPos="12.10" departSpeed="0.00" departDelay="12.40" arrival="57733.00" arrivalLane="386687235_1" arrivalPos="80.84" arrivalSpeed="13.59" duration="109.00" routeLength="1115.62" waitingTime="1.00" waitingCount="1" stopTime="0.00" timeLoss="27.47" rerouteNo="1" devices="tripinfo_S5R_frequency1.2 routing_S5R_frequency1.2 emissions_S5R_frequency1.2" vType="bus" speedFactor="1.00" vaporized="">
        <emissions CO_abs="2375.483621" CO2_abs="1461557.139811" HC_abs="495.496598" PMx_abs="253.599939" NOx_abs="11422.008103" fuel_abs="623.321536" electricity_abs="0"/>
    </tripinfo>
    <tripinfo id="h317c2:1" depart="57707.00" departLane="-32978638#0_1" departPos="5.10" departSpeed="0.00" departDelay="0.10" arrival="57738.00" arrivalLane="-266565295#5_1" arrivalPos="172.76" arrivalSpeed="14.59" duration="31.00" routeLength="370.53" waitingTime="0.00" waitingCount="0" stopTime="0.00" timeLoss="5.99" rerouteNo="1" devices="tripinfo_h317c2:1 routing_h317c2:1 emissions_h317c2:1" vType="default_016" speedFactor="1.11" vaporized="">
        <emissions CO_abs="1645.902405" CO2_abs="106465.146255" HC_abs="10.023634" PMx_abs="2.002064" NOx_abs="44.163248" fuel_abs="45.764650" electricity_abs="0"/>
    </tripinfo>
    <tripinfo id="carIn30817:1" depart="57681.00" departLane="315358244_1" departPos="5.10" departSpeed="0.00" departDelay="0.20" arrival="57742.00" arrivalLane="447569997#1_1" arrivalPos="180.93" arrivalSpeed="9.35" duration="61.00" routeLength="718.04" waitingTime="0.00" waitingCount="0" stopTime="0.00" timeLoss="8.24" rerouteNo="1" devices="tripinfo_carIn30817:1 routing_carIn30817:1 emissions_carIn30817:1" vType="default_016" speedFactor="1.18" vaporized="">
        <emissions CO_abs="2016.072205" CO2_abs="148098.263690" HC_abs="12.536135" PMx_abs="2.426698" NOx_abs="58.592755" fuel_abs="63.661230" electricity_abs="0"/>
    </tripinfo>
    <tripinfo id="h7800c1:5" depart="57696.00" departLane="-447569998#1_1" departPos="5.10" departSpeed="0.00" departDelay="0.00" arrival="57745.00" arrivalLane="-447569998#1_2" arrivalPos="180.76" arrivalSpeed="3.87" duration="49.00" routeLength="175.66" waitingTime="20.00" waitingCount="1" stopTime="0.00" timeLoss="27.90" rerouteNo="1" devices="tripinfo_h7800c1:5 routing_h7800c1:5 emissions_h7800c1:5" vType="default_016" speedFactor="1.01" vaporized="">
        <emissions CO_abs="4486.819201" CO2_abs="103523.865366" HC_abs="22.852418" PMx_abs="2.258690" NOx_abs="45.576901" fuel_abs="44.502253" electricity_abs="0"/>
    </tripinfo>
    <tripinfo id="h7181c1:1" depart="57660.00" departLane="315358254#0_1" departPos="5.10" departSpeed="0.00" departDelay="0.10" arrival="57770.00" arrivalLane="306240162#0_0" arrivalPos="220.43" arrivalSpeed="16.16" duration="110.00" routeLength="932.35" waitingTime="41.00" waitingCount="1" stopTime="0.00" timeLoss="58.24" rerouteNo="1" devices="tripinfo_h7181c1:1 routing_h7181c1:1 emissions_h7181c1:1" vType="default_016" speedFactor="0.99" vaporized="">
        <emissions CO_abs="9603.834378" CO2_abs="343327.979159" HC_abs="51.895208" PMx_abs="7.181069" NOx_abs="145.679745" fuel_abs="147.584202" electricity_abs="0"/>
    </tripinfo>
    <tripinfo id="h3326c1:2" depart="57656.00" departLane="22716069#0_1" departPos="5.10" departSpeed="0.00" departDelay="0.00" arrival="57771.00" arrivalLane="24634517#13_1" arrivalPos="111.62" arrivalSpeed="13.26" duration="115.00" routeLength="1312.81" waitingTime="0.00" waitingCount="0" stopTime="0.00" timeLoss="15.66" rerouteNo="1" devices="tripinfo_h3326c1:2 routing_h3326c1:2 emissions_h3326c1:2" vType="default_016" speedFactor="0.98" vaporized="">
        <emissions CO_abs="4042.376528" CO2_abs="294519.658953" HC_abs="25.299403" PMx_abs="5.018503" NOx_abs="118.650672" fuel_abs="126.601325" electricity_abs="0"/>
    </tripinfo>
    <tripinfo id="carIn80064:1" depart="57603.00" departLane="128361109#1_1" departPos="5.10" departSpeed="0.00" departDelay="0.40" arrival="57772.00" arrivalLane="-315358254#1_1" arrivalPos="137.16" arrivalSpeed="13.22" duration="169.00" routeLength="1587.97" waitingTime="34.00" waitingCount="4" stopTime="0.00" timeLoss="80.23" rerouteNo="1" devices="tripinfo_carIn80064:1 routing_carIn80064:1 emissions_carIn80064:1" vType="default_016" speedFactor="1.00" vaporized="">
        <emissions CO_abs="10490.143243" CO2_abs="534937.968963" HC_abs="60.546547" PMx_abs="10.686961" NOx_abs="223.625679" fuel_abs="229.947316" electricity_abs="0"/>
    </tripinfo>
    <tripinfo id="h9563c2:5" depart="57631.00" departLane="315358244_1" departPos="5.10" departSpeed="0.00" departDelay="0.70" arrival="57783.00" arrivalLane="386687235_1" arrivalPos="80.84" arrivalSpeed="16.37" duration="152.00" routeLength="1186.14" waitingTime="61.00" waitingCount="2" stopTime="0.00" timeLoss="79.66" rerouteNo="1" devices="tripinfo_h9563c2:5 routing_h9563c2:5 emissions_h9563c2:5" vType="default_016" speedFactor="1.20" vaporized="">
        <emissions CO_abs="11922.587094" CO2_abs="400192.137104" HC_abs="63.495113" PMx_abs="7.992753" NOx_abs="167.726287" fuel_abs="172.029157" electricity_abs="0"/>
    </tripinfo>
    <tripinfo id="h3154c1:1" depart="57658.00" departLane="24634507_1" departPos="5.10" departSpeed="0.00" departDelay="0.00" arrival="57783.00" arrivalLane="-266565295#5_1" arrivalPos="172.76" arrivalSpeed="12.22" duration="125.00" routeLength="1206.22" waitingTime="9.00" waitingCount="2" stopTime="0.00" timeLoss="28.74" rerouteNo="1" devices="tripinfo_h3154c1:1 routing_h3154c1:1 emissions_h3154c1:1" vType="default_016" speedFactor="0.92" vaporized="">
        <emissions CO_abs="4527.346679" CO2_abs="296282.251848" HC_abs="27.532447" PMx_abs="4.962796" NOx_abs="119.300137" fuel_abs="127.359465" electricity_abs="0"/>
    </tripinfo>
    <tripinfo id="h4538c1:1" depart="57701.00" departLane="-10427692#1_1" departPos="5.10" departSpeed="0.00" departDelay="0.00" arrival="57784.00" arrivalLane="-128361102#1_1" arrivalPos="274.68" arrivalSpeed="14.72" duration="83.00" routeLength="440.74" waitingTime="42.00" waitingCount="1" stopTime="0.00" timeLoss="53.41" rerouteNo="1" devices="tripinfo_h4538c1:1 routing_h4538c1:1 emissions_h4538c1:1" vType="default_016" speedFactor="1.09" vaporized="">
        <emissions CO_abs="8115.678244" CO2_abs="220194.472541" HC_abs="42.106265" PMx_abs="4.575733" NOx_abs="94.150423" fuel_abs="94.655213" electricity_abs="0"/>
    </tripinfo>
    <tripinfo id="carIn12365:1" depart="57713.00" departLane="315358244_1" departPos="5.10" departSpeed="0.00" departDelay="0.50" arrival="57790.00" arrivalLane="447569997#1_1" arrivalPos="180.93" arrivalSpeed="7.37" duration="77.00" routeLength="718.04" waitingTime="0.00" waitingCount="0" stopTime="0.00" timeLoss="12.19" rerouteNo="1" devices="tripinfo_carIn12365:1 routing_carIn12365:1 emissions_carIn12365:1" vType="default_016" speedFactor="0.95" vaporized="">
        <emissions CO_abs="2689.345826" CO2_abs="160525.953813" HC_abs="15.965539" PMx_abs="2.635000" NOx_abs="64.440415" fuel_abs="69.003724" electricity_abs="0"/>
    </tripinfo>
    <tripinfo id="carIn107282:1" depart="57749.00" departLane="-447569998#1_1" departPos="5.10" departSpeed="0.00" departDelay="0.00" arrival="57793.00" arrivalLane="315358242#0_1" arrivalPos="165.37" arrivalSpeed="14.88" duration="44.00" routeLength="448.50" waitingTime="0.00" waitingCount="0" stopTime="0.00" timeLoss="5.75" rerouteNo="1" devices="tripinfo_carIn107282:1 routing_carIn107282:1 emissions_carIn107282:1" vType="default_016" speedFactor="1.10" vaporized="">
        <emissions CO_abs="1903.216443" CO2_abs="118824.292764" HC_abs="11.439617" PMx_abs="1.998151" NOx_abs="47.872698" fuel_abs="51.077706" electricity_abs="0"/>
    </tripinfo>
    <tripinfo id="carIn86816:1" depart="57617.00" departLane="128361102#0_1" departPos="5.10" departSpeed="0.00" departDelay="0.80" arrival="57797.00" arrivalLane="201956811#0_1" arrivalPos="40.40" arrivalSpeed="14.02" duration="180.00" routeLength="2067.33" waitingTime="11.00" waitingCount="1" stopTime="0.00" timeLoss="34.41" rerouteNo="1" devices="tripinfo_carIn86816:1 routing_carIn86816:1 emissions_carIn86816:1" vType="default_016" speedFactor="1.04" vaporized="">
        <emissions CO_abs="5904.529970" CO2_abs="427535.312751" HC_abs="36.857484" PMx_abs="7.229748" NOx_abs="170.826977" fuel_abs="183.779247" electricity_abs="0"/>
    </tripinfo>
    <tripinfo id="h330c1:1" depart="57736.00" departLane="-32978638#0_1" departPos="5.10" departSpeed="0.00" departDelay="0.20" arrival="57797.00" arrivalLane="-266565295#5_1" arrivalPos="172.76" arrivalSpeed="12.10" duration="61.00" routeLength="370.53" waitingTime="23.00" waitingCount="1" stopTime="0.00" timeLoss="30.51" rerouteNo="1" devices="tripinfo_h330c1:1 routing_h330c1:1 emissions_h330c1:1" vType="default_016" speedFactor="0.91" vaporized="">
        <emissions CO_abs="4822.061103" CO2_abs="154244.554543" HC_abs="25.572568" PMx_abs="3.069495" NOx_abs="65.517785" fuel_abs="66.304683" electricity_abs="0"/>
    </tripinfo>
    <tripinfo id="h645c1:1" depart="57622.00" departLane="266565295#5_1" departPos="5.10" departSpeed="0.00" departDelay="0.40" arrival="57801.00" arrivalLane="-315358244_1" arrivalPos="33.95" arrivalSpeed="15.58" duration="179.00" routeLength="1910.83" waitingTime="37.00" waitingCount="2" stopTime="0.00" timeLoss="60.08" rerouteNo="1" devices="tripinfo_h645c1:1 routing_h645c1:1 emissions_h645c1:1" vType="default_016" speedFactor="1.17" vaporized="">
        <emissions CO_abs="9362.931917" CO2_abs="483604.884151" HC_abs="53.758103" PMx_abs="8.767644" NOx_abs="195.496300" fuel_abs="207.882688" electricity_abs="0"/>
    </tripinfo>
    <tripinfo id="h5979c1:5" depart="57669.00" departLane="399835085#1_1" departPos="5.10" departSpeed="0.00" departDelay="0.00" arrival="57801.00" arrivalLane="-315358254#1_1" arrivalPos="137.16" arrivalSpeed="13.85" duration="132.00" routeLength="659.33" waitingTime="44.00" waitingCount="1" stopTime="0.00" timeLoss="64.41" rerouteNo="1" devices="tripinfo_h5979c1:5 routing_h5979c1:5 emissions_h5979c1:5" vType="default_016" speedFactor="1.08" vaporized="">
        <emissions CO_abs="10012.806610" CO2_abs="289474.188270" HC_abs="52.327455" PMx_abs="5.695882" NOx_abs="123.126230" fuel_abs="124.436335" electricity_abs="0"/>
    </tripinfo>
    <tripinfo id="carIn48184:1" depart="57613.00" departLane="-306240162#1_0" departPos="5.10" departSpeed="0.00" departDelay="0.70" arrival="57806.00" arrivalLane="386687235_1" arrivalPos="80.84" arrivalSpeed="13.34" duration="193.00" routeLength="2257.41" waitingTime="12.00" waitingCount="2" stopTime="0.00" timeLoss="40.34" rerouteNo="1" devices="tripinfo_carIn48184:1 routing_carIn48184:1 emissions_carIn48184:1" vType="default_016" speedFactor="0.97" vaporized="">
        <emissions CO_abs="7921.570623" CO2_abs="526226.317645" HC_abs="48.440907" PMx_abs="9.385598" NOx_abs="213.248935" fuel_abs="226.202148" electricity_abs="0"/>
    </tripinfo>
    <tripinfo id="carIn82220:1" depart="57619.00" departLane="-306240162#1_0" departPos="5.10" departSpeed="0.00" departDelay="3.50" arrival="57806.00" arrivalLane="386687235_2" arrivalPos="80.84" arrivalSpeed="13.62" duration="187.00" routeLength="2257.41" waitingTime="8.00" waitingCount="1" stopTime="0.00" timeLoss="38.49" rerouteNo="1" devices="tripinfo_carIn82220:1 routing_carIn82220:1 emissions_carIn82220:1" vType="default_016" speedFactor="1.00" vaporized="">
        <emissions CO_abs="7294.246990" CO2_abs="531586.211452" HC_abs="45.553712" PMx_abs="9.055931" NOx_abs="211.477722" fuel_abs="228.506284" electricity_abs="0"/>
    </tripinfo>
    <tripinfo id="h3568c1:3" depart="57656.00" departLane="266565295#5_1" departPos="5.10" departSpeed="0.00" departDelay="0.80" arrival="57806.00" arrivalLane="-24634415_1" arrivalPos="62.03" arrivalSpeed="13.54" duration="150.00" routeLength="807.40" waitingTime="67.00" waitingCount="1" stopTime="0.00" timeLoss="85.76" rerouteNo="1" devices="tripinfo_h3568c1:3 routing_h3568c1:3 emissions_h3568c1:3" vType="default_016" speedFactor="1.01" vaporized="">
        <emissions CO_abs="14212.983180" CO2_abs="408024.624262" HC_abs="74.295120" PMx_abs="8.400490" NOx_abs="174.886563" fuel_abs="175.397266" electricity_abs="0"/>
    </tripinfo>
    <tripinfo id="carIn27009:1" depart="57673.00" departLane="-447569998#1_1" departPos="5.10" departSpeed="0.00" departDelay="0.50" arrival="57812.00" arrivalLane="-26677539_1" arrivalPos="152.75" arrivalSpeed="8.43" duration="139.00" routeLength="699.63" waitingTime="43.00" waitingCount="1" stopTime="0.00" timeLoss="56.75" rerouteNo="1" devices="tripinfo_carIn27009:1 routing_carIn27009:1 emissions_carIn27009:1" vType="default_015" speedFactor="1.02" vaporized="">
        <emissions CO_abs="9736.833033" CO2_abs="273671.410000" HC_abs="50.669969" PMx_abs="5.281705" NOx_abs="116.069677" fuel_abs="117.643546" electricity_abs="0"/>
    </tripinfo>
    <tripinfo id="carIn129809:1" depart="57729.00" departLane="-447569998#1_1" departPos="5.10" departSpeed="0.00" departDelay="1.00" arrival="57813.00" arrivalLane="-315358244_1" arrivalPos="33.95" arrivalSpeed="15.20" duration="84.00" routeLength="706.49" waitingTime="18.00" waitingCount="1" stopTime="0.00" timeLoss="30.10" rerouteNo="1" devices="tripinfo_carIn129809:1 routing_carIn129809:1 emissions_carIn129809:1" vType="default_015" speedFactor="1.13" vaporized="">
        <emissions CO_abs="4163.507459" CO2_abs="192062.141706" HC_abs="23.381911" PMx_abs="3.412890" NOx_abs="78.041822" fuel_abs="82.560355" electricity_abs="0"/>
    </tripinfo>
    <tripinfo id="carIn102915:1" depart="57643.00" departLane="128361102#0_1" departPos="5.10" departSpeed="0.00" departDelay="0.40" arrival="57823.00" arrivalLane="201956811#0_1" arrivalPos="40.40" arrivalSpeed="11.99" duration="180.00" routeLength="2067.33" waitingTime="0.00" waitingCount="0" stopTime="0.00" timeLoss="17.12" rerouteNo="1" devices="tripinfo_carIn102915:1 routing_carIn102915:1 emissions_carIn102915:1" vType="default_016" speedFactor="0.93" vaporized="">
        <emissions CO_abs="4653.175433" CO2_abs="399415.393575" HC_abs="30.426520" PMx_abs="5.907057" NOx_abs="154.438728" fuel_abs="171.692224" electricity_abs="0"/>
    </tripinfo>
    <tripinfo id="carIn118591:1" depart="57689.00" departLane="315358244_1" departPos="5.10" departSpeed="0.00" departDelay="0.20" arrival="57823.00" arrivalLane="386687235_1" arrivalPos="80.84" arrivalSpeed="14.50" duration="134.00" routeLength="1186.14" waitingTime="32.00" waitingCount="2" stopTime="0.00" timeLoss="51.62" rerouteNo="1" devices="tripinfo_carIn118591:1 routing_carIn118591:1 emissions_carIn118591:1" vType="default_016" speedFactor="1.05" vaporized="">
        <emissions CO_abs="7581.371216" CO2_abs="334213.906117" HC_abs="42.297745" PMx_abs="6.067814" NOx_abs="136.514787" fuel_abs="143.666215" electricity_abs="0"/>
    </tripinfo>
    <tripinfo id="randUni33724:1" depart="57646.00" departLane="128361102#0_1" departPos="5.10" departSpeed="0.00" departDelay="1.20" arrival="57825.00" arrivalLane="201956811#0_1" arrivalPos="40.40" arrivalSpeed="12.44" duration="179.00" routeLength="2067.33" waitingTime="0.00" waitingCount="0" stopTime="0.00" timeLoss="25.00" rerouteNo="1" devices="tripinfo_randUni33724:1 routing_randUni33724:1 emissions_randUni33724:1" vType="random_016" speedFactor="0.98" vaporized="">
        <emissions CO_abs="5407.510209" CO2_abs="420461.681259" HC_abs="34.430857" PMx_abs="6.766241" NOx_abs="166.496023" fuel_abs="180.738715" electricity_abs="0"/>
    </tripinfo>
    <tripinfo id="carIn12858:1" depart="57661.00" departLane="128361109#1_1" departPos="5.10" departSpeed="0.00" departDelay="0.90" arrival="57833.00" arrivalLane="399835085#1_1" arrivalPos="212.23" arrivalSpeed="8.12" duration="172.00" routeLength="1738.12" waitingTime="24.00" waitingCount="3" stopTime="0.00" timeLoss="58.87" rerouteNo="1" devices="tripinfo_carIn12858:1 routing_carIn12858:1 emissions_carIn12858:1" vType="default_016" speedFactor="1.01" vaporized="">
        <emissions CO_abs="9912.099351" CO2_abs="536940.042370" HC_abs="57.886779" PMx_abs="10.313732" NOx_abs="221.408535" fuel_abs="230.808063" electricity_abs="0"/>
    </tripinfo>
    <tripinfo id="h825c2:3" depart="57690.00" departLane="315358254#0_1" departPos="5.10" departSpeed="0.00" departDelay="0.50" arrival="57844.00" arrivalLane="32978638#0_1" arrivalPos="49.29" arrivalSpeed="16.39" duration="154.00" routeLength="2207.01" waitingTime="1.00" waitingCount="1" stopTime="0.00" timeLoss="19.86" rerouteNo="1" devices="tripinfo_h825c2:3 routing_h825c2:3 emissions_h825c2:3" vType="default_016" speedFactor="1.20" vaporized="">
        <emissions CO_abs="4524.031488" CO2_abs="428538.366954" HC_abs="30.437045" PMx_abs="7.126340" NOx_abs="167.385124" fuel_abs="184.209685" electricity_abs="0"/>
    </tripinfo>
    <tripinfo id="randUni31145:1" depart="57814.00" departLane="10425609#0_1" departPos="5.10" departSpeed="0.00" departDelay="0.30" arrival="57853.00" arrivalLane="201956810_1" arrivalPos="71.65" arrivalSpeed="14.95" duration="39.00" routeLength="255.78" waitingTime="11.00" waitingCount="1" stopTime="0.00" timeLoss="20.57" rerouteNo="1" devices="tripinfo_randUni31145:1 routing_randUni31145:1 emissions_randUni31145:1" vType="random_016" speedFactor="1.08" vaporized="">
        <emissions CO_abs="3105.336739" CO2_abs="133216.557752" HC_abs="17.299880" PMx_abs="2.676448" NOx_abs="56.751686" fuel_abs="57.264490" electricity_abs="0"/>
    </tripinfo>
    <tripinfo id="carIn28951:1" depart="57606.00" departLane="10425609#0_1" departPos="5.10" departSpeed="0.00" departDelay="0.20" arrival="57854.00" arrivalLane="-128361102#1_1" arrivalPos="274.68" arrivalSpeed="13.85" duration="248.00" routeLength="2113.04" waitingTime="70.00" waitingCount="3" stopTime="0.00" timeLoss="104.16" rerouteNo="1" devices="tripinfo_carIn28951:1 routing_carIn28951:1 emissions_carIn28951:1" vType="default_016" speedFactor="1.08" vaporized="">
        <emissions CO_abs="16405.004156" CO2_abs="639707.666885" HC_abs="89.639971" PMx_abs="12.263211" NOx_abs="266.061257" fuel_abs="274.987269" electricity_abs="0"/>
    </tripinfo>
    <tripinfo id="h16072c2:3" depart="57663.00" departLane="315358254#0_1" departPos="5.10" departSpeed="0.00" departDelay="2.50" arrival="57854.00" arrivalLane="386687235_1" arrivalPos="80.84" arrivalSpeed="11.89" duration="191.00" routeLength="1611.92" waitingTime="41.00" waitingCount="3" stopTime="0.00" timeLoss="66.00" rerouteNo="1" devices="tripinfo_h16072c2:3 routing_h16072c2:3 emissions_h16072c2:3" vType="default_016" speedFactor="0.94" vaporized="">
        <emissions CO_abs="10551.678912" CO2_abs="441280.044170" HC_abs="58.367051" PMx_abs="8.113169" NOx_abs="182.165257" fuel_abs="189.690183" electricity_abs="0"/>
    </tripinfo>
    <tripinfo id="50R_frequency3.17" depart="57674.00" departLane="-18809673#6_1" departPos="12.10" departSpeed="0.00" departDelay="0.70" arrival="57855.00" arrivalLane="201956811#0_1" arrivalPos="40.40" arrivalSpeed="11.85" duration="181.00" routeLength="1954.47" waitingTime="8.00" waitingCount="1" stopTime="0.00" timeLoss="35.90" rerouteNo="1" devices="tripinfo_50R_frequency3.17 routing_50R_frequency3.17 emissions_50R_frequency3.17" vType="bus" speedFactor="1.00" vaporized="">
        <emissions CO_abs="3463.188839" CO2_abs="2135876.924099" HC_abs="735.515592" PMx_abs="370.699757" NOx_abs="16661.029077" fuel_abs="910.919860" electricity_abs="0"/>
    </tripinfo>
    <tripinfo id="randUni2407:1" depart="57820.00" departLane="10425609#0_1" departPos="5.10" departSpeed="0.00" departDelay="0.80" arrival="57856.00" arrivalLane="201956810_1" arrivalPos="71.65" arrivalSpeed="15.84" duration="36.00" routeLength="255.78" waitingTime="6.00" waitingCount="1" stopTime="0.00" timeLoss="17.80" rerouteNo="1" devices="tripinfo_randUni2407:1 routing_randUni2407:1 emissions_randUni2407:1" vType="random_016" speedFactor="1.15" vaporized="">
        <emissions CO_abs="2889.068604" CO2_abs="134898.730059" HC_abs="16.357677" PMx_abs="2.682602" NOx_abs="57.276985" fuel_abs="57.987414" electricity_abs="0"/>
    </tripinfo>
    <tripinfo id="h11737c1:1" depart="57665.00" departLane="272042143_1" departPos="5.10" departSpeed="0.00" departDelay="1.50" arrival="57858.00" arrivalLane="-315358254#1_1" arrivalPos="137.16" arrivalSpeed="12.41" duration="193.00" routeLength="1596.88" waitingTime="48.00" waitingCount="2" stopTime="0.00" timeLoss="67.72" rerouteNo="1" devices="tripinfo_h11737c1:1 routing_h11737c1:1 emissions_h11737c1:1" vType="default_016" speedFactor="0.94" vaporized="">
        <emissions CO_abs="10255.277253" CO2_abs="425928.476113" HC_abs="56.633786" PMx_abs="7.652169" NOx_abs="174.375431" fuel_abs="183.091470" electricity_abs="0"/>
    </tripinfo>
    <tripinfo id="carIn107084:1" depart="57601.00" departLane="124812856#0_1" departPos="5.10" departSpeed="0.00" departDelay="0.70" arrival="57859.00" arrivalLane="-128361102#1_1" arrivalPos="274.68" arrivalSpeed="12.45" duration="258.00" routeLength="2250.49" waitingTime="54.00" waitingCount="3" stopTime="0.00" timeLoss="85.64" rerouteNo="1" devices="tripinfo_carIn107084:1 routing_carIn107084:1 emissions_carIn107084:1" vType="default_016" speedFactor="0.95" vaporized="">
        <emissions CO_abs="13514.559771" CO2_abs="625530.245324" HC_abs="76.140938" PMx_abs="11.156582" NOx_abs="255.534861" fuel_abs="268.891957" electricity_abs="0"/>
    </tripinfo>
    <tripinfo id="h17600c1:1" depart="57662.00" departLane="272042143_1" departPos="5.10" departSpeed="0.00" departDelay="0.30" arrival="57859.00" arrivalLane="201238729#3_1" arrivalPos="431.02" arrivalSpeed="14.40" duration="197.00" routeLength="2100.26" waitingTime="34.00" waitingCount="2" stopTime="0.00" timeLoss="56.62" rerouteNo="1" devices="tripinfo_h17600c1:1 routing_h17600c1:1 emissions_h17600c1:1" vType="default_016" speedFactor="1.08" vaporized="">
        <emissions CO_abs="8916.868248" CO2_abs="480806.943465" HC_abs="51.810942" PMx_abs="8.544911" NOx_abs="194.354528" fuel_abs="206.679811" electricity_abs="0"/>
    </tripinfo>
    <tripinfo id="carIn126288:1" depart="57674.00" departLane="272042143_1" departPos="5.10" departSpeed="0.00" departDelay="0.00" arrival="57860.00" arrivalLane="-315358254#1_1" arrivalPos="137.16" arrivalSpeed="13.15" duration="186.00" routeLength="1596.88" waitingTime="41.00" waitingCount="2" stopTime="0.00" timeLoss="63.39" rerouteNo="1" devices="tripinfo_carIn126288:1 routing_carIn126288:1 emissions_carIn126288:1" vType="default_016" speedFactor="0.95" vaporized="">
        <emissions CO_abs="9838.012255" CO2_abs="426468.973430" HC_abs="54.775874" PMx_abs="7.753299" NOx_abs="175.273992" fuel_abs="183.323294" electricity_abs="0"/>
    </tripinfo>
    <tripinfo id="h19804c1:3" depart="57617.00" departLane="124812856#0_1" departPos="5.10" departSpeed="0.00" departDelay="1.50" arrival="57861.00" arrivalLane="-128361102#1_1" arrivalPos="274.68" arrivalSpeed="13.51" duration="244.00" routeLength="2250.49" waitingTime="30.00" waitingCount="3" stopTime="0.00" timeLoss="88.16" rerouteNo="1" devices="tripinfo_h19804c1:3 routing_h19804c1:3 emissions_h19804c1:3" vType="default_016" speedFactor="1.06" vaporized="">
        <emissions CO_abs="13009.652660" CO2_abs="659589.009384" HC_abs="74.694380" PMx_abs="12.246832" NOx_abs="273.314734" fuel_abs="283.530651" electricity_abs="0"/>
    </tripinfo>
    <tripinfo id="carIn12152:1" depart="57647.00" departLane="24599188#0.94_1" departPos="5.10" departSpeed="0.00" departDelay="0.50" arrival="57863.00" arrivalLane="-315358254#1_1" arrivalPos="137.16" arrivalSpeed="11.95" duration="216.00" routeLength="2034.31" waitingTime="20.00" waitingCount="2" stopTime="0.00" timeLoss="46.55" rerouteNo="1" devices="tripinfo_carIn12152:1 routing_carIn12152:1 emissions_carIn12152:1" vType="default_016" speedFactor="0.94" vaporized="">
        <emissions CO_abs="7277.083155" CO2_abs="424345.905198" HC_abs="42.966661" PMx_abs="6.830705" NOx_abs="168.753561" fuel_abs="182.409859" electricity_abs="0"/>
    </tripinfo>
    <tripinfo id="carIn107842:1" depart="57622.00" departLane="124812856#0_1" departPos="5.10" departSpeed="0.00" departDelay="0.90" arrival="57865.00" arrivalLane="-128361102#1_1" arrivalPos="274.68" arrivalSpeed="11.96" duration="243.00" routeLength="2250.49" waitingTime="21.00" waitingCount="2" stopTime="0.00" timeLoss="58.06" rerouteNo="1" devices="tripinfo_carIn107842:1 routing_carIn107842:1 emissions_carIn107842:1" vType="default_016" speedFactor="0.89" vaporized="">
        <emissions CO_abs="9979.218875" CO2_abs="562155.174377" HC_abs="58.503413" PMx_abs="9.326515" NOx_abs="225.878190" fuel_abs="241.648535" electricity_abs="0"/>