<?xml version="1.0" encoding="UTF-8"?>

<!-- generated on 2021-10-26 14:21:50 by Eclipse SUMO sumo Version 1.10.0
<configuration xmlns:xsi="http://www.w3.org/2001/XMLSchema-instance" xsi:noNamespaceSchemaLocation="http://sumo.dlr.de/xsd/sumoConfiguration.xsd">

    <input>
        <net-file value="/Users/behradkoohy/sumo-scratchpad/RESCO/environments/ingolstadt21/ingolstadt21.net.xml"/>
        <route-files value="/Users/behradkoohy/sumo-scratchpad/RESCO/environments/ingolstadt21/ingolstadt21.rou.xml"/>
    </input>

    <output>
        <tripinfo-output value="/Users/behradkoohy/sumo-scratchpad/RESCO/logs/STOCHASTIC-tr0-ingolstadt21-21-mplight-wait/tripinfo_45.xml"/>
        <tripinfo-output.write-unfinished value="true"/>
    </output>

    <time>
        <begin value="57600"/>
        <end value="61200"/>
    </time>

    <processing>
        <time-to-teleport value="-1"/>
    </processing>

    <report>
        <no-warnings value="true"/>
        <no-step-log value="true"/>
    </report>

    <emissions>
        <device.emissions.probability value="1"/>
    </emissions>

    <traci_server>
        <remote-port value="60275"/>
    </traci_server>

    <random_number>
        <random value="true"/>
    </random_number>

</configuration>
-->

<tripinfos xmlns:xsi="http://www.w3.org/2001/XMLSchema-instance" xsi:noNamespaceSchemaLocation="http://sumo.dlr.de/xsd/tripinfo_file.xsd">
    <tripinfo id="h15454c2:3" depart="57612.00" departLane="24608844_1" departPos="5.10" departSpeed="0.00" departDelay="0.50" arrival="57656.00" arrivalLane="32978638#0_1" arrivalPos="49.29" arrivalSpeed="16.88" duration="44.00" routeLength="354.79" waitingTime="3.00" waitingCount="1" stopTime="0.00" timeLoss="16.72" rerouteNo="1" devices="tripinfo_h15454c2:3 routing_h15454c2:3 emissions_h15454c2:3" vType="default_016" speedFactor="1.27" vaporized="">
        <emissions CO_abs="2600.903647" CO2_abs="136954.062732" HC_abs="15.091517" PMx_abs="2.668204" NOx_abs="57.944181" fuel_abs="58.870701" electricity_abs="0"/>
    </tripinfo>
    <tripinfo id="carIn60260:1" depart="57606.00" departLane="315358254#0_1" departPos="5.10" departSpeed="0.00" departDelay="0.90" arrival="57674.00" arrivalLane="399835085#1_1" arrivalPos="212.23" arrivalSpeed="7.21" duration="68.00" routeLength="430.98" waitingTime="12.00" waitingCount="1" stopTime="0.00" timeLoss="21.38" rerouteNo="1" devices="tripinfo_carIn60260:1 routing_carIn60260:1 emissions_carIn60260:1" vType="default_016" speedFactor="0.99" vaporized="">
        <emissions CO_abs="3552.307589" CO2_abs="138290.202183" HC_abs="19.372147" PMx_abs="2.425496" NOx_abs="56.978059" fuel_abs="59.446232" electricity_abs="0"/>
    </tripinfo>
    <tripinfo id="carIn53971:1" depart="57640.00" departLane="272042143_1" departPos="5.10" departSpeed="0.00" departDelay="0.80" arrival="57697.00" arrivalLane="24634414#1_1" arrivalPos="162.19" arrivalSpeed="7.60" duration="57.00" routeLength="493.04" waitingTime="0.00" waitingCount="0" stopTime="0.00" timeLoss="8.74" rerouteNo="1" devices="tripinfo_carIn53971:1 routing_carIn53971:1 emissions_carIn53971:1" vType="default_016" speedFactor="0.95" vaporized="">
        <emissions CO_abs="2563.345614" CO2_abs="142734.205013" HC_abs="14.990534" PMx_abs="2.409442" NOx_abs="57.984280" fuel_abs="61.355779" electricity_abs="0"/>
    </tripinfo>
    <tripinfo id="h7800c1:5" depart="57696.00" departLane="-447569998#1_1" departPos="5.10" departSpeed="0.00" departDelay="0.00" arrival="57721.00" arrivalLane="-447569998#1_1" arrivalPos="180.76" arrivalSpeed="7.86" duration="25.00" routeLength="175.66" waitingTime="0.00" waitingCount="0" stopTime="0.00" timeLoss="3.39" rerouteNo="1" devices="tripinfo_h7800c1:5 routing_h7800c1:5 emissions_h7800c1:5" vType="default_016" speedFactor="1.01" vaporized="">
        <emissions CO_abs="1161.726748" CO2_abs="51141.078462" HC_abs="6.454095" PMx_abs="0.789102" NOx_abs="20.495909" fuel_abs="21.983824" electricity_abs="0"/>
    </tripinfo>
    <tripinfo id="h3688c1:1" depart="57625.00" departLane="201201950#1_1" departPos="5.10" departSpeed="0.00" departDelay="0.00" arrival="57728.00" arrivalLane="32978638#0_1" arrivalPos="49.29" arrivalSpeed="14.37" duration="103.00" routeLength="1089.75" waitingTime="15.00" waitingCount="1" stopTime="0.00" timeLoss="31.04" rerouteNo="1" devices="tripinfo_h3688c1:1 routing_h3688c1:1 emissions_h3688c1:1" vType="default_016" speedFactor="1.11" vaporized="">
        <emissions CO_abs="5301.248650" CO2_abs="304568.076651" HC_abs="31.210472" PMx_abs="5.583915" NOx_abs="124.560648" fuel_abs="130.921115" electricity_abs="0"/>
    </tripinfo>
    <tripinfo id="carIn22761:1" depart="57616.00" departLane="-306240162#1_0" departPos="5.10" departSpeed="0.00" departDelay="2.10" arrival="57729.00" arrivalLane="399835085#1_1" arrivalPos="212.23" arrivalSpeed="8.70" duration="113.00" routeLength="1093.26" waitingTime="19.00" waitingCount="1" stopTime="0.00" timeLoss="38.30" rerouteNo="1" devices="tripinfo_carIn22761:1 routing_carIn22761:1 emissions_carIn22761:1" vType="default_016" speedFactor="1.05" vaporized="">
        <emissions CO_abs="7381.479622" CO2_abs="357836.208510" HC_abs="42.085418" PMx_abs="7.074078" NOx_abs="149.890791" fuel_abs="153.819061" electricity_abs="0"/>
    </tripinfo>
    <tripinfo id="h4538c1:1" depart="57701.00" departLane="-10427692#1_1" departPos="5.10" departSpeed="0.00" departDelay="0.00" arrival="57737.00" arrivalLane="-128361102#1_1" arrivalPos="274.68" arrivalSpeed="13.93" duration="36.00" routeLength="440.74" waitingTime="0.00" waitingCount="0" stopTime="0.00" timeLoss="5.80" rerouteNo="1" devices="tripinfo_h4538c1:1 routing_h4538c1:1 emissions_h4538c1:1" vType="default_016" speedFactor="1.07" vaporized="">
        <emissions CO_abs="1518.868941" CO2_abs="108827.231613" HC_abs="9.490462" PMx_abs="1.947678" NOx_abs="44.291167" fuel_abs="46.780039" electricity_abs="0"/>
    </tripinfo>
    <tripinfo id="h317c2:1" depart="57707.00" departLane="-32978638#0_1" departPos="5.10" departSpeed="0.00" departDelay="0.10" arrival="57744.00" arrivalLane="-266565295#5_1" arrivalPos="172.76" arrivalSpeed="14.01" duration="37.00" routeLength="370.53" waitingTime="2.00" waitingCount="1" stopTime="0.00" timeLoss="10.23" rerouteNo="1" devices="tripinfo_h317c2:1 routing_h317c2:1 emissions_h317c2:1" vType="default_016" speedFactor="1.05" vaporized="">
        <emissions CO_abs="1988.138546" CO2_abs="121283.636530" HC_abs="11.873981" PMx_abs="2.217609" NOx_abs="49.984060" fuel_abs="52.134639" electricity_abs="0"/>
    </tripinfo>
    <tripinfo id="carIn30817:1" depart="57681.00" departLane="315358244_1" departPos="5.10" departSpeed="0.00" departDelay="0.20" arrival="57761.00" arrivalLane="447569997#1_1" arrivalPos="180.93" arrivalSpeed="6.60" duration="80.00" routeLength="718.04" waitingTime="0.00" waitingCount="0" stopTime="0.00" timeLoss="12.67" rerouteNo="1" devices="tripinfo_carIn30817:1 routing_carIn30817:1 emissions_carIn30817:1" vType="default_016" speedFactor="0.91" vaporized="">
        <emissions CO_abs="3241.727749" CO2_abs="180894.435533" HC_abs="18.975425" PMx_abs="3.093417" NOx_abs="73.689341" fuel_abs="77.759289" electricity_abs="0"/>
    </tripinfo>
    <tripinfo id="carIn121703:1" depart="57647.00" departLane="386687232#0_1" departPos="5.10" departSpeed="0.00" departDelay="0.30" arrival="57762.00" arrivalLane="-315358244_1" arrivalPos="33.95" arrivalSpeed="13.99" duration="115.00" routeLength="1157.39" waitingTime="24.00" waitingCount="1" stopTime="0.00" timeLoss="35.77" rerouteNo="1" devices="tripinfo_carIn121703:1 routing_carIn121703:1 emissions_carIn121703:1" vType="default_016" speedFactor="1.07" vaporized="">
        <emissions CO_abs="6054.573704" CO2_abs="281956.558169" HC_abs="34.057120" PMx_abs="4.997612" NOx_abs="113.860212" fuel_abs="121.202646" electricity_abs="0"/>
    </tripinfo>
    <tripinfo id="h5979c1:5" depart="57669.00" departLane="399835085#1_1" departPos="5.10" departSpeed="0.00" departDelay="0.00" arrival="57768.00" arrivalLane="-315358254#1_1" arrivalPos="137.16" arrivalSpeed="12.06" duration="99.00" routeLength="659.33" waitingTime="7.00" waitingCount="1" stopTime="0.00" timeLoss="20.21" rerouteNo="1" devices="tripinfo_h5979c1:5 routing_h5979c1:5 emissions_h5979c1:5" vType="default_016" speedFactor="0.93" vaporized="">
        <emissions CO_abs="4248.053666" CO2_abs="191684.305667" HC_abs="23.750703" PMx_abs="3.151461" NOx_abs="77.871206" fuel_abs="82.398249" electricity_abs="0"/>
    </tripinfo>
    <tripinfo id="h9563c2:5" depart="57631.00" departLane="315358244_1" departPos="5.10" departSpeed="0.00" departDelay="0.70" arrival="57769.00" arrivalLane="386687235_1" arrivalPos="80.84" arrivalSpeed="12.17" duration="138.00" routeLength="1186.14" waitingTime="32.00" waitingCount="1" stopTime="0.00" timeLoss="48.45" rerouteNo="1" devices="tripinfo_h9563c2:5 routing_h9563c2:5 emissions_h9563c2:5" vType="default_016" speedFactor="0.97" vaporized="">
        <emissions CO_abs="8049.040386" CO2_abs="338740.201488" HC_abs="44.568464" PMx_abs="6.200459" NOx_abs="139.446465" fuel_abs="145.612067" electricity_abs="0"/>
    </tripinfo>
    <tripinfo id="h12244c1:3" depart="57612.00" departLane="315358244_1" departPos="5.10" departSpeed="0.00" departDelay="0.40" arrival="57772.00" arrivalLane="386687235_1" arrivalPos="80.84" arrivalSpeed="13.50" duration="160.00" routeLength="1186.14" waitingTime="50.00" waitingCount="2" stopTime="0.00" timeLoss="72.17" rerouteNo="1" devices="tripinfo_h12244c1:3 routing_h12244c1:3 emissions_h12244c1:3" vType="default_016" speedFactor="0.99" vaporized="">
        <emissions CO_abs="11564.396811" CO2_abs="417204.209404" HC_abs="62.436003" PMx_abs="8.071503" NOx_abs="174.855551" fuel_abs="179.341602" electricity_abs="0"/>
    </tripinfo>
    <tripinfo id="h3326c1:2" depart="57656.00" departLane="22716069#0_1" departPos="5.10" departSpeed="0.00" departDelay="0.00" arrival="57772.00" arrivalLane="24634517#13_1" arrivalPos="111.62" arrivalSpeed="13.83" duration="116.00" routeLength="1312.81" waitingTime="2.00" waitingCount="1" stopTime="0.00" timeLoss="19.49" rerouteNo="1" devices="tripinfo_h3326c1:2 routing_h3326c1:2 emissions_h3326c1:2" vType="default_016" speedFactor="1.00" vaporized="">
        <emissions CO_abs="4276.387756" CO2_abs="322073.274491" HC_abs="27.005285" PMx_abs="5.407215" NOx_abs="128.907936" fuel_abs="138.445472" electricity_abs="0"/>
    </tripinfo>
    <tripinfo id="h3568c1:3" depart="57656.00" departLane="266565295#5_1" departPos="5.10" departSpeed="0.00" departDelay="0.80" arrival="57775.00" arrivalLane="-24634415_1" arrivalPos="62.03" arrivalSpeed="14.26" duration="119.00" routeLength="807.40" waitingTime="36.00" waitingCount="2" stopTime="0.00" timeLoss="57.80" rerouteNo="1" devices="tripinfo_h3568c1:3 routing_h3568c1:3 emissions_h3568c1:3" vType="default_016" speedFactor="1.06" vaporized="">
        <emissions CO_abs="9208.907575" CO2_abs="346341.532075" HC_abs="50.065508" PMx_abs="6.989508" NOx_abs="147.728922" fuel_abs="148.879340" electricity_abs="0"/>
    </tripinfo>
    <tripinfo id="h3154c1:1" depart="57658.00" departLane="24634507_1" departPos="5.10" departSpeed="0.00" departDelay="0.00" arrival="57776.00" arrivalLane="-266565295#5_1" arrivalPos="172.76" arrivalSpeed="12.25" duration="118.00" routeLength="1206.22" waitingTime="8.00" waitingCount="1" stopTime="0.00" timeLoss="26.09" rerouteNo="1" devices="tripinfo_h3154c1:1 routing_h3154c1:1 emissions_h3154c1:1" vType="default_016" speedFactor="0.97" vaporized="">
        <emissions CO_abs="4837.358917" CO2_abs="301732.362763" HC_abs="29.096204" PMx_abs="5.246569" NOx_abs="122.538262" fuel_abs="129.702161" electricity_abs="0"/>
    </tripinfo>
    <tripinfo id="carIn27009:1" depart="57673.00" departLane="-447569998#1_1" departPos="5.10" departSpeed="0.00" departDelay="0.50" arrival="57787.00" arrivalLane="-26677539_1" arrivalPos="152.75" arrivalSpeed="6.08" duration="114.00" routeLength="699.63" waitingTime="0.00" waitingCount="0" stopTime="0.00" timeLoss="14.18" rerouteNo="1" devices="tripinfo_carIn27009:1 routing_carIn27009:1 emissions_carIn27009:1" vType="default_015" speedFactor="0.84" vaporized="">
        <emissions CO_abs="4404.865158" CO2_abs="171576.168111" HC_abs="23.961478" PMx_abs="2.740185" NOx_abs="69.640660" fuel_abs="73.755069" electricity_abs="0"/>
    </tripinfo>
    <tripinfo id="h330c1:1" depart="57736.00" departLane="-32978638#0_1" departPos="5.10" departSpeed="0.00" departDelay="0.20" arrival="57788.00" arrivalLane="-266565295#5_1" arrivalPos="172.76" arrivalSpeed="11.67" duration="52.00" routeLength="370.53" waitingTime="10.00" waitingCount="1" stopTime="0.00" timeLoss="20.04" rerouteNo="1" devices="tripinfo_h330c1:1 routing_h330c1:1 emissions_h330c1:1" vType="default_016" speedFactor="0.87" vaporized="">
        <emissions CO_abs="2672.820565" CO2_abs="125412.232302" HC_abs="15.092885" PMx_abs="2.207326" NOx_abs="51.397742" fuel_abs="53.909985" electricity_abs="0"/>
    </tripinfo>
    <tripinfo id="carIn129809:1" depart="57729.00" departLane="-447569998#1_1" departPos="5.10" departSpeed="0.00" departDelay="1.00" arrival="57800.00" arrivalLane="-315358244_1" arrivalPos="33.95" arrivalSpeed="12.95" duration="71.00" routeLength="706.49" waitingTime="0.00" waitingCount="0" stopTime="0.00" timeLoss="6.61" rerouteNo="1" devices="tripinfo_carIn129809:1 routing_carIn129809:1 emissions_carIn129809:1" vType="default_015" speedFactor="0.94" vaporized="">
        <emissions CO_abs="2311.778756" CO2_abs="157130.121326" HC_abs="14.139956" PMx_abs="2.320155" NOx_abs="61.095726" fuel_abs="67.544146" electricity_abs="0"/>
    </tripinfo>
    <tripinfo id="carIn12365:1" depart="57713.00" departLane="315358244_1" departPos="5.10" departSpeed="0.00" departDelay="0.50" arrival="57803.00" arrivalLane="447569997#1_1" arrivalPos="180.93" arrivalSpeed="8.76" duration="90.00" routeLength="718.04" waitingTime="17.00" waitingCount="1" stopTime="0.00" timeLoss="31.44" rerouteNo="1" devices="tripinfo_carIn12365:1 routing_carIn12365:1 emissions_carIn12365:1" vType="default_016" speedFactor="1.06" vaporized="">
        <emissions CO_abs="5312.220845" CO2_abs="221567.600231" HC_abs="29.338457" PMx_abs="4.117279" NOx_abs="91.819453" fuel_abs="95.243754" electricity_abs="0"/>
    </tripinfo>
    <tripinfo id="carIn107084:1" depart="57601.00" departLane="124812856#0_1" departPos="5.10" departSpeed="0.00" departDelay="0.70" arrival="57805.00" arrivalLane="-128361102#1_1" arrivalPos="274.68" arrivalSpeed="11.02" duration="204.00" routeLength="2250.49" waitingTime="0.00" waitingCount="0" stopTime="0.00" timeLoss="19.16" rerouteNo="1" devices="tripinfo_carIn107084:1 routing_carIn107084:1 emissions_carIn107084:1" vType="default_016" speedFactor="0.89" vaporized="">
        <emissions CO_abs="5434.813021" CO2_abs="439741.330063" HC_abs="34.924586" PMx_abs="6.643401" NOx_abs="171.683651" fuel_abs="189.026658" electricity_abs="0"/>
    </tripinfo>
    <tripinfo id="carIn77943:1" depart="57608.00" departLane="124812856#0_1" departPos="5.10" departSpeed="0.00" departDelay="2.50" arrival="57811.00" arrivalLane="-128361102#1_1" arrivalPos="274.68" arrivalSpeed="12.12" duration="203.00" routeLength="2250.49" waitingTime="0.00" waitingCount="0" stopTime="0.00" timeLoss="16.74" rerouteNo="1" devices="tripinfo_carIn77943:1 routing_carIn77943:1 emissions_carIn77943:1" vType="default_016" speedFactor="0.88" vaporized="">
        <emissions CO_abs="5129.694244" CO2_abs="429806.096861" HC_abs="33.280574" PMx_abs="6.321078" NOx_abs="166.497745" fuel_abs="184.756039" electricity_abs="0"/>
    </tripinfo>
    <tripinfo id="carIn81046:1" depart="57611.00" departLane="124812856#0_1" departPos="5.10" departSpeed="0.00" departDelay="2.50" arrival="57813.00" arrivalLane="-128361102#1_1" arrivalPos="274.68" arrivalSpeed="13.11" duration="202.00" routeLength="2250.49" waitingTime="0.00" waitingCount="0" stopTime="0.00" timeLoss="32.65" rerouteNo="1" devices="tripinfo_carIn81046:1 routing_carIn81046:1 emissions_carIn81046:1" vType="default_016" speedFactor="0.97" vaporized="">
        <emissions CO_abs="6779.853641" CO2_abs="512231.060966" HC_abs="42.848845" PMx_abs="8.472292" NOx_abs="205.052429" fuel_abs="220.186233" electricity_abs="0"/>
    </tripinfo>
    <tripinfo id="carIn86816:1" depart="57617.00" departLane="128361102#0_1" departPos="5.10" departSpeed="0.00" departDelay="0.80" arrival="57816.00" arrivalLane="201956811#0_1" arrivalPos="40.40" arrivalSpeed="13.60" duration="199.00" routeLength="2067.33" waitingTime="26.00" waitingCount="3" stopTime="0.00" timeLoss="57.50" rerouteNo="1" devices="tripinfo_carIn86816:1 routing_carIn86816:1 emissions_carIn86816:1" vType="default_016" speedFactor="1.07" vaporized="">
        <emissions CO_abs="9032.856539" CO2_abs="492809.837245" HC_abs="52.540891" PMx_abs="8.790153" NOx_abs="200.170326" fuel_abs="211.839145" electricity_abs="0"/>
    </tripinfo>
    <tripinfo id="carIn80064:1" depart="57603.00" departLane="128361109#1_1" departPos="5.10" departSpeed="0.00" departDelay="0.40" arrival="57824.00" arrivalLane="-315358254#1_1" arrivalPos="137.16" arrivalSpeed="10.50" duration="221.00" routeLength="1587.97" waitingTime="86.00" waitingCount="3" stopTime="0.00" timeLoss="115.37" rerouteNo="1" devices="tripinfo_carIn80064:1 routing_carIn80064:1 emissions_carIn80064:1" vType="default_016" speedFactor="0.85" vaporized="">
        <emissions CO_abs="18667.470764" CO2_abs="630841.910674" HC_abs="99.655491" PMx_abs="12.999385" NOx_abs="268.341139" fuel_abs="271.176900" electricity_abs="0"/>
    </tripinfo>
    <tripinfo id="carIn118591:1" depart="57689.00" departLane="315358244_1" departPos="5.10" departSpeed="0.00" departDelay="0.20" arrival="57827.00" arrivalLane="386687235_1" arrivalPos="80.84" arrivalSpeed="13.20" duration="138.00" routeLength="1186.14" waitingTime="38.00" waitingCount="1" stopTime="0.00" timeLoss="52.49" rerouteNo="1" devices="tripinfo_carIn118591:1 routing_carIn118591:1 emissions_carIn118591:1" vType="default_016" speedFactor="1.02" vaporized="">
        <emissions CO_abs="8322.580888" CO2_abs="327317.663805" HC_abs="45.519533" PMx_abs="6.066439" NOx_abs="134.769503" fuel_abs="140.702328" electricity_abs="0"/>
    </tripinfo>
    <tripinfo id="S5R_frequency1.2" depart="57677.00" departLane="315358250#0_1" departPos="12.10" departSpeed="0.00" departDelay="65.40" arrival="57832.00" arrivalLane="386687235_1" arrivalPos="80.84" arrivalSpeed="13.54" duration="155.00" routeLength="1115.62" waitingTime="49.00" waitingCount="2" stopTime="0.00" timeLoss="73.37" rerouteNo="1" devices="tripinfo_S5R_frequency1.2 routing_S5R_frequency1.2 emissions_S5R_frequency1.2" vType="bus" speedFactor="1.00" vaporized="">
        <emissions CO_abs="2947.461162" CO2_abs="1549113.859217" HC_abs="640.223238" PMx_abs="309.303083" NOx_abs="12825.742083" fuel_abs="660.581147" electricity_abs="0"/>
    </tripinfo>
    <tripinfo id="50R_frequency3.17" depart="57674.00" departLane="-18809673#6_1" departPos="12.10" departSpeed="0.00" departDelay="0.70" arrival="57836.00" arrivalLane="201956811#0_1" arrivalPos="40.40" arrivalSpeed="12.06" duration="162.00" routeLength="1954.47" waitingTime="0.00" waitingCount="0" stopTime="0.00" timeLoss="17.09" rerouteNo="1" devices="tripinfo_50R_frequency3.17 routing_50R_frequency3.17 emissions_50R_frequency3.17" vType="bus" speedFactor="1.00" vaporized="">
        <emissions CO_abs="3115.318140" CO2_abs="1993848.423272" HC_abs="662.863185" PMx_abs="335.461237" NOx_abs="15346.638464" fuel_abs="850.377257" electricity_abs="0"/>
    </tripinfo>
    <tripinfo id="carIn12858:1" depart="57661.00" departLane="128361109#1_1" departPos="5.10" departSpeed="0.00" departDelay="0.90" arrival="57837.00" arrivalLane="399835085#1_1" arrivalPos="212.23" arrivalSpeed="7.75" duration="176.00" routeLength="1738.12" waitingTime="23.00" waitingCount="1" stopTime="0.00" timeLoss="54.52" rerouteNo="1" devices="tripinfo_carIn12858:1 routing_carIn12858:1 emissions_carIn12858:1" vType="default_016" speedFactor="0.95" vaporized="">
        <emissions CO_abs="9932.472335" CO2_abs="501834.513218" HC_abs="57.123946" PMx_abs="9.699093" NOx_abs="208.471612" fuel_abs="215.718026" electricity_abs="0"/>
    </tripinfo>
    <tripinfo id="h8343c1:5" depart="57679.00" departLane="315358254#0_1" departPos="5.10" departSpeed="0.00" departDelay="0.60" arrival="57838.00" arrivalLane="-24634510#5_1" arrivalPos="236.88" arrivalSpeed="14.57" duration="159.00" routeLength="2056.84" waitingTime="8.00" waitingCount="1" stopTime="0.00" timeLoss="40.76" rerouteNo="1" devices="tripinfo_h8343c1:5 routing_h8343c1:5 emissions_h8343c1:5" vType="default_016" speedFactor="1.06" vaporized="">
        <emissions CO_abs="8731.073455" CO2_abs="593977.890850" HC_abs="53.977392" PMx_abs="11.613194" NOx_abs="246.034596" fuel_abs="255.324047" electricity_abs="0"/>
    </tripinfo>
    <tripinfo id="randUni15030:1" depart="57735.00" departLane="386687232#0_1" departPos="5.10" departSpeed="0.00" departDelay="0.10" arrival="57840.00" arrivalLane="26677539_1" arrivalPos="151.98" arrivalSpeed="8.56" duration="105.00" routeLength="919.89" waitingTime="16.00" waitingCount="1" stopTime="0.00" timeLoss="32.01" rerouteNo="1" devices="tripinfo_randUni15030:1 routing_randUni15030:1 emissions_randUni15030:1" vType="random_016" speedFactor="1.15" vaporized="">
        <emissions CO_abs="5857.173028" CO2_abs="267338.115049" HC_abs="32.934070" PMx_abs="4.955005" NOx_abs="110.731820" fuel_abs="114.918364" electricity_abs="0"/>
    </tripinfo>
    <tripinfo id="carIn50326:1" depart="57651.00" departLane="128361102#0_1" departPos="5.10" departSpeed="0.00" departDelay="0.30" arrival="57841.00" arrivalLane="18809673#0_1" arrivalPos="473.56" arrivalSpeed="14.12" duration="190.00" routeLength="1591.07" waitingTime="37.00" waitingCount="1" stopTime="0.00" timeLoss="63.73" rerouteNo="1" devices="tripinfo_carIn50326:1 routing_carIn50326:1 emissions_carIn50326:1" vType="default_016" speedFactor="1.03" vaporized="">
        <emissions CO_abs="10922.281448" CO2_abs="438210.544873" HC_abs="59.974731" PMx_abs="8.155520" NOx_abs="181.677061" fuel_abs="188.370929" electricity_abs="0"/>
    </tripinfo>
    <tripinfo id="carIn73855:1" depart="57743.00" departLane="386687232#0_1" departPos="5.10" departSpeed="0.00" departDelay="0.50" arrival="57841.00" arrivalLane="-315358244_2" arrivalPos="33.95" arrivalSpeed="14.98" duration="98.00" routeLength="1157.39" waitingTime="9.00" waitingCount="1" stopTime="0.00" timeLoss="25.31" rerouteNo="1" devices="tripinfo_carIn73855:1 routing_carIn73855:1 emissions_carIn73855:1" vType="default_016" speedFactor="1.16" vaporized="">
        <emissions CO_abs="4152.801300" CO2_abs="293442.662333" HC_abs="25.614414" PMx_abs="5.051158" NOx_abs="116.771049" fuel_abs="126.138547" electricity_abs="0"/>
    </tripinfo>
    <tripinfo id="h645c1:1" depart="57622.00" departLane="266565295#5_1" departPos="5.10" departSpeed="0.00" departDelay="0.40" arrival="57846.00" arrivalLane="-315358244_1" arrivalPos="33.95" arrivalSpeed="13.96" duration="224.00" routeLength="1910.83" waitingTime="62.00" waitingCount="3" stopTime="0.00" timeLoss="87.46" rerouteNo="1" devices="tripinfo_h645c1:1 routing_h645c1:1 emissions_h645c1:1" vType="default_016" speedFactor="1.01" vaporized="">
        <emissions CO_abs="13561.632915" CO2_abs="539732.776174" HC_abs="74.266241" PMx_abs="9.825050" NOx_abs="220.771318" fuel_abs="232.012259" electricity_abs="0"/>
    </tripinfo>
    <tripinfo id="h3864c1:3" depart="57678.00" departLane="24693977#1_1" departPos="5.10" departSpeed="0.00" departDelay="0.00" arrival="57846.00" arrivalLane="201956820_2" arrivalPos="48.33" arrivalSpeed="13.64" duration="168.00" routeLength="1574.85" waitingTime="12.00" waitingCount="1" stopTime="0.00" timeLoss="37.26" rerouteNo="1" devices="tripinfo_h3864c1:3 routing_h3864c1:3 emissions_h3864c1:3" vType="default_016" speedFactor="0.99" vaporized="">
        <emissions CO_abs="7693.221325" CO2_abs="415882.456774" HC_abs="44.751701" PMx_abs="7.266820" NOx_abs="169.760874" fuel_abs="178.771287" electricity_abs="0"/>
    </tripinfo>
    <tripinfo id="carIn81860:1" depart="57712.00" departLane="128361102#0_1" departPos="5.10" departSpeed="0.00" departDelay="0.60" arrival="57853.00" arrivalLane="-24634517#17_1" arrivalPos="6.43" arrivalSpeed="6.47" duration="141.00" routeLength="1229.64" waitingTime="26.00" waitingCount="1" stopTime="0.00" timeLoss="46.94" rerouteNo="1" devices="tripinfo_carIn81860:1 routing_carIn81860:1 emissions_carIn81860:1" vType="default_016" speedFactor="0.95" vaporized="">
        <emissions CO_abs="7081.675789" CO2_abs="317578.563348" HC_abs="39.674218" PMx_abs="5.729605" NOx_abs="130.358991" fuel_abs="136.515165" electricity_abs="0"/>
    </tripinfo>
    <tripinfo id="carIn107282:1" depart="57749.00" departLane="-447569998#1_1" departPos="5.10" departSpeed="0.00" departDelay="0.00" arrival="57854.00" arrivalLane="315358242#0_1" arrivalPos="165.37" arrivalSpeed="15.04" duration="105.00" routeLength="448.50" waitingTime="58.00" waitingCount="1" stopTime="0.00" timeLoss="68.07" rerouteNo="1" devices="tripinfo_carIn107282:1 routing_carIn107282:1 emissions_carIn107282:1" vType="default_016" speedFactor="1.14" vaporized="">
        <emissions CO_abs="10692.053203" CO2_abs="258716.248779" HC_abs="54.740219" PMx_abs="5.596233" NOx_abs="112.659829" fuel_abs="111.215196" electricity_abs="0"/>
    </tripinfo>
    <tripinfo id="carIn12152:1" depart="57647.00" departLane="24599188#0.94_1" departPos="5.10" departSpeed="0.00" departDelay="0.50" arrival="57868.00" arrivalLane="-315358254#1_1" arrivalPos="137.16" arrivalSpeed="11.77" duration="221.00" routeLength="2034.31" waitingTime="27.00" waitingCount="1" stopTime="0.00" timeLoss="47.54" rerouteNo="1" devices="tripinfo_carIn12152:1 routing_carIn12152:1 emissions_carIn12152:1" vType="default_016" speedFactor="0.91" vaporized="">
        <emissions CO_abs="8958.416342" CO2_abs="456496.410823" HC_abs="51.352151" PMx_abs="7.412698" NOx_abs="181.762643" fuel_abs="196.231005" electricity_abs="0"/>
    </tripinfo>
    <tripinfo id="h17890c1:3" depart="57792.00" departLane="386687232#0_1" departPos="5.10" departSpeed="0.00" departDelay="0.00" arrival="57868.00" arrivalLane="32978638#0_1" arrivalPos="49.29" arrivalSpeed="15.35" duration="76.00" routeLength="792.72" waitingTime="7.00" waitingCount="1" stopTime="0.00" timeLoss="24.19" rerouteNo="1" devices="tripinfo_h17890c1:3 routing_h17890c1:3 emissions_h17890c1:3" vType="default_016" speedFactor="1.14" vaporized="">
        <emissions CO_abs="3833.334023" CO2_abs="246240.964792" HC_abs="23.278433" PMx_abs="4.735069" NOx_abs="102.724981" fuel_abs="105.847947" electricity_abs="0"/>
    </tripinfo>
    <tripinfo id="randUni10474:1" depart="57605.00" departLane="124812856#0_1" departPos="5.10" departSpeed="0.00" departDelay="0.20" arrival="57869.00" arrivalLane="306240162#0_0" arrivalPos="220.43" arrivalSpeed="17.77" duration="264.00" routeLength="3049.32" waitingTime="22.00" waitingCount="1" stopTime="0.00" timeLoss="81.17" rerouteNo="1" devices="tripinfo_randUni10474:1 routing_randUni10474:1 emissions_randUni10474:1" vType="random_016" speedFactor="1.08" vaporized="">
        <emissions CO_abs="13725.210503" CO2_abs="826864.033412" HC_abs="82.002164" PMx_abs="15.691008" NOx_abs="341.481305" fuel_abs="355.433029" electricity_abs="0"/>
    </tripinfo>
    <tripinfo id="h5938c1:1" depart="57740.00" departLane="-26677542#0_1" departPos="5.10" departSpeed="0.00" departDelay="0.00" arrival="57869.00" arrivalLane="447569997#1_1" arrivalPos="180.93" arrivalSpeed="8.82" duration="129.00" routeLength="1093.64" waitingTime="21.00" waitingCount="2" stopTime="0.00" timeLoss="40.71" rerouteNo="1" devices="tripinfo_h5938c1:1 routing_h5938c1:1 emissions_h5938c1:1" vType="default_016" speedFactor="1.10" vaporized="">
        <emissions CO_abs="5913.830933" CO2_abs="289240.596711" HC_abs="33.607960" PMx_abs="5.096087" NOx_abs="117.792179" fuel_abs="124.333460" electricity_abs="0"/>
    </tripinfo>
    <tripinfo id="h17549c1:1" depart="57680.00" departLane="-447569998#1_1" departPos="5.10" departSpeed="0.00" departDelay="0.00" arrival="57870.00" arrivalLane="-315358254#1_1" arrivalPos="137.16" arrivalSpeed="11.71" duration="190.00" routeLength="1746.60" waitingTime="21.00" waitingCount="1" stopTime="0.00" timeLoss="42.91" rerouteNo="1" devices="tripinfo_h17549c1:1 routing_h17549c1:1 emissions_h17549c1:1" vType="default_016" speedFactor="0.93" vaporized="">
        <emissions CO_abs="7906.562052" CO2_abs="405097.868009" HC_abs="45.395348" PMx_abs="6.701176" NOx_abs="162.267107" fuel_abs="174.136420" electricity_abs="0"/>
    </tripinfo>
    <tripinfo id="randUni31145:1" depart="57814.00" departLane="10425609#0_1" departPos="5.10" departSpeed="0.00" departDelay="0.30" arrival="57871.00" arrivalLane="201956810_1" arrivalPos="71.65" arrivalSpeed="13.38" duration="57.00" routeLength="255.78" waitingTime="22.00" waitingCount="2" stopTime="0.00" timeLoss="37.30" rerouteNo="1" devices="tripinfo_randUni31145:1 routing_randUni31145:1 emissions_randUni31145:1" vType="random_016" speedFactor="1.00" vaporized="">
        <emissions CO_abs="5101.811206" CO2_abs="163395.965181" HC_abs="27.092496" PMx_abs="3.436399" NOx_abs="70.880949" fuel_abs="70.238257" electricity_abs="0"/>
    </tripinfo>
    <tripinfo id="carIn48184:1" depart="57613.00" departLane="-306240162#1_0" departPos="5.10" departSpeed="0.00" departDelay="0.70" arrival="57874.00" arrivalLane="386687235_2" arrivalPos="80.84" arrivalSpeed="12.04" duration="261.00" routeLength="2257.41" waitingTime="63.00" waitingCount="3" stopTime="0.00" timeLoss="97.00" rerouteNo="1" devices="tripinfo_carIn48184:1 routing_carIn48184:1 emissions_carIn48184:1" vType="default_016" speedFactor="0.91" vaporized="">
        <emissions CO_abs="15466.374366" CO2_abs="662068.894504" HC_abs="85.925741" PMx_abs="12.429264" NOx_abs="273.947925" fuel_abs="284.598641" electricity_abs="0"/>