<?xml version="1.0" encoding="UTF-8"?>

<!-- generated on 2021-10-26 14:01:08 by Eclipse SUMO sumo Version 1.10.0
<configuration xmlns:xsi="http://www.w3.org/2001/XMLSchema-instance" xsi:noNamespaceSchemaLocation="http://sumo.dlr.de/xsd/sumoConfiguration.xsd">

    <input>
        <net-file value="/Users/behradkoohy/sumo-scratchpad/RESCO/environments/ingolstadt21/ingolstadt21.net.xml"/>
        <route-files value="/Users/behradkoohy/sumo-scratchpad/RESCO/environments/ingolstadt21/ingolstadt21.rou.xml"/>
    </input>

    <output>
        <tripinfo-output value="/Users/behradkoohy/sumo-scratchpad/RESCO/logs/STOCHASTIC-tr0-ingolstadt21-21-mplight-wait/tripinfo_12.xml"/>
        <tripinfo-output.write-unfinished value="true"/>
    </output>

    <time>
        <begin value="57600"/>
        <end value="61200"/>
    </time>

    <processing>
        <time-to-teleport value="-1"/>
    </processing>

    <report>
        <no-warnings value="true"/>
        <no-step-log value="true"/>
    </report>

    <emissions>
        <device.emissions.probability value="1"/>
    </emissions>

    <traci_server>
        <remote-port value="59949"/>
    </traci_server>

    <random_number>
        <random value="true"/>
    </random_number>

</configuration>
-->

<tripinfos xmlns:xsi="http://www.w3.org/2001/XMLSchema-instance" xsi:noNamespaceSchemaLocation="http://sumo.dlr.de/xsd/tripinfo_file.xsd">
    <tripinfo id="h15454c2:3" depart="57612.00" departLane="24608844_1" departPos="5.10" departSpeed="0.00" departDelay="0.50" arrival="57656.00" arrivalLane="32978638#0_1" arrivalPos="49.29" arrivalSpeed="14.96" duration="44.00" routeLength="354.79" waitingTime="3.00" waitingCount="1" stopTime="0.00" timeLoss="14.13" rerouteNo="1" devices="tripinfo_h15454c2:3 routing_h15454c2:3 emissions_h15454c2:3" vType="default_016" speedFactor="1.13" vaporized="">
        <emissions CO_abs="2363.040965" CO2_abs="125271.491514" HC_abs="13.695303" PMx_abs="2.251725" NOx_abs="51.785326" fuel_abs="53.849137" electricity_abs="0"/>
    </tripinfo>
    <tripinfo id="carIn53971:1" depart="57640.00" departLane="272042143_1" departPos="5.10" departSpeed="0.00" departDelay="0.80" arrival="57701.00" arrivalLane="24634414#1_1" arrivalPos="162.19" arrivalSpeed="6.85" duration="61.00" routeLength="493.04" waitingTime="0.00" waitingCount="0" stopTime="0.00" timeLoss="8.23" rerouteNo="1" devices="tripinfo_carIn53971:1 routing_carIn53971:1 emissions_carIn53971:1" vType="default_016" speedFactor="0.87" vaporized="">
        <emissions CO_abs="2380.054401" CO2_abs="125249.137896" HC_abs="13.734650" PMx_abs="2.069129" NOx_abs="50.725552" fuel_abs="53.839808" electricity_abs="0"/>
    </tripinfo>
    <tripinfo id="carIn60260:1" depart="57606.00" departLane="315358254#0_1" departPos="5.10" departSpeed="0.00" departDelay="0.90" arrival="57707.00" arrivalLane="399835085#1_1" arrivalPos="212.23" arrivalSpeed="4.27" duration="101.00" routeLength="430.98" waitingTime="42.00" waitingCount="1" stopTime="0.00" timeLoss="63.15" rerouteNo="1" devices="tripinfo_carIn60260:1 routing_carIn60260:1 emissions_carIn60260:1" vType="default_016" speedFactor="1.21" vaporized="">
        <emissions CO_abs="9268.736255" CO2_abs="243276.525164" HC_abs="47.909237" PMx_abs="5.159175" NOx_abs="105.954073" fuel_abs="104.577490" electricity_abs="0"/>
    </tripinfo>
    <tripinfo id="h7800c1:5" depart="57696.00" departLane="-447569998#1_1" departPos="5.10" departSpeed="0.00" departDelay="0.00" arrival="57725.00" arrivalLane="-447569998#1_2" arrivalPos="180.76" arrivalSpeed="4.24" duration="29.00" routeLength="175.66" waitingTime="1.00" waitingCount="1" stopTime="0.00" timeLoss="6.37" rerouteNo="1" devices="tripinfo_h7800c1:5 routing_h7800c1:5 emissions_h7800c1:5" vType="default_016" speedFactor="0.95" vaporized="">
        <emissions CO_abs="1482.642039" CO2_abs="55675.434339" HC_abs="8.026459" PMx_abs="0.937833" NOx_abs="22.866691" fuel_abs="23.933052" electricity_abs="0"/>
    </tripinfo>
    <tripinfo id="h3568c1:3" depart="57656.00" departLane="266565295#5_1" departPos="5.10" departSpeed="0.00" departDelay="0.80" arrival="57747.00" arrivalLane="-24634415_1" arrivalPos="62.03" arrivalSpeed="11.28" duration="91.00" routeLength="807.40" waitingTime="0.00" waitingCount="0" stopTime="0.00" timeLoss="17.10" rerouteNo="1" devices="tripinfo_h3568c1:3 routing_h3568c1:3 emissions_h3568c1:3" vType="default_016" speedFactor="0.87" vaporized="">
        <emissions CO_abs="4027.809854" CO2_abs="215510.904017" HC_abs="23.375199" PMx_abs="3.800649" NOx_abs="88.751558" fuel_abs="92.639469" electricity_abs="0"/>
    </tripinfo>
    <tripinfo id="h4538c1:1" depart="57701.00" departLane="-10427692#1_1" departPos="5.10" departSpeed="0.00" departDelay="0.00" arrival="57748.00" arrivalLane="-128361102#1_1" arrivalPos="274.68" arrivalSpeed="12.04" duration="47.00" routeLength="440.74" waitingTime="2.00" waitingCount="1" stopTime="0.00" timeLoss="13.25" rerouteNo="1" devices="tripinfo_h4538c1:1 routing_h4538c1:1 emissions_h4538c1:1" vType="default_016" speedFactor="0.95" vaporized="">
        <emissions CO_abs="1850.116972" CO2_abs="111551.388282" HC_abs="11.025529" PMx_abs="1.871608" NOx_abs="44.901548" fuel_abs="47.951444" electricity_abs="0"/>
    </tripinfo>
    <tripinfo id="h7181c1:1" depart="57660.00" departLane="315358254#0_1" departPos="5.10" departSpeed="0.00" departDelay="0.10" arrival="57751.00" arrivalLane="306240162#0_0" arrivalPos="220.43" arrivalSpeed="16.54" duration="91.00" routeLength="932.35" waitingTime="21.00" waitingCount="2" stopTime="0.00" timeLoss="39.62" rerouteNo="1" devices="tripinfo_h7181c1:1 routing_h7181c1:1 emissions_h7181c1:1" vType="default_016" speedFactor="1.00" vaporized="">
        <emissions CO_abs="6466.279157" CO2_abs="317659.565849" HC_abs="36.940699" PMx_abs="6.311496" NOx_abs="132.174924" fuel_abs="136.548758" electricity_abs="0"/>
    </tripinfo>
    <tripinfo id="h3688c1:1" depart="57625.00" departLane="201201950#1_1" departPos="5.10" departSpeed="0.00" departDelay="0.00" arrival="57752.00" arrivalLane="32978638#0_1" arrivalPos="49.29" arrivalSpeed="12.21" duration="127.00" routeLength="1089.75" waitingTime="29.00" waitingCount="1" stopTime="0.00" timeLoss="43.92" rerouteNo="1" devices="tripinfo_h3688c1:1 routing_h3688c1:1 emissions_h3688c1:1" vType="default_016" speedFactor="0.96" vaporized="">
        <emissions CO_abs="7637.406622" CO2_abs="313774.083213" HC_abs="42.139644" PMx_abs="5.923773" NOx_abs="130.595960" fuel_abs="134.879896" electricity_abs="0"/>
    </tripinfo>
    <tripinfo id="carIn22761:1" depart="57616.00" departLane="-306240162#1_0" departPos="5.10" departSpeed="0.00" departDelay="2.10" arrival="57753.00" arrivalLane="399835085#1_1" arrivalPos="212.23" arrivalSpeed="8.39" duration="137.00" routeLength="1093.26" waitingTime="35.00" waitingCount="2" stopTime="0.00" timeLoss="60.36" rerouteNo="1" devices="tripinfo_carIn22761:1 routing_carIn22761:1 emissions_carIn22761:1" vType="default_016" speedFactor="1.01" vaporized="">
        <emissions CO_abs="9861.622553" CO2_abs="388464.066608" HC_abs="54.121791" PMx_abs="7.864927" NOx_abs="164.776356" fuel_abs="166.985936" electricity_abs="0"/>
    </tripinfo>
    <tripinfo id="h317c2:1" depart="57707.00" departLane="-32978638#0_1" departPos="5.10" departSpeed="0.00" departDelay="0.10" arrival="57757.00" arrivalLane="-266565295#5_1" arrivalPos="172.76" arrivalSpeed="11.76" duration="50.00" routeLength="370.53" waitingTime="11.00" waitingCount="1" stopTime="0.00" timeLoss="20.03" rerouteNo="1" devices="tripinfo_h317c2:1 routing_h317c2:1 emissions_h317c2:1" vType="default_016" speedFactor="0.93" vaporized="">
        <emissions CO_abs="2567.428735" CO2_abs="121183.104562" HC_abs="14.528530" PMx_abs="2.200875" NOx_abs="50.070336" fuel_abs="52.091929" electricity_abs="0"/>
    </tripinfo>
    <tripinfo id="carIn30817:1" depart="57681.00" departLane="315358244_1" departPos="5.10" departSpeed="0.00" departDelay="0.20" arrival="57770.00" arrivalLane="447569997#1_1" arrivalPos="180.93" arrivalSpeed="8.86" duration="89.00" routeLength="718.04" waitingTime="20.00" waitingCount="1" stopTime="0.00" timeLoss="35.83" rerouteNo="1" devices="tripinfo_carIn30817:1 routing_carIn30817:1 emissions_carIn30817:1" vType="default_016" speedFactor="1.17" vaporized="">
        <emissions CO_abs="5420.566011" CO2_abs="232232.361630" HC_abs="29.963172" PMx_abs="4.234197" NOx_abs="95.176724" fuel_abs="99.828175" electricity_abs="0"/>
    </tripinfo>
    <tripinfo id="h3326c1:2" depart="57656.00" departLane="22716069#0_1" departPos="5.10" departSpeed="0.00" departDelay="0.00" arrival="57775.00" arrivalLane="24634517#13_1" arrivalPos="111.62" arrivalSpeed="11.90" duration="119.00" routeLength="1312.81" waitingTime="0.00" waitingCount="0" stopTime="0.00" timeLoss="15.07" rerouteNo="1" devices="tripinfo_h3326c1:2 routing_h3326c1:2 emissions_h3326c1:2" vType="default_016" speedFactor="0.94" vaporized="">
        <emissions CO_abs="3814.267259" CO2_abs="291434.789414" HC_abs="24.137758" PMx_abs="4.561714" NOx_abs="114.774402" fuel_abs="125.275737" electricity_abs="0"/>
    </tripinfo>
    <tripinfo id="h645c1:1" depart="57622.00" departLane="266565295#5_1" departPos="5.10" departSpeed="0.00" departDelay="0.40" arrival="57780.00" arrivalLane="-315358244_1" arrivalPos="33.95" arrivalSpeed="14.56" duration="158.00" routeLength="1910.83" waitingTime="8.00" waitingCount="2" stopTime="0.00" timeLoss="31.60" rerouteNo="1" devices="tripinfo_h645c1:1 routing_h645c1:1 emissions_h645c1:1" vType="default_016" speedFactor="1.10" vaporized="">
        <emissions CO_abs="5409.459210" CO2_abs="408566.568463" HC_abs="33.956952" PMx_abs="7.035173" NOx_abs="163.313177" fuel_abs="175.625030" electricity_abs="0"/>
    </tripinfo>
    <tripinfo id="h5979c1:5" depart="57669.00" departLane="399835085#1_1" departPos="5.10" departSpeed="0.00" departDelay="0.00" arrival="57780.00" arrivalLane="-315358254#1_1" arrivalPos="137.16" arrivalSpeed="11.73" duration="111.00" routeLength="659.33" waitingTime="9.00" waitingCount="1" stopTime="0.00" timeLoss="24.01" rerouteNo="1" devices="tripinfo_h5979c1:5 routing_h5979c1:5 emissions_h5979c1:5" vType="default_016" speedFactor="0.85" vaporized="">
        <emissions CO_abs="4648.272818" CO2_abs="176687.869551" HC_abs="25.227731" PMx_abs="3.034820" NOx_abs="72.831912" fuel_abs="75.952222" electricity_abs="0"/>
    </tripinfo>
    <tripinfo id="h330c1:1" depart="57736.00" departLane="-32978638#0_1" departPos="5.10" departSpeed="0.00" departDelay="0.20" arrival="57784.00" arrivalLane="-266565295#5_1" arrivalPos="172.76" arrivalSpeed="15.41" duration="48.00" routeLength="370.53" waitingTime="12.00" waitingCount="1" stopTime="0.00" timeLoss="22.92" rerouteNo="1" devices="tripinfo_h330c1:1 routing_h330c1:1 emissions_h330c1:1" vType="default_016" speedFactor="1.12" vaporized="">
        <emissions CO_abs="3145.443531" CO2_abs="151547.910146" HC_abs="17.832779" PMx_abs="2.926166" NOx_abs="63.340149" fuel_abs="65.144290" electricity_abs="0"/>
    </tripinfo>
    <tripinfo id="carIn27009:1" depart="57673.00" departLane="-447569998#1_1" departPos="5.10" departSpeed="0.00" departDelay="0.50" arrival="57794.00" arrivalLane="-26677539_1" arrivalPos="152.75" arrivalSpeed="7.24" duration="121.00" routeLength="699.63" waitingTime="22.00" waitingCount="1" stopTime="0.00" timeLoss="36.64" rerouteNo="1" devices="tripinfo_carIn27009:1 routing_carIn27009:1 emissions_carIn27009:1" vType="default_015" speedFactor="0.99" vaporized="">
        <emissions CO_abs="7010.141954" CO2_abs="234131.874196" HC_abs="37.309262" PMx_abs="4.172027" NOx_abs="97.273086" fuel_abs="100.646004" electricity_abs="0"/>
    </tripinfo>
    <tripinfo id="carIn121703:1" depart="57647.00" departLane="386687232#0_1" departPos="5.10" departSpeed="0.00" departDelay="0.30" arrival="57795.00" arrivalLane="-315358244_1" arrivalPos="33.95" arrivalSpeed="11.04" duration="148.00" routeLength="1157.39" waitingTime="32.00" waitingCount="1" stopTime="0.00" timeLoss="45.86" rerouteNo="1" devices="tripinfo_carIn121703:1 routing_carIn121703:1 emissions_carIn121703:1" vType="default_016" speedFactor="0.83" vaporized="">
        <emissions CO_abs="8283.751991" CO2_abs="321052.352763" HC_abs="45.152400" PMx_abs="5.599997" NOx_abs="130.887758" fuel_abs="138.009638" electricity_abs="0"/>
    </tripinfo>
    <tripinfo id="carIn12365:1" depart="57713.00" departLane="315358244_1" departPos="5.10" departSpeed="0.00" departDelay="0.50" arrival="57801.00" arrivalLane="447569997#1_1" arrivalPos="180.93" arrivalSpeed="7.28" duration="88.00" routeLength="718.04" waitingTime="8.00" waitingCount="2" stopTime="0.00" timeLoss="26.17" rerouteNo="1" devices="tripinfo_carIn12365:1 routing_carIn12365:1 emissions_carIn12365:1" vType="default_016" speedFactor="1.00" vaporized="">
        <emissions CO_abs="3713.353926" CO2_abs="189860.090144" HC_abs="21.297677" PMx_abs="3.275999" NOx_abs="77.325191" fuel_abs="81.613502" electricity_abs="0"/>
    </tripinfo>
    <tripinfo id="carIn107084:1" depart="57601.00" departLane="124812856#0_1" departPos="5.10" departSpeed="0.00" departDelay="0.70" arrival="57803.00" arrivalLane="-128361102#1_1" arrivalPos="274.68" arrivalSpeed="14.05" duration="202.00" routeLength="2250.49" waitingTime="18.00" waitingCount="3" stopTime="0.00" timeLoss="53.17" rerouteNo="1" devices="tripinfo_carIn107084:1 routing_carIn107084:1 emissions_carIn107084:1" vType="default_016" speedFactor="1.10" vaporized="">
        <emissions CO_abs="8892.170456" CO2_abs="550286.638610" HC_abs="53.258833" PMx_abs="9.922615" NOx_abs="224.111481" fuel_abs="236.544931" electricity_abs="0"/>
    </tripinfo>
    <tripinfo id="carIn107282:1" depart="57749.00" departLane="-447569998#1_1" departPos="5.10" departSpeed="0.00" departDelay="0.00" arrival="57806.00" arrivalLane="315358242#0_1" arrivalPos="165.37" arrivalSpeed="13.45" duration="57.00" routeLength="448.50" waitingTime="6.00" waitingCount="1" stopTime="0.00" timeLoss="14.68" rerouteNo="1" devices="tripinfo_carIn107282:1 routing_carIn107282:1 emissions_carIn107282:1" vType="default_016" speedFactor="0.99" vaporized="">
        <emissions CO_abs="2132.496723" CO2_abs="117530.208731" HC_abs="12.438839" PMx_abs="1.958472" NOx_abs="47.467017" fuel_abs="50.521649" electricity_abs="0"/>
    </tripinfo>
    <tripinfo id="carIn129809:1" depart="57729.00" departLane="-447569998#1_1" departPos="5.10" departSpeed="0.00" departDelay="1.00" arrival="57807.00" arrivalLane="-315358244_1" arrivalPos="33.95" arrivalSpeed="14.00" duration="78.00" routeLength="706.49" waitingTime="6.00" waitingCount="1" stopTime="0.00" timeLoss="17.78" rerouteNo="1" devices="tripinfo_carIn129809:1 routing_carIn129809:1 emissions_carIn129809:1" vType="default_015" speedFactor="1.01" vaporized="">
        <emissions CO_abs="2557.626119" CO2_abs="160121.793883" HC_abs="15.347030" PMx_abs="2.600399" NOx_abs="63.748909" fuel_abs="68.829962" electricity_abs="0"/>
    </tripinfo>
    <tripinfo id="h16072c2:3" depart="57663.00" departLane="315358254#0_1" departPos="5.10" departSpeed="0.00" departDelay="2.50" arrival="57814.00" arrivalLane="386687235_1" arrivalPos="80.84" arrivalSpeed="13.01" duration="151.00" routeLength="1611.92" waitingTime="8.00" waitingCount="1" stopTime="0.00" timeLoss="26.76" rerouteNo="1" devices="tripinfo_h16072c2:3 routing_h16072c2:3 emissions_h16072c2:3" vType="default_016" speedFactor="0.95" vaporized="">
        <emissions CO_abs="5348.627341" CO2_abs="356308.237682" HC_abs="32.681281" PMx_abs="5.942428" NOx_abs="142.656021" fuel_abs="153.162175" electricity_abs="0"/>
    </tripinfo>
    <tripinfo id="h3154c1:1" depart="57658.00" departLane="24634507_1" departPos="5.10" departSpeed="0.00" departDelay="0.00" arrival="57827.00" arrivalLane="-266565295#5_1" arrivalPos="172.76" arrivalSpeed="13.83" duration="169.00" routeLength="1206.22" waitingTime="55.00" waitingCount="2" stopTime="0.00" timeLoss="78.66" rerouteNo="1" devices="tripinfo_h3154c1:1 routing_h3154c1:1 emissions_h3154c1:1" vType="default_016" speedFactor="1.00" vaporized="">
        <emissions CO_abs="12114.400139" CO2_abs="441027.063574" HC_abs="65.465303" PMx_abs="8.603535" NOx_abs="185.394309" fuel_abs="189.581997" electricity_abs="0"/>
    </tripinfo>
    <tripinfo id="carIn82278:1" depart="57702.00" departLane="-306240162#1_0" departPos="5.10" departSpeed="0.00" departDelay="0.70" arrival="57829.00" arrivalLane="399835085#1_1" arrivalPos="212.23" arrivalSpeed="7.40" duration="127.00" routeLength="1093.26" waitingTime="23.00" waitingCount="1" stopTime="0.00" timeLoss="43.86" rerouteNo="1" devices="tripinfo_carIn82278:1 routing_carIn82278:1 emissions_carIn82278:1" vType="default_016" speedFactor="0.94" vaporized="">
        <emissions CO_abs="8223.870991" CO2_abs="347847.161385" HC_abs="45.640715" PMx_abs="6.705696" NOx_abs="145.051791" fuel_abs="149.526298" electricity_abs="0"/>
    </tripinfo>
    <tripinfo id="h12244c1:3" depart="57612.00" departLane="315358244_1" departPos="5.10" departSpeed="0.00" departDelay="0.40" arrival="57830.00" arrivalLane="386687235_1" arrivalPos="80.84" arrivalSpeed="14.60" duration="218.00" routeLength="1186.14" waitingTime="111.00" waitingCount="4" stopTime="0.00" timeLoss="138.36" rerouteNo="1" devices="tripinfo_h12244c1:3 routing_h12244c1:3 emissions_h12244c1:3" vType="default_016" speedFactor="1.09" vaporized="">
        <emissions CO_abs="20454.611596" CO2_abs="549975.130567" HC_abs="106.043083" PMx_abs="11.584257" NOx_abs="236.274149" fuel_abs="236.418257" electricity_abs="0"/>
    </tripinfo>
    <tripinfo id="h9563c2:5" depart="57631.00" departLane="315358244_1" departPos="5.10" departSpeed="0.00" departDelay="0.70" arrival="57833.00" arrivalLane="386687235_1" arrivalPos="80.84" arrivalSpeed="12.43" duration="202.00" routeLength="1186.14" waitingTime="83.00" waitingCount="4" stopTime="0.00" timeLoss="111.39" rerouteNo="1" devices="tripinfo_h9563c2:5 routing_h9563c2:5 emissions_h9563c2:5" vType="default_016" speedFactor="0.96" vaporized="">
        <emissions CO_abs="15611.058594" CO2_abs="458815.061588" HC_abs="81.831962" PMx_abs="9.245211" NOx_abs="194.927542" fuel_abs="197.230551" electricity_abs="0"/>
    </tripinfo>
    <tripinfo id="carIn86816:1" depart="57617.00" departLane="128361102#0_1" departPos="5.10" departSpeed="0.00" departDelay="0.80" arrival="57836.00" arrivalLane="201956811#0_1" arrivalPos="40.40" arrivalSpeed="14.31" duration="219.00" routeLength="2067.33" waitingTime="47.00" waitingCount="3" stopTime="0.00" timeLoss="80.79" rerouteNo="1" devices="tripinfo_carIn86816:1 routing_carIn86816:1 emissions_carIn86816:1" vType="default_016" speedFactor="1.09" vaporized="">
        <emissions CO_abs="12755.803242" CO2_abs="567634.865318" HC_abs="71.393388" PMx_abs="10.768399" NOx_abs="235.126721" fuel_abs="244.004428" electricity_abs="0"/>
    </tripinfo>
    <tripinfo id="h11737c1:1" depart="57665.00" departLane="272042143_1" departPos="5.10" departSpeed="0.00" departDelay="1.50" arrival="57837.00" arrivalLane="-315358254#1_1" arrivalPos="137.16" arrivalSpeed="13.22" duration="172.00" routeLength="1596.88" waitingTime="35.00" waitingCount="2" stopTime="0.00" timeLoss="59.69" rerouteNo="1" devices="tripinfo_h11737c1:1 routing_h11737c1:1 emissions_h11737c1:1" vType="default_016" speedFactor="1.04" vaporized="">
        <emissions CO_abs="9212.230695" CO2_abs="424346.627389" HC_abs="51.777642" PMx_abs="7.620532" NOx_abs="172.983083" fuel_abs="182.410689" electricity_abs="0"/>
    </tripinfo>
    <tripinfo id="carIn126288:1" depart="57674.00" departLane="272042143_1" departPos="5.10" departSpeed="0.00" departDelay="0.00" arrival="57839.00" arrivalLane="-315358254#1_1" arrivalPos="137.16" arrivalSpeed="13.36" duration="165.00" routeLength="1596.88" waitingTime="23.00" waitingCount="2" stopTime="0.00" timeLoss="47.41" rerouteNo="1" devices="tripinfo_carIn126288:1 routing_carIn126288:1 emissions_carIn126288:1" vType="default_016" speedFactor="0.99" vaporized="">
        <emissions CO_abs="6114.619019" CO2_abs="372550.465974" HC_abs="36.528375" PMx_abs="6.260383" NOx_abs="149.111424" fuel_abs="160.144445" electricity_abs="0"/>
    </tripinfo>
    <tripinfo id="50R_frequency3.17" depart="57674.00" departLane="-18809673#6_1" departPos="12.10" departSpeed="0.00" departDelay="0.70" arrival="57841.00" arrivalLane="201956811#0_1" arrivalPos="40.40" arrivalSpeed="11.05" duration="167.00" routeLength="1954.47" waitingTime="0.00" waitingCount="0" stopTime="0.00" timeLoss="21.98" rerouteNo="1" devices="tripinfo_50R_frequency3.17 routing_50R_frequency3.17 emissions_50R_frequency3.17" vType="bus" speedFactor="1.00" vaporized="">
        <emissions CO_abs="3039.134737" CO2_abs="1914005.415897" HC_abs="648.552459" PMx_abs="326.557451" NOx_abs="14814.371239" fuel_abs="816.314165" electricity_abs="0"/>
    </tripinfo>
    <tripinfo id="h3864c1:3" depart="57678.00" departLane="24693977#1_1" departPos="5.10" departSpeed="0.00" departDelay="0.00" arrival="57841.00" arrivalLane="201956820_1" arrivalPos="48.33" arrivalSpeed="12.89" duration="163.00" routeLength="1574.85" waitingTime="3.00" waitingCount="2" stopTime="0.00" timeLoss="29.30" rerouteNo="1" devices="tripinfo_h3864c1:3 routing_h3864c1:3 emissions_h3864c1:3" vType="default_016" speedFactor="0.96" vaporized="">
        <emissions CO_abs="6505.365103" CO2_abs="401376.786862" HC_abs="39.001894" PMx_abs="6.903554" NOx_abs="163.244970" fuel_abs="172.535245" electricity_abs="0"/>
    </tripinfo>
    <tripinfo id="carIn102915:1" depart="57643.00" departLane="128361102#0_1" departPos="5.10" departSpeed="0.00" departDelay="0.40" arrival="57843.00" arrivalLane="201956811#0_1" arrivalPos="40.40" arrivalSpeed="13.00" duration="200.00" routeLength="2067.33" waitingTime="16.00" waitingCount="1" stopTime="0.00" timeLoss="42.98" rerouteNo="1" devices="tripinfo_carIn102915:1 routing_carIn102915:1 emissions_carIn102915:1" vType="default_016" speedFactor="0.96" vaporized="">
        <emissions CO_abs="7615.236651" CO2_abs="475868.456428" HC_abs="45.786505" PMx_abs="7.966701" NOx_abs="190.618754" fuel_abs="204.556535" electricity_abs="0"/>
    </tripinfo>
    <tripinfo id="h9953c2:3" depart="57682.00" departLane="-54169231#2_1" departPos="5.10" departSpeed="0.00" departDelay="0.00" arrival="57843.00" arrivalLane="386687235_1" arrivalPos="80.84" arrivalSpeed="13.15" duration="161.00" routeLength="1535.60" waitingTime="2.00" waitingCount="1" stopTime="0.00" timeLoss="32.69" rerouteNo="1" devices="tripinfo_h9953c2:3 routing_h9953c2:3 emissions_h9953c2:3" vType="default_016" speedFactor="0.98" vaporized="">
        <emissions CO_abs="6419.343561" CO2_abs="395894.211169" HC_abs="38.493328" PMx_abs="6.812507" NOx_abs="160.816331" fuel_abs="170.178535" electricity_abs="0"/>
    </tripinfo>
    <tripinfo id="randUni15030:1" depart="57735.00" departLane="386687232#0_1" departPos="5.10" departSpeed="0.00" departDelay="0.10" arrival="57847.00" arrivalLane="26677539_1" arrivalPos="151.98" arrivalSpeed="8.80" duration="112.00" routeLength="919.89" waitingTime="27.00" waitingCount="1" stopTime="0.00" timeLoss="40.43" rerouteNo="1" devices="tripinfo_randUni15030:1 routing_randUni15030:1 emissions_randUni15030:1" vType="random_016" speedFactor="1.17" vaporized="">
        <emissions CO_abs="7118.734132" CO2_abs="278378.248817" HC_abs="38.808982" PMx_abs="5.301174" NOx_abs="116.025838" fuel_abs="119.664745" electricity_abs="0"/>
    </tripinfo>
    <tripinfo id="carIn8642:1" depart="57774.00" departLane="-447569998#1_1" departPos="5.10" departSpeed="0.00" departDelay="0.90" arrival="57852.00" arrivalLane="-315358244_1" arrivalPos="33.95" arrivalSpeed="14.36" duration="78.00" routeLength="706.49" waitingTime="13.00" waitingCount="1" stopTime="0.00" timeLoss="22.38" rerouteNo="1" devices="tripinfo_carIn8642:1 routing_carIn8642:1 emissions_carIn8642:1" vType="default_016" speedFactor="1.08" vaporized="">
        <emissions CO_abs="3583.383538" CO2_abs="185738.165392" HC_abs="20.610786" PMx_abs="3.284171" NOx_abs="75.586837" fuel_abs="79.841538" electricity_abs="0"/>
    </tripinfo>
    <tripinfo id="randUni33724:1" depart="57646.00" departLane="128361102#0_1" departPos="5.10" departSpeed="0.00" departDelay="1.20" arrival="57855.00" arrivalLane="201956811#0_1" arrivalPos="40.40" arrivalSpeed="12.93" duration="209.00" routeLength="2067.33" waitingTime="21.00" waitingCount="2" stopTime="0.00" timeLoss="52.59" rerouteNo="1" devices="tripinfo_randUni33724:1 routing_randUni33724:1 emissions_randUni33724:1" vType="random_016" speedFactor="0.97" vaporized="">
        <emissions CO_abs="7961.314179" CO2_abs="494267.011691" HC_abs="47.821766" PMx_abs="8.506946" NOx_abs="199.751258" fuel_abs="212.464988" electricity_abs="0"/>
    </tripinfo>
    <tripinfo id="carIn23683:1" depart="57641.00" departLane="-306240162#1_0" departPos="5.10" departSpeed="0.00" departDelay="0.20" arrival="57858.00" arrivalLane="201956820_2" arrivalPos="48.33" arrivalSpeed="15.04" duration="217.00" routeLength="2993.47" waitingTime="6.00" waitingCount="1" stopTime="0.00" timeLoss="35.27" rerouteNo="1" devices="tripinfo_carIn23683:1 routing_carIn23683:1 emissions_carIn23683:1" vType="default_016" speedFactor="1.10" vaporized="">
        <emissions CO_abs="8526.043756" CO2_abs="703596.384476" HC_abs="55.222638" PMx_abs="12.515983" NOx_abs="281.432168" fuel_abs="302.444540" electricity_abs="0"/>
    </tripinfo>
    <tripinfo id="carIn28951:1" depart="57606.00" departLane="10425609#0_1" departPos="5.10" departSpeed="0.00" departDelay="0.20" arrival="57862.00" arrivalLane="-128361102#1_1" arrivalPos="274.68" arrivalSpeed="10.99" duration="256.00" routeLength="2113.04" waitingTime="41.00" waitingCount="2" stopTime="0.00" timeLoss="70.63" rerouteNo="1" devices="tripinfo_carIn28951:1 routing_carIn28951:1 emissions_carIn28951:1" vType="default_016" speedFactor="0.84" vaporized="">
        <emissions CO_abs="11801.000829" CO2_abs="536054.854973" HC_abs="66.163487" PMx_abs="9.142335" NOx_abs="217.462500" fuel_abs="230.430555" electricity_abs="0"/>
    </tripinfo>
    <tripinfo id="carIn81046:1" depart="57611.00" departLane="124812856#0_1" departPos="5.10" departSpeed="0.00" departDelay="2.50" arrival="57864.00" arrivalLane="-128361102#1_1" arrivalPos="274.68" arrivalSpeed="14.00" duration="253.00" routeLength="2232.46" waitingTime="50.00" waitingCount="3" stopTime="0.00" timeLoss="122.22" rerouteNo="1" devices="tripinfo_carIn81046:1 routing_carIn81046:1 emissions_carIn81046:1" vType="default_016" speedFactor="1.25" vaporized="">
        <emissions CO_abs="15490.992823" CO2_abs="743188.068044" HC_abs="88.030974" PMx_abs="14.304859" NOx_abs="310.724794" fuel_abs="319.466498" electricity_abs="0"/>
    </tripinfo>
    <tripinfo id="carIn96510:1" depart="57645.00" departLane="-306240162#1_0" departPos="5.10" departSpeed="0.00" departDelay="0.20" arrival="57864.00" arrivalLane="201956820_2" arrivalPos="48.33" arrivalSpeed="13.37" duration="219.00" routeLength="2993.47" waitingTime="2.00" waitingCount="1" stopTime="0.00" timeLoss="29.86" rerouteNo="1" devices="tripinfo_carIn96510:1 routing_carIn96510:1 emissions_carIn96510:1" vType="default_016" speedFactor="1.05" vaporized="">
        <emissions CO_abs="7774.952943" CO2_abs="643911.816302" HC_abs="50.540309" PMx_abs="11.363450" NOx_abs="257.837974" fuel_abs="276.788874" electricity_abs="0"/>
    </tripinfo>
    <tripinfo id="carIn12775:1" depart="57676.00" departLane="10425609#0_1" departPos="5.10" departSpeed="0.00" departDelay="0.60" arrival="57873.00" arrivalLane="18809673#0_1" arrivalPos="473.56" arrivalSpeed="11.81" duration="197.00" routeLength="1959.45" waitingTime="7.00" waitingCount="1" stopTime="0.00" timeLoss="31.56" rerouteNo="1" devices="tripinfo_carIn12775:1 routing_carIn12775:1 emissions_carIn12775:1" vType="default_016" speedFactor="0.88" vaporized="">
        <emissions CO_abs="6346.459356" CO2_abs="418013.773711" HC_abs="38.571007" PMx_abs="6.528701" NOx_abs="165.044198" fuel_abs="179.687514" electricity_abs="0"/>
    </tripinfo>
    <tripinfo id="carIn50326:1" depart="57651.00" departLane="128361102#0_1" departPos="5.10" departSpeed="0.00" departDelay="0.30" arrival="57874.00" arrivalLane="18809673#0_1" arrivalPos="473.56" arrivalSpeed="12.65" duration="223.00" routeLength="1591.07" waitingTime="82.00" waitingCount="2" stopTime="0.00" timeLoss="114.62" rerouteNo="1" devices="tripinfo_carIn50326:1 routing_carIn50326:1 emissions_carIn50326:1" vType="default_016" speedFactor="1.19" vaporized="">
        <emissions CO_abs="17052.935584" CO2_abs="579422.967671" HC_abs="91.153704" PMx_abs="11.569453" NOx_abs="244.507344" fuel_abs="249.074157" electricity_abs="0"/>
    </tripinfo>
    <tripinfo id="carIn80064:1" depart="57603.00" departLane="128361109#1_1" departPos="5.10" departSpeed="0.00" departDelay="0.40" arrival="57878.00" arrivalLane="-315358254#1_1" arrivalPos="137.16" arrivalSpeed="12.01" duration="275.00" routeLength="1587.97" waitingTime="122.00" waitingCount="5" stopTime="0.00" timeLoss="178.62" rerouteNo="1" devices="tripinfo_carIn80064:1 routing_carIn80064:1 emissions_carIn80064:1" vType="default_016" speedFactor="0.93" vaporized="">
        <emissions CO_abs="24422.188584" CO2_abs="751961.931971" HC_abs="128.947740" PMx_abs="15.755822" NOx_abs="321.390574" fuel_abs="323.243697" electricity_abs="0"/>
    </tripinfo>
    <tripinfo id="h17600c1:1" depart="57662.00" departLane="272042143_1" departPos="5.10" departSpeed="0.00" departDelay="0.30" arrival="57885.00" arrivalLane="201238729#3_1" arrivalPos="431.02" arrivalSpeed="12.68" duration="223.00" routeLength="2100.26" waitingTime="33.00" waitingCount="2" stopTime="0.00" timeLoss="57.68" rerouteNo="1" devices="tripinfo_h17600c1:1 routing_h17600c1:1 emissions_h17600c1:1" vType="default_016" speedFactor="0.92" vaporized="">
        <emissions CO_abs="9429.674995" CO2_abs="461925.369377" HC_abs="53.689238" PMx_abs="7.888291" NOx_abs="186.293245" fuel_abs="198.564448" electricity_abs="0"/>
    </tripinfo>