<?xml version="1.0" encoding="UTF-8"?>

<!-- generated on 2021-10-26 13:58:15 by Eclipse SUMO sumo Version 1.10.0
<configuration xmlns:xsi="http://www.w3.org/2001/XMLSchema-instance" xsi:noNamespaceSchemaLocation="http://sumo.dlr.de/xsd/sumoConfiguration.xsd">

    <input>
        <net-file value="/Users/behradkoohy/sumo-scratchpad/RESCO/environments/ingolstadt21/ingolstadt21.net.xml"/>
        <route-files value="/Users/behradkoohy/sumo-scratchpad/RESCO/environments/ingolstadt21/ingolstadt21.rou.xml"/>
    </input>

    <output>
        <tripinfo-output value="/Users/behradkoohy/sumo-scratchpad/RESCO/logs/STOCHASTIC-tr0-ingolstadt21-21-mplight-wait/tripinfo_7.xml"/>
        <tripinfo-output.write-unfinished value="true"/>
    </output>

    <time>
        <begin value="57600"/>
        <end value="61200"/>
    </time>

    <processing>
        <time-to-teleport value="-1"/>
    </processing>

    <report>
        <no-warnings value="true"/>
        <no-step-log value="true"/>
    </report>

    <emissions>
        <device.emissions.probability value="1"/>
    </emissions>

    <traci_server>
        <remote-port value="59922"/>
    </traci_server>

    <random_number>
        <random value="true"/>
    </random_number>

</configuration>
-->

<tripinfos xmlns:xsi="http://www.w3.org/2001/XMLSchema-instance" xsi:noNamespaceSchemaLocation="http://sumo.dlr.de/xsd/tripinfo_file.xsd">
    <tripinfo id="h15454c2:3" depart="57612.00" departLane="24608844_1" departPos="5.10" departSpeed="0.00" departDelay="0.50" arrival="57650.00" arrivalLane="32978638#0_1" arrivalPos="49.29" arrivalSpeed="14.07" duration="38.00" routeLength="354.79" waitingTime="0.00" waitingCount="0" stopTime="0.00" timeLoss="6.11" rerouteNo="1" devices="tripinfo_h15454c2:3 routing_h15454c2:3 emissions_h15454c2:3" vType="default_016" speedFactor="1.08" vaporized="">
        <emissions CO_abs="2017.768985" CO2_abs="115200.382404" HC_abs="11.903065" PMx_abs="2.127727" NOx_abs="47.978867" fuel_abs="49.519757" electricity_abs="0"/>
    </tripinfo>
    <tripinfo id="carIn60260:1" depart="57606.00" departLane="315358254#0_1" departPos="5.10" departSpeed="0.00" departDelay="0.90" arrival="57665.00" arrivalLane="399835085#1_1" arrivalPos="212.23" arrivalSpeed="6.26" duration="59.00" routeLength="430.98" waitingTime="0.00" waitingCount="0" stopTime="0.00" timeLoss="7.29" rerouteNo="1" devices="tripinfo_carIn60260:1 routing_carIn60260:1 emissions_carIn60260:1" vType="default_016" speedFactor="0.89" vaporized="">
        <emissions CO_abs="2296.744990" CO2_abs="106825.386252" HC_abs="12.932598" PMx_abs="1.845100" NOx_abs="44.040511" fuel_abs="45.920222" electricity_abs="0"/>
    </tripinfo>
    <tripinfo id="carIn53971:1" depart="57640.00" departLane="272042143_1" departPos="5.10" departSpeed="0.00" departDelay="0.80" arrival="57693.00" arrivalLane="24634414#1_1" arrivalPos="162.19" arrivalSpeed="7.90" duration="53.00" routeLength="493.04" waitingTime="0.00" waitingCount="0" stopTime="0.00" timeLoss="9.31" rerouteNo="1" devices="tripinfo_carIn53971:1 routing_carIn53971:1 emissions_carIn53971:1" vType="default_016" speedFactor="1.06" vaporized="">
        <emissions CO_abs="2611.091152" CO2_abs="151797.674999" HC_abs="15.447267" PMx_abs="2.683898" NOx_abs="62.341208" fuel_abs="65.251533" electricity_abs="0"/>
    </tripinfo>
    <tripinfo id="h3688c1:1" depart="57625.00" departLane="201201950#1_1" departPos="5.10" departSpeed="0.00" departDelay="0.00" arrival="57717.00" arrivalLane="32978638#0_1" arrivalPos="49.29" arrivalSpeed="13.52" duration="92.00" routeLength="1089.75" waitingTime="0.00" waitingCount="0" stopTime="0.00" timeLoss="11.33" rerouteNo="1" devices="tripinfo_h3688c1:1 routing_h3688c1:1 emissions_h3688c1:1" vType="default_016" speedFactor="0.99" vaporized="">
        <emissions CO_abs="3280.628665" CO2_abs="254323.010061" HC_abs="20.868759" PMx_abs="4.237057" NOx_abs="101.567481" fuel_abs="109.322508" electricity_abs="0"/>
    </tripinfo>
    <tripinfo id="h7800c1:5" depart="57696.00" departLane="-447569998#1_1" departPos="5.10" departSpeed="0.00" departDelay="0.00" arrival="57723.00" arrivalLane="-447569998#1_1" arrivalPos="180.76" arrivalSpeed="7.66" duration="27.00" routeLength="175.66" waitingTime="0.00" waitingCount="0" stopTime="0.00" timeLoss="3.69" rerouteNo="1" devices="tripinfo_h7800c1:5 routing_h7800c1:5 emissions_h7800c1:5" vType="default_016" speedFactor="0.93" vaporized="">
        <emissions CO_abs="1347.366104" CO2_abs="54654.984763" HC_abs="7.381881" PMx_abs="0.876738" NOx_abs="22.167947" fuel_abs="23.494368" electricity_abs="0"/>
    </tripinfo>
    <tripinfo id="h317c2:1" depart="57707.00" departLane="-32978638#0_1" departPos="5.10" departSpeed="0.00" departDelay="0.10" arrival="57740.00" arrivalLane="-266565295#5_1" arrivalPos="172.76" arrivalSpeed="13.69" duration="33.00" routeLength="370.53" waitingTime="0.00" waitingCount="0" stopTime="0.00" timeLoss="5.13" rerouteNo="1" devices="tripinfo_h317c2:1 routing_h317c2:1 emissions_h317c2:1" vType="default_016" speedFactor="1.00" vaporized="">
        <emissions CO_abs="1618.702588" CO2_abs="107303.264104" HC_abs="9.904375" PMx_abs="1.936059" NOx_abs="44.033268" fuel_abs="46.125005" electricity_abs="0"/>
    </tripinfo>
    <tripinfo id="h4538c1:1" depart="57701.00" departLane="-10427692#1_1" departPos="5.10" departSpeed="0.00" departDelay="0.00" arrival="57754.00" arrivalLane="-128361102#1_1" arrivalPos="274.68" arrivalSpeed="13.69" duration="53.00" routeLength="440.74" waitingTime="12.00" waitingCount="1" stopTime="0.00" timeLoss="22.69" rerouteNo="1" devices="tripinfo_h4538c1:1 routing_h4538c1:1 emissions_h4538c1:1" vType="default_016" speedFactor="1.05" vaporized="">
        <emissions CO_abs="3066.104341" CO2_abs="135929.278679" HC_abs="17.140377" PMx_abs="2.585373" NOx_abs="56.634621" fuel_abs="58.430745" electricity_abs="0"/>
    </tripinfo>
    <tripinfo id="S5R_frequency1.2" depart="57634.00" departLane="315358250#0_1" departPos="12.10" departSpeed="0.00" departDelay="22.40" arrival="57755.00" arrivalLane="386687235_1" arrivalPos="80.84" arrivalSpeed="13.53" duration="121.00" routeLength="1115.62" waitingTime="11.00" waitingCount="3" stopTime="0.00" timeLoss="39.45" rerouteNo="1" devices="tripinfo_S5R_frequency1.2 routing_S5R_frequency1.2 emissions_S5R_frequency1.2" vType="bus" speedFactor="1.00" vaporized="">
        <emissions CO_abs="2209.920942" CO2_abs="1338471.714296" HC_abs="467.100026" PMx_abs="235.758213" NOx_abs="10512.769364" fuel_abs="570.826145" electricity_abs="0"/>
    </tripinfo>
    <tripinfo id="h12244c1:3" depart="57612.00" departLane="315358244_1" departPos="5.10" departSpeed="0.00" departDelay="0.40" arrival="57758.00" arrivalLane="386687235_1" arrivalPos="80.84" arrivalSpeed="12.07" duration="146.00" routeLength="1186.14" waitingTime="17.00" waitingCount="4" stopTime="0.00" timeLoss="48.76" rerouteNo="1" devices="tripinfo_h12244c1:3 routing_h12244c1:3 emissions_h12244c1:3" vType="default_016" speedFactor="0.89" vaporized="">
        <emissions CO_abs="5677.528069" CO2_abs="298543.474977" HC_abs="32.781002" PMx_abs="4.979850" NOx_abs="120.303634" fuel_abs="128.332434" electricity_abs="0"/>
    </tripinfo>
    <tripinfo id="h3568c1:3" depart="57656.00" departLane="266565295#5_1" departPos="5.10" departSpeed="0.00" departDelay="0.80" arrival="57758.00" arrivalLane="-24634415_1" arrivalPos="62.03" arrivalSpeed="11.83" duration="102.00" routeLength="807.40" waitingTime="14.00" waitingCount="1" stopTime="0.00" timeLoss="31.75" rerouteNo="1" devices="tripinfo_h3568c1:3 routing_h3568c1:3 emissions_h3568c1:3" vType="default_016" speedFactor="0.92" vaporized="">
        <emissions CO_abs="5403.415211" CO2_abs="255253.457570" HC_abs="30.583511" PMx_abs="4.661406" NOx_abs="105.848254" fuel_abs="109.723523" electricity_abs="0"/>
    </tripinfo>
    <tripinfo id="carIn80064:1" depart="57603.00" departLane="128361109#1_1" departPos="5.10" departSpeed="0.00" departDelay="0.40" arrival="57760.00" arrivalLane="-315358254#1_1" arrivalPos="137.16" arrivalSpeed="11.38" duration="157.00" routeLength="1587.97" waitingTime="35.00" waitingCount="1" stopTime="0.00" timeLoss="58.89" rerouteNo="1" devices="tripinfo_carIn80064:1 routing_carIn80064:1 emissions_carIn80064:1" vType="default_016" speedFactor="0.90" vaporized="">
        <emissions CO_abs="11117.859409" CO2_abs="509264.852751" HC_abs="62.636260" PMx_abs="10.211042" NOx_abs="213.640956" fuel_abs="218.912360" electricity_abs="0"/>
    </tripinfo>
    <tripinfo id="carIn30817:1" depart="57681.00" departLane="315358244_1" departPos="5.10" departSpeed="0.00" departDelay="0.20" arrival="57760.00" arrivalLane="447569997#1_1" arrivalPos="180.93" arrivalSpeed="6.62" duration="79.00" routeLength="718.04" waitingTime="0.00" waitingCount="0" stopTime="0.00" timeLoss="12.11" rerouteNo="1" devices="tripinfo_carIn30817:1 routing_carIn30817:1 emissions_carIn30817:1" vType="default_016" speedFactor="0.92" vaporized="">
        <emissions CO_abs="3005.357941" CO2_abs="169598.676724" HC_abs="17.631380" PMx_abs="2.868652" NOx_abs="68.852207" fuel_abs="72.903716" electricity_abs="0"/>
    </tripinfo>
    <tripinfo id="carIn27009:1" depart="57673.00" departLane="-447569998#1_1" departPos="5.10" departSpeed="0.00" departDelay="0.50" arrival="57769.00" arrivalLane="-26677539_1" arrivalPos="152.75" arrivalSpeed="6.91" duration="96.00" routeLength="699.63" waitingTime="0.00" waitingCount="0" stopTime="0.00" timeLoss="10.32" rerouteNo="1" devices="tripinfo_carIn27009:1 routing_carIn27009:1 emissions_carIn27009:1" vType="default_015" speedFactor="0.98" vaporized="">
        <emissions CO_abs="3597.624501" CO2_abs="170038.917000" HC_abs="20.295559" PMx_abs="2.805919" NOx_abs="69.340629" fuel_abs="73.093486" electricity_abs="0"/>
    </tripinfo>
    <tripinfo id="h3326c1:2" depart="57656.00" departLane="22716069#0_1" departPos="5.10" departSpeed="0.00" departDelay="0.00" arrival="57773.00" arrivalLane="24634517#13_1" arrivalPos="111.62" arrivalSpeed="13.36" duration="117.00" routeLength="1312.81" waitingTime="0.00" waitingCount="0" stopTime="0.00" timeLoss="15.15" rerouteNo="1" devices="tripinfo_h3326c1:2 routing_h3326c1:2 emissions_h3326c1:2" vType="default_016" speedFactor="0.96" vaporized="">
        <emissions CO_abs="4052.585295" CO2_abs="291139.928811" HC_abs="25.275061" PMx_abs="4.948029" NOx_abs="117.349288" fuel_abs="125.148580" electricity_abs="0"/>
    </tripinfo>
    <tripinfo id="h3154c1:1" depart="57658.00" departLane="24634507_1" departPos="5.10" departSpeed="0.00" departDelay="0.00" arrival="57777.00" arrivalLane="-266565295#5_1" arrivalPos="172.76" arrivalSpeed="13.14" duration="119.00" routeLength="1206.22" waitingTime="12.00" waitingCount="1" stopTime="0.00" timeLoss="30.21" rerouteNo="1" devices="tripinfo_h3154c1:1 routing_h3154c1:1 emissions_h3154c1:1" vType="default_016" speedFactor="1.01" vaporized="">
        <emissions CO_abs="5351.985863" CO2_abs="314066.797347" HC_abs="31.769521" PMx_abs="5.660927" NOx_abs="128.612691" fuel_abs="135.004211" electricity_abs="0"/>
    </tripinfo>
    <tripinfo id="h5979c1:5" depart="57669.00" departLane="399835085#1_1" departPos="5.10" departSpeed="0.00" departDelay="0.00" arrival="57779.00" arrivalLane="-315358254#1_1" arrivalPos="137.16" arrivalSpeed="11.79" duration="110.00" routeLength="659.33" waitingTime="13.00" waitingCount="1" stopTime="0.00" timeLoss="27.15" rerouteNo="1" devices="tripinfo_h5979c1:5 routing_h5979c1:5 emissions_h5979c1:5" vType="default_016" speedFactor="0.89" vaporized="">
        <emissions CO_abs="5496.027034" CO2_abs="208439.275763" HC_abs="29.825128" PMx_abs="3.604284" NOx_abs="85.880041" fuel_abs="89.601087" electricity_abs="0"/>
    </tripinfo>
    <tripinfo id="h330c1:1" depart="57736.00" departLane="-32978638#0_1" departPos="5.10" departSpeed="0.00" departDelay="0.20" arrival="57785.00" arrivalLane="-266565295#5_1" arrivalPos="172.76" arrivalSpeed="13.29" duration="49.00" routeLength="370.53" waitingTime="11.00" waitingCount="1" stopTime="0.00" timeLoss="20.94" rerouteNo="1" devices="tripinfo_h330c1:1 routing_h330c1:1 emissions_h330c1:1" vType="default_016" speedFactor="0.98" vaporized="">
        <emissions CO_abs="2691.154140" CO2_abs="129882.305524" HC_abs="15.310440" PMx_abs="2.418041" NOx_abs="53.944608" fuel_abs="55.831248" electricity_abs="0"/>
    </tripinfo>
    <tripinfo id="h9563c2:5" depart="57631.00" departLane="315358244_1" departPos="5.10" departSpeed="0.00" departDelay="0.70" arrival="57787.00" arrivalLane="386687235_1" arrivalPos="80.84" arrivalSpeed="12.60" duration="156.00" routeLength="1186.14" waitingTime="46.00" waitingCount="2" stopTime="0.00" timeLoss="65.69" rerouteNo="1" devices="tripinfo_h9563c2:5 routing_h9563c2:5 emissions_h9563c2:5" vType="default_016" speedFactor="0.96" vaporized="">
        <emissions CO_abs="10343.775087" CO2_abs="380044.386668" HC_abs="55.982194" PMx_abs="7.106422" NOx_abs="157.482840" fuel_abs="163.368122" electricity_abs="0"/>
    </tripinfo>
    <tripinfo id="carIn118591:1" depart="57689.00" departLane="315358244_1" departPos="5.10" departSpeed="0.00" departDelay="0.20" arrival="57789.00" arrivalLane="386687235_1" arrivalPos="80.84" arrivalSpeed="14.76" duration="100.00" routeLength="1186.14" waitingTime="5.00" waitingCount="1" stopTime="0.00" timeLoss="22.53" rerouteNo="1" devices="tripinfo_carIn118591:1 routing_carIn118591:1 emissions_carIn118591:1" vType="default_016" speedFactor="1.12" vaporized="">
        <emissions CO_abs="3787.024862" CO2_abs="286159.713163" HC_abs="23.845162" PMx_abs="4.885618" NOx_abs="114.120597" fuel_abs="123.007713" electricity_abs="0"/>
    </tripinfo>
    <tripinfo id="carIn22761:1" depart="57616.00" departLane="-306240162#1_0" departPos="5.10" departSpeed="0.00" departDelay="2.10" arrival="57790.00" arrivalLane="399835085#1_1" arrivalPos="212.23" arrivalSpeed="9.19" duration="174.00" routeLength="1093.26" waitingTime="73.00" waitingCount="3" stopTime="0.00" timeLoss="104.95" rerouteNo="1" devices="tripinfo_carIn22761:1 routing_carIn22761:1 emissions_carIn22761:1" vType="default_016" speedFactor="1.14" vaporized="">
        <emissions CO_abs="16545.314459" CO2_abs="547756.785716" HC_abs="88.388450" PMx_abs="11.740934" NOx_abs="236.066339" fuel_abs="235.461136" electricity_abs="0"/>
    </tripinfo>
    <tripinfo id="carIn86816:1" depart="57617.00" departLane="128361102#0_1" departPos="5.10" departSpeed="0.00" departDelay="0.80" arrival="57792.00" arrivalLane="201956811#0_1" arrivalPos="40.40" arrivalSpeed="14.05" duration="175.00" routeLength="2067.33" waitingTime="6.00" waitingCount="1" stopTime="0.00" timeLoss="26.17" rerouteNo="1" devices="tripinfo_carIn86816:1 routing_carIn86816:1 emissions_carIn86816:1" vType="default_016" speedFactor="1.02" vaporized="">
        <emissions CO_abs="5948.717310" CO2_abs="450701.622117" HC_abs="37.640446" PMx_abs="7.672853" NOx_abs="180.641470" fuel_abs="193.737125" electricity_abs="0"/>
    </tripinfo>
    <tripinfo id="carIn12365:1" depart="57713.00" departLane="315358244_1" departPos="5.10" departSpeed="0.00" departDelay="0.50" arrival="57792.00" arrivalLane="447569997#1_1" arrivalPos="180.93" arrivalSpeed="8.04" duration="79.00" routeLength="718.04" waitingTime="7.00" waitingCount="1" stopTime="0.00" timeLoss="21.19" rerouteNo="1" devices="tripinfo_carIn12365:1 routing_carIn12365:1 emissions_carIn12365:1" vType="default_016" speedFactor="1.07" vaporized="">
        <emissions CO_abs="3397.052340" CO2_abs="192141.021792" HC_abs="19.925337" PMx_abs="3.316683" NOx_abs="77.846531" fuel_abs="82.593719" electricity_abs="0"/>
    </tripinfo>
    <tripinfo id="h7181c1:1" depart="57660.00" departLane="315358254#0_1" departPos="5.10" departSpeed="0.00" departDelay="0.10" arrival="57793.00" arrivalLane="306240162#0_0" arrivalPos="220.43" arrivalSpeed="15.49" duration="133.00" routeLength="932.35" waitingTime="66.00" waitingCount="1" stopTime="0.00" timeLoss="81.87" rerouteNo="1" devices="tripinfo_h7181c1:1 routing_h7181c1:1 emissions_h7181c1:1" vType="default_016" speedFactor="1.00" vaporized="">
        <emissions CO_abs="13253.630883" CO2_abs="402289.719288" HC_abs="69.878446" PMx_abs="8.671016" NOx_abs="172.579067" fuel_abs="172.931000" electricity_abs="0"/>
    </tripinfo>
    <tripinfo id="carIn12858:1" depart="57661.00" departLane="128361109#1_1" departPos="5.10" departSpeed="0.00" departDelay="0.90" arrival="57798.00" arrivalLane="399835085#1_1" arrivalPos="212.23" arrivalSpeed="8.86" duration="137.00" routeLength="1738.12" waitingTime="4.00" waitingCount="1" stopTime="0.00" timeLoss="31.25" rerouteNo="1" devices="tripinfo_carIn12858:1 routing_carIn12858:1 emissions_carIn12858:1" vType="default_016" speedFactor="1.09" vaporized="">
        <emissions CO_abs="7522.317545" CO2_abs="497224.452543" HC_abs="46.172246" PMx_abs="9.797166" NOx_abs="205.845444" fuel_abs="213.734279" electricity_abs="0"/>
    </tripinfo>
    <tripinfo id="h16072c2:3" depart="57663.00" departLane="315358254#0_1" departPos="5.10" departSpeed="0.00" departDelay="2.50" arrival="57807.00" arrivalLane="386687235_1" arrivalPos="80.84" arrivalSpeed="13.26" duration="144.00" routeLength="1611.92" waitingTime="13.00" waitingCount="1" stopTime="0.00" timeLoss="27.13" rerouteNo="1" devices="tripinfo_h16072c2:3 routing_h16072c2:3 emissions_h16072c2:3" vType="default_016" speedFactor="1.01" vaporized="">
        <emissions CO_abs="4747.319368" CO2_abs="339846.269818" HC_abs="29.495028" PMx_abs="5.503895" NOx_abs="133.895226" fuel_abs="146.085907" electricity_abs="0"/>
    </tripinfo>
    <tripinfo id="carIn107282:1" depart="57749.00" departLane="-447569998#1_1" departPos="5.10" departSpeed="0.00" departDelay="0.00" arrival="57825.00" arrivalLane="315358242#0_1" arrivalPos="165.37" arrivalSpeed="13.13" duration="76.00" routeLength="448.50" waitingTime="27.00" waitingCount="1" stopTime="0.00" timeLoss="35.14" rerouteNo="1" devices="tripinfo_carIn107282:1 routing_carIn107282:1 emissions_carIn107282:1" vType="default_016" speedFactor="1.02" vaporized="">
        <emissions CO_abs="6112.994880" CO2_abs="187712.616159" HC_abs="32.212102" PMx_abs="3.698352" NOx_abs="79.411704" fuel_abs="80.691779" electricity_abs="0"/>
    </tripinfo>
    <tripinfo id="randUni15030:1" depart="57735.00" departLane="386687232#0_1" departPos="5.10" departSpeed="0.00" departDelay="0.10" arrival="57828.00" arrivalLane="26677539_1" arrivalPos="151.98" arrivalSpeed="7.63" duration="93.00" routeLength="919.89" waitingTime="0.00" waitingCount="0" stopTime="0.00" timeLoss="13.13" rerouteNo="1" devices="tripinfo_randUni15030:1 routing_randUni15030:1 emissions_randUni15030:1" vType="random_016" speedFactor="1.05" vaporized="">
        <emissions CO_abs="3707.726758" CO2_abs="233466.977241" HC_abs="22.308519" PMx_abs="3.840268" NOx_abs="93.625410" fuel_abs="100.358000" electricity_abs="0"/>
    </tripinfo>
    <tripinfo id="carIn28951:1" depart="57606.00" departLane="10425609#0_1" departPos="5.10" departSpeed="0.00" departDelay="0.20" arrival="57829.00" arrivalLane="-128361102#1_1" arrivalPos="274.68" arrivalSpeed="12.12" duration="223.00" routeLength="2113.04" waitingTime="29.00" waitingCount="1" stopTime="0.00" timeLoss="53.16" rerouteNo="1" devices="tripinfo_carIn28951:1 routing_carIn28951:1 emissions_carIn28951:1" vType="default_016" speedFactor="0.91" vaporized="">
        <emissions CO_abs="9953.799417" CO2_abs="506597.334679" HC_abs="57.142717" PMx_abs="8.758007" NOx_abs="205.352724" fuel_abs="217.766724" electricity_abs="0"/>
    </tripinfo>
    <tripinfo id="randUni31145:1" depart="57814.00" departLane="10425609#0_1" departPos="5.10" departSpeed="0.00" departDelay="0.30" arrival="57838.00" arrivalLane="201956810_1" arrivalPos="71.65" arrivalSpeed="14.76" duration="24.00" routeLength="255.78" waitingTime="0.00" waitingCount="0" stopTime="0.00" timeLoss="5.61" rerouteNo="1" devices="tripinfo_randUni31145:1 routing_randUni31145:1 emissions_randUni31145:1" vType="random_016" speedFactor="1.08" vaporized="">
        <emissions CO_abs="1518.652681" CO2_abs="96417.533883" HC_abs="9.198340" PMx_abs="1.790756" NOx_abs="39.984079" fuel_abs="41.445671" electricity_abs="0"/>
    </tripinfo>
    <tripinfo id="carIn46110:1" depart="57684.00" departLane="315358244_1" departPos="5.10" departSpeed="0.00" departDelay="1.20" arrival="57842.00" arrivalLane="32978638#0_1" arrivalPos="49.29" arrivalSpeed="13.43" duration="158.00" routeLength="1764.04" waitingTime="4.00" waitingCount="1" stopTime="0.00" timeLoss="26.15" rerouteNo="1" devices="tripinfo_carIn46110:1 routing_carIn46110:1 emissions_carIn46110:1" vType="default_016" speedFactor="0.97" vaporized="">
        <emissions CO_abs="4762.531391" CO2_abs="373731.780143" HC_abs="30.395054" PMx_abs="5.925969" NOx_abs="147.071420" fuel_abs="160.651639" electricity_abs="0"/>
    </tripinfo>
    <tripinfo id="randUni2407:1" depart="57820.00" departLane="10425609#0_1" departPos="5.10" departSpeed="0.00" departDelay="0.80" arrival="57842.00" arrivalLane="201956810_1" arrivalPos="71.65" arrivalSpeed="16.31" duration="22.00" routeLength="255.78" waitingTime="0.00" waitingCount="0" stopTime="0.00" timeLoss="6.44" rerouteNo="1" devices="tripinfo_randUni2407:1 routing_randUni2407:1 emissions_randUni2407:1" vType="random_016" speedFactor="1.26" vaporized="">
        <emissions CO_abs="1923.190625" CO2_abs="117748.644973" HC_abs="11.570722" PMx_abs="2.314950" NOx_abs="49.485130" fuel_abs="50.614861" electricity_abs="0"/>
    </tripinfo>
    <tripinfo id="h9953c2:3" depart="57682.00" departLane="-54169231#2_1" departPos="5.10" departSpeed="0.00" departDelay="0.00" arrival="57843.00" arrivalLane="386687235_1" arrivalPos="80.84" arrivalSpeed="13.85" duration="161.00" routeLength="1535.60" waitingTime="15.00" waitingCount="2" stopTime="0.00" timeLoss="43.84" rerouteNo="1" devices="tripinfo_h9953c2:3 routing_h9953c2:3 emissions_h9953c2:3" vType="default_016" speedFactor="1.07" vaporized="">
        <emissions CO_abs="7369.548298" CO2_abs="437459.295082" HC_abs="43.826277" PMx_abs="7.915608" NOx_abs="179.829072" fuel_abs="188.045320" electricity_abs="0"/>
    </tripinfo>
    <tripinfo id="h6541c1:3" depart="57727.00" departLane="201950247#3_1" departPos="5.10" departSpeed="0.00" departDelay="0.00" arrival="57844.00" arrivalLane="32978638#0_1" arrivalPos="49.29" arrivalSpeed="13.96" duration="117.00" routeLength="1176.17" waitingTime="0.00" waitingCount="0" stopTime="0.00" timeLoss="17.17" rerouteNo="1" devices="tripinfo_h6541c1:3 routing_h6541c1:3 emissions_h6541c1:3" vType="default_016" speedFactor="1.03" vaporized="">
        <emissions CO_abs="4264.818383" CO2_abs="284315.927002" HC_abs="26.009862" PMx_abs="4.646519" NOx_abs="113.553222" fuel_abs="122.215760" electricity_abs="0"/>
    </tripinfo>
    <tripinfo id="h645c1:1" depart="57622.00" departLane="266565295#5_1" departPos="5.10" departSpeed="0.00" departDelay="0.40" arrival="57853.00" arrivalLane="-315358244_2" arrivalPos="33.95" arrivalSpeed="14.44" duration="231.00" routeLength="1910.83" waitingTime="58.00" waitingCount="4" stopTime="0.00" timeLoss="98.77" rerouteNo="1" devices="tripinfo_h645c1:1 routing_h645c1:1 emissions_h645c1:1" vType="default_016" speedFactor="1.05" vaporized="">
        <emissions CO_abs="13491.763815" CO2_abs="580326.767696" HC_abs="75.077159" PMx_abs="11.212272" NOx_abs="242.622890" fuel_abs="249.460172" electricity_abs="0"/>
    </tripinfo>
    <tripinfo id="carIn121703:1" depart="57647.00" departLane="386687232#0_1" departPos="5.10" departSpeed="0.00" departDelay="0.30" arrival="57853.00" arrivalLane="-315358244_1" arrivalPos="33.95" arrivalSpeed="14.28" duration="206.00" routeLength="1157.39" waitingTime="108.00" waitingCount="3" stopTime="0.00" timeLoss="130.02" rerouteNo="1" devices="tripinfo_carIn121703:1 routing_carIn121703:1 emissions_carIn121703:1" vType="default_016" speedFactor="1.11" vaporized="">
        <emissions CO_abs="19740.854006" CO2_abs="543757.812785" HC_abs="102.625863" PMx_abs="11.497071" NOx_abs="233.862653" fuel_abs="233.745128" electricity_abs="0"/>
    </tripinfo>
    <tripinfo id="carIn126378:1" depart="57746.00" departLane="386687232#0_1" departPos="5.10" departSpeed="0.00" departDelay="1.80" arrival="57855.00" arrivalLane="-315358244_1" arrivalPos="33.95" arrivalSpeed="12.97" duration="109.00" routeLength="1157.39" waitingTime="10.00" waitingCount="1" stopTime="0.00" timeLoss="24.63" rerouteNo="1" devices="tripinfo_carIn126378:1 routing_carIn126378:1 emissions_carIn126378:1" vType="default_016" speedFactor="1.00" vaporized="">
        <emissions CO_abs="4613.207137" CO2_abs="275341.963556" HC_abs="27.445978" PMx_abs="4.740181" NOx_abs="110.904616" fuel_abs="118.358334" electricity_abs="0"/>
    </tripinfo>
    <tripinfo id="carIn73855:1" depart="57743.00" departLane="386687232#0_1" departPos="5.10" departSpeed="0.00" departDelay="0.50" arrival="57856.00" arrivalLane="-315358244_2" arrivalPos="33.95" arrivalSpeed="12.80" duration="113.00" routeLength="1157.39" waitingTime="7.00" waitingCount="1" stopTime="0.00" timeLoss="21.66" rerouteNo="1" devices="tripinfo_carIn73855:1 routing_carIn73855:1 emissions_carIn73855:1" vType="default_016" speedFactor="0.92" vaporized="">
        <emissions CO_abs="4106.808921" CO2_abs="275651.377474" HC_abs="25.117525" PMx_abs="4.471812" NOx_abs="109.623698" fuel_abs="118.491284" electricity_abs="0"/>
    </tripinfo>
    <tripinfo id="carIn129809:1" depart="57729.00" departLane="-447569998#1_1" departPos="5.10" departSpeed="0.00" departDelay="1.00" arrival="57857.00" arrivalLane="-315358244_1" arrivalPos="33.95" arrivalSpeed="14.64" duration="128.00" routeLength="706.49" waitingTime="53.00" waitingCount="2" stopTime="0.00" timeLoss="71.02" rerouteNo="1" devices="tripinfo_carIn129809:1 routing_carIn129809:1 emissions_carIn129809:1" vType="default_015" speedFactor="1.07" vaporized="">
        <emissions CO_abs="10829.733406" CO2_abs="322274.585000" HC_abs="56.848237" PMx_abs="6.494310" NOx_abs="137.065142" fuel_abs="138.535845" electricity_abs="0"/>
    </tripinfo>
    <tripinfo id="h11737c1:1" depart="57665.00" departLane="272042143_1" departPos="5.10" departSpeed="0.00" departDelay="1.50" arrival="57858.00" arrivalLane="-315358254#1_1" arrivalPos="137.16" arrivalSpeed="11.65" duration="193.00" routeLength="1596.88" waitingTime="46.00" waitingCount="2" stopTime="0.00" timeLoss="63.82" rerouteNo="1" devices="tripinfo_h11737c1:1 routing_h11737c1:1 emissions_h11737c1:1" vType="default_016" speedFactor="0.90" vaporized="">
        <emissions CO_abs="10221.321163" CO2_abs="407520.045629" HC_abs="56.022525" PMx_abs="7.260166" NOx_abs="166.631783" fuel_abs="175.178766" electricity_abs="0"/>
    </tripinfo>
    <tripinfo id="carIn107084:1" depart="57601.00" departLane="124812856#0_1" departPos="5.10" departSpeed="0.00" departDelay="0.70" arrival="57859.00" arrivalLane="-128361102#1_1" arrivalPos="274.68" arrivalSpeed="12.00" duration="258.00" routeLength="2250.49" waitingTime="46.00" waitingCount="3" stopTime="0.00" timeLoss="77.29" rerouteNo="1" devices="tripinfo_carIn107084:1 routing_carIn107084:1 emissions_carIn107084:1" vType="default_016" speedFactor="0.91" vaporized="">
        <emissions CO_abs="11789.529423" CO2_abs="579908.743547" HC_abs="67.205494" PMx_abs="10.064114" NOx_abs="235.441228" fuel_abs="249.280748" electricity_abs="0"/>
    </tripinfo>
    <tripinfo id="carIn50326:1" depart="57651.00" departLane="128361102#0_1" departPos="5.10" departSpeed="0.00" departDelay="0.30" arrival="57859.00" arrivalLane="18809673#0_1" arrivalPos="473.56" arrivalSpeed="15.12" duration="208.00" routeLength="1591.07" waitingTime="62.00" waitingCount="2" stopTime="0.00" timeLoss="89.61" rerouteNo="1" devices="tripinfo_carIn50326:1 routing_carIn50326:1 emissions_carIn50326:1" vType="default_016" speedFactor="1.10" vaporized="">
        <emissions CO_abs="14337.008874" CO2_abs="511720.279675" HC_abs="77.172529" PMx_abs="9.817265" NOx_abs="213.363835" fuel_abs="219.971077" electricity_abs="0"/>
    </tripinfo>
    <tripinfo id="carIn126288:1" depart="57674.00" departLane="272042143_1" departPos="5.10" departSpeed="0.00" departDelay="0.00" arrival="57860.00" arrivalLane="-315358254#1_1" arrivalPos="137.16" arrivalSpeed="12.23" duration="186.00" routeLength="1596.88" waitingTime="35.00" waitingCount="2" stopTime="0.00" timeLoss="57.03" rerouteNo="1" devices="tripinfo_carIn126288:1 routing_carIn126288:1 emissions_carIn126288:1" vType="default_016" speedFactor="0.90" vaporized="">
        <emissions CO_abs="8671.765882" CO2_abs="405760.311804" HC_abs="48.930195" PMx_abs="7.014597" NOx_abs="164.542751" fuel_abs="174.421355" electricity_abs="0"/>
    </tripinfo>
    <tripinfo id="h19804c1:3" depart="57617.00" departLane="124812856#0_1" departPos="5.10" departSpeed="0.00" departDelay="1.50" arrival="57862.00" arrivalLane="-128361102#1_1" arrivalPos="274.68" arrivalSpeed="11.96" duration="245.00" routeLength="2250.49" waitingTime="24.00" waitingCount="3" stopTime="0.00" timeLoss="57.32" rerouteNo="1" devices="tripinfo_h19804c1:3 routing_h19804c1:3 emissions_h19804c1:3" vType="default_016" speedFactor="0.87" vaporized="">
        <emissions CO_abs="8746.815087" CO2_abs="520959.053100" HC_abs="51.938519" PMx_abs="8.591933" NOx_abs="209.082453" fuel_abs="223.939573" electricity_abs="0"/>
    </tripinfo>
    <tripinfo id="h17549c1:1" depart="57680.00" departLane="-447569998#1_1" departPos="5.10" departSpeed="0.00" departDelay="0.00" arrival="57862.00" arrivalLane="-315358254#1_1" arrivalPos="137.16" arrivalSpeed="13.68" duration="182.00" routeLength="1746.60" waitingTime="17.00" waitingCount="4" stopTime="0.00" timeLoss="45.73" rerouteNo="1" devices="tripinfo_h17549c1:1 routing_h17549c1:1 emissions_h17549c1:1" vType="default_016" speedFactor="1.00" vaporized="">
        <emissions CO_abs="6684.237748" CO2_abs="415372.688450" HC_abs="40.126656" PMx_abs="7.063290" NOx_abs="167.343959" fuel_abs="178.551694" electricity_abs="0"/>
    </tripinfo>