<?xml version="1.0" encoding="UTF-8"?>

<!-- generated on 2021-10-26 14:54:25 by Eclipse SUMO sumo Version 1.10.0
<configuration xmlns:xsi="http://www.w3.org/2001/XMLSchema-instance" xsi:noNamespaceSchemaLocation="http://sumo.dlr.de/xsd/sumoConfiguration.xsd">

    <input>
        <net-file value="/Users/behradkoohy/sumo-scratchpad/RESCO/environments/ingolstadt21/ingolstadt21.net.xml"/>
        <route-files value="/Users/behradkoohy/sumo-scratchpad/RESCO/environments/ingolstadt21/ingolstadt21.rou.xml"/>
    </input>

    <output>
        <tripinfo-output value="/Users/behradkoohy/sumo-scratchpad/RESCO/logs/STOCHASTIC-tr0-ingolstadt21-21-mplight-wait/tripinfo_100.xml"/>
        <tripinfo-output.write-unfinished value="true"/>
    </output>

    <time>
        <begin value="57600"/>
        <end value="61200"/>
    </time>

    <processing>
        <time-to-teleport value="-1"/>
    </processing>

    <report>
        <no-warnings value="true"/>
        <no-step-log value="true"/>
    </report>

    <emissions>
        <device.emissions.probability value="1"/>
    </emissions>

    <traci_server>
        <remote-port value="60810"/>
    </traci_server>

    <random_number>
        <random value="true"/>
    </random_number>

</configuration>
-->

<tripinfos xmlns:xsi="http://www.w3.org/2001/XMLSchema-instance" xsi:noNamespaceSchemaLocation="http://sumo.dlr.de/xsd/tripinfo_file.xsd">
    <tripinfo id="h15454c2:3" depart="57612.00" departLane="24608844_1" departPos="5.10" departSpeed="0.00" departDelay="0.50" arrival="57650.00" arrivalLane="32978638#0_1" arrivalPos="49.29" arrivalSpeed="13.76" duration="38.00" routeLength="354.79" waitingTime="0.00" waitingCount="0" stopTime="0.00" timeLoss="5.73" rerouteNo="1" devices="tripinfo_h15454c2:3 routing_h15454c2:3 emissions_h15454c2:3" vType="default_016" speedFactor="1.06" vaporized="">
        <emissions CO_abs="2101.113893" CO2_abs="118513.817207" HC_abs="12.372350" PMx_abs="2.255149" NOx_abs="49.808133" fuel_abs="50.943980" electricity_abs="0"/>
    </tripinfo>
    <tripinfo id="carIn60260:1" depart="57606.00" departLane="315358254#0_1" departPos="5.10" departSpeed="0.00" departDelay="0.90" arrival="57685.00" arrivalLane="399835085#1_1" arrivalPos="212.23" arrivalSpeed="5.54" duration="79.00" routeLength="430.98" waitingTime="9.00" waitingCount="1" stopTime="0.00" timeLoss="19.63" rerouteNo="1" devices="tripinfo_carIn60260:1 routing_carIn60260:1 emissions_carIn60260:1" vType="default_016" speedFactor="0.77" vaporized="">
        <emissions CO_abs="3952.355556" CO2_abs="133312.732190" HC_abs="21.073892" PMx_abs="2.428925" NOx_abs="55.921820" fuel_abs="57.306858" electricity_abs="0"/>
    </tripinfo>
    <tripinfo id="carIn53971:1" depart="57640.00" departLane="272042143_1" departPos="5.10" departSpeed="0.00" departDelay="0.80" arrival="57699.00" arrivalLane="24634414#1_1" arrivalPos="162.19" arrivalSpeed="7.41" duration="59.00" routeLength="493.04" waitingTime="0.00" waitingCount="0" stopTime="0.00" timeLoss="8.86" rerouteNo="1" devices="tripinfo_carIn53971:1 routing_carIn53971:1 emissions_carIn53971:1" vType="default_016" speedFactor="0.91" vaporized="">
        <emissions CO_abs="2624.369495" CO2_abs="134223.725111" HC_abs="15.071300" PMx_abs="2.320325" NOx_abs="55.093409" fuel_abs="57.697539" electricity_abs="0"/>
    </tripinfo>
    <tripinfo id="h3688c1:1" depart="57625.00" departLane="201201950#1_1" departPos="5.10" departSpeed="0.00" departDelay="0.00" arrival="57718.00" arrivalLane="32978638#0_1" arrivalPos="49.29" arrivalSpeed="16.19" duration="93.00" routeLength="1089.75" waitingTime="8.00" waitingCount="1" stopTime="0.00" timeLoss="26.21" rerouteNo="1" devices="tripinfo_h3688c1:1 routing_h3688c1:1 emissions_h3688c1:1" vType="default_016" speedFactor="1.20" vaporized="">
        <emissions CO_abs="5006.512748" CO2_abs="304364.720657" HC_abs="29.990038" PMx_abs="5.889655" NOx_abs="126.642271" fuel_abs="130.832972" electricity_abs="0"/>
    </tripinfo>
    <tripinfo id="h7800c1:5" depart="57696.00" departLane="-447569998#1_1" departPos="5.10" departSpeed="0.00" departDelay="0.00" arrival="57722.00" arrivalLane="-447569998#1_1" arrivalPos="180.76" arrivalSpeed="7.94" duration="26.00" routeLength="175.66" waitingTime="0.00" waitingCount="0" stopTime="0.00" timeLoss="3.69" rerouteNo="1" devices="tripinfo_h7800c1:5 routing_h7800c1:5 emissions_h7800c1:5" vType="default_016" speedFactor="0.97" vaporized="">
        <emissions CO_abs="1221.124045" CO2_abs="51097.585681" HC_abs="6.724750" PMx_abs="0.805384" NOx_abs="20.604175" fuel_abs="21.965152" electricity_abs="0"/>
    </tripinfo>
    <tripinfo id="h7181c1:1" depart="57660.00" departLane="315358254#0_1" departPos="5.10" departSpeed="0.00" departDelay="0.10" arrival="57740.00" arrivalLane="306240162#0_0" arrivalPos="220.43" arrivalSpeed="16.40" duration="80.00" routeLength="932.35" waitingTime="12.00" waitingCount="2" stopTime="0.00" timeLoss="31.57" rerouteNo="1" devices="tripinfo_h7181c1:1 routing_h7181c1:1 emissions_h7181c1:1" vType="default_016" speedFactor="1.06" vaporized="">
        <emissions CO_abs="5300.196820" CO2_abs="294273.048903" HC_abs="31.170658" PMx_abs="6.060601" NOx_abs="123.983066" fuel_abs="126.494930" electricity_abs="0"/>
    </tripinfo>
    <tripinfo id="h3326c1:2" depart="57656.00" departLane="22716069#0_1" departPos="5.10" departSpeed="0.00" departDelay="0.00" arrival="57752.00" arrivalLane="24634517#13_1" arrivalPos="111.62" arrivalSpeed="16.32" duration="96.00" routeLength="1312.81" waitingTime="0.00" waitingCount="0" stopTime="0.00" timeLoss="15.14" rerouteNo="1" devices="tripinfo_h3326c1:2 routing_h3326c1:2 emissions_h3326c1:2" vType="default_016" speedFactor="1.21" vaporized="">
        <emissions CO_abs="4491.080267" CO2_abs="343875.540574" HC_abs="28.470677" PMx_abs="6.350035" NOx_abs="140.278721" fuel_abs="147.816469" electricity_abs="0"/>
    </tripinfo>
    <tripinfo id="h3568c1:3" depart="57656.00" departLane="266565295#5_1" departPos="5.10" departSpeed="0.00" departDelay="0.80" arrival="57754.00" arrivalLane="-24634415_1" arrivalPos="62.03" arrivalSpeed="14.50" duration="98.00" routeLength="807.40" waitingTime="20.00" waitingCount="1" stopTime="0.00" timeLoss="39.28" rerouteNo="1" devices="tripinfo_h3568c1:3 routing_h3568c1:3 emissions_h3568c1:3" vType="default_016" speedFactor="1.10" vaporized="">
        <emissions CO_abs="6221.630679" CO2_abs="290340.409070" HC_abs="35.014688" PMx_abs="5.529311" NOx_abs="120.996893" fuel_abs="124.805813" electricity_abs="0"/>
    </tripinfo>
    <tripinfo id="carIn30817:1" depart="57681.00" departLane="315358244_1" departPos="5.10" departSpeed="0.00" departDelay="0.20" arrival="57757.00" arrivalLane="447569997#1_1" arrivalPos="180.93" arrivalSpeed="7.13" duration="76.00" routeLength="718.04" waitingTime="0.00" waitingCount="0" stopTime="0.00" timeLoss="7.32" rerouteNo="1" devices="tripinfo_carIn30817:1 routing_carIn30817:1 emissions_carIn30817:1" vType="default_016" speedFactor="0.89" vaporized="">
        <emissions CO_abs="2452.053330" CO2_abs="158456.928787" HC_abs="14.802723" PMx_abs="2.343198" NOx_abs="61.872741" fuel_abs="68.114562" electricity_abs="0"/>
    </tripinfo>
    <tripinfo id="h317c2:1" depart="57707.00" departLane="-32978638#0_1" departPos="5.10" departSpeed="0.00" departDelay="0.10" arrival="57762.00" arrivalLane="-266565295#5_1" arrivalPos="172.76" arrivalSpeed="16.11" duration="55.00" routeLength="370.53" waitingTime="23.00" waitingCount="1" stopTime="0.00" timeLoss="33.32" rerouteNo="1" devices="tripinfo_h317c2:1 routing_h317c2:1 emissions_h317c2:1" vType="default_016" speedFactor="1.25" vaporized="">
        <emissions CO_abs="4889.496305" CO2_abs="184918.342333" HC_abs="26.606473" PMx_abs="3.803761" NOx_abs="78.733607" fuel_abs="79.489441" electricity_abs="0"/>
    </tripinfo>
    <tripinfo id="h4538c1:1" depart="57701.00" departLane="-10427692#1_1" departPos="5.10" departSpeed="0.00" departDelay="0.00" arrival="57766.00" arrivalLane="-128361102#1_1" arrivalPos="274.68" arrivalSpeed="12.94" duration="65.00" routeLength="440.74" waitingTime="24.00" waitingCount="1" stopTime="0.00" timeLoss="33.41" rerouteNo="1" devices="tripinfo_h4538c1:1 routing_h4538c1:1 emissions_h4538c1:1" vType="default_016" speedFactor="1.00" vaporized="">
        <emissions CO_abs="4831.674209" CO2_abs="159259.122797" HC_abs="25.719156" PMx_abs="3.078365" NOx_abs="66.699925" fuel_abs="68.460330" electricity_abs="0"/>
    </tripinfo>
    <tripinfo id="h12244c1:3" depart="57612.00" departLane="315358244_1" departPos="5.10" departSpeed="0.00" departDelay="0.40" arrival="57767.00" arrivalLane="386687235_1" arrivalPos="80.84" arrivalSpeed="13.35" duration="155.00" routeLength="1186.14" waitingTime="51.00" waitingCount="2" stopTime="0.00" timeLoss="71.27" rerouteNo="1" devices="tripinfo_h12244c1:3 routing_h12244c1:3 emissions_h12244c1:3" vType="default_016" speedFactor="1.04" vaporized="">
        <emissions CO_abs="10889.437501" CO2_abs="376884.314127" HC_abs="58.405042" PMx_abs="7.326425" NOx_abs="157.645057" fuel_abs="162.009858" electricity_abs="0"/>
    </tripinfo>
    <tripinfo id="h5979c1:5" depart="57669.00" departLane="399835085#1_1" departPos="5.10" departSpeed="0.00" departDelay="0.00" arrival="57769.00" arrivalLane="-315358254#1_1" arrivalPos="137.16" arrivalSpeed="12.97" duration="100.00" routeLength="659.33" waitingTime="8.00" waitingCount="1" stopTime="0.00" timeLoss="21.29" rerouteNo="1" devices="tripinfo_h5979c1:5 routing_h5979c1:5 emissions_h5979c1:5" vType="default_016" speedFactor="0.94" vaporized="">
        <emissions CO_abs="4336.319359" CO2_abs="190878.634981" HC_abs="24.136601" PMx_abs="3.163862" NOx_abs="77.656512" fuel_abs="82.051977" electricity_abs="0"/>
    </tripinfo>
    <tripinfo id="h330c1:1" depart="57736.00" departLane="-32978638#0_1" departPos="5.10" departSpeed="0.00" departDelay="0.20" arrival="57769.00" arrivalLane="-266565295#5_1" arrivalPos="172.76" arrivalSpeed="13.71" duration="33.00" routeLength="370.53" waitingTime="0.00" waitingCount="0" stopTime="0.00" timeLoss="6.38" rerouteNo="1" devices="tripinfo_h330c1:1 routing_h330c1:1 emissions_h330c1:1" vType="default_016" speedFactor="1.07" vaporized="">
        <emissions CO_abs="1714.577490" CO2_abs="110911.008468" HC_abs="10.426148" PMx_abs="2.003729" NOx_abs="45.477992" fuel_abs="47.675854" electricity_abs="0"/>
    </tripinfo>
    <tripinfo id="carIn27009:1" depart="57673.00" departLane="-447569998#1_1" departPos="5.10" departSpeed="0.00" departDelay="0.50" arrival="57775.00" arrivalLane="-26677539_1" arrivalPos="152.75" arrivalSpeed="9.03" duration="102.00" routeLength="699.63" waitingTime="15.00" waitingCount="1" stopTime="0.00" timeLoss="29.74" rerouteNo="1" devices="tripinfo_carIn27009:1 routing_carIn27009:1 emissions_carIn27009:1" vType="default_015" speedFactor="1.17" vaporized="">
        <emissions CO_abs="5718.325456" CO2_abs="225043.951633" HC_abs="31.254042" PMx_abs="4.014543" NOx_abs="93.250198" fuel_abs="96.738538" electricity_abs="0"/>
    </tripinfo>
    <tripinfo id="h9563c2:5" depart="57631.00" departLane="315358244_1" departPos="5.10" departSpeed="0.00" departDelay="0.70" arrival="57781.00" arrivalLane="386687235_1" arrivalPos="80.84" arrivalSpeed="12.14" duration="150.00" routeLength="1186.14" waitingTime="42.00" waitingCount="2" stopTime="0.00" timeLoss="60.51" rerouteNo="1" devices="tripinfo_h9563c2:5 routing_h9563c2:5 emissions_h9563c2:5" vType="default_016" speedFactor="0.97" vaporized="">
        <emissions CO_abs="9296.302766" CO2_abs="364800.744466" HC_abs="50.846524" PMx_abs="6.736872" NOx_abs="150.622888" fuel_abs="156.814985" electricity_abs="0"/>
    </tripinfo>
    <tripinfo id="S5R_frequency1.2" depart="57676.00" departLane="315358250#0_1" departPos="12.10" departSpeed="0.00" departDelay="64.40" arrival="57783.00" arrivalLane="386687235_1" arrivalPos="80.84" arrivalSpeed="13.62" duration="107.00" routeLength="1115.62" waitingTime="5.00" waitingCount="1" stopTime="0.00" timeLoss="25.73" rerouteNo="1" devices="tripinfo_S5R_frequency1.2 routing_S5R_frequency1.2 emissions_S5R_frequency1.2" vType="bus" speedFactor="1.00" vaporized="">
        <emissions CO_abs="2225.000292" CO2_abs="1398240.706258" HC_abs="462.330661" PMx_abs="238.194910" NOx_abs="10846.242313" fuel_abs="596.328596" electricity_abs="0"/>
    </tripinfo>
    <tripinfo id="h645c1:1" depart="57622.00" departLane="266565295#5_1" departPos="5.10" departSpeed="0.00" departDelay="0.40" arrival="57783.00" arrivalLane="-315358244_1" arrivalPos="33.95" arrivalSpeed="15.00" duration="161.00" routeLength="1910.83" waitingTime="13.00" waitingCount="2" stopTime="0.00" timeLoss="33.48" rerouteNo="1" devices="tripinfo_h645c1:1 routing_h645c1:1 emissions_h645c1:1" vType="default_016" speedFactor="1.09" vaporized="">
        <emissions CO_abs="5217.674917" CO2_abs="400384.140014" HC_abs="33.085135" PMx_abs="6.924675" NOx_abs="160.411404" fuel_abs="172.107658" electricity_abs="0"/>
    </tripinfo>
    <tripinfo id="carIn12365:1" depart="57713.00" departLane="315358244_1" departPos="5.10" departSpeed="0.00" departDelay="0.50" arrival="57790.00" arrivalLane="447569997#1_1" arrivalPos="180.93" arrivalSpeed="6.17" duration="77.00" routeLength="718.04" waitingTime="0.00" waitingCount="0" stopTime="0.00" timeLoss="7.88" rerouteNo="1" devices="tripinfo_carIn12365:1 routing_carIn12365:1 emissions_carIn12365:1" vType="default_016" speedFactor="0.89" vaporized="">
        <emissions CO_abs="2503.239089" CO2_abs="142029.036212" HC_abs="14.671274" PMx_abs="2.233941" NOx_abs="56.578452" fuel_abs="61.052871" electricity_abs="0"/>
    </tripinfo>
    <tripinfo id="carIn107282:1" depart="57749.00" departLane="-447569998#1_1" departPos="5.10" departSpeed="0.00" departDelay="0.00" arrival="57796.00" arrivalLane="315358242#0_1" arrivalPos="165.37" arrivalSpeed="13.19" duration="47.00" routeLength="448.50" waitingTime="0.00" waitingCount="0" stopTime="0.00" timeLoss="5.13" rerouteNo="1" devices="tripinfo_carIn107282:1 routing_carIn107282:1 emissions_carIn107282:1" vType="default_016" speedFactor="1.01" vaporized="">
        <emissions CO_abs="1866.541545" CO2_abs="108726.443759" HC_abs="11.041331" PMx_abs="1.884578" NOx_abs="44.341781" fuel_abs="46.737056" electricity_abs="0"/>
    </tripinfo>
    <tripinfo id="h3154c1:1" depart="57658.00" departLane="24634507_1" departPos="5.10" departSpeed="0.00" departDelay="0.00" arrival="57797.00" arrivalLane="-266565295#5_1" arrivalPos="172.76" arrivalSpeed="13.61" duration="139.00" routeLength="1206.22" waitingTime="28.00" waitingCount="2" stopTime="0.00" timeLoss="49.98" rerouteNo="1" devices="tripinfo_h3154c1:1 routing_h3154c1:1 emissions_h3154c1:1" vType="default_016" speedFactor="1.00" vaporized="">
        <emissions CO_abs="7919.563761" CO2_abs="359229.589311" HC_abs="44.527337" PMx_abs="6.792250" NOx_abs="149.413449" fuel_abs="154.418838" electricity_abs="0"/>
    </tripinfo>
    <tripinfo id="carIn80064:1" depart="57603.00" departLane="128361109#1_1" departPos="5.10" departSpeed="0.00" departDelay="0.40" arrival="57811.00" arrivalLane="-315358254#1_1" arrivalPos="137.16" arrivalSpeed="11.72" duration="208.00" routeLength="1587.97" waitingTime="64.00" waitingCount="4" stopTime="0.00" timeLoss="110.30" rerouteNo="1" devices="tripinfo_carIn80064:1 routing_carIn80064:1 emissions_carIn80064:1" vType="default_016" speedFactor="0.91" vaporized="">
        <emissions CO_abs="14443.688650" CO2_abs="567068.103381" HC_abs="79.199531" PMx_abs="11.715958" NOx_abs="241.607179" fuel_abs="243.760737" electricity_abs="0"/>
    </tripinfo>
    <tripinfo id="carIn121703:1" depart="57647.00" departLane="386687232#0_1" departPos="5.10" departSpeed="0.00" departDelay="0.30" arrival="57814.00" arrivalLane="-315358244_1" arrivalPos="33.95" arrivalSpeed="12.92" duration="167.00" routeLength="1157.39" waitingTime="57.00" waitingCount="2" stopTime="0.00" timeLoss="76.31" rerouteNo="1" devices="tripinfo_carIn121703:1 routing_carIn121703:1 emissions_carIn121703:1" vType="default_016" speedFactor="0.94" vaporized="">
        <emissions CO_abs="11756.715125" CO2_abs="396870.636100" HC_abs="62.810645" PMx_abs="7.604195" NOx_abs="165.951547" fuel_abs="170.601657" electricity_abs="0"/>
    </tripinfo>
    <tripinfo id="carIn22761:1" depart="57616.00" departLane="-306240162#1_0" departPos="5.10" departSpeed="0.00" departDelay="2.10" arrival="57821.00" arrivalLane="399835085#1_1" arrivalPos="212.23" arrivalSpeed="7.84" duration="205.00" routeLength="1093.26" waitingTime="108.00" waitingCount="2" stopTime="0.00" timeLoss="133.11" rerouteNo="1" devices="tripinfo_carIn22761:1 routing_carIn22761:1 emissions_carIn22761:1" vType="default_016" speedFactor="1.09" vaporized="">
        <emissions CO_abs="21776.559840" CO2_abs="614200.701164" HC_abs="113.700395" PMx_abs="13.282596" NOx_abs="265.290535" fuel_abs="264.025603" electricity_abs="0"/>
    </tripinfo>
    <tripinfo id="carIn12858:1" depart="57661.00" departLane="128361109#1_1" departPos="5.10" departSpeed="0.00" departDelay="0.90" arrival="57823.00" arrivalLane="399835085#1_1" arrivalPos="212.23" arrivalSpeed="8.76" duration="162.00" routeLength="1738.12" waitingTime="27.00" waitingCount="1" stopTime="0.00" timeLoss="61.85" rerouteNo="1" devices="tripinfo_carIn12858:1 routing_carIn12858:1 emissions_carIn12858:1" vType="default_016" speedFactor="1.16" vaporized="">
        <emissions CO_abs="12366.175728" CO2_abs="620276.571204" HC_abs="71.197026" PMx_abs="12.653375" NOx_abs="260.549789" fuel_abs="266.630613" electricity_abs="0"/>
    </tripinfo>
    <tripinfo id="carIn46110:1" depart="57684.00" departLane="315358244_1" departPos="5.10" departSpeed="0.00" departDelay="1.20" arrival="57828.00" arrivalLane="32978638#0_1" arrivalPos="49.29" arrivalSpeed="16.06" duration="144.00" routeLength="1764.04" waitingTime="17.00" waitingCount="1" stopTime="0.00" timeLoss="33.58" rerouteNo="1" devices="tripinfo_carIn46110:1 routing_carIn46110:1 emissions_carIn46110:1" vType="default_016" speedFactor="1.17" vaporized="">
        <emissions CO_abs="5646.553317" CO2_abs="381467.755766" HC_abs="34.400576" PMx_abs="6.691825" NOx_abs="152.437534" fuel_abs="163.976829" electricity_abs="0"/>
    </tripinfo>
    <tripinfo id="carIn129809:1" depart="57729.00" departLane="-447569998#1_1" departPos="5.10" departSpeed="0.00" departDelay="1.00" arrival="57832.00" arrivalLane="-315358244_1" arrivalPos="33.95" arrivalSpeed="9.58" duration="103.00" routeLength="706.49" waitingTime="11.00" waitingCount="1" stopTime="0.00" timeLoss="22.51" rerouteNo="1" devices="tripinfo_carIn129809:1 routing_carIn129809:1 emissions_carIn129809:1" vType="default_015" speedFactor="0.75" vaporized="">
        <emissions CO_abs="4388.587176" CO2_abs="178508.419727" HC_abs="24.078306" PMx_abs="2.937845" NOx_abs="72.321175" fuel_abs="76.734794" electricity_abs="0"/>
    </tripinfo>
    <tripinfo id="h16072c2:3" depart="57663.00" departLane="315358254#0_1" departPos="5.10" departSpeed="0.00" departDelay="2.50" arrival="57833.00" arrivalLane="386687235_1" arrivalPos="80.84" arrivalSpeed="13.34" duration="170.00" routeLength="1611.92" waitingTime="34.00" waitingCount="2" stopTime="0.00" timeLoss="55.42" rerouteNo="1" devices="tripinfo_h16072c2:3 routing_h16072c2:3 emissions_h16072c2:3" vType="default_016" speedFactor="1.02" vaporized="">
        <emissions CO_abs="8587.433658" CO2_abs="411877.282930" HC_abs="48.707483" PMx_abs="7.335604" NOx_abs="167.340887" fuel_abs="177.050405" electricity_abs="0"/>
    </tripinfo>
    <tripinfo id="h9953c2:3" depart="57682.00" departLane="-54169231#2_1" departPos="5.10" departSpeed="0.00" departDelay="0.00" arrival="57833.00" arrivalLane="386687235_2" arrivalPos="80.84" arrivalSpeed="14.15" duration="151.00" routeLength="1535.60" waitingTime="3.00" waitingCount="2" stopTime="0.00" timeLoss="33.42" rerouteNo="1" devices="tripinfo_h9953c2:3 routing_h9953c2:3 emissions_h9953c2:3" vType="default_016" speedFactor="1.07" vaporized="">
        <emissions CO_abs="6783.714974" CO2_abs="434692.636729" HC_abs="41.061071" PMx_abs="7.757467" NOx_abs="177.928176" fuel_abs="186.855755" electricity_abs="0"/>
    </tripinfo>
    <tripinfo id="carIn85747:1" depart="57673.00" departLane="128361109#1_1" departPos="5.10" departSpeed="0.00" departDelay="0.70" arrival="57835.00" arrivalLane="386687235_1" arrivalPos="80.84" arrivalSpeed="14.31" duration="162.00" routeLength="2088.57" waitingTime="6.00" waitingCount="1" stopTime="0.00" timeLoss="25.78" rerouteNo="1" devices="tripinfo_carIn85747:1 routing_carIn85747:1 emissions_carIn85747:1" vType="default_016" speedFactor="1.11" vaporized="">
        <emissions CO_abs="4591.022943" CO2_abs="407277.148346" HC_abs="30.190906" PMx_abs="6.655777" NOx_abs="159.572602" fuel_abs="175.070724" electricity_abs="0"/>
    </tripinfo>
    <tripinfo id="randUni31145:1" depart="57814.00" departLane="10425609#0_1" departPos="5.10" departSpeed="0.00" departDelay="0.30" arrival="57839.00" arrivalLane="201956810_1" arrivalPos="71.65" arrivalSpeed="14.27" duration="25.00" routeLength="255.78" waitingTime="0.00" waitingCount="0" stopTime="0.00" timeLoss="6.56" rerouteNo="1" devices="tripinfo_randUni31145:1 routing_randUni31145:1 emissions_randUni31145:1" vType="random_016" speedFactor="1.08" vaporized="">
        <emissions CO_abs="1698.755651" CO2_abs="97561.358000" HC_abs="10.041925" PMx_abs="1.827279" NOx_abs="40.662320" fuel_abs="41.937455" electricity_abs="0"/>
    </tripinfo>
    <tripinfo id="randUni2407:1" depart="57820.00" departLane="10425609#0_1" departPos="5.10" departSpeed="0.00" departDelay="0.80" arrival="57845.00" arrivalLane="201956810_1" arrivalPos="71.65" arrivalSpeed="13.79" duration="25.00" routeLength="255.78" waitingTime="0.00" waitingCount="0" stopTime="0.00" timeLoss="7.13" rerouteNo="1" devices="tripinfo_randUni2407:1 routing_randUni2407:1 emissions_randUni2407:1" vType="random_016" speedFactor="1.08" vaporized="">
        <emissions CO_abs="1756.339772" CO2_abs="96508.511775" HC_abs="10.298213" PMx_abs="1.927606" NOx_abs="41.122778" fuel_abs="41.484750" electricity_abs="0"/>
    </tripinfo>
    <tripinfo id="h5938c1:1" depart="57740.00" departLane="-26677542#0_1" departPos="5.10" departSpeed="0.00" departDelay="0.00" arrival="57851.00" arrivalLane="447569997#1_1" arrivalPos="180.93" arrivalSpeed="6.96" duration="111.00" routeLength="1093.64" waitingTime="0.00" waitingCount="0" stopTime="0.00" timeLoss="10.92" rerouteNo="1" devices="tripinfo_h5938c1:1 routing_h5938c1:1 emissions_h5938c1:1" vType="default_016" speedFactor="0.97" vaporized="">
        <emissions CO_abs="3512.255397" CO2_abs="230428.318766" HC_abs="21.330536" PMx_abs="3.650576" NOx_abs="91.426632" fuel_abs="99.051900" electricity_abs="0"/>
    </tripinfo>
    <tripinfo id="carIn82278:1" depart="57702.00" departLane="-306240162#1_0" departPos="5.10" departSpeed="0.00" departDelay="0.70" arrival="57852.00" arrivalLane="399835085#1_1" arrivalPos="212.23" arrivalSpeed="8.87" duration="150.00" routeLength="1093.26" waitingTime="33.00" waitingCount="4" stopTime="0.00" timeLoss="76.49" rerouteNo="1" devices="tripinfo_carIn82278:1 routing_carIn82278:1 emissions_carIn82278:1" vType="default_016" speedFactor="1.07" vaporized="">
        <emissions CO_abs="8810.394183" CO2_abs="410604.139537" HC_abs="49.838252" PMx_abs="8.197288" NOx_abs="172.949201" fuel_abs="176.501947" electricity_abs="0"/>
    </tripinfo>
    <tripinfo id="carIn12775:1" depart="57676.00" departLane="10425609#0_1" departPos="5.10" departSpeed="0.00" departDelay="0.60" arrival="57871.00" arrivalLane="18809673#0_1" arrivalPos="473.56" arrivalSpeed="13.36" duration="195.00" routeLength="1959.45" waitingTime="12.00" waitingCount="2" stopTime="0.00" timeLoss="50.09" rerouteNo="1" devices="tripinfo_carIn12775:1 routing_carIn12775:1 emissions_carIn12775:1" vType="default_016" speedFactor="1.01" vaporized="">
        <emissions CO_abs="7171.733561" CO2_abs="444694.920433" HC_abs="43.018441" PMx_abs="7.485173" NOx_abs="178.479267" fuel_abs="191.156269" electricity_abs="0"/>
    </tripinfo>
    <tripinfo id="h3864c1:3" depart="57678.00" departLane="24693977#1_1" departPos="5.10" departSpeed="0.00" departDelay="0.00" arrival="57871.00" arrivalLane="201956820_1" arrivalPos="48.33" arrivalSpeed="12.32" duration="193.00" routeLength="1574.85" waitingTime="25.00" waitingCount="3" stopTime="0.00" timeLoss="54.54" rerouteNo="1" devices="tripinfo_h3864c1:3 routing_h3864c1:3 emissions_h3864c1:3" vType="default_016" speedFactor="0.93" vaporized="">
        <emissions CO_abs="9036.901397" CO2_abs="451520.325817" HC_abs="51.690964" PMx_abs="7.970894" NOx_abs="185.323827" fuel_abs="194.090996" electricity_abs="0"/>
    </tripinfo>
    <tripinfo id="h3536c1:1" depart="57767.00" departLane="-24634413#2_1" departPos="5.10" departSpeed="0.00" departDelay="0.00" arrival="57873.00" arrivalLane="32978638#0_2" arrivalPos="49.29" arrivalSpeed="15.03" duration="106.00" routeLength="957.93" waitingTime="0.00" waitingCount="0" stopTime="0.00" timeLoss="23.07" rerouteNo="1" devices="tripinfo_h3536c1:1 routing_h3536c1:1 emissions_h3536c1:1" vType="default_016" speedFactor="1.09" vaporized="">
        <emissions CO_abs="5671.892265" CO2_abs="312131.975198" HC_abs="33.140855" PMx_abs="5.696001" NOx_abs="129.686634" fuel_abs="134.172556" electricity_abs="0"/>
    </tripinfo>
    <tripinfo id="carIn8642:1" depart="57774.00" departLane="-447569998#1_1" departPos="5.10" departSpeed="0.00" departDelay="0.90" arrival="57873.00" arrivalLane="-315358244_1" arrivalPos="33.95" arrivalSpeed="15.05" duration="99.00" routeLength="706.49" waitingTime="34.00" waitingCount="1" stopTime="0.00" timeLoss="46.14" rerouteNo="1" devices="tripinfo_carIn8642:1 routing_carIn8642:1 emissions_carIn8642:1" vType="default_016" speedFactor="1.16" vaporized="">
        <emissions CO_abs="7478.104754" CO2_abs="240130.978092" HC_abs="39.620753" PMx_abs="4.689428" NOx_abs="100.451135" fuel_abs="103.224645" electricity_abs="0"/>
    </tripinfo>
    <tripinfo id="carIn118591:1" depart="57689.00" departLane="315358244_1" departPos="5.10" departSpeed="0.00" departDelay="0.20" arrival="57874.00" arrivalLane="386687235_1" arrivalPos="80.84" arrivalSpeed="11.30" duration="185.00" routeLength="1186.14" waitingTime="65.00" waitingCount="3" stopTime="0.00" timeLoss="86.26" rerouteNo="1" devices="tripinfo_carIn118591:1 routing_carIn118591:1 emissions_carIn118591:1" vType="default_016" speedFactor="0.87" vaporized="">
        <emissions CO_abs="12580.189050" CO2_abs="406280.543106" HC_abs="66.747533" PMx_abs="7.733754" NOx_abs="169.974941" fuel_abs="174.647167" electricity_abs="0"/>
    </tripinfo>
    <tripinfo id="h17890c1:3" depart="57792.00" departLane="386687232#0_1" departPos="5.10" departSpeed="0.00" departDelay="0.00" arrival="57875.00" arrivalLane="32978638#0_1" arrivalPos="49.29" arrivalSpeed="12.29" duration="83.00" routeLength="792.72" waitingTime="5.00" waitingCount="1" stopTime="0.00" timeLoss="21.84" rerouteNo="1" devices="tripinfo_h17890c1:3 routing_h17890c1:3 emissions_h17890c1:3" vType="default_016" speedFactor="0.96" vaporized="">
        <emissions CO_abs="3643.075289" CO2_abs="231389.594135" HC_abs="21.988451" PMx_abs="3.930658" NOx_abs="93.435548" fuel_abs="99.464815" electricity_abs="0"/>
    </tripinfo>
    <tripinfo id="carIn28951:1" depart="57606.00" departLane="10425609#0_1" departPos="5.10" departSpeed="0.00" departDelay="0.20" arrival="57876.00" arrivalLane="-128361102#1_1" arrivalPos="274.68" arrivalSpeed="12.61" duration="270.00" routeLength="2113.04" waitingTime="85.00" waitingCount="2" stopTime="0.00" timeLoss="110.76" rerouteNo="1" devices="tripinfo_carIn28951:1 routing_carIn28951:1 emissions_carIn28951:1" vType="default_016" speedFactor="0.97" vaporized="">
        <emissions CO_abs="18752.199186" CO2_abs="657187.704025" HC_abs="100.765583" PMx_abs="12.565057" NOx_abs="274.016617" fuel_abs="282.502909" electricity_abs="0"/>
    </tripinfo>
    <tripinfo id="h20540c1:1" depart="57634.00" departLane="10425609#0_1" departPos="5.10" departSpeed="0.00" departDelay="0.50" arrival="57878.00" arrivalLane="-128361102#1_1" arrivalPos="274.68" arrivalSpeed="14.34" duration="244.00" routeLength="2113.04" waitingTime="64.00" waitingCount="1" stopTime="0.00" timeLoss="95.02" rerouteNo="1" devices="tripinfo_h20540c1:1 routing_h20540c1:1 emissions_h20540c1:1" vType="default_016" speedFactor="1.04" vaporized="">
        <emissions CO_abs="16650.048510" CO2_abs="674121.489694" HC_abs="91.678409" PMx_abs="12.871377" NOx_abs="280.756167" fuel_abs="289.780012" electricity_abs="0"/>
    </tripinfo>
    <tripinfo id="carIn77438:1" depart="57613.00" departLane="124812856#0_1" departPos="5.10" departSpeed="0.00" departDelay="0.10" arrival="57880.00" arrivalLane="-128361102#1_1" arrivalPos="274.68" arrivalSpeed="15.38" duration="267.00" routeLength="2250.49" waitingTime="70.00" waitingCount="3" stopTime="0.00" timeLoss="118.91" rerouteNo="1" devices="tripinfo_carIn77438:1 routing_carIn77438:1 emissions_carIn77438:1" vType="default_016" speedFactor="1.11" vaporized="">
        <emissions CO_abs="18708.201026" CO2_abs="789854.971953" HC_abs="103.769147" PMx_abs="15.284011" NOx_abs="330.451091" fuel_abs="339.528549" electricity_abs="0"/>
    </tripinfo>
    <tripinfo id="h13377c2:3" depart="57808.00" departLane="315358244_1" departPos="5.10" departSpeed="0.00" departDelay="4.60" arrival="57880.00" arrivalLane="447569997#1_1" arrivalPos="180.93" arrivalSpeed="7.02" duration="72.00" routeLength="718.04" waitingTime="0.00" waitingCount="0" stopTime="0.00" timeLoss="8.45" rerouteNo="1" devices="tripinfo_h13377c2:3 routing_h13377c2:3 emissions_h13377c2:3" vType="default_016" speedFactor="0.97" vaporized="">
        <emissions CO_abs="2181.981218" CO2_abs="142386.503229" HC_abs="13.231098" PMx_abs="2.232858" NOx_abs="56.299716" fuel_abs="61.206302" electricity_abs="0"/>
    </tripinfo>