<?xml version="1.0" encoding="UTF-8"?>

<!-- generated on 2021-10-26 14:38:35 by Eclipse SUMO sumo Version 1.10.0
<configuration xmlns:xsi="http://www.w3.org/2001/XMLSchema-instance" xsi:noNamespaceSchemaLocation="http://sumo.dlr.de/xsd/sumoConfiguration.xsd">

    <input>
        <net-file value="/Users/behradkoohy/sumo-scratchpad/RESCO/environments/ingolstadt21/ingolstadt21.net.xml"/>
        <route-files value="/Users/behradkoohy/sumo-scratchpad/RESCO/environments/ingolstadt21/ingolstadt21.rou.xml"/>
    </input>

    <output>
        <tripinfo-output value="/Users/behradkoohy/sumo-scratchpad/RESCO/logs/STOCHASTIC-tr0-ingolstadt21-21-mplight-wait/tripinfo_74.xml"/>
        <tripinfo-output.write-unfinished value="true"/>
    </output>

    <time>
        <begin value="57600"/>
        <end value="61200"/>
    </time>

    <processing>
        <time-to-teleport value="-1"/>
    </processing>

    <report>
        <no-warnings value="true"/>
        <no-step-log value="true"/>
    </report>

    <emissions>
        <device.emissions.probability value="1"/>
    </emissions>

    <traci_server>
        <remote-port value="60461"/>
    </traci_server>

    <random_number>
        <random value="true"/>
    </random_number>

</configuration>
-->

<tripinfos xmlns:xsi="http://www.w3.org/2001/XMLSchema-instance" xsi:noNamespaceSchemaLocation="http://sumo.dlr.de/xsd/tripinfo_file.xsd">
    <tripinfo id="h15454c2:3" depart="57612.00" departLane="24608844_1" departPos="5.10" departSpeed="0.00" departDelay="0.50" arrival="57649.00" arrivalLane="32978638#0_1" arrivalPos="49.29" arrivalSpeed="14.86" duration="37.00" routeLength="354.79" waitingTime="0.00" waitingCount="0" stopTime="0.00" timeLoss="5.79" rerouteNo="1" devices="tripinfo_h15454c2:3 routing_h15454c2:3 emissions_h15454c2:3" vType="default_016" speedFactor="1.09" vaporized="">
        <emissions CO_abs="2075.962214" CO2_abs="124082.507577" HC_abs="12.361286" PMx_abs="2.183456" NOx_abs="50.858006" fuel_abs="53.337900" electricity_abs="0"/>
    </tripinfo>
    <tripinfo id="carIn60260:1" depart="57606.00" departLane="315358254#0_1" departPos="5.10" departSpeed="0.00" departDelay="0.90" arrival="57658.00" arrivalLane="399835085#1_1" arrivalPos="212.23" arrivalSpeed="9.23" duration="52.00" routeLength="430.98" waitingTime="2.00" waitingCount="1" stopTime="0.00" timeLoss="11.13" rerouteNo="1" devices="tripinfo_carIn60260:1 routing_carIn60260:1 emissions_carIn60260:1" vType="default_016" speedFactor="1.12" vaporized="">
        <emissions CO_abs="2427.170083" CO2_abs="131485.397122" HC_abs="14.071104" PMx_abs="2.208304" NOx_abs="53.444383" fuel_abs="56.520419" electricity_abs="0"/>
    </tripinfo>
    <tripinfo id="carIn53971:1" depart="57640.00" departLane="272042143_1" departPos="5.10" departSpeed="0.00" departDelay="0.80" arrival="57696.00" arrivalLane="24634414#1_1" arrivalPos="162.19" arrivalSpeed="6.78" duration="56.00" routeLength="493.04" waitingTime="0.00" waitingCount="0" stopTime="0.00" timeLoss="8.30" rerouteNo="1" devices="tripinfo_carIn53971:1 routing_carIn53971:1 emissions_carIn53971:1" vType="default_016" speedFactor="0.95" vaporized="">
        <emissions CO_abs="2394.626500" CO2_abs="136603.319206" HC_abs="14.067858" PMx_abs="2.235140" NOx_abs="55.036977" fuel_abs="58.720412" electricity_abs="0"/>
    </tripinfo>
    <tripinfo id="h7800c1:5" depart="57696.00" departLane="-447569998#1_1" departPos="5.10" departSpeed="0.00" departDelay="0.00" arrival="57720.00" arrivalLane="-447569998#1_2" arrivalPos="180.76" arrivalSpeed="8.96" duration="24.00" routeLength="175.66" waitingTime="0.00" waitingCount="0" stopTime="0.00" timeLoss="4.42" rerouteNo="1" devices="tripinfo_h7800c1:5 routing_h7800c1:5 emissions_h7800c1:5" vType="default_016" speedFactor="1.09" vaporized="">
        <emissions CO_abs="1320.287879" CO2_abs="58374.087377" HC_abs="7.356981" PMx_abs="0.982270" NOx_abs="23.900909" fuel_abs="25.092923" electricity_abs="0"/>
    </tripinfo>
    <tripinfo id="h4538c1:1" depart="57701.00" departLane="-10427692#1_1" departPos="5.10" departSpeed="0.00" departDelay="0.00" arrival="57745.00" arrivalLane="-128361102#1_1" arrivalPos="274.68" arrivalSpeed="13.72" duration="44.00" routeLength="440.74" waitingTime="3.00" waitingCount="1" stopTime="0.00" timeLoss="13.59" rerouteNo="1" devices="tripinfo_h4538c1:1 routing_h4538c1:1 emissions_h4538c1:1" vType="default_016" speedFactor="1.05" vaporized="">
        <emissions CO_abs="1827.241829" CO2_abs="117559.155023" HC_abs="11.006765" PMx_abs="1.992138" NOx_abs="47.202069" fuel_abs="50.533819" electricity_abs="0"/>
    </tripinfo>
    <tripinfo id="h3326c1:2" depart="57656.00" departLane="22716069#0_1" departPos="5.10" departSpeed="0.00" departDelay="0.00" arrival="57759.00" arrivalLane="24634517#13_1" arrivalPos="111.62" arrivalSpeed="14.49" duration="103.00" routeLength="1312.81" waitingTime="0.00" waitingCount="0" stopTime="0.00" timeLoss="15.28" rerouteNo="1" devices="tripinfo_h3326c1:2 routing_h3326c1:2 emissions_h3326c1:2" vType="default_016" speedFactor="1.12" vaporized="">
        <emissions CO_abs="3951.234149" CO2_abs="308774.959774" HC_abs="25.111226" PMx_abs="5.380528" NOx_abs="124.250064" fuel_abs="132.728704" electricity_abs="0"/>
    </tripinfo>
    <tripinfo id="h317c2:1" depart="57707.00" departLane="-32978638#0_1" departPos="5.10" departSpeed="0.00" departDelay="0.10" arrival="57763.00" arrivalLane="-266565295#5_1" arrivalPos="172.76" arrivalSpeed="16.18" duration="56.00" routeLength="370.53" waitingTime="21.00" waitingCount="1" stopTime="0.00" timeLoss="31.89" rerouteNo="1" devices="tripinfo_h317c2:1 routing_h317c2:1 emissions_h317c2:1" vType="default_016" speedFactor="1.16" vaporized="">
        <emissions CO_abs="4877.905098" CO2_abs="182922.088634" HC_abs="26.462156" PMx_abs="3.751216" NOx_abs="77.957349" fuel_abs="78.631357" electricity_abs="0"/>
    </tripinfo>
    <tripinfo id="h3568c1:3" depart="57656.00" departLane="266565295#5_1" departPos="5.10" departSpeed="0.00" departDelay="0.80" arrival="57767.00" arrivalLane="-24634415_1" arrivalPos="62.03" arrivalSpeed="12.71" duration="111.00" routeLength="807.40" waitingTime="27.00" waitingCount="1" stopTime="0.00" timeLoss="44.73" rerouteNo="1" devices="tripinfo_h3568c1:3 routing_h3568c1:3 emissions_h3568c1:3" vType="default_016" speedFactor="0.98" vaporized="">
        <emissions CO_abs="7899.873036" CO2_abs="292426.696977" HC_abs="42.854107" PMx_abs="5.765849" NOx_abs="123.852996" fuel_abs="125.703681" electricity_abs="0"/>
    </tripinfo>
    <tripinfo id="h330c1:1" depart="57736.00" departLane="-32978638#0_1" departPos="5.10" departSpeed="0.00" departDelay="0.20" arrival="57769.00" arrivalLane="-266565295#5_1" arrivalPos="172.76" arrivalSpeed="13.74" duration="33.00" routeLength="370.53" waitingTime="0.00" waitingCount="0" stopTime="0.00" timeLoss="6.87" rerouteNo="1" devices="tripinfo_h330c1:1 routing_h330c1:1 emissions_h330c1:1" vType="default_016" speedFactor="1.07" vaporized="">
        <emissions CO_abs="1757.194559" CO2_abs="107925.796352" HC_abs="10.559609" PMx_abs="2.024104" NOx_abs="44.848547" fuel_abs="46.392591" electricity_abs="0"/>
    </tripinfo>
    <tripinfo id="carIn27009:1" depart="57673.00" departLane="-447569998#1_1" departPos="5.10" departSpeed="0.00" departDelay="0.50" arrival="57772.00" arrivalLane="-26677539_1" arrivalPos="152.75" arrivalSpeed="7.81" duration="99.00" routeLength="699.63" waitingTime="0.00" waitingCount="0" stopTime="0.00" timeLoss="11.83" rerouteNo="1" devices="tripinfo_carIn27009:1 routing_carIn27009:1 emissions_carIn27009:1" vType="default_015" speedFactor="0.96" vaporized="">
        <emissions CO_abs="3494.914224" CO2_abs="158202.788126" HC_abs="19.535269" PMx_abs="2.535259" NOx_abs="64.100612" fuel_abs="68.005803" electricity_abs="0"/>
    </tripinfo>
    <tripinfo id="carIn121703:1" depart="57647.00" departLane="386687232#0_1" departPos="5.10" departSpeed="0.00" departDelay="0.30" arrival="57773.00" arrivalLane="-315358244_1" arrivalPos="33.95" arrivalSpeed="12.50" duration="126.00" routeLength="1157.39" waitingTime="14.00" waitingCount="2" stopTime="0.00" timeLoss="35.31" rerouteNo="1" devices="tripinfo_carIn121703:1 routing_carIn121703:1 emissions_carIn121703:1" vType="default_016" speedFactor="0.93" vaporized="">
        <emissions CO_abs="4505.663967" CO2_abs="282369.543159" HC_abs="27.107409" PMx_abs="4.748726" NOx_abs="113.775068" fuel_abs="121.379107" electricity_abs="0"/>
    </tripinfo>
    <tripinfo id="carIn22761:1" depart="57616.00" departLane="-306240162#1_0" departPos="5.10" departSpeed="0.00" departDelay="2.10" arrival="57775.00" arrivalLane="399835085#1_1" arrivalPos="212.23" arrivalSpeed="8.20" duration="159.00" routeLength="1093.26" waitingTime="56.00" waitingCount="1" stopTime="0.00" timeLoss="80.29" rerouteNo="1" devices="tripinfo_carIn22761:1 routing_carIn22761:1 emissions_carIn22761:1" vType="default_016" speedFactor="1.00" vaporized="">
        <emissions CO_abs="13775.804067" CO2_abs="450709.307582" HC_abs="73.361902" PMx_abs="9.389129" NOx_abs="192.899776" fuel_abs="193.744384" electricity_abs="0"/>
    </tripinfo>
    <tripinfo id="h7181c1:1" depart="57660.00" departLane="315358254#0_1" departPos="5.10" departSpeed="0.00" departDelay="0.10" arrival="57783.00" arrivalLane="306240162#0_0" arrivalPos="220.43" arrivalSpeed="14.20" duration="123.00" routeLength="932.35" waitingTime="40.00" waitingCount="3" stopTime="0.00" timeLoss="66.41" rerouteNo="1" devices="tripinfo_h7181c1:1 routing_h7181c1:1 emissions_h7181c1:1" vType="default_016" speedFactor="0.91" vaporized="">
        <emissions CO_abs="9046.548517" CO2_abs="366062.232288" HC_abs="49.816641" PMx_abs="7.361340" NOx_abs="154.491259" fuel_abs="157.356140" electricity_abs="0"/>
    </tripinfo>
    <tripinfo id="h3688c1:1" depart="57625.00" departLane="201201950#1_1" departPos="5.10" departSpeed="0.00" departDelay="0.00" arrival="57784.00" arrivalLane="32978638#0_1" arrivalPos="49.29" arrivalSpeed="14.33" duration="159.00" routeLength="1089.75" waitingTime="63.00" waitingCount="1" stopTime="0.00" timeLoss="86.30" rerouteNo="1" devices="tripinfo_h3688c1:1 routing_h3688c1:1 emissions_h3688c1:1" vType="default_016" speedFactor="1.09" vaporized="">
        <emissions CO_abs="13599.978856" CO2_abs="442416.896031" HC_abs="72.233601" PMx_abs="8.916454" NOx_abs="187.197986" fuel_abs="190.180295" electricity_abs="0"/>
    </tripinfo>
    <tripinfo id="carIn30817:1" depart="57681.00" departLane="315358244_1" departPos="5.10" departSpeed="0.00" departDelay="0.20" arrival="57786.00" arrivalLane="447569997#1_1" arrivalPos="180.93" arrivalSpeed="6.75" duration="105.00" routeLength="718.04" waitingTime="20.00" waitingCount="1" stopTime="0.00" timeLoss="35.66" rerouteNo="1" devices="tripinfo_carIn30817:1 routing_carIn30817:1 emissions_carIn30817:1" vType="default_016" speedFactor="0.88" vaporized="">
        <emissions CO_abs="5715.585287" CO2_abs="218242.327668" HC_abs="31.070187" PMx_abs="3.819260" NOx_abs="89.574819" fuel_abs="93.815055" electricity_abs="0"/>
    </tripinfo>
    <tripinfo id="h3154c1:1" depart="57658.00" departLane="24634507_1" departPos="5.10" departSpeed="0.00" departDelay="0.00" arrival="57795.00" arrivalLane="-266565295#5_1" arrivalPos="172.76" arrivalSpeed="14.53" duration="137.00" routeLength="1206.22" waitingTime="36.00" waitingCount="2" stopTime="0.00" timeLoss="57.88" rerouteNo="1" devices="tripinfo_h3154c1:1 routing_h3154c1:1 emissions_h3154c1:1" vType="default_016" speedFactor="1.13" vaporized="">
        <emissions CO_abs="8683.158372" CO2_abs="387845.952656" HC_abs="48.601440" PMx_abs="7.472483" NOx_abs="161.637656" fuel_abs="166.719841" electricity_abs="0"/>
    </tripinfo>
    <tripinfo id="carIn107282:1" depart="57749.00" departLane="-447569998#1_1" departPos="5.10" departSpeed="0.00" departDelay="0.00" arrival="57801.00" arrivalLane="315358242#0_1" arrivalPos="165.37" arrivalSpeed="12.49" duration="52.00" routeLength="448.50" waitingTime="0.00" waitingCount="0" stopTime="0.00" timeLoss="6.15" rerouteNo="1" devices="tripinfo_carIn107282:1 routing_carIn107282:1 emissions_carIn107282:1" vType="default_016" speedFactor="0.92" vaporized="">
        <emissions CO_abs="2051.579804" CO2_abs="117959.658495" HC_abs="12.057086" PMx_abs="1.832710" NOx_abs="46.803866" fuel_abs="50.706378" electricity_abs="0"/>
    </tripinfo>
    <tripinfo id="carIn86816:1" depart="57617.00" departLane="128361102#0_1" departPos="5.10" departSpeed="0.00" departDelay="0.80" arrival="57803.00" arrivalLane="201956811#0_1" arrivalPos="40.40" arrivalSpeed="15.19" duration="186.00" routeLength="2067.33" waitingTime="24.00" waitingCount="2" stopTime="0.00" timeLoss="54.31" rerouteNo="1" devices="tripinfo_carIn86816:1 routing_carIn86816:1 emissions_carIn86816:1" vType="default_016" speedFactor="1.15" vaporized="">
        <emissions CO_abs="9434.238328" CO2_abs="545320.749493" HC_abs="55.761763" PMx_abs="10.117052" NOx_abs="223.500323" fuel_abs="234.410469" electricity_abs="0"/>
    </tripinfo>
    <tripinfo id="h645c1:1" depart="57622.00" departLane="266565295#5_1" departPos="5.10" departSpeed="0.00" departDelay="0.40" arrival="57803.00" arrivalLane="-315358244_1" arrivalPos="33.95" arrivalSpeed="10.59" duration="181.00" routeLength="1910.83" waitingTime="0.00" waitingCount="0" stopTime="0.00" timeLoss="15.28" rerouteNo="1" devices="tripinfo_h645c1:1 routing_h645c1:1 emissions_h645c1:1" vType="default_016" speedFactor="0.84" vaporized="">
        <emissions CO_abs="4376.739260" CO2_abs="343888.623437" HC_abs="27.832029" PMx_abs="4.946763" NOx_abs="132.947672" fuel_abs="147.823991" electricity_abs="0"/>
    </tripinfo>
    <tripinfo id="h11737c1:1" depart="57665.00" departLane="272042143_1" departPos="5.10" departSpeed="0.00" departDelay="1.50" arrival="57809.00" arrivalLane="-315358254#1_1" arrivalPos="137.16" arrivalSpeed="15.33" duration="144.00" routeLength="1596.88" waitingTime="25.00" waitingCount="1" stopTime="0.00" timeLoss="44.93" rerouteNo="1" devices="tripinfo_h11737c1:1 routing_h11737c1:1 emissions_h11737c1:1" vType="default_016" speedFactor="1.18" vaporized="">
        <emissions CO_abs="7308.451087" CO2_abs="393961.965478" HC_abs="42.346345" PMx_abs="7.270830" NOx_abs="160.645830" fuel_abs="169.348198" electricity_abs="0"/>
    </tripinfo>
    <tripinfo id="h9563c2:5" depart="57631.00" departLane="315358244_1" departPos="5.10" departSpeed="0.00" departDelay="0.70" arrival="57817.00" arrivalLane="386687235_1" arrivalPos="80.84" arrivalSpeed="13.54" duration="186.00" routeLength="1186.14" waitingTime="76.00" waitingCount="2" stopTime="0.00" timeLoss="103.93" rerouteNo="1" devices="tripinfo_h9563c2:5 routing_h9563c2:5 emissions_h9563c2:5" vType="default_016" speedFactor="1.05" vaporized="">
        <emissions CO_abs="14730.138936" CO2_abs="461700.370598" HC_abs="77.916705" PMx_abs="9.394301" NOx_abs="196.961443" fuel_abs="198.469855" electricity_abs="0"/>
    </tripinfo>
    <tripinfo id="h5979c1:5" depart="57669.00" departLane="399835085#1_1" departPos="5.10" departSpeed="0.00" departDelay="0.00" arrival="57817.00" arrivalLane="-315358254#1_1" arrivalPos="137.16" arrivalSpeed="10.08" duration="148.00" routeLength="659.33" waitingTime="30.00" waitingCount="1" stopTime="0.00" timeLoss="48.40" rerouteNo="1" devices="tripinfo_h5979c1:5 routing_h5979c1:5 emissions_h5979c1:5" vType="default_016" speedFactor="0.74" vaporized="">
        <emissions CO_abs="9661.983463" CO2_abs="262060.818793" HC_abs="50.029072" PMx_abs="4.975763" NOx_abs="110.962901" fuel_abs="112.652862" electricity_abs="0"/>
    </tripinfo>
    <tripinfo id="carIn12365:1" depart="57713.00" departLane="315358244_1" departPos="5.10" departSpeed="0.00" departDelay="0.50" arrival="57822.00" arrivalLane="447569997#1_1" arrivalPos="180.93" arrivalSpeed="8.47" duration="109.00" routeLength="718.04" waitingTime="39.00" waitingCount="1" stopTime="0.00" timeLoss="51.30" rerouteNo="1" devices="tripinfo_carIn12365:1 routing_carIn12365:1 emissions_carIn12365:1" vType="default_016" speedFactor="1.07" vaporized="">
        <emissions CO_abs="8435.580527" CO2_abs="267279.461085" HC_abs="44.580981" PMx_abs="5.248431" NOx_abs="112.600507" fuel_abs="114.894896" electricity_abs="0"/>
    </tripinfo>
    <tripinfo id="carIn12858:1" depart="57661.00" departLane="128361109#1_1" departPos="5.10" departSpeed="0.00" departDelay="0.90" arrival="57829.00" arrivalLane="399835085#1_1" arrivalPos="212.23" arrivalSpeed="7.90" duration="168.00" routeLength="1738.12" waitingTime="30.00" waitingCount="2" stopTime="0.00" timeLoss="60.47" rerouteNo="1" devices="tripinfo_carIn12858:1 routing_carIn12858:1 emissions_carIn12858:1" vType="default_016" speedFactor="1.07" vaporized="">
        <emissions CO_abs="11247.938985" CO2_abs="551994.082273" HC_abs="64.416871" PMx_abs="11.140388" NOx_abs="230.914657" fuel_abs="237.279270" electricity_abs="0"/>
    </tripinfo>
    <tripinfo id="carIn28951:1" depart="57606.00" departLane="10425609#0_1" departPos="5.10" departSpeed="0.00" departDelay="0.20" arrival="57830.00" arrivalLane="-128361102#1_1" arrivalPos="274.68" arrivalSpeed="14.99" duration="224.00" routeLength="2113.04" waitingTime="54.00" waitingCount="3" stopTime="0.00" timeLoss="87.23" rerouteNo="1" devices="tripinfo_carIn28951:1 routing_carIn28951:1 emissions_carIn28951:1" vType="default_016" speedFactor="1.14" vaporized="">
        <emissions CO_abs="13804.262660" CO2_abs="644050.355092" HC_abs="77.939935" PMx_abs="12.164815" NOx_abs="265.504028" fuel_abs="276.852110" electricity_abs="0"/>
    </tripinfo>
    <tripinfo id="carIn102915:1" depart="57643.00" departLane="128361102#0_1" departPos="5.10" departSpeed="0.00" departDelay="0.40" arrival="57833.00" arrivalLane="201956811#0_1" arrivalPos="40.40" arrivalSpeed="13.76" duration="190.00" routeLength="2067.33" waitingTime="18.00" waitingCount="1" stopTime="0.00" timeLoss="43.79" rerouteNo="1" devices="tripinfo_carIn102915:1 routing_carIn102915:1 emissions_carIn102915:1" vType="default_016" speedFactor="1.03" vaporized="">
        <emissions CO_abs="7731.639748" CO2_abs="464092.502758" HC_abs="46.070369" PMx_abs="8.176177" NOx_abs="188.109412" fuel_abs="199.494205" electricity_abs="0"/>
    </tripinfo>
    <tripinfo id="randUni33724:1" depart="57646.00" departLane="128361102#0_1" departPos="5.10" departSpeed="0.00" departDelay="1.20" arrival="57836.00" arrivalLane="201956811#0_1" arrivalPos="40.40" arrivalSpeed="11.98" duration="190.00" routeLength="2067.33" waitingTime="10.00" waitingCount="1" stopTime="0.00" timeLoss="31.43" rerouteNo="1" devices="tripinfo_randUni33724:1 routing_randUni33724:1 emissions_randUni33724:1" vType="random_016" speedFactor="0.95" vaporized="">
        <emissions CO_abs="6304.537609" CO2_abs="425604.929716" HC_abs="38.610990" PMx_abs="6.847290" NOx_abs="168.551442" fuel_abs="182.950291" electricity_abs="0"/>
    </tripinfo>
    <tripinfo id="h20540c1:1" depart="57634.00" departLane="10425609#0_1" departPos="5.10" departSpeed="0.00" departDelay="0.50" arrival="57839.00" arrivalLane="-128361102#1_1" arrivalPos="274.68" arrivalSpeed="13.52" duration="205.00" routeLength="2113.04" waitingTime="25.00" waitingCount="3" stopTime="0.00" timeLoss="57.79" rerouteNo="1" devices="tripinfo_h20540c1:1 routing_h20540c1:1 emissions_h20540c1:1" vType="default_016" speedFactor="1.05" vaporized="">
        <emissions CO_abs="9188.850121" CO2_abs="527592.442866" HC_abs="54.124155" PMx_abs="9.292982" NOx_abs="213.630179" fuel_abs="226.790562" electricity_abs="0"/>
    </tripinfo>
    <tripinfo id="h12244c1:3" depart="57612.00" departLane="315358244_1" departPos="5.10" departSpeed="0.00" departDelay="0.40" arrival="57840.00" arrivalLane="386687235_1" arrivalPos="80.84" arrivalSpeed="11.79" duration="228.00" routeLength="1186.14" waitingTime="102.00" waitingCount="3" stopTime="0.00" timeLoss="125.94" rerouteNo="1" devices="tripinfo_h12244c1:3 routing_h12244c1:3 emissions_h12244c1:3" vType="default_016" speedFactor="0.85" vaporized="">
        <emissions CO_abs="18755.484562" CO2_abs="514097.724154" HC_abs="97.378752" PMx_abs="10.261855" NOx_abs="218.448483" fuel_abs="220.996037" electricity_abs="0"/>
    </tripinfo>
    <tripinfo id="carIn118591:1" depart="57689.00" departLane="315358244_1" departPos="5.10" departSpeed="0.00" departDelay="0.20" arrival="57841.00" arrivalLane="386687235_1" arrivalPos="80.84" arrivalSpeed="13.06" duration="152.00" routeLength="1186.14" waitingTime="36.00" waitingCount="3" stopTime="0.00" timeLoss="66.36" rerouteNo="1" devices="tripinfo_carIn118591:1 routing_carIn118591:1 emissions_carIn118591:1" vType="default_016" speedFactor="1.01" vaporized="">
        <emissions CO_abs="8086.272149" CO2_abs="359832.539963" HC_abs="45.205994" PMx_abs="6.421975" NOx_abs="147.047731" fuel_abs="154.678750" electricity_abs="0"/>
    </tripinfo>
    <tripinfo id="carIn80064:1" depart="57603.00" departLane="128361109#1_1" departPos="5.10" departSpeed="0.00" departDelay="0.40" arrival="57842.00" arrivalLane="-315358254#1_1" arrivalPos="137.16" arrivalSpeed="11.94" duration="239.00" routeLength="1587.97" waitingTime="102.00" waitingCount="4" stopTime="0.00" timeLoss="139.90" rerouteNo="1" devices="tripinfo_carIn80064:1 routing_carIn80064:1 emissions_carIn80064:1" vType="default_016" speedFactor="0.91" vaporized="">
        <emissions CO_abs="20329.897025" CO2_abs="669629.910119" HC_abs="108.317423" PMx_abs="13.840670" NOx_abs="284.739166" fuel_abs="287.850958" electricity_abs="0"/>
    </tripinfo>
    <tripinfo id="carIn129809:1" depart="57729.00" departLane="-447569998#1_1" departPos="5.10" departSpeed="0.00" departDelay="1.00" arrival="57843.00" arrivalLane="-315358244_1" arrivalPos="33.95" arrivalSpeed="15.03" duration="114.00" routeLength="706.49" waitingTime="41.00" waitingCount="2" stopTime="0.00" timeLoss="60.69" rerouteNo="1" devices="tripinfo_carIn129809:1 routing_carIn129809:1 emissions_carIn129809:1" vType="default_015" speedFactor="1.15" vaporized="">
        <emissions CO_abs="8581.643886" CO2_abs="285882.462731" HC_abs="45.702999" PMx_abs="5.740427" NOx_abs="121.281914" fuel_abs="122.891156" electricity_abs="0"/>
    </tripinfo>
    <tripinfo id="randUni15030:1" depart="57735.00" departLane="386687232#0_1" departPos="5.10" departSpeed="0.00" departDelay="0.10" arrival="57855.00" arrivalLane="26677539_1" arrivalPos="151.98" arrivalSpeed="8.71" duration="120.00" routeLength="919.89" waitingTime="23.00" waitingCount="2" stopTime="0.00" timeLoss="41.97" rerouteNo="1" devices="tripinfo_randUni15030:1 routing_randUni15030:1 emissions_randUni15030:1" vType="random_016" speedFactor="1.07" vaporized="">
        <emissions CO_abs="5400.836132" CO2_abs="261515.605473" HC_abs="30.675977" PMx_abs="4.548382" NOx_abs="106.551766" fuel_abs="112.415651" electricity_abs="0"/>
    </tripinfo>
    <tripinfo id="carIn75660:1" depart="57679.00" departLane="128361109#1_1" departPos="5.10" departSpeed="0.00" departDelay="3.40" arrival="57856.00" arrivalLane="386687235_1" arrivalPos="80.84" arrivalSpeed="12.43" duration="177.00" routeLength="2088.57" waitingTime="0.00" waitingCount="0" stopTime="0.00" timeLoss="18.43" rerouteNo="1" devices="tripinfo_carIn75660:1 routing_carIn75660:1 emissions_carIn75660:1" vType="default_016" speedFactor="0.95" vaporized="">
        <emissions CO_abs="4464.885590" CO2_abs="381990.852339" HC_abs="29.214215" PMx_abs="5.897421" NOx_abs="149.258940" fuel_abs="164.201770" electricity_abs="0"/>
    </tripinfo>
    <tripinfo id="carIn85747:1" depart="57673.00" departLane="128361109#1_1" departPos="5.10" departSpeed="0.00" departDelay="0.70" arrival="57874.00" arrivalLane="386687235_1" arrivalPos="80.84" arrivalSpeed="11.29" duration="201.00" routeLength="2088.57" waitingTime="5.00" waitingCount="1" stopTime="0.00" timeLoss="29.22" rerouteNo="1" devices="tripinfo_carIn85747:1 routing_carIn85747:1 emissions_carIn85747:1" vType="default_016" speedFactor="0.88" vaporized="">
        <emissions CO_abs="5626.104131" CO2_abs="407556.191324" HC_abs="35.010593" PMx_abs="6.044558" NOx_abs="158.417608" fuel_abs="175.192268" electricity_abs="0"/>
    </tripinfo>
    <tripinfo id="carIn7949:1" depart="57676.00" departLane="128361109#1_1" departPos="5.10" departSpeed="0.00" departDelay="2.10" arrival="57875.00" arrivalLane="386687235_2" arrivalPos="80.84" arrivalSpeed="11.74" duration="199.00" routeLength="2088.57" waitingTime="5.00" waitingCount="1" stopTime="0.00" timeLoss="29.32" rerouteNo="1" devices="tripinfo_carIn7949:1 routing_carIn7949:1 emissions_carIn7949:1" vType="default_016" speedFactor="0.89" vaporized="">
        <emissions CO_abs="5364.274452" CO2_abs="399605.837003" HC_abs="33.677872" PMx_abs="6.129471" NOx_abs="156.707316" fuel_abs="171.774278" electricity_abs="0"/>
    </tripinfo>
    <tripinfo id="carIn48184:1" depart="57613.00" departLane="-306240162#1_0" departPos="5.10" departSpeed="0.00" departDelay="0.70" arrival="57876.00" arrivalLane="386687235_1" arrivalPos="80.84" arrivalSpeed="11.33" duration="263.00" routeLength="2257.41" waitingTime="61.00" waitingCount="2" stopTime="0.00" timeLoss="94.80" rerouteNo="1" devices="tripinfo_carIn48184:1 routing_carIn48184:1 emissions_carIn48184:1" vType="default_016" speedFactor="0.88" vaporized="">
        <emissions CO_abs="16059.452673" CO2_abs="662306.289436" HC_abs="88.579954" PMx_abs="12.310454" NOx_abs="273.485506" fuel_abs="284.701353" electricity_abs="0"/>
    </tripinfo>
    <tripinfo id="carIn88905:1" depart="57688.00" departLane="128361109#1_1" departPos="5.10" departSpeed="0.00" departDelay="5.80" arrival="57876.00" arrivalLane="386687235_2" arrivalPos="80.84" arrivalSpeed="15.07" duration="188.00" routeLength="2088.57" waitingTime="29.00" waitingCount="2" stopTime="0.00" timeLoss="51.63" rerouteNo="1" devices="tripinfo_carIn88905:1 routing_carIn88905:1 emissions_carIn88905:1" vType="default_016" speedFactor="1.10" vaporized="">
        <emissions CO_abs="8569.215965" CO2_abs="475011.479841" HC_abs="50.081665" PMx_abs="8.408654" NOx_abs="191.424325" fuel_abs="204.188453" electricity_abs="0"/>
    </tripinfo>
    <tripinfo id="h19413c1:1" depart="57685.00" departLane="128361109#1_1" departPos="5.10" departSpeed="0.00" departDelay="5.90" arrival="57878.00" arrivalLane="386687235_2" arrivalPos="80.84" arrivalSpeed="15.11" duration="193.00" routeLength="2088.57" waitingTime="29.00" waitingCount="2" stopTime="0.00" timeLoss="60.47" rerouteNo="1" devices="tripinfo_h19413c1:1 routing_h19413c1:1 emissions_h19413c1:1" vType="default_016" speedFactor="1.14" vaporized="">
        <emissions CO_abs="10575.609879" CO2_abs="554180.748332" HC_abs="61.214110" PMx_abs="10.374931" NOx_abs="228.100120" fuel_abs="238.219687" electricity_abs="0"/>
    </tripinfo>
    <tripinfo id="h5170c2:1" depart="57631.00" departLane="201201953#4_1" departPos="5.10" departSpeed="0.00" departDelay="0.00" arrival="57879.00" arrivalLane="-266565295#5_1" arrivalPos="172.76" arrivalSpeed="13.59" duration="248.00" routeLength="3097.92" waitingTime="0.00" waitingCount="0" stopTime="0.00" timeLoss="25.46" rerouteNo="1" devices="tripinfo_h5170c2:1 routing_h5170c2:1 emissions_h5170c2:1" vType="default_016" speedFactor="1.03" vaporized="">
        <emissions CO_abs="6540.063014" CO2_abs="601893.916405" HC_abs="43.647138" PMx_abs="9.428657" NOx_abs="234.296691" fuel_abs="258.728346" electricity_abs="0"/>
    </tripinfo>
    <tripinfo id="randUni31145:1" depart="57814.00" departLane="10425609#0_1" departPos="5.10" departSpeed="0.00" departDelay="0.30" arrival="57882.00" arrivalLane="201956810_1" arrivalPos="71.65" arrivalSpeed="12.14" duration="68.00" routeLength="255.78" waitingTime="36.00" waitingCount="2" stopTime="0.00" timeLoss="46.70" rerouteNo="1" devices="tripinfo_randUni31145:1 routing_randUni31145:1 emissions_randUni31145:1" vType="random_016" speedFactor="0.94" vaporized="">
        <emissions CO_abs="6895.585964" CO2_abs="182321.142836" HC_abs="35.699203" PMx_abs="3.987565" NOx_abs="80.162061" fuel_abs="78.374321" electricity_abs="0"/>
    </tripinfo>
    <tripinfo id="h8343c1:5" depart="57679.00" departLane="315358254#0_1" departPos="5.10" departSpeed="0.00" departDelay="0.60" arrival="57883.00" arrivalLane="-24634510#5_1" arrivalPos="236.88" arrivalSpeed="11.80" duration="204.00" routeLength="2056.84" waitingTime="30.00" waitingCount="3" stopTime="0.00" timeLoss="57.85" rerouteNo="1" devices="tripinfo_h8343c1:5 routing_h8343c1:5 emissions_h8343c1:5" vType="default_016" speedFactor="0.85" vaporized="">
        <emissions CO_abs="9770.519710" CO2_abs="552693.041852" HC_abs="57.339684" PMx_abs="9.908235" NOx_abs="224.791755" fuel_abs="237.580153" electricity_abs="0"/>
    </tripinfo>
    <tripinfo id="h5938c1:1" depart="57740.00" departLane="-26677542#0_1" departPos="5.10" departSpeed="0.00" departDelay="0.00" arrival="57883.00" arrivalLane="447569997#1_1" arrivalPos="180.93" arrivalSpeed="7.15" duration="143.00" routeLength="1093.64" waitingTime="19.00" waitingCount="1" stopTime="0.00" timeLoss="38.66" rerouteNo="1" devices="tripinfo_h5938c1:1 routing_h5938c1:1 emissions_h5938c1:1" vType="default_016" speedFactor="0.93" vaporized="">
        <emissions CO_abs="7306.684455" CO2_abs="303909.550489" HC_abs="40.302139" PMx_abs="5.231873" NOx_abs="123.939303" fuel_abs="130.640119" electricity_abs="0"/>
    </tripinfo>
    <tripinfo id="carIn24709:1" depart="57753.00" departLane="266565295#5_1" departPos="5.10" departSpeed="0.00" departDelay="2.50" arrival="57884.00" arrivalLane="-24634506#2_1" arrivalPos="71.32" arrivalSpeed="15.05" duration="131.00" routeLength="1534.27" waitingTime="1.00" waitingCount="1" stopTime="0.00" timeLoss="33.45" rerouteNo="1" devices="tripinfo_carIn24709:1 routing_carIn24709:1 emissions_carIn24709:1" vType="default_016" speedFactor="1.17" vaporized="">
        <emissions CO_abs="6333.574387" CO2_abs="424196.658120" HC_abs="38.855592" PMx_abs="8.015494" NOx_abs="175.912166" fuel_abs="182.343117" electricity_abs="0"/>
    </tripinfo>