<?xml version="1.0" encoding="UTF-8"?>

<!-- generated on 2021-10-26 14:12:41 by Eclipse SUMO sumo Version 1.10.0
<configuration xmlns:xsi="http://www.w3.org/2001/XMLSchema-instance" xsi:noNamespaceSchemaLocation="http://sumo.dlr.de/xsd/sumoConfiguration.xsd">

    <input>
        <net-file value="/Users/behradkoohy/sumo-scratchpad/RESCO/environments/ingolstadt21/ingolstadt21.net.xml"/>
        <route-files value="/Users/behradkoohy/sumo-scratchpad/RESCO/environments/ingolstadt21/ingolstadt21.rou.xml"/>
    </input>

    <output>
        <tripinfo-output value="/Users/behradkoohy/sumo-scratchpad/RESCO/logs/STOCHASTIC-tr0-ingolstadt21-21-mplight-wait/tripinfo_30.xml"/>
        <tripinfo-output.write-unfinished value="true"/>
    </output>

    <time>
        <begin value="57600"/>
        <end value="61200"/>
    </time>

    <processing>
        <time-to-teleport value="-1"/>
    </processing>

    <report>
        <no-warnings value="true"/>
        <no-step-log value="true"/>
    </report>

    <emissions>
        <device.emissions.probability value="1"/>
    </emissions>

    <traci_server>
        <remote-port value="60099"/>
    </traci_server>

    <random_number>
        <random value="true"/>
    </random_number>

</configuration>
-->

<tripinfos xmlns:xsi="http://www.w3.org/2001/XMLSchema-instance" xsi:noNamespaceSchemaLocation="http://sumo.dlr.de/xsd/tripinfo_file.xsd">
    <tripinfo id="h15454c2:3" depart="57612.00" departLane="24608844_1" departPos="5.10" departSpeed="0.00" departDelay="0.50" arrival="57654.00" arrivalLane="32978638#0_1" arrivalPos="49.29" arrivalSpeed="12.28" duration="42.00" routeLength="354.79" waitingTime="0.00" waitingCount="0" stopTime="0.00" timeLoss="5.26" rerouteNo="1" devices="tripinfo_h15454c2:3 routing_h15454c2:3 emissions_h15454c2:3" vType="default_016" speedFactor="0.93" vaporized="">
        <emissions CO_abs="1799.291190" CO2_abs="93312.826047" HC_abs="10.357409" PMx_abs="1.578844" NOx_abs="38.061147" fuel_abs="40.111573" electricity_abs="0"/>
    </tripinfo>
    <tripinfo id="carIn60260:1" depart="57606.00" departLane="315358254#0_1" departPos="5.10" departSpeed="0.00" departDelay="0.90" arrival="57660.00" arrivalLane="399835085#1_1" arrivalPos="212.23" arrivalSpeed="8.02" duration="54.00" routeLength="430.98" waitingTime="0.00" waitingCount="0" stopTime="0.00" timeLoss="7.19" rerouteNo="1" devices="tripinfo_carIn60260:1 routing_carIn60260:1 emissions_carIn60260:1" vType="default_016" speedFactor="0.99" vaporized="">
        <emissions CO_abs="2274.289158" CO2_abs="115390.716434" HC_abs="13.013792" PMx_abs="1.870523" NOx_abs="46.623375" fuel_abs="49.602162" electricity_abs="0"/>
    </tripinfo>
    <tripinfo id="carIn53971:1" depart="57640.00" departLane="272042143_1" departPos="5.10" departSpeed="0.00" departDelay="0.80" arrival="57696.00" arrivalLane="24634414#1_1" arrivalPos="162.19" arrivalSpeed="6.66" duration="56.00" routeLength="493.04" waitingTime="0.00" waitingCount="0" stopTime="0.00" timeLoss="7.48" rerouteNo="1" devices="tripinfo_carIn53971:1 routing_carIn53971:1 emissions_carIn53971:1" vType="default_016" speedFactor="0.94" vaporized="">
        <emissions CO_abs="2158.149912" CO2_abs="119748.769248" HC_abs="12.606935" PMx_abs="2.004587" NOx_abs="48.583085" fuel_abs="51.475279" electricity_abs="0"/>
    </tripinfo>
    <tripinfo id="carIn22761:1" depart="57616.00" departLane="-306240162#1_0" departPos="5.10" departSpeed="0.00" departDelay="2.10" arrival="57707.00" arrivalLane="399835085#1_1" arrivalPos="212.23" arrivalSpeed="9.90" duration="91.00" routeLength="1093.26" waitingTime="8.00" waitingCount="1" stopTime="0.00" timeLoss="26.66" rerouteNo="1" devices="tripinfo_carIn22761:1 routing_carIn22761:1 emissions_carIn22761:1" vType="default_016" speedFactor="1.22" vaporized="">
        <emissions CO_abs="5555.239185" CO2_abs="330640.672819" HC_abs="33.255929" PMx_abs="6.633212" NOx_abs="137.233554" fuel_abs="142.127795" electricity_abs="0"/>
    </tripinfo>
    <tripinfo id="h3688c1:1" depart="57625.00" departLane="201201950#1_1" departPos="5.10" departSpeed="0.00" departDelay="0.00" arrival="57728.00" arrivalLane="32978638#0_1" arrivalPos="49.29" arrivalSpeed="11.78" duration="103.00" routeLength="1089.75" waitingTime="0.00" waitingCount="0" stopTime="0.00" timeLoss="10.60" rerouteNo="1" devices="tripinfo_h3688c1:1 routing_h3688c1:1 emissions_h3688c1:1" vType="default_016" speedFactor="0.87" vaporized="">
        <emissions CO_abs="3014.838133" CO2_abs="227886.727636" HC_abs="18.988248" PMx_abs="3.419407" NOx_abs="89.041173" fuel_abs="97.959286" electricity_abs="0"/>
    </tripinfo>
    <tripinfo id="h9563c2:5" depart="57631.00" departLane="315358244_1" departPos="5.10" departSpeed="0.00" departDelay="0.70" arrival="57732.00" arrivalLane="386687235_1" arrivalPos="80.84" arrivalSpeed="14.34" duration="101.00" routeLength="1186.14" waitingTime="2.00" waitingCount="1" stopTime="0.00" timeLoss="20.61" rerouteNo="1" devices="tripinfo_h9563c2:5 routing_h9563c2:5 emissions_h9563c2:5" vType="default_016" speedFactor="1.07" vaporized="">
        <emissions CO_abs="3918.619393" CO2_abs="279373.401766" HC_abs="24.371820" PMx_abs="4.806426" NOx_abs="112.204391" fuel_abs="120.090664" electricity_abs="0"/>
    </tripinfo>
    <tripinfo id="h7800c1:5" depart="57696.00" departLane="-447569998#1_1" departPos="5.10" departSpeed="0.00" departDelay="0.00" arrival="57745.00" arrivalLane="-447569998#1_2" arrivalPos="180.76" arrivalSpeed="3.66" duration="49.00" routeLength="175.66" waitingTime="20.00" waitingCount="1" stopTime="0.00" timeLoss="27.54" rerouteNo="1" devices="tripinfo_h7800c1:5 routing_h7800c1:5 emissions_h7800c1:5" vType="default_016" speedFactor="0.99" vaporized="">
        <emissions CO_abs="3357.448507" CO2_abs="84638.056980" HC_abs="17.245968" PMx_abs="1.685324" NOx_abs="36.250434" fuel_abs="36.383706" electricity_abs="0"/>
    </tripinfo>
    <tripinfo id="h4538c1:1" depart="57701.00" departLane="-10427692#1_1" departPos="5.10" departSpeed="0.00" departDelay="0.00" arrival="57753.00" arrivalLane="-128361102#1_1" arrivalPos="274.68" arrivalSpeed="14.57" duration="52.00" routeLength="440.74" waitingTime="12.00" waitingCount="1" stopTime="0.00" timeLoss="23.54" rerouteNo="1" devices="tripinfo_h4538c1:1 routing_h4538c1:1 emissions_h4538c1:1" vType="default_016" speedFactor="1.13" vaporized="">
        <emissions CO_abs="2872.249815" CO2_abs="135791.558443" HC_abs="16.292953" PMx_abs="2.606555" NOx_abs="56.542716" fuel_abs="58.371369" electricity_abs="0"/>
    </tripinfo>
    <tripinfo id="h7181c1:1" depart="57660.00" departLane="315358254#0_1" departPos="5.10" departSpeed="0.00" departDelay="0.10" arrival="57755.00" arrivalLane="306240162#0_0" arrivalPos="220.43" arrivalSpeed="16.55" duration="95.00" routeLength="932.35" waitingTime="27.00" waitingCount="1" stopTime="0.00" timeLoss="43.48" rerouteNo="1" devices="tripinfo_h7181c1:1 routing_h7181c1:1 emissions_h7181c1:1" vType="default_016" speedFactor="1.00" vaporized="">
        <emissions CO_abs="7741.891091" CO2_abs="342252.241583" HC_abs="43.453014" PMx_abs="7.125134" NOx_abs="145.607290" fuel_abs="147.120207" electricity_abs="0"/>
    </tripinfo>
    <tripinfo id="h12244c1:3" depart="57612.00" departLane="315358244_1" departPos="5.10" departSpeed="0.00" departDelay="0.40" arrival="57757.00" arrivalLane="386687235_1" arrivalPos="80.84" arrivalSpeed="12.61" duration="145.00" routeLength="1186.14" waitingTime="34.00" waitingCount="2" stopTime="0.00" timeLoss="53.54" rerouteNo="1" devices="tripinfo_h12244c1:3 routing_h12244c1:3 emissions_h12244c1:3" vType="default_016" speedFactor="0.94" vaporized="">
        <emissions CO_abs="7354.952030" CO2_abs="332390.186659" HC_abs="41.217721" PMx_abs="5.722029" NOx_abs="134.399324" fuel_abs="142.882528" electricity_abs="0"/>
    </tripinfo>
    <tripinfo id="h5979c1:5" depart="57669.00" departLane="399835085#1_1" departPos="5.10" departSpeed="0.00" departDelay="0.00" arrival="57757.00" arrivalLane="-315358254#1_1" arrivalPos="137.16" arrivalSpeed="13.24" duration="88.00" routeLength="659.33" waitingTime="0.00" waitingCount="0" stopTime="0.00" timeLoss="16.26" rerouteNo="1" devices="tripinfo_h5979c1:5 routing_h5979c1:5 emissions_h5979c1:5" vType="default_016" speedFactor="1.01" vaporized="">
        <emissions CO_abs="4129.907693" CO2_abs="201396.008907" HC_abs="23.440585" PMx_abs="3.277008" NOx_abs="81.533053" fuel_abs="86.572738" electricity_abs="0"/>
    </tripinfo>
    <tripinfo id="carIn121703:1" depart="57647.00" departLane="386687232#0_1" departPos="5.10" departSpeed="0.00" departDelay="0.30" arrival="57763.00" arrivalLane="-315358244_1" arrivalPos="33.95" arrivalSpeed="13.04" duration="116.00" routeLength="1157.39" waitingTime="12.00" waitingCount="1" stopTime="0.00" timeLoss="31.77" rerouteNo="1" devices="tripinfo_carIn121703:1 routing_carIn121703:1 emissions_carIn121703:1" vType="default_016" speedFactor="1.00" vaporized="">
        <emissions CO_abs="5052.048674" CO2_abs="278240.792457" HC_abs="29.504146" PMx_abs="4.815624" NOx_abs="112.386630" fuel_abs="119.604703" electricity_abs="0"/>
    </tripinfo>
    <tripinfo id="h3568c1:3" depart="57656.00" departLane="266565295#5_1" departPos="5.10" departSpeed="0.00" departDelay="0.80" arrival="57770.00" arrivalLane="-24634415_1" arrivalPos="62.03" arrivalSpeed="10.89" duration="114.00" routeLength="807.40" waitingTime="19.00" waitingCount="1" stopTime="0.00" timeLoss="39.87" rerouteNo="1" devices="tripinfo_h3568c1:3 routing_h3568c1:3 emissions_h3568c1:3" vType="default_016" speedFactor="0.88" vaporized="">
        <emissions CO_abs="6617.194069" CO2_abs="274917.942455" HC_abs="36.566626" PMx_abs="5.152604" NOx_abs="115.222429" fuel_abs="118.176962" electricity_abs="0"/>
    </tripinfo>
    <tripinfo id="h3326c1:2" depart="57656.00" departLane="22716069#0_1" departPos="5.10" departSpeed="0.00" departDelay="0.00" arrival="57778.00" arrivalLane="24634517#13_1" arrivalPos="111.62" arrivalSpeed="12.64" duration="122.00" routeLength="1312.81" waitingTime="0.00" waitingCount="0" stopTime="0.00" timeLoss="15.49" rerouteNo="1" devices="tripinfo_h3326c1:2 routing_h3326c1:2 emissions_h3326c1:2" vType="default_016" speedFactor="0.92" vaporized="">
        <emissions CO_abs="4017.524936" CO2_abs="285794.398738" HC_abs="24.963567" PMx_abs="4.710585" NOx_abs="114.481915" fuel_abs="122.851000" electricity_abs="0"/>
    </tripinfo>
    <tripinfo id="carIn80064:1" depart="57603.00" departLane="128361109#1_1" departPos="5.10" departSpeed="0.00" departDelay="0.40" arrival="57780.00" arrivalLane="-315358254#1_1" arrivalPos="137.16" arrivalSpeed="15.17" duration="177.00" routeLength="1587.97" waitingTime="58.00" waitingCount="3" stopTime="0.00" timeLoss="100.92" rerouteNo="1" devices="tripinfo_carIn80064:1 routing_carIn80064:1 emissions_carIn80064:1" vType="default_016" speedFactor="1.18" vaporized="">
        <emissions CO_abs="15357.298409" CO2_abs="627323.574160" HC_abs="84.974630" PMx_abs="13.357168" NOx_abs="267.310190" fuel_abs="269.661380" electricity_abs="0"/>
    </tripinfo>
    <tripinfo id="h317c2:1" depart="57707.00" departLane="-32978638#0_1" departPos="5.10" departSpeed="0.00" departDelay="0.10" arrival="57783.00" arrivalLane="-266565295#5_1" arrivalPos="172.76" arrivalSpeed="15.82" duration="76.00" routeLength="370.53" waitingTime="42.00" waitingCount="1" stopTime="0.00" timeLoss="52.20" rerouteNo="1" devices="tripinfo_h317c2:1 routing_h317c2:1 emissions_h317c2:1" vType="default_016" speedFactor="1.15" vaporized="">
        <emissions CO_abs="8268.934816" CO2_abs="236394.386609" HC_abs="43.138316" PMx_abs="4.945389" NOx_abs="101.323308" fuel_abs="101.618640" electricity_abs="0"/>
    </tripinfo>
    <tripinfo id="h330c1:1" depart="57736.00" departLane="-32978638#0_1" departPos="5.10" departSpeed="0.00" departDelay="0.20" arrival="57787.00" arrivalLane="-266565295#5_1" arrivalPos="172.76" arrivalSpeed="12.97" duration="51.00" routeLength="370.53" waitingTime="12.00" waitingCount="1" stopTime="0.00" timeLoss="23.26" rerouteNo="1" devices="tripinfo_h330c1:1 routing_h330c1:1 emissions_h330c1:1" vType="default_016" speedFactor="0.98" vaporized="">
        <emissions CO_abs="3486.839329" CO2_abs="144300.391283" HC_abs="19.271633" PMx_abs="2.763882" NOx_abs="60.497113" fuel_abs="62.029311" electricity_abs="0"/>
    </tripinfo>
    <tripinfo id="S5R_frequency1.2" depart="57647.00" departLane="315358250#0_1" departPos="12.10" departSpeed="0.00" departDelay="35.40" arrival="57797.00" arrivalLane="386687235_1" arrivalPos="80.84" arrivalSpeed="13.88" duration="150.00" routeLength="1115.62" waitingTime="40.00" waitingCount="3" stopTime="0.00" timeLoss="68.15" rerouteNo="1" devices="tripinfo_S5R_frequency1.2 routing_S5R_frequency1.2 emissions_S5R_frequency1.2" vType="bus" speedFactor="1.00" vaporized="">
        <emissions CO_abs="2702.914247" CO2_abs="1468834.797811" HC_abs="584.005480" PMx_abs="284.717825" NOx_abs="12005.446666" fuel_abs="626.367149" electricity_abs="0"/>
    </tripinfo>
    <tripinfo id="carIn30817:1" depart="57681.00" departLane="315358244_1" departPos="5.10" departSpeed="0.00" departDelay="0.20" arrival="57799.00" arrivalLane="447569997#1_1" arrivalPos="180.93" arrivalSpeed="8.77" duration="118.00" routeLength="718.04" waitingTime="43.00" waitingCount="2" stopTime="0.00" timeLoss="60.49" rerouteNo="1" devices="tripinfo_carIn30817:1 routing_carIn30817:1 emissions_carIn30817:1" vType="default_016" speedFactor="1.07" vaporized="">
        <emissions CO_abs="9211.543088" CO2_abs="290159.583417" HC_abs="48.676498" PMx_abs="5.683541" NOx_abs="122.369219" fuel_abs="124.730382" electricity_abs="0"/>
    </tripinfo>
    <tripinfo id="carIn12365:1" depart="57713.00" departLane="315358244_1" departPos="5.10" departSpeed="0.00" departDelay="0.50" arrival="57801.00" arrivalLane="447569997#1_2" arrivalPos="180.93" arrivalSpeed="8.63" duration="88.00" routeLength="718.04" waitingTime="12.00" waitingCount="2" stopTime="0.00" timeLoss="32.27" rerouteNo="1" devices="tripinfo_carIn12365:1 routing_carIn12365:1 emissions_carIn12365:1" vType="default_016" speedFactor="1.11" vaporized="">
        <emissions CO_abs="4235.745379" CO2_abs="202432.061005" HC_abs="24.018465" PMx_abs="3.791529" NOx_abs="84.495519" fuel_abs="87.017475" electricity_abs="0"/>
    </tripinfo>
    <tripinfo id="h16072c2:3" depart="57663.00" departLane="315358254#0_1" departPos="5.10" departSpeed="0.00" departDelay="2.50" arrival="57802.00" arrivalLane="386687235_1" arrivalPos="80.84" arrivalSpeed="15.54" duration="139.00" routeLength="1611.92" waitingTime="12.00" waitingCount="2" stopTime="0.00" timeLoss="35.68" rerouteNo="1" devices="tripinfo_h16072c2:3 routing_h16072c2:3 emissions_h16072c2:3" vType="default_016" speedFactor="1.14" vaporized="">
        <emissions CO_abs="5443.914277" CO2_abs="367841.314491" HC_abs="33.109381" PMx_abs="6.338995" NOx_abs="146.503505" fuel_abs="158.119540" electricity_abs="0"/>
    </tripinfo>
    <tripinfo id="carIn107282:1" depart="57749.00" departLane="-447569998#1_1" departPos="5.10" departSpeed="0.00" departDelay="0.00" arrival="57804.00" arrivalLane="315358242#0_1" arrivalPos="165.37" arrivalSpeed="14.88" duration="55.00" routeLength="448.50" waitingTime="9.00" waitingCount="1" stopTime="0.00" timeLoss="16.30" rerouteNo="1" devices="tripinfo_carIn107282:1 routing_carIn107282:1 emissions_carIn107282:1" vType="default_016" speedFactor="1.09" vaporized="">
        <emissions CO_abs="2275.680173" CO2_abs="122147.022303" HC_abs="13.216103" PMx_abs="2.133675" NOx_abs="49.903389" fuel_abs="52.506145" electricity_abs="0"/>
    </tripinfo>
    <tripinfo id="h11737c1:1" depart="57665.00" departLane="272042143_1" departPos="5.10" departSpeed="0.00" departDelay="1.50" arrival="57806.00" arrivalLane="-315358254#1_1" arrivalPos="137.16" arrivalSpeed="14.48" duration="141.00" routeLength="1596.88" waitingTime="5.00" waitingCount="1" stopTime="0.00" timeLoss="32.02" rerouteNo="1" devices="tripinfo_h11737c1:1 routing_h11737c1:1 emissions_h11737c1:1" vType="default_016" speedFactor="1.07" vaporized="">
        <emissions CO_abs="5320.097090" CO2_abs="376583.617976" HC_abs="33.077725" PMx_abs="6.579864" NOx_abs="152.307858" fuel_abs="161.877017" electricity_abs="0"/>
    </tripinfo>
    <tripinfo id="carIn126288:1" depart="57674.00" departLane="272042143_1" departPos="5.10" departSpeed="0.00" departDelay="0.00" arrival="57808.00" arrivalLane="-315358254#1_1" arrivalPos="137.16" arrivalSpeed="14.06" duration="134.00" routeLength="1596.88" waitingTime="2.00" waitingCount="1" stopTime="0.00" timeLoss="26.63" rerouteNo="1" devices="tripinfo_carIn126288:1 routing_carIn126288:1 emissions_carIn126288:1" vType="default_016" speedFactor="1.08" vaporized="">
        <emissions CO_abs="4663.733794" CO2_abs="360004.628070" HC_abs="29.603474" PMx_abs="6.136593" NOx_abs="143.994401" fuel_abs="154.750347" electricity_abs="0"/>
    </tripinfo>
    <tripinfo id="carIn27009:1" depart="57673.00" departLane="-447569998#1_1" departPos="5.10" departSpeed="0.00" departDelay="0.50" arrival="57809.00" arrivalLane="-26677539_1" arrivalPos="152.75" arrivalSpeed="8.57" duration="136.00" routeLength="699.63" waitingTime="44.00" waitingCount="1" stopTime="0.00" timeLoss="60.80" rerouteNo="1" devices="tripinfo_carIn27009:1 routing_carIn27009:1 emissions_carIn27009:1" vType="default_015" speedFactor="1.11" vaporized="">
        <emissions CO_abs="10248.639748" CO2_abs="296476.624515" HC_abs="53.544682" PMx_abs="5.751535" NOx_abs="125.831366" fuel_abs="127.446567" electricity_abs="0"/>
    </tripinfo>
    <tripinfo id="carIn129809:1" depart="57729.00" departLane="-447569998#1_1" departPos="5.10" departSpeed="0.00" departDelay="1.00" arrival="57812.00" arrivalLane="-315358244_1" arrivalPos="33.95" arrivalSpeed="11.62" duration="83.00" routeLength="706.49" waitingTime="1.00" waitingCount="1" stopTime="0.00" timeLoss="11.93" rerouteNo="1" devices="tripinfo_carIn129809:1 routing_carIn129809:1 emissions_carIn129809:1" vType="default_015" speedFactor="0.85" vaporized="">
        <emissions CO_abs="2958.911043" CO2_abs="169435.913263" HC_abs="17.372522" PMx_abs="2.632933" NOx_abs="67.278149" fuel_abs="72.834070" electricity_abs="0"/>
    </tripinfo>
    <tripinfo id="carIn12858:1" depart="57661.00" departLane="128361109#1_1" departPos="5.10" departSpeed="0.00" departDelay="0.90" arrival="57820.00" arrivalLane="399835085#1_1" arrivalPos="212.23" arrivalSpeed="8.33" duration="159.00" routeLength="1738.12" waitingTime="24.00" waitingCount="1" stopTime="0.00" timeLoss="52.19" rerouteNo="1" devices="tripinfo_carIn12858:1 routing_carIn12858:1 emissions_carIn12858:1" vType="default_016" speedFactor="1.07" vaporized="">
        <emissions CO_abs="10405.328843" CO2_abs="539597.882006" HC_abs="60.241105" PMx_abs="10.680544" NOx_abs="224.060533" fuel_abs="231.950503" electricity_abs="0"/>
    </tripinfo>
    <tripinfo id="carIn48184:1" depart="57613.00" departLane="-306240162#1_0" departPos="5.10" departSpeed="0.00" departDelay="0.70" arrival="57835.00" arrivalLane="386687235_1" arrivalPos="80.84" arrivalSpeed="14.02" duration="222.00" routeLength="2257.41" waitingTime="55.00" waitingCount="2" stopTime="0.00" timeLoss="81.94" rerouteNo="1" devices="tripinfo_carIn48184:1 routing_carIn48184:1 emissions_carIn48184:1" vType="default_016" speedFactor="1.06" vaporized="">
        <emissions CO_abs="13534.102270" CO2_abs="630649.433018" HC_abs="76.453786" PMx_abs="11.880897" NOx_abs="258.066145" fuel_abs="271.091824" electricity_abs="0"/>
    </tripinfo>
    <tripinfo id="carIn7949:1" depart="57676.00" departLane="128361109#1_1" departPos="5.10" departSpeed="0.00" departDelay="2.10" arrival="57836.00" arrivalLane="386687235_2" arrivalPos="80.84" arrivalSpeed="16.16" duration="160.00" routeLength="2088.57" waitingTime="10.00" waitingCount="1" stopTime="0.00" timeLoss="31.56" rerouteNo="1" devices="tripinfo_carIn7949:1 routing_carIn7949:1 emissions_carIn7949:1" vType="default_016" speedFactor="1.17" vaporized="">
        <emissions CO_abs="4811.731009" CO2_abs="406247.255770" HC_abs="31.352404" PMx_abs="6.745390" NOx_abs="158.992692" fuel_abs="174.628173" electricity_abs="0"/>
    </tripinfo>
    <tripinfo id="carIn85747:1" depart="57673.00" departLane="128361109#1_1" departPos="5.10" departSpeed="0.00" departDelay="0.70" arrival="57837.00" arrivalLane="386687235_1" arrivalPos="80.84" arrivalSpeed="15.55" duration="164.00" routeLength="2088.57" waitingTime="14.00" waitingCount="1" stopTime="0.00" timeLoss="33.08" rerouteNo="1" devices="tripinfo_carIn85747:1 routing_carIn85747:1 emissions_carIn85747:1" vType="default_016" speedFactor="1.15" vaporized="">
        <emissions CO_abs="5927.031492" CO2_abs="452128.912029" HC_abs="37.465207" PMx_abs="7.808893" NOx_abs="179.732505" fuel_abs="194.350648" electricity_abs="0"/>
    </tripinfo>
    <tripinfo id="carIn28951:1" depart="57606.00" departLane="10425609#0_1" departPos="5.10" departSpeed="0.00" departDelay="0.20" arrival="57841.00" arrivalLane="-128361102#1_1" arrivalPos="274.68" arrivalSpeed="10.58" duration="235.00" routeLength="2113.04" waitingTime="23.00" waitingCount="2" stopTime="0.00" timeLoss="52.92" rerouteNo="1" devices="tripinfo_carIn28951:1 routing_carIn28951:1 emissions_carIn28951:1" vType="default_016" speedFactor="0.85" vaporized="">
        <emissions CO_abs="9274.333141" CO2_abs="511422.847504" HC_abs="54.120513" PMx_abs="8.579233" NOx_abs="206.536453" fuel_abs="219.840669" electricity_abs="0"/>
    </tripinfo>
    <tripinfo id="h20540c1:1" depart="57634.00" departLane="10425609#0_1" departPos="5.10" departSpeed="0.00" departDelay="0.50" arrival="57842.00" arrivalLane="-128361102#1_1" arrivalPos="274.68" arrivalSpeed="12.89" duration="208.00" routeLength="2113.04" waitingTime="11.00" waitingCount="2" stopTime="0.00" timeLoss="51.99" rerouteNo="1" devices="tripinfo_h20540c1:1 routing_h20540c1:1 emissions_h20540c1:1" vType="default_016" speedFactor="0.99" vaporized="">
        <emissions CO_abs="8438.231352" CO2_abs="528334.580829" HC_abs="50.811376" PMx_abs="9.287829" NOx_abs="215.225002" fuel_abs="227.108822" electricity_abs="0"/>
    </tripinfo>
    <tripinfo id="h19413c1:1" depart="57685.00" departLane="128361109#1_1" departPos="5.10" departSpeed="0.00" departDelay="5.90" arrival="57842.00" arrivalLane="386687235_1" arrivalPos="80.84" arrivalSpeed="14.34" duration="157.00" routeLength="2088.57" waitingTime="0.00" waitingCount="0" stopTime="0.00" timeLoss="20.47" rerouteNo="1" devices="tripinfo_h19413c1:1 routing_h19413c1:1 emissions_h19413c1:1" vType="default_016" speedFactor="1.10" vaporized="">
        <emissions CO_abs="4411.921563" CO2_abs="395537.821682" HC_abs="29.320477" PMx_abs="6.369082" NOx_abs="154.534353" fuel_abs="170.024629" electricity_abs="0"/>
    </tripinfo>
    <tripinfo id="carIn86816:1" depart="57617.00" departLane="128361102#0_1" departPos="5.10" departSpeed="0.00" departDelay="0.80" arrival="57843.00" arrivalLane="201956811#0_1" arrivalPos="40.40" arrivalSpeed="13.76" duration="226.00" routeLength="2067.33" waitingTime="50.00" waitingCount="2" stopTime="0.00" timeLoss="79.18" rerouteNo="1" devices="tripinfo_carIn86816:1 routing_carIn86816:1 emissions_carIn86816:1" vType="default_016" speedFactor="1.03" vaporized="">
        <emissions CO_abs="12823.377217" CO2_abs="576590.175660" HC_abs="71.802601" PMx_abs="10.427964" NOx_abs="235.430590" fuel_abs="247.854645" electricity_abs="0"/>
    </tripinfo>
    <tripinfo id="carIn102915:1" depart="57643.00" departLane="128361102#0_1" departPos="5.10" departSpeed="0.00" departDelay="0.40" arrival="57844.00" arrivalLane="201956811#0_1" arrivalPos="40.40" arrivalSpeed="15.54" duration="201.00" routeLength="2067.33" waitingTime="28.00" waitingCount="3" stopTime="0.00" timeLoss="70.12" rerouteNo="1" devices="tripinfo_carIn102915:1 routing_carIn102915:1 emissions_carIn102915:1" vType="default_016" speedFactor="1.16" vaporized="">
        <emissions CO_abs="9817.543787" CO2_abs="568096.394260" HC_abs="58.042059" PMx_abs="10.343977" NOx_abs="232.297565" fuel_abs="244.200984" electricity_abs="0"/>
    </tripinfo>
    <tripinfo id="carIn75660:1" depart="57679.00" departLane="128361109#1_1" departPos="5.10" departSpeed="0.00" departDelay="3.40" arrival="57846.00" arrivalLane="386687235_1" arrivalPos="80.84" arrivalSpeed="13.68" duration="167.00" routeLength="2088.57" waitingTime="7.00" waitingCount="1" stopTime="0.00" timeLoss="24.51" rerouteNo="1" devices="tripinfo_carIn75660:1 routing_carIn75660:1 emissions_carIn75660:1" vType="default_016" speedFactor="1.06" vaporized="">
        <emissions CO_abs="4573.429398" CO2_abs="407614.887690" HC_abs="30.199344" PMx_abs="6.371462" NOx_abs="157.922438" fuel_abs="175.216344" electricity_abs="0"/>
    </tripinfo>
    <tripinfo id="carIn50326:1" depart="57651.00" departLane="128361102#0_1" departPos="5.10" departSpeed="0.00" departDelay="0.30" arrival="57851.00" arrivalLane="18809673#0_1" arrivalPos="473.56" arrivalSpeed="13.81" duration="200.00" routeLength="1591.07" waitingTime="45.00" waitingCount="2" stopTime="0.00" timeLoss="75.31" rerouteNo="1" devices="tripinfo_carIn50326:1 routing_carIn50326:1 emissions_carIn50326:1" vType="default_016" speedFactor="1.04" vaporized="">
        <emissions CO_abs="11649.145891" CO2_abs="476141.491640" HC_abs="64.121763" PMx_abs="8.815256" NOx_abs="197.017043" fuel_abs="204.675961" electricity_abs="0"/>
    </tripinfo>
    <tripinfo id="randUni33724:1" depart="57646.00" departLane="128361102#0_1" departPos="5.10" departSpeed="0.00" departDelay="1.20" arrival="57853.00" arrivalLane="201956811#0_1" arrivalPos="40.40" arrivalSpeed="10.86" duration="207.00" routeLength="2067.33" waitingTime="0.00" waitingCount="0" stopTime="0.00" timeLoss="24.81" rerouteNo="1" devices="tripinfo_randUni33724:1 routing_randUni33724:1 emissions_randUni33724:1" vType="random_016" speedFactor="0.83" vaporized="">
        <emissions CO_abs="6009.154398" CO2_abs="424402.120708" HC_abs="37.145203" PMx_abs="6.395606" NOx_abs="166.463160" fuel_abs="182.433552" electricity_abs="0"/>
    </tripinfo>
    <tripinfo id="carIn81860:1" depart="57712.00" departLane="128361102#0_1" departPos="5.10" departSpeed="0.00" departDelay="0.60" arrival="57858.00" arrivalLane="-24634517#17_1" arrivalPos="6.43" arrivalSpeed="7.12" duration="146.00" routeLength="1229.64" waitingTime="14.00" waitingCount="2" stopTime="0.00" timeLoss="45.83" rerouteNo="1" devices="tripinfo_carIn81860:1 routing_carIn81860:1 emissions_carIn81860:1" vType="default_016" speedFactor="0.90" vaporized="">
        <emissions CO_abs="5430.884986" CO2_abs="287677.997006" HC_abs="31.432641" PMx_abs="4.937759" NOx_abs="116.902816" fuel_abs="123.661525" electricity_abs="0"/>
    </tripinfo>
    <tripinfo id="h645c1:1" depart="57622.00" departLane="266565295#5_1" departPos="5.10" departSpeed="0.00" departDelay="0.40" arrival="57863.00" arrivalLane="-315358244_1" arrivalPos="33.95" arrivalSpeed="12.18" duration="241.00" routeLength="1910.83" waitingTime="71.00" waitingCount="2" stopTime="0.00" timeLoss="94.23" rerouteNo="1" devices="tripinfo_h645c1:1 routing_h645c1:1 emissions_h645c1:1" vType="default_016" speedFactor="0.94" vaporized="">
        <emissions CO_abs="14871.235965" CO2_abs="530480.551830" HC_abs="80.096596" PMx_abs="9.886904" NOx_abs="219.453953" fuel_abs="228.035935" electricity_abs="0"/>
    </tripinfo>
    <tripinfo id="carIn12152:1" depart="57647.00" departLane="24599188#0.94_1" departPos="5.10" departSpeed="0.00" departDelay="0.50" arrival="57866.00" arrivalLane="-315358254#1_1" arrivalPos="137.16" arrivalSpeed="15.04" duration="219.00" routeLength="2034.31" waitingTime="52.00" waitingCount="2" stopTime="0.00" timeLoss="78.44" rerouteNo="1" devices="tripinfo_carIn12152:1 routing_carIn12152:1 emissions_carIn12152:1" vType="default_016" speedFactor="1.13" vaporized="">
        <emissions CO_abs="13055.837076" CO2_abs="560591.659248" HC_abs="72.447553" PMx_abs="10.468445" NOx_abs="230.736479" fuel_abs="240.977491" electricity_abs="0"/>
    </tripinfo>
    <tripinfo id="h17600c1:1" depart="57662.00" departLane="272042143_1" departPos="5.10" departSpeed="0.00" departDelay="0.30" arrival="57866.00" arrivalLane="201238729#3_1" arrivalPos="431.02" arrivalSpeed="12.01" duration="204.00" routeLength="2100.26" waitingTime="13.00" waitingCount="1" stopTime="0.00" timeLoss="35.80" rerouteNo="1" devices="tripinfo_h17600c1:1 routing_h17600c1:1 emissions_h17600c1:1" vType="default_016" speedFactor="0.90" vaporized="">
        <emissions CO_abs="5773.225951" CO2_abs="395555.123173" HC_abs="35.429387" PMx_abs="6.033831" NOx_abs="154.652314" fuel_abs="170.033515" electricity_abs="0"/>
    </tripinfo>
    <tripinfo id="carIn8642:1" depart="57774.00" departLane="-447569998#1_1" departPos="5.10" departSpeed="0.00" departDelay="0.90" arrival="57866.00" arrivalLane="-315358244_1" arrivalPos="33.95" arrivalSpeed="13.11" duration="92.00" routeLength="706.49" waitingTime="21.00" waitingCount="1" stopTime="0.00" timeLoss="30.73" rerouteNo="1" devices="tripinfo_carIn8642:1 routing_carIn8642:1 emissions_carIn8642:1" vType="default_016" speedFactor="0.98" vaporized="">
        <emissions CO_abs="4966.888334" CO2_abs="192287.352103" HC_abs="27.107734" PMx_abs="3.562211" NOx_abs="79.766332" fuel_abs="82.657567" electricity_abs="0"/>
    </tripinfo>
    <tripinfo id="randUni15030:1" depart="57735.00" departLane="386687232#0_1" departPos="5.10" departSpeed="0.00" departDelay="0.10" arrival="57874.00" arrivalLane="26677539_1" arrivalPos="151.98" arrivalSpeed="7.15" duration="139.00" routeLength="919.89" waitingTime="36.00" waitingCount="1" stopTime="0.00" timeLoss="50.01" rerouteNo="1" devices="tripinfo_randUni15030:1 routing_randUni15030:1 emissions_randUni15030:1" vType="random_016" speedFactor="0.94" vaporized="">
        <emissions CO_abs="8921.854006" CO2_abs="304158.064569" HC_abs="47.705835" PMx_abs="5.723521" NOx_abs="127.118483" fuel_abs="130.747586" electricity_abs="0"/>
    </tripinfo>