<?xml version="1.0" encoding="UTF-8"?>

<!-- generated on 2021-10-26 22:30:53 by Eclipse SUMO sumo Version 1.10.0
<configuration xmlns:xsi="http://www.w3.org/2001/XMLSchema-instance" xsi:noNamespaceSchemaLocation="http://sumo.dlr.de/xsd/sumoConfiguration.xsd">

    <input>
        <net-file value="/Users/behradkoohy/sumo-scratchpad/RESCO/environments/ingolstadt21/ingolstadt21.net.xml"/>
        <route-files value="/Users/behradkoohy/sumo-scratchpad/RESCO/environments/ingolstadt21/ingolstadt21.rou.xml"/>
    </input>

    <output>
        <tripinfo-output value="/Users/behradkoohy/sumo-scratchpad/RESCO/logs/MPLight-tr0-ingolstadt21-21-mplight_full-pressure/tripinfo_97.xml"/>
        <tripinfo-output.write-unfinished value="true"/>
    </output>

    <time>
        <begin value="57600"/>
        <end value="61200"/>
    </time>

    <processing>
        <time-to-teleport value="-1"/>
    </processing>

    <report>
        <no-warnings value="true"/>
        <no-step-log value="true"/>
    </report>

    <emissions>
        <device.emissions.probability value="1"/>
    </emissions>

    <traci_server>
        <remote-port value="50245"/>
    </traci_server>

    <random_number>
        <random value="true"/>
    </random_number>

</configuration>
-->

<tripinfos xmlns:xsi="http://www.w3.org/2001/XMLSchema-instance" xsi:noNamespaceSchemaLocation="http://sumo.dlr.de/xsd/tripinfo_file.xsd">
    <tripinfo id="h15454c2:3" depart="57612.00" departLane="24608844_1" departPos="5.10" departSpeed="0.00" departDelay="0.50" arrival="57649.00" arrivalLane="32978638#0_1" arrivalPos="49.29" arrivalSpeed="14.74" duration="37.00" routeLength="354.79" waitingTime="0.00" waitingCount="0" stopTime="0.00" timeLoss="5.59" rerouteNo="1" devices="tripinfo_h15454c2:3 routing_h15454c2:3 emissions_h15454c2:3" vType="default_016" speedFactor="1.09" vaporized="">
        <emissions CO_abs="1941.318975" CO2_abs="113095.286863" HC_abs="11.451484" PMx_abs="1.989366" NOx_abs="46.400857" fuel_abs="48.614983" electricity_abs="0"/>
    </tripinfo>
    <tripinfo id="carIn53971:1" depart="57640.00" departLane="272042143_1" departPos="5.10" departSpeed="0.00" departDelay="0.80" arrival="57697.00" arrivalLane="24634414#1_1" arrivalPos="162.19" arrivalSpeed="6.90" duration="57.00" routeLength="493.04" waitingTime="0.00" waitingCount="0" stopTime="0.00" timeLoss="8.90" rerouteNo="1" devices="tripinfo_carIn53971:1 routing_carIn53971:1 emissions_carIn53971:1" vType="default_016" speedFactor="0.95" vaporized="">
        <emissions CO_abs="2497.525065" CO2_abs="136414.480782" HC_abs="14.546635" PMx_abs="2.331503" NOx_abs="55.691981" fuel_abs="58.639168" electricity_abs="0"/>
    </tripinfo>
    <tripinfo id="carIn121703:1" depart="57647.00" departLane="386687232#0_1" departPos="5.10" departSpeed="0.00" departDelay="0.30" arrival="57759.00" arrivalLane="-315358244_1" arrivalPos="33.95" arrivalSpeed="12.60" duration="112.00" routeLength="1157.39" waitingTime="3.00" waitingCount="1" stopTime="0.00" timeLoss="19.94" rerouteNo="1" devices="tripinfo_carIn121703:1 routing_carIn121703:1 emissions_carIn121703:1" vType="default_016" speedFactor="0.92" vaporized="">
        <emissions CO_abs="3470.318761" CO2_abs="239374.800347" HC_abs="21.366197" PMx_abs="3.830771" NOx_abs="94.946899" fuel_abs="102.897452" electricity_abs="0"/>
    </tripinfo>
    <tripinfo id="h5979c1:5" depart="57669.00" departLane="399835085#1_1" departPos="5.10" departSpeed="0.00" departDelay="0.00" arrival="57768.00" arrivalLane="-315358254#1_1" arrivalPos="137.16" arrivalSpeed="12.71" duration="99.00" routeLength="659.33" waitingTime="10.00" waitingCount="1" stopTime="0.00" timeLoss="23.26" rerouteNo="1" devices="tripinfo_h5979c1:5 routing_h5979c1:5 emissions_h5979c1:5" vType="default_016" speedFactor="0.97" vaporized="">
        <emissions CO_abs="4213.887771" CO2_abs="182179.819062" HC_abs="23.373158" PMx_abs="3.030213" NOx_abs="74.052720" fuel_abs="78.312725" electricity_abs="0"/>
    </tripinfo>
    <tripinfo id="h3326c1:2" depart="57656.00" departLane="22716069#0_1" departPos="5.10" departSpeed="0.00" departDelay="0.00" arrival="57771.00" arrivalLane="24634517#13_1" arrivalPos="111.62" arrivalSpeed="12.47" duration="115.00" routeLength="1312.81" waitingTime="0.00" waitingCount="0" stopTime="0.00" timeLoss="14.73" rerouteNo="1" devices="tripinfo_h3326c1:2 routing_h3326c1:2 emissions_h3326c1:2" vType="default_016" speedFactor="0.98" vaporized="">
        <emissions CO_abs="4022.124724" CO2_abs="301172.655493" HC_abs="25.349032" PMx_abs="5.006549" NOx_abs="120.418023" fuel_abs="129.461269" electricity_abs="0"/>
    </tripinfo>
    <tripinfo id="carIn60260:1" depart="57606.00" departLane="315358254#0_1" departPos="5.10" departSpeed="0.00" departDelay="0.90" arrival="57800.00" arrivalLane="399835085#1_1" arrivalPos="212.23" arrivalSpeed="9.13" duration="194.00" routeLength="430.98" waitingTime="142.00" waitingCount="1" stopTime="0.00" timeLoss="152.01" rerouteNo="1" devices="tripinfo_carIn60260:1 routing_carIn60260:1 emissions_carIn60260:1" vType="default_016" speedFactor="1.11" vaporized="">
        <emissions CO_abs="25254.830386" CO2_abs="491585.931984" HC_abs="126.516890" PMx_abs="11.367592" NOx_abs="219.480318" fuel_abs="211.322686" electricity_abs="0"/>
    </tripinfo>
    <tripinfo id="h3688c1:1" depart="57625.00" departLane="201201950#1_1" departPos="5.10" departSpeed="0.00" departDelay="0.00" arrival="57815.00" arrivalLane="32978638#0_1" arrivalPos="49.29" arrivalSpeed="13.09" duration="190.00" routeLength="1089.75" waitingTime="91.00" waitingCount="2" stopTime="0.00" timeLoss="111.49" rerouteNo="1" devices="tripinfo_h3688c1:1 routing_h3688c1:1 emissions_h3688c1:1" vType="default_016" speedFactor="1.02" vaporized="">
        <emissions CO_abs="17276.657051" CO2_abs="489064.925659" HC_abs="89.986014" PMx_abs="10.000661" NOx_abs="208.283138" fuel_abs="210.234380" electricity_abs="0"/>
    </tripinfo>
    <tripinfo id="randUni15030:1" depart="57735.00" departLane="386687232#0_1" departPos="5.10" departSpeed="0.00" departDelay="0.10" arrival="57830.00" arrivalLane="26677539_1" arrivalPos="151.98" arrivalSpeed="7.65" duration="95.00" routeLength="919.89" waitingTime="0.00" waitingCount="0" stopTime="0.00" timeLoss="10.49" rerouteNo="1" devices="tripinfo_randUni15030:1 routing_randUni15030:1 emissions_randUni15030:1" vType="random_016" speedFactor="0.99" vaporized="">
        <emissions CO_abs="3306.592245" CO2_abs="208173.763136" HC_abs="19.863397" PMx_abs="3.241234" NOx_abs="82.371337" fuel_abs="89.485745" electricity_abs="0"/>
    </tripinfo>
    <tripinfo id="h3568c1:3" depart="57656.00" departLane="266565295#5_1" departPos="5.10" departSpeed="0.00" departDelay="0.80" arrival="57843.00" arrivalLane="-24634415_1" arrivalPos="62.03" arrivalSpeed="10.94" duration="187.00" routeLength="807.40" waitingTime="91.00" waitingCount="1" stopTime="0.00" timeLoss="109.75" rerouteNo="1" devices="tripinfo_h3568c1:3 routing_h3568c1:3 emissions_h3568c1:3" vType="default_016" speedFactor="0.84" vaporized="">
        <emissions CO_abs="18090.504432" CO2_abs="443790.075326" HC_abs="92.741302" PMx_abs="9.348009" NOx_abs="192.266769" fuel_abs="190.773594" electricity_abs="0"/>
    </tripinfo>
    <tripinfo id="h3864c1:3" depart="57678.00" departLane="24693977#1_1" departPos="5.10" departSpeed="0.00" departDelay="0.00" arrival="57853.00" arrivalLane="201956820_1" arrivalPos="48.33" arrivalSpeed="11.28" duration="175.00" routeLength="1574.85" waitingTime="0.00" waitingCount="0" stopTime="0.00" timeLoss="25.14" rerouteNo="1" devices="tripinfo_h3864c1:3 routing_h3864c1:3 emissions_h3864c1:3" vType="default_016" speedFactor="0.87" vaporized="">
        <emissions CO_abs="6632.063530" CO2_abs="390800.077457" HC_abs="39.243406" PMx_abs="6.309079" NOx_abs="156.729203" fuel_abs="167.989596" electricity_abs="0"/>
    </tripinfo>
    <tripinfo id="h317c2:1" depart="57707.00" departLane="-32978638#0_1" departPos="5.10" departSpeed="0.00" departDelay="0.10" arrival="57854.00" arrivalLane="-266565295#5_1" arrivalPos="172.76" arrivalSpeed="14.23" duration="147.00" routeLength="370.53" waitingTime="111.00" waitingCount="1" stopTime="0.00" timeLoss="120.30" rerouteNo="1" devices="tripinfo_h317c2:1 routing_h317c2:1 emissions_h317c2:1" vType="default_016" speedFactor="1.03" vaporized="">
        <emissions CO_abs="19629.173188" CO2_abs="398373.254788" HC_abs="98.729223" PMx_abs="9.202477" NOx_abs="177.339446" fuel_abs="171.251816" electricity_abs="0"/>
    </tripinfo>
    <tripinfo id="h330c1:1" depart="57736.00" departLane="-32978638#0_1" departPos="5.10" departSpeed="0.00" departDelay="0.20" arrival="57856.00" arrivalLane="-266565295#5_1" arrivalPos="172.76" arrivalSpeed="14.20" duration="120.00" routeLength="370.53" waitingTime="84.00" waitingCount="1" stopTime="0.00" timeLoss="93.60" rerouteNo="1" devices="tripinfo_h330c1:1 routing_h330c1:1 emissions_h330c1:1" vType="default_016" speedFactor="1.03" vaporized="">
        <emissions CO_abs="15059.565870" CO2_abs="323241.147954" HC_abs="76.170900" PMx_abs="7.334785" NOx_abs="143.034956" fuel_abs="138.953654" electricity_abs="0"/>
    </tripinfo>
    <tripinfo id="h11737c1:1" depart="57665.00" departLane="272042143_1" departPos="5.10" departSpeed="0.00" departDelay="1.50" arrival="57857.00" arrivalLane="-315358254#1_1" arrivalPos="137.16" arrivalSpeed="12.48" duration="192.00" routeLength="1596.88" waitingTime="54.00" waitingCount="1" stopTime="0.00" timeLoss="70.52" rerouteNo="1" devices="tripinfo_h11737c1:1 routing_h11737c1:1 emissions_h11737c1:1" vType="default_016" speedFactor="0.96" vaporized="">
        <emissions CO_abs="12056.091788" CO2_abs="459534.425669" HC_abs="65.611903" PMx_abs="8.346805" NOx_abs="188.262277" fuel_abs="197.538228" electricity_abs="0"/>
    </tripinfo>
    <tripinfo id="carIn126288:1" depart="57674.00" departLane="272042143_1" departPos="5.10" departSpeed="0.00" departDelay="0.00" arrival="57859.00" arrivalLane="-315358254#1_1" arrivalPos="137.16" arrivalSpeed="13.38" duration="185.00" routeLength="1596.88" waitingTime="52.00" waitingCount="1" stopTime="0.00" timeLoss="70.97" rerouteNo="1" devices="tripinfo_carIn126288:1 routing_carIn126288:1 emissions_carIn126288:1" vType="default_016" speedFactor="1.02" vaporized="">
        <emissions CO_abs="11488.519939" CO2_abs="450174.939104" HC_abs="62.830360" PMx_abs="8.396332" NOx_abs="185.550366" fuel_abs="193.514316" electricity_abs="0"/>
    </tripinfo>
    <tripinfo id="h7181c1:1" depart="57660.00" departLane="315358254#0_1" departPos="5.10" departSpeed="0.00" departDelay="0.10" arrival="57862.00" arrivalLane="306240162#0_0" arrivalPos="220.43" arrivalSpeed="15.77" duration="202.00" routeLength="932.35" waitingTime="122.00" waitingCount="3" stopTime="0.00" timeLoss="148.17" rerouteNo="1" devices="tripinfo_h7181c1:1 routing_h7181c1:1 emissions_h7181c1:1" vType="default_016" speedFactor="0.97" vaporized="">
        <emissions CO_abs="23629.828931" CO2_abs="608314.532225" HC_abs="122.022306" PMx_abs="13.574710" NOx_abs="266.337912" fuel_abs="261.496359" electricity_abs="0"/>
    </tripinfo>
    <tripinfo id="h7800c1:5" depart="57696.00" departLane="-447569998#1_1" departPos="5.10" departSpeed="0.00" departDelay="0.00" arrival="57875.00" arrivalLane="-447569998#1_2" arrivalPos="180.76" arrivalSpeed="3.52" duration="179.00" routeLength="175.66" waitingTime="149.00" waitingCount="1" stopTime="0.00" timeLoss="156.46" rerouteNo="1" devices="tripinfo_h7800c1:5 routing_h7800c1:5 emissions_h7800c1:5" vType="default_016" speedFactor="0.94" vaporized="">
        <emissions CO_abs="25030.065957" CO2_abs="430906.748883" HC_abs="124.059404" PMx_abs="10.364675" NOx_abs="195.033795" fuel_abs="185.239810" electricity_abs="0"/>
    </tripinfo>
    <tripinfo id="h17600c1:1" depart="57662.00" departLane="272042143_1" departPos="5.10" departSpeed="0.00" departDelay="0.30" arrival="57880.00" arrivalLane="201238729#3_1" arrivalPos="431.02" arrivalSpeed="13.63" duration="218.00" routeLength="2100.26" waitingTime="57.00" waitingCount="1" stopTime="0.00" timeLoss="74.41" rerouteNo="1" devices="tripinfo_h17600c1:1 routing_h17600c1:1 emissions_h17600c1:1" vType="default_016" speedFactor="1.06" vaporized="">
        <emissions CO_abs="13067.630870" CO2_abs="523898.316746" HC_abs="71.573677" PMx_abs="9.641858" NOx_abs="213.963314" fuel_abs="225.205419" electricity_abs="0"/>
    </tripinfo>
    <tripinfo id="carIn3969:1" depart="57629.00" departLane="124812856#0_1" departPos="5.10" departSpeed="0.00" departDelay="5.30" arrival="57886.00" arrivalLane="-128361102#1_1" arrivalPos="274.68" arrivalSpeed="15.82" duration="257.00" routeLength="2232.46" waitingTime="69.00" waitingCount="4" stopTime="0.00" timeLoss="122.96" rerouteNo="1" devices="tripinfo_carIn3969:1 routing_carIn3969:1 emissions_carIn3969:1" vType="default_016" speedFactor="1.22" vaporized="">
        <emissions CO_abs="17404.863009" CO2_abs="696134.234765" HC_abs="95.460549" PMx_abs="13.769253" NOx_abs="291.496628" fuel_abs="299.242036" electricity_abs="0"/>
    </tripinfo>
    <tripinfo id="carIn132499:1" depart="57740.00" departLane="272042143_1" departPos="5.10" departSpeed="0.00" departDelay="0.70" arrival="57887.00" arrivalLane="201238729#3_1" arrivalPos="431.02" arrivalSpeed="15.79" duration="147.00" routeLength="2100.26" waitingTime="0.00" waitingCount="0" stopTime="0.00" timeLoss="16.03" rerouteNo="1" devices="tripinfo_carIn132499:1 routing_carIn132499:1 emissions_carIn132499:1" vType="default_016" speedFactor="1.16" vaporized="">
        <emissions CO_abs="3758.552708" CO2_abs="372218.182625" HC_abs="25.676603" PMx_abs="6.053717" NOx_abs="144.721346" fuel_abs="160.000177" electricity_abs="0"/>
    </tripinfo>
    <tripinfo id="carIn13443:1" depart="57729.00" departLane="272042143_1" departPos="5.10" departSpeed="0.00" departDelay="0.80" arrival="57888.00" arrivalLane="399835085#1_1" arrivalPos="212.23" arrivalSpeed="7.87" duration="159.00" routeLength="1757.45" waitingTime="0.00" waitingCount="0" stopTime="0.00" timeLoss="16.14" rerouteNo="1" devices="tripinfo_carIn13443:1 routing_carIn13443:1 emissions_carIn13443:1" vType="default_016" speedFactor="0.99" vaporized="">
        <emissions CO_abs="4475.774678" CO2_abs="334981.721779" HC_abs="28.133388" PMx_abs="5.179207" NOx_abs="131.322442" fuel_abs="143.994951" electricity_abs="0"/>
    </tripinfo>
    <tripinfo id="carIn24709:1" depart="57753.00" departLane="266565295#5_1" departPos="5.10" departSpeed="0.00" departDelay="2.50" arrival="57891.00" arrivalLane="-24634506#2_1" arrivalPos="71.32" arrivalSpeed="13.26" duration="138.00" routeLength="1450.12" waitingTime="2.00" waitingCount="1" stopTime="0.00" timeLoss="20.99" rerouteNo="1" devices="tripinfo_carIn24709:1 routing_carIn24709:1 emissions_carIn24709:1" vType="default_016" speedFactor="1.01" vaporized="">
        <emissions CO_abs="5111.451813" CO2_abs="345102.953287" HC_abs="31.336257" PMx_abs="5.744257" NOx_abs="138.303860" fuel_abs="148.345423" electricity_abs="0"/>
    </tripinfo>
    <tripinfo id="carIn81681:1" depart="57726.00" departLane="272042143_1" departPos="5.10" departSpeed="0.00" departDelay="0.30" arrival="57897.00" arrivalLane="306240162#0_0" arrivalPos="220.43" arrivalSpeed="16.03" duration="171.00" routeLength="2246.89" waitingTime="2.00" waitingCount="2" stopTime="0.00" timeLoss="25.16" rerouteNo="1" devices="tripinfo_carIn81681:1 routing_carIn81681:1 emissions_carIn81681:1" vType="default_016" speedFactor="1.01" vaporized="">
        <emissions CO_abs="6151.240426" CO2_abs="503484.269131" HC_abs="39.891405" PMx_abs="8.752149" NOx_abs="200.822490" fuel_abs="216.425627" electricity_abs="0"/>
    </tripinfo>
    <tripinfo id="h13377c2:3" depart="57804.00" departLane="315358244_1" departPos="5.10" departSpeed="0.00" departDelay="0.60" arrival="57898.00" arrivalLane="447569997#1_1" arrivalPos="180.93" arrivalSpeed="6.91" duration="94.00" routeLength="726.74" waitingTime="1.00" waitingCount="1" stopTime="0.00" timeLoss="15.33" rerouteNo="1" devices="tripinfo_h13377c2:3 routing_h13377c2:3 emissions_h13377c2:3" vType="default_016" speedFactor="0.85" vaporized="">
        <emissions CO_abs="3838.951236" CO2_abs="178381.928501" HC_abs="21.592322" PMx_abs="2.952234" NOx_abs="72.390476" fuel_abs="76.679925" electricity_abs="0"/>
    </tripinfo>
    <tripinfo id="randUni23028:1" depart="57884.00" departLane="124812856#0_1" departPos="5.10" departSpeed="0.00" departDelay="0.10" arrival="57899.00" arrivalLane="201956810_1" arrivalPos="71.65" arrivalSpeed="13.12" duration="15.00" routeLength="134.91" waitingTime="0.00" waitingCount="0" stopTime="0.00" timeLoss="4.44" rerouteNo="1" devices="tripinfo_randUni23028:1 routing_randUni23028:1 emissions_randUni23028:1" vType="random_016" speedFactor="1.00" vaporized="">
        <emissions CO_abs="1292.268247" CO2_abs="68408.006322" HC_abs="7.511676" PMx_abs="1.363301" NOx_abs="29.225253" fuel_abs="29.405618" electricity_abs="0"/>
    </tripinfo>
    <tripinfo id="carIn107282:1" depart="57749.00" departLane="-447569998#1_1" departPos="5.10" departSpeed="0.00" departDelay="0.00" arrival="57901.00" arrivalLane="315358242#0_1" arrivalPos="165.37" arrivalSpeed="12.27" duration="152.00" routeLength="448.50" waitingTime="100.00" waitingCount="1" stopTime="0.00" timeLoss="107.61" rerouteNo="1" devices="tripinfo_carIn107282:1 routing_carIn107282:1 emissions_carIn107282:1" vType="default_016" speedFactor="0.93" vaporized="">
        <emissions CO_abs="18004.931097" CO2_abs="368180.624036" HC_abs="90.595330" PMx_abs="8.273965" NOx_abs="162.767036" fuel_abs="158.272876" electricity_abs="0"/>
    </tripinfo>
    <tripinfo id="carIn81860:1" depart="57712.00" departLane="128361102#0_1" departPos="5.10" departSpeed="0.00" departDelay="0.60" arrival="57905.00" arrivalLane="-24634517#17_1" arrivalPos="6.43" arrivalSpeed="8.63" duration="193.00" routeLength="1229.64" waitingTime="79.00" waitingCount="3" stopTime="0.00" timeLoss="111.88" rerouteNo="1" devices="tripinfo_carIn81860:1 routing_carIn81860:1 emissions_carIn81860:1" vType="default_016" speedFactor="1.12" vaporized="">
        <emissions CO_abs="16620.564529" CO2_abs="500363.877317" HC_abs="87.334291" PMx_abs="10.238221" NOx_abs="212.624515" fuel_abs="215.090608" electricity_abs="0"/>
    </tripinfo>
    <tripinfo id="h3426c1:1" depart="57864.00" departLane="-160314345#2_1" departPos="5.10" departSpeed="0.00" departDelay="0.00" arrival="57944.00" arrivalLane="386687235_1" arrivalPos="80.84" arrivalSpeed="12.32" duration="80.00" routeLength="726.87" waitingTime="0.00" waitingCount="0" stopTime="0.00" timeLoss="9.01" rerouteNo="1" devices="tripinfo_h3426c1:1 routing_h3426c1:1 emissions_h3426c1:1" vType="default_016" speedFactor="0.96" vaporized="">
        <emissions CO_abs="2846.755131" CO2_abs="171108.653548" HC_abs="16.889157" PMx_abs="2.606441" NOx_abs="67.343245" fuel_abs="73.553102" electricity_abs="0"/>
    </tripinfo>
    <tripinfo id="carIn129809:1" depart="57729.00" departLane="-447569998#1_1" departPos="5.10" departSpeed="0.00" departDelay="1.00" arrival="57949.00" arrivalLane="-315358244_1" arrivalPos="33.95" arrivalSpeed="12.19" duration="220.00" routeLength="706.49" waitingTime="138.00" waitingCount="2" stopTime="0.00" timeLoss="153.74" rerouteNo="1" devices="tripinfo_carIn129809:1 routing_carIn129809:1 emissions_carIn129809:1" vType="default_015" speedFactor="0.91" vaporized="">
        <emissions CO_abs="24127.449808" CO2_abs="504522.982224" HC_abs="121.649923" PMx_abs="11.161304" NOx_abs="221.586029" fuel_abs="216.883339" electricity_abs="0"/>
    </tripinfo>
    <tripinfo id="carIn9695:1" depart="57822.00" departLane="272042143_1" departPos="5.10" departSpeed="0.00" departDelay="0.80" arrival="57952.00" arrivalLane="-315358254#1_1" arrivalPos="137.16" arrivalSpeed="13.15" duration="130.00" routeLength="1596.88" waitingTime="0.00" waitingCount="0" stopTime="0.00" timeLoss="12.66" rerouteNo="1" devices="tripinfo_carIn9695:1 routing_carIn9695:1 emissions_carIn9695:1" vType="default_016" speedFactor="0.99" vaporized="">
        <emissions CO_abs="3547.039429" CO2_abs="307932.335437" HC_abs="23.344186" PMx_abs="4.886667" NOx_abs="120.882755" fuel_abs="132.366918" electricity_abs="0"/>
    </tripinfo>
    <tripinfo id="carIn27009:1" depart="57673.00" departLane="-447569998#1_1" departPos="5.10" departSpeed="0.00" departDelay="0.50" arrival="57957.00" arrivalLane="-26677539_1" arrivalPos="152.75" arrivalSpeed="6.03" duration="284.00" routeLength="699.63" waitingTime="169.00" waitingCount="1" stopTime="0.00" timeLoss="185.18" rerouteNo="1" devices="tripinfo_carIn27009:1 routing_carIn27009:1 emissions_carIn27009:1" vType="default_015" speedFactor="0.85" vaporized="">
        <emissions CO_abs="31586.038328" CO2_abs="621087.947456" HC_abs="158.305340" PMx_abs="13.986726" NOx_abs="275.709872" fuel_abs="266.993152" electricity_abs="0"/>
    </tripinfo>
    <tripinfo id="h7032c2:3" depart="57863.00" departLane="315358244_1" departPos="5.10" departSpeed="0.00" departDelay="0.40" arrival="57962.00" arrivalLane="26677541_1" arrivalPos="152.31" arrivalSpeed="14.18" duration="99.00" routeLength="925.70" waitingTime="0.00" waitingCount="0" stopTime="0.00" timeLoss="14.23" rerouteNo="1" devices="tripinfo_h7032c2:3 routing_h7032c2:3 emissions_h7032c2:3" vType="default_016" speedFactor="1.06" vaporized="">
        <emissions CO_abs="4137.030080" CO2_abs="245609.878275" HC_abs="24.527565" PMx_abs="4.131297" NOx_abs="99.317127" fuel_abs="105.577775" electricity_abs="0"/>
    </tripinfo>
    <tripinfo id="carIn8642:1" depart="57774.00" departLane="-447569998#1_1" departPos="5.10" departSpeed="0.00" departDelay="0.90" arrival="57964.00" arrivalLane="-315358244_1" arrivalPos="33.95" arrivalSpeed="12.79" duration="190.00" routeLength="706.49" waitingTime="102.00" waitingCount="3" stopTime="0.00" timeLoss="124.77" rerouteNo="1" devices="tripinfo_carIn8642:1 routing_carIn8642:1 emissions_carIn8642:1" vType="default_016" speedFactor="0.93" vaporized="">
        <emissions CO_abs="17970.875389" CO2_abs="428647.216450" HC_abs="91.850221" PMx_abs="9.126092" NOx_abs="186.077774" fuel_abs="184.264385" electricity_abs="0"/>
    </tripinfo>
    <tripinfo id="randUni11215:1" depart="57953.00" departLane="124812856#0_1" departPos="5.10" departSpeed="0.00" departDelay="0.30" arrival="57967.00" arrivalLane="201956810_1" arrivalPos="71.65" arrivalSpeed="14.84" duration="14.00" routeLength="134.91" waitingTime="0.00" waitingCount="0" stopTime="0.00" timeLoss="4.53" rerouteNo="1" devices="tripinfo_randUni11215:1 routing_randUni11215:1 emissions_randUni11215:1" vType="random_016" speedFactor="1.11" vaporized="">
        <emissions CO_abs="1267.487964" CO2_abs="73252.536494" HC_abs="7.506321" PMx_abs="1.387487" NOx_abs="30.652639" fuel_abs="31.488100" electricity_abs="0"/>
    </tripinfo>
    <tripinfo id="carIn12858:1" depart="57661.00" departLane="128361109#1_1" departPos="5.10" departSpeed="0.00" departDelay="0.90" arrival="57975.00" arrivalLane="399835085#1_1" arrivalPos="212.23" arrivalSpeed="6.74" duration="314.00" routeLength="1738.12" waitingTime="143.00" waitingCount="2" stopTime="0.00" timeLoss="178.49" rerouteNo="1" devices="tripinfo_carIn12858:1 routing_carIn12858:1 emissions_carIn12858:1" vType="default_016" speedFactor="0.85" vaporized="">
        <emissions CO_abs="29895.839918" CO2_abs="813418.729617" HC_abs="155.180092" PMx_abs="17.036501" NOx_abs="348.712164" fuel_abs="349.664821" electricity_abs="0"/>
    </tripinfo>
    <tripinfo id="carIn115169:1" depart="57759.00" departLane="24599188#0.94_1" departPos="5.10" departSpeed="0.00" departDelay="0.50" arrival="57976.00" arrivalLane="-10427692#3_1" arrivalPos="28.64" arrivalSpeed="19.10" duration="217.00" routeLength="2183.23" waitingTime="0.00" waitingCount="0" stopTime="0.00" timeLoss="27.69" rerouteNo="1" devices="tripinfo_carIn115169:1 routing_carIn115169:1 emissions_carIn115169:1" vType="default_016" speedFactor="0.89" vaporized="">
        <emissions CO_abs="7879.739822" CO2_abs="514315.269107" HC_abs="47.890452" PMx_abs="8.638341" NOx_abs="207.332045" fuel_abs="221.082799" electricity_abs="0"/>
    </tripinfo>
    <tripinfo id="carIn85747:1" depart="57673.00" departLane="128361109#1_1" departPos="5.10" departSpeed="0.00" departDelay="0.70" arrival="57977.00" arrivalLane="386687235_1" arrivalPos="80.84" arrivalSpeed="12.39" duration="304.00" routeLength="2088.57" waitingTime="129.00" waitingCount="1" stopTime="0.00" timeLoss="144.38" rerouteNo="1" devices="tripinfo_carIn85747:1 routing_carIn85747:1 emissions_carIn85747:1" vType="default_016" speedFactor="0.94" vaporized="">
        <emissions CO_abs="24823.662952" CO2_abs="702074.424681" HC_abs="129.400285" PMx_abs="13.780975" NOx_abs="294.694361" fuel_abs="301.801793" electricity_abs="0"/>
    </tripinfo>
    <tripinfo id="carIn14532:1" depart="57743.00" departLane="272042143_1" departPos="5.10" departSpeed="0.00" departDelay="1.90" arrival="57977.00" arrivalLane="399835085#1_1" arrivalPos="212.23" arrivalSpeed="8.76" duration="234.00" routeLength="1757.45" waitingTime="62.00" waitingCount="1" stopTime="0.00" timeLoss="105.07" rerouteNo="1" devices="tripinfo_carIn14532:1 routing_carIn14532:1 emissions_carIn14532:1" vType="default_016" speedFactor="1.10" vaporized="">
        <emissions CO_abs="16000.317905" CO2_abs="573753.116791" HC_abs="86.265688" PMx_abs="11.058062" NOx_abs="240.827955" fuel_abs="246.636618" electricity_abs="0"/>
    </tripinfo>
    <tripinfo id="randUni20153:1" depart="57834.00" departLane="272042143_1" departPos="5.10" departSpeed="0.00" departDelay="5.60" arrival="57977.00" arrivalLane="201238729#3_1" arrivalPos="431.02" arrivalSpeed="15.96" duration="143.00" routeLength="2100.26" waitingTime="0.00" waitingCount="0" stopTime="0.00" timeLoss="15.92" rerouteNo="1" devices="tripinfo_randUni20153:1 routing_randUni20153:1 emissions_randUni20153:1" vType="random_016" speedFactor="1.19" vaporized="">
        <emissions CO_abs="3599.125589" CO2_abs="378202.273047" HC_abs="24.998849" PMx_abs="6.041579" NOx_abs="145.668155" fuel_abs="162.572507" electricity_abs="0"/>
    </tripinfo>
    <tripinfo id="carIn7949:1" depart="57676.00" departLane="128361109#1_1" departPos="5.10" departSpeed="0.00" departDelay="2.10" arrival="57978.00" arrivalLane="386687235_2" arrivalPos="80.84" arrivalSpeed="12.53" duration="302.00" routeLength="2088.57" waitingTime="125.00" waitingCount="1" stopTime="0.00" timeLoss="141.13" rerouteNo="1" devices="tripinfo_carIn7949:1 routing_carIn7949:1 emissions_carIn7949:1" vType="default_016" speedFactor="0.94" vaporized="">
        <emissions CO_abs="23443.478471" CO2_abs="660175.740594" HC_abs="122.125228" PMx_abs="12.911571" NOx_abs="276.906165" fuel_abs="283.790890" electricity_abs="0"/>
    </tripinfo>
    <tripinfo id="carIn75660:1" depart="57679.00" departLane="128361109#1_1" departPos="5.10" departSpeed="0.00" departDelay="3.40" arrival="57979.00" arrivalLane="386687235_1" arrivalPos="80.84" arrivalSpeed="13.41" duration="300.00" routeLength="2088.57" waitingTime="124.00" waitingCount="1" stopTime="0.00" timeLoss="157.53" rerouteNo="1" devices="tripinfo_carIn75660:1 routing_carIn75660:1 emissions_carIn75660:1" vType="default_016" speedFactor="1.06" vaporized="">
        <emissions CO_abs="24898.947141" CO2_abs="749664.559241" HC_abs="130.964926" PMx_abs="15.080742" NOx_abs="317.511656" fuel_abs="322.257452" electricity_abs="0"/>
    </tripinfo>
    <tripinfo id="carIn90140:1" depart="57783.00" departLane="128361109#1_1" departPos="5.10" departSpeed="0.00" departDelay="6.40" arrival="57979.00" arrivalLane="399835085#1_1" arrivalPos="212.23" arrivalSpeed="8.21" duration="196.00" routeLength="1738.12" waitingTime="38.00" waitingCount="4" stopTime="0.00" timeLoss="94.11" rerouteNo="1" devices="tripinfo_carIn90140:1 routing_carIn90140:1 emissions_carIn90140:1" vType="default_016" speedFactor="1.13" vaporized="">
        <emissions CO_abs="13307.211534" CO2_abs="616979.565601" HC_abs="75.345612" PMx_abs="12.619523" NOx_abs="261.018609" fuel_abs="265.214008" electricity_abs="0"/>
    </tripinfo>
    <tripinfo id="carIn88905:1" depart="57688.00" departLane="128361109#1_1" departPos="5.10" departSpeed="0.00" departDelay="5.80" arrival="57980.00" arrivalLane="386687235_2" arrivalPos="80.84" arrivalSpeed="14.59" duration="292.00" routeLength="2088.57" waitingTime="116.00" waitingCount="1" stopTime="0.00" timeLoss="151.26" rerouteNo="1" devices="tripinfo_carIn88905:1 routing_carIn88905:1 emissions_carIn88905:1" vType="default_016" speedFactor="1.07" vaporized="">
        <emissions CO_abs="23771.924906" CO2_abs="733654.091685" HC_abs="125.386815" PMx_abs="14.505015" NOx_abs="308.651902" fuel_abs="315.374965" electricity_abs="0"/>
    </tripinfo>
    <tripinfo id="h19413c1:1" depart="57685.00" departLane="128361109#1_1" departPos="5.10" departSpeed="0.00" departDelay="5.90" arrival="57983.00" arrivalLane="386687235_1" arrivalPos="80.84" arrivalSpeed="12.76" duration="298.00" routeLength="2088.57" waitingTime="118.00" waitingCount="1" stopTime="0.00" timeLoss="136.31" rerouteNo="1" devices="tripinfo_h19413c1:1 routing_h19413c1:1 emissions_h19413c1:1" vType="default_016" speedFactor="0.93" vaporized="">
        <emissions CO_abs="22937.952749" CO2_abs="674237.542982" HC_abs="120.154066" PMx_abs="13.045463" NOx_abs="281.909690" fuel_abs="289.835015" electricity_abs="0"/>
    </tripinfo>
    <tripinfo id="h8222c1:5" depart="57839.00" departLane="266565295#5_1" departPos="5.10" departSpeed="0.00" departDelay="0.90" arrival="57983.00" arrivalLane="-201238724_1" arrivalPos="217.34" arrivalSpeed="11.24" duration="144.00" routeLength="1538.58" waitingTime="0.00" waitingCount="0" stopTime="0.00" timeLoss="12.88" rerouteNo="1" devices="tripinfo_h8222c1:5 routing_h8222c1:5 emissions_h8222c1:5" vType="default_016" speedFactor="0.86" vaporized="">