<?xml version="1.0" encoding="UTF-8"?>

<!-- generated on 2021-10-26 20:49:42 by Eclipse SUMO sumo Version 1.10.0
<configuration xmlns:xsi="http://www.w3.org/2001/XMLSchema-instance" xsi:noNamespaceSchemaLocation="http://sumo.dlr.de/xsd/sumoConfiguration.xsd">

    <input>
        <net-file value="/Users/behradkoohy/sumo-scratchpad/RESCO/environments/ingolstadt21/ingolstadt21.net.xml"/>
        <route-files value="/Users/behradkoohy/sumo-scratchpad/RESCO/environments/ingolstadt21/ingolstadt21.rou.xml"/>
    </input>

    <output>
        <tripinfo-output value="/Users/behradkoohy/sumo-scratchpad/RESCO/logs/MPLight-tr0-ingolstadt21-21-mplight_full-pressure/tripinfo_16.xml"/>
        <tripinfo-output.write-unfinished value="true"/>
    </output>

    <time>
        <begin value="57600"/>
        <end value="61200"/>
    </time>

    <processing>
        <time-to-teleport value="-1"/>
    </processing>

    <report>
        <no-warnings value="true"/>
        <no-step-log value="true"/>
    </report>

    <emissions>
        <device.emissions.probability value="1"/>
    </emissions>

    <traci_server>
        <remote-port value="64535"/>
    </traci_server>

    <random_number>
        <random value="true"/>
    </random_number>

</configuration>
-->

<tripinfos xmlns:xsi="http://www.w3.org/2001/XMLSchema-instance" xsi:noNamespaceSchemaLocation="http://sumo.dlr.de/xsd/tripinfo_file.xsd">
    <tripinfo id="h15454c2:3" depart="57612.00" departLane="24608844_1" departPos="5.10" departSpeed="0.00" departDelay="0.50" arrival="57650.00" arrivalLane="32978638#0_1" arrivalPos="49.29" arrivalSpeed="13.97" duration="38.00" routeLength="354.79" waitingTime="0.00" waitingCount="0" stopTime="0.00" timeLoss="4.25" rerouteNo="1" devices="tripinfo_h15454c2:3 routing_h15454c2:3 emissions_h15454c2:3" vType="default_016" speedFactor="1.01" vaporized="">
        <emissions CO_abs="1860.888941" CO2_abs="106286.182212" HC_abs="10.960305" PMx_abs="1.865638" NOx_abs="43.605485" fuel_abs="45.688072" electricity_abs="0"/>
    </tripinfo>
    <tripinfo id="carIn60260:1" depart="57606.00" departLane="315358254#0_1" departPos="5.10" departSpeed="0.00" departDelay="0.90" arrival="57655.00" arrivalLane="399835085#1_1" arrivalPos="212.23" arrivalSpeed="8.24" duration="49.00" routeLength="430.98" waitingTime="0.00" waitingCount="0" stopTime="0.00" timeLoss="5.99" rerouteNo="1" devices="tripinfo_carIn60260:1 routing_carIn60260:1 emissions_carIn60260:1" vType="default_016" speedFactor="1.08" vaporized="">
        <emissions CO_abs="2020.946867" CO2_abs="112866.283184" HC_abs="11.823830" PMx_abs="1.896578" NOx_abs="45.862258" fuel_abs="48.516744" electricity_abs="0"/>
    </tripinfo>
    <tripinfo id="carIn53971:1" depart="57640.00" departLane="272042143_1" departPos="5.10" departSpeed="0.00" departDelay="0.80" arrival="57693.00" arrivalLane="24634414#1_1" arrivalPos="162.19" arrivalSpeed="8.00" duration="53.00" routeLength="493.04" waitingTime="0.00" waitingCount="0" stopTime="0.00" timeLoss="7.15" rerouteNo="1" devices="tripinfo_carIn53971:1 routing_carIn53971:1 emissions_carIn53971:1" vType="default_016" speedFactor="1.01" vaporized="">
        <emissions CO_abs="2200.160313" CO2_abs="129757.809193" HC_abs="13.054064" PMx_abs="2.261007" NOx_abs="53.078451" fuel_abs="55.777531" electricity_abs="0"/>
    </tripinfo>
    <tripinfo id="h3688c1:1" depart="57625.00" departLane="201201950#1_1" departPos="5.10" departSpeed="0.00" departDelay="0.00" arrival="57714.00" arrivalLane="32978638#0_1" arrivalPos="49.29" arrivalSpeed="13.75" duration="89.00" routeLength="1089.75" waitingTime="0.00" waitingCount="0" stopTime="0.00" timeLoss="9.82" rerouteNo="1" devices="tripinfo_h3688c1:1 routing_h3688c1:1 emissions_h3688c1:1" vType="default_016" speedFactor="1.01" vaporized="">
        <emissions CO_abs="2917.446297" CO2_abs="226016.302310" HC_abs="18.524938" PMx_abs="3.842376" NOx_abs="90.689384" fuel_abs="97.154557" electricity_abs="0"/>
    </tripinfo>
    <tripinfo id="h12244c1:3" depart="57612.00" departLane="315358244_1" departPos="5.10" departSpeed="0.00" departDelay="0.40" arrival="57716.00" arrivalLane="386687235_1" arrivalPos="80.84" arrivalSpeed="11.91" duration="104.00" routeLength="1186.14" waitingTime="0.00" waitingCount="0" stopTime="0.00" timeLoss="12.06" rerouteNo="1" devices="tripinfo_h12244c1:3 routing_h12244c1:3 emissions_h12244c1:3" vType="default_016" speedFactor="0.95" vaporized="">
        <emissions CO_abs="3184.780847" CO2_abs="251967.604192" HC_abs="20.350011" PMx_abs="3.941481" NOx_abs="99.010148" fuel_abs="108.310356" electricity_abs="0"/>
    </tripinfo>
    <tripinfo id="carIn22761:1" depart="57616.00" departLane="-306240162#1_0" departPos="5.10" departSpeed="0.00" departDelay="2.10" arrival="57727.00" arrivalLane="399835085#1_1" arrivalPos="212.23" arrivalSpeed="6.49" duration="111.00" routeLength="1093.26" waitingTime="5.00" waitingCount="1" stopTime="0.00" timeLoss="27.24" rerouteNo="1" devices="tripinfo_carIn22761:1 routing_carIn22761:1 emissions_carIn22761:1" vType="default_016" speedFactor="0.93" vaporized="">
        <emissions CO_abs="5287.061026" CO2_abs="302559.211377" HC_abs="31.172071" PMx_abs="5.629561" NOx_abs="124.842786" fuel_abs="130.057432" electricity_abs="0"/>
    </tripinfo>
    <tripinfo id="h7800c1:5" depart="57696.00" departLane="-447569998#1_1" departPos="5.10" departSpeed="0.00" departDelay="0.00" arrival="57735.00" arrivalLane="-447569998#1_2" arrivalPos="180.76" arrivalSpeed="4.06" duration="39.00" routeLength="175.66" waitingTime="13.00" waitingCount="1" stopTime="0.00" timeLoss="19.86" rerouteNo="1" devices="tripinfo_h7800c1:5 routing_h7800c1:5 emissions_h7800c1:5" vType="default_016" speedFactor="1.12" vaporized="">
        <emissions CO_abs="2489.353143" CO2_abs="76090.063503" HC_abs="13.103322" PMx_abs="1.472284" NOx_abs="32.310252" fuel_abs="32.708758" electricity_abs="0"/>
    </tripinfo>
    <tripinfo id="h317c2:1" depart="57707.00" departLane="-32978638#0_1" departPos="5.10" departSpeed="0.00" departDelay="0.10" arrival="57738.00" arrivalLane="-266565295#5_1" arrivalPos="172.76" arrivalSpeed="14.63" duration="31.00" routeLength="370.53" waitingTime="0.00" waitingCount="0" stopTime="0.00" timeLoss="5.36" rerouteNo="1" devices="tripinfo_h317c2:1 routing_h317c2:1 emissions_h317c2:1" vType="default_016" speedFactor="1.06" vaporized="">
        <emissions CO_abs="1602.703741" CO2_abs="107012.704024" HC_abs="9.828664" PMx_abs="1.963895" NOx_abs="44.069266" fuel_abs="46.000051" electricity_abs="0"/>
    </tripinfo>
    <tripinfo id="carIn121703:1" depart="57647.00" departLane="386687232#0_1" departPos="5.10" departSpeed="0.00" departDelay="0.30" arrival="57743.00" arrivalLane="-315358244_1" arrivalPos="33.95" arrivalSpeed="14.85" duration="96.00" routeLength="1157.39" waitingTime="3.00" waitingCount="1" stopTime="0.00" timeLoss="17.63" rerouteNo="1" devices="tripinfo_carIn121703:1 routing_carIn121703:1 emissions_carIn121703:1" vType="default_016" speedFactor="1.07" vaporized="">
        <emissions CO_abs="3540.459672" CO2_abs="274407.068445" HC_abs="22.508313" PMx_abs="4.782156" NOx_abs="110.311074" fuel_abs="117.955514" electricity_abs="0"/>
    </tripinfo>
    <tripinfo id="h3568c1:3" depart="57656.00" departLane="266565295#5_1" departPos="5.10" departSpeed="0.00" departDelay="0.80" arrival="57745.00" arrivalLane="-24634415_1" arrivalPos="62.03" arrivalSpeed="13.88" duration="89.00" routeLength="807.40" waitingTime="10.00" waitingCount="1" stopTime="0.00" timeLoss="28.28" rerouteNo="1" devices="tripinfo_h3568c1:3 routing_h3568c1:3 emissions_h3568c1:3" vType="default_016" speedFactor="1.08" vaporized="">
        <emissions CO_abs="4727.804624" CO2_abs="252758.879189" HC_abs="27.441084" PMx_abs="4.716388" NOx_abs="104.966018" fuel_abs="108.650556" electricity_abs="0"/>
    </tripinfo>
    <tripinfo id="h4538c1:1" depart="57701.00" departLane="-10427692#1_1" departPos="5.10" departSpeed="0.00" departDelay="0.00" arrival="57756.00" arrivalLane="-128361102#1_1" arrivalPos="274.68" arrivalSpeed="13.15" duration="55.00" routeLength="440.74" waitingTime="13.00" waitingCount="1" stopTime="0.00" timeLoss="23.04" rerouteNo="1" devices="tripinfo_h4538c1:1 routing_h4538c1:1 emissions_h4538c1:1" vType="default_016" speedFactor="0.99" vaporized="">
        <emissions CO_abs="2803.402341" CO2_abs="130959.865181" HC_abs="15.798508" PMx_abs="2.332600" NOx_abs="53.543067" fuel_abs="56.294698" electricity_abs="0"/>
    </tripinfo>
    <tripinfo id="h3326c1:2" depart="57656.00" departLane="22716069#0_1" departPos="5.10" departSpeed="0.00" departDelay="0.00" arrival="57762.00" arrivalLane="24634517#13_1" arrivalPos="111.62" arrivalSpeed="13.85" duration="106.00" routeLength="1312.81" waitingTime="0.00" waitingCount="0" stopTime="0.00" timeLoss="13.63" rerouteNo="1" devices="tripinfo_h3326c1:2 routing_h3326c1:2 emissions_h3326c1:2" vType="default_016" speedFactor="1.06" vaporized="">
        <emissions CO_abs="4283.548914" CO2_abs="324610.270845" HC_abs="27.149227" PMx_abs="5.725263" NOx_abs="131.465665" fuel_abs="139.535598" electricity_abs="0"/>
    </tripinfo>
    <tripinfo id="carIn30817:1" depart="57681.00" departLane="315358244_1" departPos="5.10" departSpeed="0.00" departDelay="0.20" arrival="57772.00" arrivalLane="447569997#1_1" arrivalPos="180.93" arrivalSpeed="6.94" duration="91.00" routeLength="718.04" waitingTime="10.00" waitingCount="1" stopTime="0.00" timeLoss="23.37" rerouteNo="1" devices="tripinfo_carIn30817:1 routing_carIn30817:1 emissions_carIn30817:1" vType="default_016" speedFactor="0.92" vaporized="">
        <emissions CO_abs="4311.717492" CO2_abs="209078.386196" HC_abs="24.502603" PMx_abs="3.655648" NOx_abs="85.676546" fuel_abs="89.874806" electricity_abs="0"/>
    </tripinfo>
    <tripinfo id="h9563c2:5" depart="57631.00" departLane="315358244_1" departPos="5.10" departSpeed="0.00" departDelay="0.70" arrival="57776.00" arrivalLane="386687235_1" arrivalPos="80.84" arrivalSpeed="14.65" duration="145.00" routeLength="1186.14" waitingTime="47.00" waitingCount="1" stopTime="0.00" timeLoss="66.73" rerouteNo="1" devices="tripinfo_h9563c2:5 routing_h9563c2:5 emissions_h9563c2:5" vType="default_016" speedFactor="1.11" vaporized="">
        <emissions CO_abs="10590.721487" CO2_abs="387987.404977" HC_abs="57.099838" PMx_abs="7.342153" NOx_abs="160.038839" fuel_abs="166.782540" electricity_abs="0"/>
    </tripinfo>
    <tripinfo id="h5979c1:5" depart="57669.00" departLane="399835085#1_1" departPos="5.10" departSpeed="0.00" departDelay="0.00" arrival="57776.00" arrivalLane="-315358254#1_1" arrivalPos="137.16" arrivalSpeed="14.90" duration="107.00" routeLength="659.33" waitingTime="30.00" waitingCount="1" stopTime="0.00" timeLoss="42.28" rerouteNo="1" devices="tripinfo_h5979c1:5 routing_h5979c1:5 emissions_h5979c1:5" vType="default_016" speedFactor="1.13" vaporized="">
        <emissions CO_abs="7837.303812" CO2_abs="260758.473759" HC_abs="41.750376" PMx_abs="4.911565" NOx_abs="109.281003" fuel_abs="112.091650" electricity_abs="0"/>
    </tripinfo>
    <tripinfo id="carIn50326:1" depart="57651.00" departLane="128361102#0_1" departPos="5.10" departSpeed="0.00" departDelay="0.30" arrival="57787.00" arrivalLane="18809673#0_1" arrivalPos="473.56" arrivalSpeed="15.78" duration="136.00" routeLength="1591.07" waitingTime="6.00" waitingCount="1" stopTime="0.00" timeLoss="25.50" rerouteNo="1" devices="tripinfo_carIn50326:1 routing_carIn50326:1 emissions_carIn50326:1" vType="default_016" speedFactor="1.17" vaporized="">
        <emissions CO_abs="4739.304947" CO2_abs="359442.267501" HC_abs="29.816085" PMx_abs="6.113028" NOx_abs="143.442007" fuel_abs="154.508708" electricity_abs="0"/>
    </tripinfo>
    <tripinfo id="h11737c1:1" depart="57665.00" departLane="272042143_1" departPos="5.10" departSpeed="0.00" departDelay="1.50" arrival="57792.00" arrivalLane="-315358254#1_1" arrivalPos="137.16" arrivalSpeed="15.27" duration="127.00" routeLength="1596.88" waitingTime="5.00" waitingCount="1" stopTime="0.00" timeLoss="26.71" rerouteNo="1" devices="tripinfo_h11737c1:1 routing_h11737c1:1 emissions_h11737c1:1" vType="default_016" speedFactor="1.16" vaporized="">
        <emissions CO_abs="5051.032330" CO2_abs="376923.708456" HC_abs="31.802155" PMx_abs="6.658659" NOx_abs="151.669425" fuel_abs="162.022973" electricity_abs="0"/>
    </tripinfo>
    <tripinfo id="carIn12365:1" depart="57713.00" departLane="315358244_1" departPos="5.10" departSpeed="0.00" departDelay="0.50" arrival="57794.00" arrivalLane="447569997#1_1" arrivalPos="180.93" arrivalSpeed="7.09" duration="81.00" routeLength="718.04" waitingTime="0.00" waitingCount="0" stopTime="0.00" timeLoss="12.58" rerouteNo="1" devices="tripinfo_carIn12365:1 routing_carIn12365:1 emissions_carIn12365:1" vType="default_016" speedFactor="0.90" vaporized="">
        <emissions CO_abs="3244.348503" CO2_abs="176306.622443" HC_abs="18.846811" PMx_abs="2.855180" NOx_abs="70.804102" fuel_abs="75.787487" electricity_abs="0"/>
    </tripinfo>
    <tripinfo id="S5R_frequency1.2" depart="57624.00" departLane="315358250#0_1" departPos="12.10" departSpeed="0.00" departDelay="12.40" arrival="57797.00" arrivalLane="386687235_1" arrivalPos="80.84" arrivalSpeed="13.72" duration="173.00" routeLength="1115.62" waitingTime="59.00" waitingCount="3" stopTime="0.00" timeLoss="91.32" rerouteNo="1" devices="tripinfo_S5R_frequency1.2 routing_S5R_frequency1.2 emissions_S5R_frequency1.2" vType="bus" speedFactor="1.00" vaporized="">
        <emissions CO_abs="3378.420910" CO2_abs="1752259.310831" HC_abs="725.015875" PMx_abs="353.342570" NOx_abs="14595.805118" fuel_abs="747.187373" electricity_abs="0"/>
    </tripinfo>
    <tripinfo id="h7181c1:1" depart="57660.00" departLane="315358254#0_1" departPos="5.10" departSpeed="0.00" departDelay="0.10" arrival="57802.00" arrivalLane="306240162#0_0" arrivalPos="220.43" arrivalSpeed="14.79" duration="142.00" routeLength="932.35" waitingTime="68.00" waitingCount="2" stopTime="0.00" timeLoss="86.01" rerouteNo="1" devices="tripinfo_h7181c1:1 routing_h7181c1:1 emissions_h7181c1:1" vType="default_016" speedFactor="0.92" vaporized="">
        <emissions CO_abs="13275.773123" CO2_abs="408102.407966" HC_abs="70.106063" PMx_abs="8.630720" NOx_abs="174.547774" fuel_abs="175.429738" electricity_abs="0"/>
    </tripinfo>
    <tripinfo id="carIn27009:1" depart="57673.00" departLane="-447569998#1_1" departPos="5.10" departSpeed="0.00" departDelay="0.50" arrival="57803.00" arrivalLane="-26677539_1" arrivalPos="152.75" arrivalSpeed="7.34" duration="130.00" routeLength="699.63" waitingTime="31.00" waitingCount="1" stopTime="0.00" timeLoss="47.34" rerouteNo="1" devices="tripinfo_carIn27009:1 routing_carIn27009:1 emissions_carIn27009:1" vType="default_015" speedFactor="1.02" vaporized="">
        <emissions CO_abs="8486.923588" CO2_abs="257242.415149" HC_abs="44.583788" PMx_abs="4.791752" NOx_abs="108.085396" fuel_abs="110.580873" electricity_abs="0"/>
    </tripinfo>
    <tripinfo id="carIn126288:1" depart="57674.00" departLane="272042143_1" departPos="5.10" departSpeed="0.00" departDelay="0.00" arrival="57803.00" arrivalLane="-315358254#1_1" arrivalPos="137.16" arrivalSpeed="13.36" duration="129.00" routeLength="1596.88" waitingTime="0.00" waitingCount="0" stopTime="0.00" timeLoss="14.41" rerouteNo="1" devices="tripinfo_carIn126288:1 routing_carIn126288:1 emissions_carIn126288:1" vType="default_016" speedFactor="1.02" vaporized="">
        <emissions CO_abs="3793.873923" CO2_abs="322766.969786" HC_abs="24.787269" PMx_abs="5.158560" NOx_abs="126.793126" fuel_abs="138.743710" electricity_abs="0"/>
    </tripinfo>
    <tripinfo id="carIn129809:1" depart="57729.00" departLane="-447569998#1_1" departPos="5.10" departSpeed="0.00" departDelay="1.00" arrival="57803.00" arrivalLane="-315358244_1" arrivalPos="33.95" arrivalSpeed="14.38" duration="74.00" routeLength="706.49" waitingTime="3.00" waitingCount="2" stopTime="0.00" timeLoss="18.22" rerouteNo="1" devices="tripinfo_carIn129809:1 routing_carIn129809:1 emissions_carIn129809:1" vType="default_015" speedFactor="1.09" vaporized="">
        <emissions CO_abs="3457.284087" CO2_abs="196131.826808" HC_abs="20.327751" PMx_abs="3.445825" NOx_abs="80.057124" fuel_abs="84.309089" electricity_abs="0"/>
    </tripinfo>
    <tripinfo id="h3154c1:1" depart="57658.00" departLane="24634507_1" departPos="5.10" departSpeed="0.00" departDelay="0.00" arrival="57808.00" arrivalLane="-266565295#5_1" arrivalPos="172.76" arrivalSpeed="12.60" duration="150.00" routeLength="1206.22" waitingTime="30.00" waitingCount="2" stopTime="0.00" timeLoss="54.14" rerouteNo="1" devices="tripinfo_h3154c1:1 routing_h3154c1:1 emissions_h3154c1:1" vType="default_016" speedFactor="0.94" vaporized="">
        <emissions CO_abs="8648.136690" CO2_abs="383875.183813" HC_abs="48.365721" PMx_abs="7.017034" NOx_abs="158.619659" fuel_abs="165.013495" electricity_abs="0"/>
    </tripinfo>
    <tripinfo id="h330c1:1" depart="57736.00" departLane="-32978638#0_1" departPos="5.10" departSpeed="0.00" departDelay="0.20" arrival="57813.00" arrivalLane="-266565295#5_1" arrivalPos="172.76" arrivalSpeed="14.61" duration="77.00" routeLength="370.53" waitingTime="42.00" waitingCount="1" stopTime="0.00" timeLoss="51.37" rerouteNo="1" devices="tripinfo_h330c1:1 routing_h330c1:1 emissions_h330c1:1" vType="default_016" speedFactor="1.06" vaporized="">
        <emissions CO_abs="8195.754047" CO2_abs="225507.961152" HC_abs="42.610983" PMx_abs="4.802548" NOx_abs="97.529617" fuel_abs="96.939013" electricity_abs="0"/>
    </tripinfo>
    <tripinfo id="carIn107282:1" depart="57749.00" departLane="-447569998#1_1" departPos="5.10" departSpeed="0.00" departDelay="0.00" arrival="57814.00" arrivalLane="315358242#0_1" arrivalPos="165.37" arrivalSpeed="14.32" duration="65.00" routeLength="448.50" waitingTime="17.00" waitingCount="1" stopTime="0.00" timeLoss="26.78" rerouteNo="1" devices="tripinfo_carIn107282:1 routing_carIn107282:1 emissions_carIn107282:1" vType="default_016" speedFactor="1.09" vaporized="">
        <emissions CO_abs="3921.364653" CO2_abs="157708.185972" HC_abs="21.537541" PMx_abs="2.915510" NOx_abs="65.301821" fuel_abs="67.793086" electricity_abs="0"/>
    </tripinfo>
    <tripinfo id="carIn86816:1" depart="57617.00" departLane="128361102#0_1" departPos="5.10" departSpeed="0.00" departDelay="0.80" arrival="57816.00" arrivalLane="201956811#0_1" arrivalPos="40.40" arrivalSpeed="11.50" duration="199.00" routeLength="2067.33" waitingTime="7.00" waitingCount="1" stopTime="0.00" timeLoss="30.27" rerouteNo="1" devices="tripinfo_carIn86816:1 routing_carIn86816:1 emissions_carIn86816:1" vType="default_016" speedFactor="0.90" vaporized="">
        <emissions CO_abs="5828.861084" CO2_abs="427693.235002" HC_abs="36.447588" PMx_abs="6.588260" NOx_abs="167.821348" fuel_abs="183.847948" electricity_abs="0"/>
    </tripinfo>
    <tripinfo id="h645c1:1" depart="57622.00" departLane="266565295#5_1" departPos="5.10" departSpeed="0.00" departDelay="0.40" arrival="57816.00" arrivalLane="-315358244_1" arrivalPos="33.95" arrivalSpeed="13.32" duration="194.00" routeLength="1910.83" waitingTime="27.00" waitingCount="3" stopTime="0.00" timeLoss="55.30" rerouteNo="1" devices="tripinfo_h645c1:1 routing_h645c1:1 emissions_h645c1:1" vType="default_016" speedFactor="1.00" vaporized="">
        <emissions CO_abs="8241.520103" CO2_abs="465866.483809" HC_abs="48.342423" PMx_abs="8.037436" NOx_abs="187.649742" fuel_abs="200.257437" electricity_abs="0"/>
    </tripinfo>
    <tripinfo id="carIn102915:1" depart="57643.00" departLane="128361102#0_1" departPos="5.10" departSpeed="0.00" departDelay="0.40" arrival="57817.00" arrivalLane="201956811#0_1" arrivalPos="40.40" arrivalSpeed="13.56" duration="174.00" routeLength="2067.33" waitingTime="7.00" waitingCount="1" stopTime="0.00" timeLoss="37.28" rerouteNo="1" devices="tripinfo_carIn102915:1 routing_carIn102915:1 emissions_carIn102915:1" vType="default_016" speedFactor="1.10" vaporized="">
        <emissions CO_abs="6074.575871" CO2_abs="470660.347945" HC_abs="38.557832" PMx_abs="7.990911" NOx_abs="187.818064" fuel_abs="202.316479" electricity_abs="0"/>
    </tripinfo>
    <tripinfo id="randUni33724:1" depart="57646.00" departLane="128361102#0_1" departPos="5.10" departSpeed="0.00" departDelay="1.20" arrival="57819.00" arrivalLane="201956811#0_1" arrivalPos="40.40" arrivalSpeed="13.38" duration="173.00" routeLength="2067.33" waitingTime="1.00" waitingCount="1" stopTime="0.00" timeLoss="20.83" rerouteNo="1" devices="tripinfo_randUni33724:1 routing_randUni33724:1 emissions_randUni33724:1" vType="random_016" speedFactor="0.99" vaporized="">
        <emissions CO_abs="4712.809642" CO2_abs="418796.756687" HC_abs="31.064999" PMx_abs="6.347112" NOx_abs="162.048274" fuel_abs="180.023164" electricity_abs="0"/>
    </tripinfo>
    <tripinfo id="carIn80064:1" depart="57603.00" departLane="128361109#1_1" departPos="5.10" departSpeed="0.00" departDelay="0.40" arrival="57827.00" arrivalLane="-315358254#1_1" arrivalPos="137.16" arrivalSpeed="14.49" duration="224.00" routeLength="1587.97" waitingTime="94.00" waitingCount="4" stopTime="0.00" timeLoss="140.06" rerouteNo="1" devices="tripinfo_carIn80064:1 routing_carIn80064:1 emissions_carIn80064:1" vType="default_016" speedFactor="1.08" vaporized="">
        <emissions CO_abs="20745.432499" CO2_abs="724959.283399" HC_abs="111.748887" PMx_abs="15.488944" NOx_abs="309.958776" fuel_abs="311.633486" electricity_abs="0"/>
    </tripinfo>
    <tripinfo id="carIn118591:1" depart="57689.00" departLane="315358244_1" departPos="5.10" departSpeed="0.00" departDelay="0.20" arrival="57832.00" arrivalLane="386687235_1" arrivalPos="80.84" arrivalSpeed="15.60" duration="143.00" routeLength="1186.14" waitingTime="34.00" waitingCount="3" stopTime="0.00" timeLoss="69.58" rerouteNo="1" devices="tripinfo_carIn118591:1 routing_carIn118591:1 emissions_carIn118591:1" vType="default_016" speedFactor="1.17" vaporized="">
        <emissions CO_abs="9467.937283" CO2_abs="420102.649799" HC_abs="52.784027" PMx_abs="8.094338" NOx_abs="175.221769" fuel_abs="180.585749" electricity_abs="0"/>
    </tripinfo>
    <tripinfo id="carIn73855:1" depart="57743.00" departLane="386687232#0_1" departPos="5.10" departSpeed="0.00" departDelay="0.50" arrival="57851.00" arrivalLane="-315358244_2" arrivalPos="33.95" arrivalSpeed="15.32" duration="108.00" routeLength="1157.39" waitingTime="17.00" waitingCount="1" stopTime="0.00" timeLoss="34.71" rerouteNo="1" devices="tripinfo_carIn73855:1 routing_carIn73855:1 emissions_carIn73855:1" vType="default_016" speedFactor="1.16" vaporized="">
        <emissions CO_abs="5330.426995" CO2_abs="296421.849477" HC_abs="31.111076" PMx_abs="5.369701" NOx_abs="120.349648" fuel_abs="127.419678" electricity_abs="0"/>
    </tripinfo>
    <tripinfo id="carIn44740:1" depart="57652.00" departLane="124812856#0_1" departPos="5.10" departSpeed="0.00" departDelay="19.70" arrival="57852.00" arrivalLane="-128361102#1_1" arrivalPos="274.68" arrivalSpeed="16.57" duration="200.00" routeLength="2232.46" waitingTime="27.00" waitingCount="2" stopTime="0.00" timeLoss="65.83" rerouteNo="1" devices="tripinfo_carIn44740:1 routing_carIn44740:1 emissions_carIn44740:1" vType="default_016" speedFactor="1.22" vaporized="">
        <emissions CO_abs="11036.157427" CO2_abs="637464.224651" HC_abs="65.164136" PMx_abs="11.882137" NOx_abs="260.997122" fuel_abs="274.019049" electricity_abs="0"/>
    </tripinfo>
    <tripinfo id="carIn3969:1" depart="57629.00" departLane="124812856#0_1" departPos="5.10" departSpeed="0.00" departDelay="5.30" arrival="57853.00" arrivalLane="-128361102#1_1" arrivalPos="274.68" arrivalSpeed="16.01" duration="224.00" routeLength="2232.46" waitingTime="37.00" waitingCount="3" stopTime="0.00" timeLoss="90.51" rerouteNo="1" devices="tripinfo_carIn3969:1 routing_carIn3969:1 emissions_carIn3969:1" vType="default_016" speedFactor="1.22" vaporized="">
        <emissions CO_abs="11905.929727" CO2_abs="635908.123260" HC_abs="68.930840" PMx_abs="11.817579" NOx_abs="260.903199" fuel_abs="273.350866" electricity_abs="0"/>
    </tripinfo>
    <tripinfo id="randUni15030:1" depart="57735.00" departLane="386687232#0_1" departPos="5.10" departSpeed="0.00" departDelay="0.10" arrival="57855.00" arrivalLane="26677539_1" arrivalPos="151.98" arrivalSpeed="6.86" duration="120.00" routeLength="919.89" waitingTime="4.00" waitingCount="1" stopTime="0.00" timeLoss="20.43" rerouteNo="1" devices="tripinfo_randUni15030:1 routing_randUni15030:1 emissions_randUni15030:1" vType="random_016" speedFactor="0.84" vaporized="">
        <emissions CO_abs="4142.081896" CO2_abs="216128.683651" HC_abs="23.828353" PMx_abs="3.408312" NOx_abs="86.445157" fuel_abs="92.905727" electricity_abs="0"/>
    </tripinfo>
    <tripinfo id="carIn126378:1" depart="57746.00" departLane="386687232#0_1" departPos="5.10" departSpeed="0.00" departDelay="1.80" arrival="57857.00" arrivalLane="-315358244_1" arrivalPos="33.95" arrivalSpeed="12.67" duration="111.00" routeLength="1157.39" waitingTime="7.00" waitingCount="1" stopTime="0.00" timeLoss="23.69" rerouteNo="1" devices="tripinfo_carIn126378:1 routing_carIn126378:1 emissions_carIn126378:1" vType="default_016" speedFactor="0.97" vaporized="">
        <emissions CO_abs="3625.268219" CO2_abs="244638.853574" HC_abs="22.221951" PMx_abs="4.062057" NOx_abs="97.861334" fuel_abs="105.160109" electricity_abs="0"/>
    </tripinfo>
    <tripinfo id="carIn8642:1" depart="57774.00" departLane="-447569998#1_1" departPos="5.10" departSpeed="0.00" departDelay="0.90" arrival="57860.00" arrivalLane="-315358244_1" arrivalPos="33.95" arrivalSpeed="10.64" duration="86.00" routeLength="706.49" waitingTime="0.00" waitingCount="0" stopTime="0.00" timeLoss="8.04" rerouteNo="1" devices="tripinfo_carIn8642:1 routing_carIn8642:1 emissions_carIn8642:1" vType="default_016" speedFactor="0.77" vaporized="">
        <emissions CO_abs="3041.475670" CO2_abs="154890.763486" HC_abs="17.381673" PMx_abs="2.316133" NOx_abs="61.199278" fuel_abs="66.582059" electricity_abs="0"/>
    </tripinfo>
    <tripinfo id="randUni31145:1" depart="57814.00" departLane="10425609#0_1" departPos="5.10" departSpeed="0.00" departDelay="0.30" arrival="57863.00" arrivalLane="201956810_1" arrivalPos="71.65" arrivalSpeed="14.53" duration="49.00" routeLength="255.78" waitingTime="20.00" waitingCount="1" stopTime="0.00" timeLoss="30.37" rerouteNo="1" devices="tripinfo_randUni31145:1 routing_randUni31145:1 emissions_randUni31145:1" vType="random_016" speedFactor="1.05" vaporized="">
        <emissions CO_abs="4656.547099" CO2_abs="160066.744878" HC_abs="24.977383" PMx_abs="3.282373" NOx_abs="68.630713" fuel_abs="68.807003" electricity_abs="0"/>
    </tripinfo>
    <tripinfo id="randUni2407:1" depart="57820.00" departLane="10425609#0_1" departPos="5.10" departSpeed="0.00" departDelay="0.80" arrival="57867.00" arrivalLane="201956810_1" arrivalPos="71.65" arrivalSpeed="12.12" duration="47.00" routeLength="255.78" waitingTime="15.00" waitingCount="1" stopTime="0.00" timeLoss="26.14" rerouteNo="1" devices="tripinfo_randUni2407:1 routing_randUni2407:1 emissions_randUni2407:1" vType="random_016" speedFactor="0.96" vaporized="">
        <emissions CO_abs="3556.311930" CO2_abs="125089.133389" HC_abs="19.140365" PMx_abs="2.528412" NOx_abs="53.626640" fuel_abs="53.771334" electricity_abs="0"/>
    </tripinfo>
    <tripinfo id="50R_frequency3.17" depart="57674.00" departLane="-18809673#6_1" departPos="12.10" departSpeed="0.00" departDelay="0.70" arrival="57872.00" arrivalLane="201956811#0_1" arrivalPos="40.40" arrivalSpeed="11.85" duration="198.00" routeLength="1954.47" waitingTime="25.00" waitingCount="1" stopTime="0.00" timeLoss="53.40" rerouteNo="1" devices="tripinfo_50R_frequency3.17 routing_50R_frequency3.17 emissions_50R_frequency3.17" vType="bus" speedFactor="1.00" vaporized="">
        <emissions CO_abs="4050.118215" CO2_abs="2421859.018269" HC_abs="859.881486" PMx_abs="431.495551" NOx_abs="19107.013090" fuel_abs="1032.856133" electricity_abs="0"/>
    </tripinfo>
    <tripinfo id="h13377c2:3" depart="57808.00" departLane="315358244_1" departPos="5.10" departSpeed="0.00" departDelay="4.60" arrival="57872.00" arrivalLane="447569997#1_1" arrivalPos="180.93" arrivalSpeed="9.33" duration="64.00" routeLength="718.04" waitingTime="0.00" waitingCount="0" stopTime="0.00" timeLoss="8.46" rerouteNo="1" devices="tripinfo_h13377c2:3 routing_h13377c2:3 emissions_h13377c2:3" vType="default_016" speedFactor="1.12" vaporized="">
        <emissions CO_abs="2117.927018" CO2_abs="154023.034746" HC_abs="13.144979" PMx_abs="2.503361" NOx_abs="60.882462" fuel_abs="66.208085" electricity_abs="0"/>
    </tripinfo>
    <tripinfo id="carIn100288:1" depart="57664.00" departLane="128361102#0_1" departPos="5.10" departSpeed="0.00" departDelay="0.60" arrival="57874.00" arrivalLane="201956811#0_1" arrivalPos="40.40" arrivalSpeed="12.75" duration="210.00" routeLength="2067.33" waitingTime="28.00" waitingCount="3" stopTime="0.00" timeLoss="59.99" rerouteNo="1" devices="tripinfo_carIn100288:1 routing_carIn100288:1 emissions_carIn100288:1" vType="default_016" speedFactor="1.01" vaporized="">
        <emissions CO_abs="9037.272959" CO2_abs="515982.128521" HC_abs="53.205073" PMx_abs="8.856885" NOx_abs="207.787427" fuel_abs="221.800138" electricity_abs="0"/>
    </tripinfo>
    <tripinfo id="carIn29531:1" depart="57667.00" departLane="128361102#0_1" departPos="5.10" departSpeed="0.00" departDelay="1.60" arrival="57877.00" arrivalLane="201956811#0_1" arrivalPos="40.40" arrivalSpeed="12.89" duration="210.00" routeLength="2067.33" waitingTime="19.00" waitingCount="2" stopTime="0.00" timeLoss="47.06" rerouteNo="1" devices="tripinfo_carIn29531:1 routing_carIn29531:1 emissions_carIn29531:1" vType="default_016" speedFactor="0.93" vaporized="">
        <emissions CO_abs="8356.481208" CO2_abs="498042.112915" HC_abs="49.625899" PMx_abs="8.122661" NOx_abs="198.306938" fuel_abs="214.088730" electricity_abs="0"/>