<?xml version="1.0" encoding="UTF-8"?>

<!-- generated on 2021-10-26 21:50:32 by Eclipse SUMO sumo Version 1.10.0
<configuration xmlns:xsi="http://www.w3.org/2001/XMLSchema-instance" xsi:noNamespaceSchemaLocation="http://sumo.dlr.de/xsd/sumoConfiguration.xsd">

    <input>
        <net-file value="/Users/behradkoohy/sumo-scratchpad/RESCO/environments/ingolstadt21/ingolstadt21.net.xml"/>
        <route-files value="/Users/behradkoohy/sumo-scratchpad/RESCO/environments/ingolstadt21/ingolstadt21.rou.xml"/>
    </input>

    <output>
        <tripinfo-output value="/Users/behradkoohy/sumo-scratchpad/RESCO/logs/MPLight-tr0-ingolstadt21-21-mplight_full-pressure/tripinfo_72.xml"/>
        <tripinfo-output.write-unfinished value="true"/>
    </output>

    <time>
        <begin value="57600"/>
        <end value="61200"/>
    </time>

    <processing>
        <time-to-teleport value="-1"/>
    </processing>

    <report>
        <no-warnings value="true"/>
        <no-step-log value="true"/>
    </report>

    <emissions>
        <device.emissions.probability value="1"/>
    </emissions>

    <traci_server>
        <remote-port value="65320"/>
    </traci_server>

    <random_number>
        <random value="true"/>
    </random_number>

</configuration>
-->

<tripinfos xmlns:xsi="http://www.w3.org/2001/XMLSchema-instance" xsi:noNamespaceSchemaLocation="http://sumo.dlr.de/xsd/tripinfo_file.xsd">
    <tripinfo id="h15454c2:3" depart="57612.00" departLane="24608844_1" departPos="5.10" departSpeed="0.00" departDelay="0.50" arrival="57650.00" arrivalLane="32978638#0_1" arrivalPos="49.29" arrivalSpeed="15.06" duration="38.00" routeLength="354.79" waitingTime="0.00" waitingCount="0" stopTime="0.00" timeLoss="6.82" rerouteNo="1" devices="tripinfo_h15454c2:3 routing_h15454c2:3 emissions_h15454c2:3" vType="default_016" speedFactor="1.11" vaporized="">
        <emissions CO_abs="2142.673915" CO2_abs="125938.093753" HC_abs="12.679467" PMx_abs="2.276819" NOx_abs="51.958163" fuel_abs="54.135475" electricity_abs="0"/>
    </tripinfo>
    <tripinfo id="carIn53971:1" depart="57640.00" departLane="272042143_1" departPos="5.10" departSpeed="0.00" departDelay="0.80" arrival="57695.00" arrivalLane="24634414#1_1" arrivalPos="162.19" arrivalSpeed="7.91" duration="55.00" routeLength="493.04" waitingTime="0.00" waitingCount="0" stopTime="0.00" timeLoss="9.33" rerouteNo="1" devices="tripinfo_carIn53971:1 routing_carIn53971:1 emissions_carIn53971:1" vType="default_016" speedFactor="1.01" vaporized="">
        <emissions CO_abs="2667.575953" CO2_abs="141990.832529" HC_abs="15.454095" PMx_abs="2.457287" NOx_abs="58.193314" fuel_abs="61.036229" electricity_abs="0"/>
    </tripinfo>
    <tripinfo id="h3568c1:3" depart="57656.00" departLane="266565295#5_1" departPos="5.10" departSpeed="0.00" departDelay="0.80" arrival="57732.00" arrivalLane="-24634415_1" arrivalPos="62.03" arrivalSpeed="13.51" duration="76.00" routeLength="807.40" waitingTime="0.00" waitingCount="0" stopTime="0.00" timeLoss="14.23" rerouteNo="1" devices="tripinfo_h3568c1:3 routing_h3568c1:3 emissions_h3568c1:3" vType="default_016" speedFactor="1.05" vaporized="">
        <emissions CO_abs="3418.881870" CO2_abs="224323.177734" HC_abs="20.796736" PMx_abs="3.908635" NOx_abs="91.002269" fuel_abs="96.427025" electricity_abs="0"/>
    </tripinfo>
    <tripinfo id="h5979c1:5" depart="57669.00" departLane="399835085#1_1" departPos="5.10" departSpeed="0.00" departDelay="0.00" arrival="57746.00" arrivalLane="-315358254#1_1" arrivalPos="137.16" arrivalSpeed="15.34" duration="77.00" routeLength="659.33" waitingTime="0.00" waitingCount="0" stopTime="0.00" timeLoss="12.23" rerouteNo="1" devices="tripinfo_h5979c1:5 routing_h5979c1:5 emissions_h5979c1:5" vType="default_016" speedFactor="1.13" vaporized="">
        <emissions CO_abs="3392.389453" CO2_abs="187451.206068" HC_abs="19.820827" PMx_abs="3.262214" NOx_abs="76.945293" fuel_abs="80.577702" electricity_abs="0"/>
    </tripinfo>
    <tripinfo id="h4538c1:1" depart="57701.00" departLane="-10427692#1_1" departPos="5.10" departSpeed="0.00" departDelay="0.00" arrival="57746.00" arrivalLane="-128361102#1_1" arrivalPos="274.68" arrivalSpeed="12.65" duration="45.00" routeLength="440.74" waitingTime="2.00" waitingCount="1" stopTime="0.00" timeLoss="12.96" rerouteNo="1" devices="tripinfo_h4538c1:1 routing_h4538c1:1 emissions_h4538c1:1" vType="default_016" speedFactor="0.99" vaporized="">
        <emissions CO_abs="1827.944360" CO2_abs="113235.570554" HC_abs="10.977676" PMx_abs="1.972425" NOx_abs="46.035246" fuel_abs="48.675253" electricity_abs="0"/>
    </tripinfo>
    <tripinfo id="h3326c1:2" depart="57656.00" departLane="22716069#0_1" departPos="5.10" departSpeed="0.00" departDelay="0.00" arrival="57760.00" arrivalLane="24634517#13_1" arrivalPos="111.62" arrivalSpeed="13.97" duration="104.00" routeLength="1312.81" waitingTime="0.00" waitingCount="0" stopTime="0.00" timeLoss="14.67" rerouteNo="1" devices="tripinfo_h3326c1:2 routing_h3326c1:2 emissions_h3326c1:2" vType="default_016" speedFactor="1.10" vaporized="">
        <emissions CO_abs="4214.986976" CO2_abs="326740.442588" HC_abs="26.754492" PMx_abs="5.645973" NOx_abs="131.199103" fuel_abs="140.451377" electricity_abs="0"/>
    </tripinfo>
    <tripinfo id="carIn60260:1" depart="57606.00" departLane="315358254#0_1" departPos="5.10" departSpeed="0.00" departDelay="0.90" arrival="57769.00" arrivalLane="399835085#1_1" arrivalPos="212.23" arrivalSpeed="6.58" duration="163.00" routeLength="430.98" waitingTime="99.00" waitingCount="1" stopTime="0.00" timeLoss="111.26" rerouteNo="1" devices="tripinfo_carIn60260:1 routing_carIn60260:1 emissions_carIn60260:1" vType="default_016" speedFactor="0.89" vaporized="">
        <emissions CO_abs="18526.324125" CO2_abs="376234.317745" HC_abs="93.142701" PMx_abs="8.430073" NOx_abs="166.591994" fuel_abs="161.735087" electricity_abs="0"/>
    </tripinfo>
    <tripinfo id="h7800c1:5" depart="57696.00" departLane="-447569998#1_1" departPos="5.10" departSpeed="0.00" departDelay="0.00" arrival="57785.00" arrivalLane="-447569998#1_2" arrivalPos="180.76" arrivalSpeed="3.47" duration="89.00" routeLength="175.66" waitingTime="63.00" waitingCount="1" stopTime="0.00" timeLoss="70.99" rerouteNo="1" devices="tripinfo_h7800c1:5 routing_h7800c1:5 emissions_h7800c1:5" vType="default_016" speedFactor="1.18" vaporized="">
        <emissions CO_abs="10470.179635" CO2_abs="198388.167715" HC_abs="52.328792" PMx_abs="4.660063" NOx_abs="89.132596" fuel_abs="85.283113" electricity_abs="0"/>
    </tripinfo>
    <tripinfo id="carIn126288:1" depart="57674.00" departLane="272042143_1" departPos="5.10" departSpeed="0.00" departDelay="0.00" arrival="57786.00" arrivalLane="-315358254#1_1" arrivalPos="137.16" arrivalSpeed="15.74" duration="112.00" routeLength="1596.88" waitingTime="0.00" waitingCount="0" stopTime="0.00" timeLoss="12.15" rerouteNo="1" devices="tripinfo_carIn126288:1 routing_carIn126288:1 emissions_carIn126288:1" vType="default_016" speedFactor="1.17" vaporized="">
        <emissions CO_abs="3640.118162" CO2_abs="316170.079534" HC_abs="23.892951" PMx_abs="5.520202" NOx_abs="126.153631" fuel_abs="135.907293" electricity_abs="0"/>
    </tripinfo>
    <tripinfo id="carIn121703:1" depart="57647.00" departLane="386687232#0_1" departPos="5.10" departSpeed="0.00" departDelay="0.30" arrival="57803.00" arrivalLane="-315358244_1" arrivalPos="33.95" arrivalSpeed="14.05" duration="156.00" routeLength="1157.39" waitingTime="60.00" waitingCount="2" stopTime="0.00" timeLoss="78.70" rerouteNo="1" devices="tripinfo_carIn121703:1 routing_carIn121703:1 emissions_carIn121703:1" vType="default_016" speedFactor="1.09" vaporized="">
        <emissions CO_abs="12175.614664" CO2_abs="405004.510058" HC_abs="64.914112" PMx_abs="8.005346" NOx_abs="169.907443" fuel_abs="174.098018" electricity_abs="0"/>
    </tripinfo>
    <tripinfo id="carIn107282:1" depart="57749.00" departLane="-447569998#1_1" departPos="5.10" departSpeed="0.00" departDelay="0.00" arrival="57810.00" arrivalLane="315358242#0_1" arrivalPos="165.37" arrivalSpeed="13.62" duration="61.00" routeLength="448.50" waitingTime="10.00" waitingCount="1" stopTime="0.00" timeLoss="19.72" rerouteNo="1" devices="tripinfo_carIn107282:1 routing_carIn107282:1 emissions_carIn107282:1" vType="default_016" speedFactor="1.02" vaporized="">
        <emissions CO_abs="3162.565694" CO2_abs="140344.859062" HC_abs="17.676136" PMx_abs="2.515110" NOx_abs="57.687106" fuel_abs="60.329049" electricity_abs="0"/>
    </tripinfo>
    <tripinfo id="h11737c1:1" depart="57665.00" departLane="272042143_1" departPos="5.10" departSpeed="0.00" departDelay="1.50" arrival="57817.00" arrivalLane="-315358254#1_1" arrivalPos="137.16" arrivalSpeed="10.84" duration="152.00" routeLength="1596.88" waitingTime="0.00" waitingCount="0" stopTime="0.00" timeLoss="14.03" rerouteNo="1" devices="tripinfo_h11737c1:1 routing_h11737c1:1 emissions_h11737c1:1" vType="default_016" speedFactor="0.85" vaporized="">
        <emissions CO_abs="3770.949276" CO2_abs="295406.111551" HC_abs="23.940316" PMx_abs="4.147036" NOx_abs="113.479428" fuel_abs="126.983467" electricity_abs="0"/>
    </tripinfo>
    <tripinfo id="carIn86816:1" depart="57617.00" departLane="128361102#0_1" departPos="5.10" departSpeed="0.00" departDelay="0.80" arrival="57830.00" arrivalLane="201956811#0_1" arrivalPos="40.40" arrivalSpeed="11.69" duration="213.00" routeLength="2067.33" waitingTime="20.00" waitingCount="2" stopTime="0.00" timeLoss="47.16" rerouteNo="1" devices="tripinfo_carIn86816:1 routing_carIn86816:1 emissions_carIn86816:1" vType="default_016" speedFactor="0.91" vaporized="">
        <emissions CO_abs="8277.775764" CO2_abs="491549.066370" HC_abs="49.120573" PMx_abs="8.064701" NOx_abs="196.320184" fuel_abs="211.297547" electricity_abs="0"/>
    </tripinfo>
    <tripinfo id="carIn102915:1" depart="57643.00" departLane="128361102#0_1" departPos="5.10" departSpeed="0.00" departDelay="0.40" arrival="57832.00" arrivalLane="201956811#0_1" arrivalPos="40.40" arrivalSpeed="12.94" duration="189.00" routeLength="2067.33" waitingTime="2.00" waitingCount="1" stopTime="0.00" timeLoss="33.68" rerouteNo="1" devices="tripinfo_carIn102915:1 routing_carIn102915:1 emissions_carIn102915:1" vType="default_016" speedFactor="0.98" vaporized="">
        <emissions CO_abs="6285.545803" CO2_abs="465634.748519" HC_abs="39.492552" PMx_abs="7.608535" NOx_abs="185.475722" fuel_abs="200.156751" electricity_abs="0"/>
    </tripinfo>
    <tripinfo id="h7181c1:1" depart="57660.00" departLane="315358254#0_1" departPos="5.10" departSpeed="0.00" departDelay="0.10" arrival="57832.00" arrivalLane="306240162#0_0" arrivalPos="220.43" arrivalSpeed="14.06" duration="172.00" routeLength="932.35" waitingTime="91.00" waitingCount="2" stopTime="0.00" timeLoss="114.33" rerouteNo="1" devices="tripinfo_h7181c1:1 routing_h7181c1:1 emissions_h7181c1:1" vType="default_016" speedFactor="0.89" vaporized="">
        <emissions CO_abs="17518.218351" CO2_abs="490118.334733" HC_abs="91.292450" PMx_abs="10.548978" NOx_abs="211.838204" fuel_abs="210.686626" electricity_abs="0"/>
    </tripinfo>
    <tripinfo id="carIn129809:1" depart="57729.00" departLane="-447569998#1_1" departPos="5.10" departSpeed="0.00" departDelay="1.00" arrival="57843.00" arrivalLane="-315358244_1" arrivalPos="33.95" arrivalSpeed="13.51" duration="114.00" routeLength="706.49" waitingTime="38.00" waitingCount="2" stopTime="0.00" timeLoss="55.72" rerouteNo="1" devices="tripinfo_carIn129809:1 routing_carIn129809:1 emissions_carIn129809:1" vType="default_015" speedFactor="1.04" vaporized="">
        <emissions CO_abs="7703.841912" CO2_abs="270179.127307" HC_abs="41.367960" PMx_abs="5.088868" NOx_abs="112.516364" fuel_abs="116.141000" electricity_abs="0"/>
    </tripinfo>
    <tripinfo id="carIn8642:1" depart="57774.00" departLane="-447569998#1_1" departPos="5.10" departSpeed="0.00" departDelay="0.90" arrival="57843.00" arrivalLane="-315358244_2" arrivalPos="33.95" arrivalSpeed="16.30" duration="69.00" routeLength="706.49" waitingTime="3.00" waitingCount="1" stopTime="0.00" timeLoss="19.82" rerouteNo="1" devices="tripinfo_carIn8642:1 routing_carIn8642:1 emissions_carIn8642:1" vType="default_016" speedFactor="1.24" vaporized="">
        <emissions CO_abs="3456.174581" CO2_abs="217951.834343" HC_abs="20.825365" PMx_abs="3.979287" NOx_abs="89.376023" fuel_abs="93.688110" electricity_abs="0"/>
    </tripinfo>
    <tripinfo id="carIn27009:1" depart="57673.00" departLane="-447569998#1_1" departPos="5.10" departSpeed="0.00" departDelay="0.50" arrival="57848.00" arrivalLane="-26677539_1" arrivalPos="152.75" arrivalSpeed="8.21" duration="175.00" routeLength="699.63" waitingTime="84.00" waitingCount="1" stopTime="0.00" timeLoss="99.71" rerouteNo="1" devices="tripinfo_carIn27009:1 routing_carIn27009:1 emissions_carIn27009:1" vType="default_015" speedFactor="1.11" vaporized="">
        <emissions CO_abs="16750.181316" CO2_abs="403930.546281" HC_abs="85.659529" PMx_abs="8.342539" NOx_abs="174.380036" fuel_abs="173.639489" electricity_abs="0"/>
    </tripinfo>
    <tripinfo id="50R_frequency3.17" depart="57674.00" departLane="-18809673#6_1" departPos="12.10" departSpeed="0.00" departDelay="0.70" arrival="57852.00" arrivalLane="201956811#0_1" arrivalPos="40.40" arrivalSpeed="9.63" duration="178.00" routeLength="1954.47" waitingTime="2.00" waitingCount="1" stopTime="0.00" timeLoss="33.39" rerouteNo="1" devices="tripinfo_50R_frequency3.17 routing_50R_frequency3.17 emissions_50R_frequency3.17" vType="bus" speedFactor="1.00" vaporized="">
        <emissions CO_abs="3351.671943" CO2_abs="2055936.105117" HC_abs="720.846645" PMx_abs="359.047347" NOx_abs="16057.816722" fuel_abs="876.831325" electricity_abs="0"/>
    </tripinfo>
    <tripinfo id="h3864c1:3" depart="57678.00" departLane="24693977#1_1" departPos="5.10" departSpeed="0.00" departDelay="0.00" arrival="57852.00" arrivalLane="201956820_1" arrivalPos="48.33" arrivalSpeed="11.95" duration="174.00" routeLength="1574.85" waitingTime="8.00" waitingCount="1" stopTime="0.00" timeLoss="32.40" rerouteNo="1" devices="tripinfo_h3864c1:3 routing_h3864c1:3 emissions_h3864c1:3" vType="default_016" speedFactor="0.92" vaporized="">
        <emissions CO_abs="6701.371069" CO2_abs="395532.948443" HC_abs="39.687548" PMx_abs="6.444638" NOx_abs="158.528407" fuel_abs="170.024021" electricity_abs="0"/>
    </tripinfo>
    <tripinfo id="randUni31145:1" depart="57835.00" departLane="10425609#0_1" departPos="5.10" departSpeed="0.00" departDelay="21.30" arrival="57868.00" arrivalLane="201956810_1" arrivalPos="71.65" arrivalSpeed="12.86" duration="33.00" routeLength="255.78" waitingTime="0.00" waitingCount="0" stopTime="0.00" timeLoss="11.95" rerouteNo="1" devices="tripinfo_randUni31145:1 routing_randUni31145:1 emissions_randUni31145:1" vType="random_016" speedFactor="0.94" vaporized="">
        <emissions CO_abs="2024.705765" CO2_abs="107453.719417" HC_abs="11.744993" PMx_abs="1.972499" NOx_abs="44.698525" fuel_abs="46.189933" electricity_abs="0"/>
    </tripinfo>
    <tripinfo id="carIn13443:1" depart="57729.00" departLane="272042143_1" departPos="5.10" departSpeed="0.00" departDelay="0.80" arrival="57870.00" arrivalLane="399835085#1_1" arrivalPos="212.23" arrivalSpeed="9.39" duration="141.00" routeLength="1757.45" waitingTime="0.00" waitingCount="0" stopTime="0.00" timeLoss="15.28" rerouteNo="1" devices="tripinfo_carIn13443:1 routing_carIn13443:1 emissions_carIn13443:1" vType="default_016" speedFactor="1.13" vaporized="">
        <emissions CO_abs="4058.634614" CO2_abs="339117.499688" HC_abs="26.237850" PMx_abs="5.472787" NOx_abs="133.071583" fuel_abs="145.772107" electricity_abs="0"/>
    </tripinfo>
    <tripinfo id="randUni2407:1" depart="57836.00" departLane="10425609#0_1" departPos="5.10" departSpeed="0.00" departDelay="16.80" arrival="57871.00" arrivalLane="201956810_1" arrivalPos="71.65" arrivalSpeed="12.03" duration="35.00" routeLength="255.78" waitingTime="0.00" waitingCount="0" stopTime="0.00" timeLoss="12.35" rerouteNo="1" devices="tripinfo_randUni2407:1 routing_randUni2407:1 emissions_randUni2407:1" vType="random_016" speedFactor="0.87" vaporized="">
        <emissions CO_abs="2140.354913" CO2_abs="102653.457875" HC_abs="12.160755" PMx_abs="1.940190" NOx_abs="43.226959" fuel_abs="44.126572" electricity_abs="0"/>
    </tripinfo>
    <tripinfo id="carIn80913:1" depart="57732.00" departLane="272042143_1" departPos="5.10" departSpeed="0.00" departDelay="0.40" arrival="57881.00" arrivalLane="306240162#0_0" arrivalPos="220.43" arrivalSpeed="18.27" duration="149.00" routeLength="2246.89" waitingTime="0.00" waitingCount="0" stopTime="0.00" timeLoss="22.28" rerouteNo="1" devices="tripinfo_carIn80913:1 routing_carIn80913:1 emissions_carIn80913:1" vType="default_016" speedFactor="1.16" vaporized="">
        <emissions CO_abs="6898.268988" CO2_abs="552903.311847" HC_abs="44.363288" PMx_abs="10.391564" NOx_abs="224.308455" fuel_abs="237.667702" electricity_abs="0"/>
    </tripinfo>
    <tripinfo id="randUni15030:1" depart="57735.00" departLane="386687232#0_1" departPos="5.10" departSpeed="0.00" departDelay="0.10" arrival="57881.00" arrivalLane="26677539_1" arrivalPos="151.98" arrivalSpeed="8.54" duration="146.00" routeLength="919.89" waitingTime="56.00" waitingCount="1" stopTime="0.00" timeLoss="70.02" rerouteNo="1" devices="tripinfo_randUni15030:1 routing_randUni15030:1 emissions_randUni15030:1" vType="random_016" speedFactor="1.10" vaporized="">
        <emissions CO_abs="11969.686609" CO2_abs="361769.720916" HC_abs="62.910408" PMx_abs="7.169090" NOx_abs="152.847004" fuel_abs="155.513621" electricity_abs="0"/>
    </tripinfo>
    <tripinfo id="h13377c2:3" depart="57804.00" departLane="315358244_1" departPos="5.10" departSpeed="0.00" departDelay="0.60" arrival="57883.00" arrivalLane="447569997#1_1" arrivalPos="180.93" arrivalSpeed="7.96" duration="79.00" routeLength="726.74" waitingTime="1.00" waitingCount="1" stopTime="0.00" timeLoss="17.13" rerouteNo="1" devices="tripinfo_h13377c2:3 routing_h13377c2:3 emissions_h13377c2:3" vType="default_016" speedFactor="1.09" vaporized="">
        <emissions CO_abs="3210.158073" CO2_abs="181281.525975" HC_abs="18.848442" PMx_abs="3.181028" NOx_abs="73.934048" fuel_abs="77.925570" electricity_abs="0"/>
    </tripinfo>
    <tripinfo id="carIn53503:1" depart="57763.00" departLane="-306240162#1_0" departPos="5.10" departSpeed="0.00" departDelay="2.40" arrival="57885.00" arrivalLane="24634510#6_1" arrivalPos="76.64" arrivalSpeed="13.95" duration="122.00" routeLength="1440.47" waitingTime="8.00" waitingCount="1" stopTime="0.00" timeLoss="31.74" rerouteNo="1" devices="tripinfo_carIn53503:1 routing_carIn53503:1 emissions_carIn53503:1" vType="default_016" speedFactor="1.10" vaporized="">
        <emissions CO_abs="5122.921312" CO2_abs="364628.090798" HC_abs="31.851274" PMx_abs="6.586680" NOx_abs="148.243102" fuel_abs="156.737545" electricity_abs="0"/>
    </tripinfo>
    <tripinfo id="randUni33724:1" depart="57646.00" departLane="128361102#0_1" departPos="5.10" departSpeed="0.00" departDelay="1.20" arrival="57895.00" arrivalLane="201956811#0_1" arrivalPos="40.40" arrivalSpeed="13.01" duration="249.00" routeLength="2067.33" waitingTime="52.00" waitingCount="4" stopTime="0.00" timeLoss="95.70" rerouteNo="1" devices="tripinfo_randUni33724:1 routing_randUni33724:1 emissions_randUni33724:1" vType="random_016" speedFactor="0.99" vaporized="">
        <emissions CO_abs="14148.305702" CO2_abs="619978.361475" HC_abs="78.975655" PMx_abs="11.596139" NOx_abs="257.725940" fuel_abs="266.505133" electricity_abs="0"/>
    </tripinfo>
    <tripinfo id="randUni23028:1" depart="57884.00" departLane="124812856#0_1" departPos="5.10" departSpeed="0.00" departDelay="0.10" arrival="57900.00" arrivalLane="201956810_1" arrivalPos="71.65" arrivalSpeed="13.93" duration="16.00" routeLength="134.91" waitingTime="0.00" waitingCount="0" stopTime="0.00" timeLoss="5.11" rerouteNo="1" devices="tripinfo_randUni23028:1 routing_randUni23028:1 emissions_randUni23028:1" vType="random_016" speedFactor="1.03" vaporized="">
        <emissions CO_abs="1443.291801" CO2_abs="76080.034430" HC_abs="8.358870" PMx_abs="1.491148" NOx_abs="32.283498" fuel_abs="32.703534" electricity_abs="0"/>
    </tripinfo>
    <tripinfo id="h3688c1:1" depart="57625.00" departLane="201201950#1_1" departPos="5.10" departSpeed="0.00" departDelay="0.00" arrival="57903.00" arrivalLane="32978638#0_1" arrivalPos="49.29" arrivalSpeed="12.50" duration="278.00" routeLength="1089.75" waitingTime="179.00" waitingCount="1" stopTime="0.00" timeLoss="194.51" rerouteNo="1" devices="tripinfo_h3688c1:1 routing_h3688c1:1 emissions_h3688c1:1" vType="default_016" speedFactor="0.97" vaporized="">
        <emissions CO_abs="32215.255463" CO2_abs="722284.781209" HC_abs="163.605294" PMx_abs="15.867883" NOx_abs="315.702047" fuel_abs="310.492609" electricity_abs="0"/>
    </tripinfo>
    <tripinfo id="h17549c1:1" depart="57680.00" departLane="-447569998#1_1" departPos="5.10" departSpeed="0.00" departDelay="0.00" arrival="57903.00" arrivalLane="-315358254#1_1" arrivalPos="137.16" arrivalSpeed="14.66" duration="223.00" routeLength="1746.60" waitingTime="75.00" waitingCount="1" stopTime="0.00" timeLoss="93.18" rerouteNo="1" devices="tripinfo_h17549c1:1 routing_h17549c1:1 emissions_h17549c1:1" vType="default_016" speedFactor="1.06" vaporized="">
        <emissions CO_abs="15894.829977" CO2_abs="536898.339174" HC_abs="84.854248" PMx_abs="10.241873" NOx_abs="222.810300" fuel_abs="230.795160" electricity_abs="0"/>
    </tripinfo>
    <tripinfo id="h3536c1:1" depart="57767.00" departLane="-24634413#2_1" departPos="5.10" departSpeed="0.00" departDelay="0.00" arrival="57909.00" arrivalLane="32978638#0_1" arrivalPos="49.29" arrivalSpeed="10.69" duration="142.00" routeLength="953.61" waitingTime="10.00" waitingCount="1" stopTime="0.00" timeLoss="31.20" rerouteNo="1" devices="tripinfo_h3536c1:1 routing_h3536c1:1 emissions_h3536c1:1" vType="default_016" speedFactor="0.82" vaporized="">
        <emissions CO_abs="6534.205283" CO2_abs="278083.676063" HC_abs="36.168757" PMx_abs="4.735628" NOx_abs="113.938563" fuel_abs="119.538335" electricity_abs="0"/>
    </tripinfo>
    <tripinfo id="h17890c1:3" depart="57792.00" departLane="386687232#0_1" departPos="5.10" departSpeed="0.00" departDelay="0.00" arrival="57909.00" arrivalLane="32978638#0_2" arrivalPos="49.29" arrivalSpeed="13.01" duration="117.00" routeLength="797.04" waitingTime="32.00" waitingCount="2" stopTime="0.00" timeLoss="57.23" rerouteNo="1" devices="tripinfo_h17890c1:3 routing_h17890c1:3 emissions_h17890c1:3" vType="default_016" speedFactor="0.99" vaporized="">
        <emissions CO_abs="7576.839786" CO2_abs="291139.672530" HC_abs="41.330038" PMx_abs="5.572247" NOx_abs="122.168639" fuel_abs="125.150451" electricity_abs="0"/>
    </tripinfo>
    <tripinfo id="carIn14532:1" depart="57743.00" departLane="272042143_1" departPos="5.10" departSpeed="0.00" departDelay="1.90" arrival="57910.00" arrivalLane="399835085#1_1" arrivalPos="212.23" arrivalSpeed="7.30" duration="167.00" routeLength="1757.45" waitingTime="0.00" waitingCount="0" stopTime="0.00" timeLoss="14.84" rerouteNo="1" devices="tripinfo_carIn14532:1 routing_carIn14532:1 emissions_carIn14532:1" vType="default_016" speedFactor="0.94" vaporized="">
        <emissions CO_abs="4345.496591" CO2_abs="327618.737225" HC_abs="27.340217" PMx_abs="4.839373" NOx_abs="127.126819" fuel_abs="140.830210" electricity_abs="0"/>
    </tripinfo>
    <tripinfo id="carIn132499:1" depart="57740.00" departLane="272042143_1" departPos="5.10" departSpeed="0.00" departDelay="0.70" arrival="57911.00" arrivalLane="201238729#3_1" arrivalPos="431.02" arrivalSpeed="13.25" duration="171.00" routeLength="2100.26" waitingTime="5.00" waitingCount="1" stopTime="0.00" timeLoss="22.38" rerouteNo="1" devices="tripinfo_carIn132499:1 routing_carIn132499:1 emissions_carIn132499:1" vType="default_016" speedFactor="1.02" vaporized="">
        <emissions CO_abs="4348.403946" CO2_abs="384898.688072" HC_abs="28.755101" PMx_abs="5.963446" NOx_abs="149.456017" fuel_abs="165.451673" electricity_abs="0"/>
    </tripinfo>
    <tripinfo id="randUni3548:1" depart="57726.00" departLane="-447569998#1_1" departPos="5.10" departSpeed="0.00" departDelay="0.00" arrival="57917.00" arrivalLane="-315358254#1_1" arrivalPos="137.16" arrivalSpeed="14.79" duration="191.00" routeLength="1746.60" waitingTime="44.00" waitingCount="2" stopTime="0.00" timeLoss="69.85" rerouteNo="1" devices="tripinfo_randUni3548:1 routing_randUni3548:1 emissions_randUni3548:1" vType="random_016" speedFactor="1.12" vaporized="">
        <emissions CO_abs="11042.829603" CO2_abs="486762.063888" HC_abs="61.705048" PMx_abs="9.332323" NOx_abs="202.314872" fuel_abs="209.240249" electricity_abs="0"/>
    </tripinfo>
    <tripinfo id="h17600c1:1" depart="57662.00" departLane="272042143_1" departPos="5.10" departSpeed="0.00" departDelay="0.30" arrival="57918.00" arrivalLane="201238729#3_1" arrivalPos="431.02" arrivalSpeed="11.19" duration="256.00" routeLength="2100.26" waitingTime="59.00" waitingCount="1" stopTime="0.00" timeLoss="79.11" rerouteNo="1" devices="tripinfo_h17600c1:1 routing_h17600c1:1 emissions_h17600c1:1" vType="default_016" speedFactor="0.86" vaporized="">
        <emissions CO_abs="13527.785232" CO2_abs="519258.934591" HC_abs="73.634827" PMx_abs="9.126699" NOx_abs="211.756184" fuel_abs="223.212044" electricity_abs="0"/>
    </tripinfo>
    <tripinfo id="carIn118538:1" depart="57683.00" departLane="-447569998#1_1" departPos="5.10" departSpeed="0.00" departDelay="1.00" arrival="57930.00" arrivalLane="399835085#1_1" arrivalPos="212.23" arrivalSpeed="9.03" duration="247.00" routeLength="1907.17" waitingTime="75.00" waitingCount="1" stopTime="0.00" timeLoss="99.00" rerouteNo="1" devices="tripinfo_carIn118538:1 routing_carIn118538:1 emissions_carIn118538:1" vType="default_016" speedFactor="1.10" vaporized="">
        <emissions CO_abs="17085.788264" CO2_abs="579618.150868" HC_abs="91.264785" PMx_abs="11.176817" NOx_abs="242.230826" fuel_abs="249.158675" electricity_abs="0"/>
    </tripinfo>
    <tripinfo id="carIn81681:1" depart="57726.00" departLane="272042143_1" departPos="5.10" departSpeed="0.00" departDelay="0.30" arrival="57932.00" arrivalLane="306240162#0_0" arrivalPos="220.43" arrivalSpeed="14.12" duration="206.00" routeLength="2246.89" waitingTime="20.00" waitingCount="1" stopTime="0.00" timeLoss="43.23" rerouteNo="1" devices="tripinfo_carIn81681:1 routing_carIn81681:1 emissions_carIn81681:1" vType="default_016" speedFactor="0.91" vaporized="">
        <emissions CO_abs="8981.504675" CO2_abs="536274.574517" HC_abs="53.443264" PMx_abs="9.387132" NOx_abs="216.471302" fuel_abs="230.522483" electricity_abs="0"/>
    </tripinfo>
    <tripinfo id="carIn101266:1" depart="57737.00" departLane="272042143_1" departPos="5.10" departSpeed="0.00" departDelay="0.50" arrival="57934.00" arrivalLane="306240162#0_0" arrivalPos="220.43" arrivalSpeed="15.14" duration="197.00" routeLength="2246.89" waitingTime="20.00" waitingCount="1" stopTime="0.00" timeLoss="46.77" rerouteNo="1" devices="tripinfo_carIn101266:1 routing_carIn101266:1 emissions_carIn101266:1" vType="default_016" speedFactor="0.99" vaporized="">
        <emissions CO_abs="8830.627625" CO2_abs="553361.045585" HC_abs="53.199202" PMx_abs="9.874719" NOx_abs="223.602109" fuel_abs="237.866694" electricity_abs="0"/>
    </tripinfo>
    <tripinfo id="h3426c1:1" depart="57864.00" departLane="-160314345#2_1" departPos="5.10" departSpeed="0.00" departDelay="0.00" arrival="57935.00" arrivalLane="386687235_1" arrivalPos="80.84" arrivalSpeed="15.14" duration="71.00" routeLength="726.87" waitingTime="0.00" waitingCount="0" stopTime="0.00" timeLoss="8.54" rerouteNo="1" devices="tripinfo_h3426c1:1 routing_h3426c1:1 emissions_h3426c1:1" vType="default_016" speedFactor="1.09" vaporized="">
        <emissions CO_abs="2525.236918" CO2_abs="167797.877152" HC_abs="15.363315" PMx_abs="2.713264" NOx_abs="66.625246" fuel_abs="72.129496" electricity_abs="0"/>
    </tripinfo>
    <tripinfo id="carIn9695:1" depart="57822.00" departLane="272042143_1" departPos="5.10" departSpeed="0.00" departDelay="0.80" arrival="57942.00" arrivalLane="-315358254#1_1" arrivalPos="137.16" arrivalSpeed="15.92" duration="120.00" routeLength="1596.88" waitingTime="1.00" waitingCount="1" stopTime="0.00" timeLoss="17.80" rerouteNo="1" devices="tripinfo_carIn9695:1 routing_carIn9695:1 emissions_carIn9695:1" vType="default_016" speedFactor="1.15" vaporized="">
        <emissions CO_abs="4216.697453" CO2_abs="342442.375703" HC_abs="27.154555" PMx_abs="5.931216" NOx_abs="136.686218" fuel_abs="147.200851" electricity_abs="0"/>
    </tripinfo>
    <tripinfo id="h2859c1:1" depart="57822.00" departLane="201238726#0.117_1" departPos="5.10" departSpeed="0.00" departDelay="0.10" arrival="57945.00" arrivalLane="386687235_1" arrivalPos="80.84" arrivalSpeed="13.36" duration="123.00" routeLength="1631.78" waitingTime="0.00" waitingCount="0" stopTime="0.00" timeLoss="8.19" rerouteNo="1" devices="tripinfo_h2859c1:1 routing_h2859c1:1 emissions_h2859c1:1" vType="default_016" speedFactor="1.04" vaporized="">
        <emissions CO_abs="2344.369319" CO2_abs="266987.105291" HC_abs="16.843824" PMx_abs="3.849033" NOx_abs="100.958553" fuel_abs="114.766418" electricity_abs="0"/>
    </tripinfo>
    <tripinfo id="randUni16001:1" depart="57912.00" departLane="10425609#0_1" departPos="5.10" departSpeed="0.00" departDelay="0.30" arrival="57946.00" arrivalLane="201956810_1" arrivalPos="71.65" arrivalSpeed="11.72" duration="34.00" routeLength="255.78" waitingTime="3.00" waitingCount="1" stopTime="0.00" timeLoss="11.91" rerouteNo="1" devices="tripinfo_randUni16001:1 routing_randUni16001:1 emissions_randUni16001:1" vType="random_016" speedFactor="0.93" vaporized="">