<?xml version="1.0" encoding="UTF-8"?>

<!-- generated on 2021-10-26 20:48:42 by Eclipse SUMO sumo Version 1.10.0
<configuration xmlns:xsi="http://www.w3.org/2001/XMLSchema-instance" xsi:noNamespaceSchemaLocation="http://sumo.dlr.de/xsd/sumoConfiguration.xsd">

    <input>
        <net-file value="/Users/behradkoohy/sumo-scratchpad/RESCO/environments/ingolstadt21/ingolstadt21.net.xml"/>
        <route-files value="/Users/behradkoohy/sumo-scratchpad/RESCO/environments/ingolstadt21/ingolstadt21.rou.xml"/>
    </input>

    <output>
        <tripinfo-output value="/Users/behradkoohy/sumo-scratchpad/RESCO/logs/MPLight-tr0-ingolstadt21-21-mplight_full-pressure/tripinfo_15.xml"/>
        <tripinfo-output.write-unfinished value="true"/>
    </output>

    <time>
        <begin value="57600"/>
        <end value="61200"/>
    </time>

    <processing>
        <time-to-teleport value="-1"/>
    </processing>

    <report>
        <no-warnings value="true"/>
        <no-step-log value="true"/>
    </report>

    <emissions>
        <device.emissions.probability value="1"/>
    </emissions>

    <traci_server>
        <remote-port value="64505"/>
    </traci_server>

    <random_number>
        <random value="true"/>
    </random_number>

</configuration>
-->

<tripinfos xmlns:xsi="http://www.w3.org/2001/XMLSchema-instance" xsi:noNamespaceSchemaLocation="http://sumo.dlr.de/xsd/tripinfo_file.xsd">
    <tripinfo id="h15454c2:3" depart="57612.00" departLane="24608844_1" departPos="5.10" departSpeed="0.00" departDelay="0.50" arrival="57645.00" arrivalLane="32978638#0_1" arrivalPos="49.29" arrivalSpeed="15.60" duration="33.00" routeLength="354.79" waitingTime="0.00" waitingCount="0" stopTime="0.00" timeLoss="3.78" rerouteNo="1" devices="tripinfo_h15454c2:3 routing_h15454c2:3 emissions_h15454c2:3" vType="default_016" speedFactor="1.18" vaporized="">
        <emissions CO_abs="1540.276449" CO2_abs="98353.836595" HC_abs="9.319170" PMx_abs="1.767690" NOx_abs="40.280142" fuel_abs="42.278096" electricity_abs="0"/>
    </tripinfo>
    <tripinfo id="carIn60260:1" depart="57606.00" departLane="315358254#0_1" departPos="5.10" departSpeed="0.00" departDelay="0.90" arrival="57676.00" arrivalLane="399835085#1_1" arrivalPos="212.23" arrivalSpeed="9.92" duration="70.00" routeLength="430.98" waitingTime="21.00" waitingCount="1" stopTime="0.00" timeLoss="32.68" rerouteNo="1" devices="tripinfo_carIn60260:1 routing_carIn60260:1 emissions_carIn60260:1" vType="default_016" speedFactor="1.25" vaporized="">
        <emissions CO_abs="4971.756353" CO2_abs="176527.612145" HC_abs="26.771624" PMx_abs="3.412993" NOx_abs="74.490789" fuel_abs="75.883108" electricity_abs="0"/>
    </tripinfo>
    <tripinfo id="carIn53971:1" depart="57640.00" departLane="272042143_1" departPos="5.10" departSpeed="0.00" departDelay="0.80" arrival="57696.00" arrivalLane="24634414#1_1" arrivalPos="162.19" arrivalSpeed="7.73" duration="56.00" routeLength="493.04" waitingTime="0.00" waitingCount="0" stopTime="0.00" timeLoss="7.85" rerouteNo="1" devices="tripinfo_carIn53971:1 routing_carIn53971:1 emissions_carIn53971:1" vType="default_016" speedFactor="0.95" vaporized="">
        <emissions CO_abs="2312.995910" CO2_abs="127377.241816" HC_abs="13.495187" PMx_abs="2.167749" NOx_abs="51.922642" fuel_abs="54.754418" electricity_abs="0"/>
    </tripinfo>
    <tripinfo id="carIn80064:1" depart="57603.00" departLane="128361109#1_1" departPos="5.10" departSpeed="0.00" departDelay="0.40" arrival="57716.00" arrivalLane="-315358254#1_1" arrivalPos="137.16" arrivalSpeed="13.12" duration="113.00" routeLength="1587.97" waitingTime="0.00" waitingCount="0" stopTime="0.00" timeLoss="21.10" rerouteNo="1" devices="tripinfo_carIn80064:1 routing_carIn80064:1 emissions_carIn80064:1" vType="default_016" speedFactor="0.97" vaporized="">
        <emissions CO_abs="5896.996829" CO2_abs="429254.928881" HC_abs="37.161963" PMx_abs="8.348752" NOx_abs="177.012768" fuel_abs="184.516918" electricity_abs="0"/>
    </tripinfo>
    <tripinfo id="h7800c1:5" depart="57696.00" departLane="-447569998#1_1" departPos="5.10" departSpeed="0.00" departDelay="0.00" arrival="57717.00" arrivalLane="-447569998#1_2" arrivalPos="180.76" arrivalSpeed="9.30" duration="21.00" routeLength="175.66" waitingTime="0.00" waitingCount="0" stopTime="0.00" timeLoss="3.72" rerouteNo="1" devices="tripinfo_h7800c1:5 routing_h7800c1:5 emissions_h7800c1:5" vType="default_016" speedFactor="1.24" vaporized="">
        <emissions CO_abs="1109.536802" CO2_abs="57711.446798" HC_abs="6.391483" PMx_abs="0.982166" NOx_abs="23.614607" fuel_abs="24.807902" electricity_abs="0"/>
    </tripinfo>
    <tripinfo id="h7181c1:1" depart="57660.00" departLane="315358254#0_1" departPos="5.10" departSpeed="0.00" departDelay="0.10" arrival="57729.00" arrivalLane="306240162#0_0" arrivalPos="220.43" arrivalSpeed="17.91" duration="69.00" routeLength="932.35" waitingTime="8.00" waitingCount="1" stopTime="0.00" timeLoss="23.76" rerouteNo="1" devices="tripinfo_h7181c1:1 routing_h7181c1:1 emissions_h7181c1:1" vType="default_016" speedFactor="1.14" vaporized="">
        <emissions CO_abs="5095.551468" CO2_abs="293859.539900" HC_abs="30.306759" PMx_abs="6.127722" NOx_abs="123.685405" fuel_abs="126.316970" electricity_abs="0"/>
    </tripinfo>
    <tripinfo id="h3568c1:3" depart="57656.00" departLane="266565295#5_1" departPos="5.10" departSpeed="0.00" departDelay="0.80" arrival="57738.00" arrivalLane="-24634415_1" arrivalPos="62.03" arrivalSpeed="11.68" duration="82.00" routeLength="807.40" waitingTime="0.00" waitingCount="0" stopTime="0.00" timeLoss="11.89" rerouteNo="1" devices="tripinfo_h3568c1:3 routing_h3568c1:3 emissions_h3568c1:3" vType="default_016" speedFactor="0.92" vaporized="">
        <emissions CO_abs="3227.064146" CO2_abs="194939.588943" HC_abs="19.241391" PMx_abs="3.306592" NOx_abs="79.064545" fuel_abs="83.796571" electricity_abs="0"/>
    </tripinfo>
    <tripinfo id="h12244c1:3" depart="57612.00" departLane="315358244_1" departPos="5.10" departSpeed="0.00" departDelay="0.40" arrival="57742.00" arrivalLane="386687235_1" arrivalPos="80.84" arrivalSpeed="12.98" duration="130.00" routeLength="1186.14" waitingTime="17.00" waitingCount="4" stopTime="0.00" timeLoss="41.81" rerouteNo="1" devices="tripinfo_h12244c1:3 routing_h12244c1:3 emissions_h12244c1:3" vType="default_016" speedFactor="0.99" vaporized="">
        <emissions CO_abs="5874.976256" CO2_abs="324850.682428" HC_abs="34.404726" PMx_abs="5.945039" NOx_abs="134.087131" fuel_abs="139.639857" electricity_abs="0"/>
    </tripinfo>
    <tripinfo id="carIn30817:1" depart="57681.00" departLane="315358244_1" departPos="5.10" departSpeed="0.00" departDelay="0.20" arrival="57742.00" arrivalLane="447569997#1_1" arrivalPos="180.93" arrivalSpeed="9.57" duration="61.00" routeLength="718.04" waitingTime="0.00" waitingCount="0" stopTime="0.00" timeLoss="7.86" rerouteNo="1" devices="tripinfo_carIn30817:1 routing_carIn30817:1 emissions_carIn30817:1" vType="default_016" speedFactor="1.17" vaporized="">
        <emissions CO_abs="2291.873927" CO2_abs="160624.422066" HC_abs="14.092722" PMx_abs="2.687967" NOx_abs="64.038179" fuel_abs="69.045694" electricity_abs="0"/>
    </tripinfo>
    <tripinfo id="h9563c2:5" depart="57631.00" departLane="315358244_1" departPos="5.10" departSpeed="0.00" departDelay="0.70" arrival="57744.00" arrivalLane="386687235_1" arrivalPos="80.84" arrivalSpeed="12.24" duration="113.00" routeLength="1186.14" waitingTime="1.00" waitingCount="1" stopTime="0.00" timeLoss="19.74" rerouteNo="1" devices="tripinfo_h9563c2:5 routing_h9563c2:5 emissions_h9563c2:5" vType="default_016" speedFactor="0.93" vaporized="">
        <emissions CO_abs="3858.974977" CO2_abs="265673.016794" HC_abs="23.743353" PMx_abs="4.228906" NOx_abs="105.182388" fuel_abs="114.202027" electricity_abs="0"/>
    </tripinfo>
    <tripinfo id="h317c2:1" depart="57707.00" departLane="-32978638#0_1" departPos="5.10" departSpeed="0.00" departDelay="0.10" arrival="57744.00" arrivalLane="-266565295#5_1" arrivalPos="172.76" arrivalSpeed="12.03" duration="37.00" routeLength="370.53" waitingTime="0.00" waitingCount="0" stopTime="0.00" timeLoss="5.82" rerouteNo="1" devices="tripinfo_h317c2:1 routing_h317c2:1 emissions_h317c2:1" vType="default_016" speedFactor="0.90" vaporized="">
        <emissions CO_abs="1618.331751" CO2_abs="100081.340505" HC_abs="9.700728" PMx_abs="1.673211" NOx_abs="40.381525" fuel_abs="43.020892" electricity_abs="0"/>
    </tripinfo>
    <tripinfo id="carIn27009:1" depart="57673.00" departLane="-447569998#1_1" departPos="5.10" departSpeed="0.00" departDelay="0.50" arrival="57757.00" arrivalLane="-26677539_1" arrivalPos="152.75" arrivalSpeed="9.23" duration="84.00" routeLength="699.63" waitingTime="0.00" waitingCount="0" stopTime="0.00" timeLoss="9.22" rerouteNo="1" devices="tripinfo_carIn27009:1 routing_carIn27009:1 emissions_carIn27009:1" vType="default_015" speedFactor="1.14" vaporized="">
        <emissions CO_abs="3032.761618" CO2_abs="166896.207302" HC_abs="17.659574" PMx_abs="2.695147" NOx_abs="67.375730" fuel_abs="71.742246" electricity_abs="0"/>
    </tripinfo>
    <tripinfo id="h4538c1:1" depart="57701.00" departLane="-10427692#1_1" departPos="5.10" departSpeed="0.00" departDelay="0.00" arrival="57762.00" arrivalLane="-128361102#1_1" arrivalPos="274.68" arrivalSpeed="11.27" duration="61.00" routeLength="440.74" waitingTime="13.00" waitingCount="1" stopTime="0.00" timeLoss="22.57" rerouteNo="1" devices="tripinfo_h4538c1:1 routing_h4538c1:1 emissions_h4538c1:1" vType="default_016" speedFactor="0.84" vaporized="">
        <emissions CO_abs="3464.248056" CO2_abs="144807.930859" HC_abs="19.155684" PMx_abs="2.651436" NOx_abs="60.086894" fuel_abs="62.247623" electricity_abs="0"/>
    </tripinfo>
    <tripinfo id="h3326c1:2" depart="57656.00" departLane="22716069#0_1" departPos="5.10" departSpeed="0.00" departDelay="0.00" arrival="57767.00" arrivalLane="24634517#13_1" arrivalPos="111.62" arrivalSpeed="14.24" duration="111.00" routeLength="1312.81" waitingTime="0.00" waitingCount="0" stopTime="0.00" timeLoss="15.08" rerouteNo="1" devices="tripinfo_h3326c1:2 routing_h3326c1:2 emissions_h3326c1:2" vType="default_016" speedFactor="1.03" vaporized="">
        <emissions CO_abs="4138.097455" CO2_abs="316861.917774" HC_abs="26.228773" PMx_abs="5.372790" NOx_abs="126.999776" fuel_abs="136.205203" electricity_abs="0"/>
    </tripinfo>
    <tripinfo id="carIn22761:1" depart="57616.00" departLane="-306240162#1_0" departPos="5.10" departSpeed="0.00" departDelay="2.10" arrival="57769.00" arrivalLane="399835085#1_1" arrivalPos="212.23" arrivalSpeed="6.74" duration="153.00" routeLength="1093.26" waitingTime="42.00" waitingCount="2" stopTime="0.00" timeLoss="63.77" rerouteNo="1" devices="tripinfo_carIn22761:1 routing_carIn22761:1 emissions_carIn22761:1" vType="default_016" speedFactor="0.88" vaporized="">
        <emissions CO_abs="10593.711012" CO2_abs="388318.301111" HC_abs="57.345948" PMx_abs="7.588572" NOx_abs="163.385645" fuel_abs="166.924274" electricity_abs="0"/>
    </tripinfo>
    <tripinfo id="S5R_frequency1.2" depart="57615.00" departLane="315358250#0_1" departPos="12.10" departSpeed="0.00" departDelay="3.40" arrival="57777.00" arrivalLane="386687235_1" arrivalPos="80.84" arrivalSpeed="13.88" duration="162.00" routeLength="1115.62" waitingTime="39.00" waitingCount="3" stopTime="0.00" timeLoss="80.35" rerouteNo="1" devices="tripinfo_S5R_frequency1.2 routing_S5R_frequency1.2 emissions_S5R_frequency1.2" vType="bus" speedFactor="1.00" vaporized="">
        <emissions CO_abs="3289.976140" CO2_abs="1861951.118087" HC_abs="689.014873" PMx_abs="347.113517" NOx_abs="15008.606779" fuel_abs="794.017127" electricity_abs="0"/>
    </tripinfo>
    <tripinfo id="h3154c1:1" depart="57658.00" departLane="24634507_1" departPos="5.10" departSpeed="0.00" departDelay="0.00" arrival="57777.00" arrivalLane="-266565295#5_1" arrivalPos="172.76" arrivalSpeed="12.89" duration="119.00" routeLength="1206.22" waitingTime="10.00" waitingCount="1" stopTime="0.00" timeLoss="28.19" rerouteNo="1" devices="tripinfo_h3154c1:1 routing_h3154c1:1 emissions_h3154c1:1" vType="default_016" speedFactor="0.98" vaporized="">
        <emissions CO_abs="5125.829783" CO2_abs="297821.069131" HC_abs="30.302596" PMx_abs="5.220227" NOx_abs="121.117312" fuel_abs="128.021104" electricity_abs="0"/>
    </tripinfo>
    <tripinfo id="h645c1:1" depart="57622.00" departLane="266565295#5_1" departPos="5.10" departSpeed="0.00" departDelay="0.40" arrival="57785.00" arrivalLane="-315358244_2" arrivalPos="33.95" arrivalSpeed="14.11" duration="163.00" routeLength="1910.83" waitingTime="16.00" waitingCount="1" stopTime="0.00" timeLoss="31.82" rerouteNo="1" devices="tripinfo_h645c1:1 routing_h645c1:1 emissions_h645c1:1" vType="default_016" speedFactor="1.06" vaporized="">
        <emissions CO_abs="5658.071090" CO2_abs="394167.029283" HC_abs="34.921920" PMx_abs="6.512690" NOx_abs="155.508591" fuel_abs="169.436159" electricity_abs="0"/>
    </tripinfo>
    <tripinfo id="carIn121703:1" depart="57647.00" departLane="386687232#0_1" departPos="5.10" departSpeed="0.00" departDelay="0.30" arrival="57791.00" arrivalLane="-315358244_1" arrivalPos="33.95" arrivalSpeed="11.36" duration="144.00" routeLength="1157.39" waitingTime="33.00" waitingCount="1" stopTime="0.00" timeLoss="46.25" rerouteNo="1" devices="tripinfo_carIn121703:1 routing_carIn121703:1 emissions_carIn121703:1" vType="default_016" speedFactor="0.86" vaporized="">
        <emissions CO_abs="7887.448282" CO2_abs="302893.306793" HC_abs="42.944359" PMx_abs="5.373039" NOx_abs="123.945864" fuel_abs="130.203610" electricity_abs="0"/>
    </tripinfo>
    <tripinfo id="carIn12365:1" depart="57713.00" departLane="315358244_1" departPos="5.10" departSpeed="0.00" departDelay="0.50" arrival="57792.00" arrivalLane="447569997#1_1" arrivalPos="180.93" arrivalSpeed="6.88" duration="79.00" routeLength="718.04" waitingTime="3.00" waitingCount="1" stopTime="0.00" timeLoss="15.44" rerouteNo="1" devices="tripinfo_carIn12365:1 routing_carIn12365:1 emissions_carIn12365:1" vType="default_016" speedFactor="0.97" vaporized="">
        <emissions CO_abs="2741.509613" CO2_abs="157001.426509" HC_abs="16.112400" PMx_abs="2.506777" NOx_abs="62.574603" fuel_abs="67.488874" electricity_abs="0"/>
    </tripinfo>
    <tripinfo id="carIn129809:1" depart="57729.00" departLane="-447569998#1_1" departPos="5.10" departSpeed="0.00" departDelay="1.00" arrival="57795.00" arrivalLane="-315358244_1" arrivalPos="33.95" arrivalSpeed="13.70" duration="66.00" routeLength="706.49" waitingTime="0.00" waitingCount="0" stopTime="0.00" timeLoss="8.46" rerouteNo="1" devices="tripinfo_carIn129809:1 routing_carIn129809:1 emissions_carIn129809:1" vType="default_015" speedFactor="1.05" vaporized="">
        <emissions CO_abs="2166.457830" CO2_abs="141858.378534" HC_abs="13.094795" PMx_abs="2.291804" NOx_abs="56.374783" fuel_abs="60.979176" electricity_abs="0"/>
    </tripinfo>
    <tripinfo id="h330c1:1" depart="57736.00" departLane="-32978638#0_1" departPos="5.10" departSpeed="0.00" departDelay="0.20" arrival="57795.00" arrivalLane="-266565295#5_1" arrivalPos="172.76" arrivalSpeed="13.59" duration="59.00" routeLength="370.53" waitingTime="24.00" waitingCount="1" stopTime="0.00" timeLoss="31.77" rerouteNo="1" devices="tripinfo_h330c1:1 routing_h330c1:1 emissions_h330c1:1" vType="default_016" speedFactor="1.03" vaporized="">
        <emissions CO_abs="5196.672657" CO2_abs="166415.730637" HC_abs="27.582855" PMx_abs="3.397792" NOx_abs="71.083418" fuel_abs="71.536553" electricity_abs="0"/>
    </tripinfo>
    <tripinfo id="carIn107282:1" depart="57749.00" departLane="-447569998#1_1" departPos="5.10" departSpeed="0.00" departDelay="0.00" arrival="57816.00" arrivalLane="315358242#0_1" arrivalPos="165.37" arrivalSpeed="12.57" duration="67.00" routeLength="448.50" waitingTime="15.00" waitingCount="1" stopTime="0.00" timeLoss="23.52" rerouteNo="1" devices="tripinfo_carIn107282:1 routing_carIn107282:1 emissions_carIn107282:1" vType="default_016" speedFactor="0.96" vaporized="">
        <emissions CO_abs="4052.837653" CO2_abs="148291.780027" HC_abs="21.907566" PMx_abs="2.750100" NOx_abs="61.816012" fuel_abs="63.745575" electricity_abs="0"/>
    </tripinfo>
    <tripinfo id="h11737c1:1" depart="57665.00" departLane="272042143_1" departPos="5.10" departSpeed="0.00" departDelay="1.50" arrival="57817.00" arrivalLane="-315358254#1_1" arrivalPos="137.16" arrivalSpeed="13.89" duration="152.00" routeLength="1596.88" waitingTime="21.00" waitingCount="1" stopTime="0.00" timeLoss="37.47" rerouteNo="1" devices="tripinfo_h11737c1:1 routing_h11737c1:1 emissions_h11737c1:1" vType="default_016" speedFactor="1.02" vaporized="">
        <emissions CO_abs="6538.711131" CO2_abs="377012.618568" HC_abs="38.526146" PMx_abs="6.425545" NOx_abs="150.892301" fuel_abs="162.062758" electricity_abs="0"/>
    </tripinfo>
    <tripinfo id="h5979c1:5" depart="57669.00" departLane="399835085#1_1" departPos="5.10" departSpeed="0.00" departDelay="0.00" arrival="57821.00" arrivalLane="-315358254#1_1" arrivalPos="137.16" arrivalSpeed="11.40" duration="152.00" routeLength="659.33" waitingTime="51.00" waitingCount="1" stopTime="0.00" timeLoss="67.92" rerouteNo="1" devices="tripinfo_h5979c1:5 routing_h5979c1:5 emissions_h5979c1:5" vType="default_016" speedFactor="0.87" vaporized="">
        <emissions CO_abs="11967.528372" CO2_abs="306457.791543" HC_abs="61.584621" PMx_abs="6.066555" NOx_abs="130.848351" fuel_abs="131.738168" electricity_abs="0"/>
    </tripinfo>
    <tripinfo id="carIn48184:1" depart="57613.00" departLane="-306240162#1_0" departPos="5.10" departSpeed="0.00" departDelay="0.70" arrival="57823.00" arrivalLane="386687235_2" arrivalPos="80.84" arrivalSpeed="14.45" duration="210.00" routeLength="2257.41" waitingTime="38.00" waitingCount="4" stopTime="0.00" timeLoss="75.16" rerouteNo="1" devices="tripinfo_carIn48184:1 routing_carIn48184:1 emissions_carIn48184:1" vType="default_016" speedFactor="1.10" vaporized="">
        <emissions CO_abs="10770.128692" CO2_abs="604027.973881" HC_abs="63.360897" PMx_abs="11.485154" NOx_abs="248.015842" fuel_abs="259.646239" electricity_abs="0"/>
    </tripinfo>
    <tripinfo id="h16072c2:3" depart="57663.00" departLane="315358254#0_1" departPos="5.10" departSpeed="0.00" departDelay="2.50" arrival="57824.00" arrivalLane="386687235_1" arrivalPos="80.84" arrivalSpeed="13.28" duration="161.00" routeLength="1611.92" waitingTime="20.00" waitingCount="1" stopTime="0.00" timeLoss="41.47" rerouteNo="1" devices="tripinfo_h16072c2:3 routing_h16072c2:3 emissions_h16072c2:3" vType="default_016" speedFactor="0.99" vaporized="">
        <emissions CO_abs="7076.195510" CO2_abs="379621.817390" HC_abs="41.127487" PMx_abs="6.721054" NOx_abs="154.385386" fuel_abs="163.184314" electricity_abs="0"/>
    </tripinfo>
    <tripinfo id="carIn82278:1" depart="57702.00" departLane="-306240162#1_0" departPos="5.10" departSpeed="0.00" departDelay="0.70" arrival="57824.00" arrivalLane="399835085#1_1" arrivalPos="212.23" arrivalSpeed="8.30" duration="122.00" routeLength="1093.26" waitingTime="25.00" waitingCount="2" stopTime="0.00" timeLoss="45.50" rerouteNo="1" devices="tripinfo_carIn82278:1 routing_carIn82278:1 emissions_carIn82278:1" vType="default_016" speedFactor="1.02" vaporized="">
        <emissions CO_abs="7584.305856" CO2_abs="347758.842619" HC_abs="42.688325" PMx_abs="6.647768" NOx_abs="142.962898" fuel_abs="149.488036" electricity_abs="0"/>
    </tripinfo>
    <tripinfo id="h3688c1:1" depart="57625.00" departLane="201201950#1_1" departPos="5.10" departSpeed="0.00" departDelay="0.00" arrival="57831.00" arrivalLane="32978638#0_1" arrivalPos="49.29" arrivalSpeed="13.63" duration="206.00" routeLength="1089.75" waitingTime="112.00" waitingCount="1" stopTime="0.00" timeLoss="128.60" rerouteNo="1" devices="tripinfo_h3688c1:1 routing_h3688c1:1 emissions_h3688c1:1" vType="default_016" speedFactor="1.03" vaporized="">
        <emissions CO_abs="21356.144778" CO2_abs="553705.293055" HC_abs="110.158230" PMx_abs="11.670674" NOx_abs="237.946991" fuel_abs="238.022373" electricity_abs="0"/>
    </tripinfo>
    <tripinfo id="randUni15030:1" depart="57735.00" departLane="386687232#0_1" departPos="5.10" departSpeed="0.00" departDelay="0.10" arrival="57831.00" arrivalLane="26677539_1" arrivalPos="151.98" arrivalSpeed="9.07" duration="96.00" routeLength="919.89" waitingTime="6.00" waitingCount="1" stopTime="0.00" timeLoss="21.38" rerouteNo="1" devices="tripinfo_randUni15030:1 routing_randUni15030:1 emissions_randUni15030:1" vType="random_016" speedFactor="1.12" vaporized="">
        <emissions CO_abs="3617.995539" CO2_abs="220793.521560" HC_abs="21.556171" PMx_abs="3.815257" NOx_abs="89.493560" fuel_abs="94.910018" electricity_abs="0"/>
    </tripinfo>
    <tripinfo id="carIn46110:1" depart="57684.00" departLane="315358244_1" departPos="5.10" departSpeed="0.00" departDelay="1.20" arrival="57833.00" arrivalLane="32978638#0_1" arrivalPos="49.29" arrivalSpeed="13.47" duration="149.00" routeLength="1764.04" waitingTime="10.00" waitingCount="1" stopTime="0.00" timeLoss="26.97" rerouteNo="1" devices="tripinfo_carIn46110:1 routing_carIn46110:1 emissions_carIn46110:1" vType="default_016" speedFactor="1.05" vaporized="">
        <emissions CO_abs="4687.875020" CO2_abs="356284.364844" HC_abs="29.593123" PMx_abs="6.004357" NOx_abs="141.786677" fuel_abs="153.151359" electricity_abs="0"/>
    </tripinfo>
    <tripinfo id="carIn118591:1" depart="57689.00" departLane="315358244_1" departPos="5.10" departSpeed="0.00" departDelay="0.20" arrival="57837.00" arrivalLane="386687235_1" arrivalPos="80.84" arrivalSpeed="12.83" duration="148.00" routeLength="1186.14" waitingTime="36.00" waitingCount="2" stopTime="0.00" timeLoss="58.19" rerouteNo="1" devices="tripinfo_carIn118591:1 routing_carIn118591:1 emissions_carIn118591:1" vType="default_016" speedFactor="0.96" vaporized="">
        <emissions CO_abs="8365.605053" CO2_abs="332685.022539" HC_abs="45.849691" PMx_abs="6.028762" NOx_abs="136.513857" fuel_abs="143.009660" electricity_abs="0"/>
    </tripinfo>
    <tripinfo id="carIn12858:1" depart="57661.00" departLane="128361109#1_1" departPos="5.10" departSpeed="0.00" departDelay="0.90" arrival="57844.00" arrivalLane="399835085#1_1" arrivalPos="212.23" arrivalSpeed="5.33" duration="183.00" routeLength="1738.12" waitingTime="0.00" waitingCount="0" stopTime="0.00" timeLoss="25.39" rerouteNo="1" devices="tripinfo_carIn12858:1 routing_carIn12858:1 emissions_carIn12858:1" vType="default_016" speedFactor="0.73" vaporized="">
        <emissions CO_abs="7433.099695" CO2_abs="419096.289691" HC_abs="43.500455" PMx_abs="7.225878" NOx_abs="170.004670" fuel_abs="180.152680" electricity_abs="0"/>
    </tripinfo>
    <tripinfo id="randUni31145:1" depart="57814.00" departLane="10425609#0_1" departPos="5.10" departSpeed="0.00" departDelay="0.30" arrival="57846.00" arrivalLane="201956810_1" arrivalPos="71.65" arrivalSpeed="11.53" duration="32.00" routeLength="255.78" waitingTime="0.00" waitingCount="0" stopTime="0.00" timeLoss="9.33" rerouteNo="1" devices="tripinfo_randUni31145:1 routing_randUni31145:1 emissions_randUni31145:1" vType="random_016" speedFactor="0.91" vaporized="">
        <emissions CO_abs="2022.440885" CO2_abs="104123.469800" HC_abs="11.664694" PMx_abs="1.972922" NOx_abs="43.826131" fuel_abs="44.758341" electricity_abs="0"/>
    </tripinfo>
    <tripinfo id="50R_frequency3.17" depart="57674.00" departLane="-18809673#6_1" departPos="12.10" departSpeed="0.00" departDelay="0.70" arrival="57848.00" arrivalLane="201956811#0_1" arrivalPos="40.40" arrivalSpeed="13.51" duration="174.00" routeLength="1954.47" waitingTime="4.00" waitingCount="1" stopTime="0.00" timeLoss="29.32" rerouteNo="1" devices="tripinfo_50R_frequency3.17 routing_50R_frequency3.17 emissions_50R_frequency3.17" vType="bus" speedFactor="1.00" vaporized="">
        <emissions CO_abs="3423.707897" CO2_abs="2164451.744828" HC_abs="722.462295" PMx_abs="367.573721" NOx_abs="16740.131924" fuel_abs="923.122938" electricity_abs="0"/>
    </tripinfo>
    <tripinfo id="randUni2407:1" depart="57820.00" departLane="10425609#0_1" departPos="5.10" departSpeed="0.00" departDelay="0.80" arrival="57849.00" arrivalLane="201956810_1" arrivalPos="71.65" arrivalSpeed="11.55" duration="29.00" routeLength="255.78" waitingTime="0.00" waitingCount="0" stopTime="0.00" timeLoss="6.32" rerouteNo="1" devices="tripinfo_randUni2407:1 routing_randUni2407:1 emissions_randUni2407:1" vType="random_016" speedFactor="0.89" vaporized="">
        <emissions CO_abs="1487.897106" CO2_abs="82500.581025" HC_abs="8.710766" PMx_abs="1.489085" NOx_abs="34.190393" fuel_abs="35.463584" electricity_abs="0"/>
    </tripinfo>
    <tripinfo id="carIn12775:1" depart="57676.00" departLane="10425609#0_1" departPos="5.10" departSpeed="0.00" departDelay="0.60" arrival="57851.00" arrivalLane="18809673#0_1" arrivalPos="473.56" arrivalSpeed="12.55" duration="175.00" routeLength="1959.45" waitingTime="8.00" waitingCount="1" stopTime="0.00" timeLoss="27.47" rerouteNo="1" devices="tripinfo_carIn12775:1 routing_carIn12775:1 emissions_carIn12775:1" vType="default_016" speedFactor="0.99" vaporized="">
        <emissions CO_abs="5296.069245" CO2_abs="390882.787984" HC_abs="33.237372" PMx_abs="6.392661" NOx_abs="155.233845" fuel_abs="168.024092" electricity_abs="0"/>
    </tripinfo>
    <tripinfo id="carIn73855:1" depart="57743.00" departLane="386687232#0_1" departPos="5.10" departSpeed="0.00" departDelay="0.50" arrival="57853.00" arrivalLane="-315358244_2" arrivalPos="33.95" arrivalSpeed="13.67" duration="110.00" routeLength="1157.39" waitingTime="4.00" waitingCount="2" stopTime="0.00" timeLoss="29.22" rerouteNo="1" devices="tripinfo_carIn73855:1 routing_carIn73855:1 emissions_carIn73855:1" vType="default_016" speedFactor="1.04" vaporized="">
        <emissions CO_abs="4845.179729" CO2_abs="292853.528089" HC_abs="28.974216" PMx_abs="5.363285" NOx_abs="120.605658" fuel_abs="125.885243" electricity_abs="0"/>
    </tripinfo>
    <tripinfo id="carIn126378:1" depart="57746.00" departLane="386687232#0_1" departPos="5.10" departSpeed="0.00" departDelay="1.80" arrival="57853.00" arrivalLane="-315358244_1" arrivalPos="33.95" arrivalSpeed="16.81" duration="107.00" routeLength="1157.39" waitingTime="13.00" waitingCount="2" stopTime="0.00" timeLoss="36.84" rerouteNo="1" devices="tripinfo_carIn126378:1 routing_carIn126378:1 emissions_carIn126378:1" vType="default_016" speedFactor="1.22" vaporized="">
        <emissions CO_abs="5223.895276" CO2_abs="313933.568218" HC_abs="31.176497" PMx_abs="5.935802" NOx_abs="129.612114" fuel_abs="134.946473" electricity_abs="0"/>
    </tripinfo>
    <tripinfo id="h17600c1:1" depart="57662.00" departLane="272042143_1" departPos="5.10" departSpeed="0.00" departDelay="0.30" arrival="57855.00" arrivalLane="201238729#3_1" arrivalPos="431.02" arrivalSpeed="16.81" duration="193.00" routeLength="2100.26" waitingTime="49.00" waitingCount="2" stopTime="0.00" timeLoss="72.64" rerouteNo="1" devices="tripinfo_h17600c1:1 routing_h17600c1:1 emissions_h17600c1:1" vType="default_016" speedFactor="1.26" vaporized="">
        <emissions CO_abs="12589.222700" CO2_abs="582946.172632" HC_abs="70.788417" PMx_abs="11.143621" NOx_abs="238.708751" fuel_abs="250.585894" electricity_abs="0"/>
    </tripinfo>
    <tripinfo id="carIn8642:1" depart="57774.00" departLane="-447569998#1_1" departPos="5.10" departSpeed="0.00" departDelay="0.90" arrival="57856.00" arrivalLane="-315358244_1" arrivalPos="33.95" arrivalSpeed="13.33" duration="82.00" routeLength="706.49" waitingTime="12.00" waitingCount="1" stopTime="0.00" timeLoss="20.28" rerouteNo="1" devices="tripinfo_carIn8642:1 routing_carIn8642:1 emissions_carIn8642:1" vType="default_016" speedFactor="0.98" vaporized="">
        <emissions CO_abs="4268.757838" CO2_abs="185974.731225" HC_abs="23.740386" PMx_abs="3.195098" NOx_abs="75.351281" fuel_abs="79.943934" electricity_abs="0"/>
    </tripinfo>
    <tripinfo id="carIn50326:1" depart="57651.00" departLane="128361102#0_1" departPos="5.10" departSpeed="0.00" departDelay="0.30" arrival="57863.00" arrivalLane="18809673#0_1" arrivalPos="473.56" arrivalSpeed="13.70" duration="212.00" routeLength="1591.07" waitingTime="59.00" waitingCount="1" stopTime="0.00" timeLoss="80.73" rerouteNo="1" devices="tripinfo_carIn50326:1 routing_carIn50326:1 emissions_carIn50326:1" vType="default_016" speedFactor="0.99" vaporized="">
        <emissions CO_abs="14051.141484" CO2_abs="494698.148935" HC_abs="75.482017" PMx_abs="9.155359" NOx_abs="204.527698" fuel_abs="212.654491" electricity_abs="0"/>
    </tripinfo>
    <tripinfo id="h17890c1:3" depart="57792.00" departLane="386687232#0_1" departPos="5.10" departSpeed="0.00" departDelay="0.00" arrival="57863.00" arrivalLane="32978638#0_1" arrivalPos="49.29" arrivalSpeed="13.05" duration="71.00" routeLength="792.72" waitingTime="0.00" waitingCount="0" stopTime="0.00" timeLoss="9.84" rerouteNo="1" devices="tripinfo_h17890c1:3 routing_h17890c1:3 emissions_h17890c1:3" vType="default_016" speedFactor="0.97" vaporized="">
        <emissions CO_abs="2844.648747" CO2_abs="203454.143743" HC_abs="17.717156" PMx_abs="3.422636" NOx_abs="81.783485" fuel_abs="87.456283" electricity_abs="0"/>
    </tripinfo>
    <tripinfo id="h17549c1:1" depart="57680.00" departLane="-447569998#1_1" departPos="5.10" departSpeed="0.00" departDelay="0.00" arrival="57874.00" arrivalLane="-315358254#1_1" arrivalPos="137.16" arrivalSpeed="11.28" duration="194.00" routeLength="1746.60" waitingTime="22.00" waitingCount="1" stopTime="0.00" timeLoss="41.69" rerouteNo="1" devices="tripinfo_h17549c1:1 routing_h17549c1:1 emissions_h17549c1:1" vType="default_016" speedFactor="0.90" vaporized="">
        <emissions CO_abs="7654.428680" CO2_abs="391794.570310" HC_abs="43.930622" PMx_abs="6.455242" NOx_abs="157.007592" fuel_abs="168.417851" electricity_abs="0"/>
    </tripinfo>