<?xml version="1.0" encoding="UTF-8"?>

<!-- generated on 2021-10-26 21:30:40 by Eclipse SUMO sumo Version 1.10.0
<configuration xmlns:xsi="http://www.w3.org/2001/XMLSchema-instance" xsi:noNamespaceSchemaLocation="http://sumo.dlr.de/xsd/sumoConfiguration.xsd">

    <input>
        <net-file value="/Users/behradkoohy/sumo-scratchpad/RESCO/environments/ingolstadt21/ingolstadt21.net.xml"/>
        <route-files value="/Users/behradkoohy/sumo-scratchpad/RESCO/environments/ingolstadt21/ingolstadt21.rou.xml"/>
    </input>

    <output>
        <tripinfo-output value="/Users/behradkoohy/sumo-scratchpad/RESCO/logs/MPLight-tr0-ingolstadt21-21-mplight_full-pressure/tripinfo_56.xml"/>
        <tripinfo-output.write-unfinished value="true"/>
    </output>

    <time>
        <begin value="57600"/>
        <end value="61200"/>
    </time>

    <processing>
        <time-to-teleport value="-1"/>
    </processing>

    <report>
        <no-warnings value="true"/>
        <no-step-log value="true"/>
    </report>

    <emissions>
        <device.emissions.probability value="1"/>
    </emissions>

    <traci_server>
        <remote-port value="65125"/>
    </traci_server>

    <random_number>
        <random value="true"/>
    </random_number>

</configuration>
-->

<tripinfos xmlns:xsi="http://www.w3.org/2001/XMLSchema-instance" xsi:noNamespaceSchemaLocation="http://sumo.dlr.de/xsd/tripinfo_file.xsd">
    <tripinfo id="h15454c2:3" depart="57612.00" departLane="24608844_1" departPos="5.10" departSpeed="0.00" departDelay="0.50" arrival="57656.00" arrivalLane="32978638#0_1" arrivalPos="49.29" arrivalSpeed="15.37" duration="44.00" routeLength="354.79" waitingTime="2.00" waitingCount="1" stopTime="0.00" timeLoss="13.36" rerouteNo="1" devices="tripinfo_h15454c2:3 routing_h15454c2:3 emissions_h15454c2:3" vType="default_016" speedFactor="1.13" vaporized="">
        <emissions CO_abs="2460.457770" CO2_abs="132102.518032" HC_abs="14.302774" PMx_abs="2.384687" NOx_abs="54.615130" fuel_abs="56.785482" electricity_abs="0"/>
    </tripinfo>
    <tripinfo id="carIn53971:1" depart="57640.00" departLane="272042143_1" departPos="5.10" departSpeed="0.00" departDelay="0.80" arrival="57691.00" arrivalLane="24634414#1_1" arrivalPos="162.19" arrivalSpeed="9.00" duration="51.00" routeLength="493.04" waitingTime="0.00" waitingCount="0" stopTime="0.00" timeLoss="8.75" rerouteNo="1" devices="tripinfo_carIn53971:1 routing_carIn53971:1 emissions_carIn53971:1" vType="default_016" speedFactor="1.10" vaporized="">
        <emissions CO_abs="2448.618327" CO2_abs="148172.759124" HC_abs="14.601215" PMx_abs="2.601760" NOx_abs="60.614079" fuel_abs="63.693282" electricity_abs="0"/>
    </tripinfo>
    <tripinfo id="h7800c1:5" depart="57696.00" departLane="-447569998#1_1" departPos="5.10" departSpeed="0.00" departDelay="0.00" arrival="57729.00" arrivalLane="-447569998#1_1" arrivalPos="180.76" arrivalSpeed="5.60" duration="33.00" routeLength="175.66" waitingTime="0.00" waitingCount="0" stopTime="0.00" timeLoss="4.61" rerouteNo="1" devices="tripinfo_h7800c1:5 routing_h7800c1:5 emissions_h7800c1:5" vType="default_016" speedFactor="0.76" vaporized="">
        <emissions CO_abs="1656.794943" CO2_abs="56375.167090" HC_abs="8.825185" PMx_abs="0.927663" NOx_abs="23.099035" fuel_abs="24.234002" electricity_abs="0"/>
    </tripinfo>
    <tripinfo id="h4538c1:1" depart="57701.00" departLane="-10427692#1_1" departPos="5.10" departSpeed="0.00" departDelay="0.00" arrival="57738.00" arrivalLane="-128361102#1_1" arrivalPos="274.68" arrivalSpeed="14.04" duration="37.00" routeLength="440.74" waitingTime="0.00" waitingCount="0" stopTime="0.00" timeLoss="5.93" rerouteNo="1" devices="tripinfo_h4538c1:1 routing_h4538c1:1 emissions_h4538c1:1" vType="default_016" speedFactor="1.02" vaporized="">
        <emissions CO_abs="1560.742681" CO2_abs="114582.404255" HC_abs="9.740899" PMx_abs="1.928902" NOx_abs="45.832846" fuel_abs="49.254079" electricity_abs="0"/>
    </tripinfo>
    <tripinfo id="h3568c1:3" depart="57656.00" departLane="266565295#5_1" departPos="5.10" departSpeed="0.00" departDelay="0.80" arrival="57740.00" arrivalLane="-24634415_1" arrivalPos="62.03" arrivalSpeed="13.72" duration="84.00" routeLength="807.40" waitingTime="2.00" waitingCount="1" stopTime="0.00" timeLoss="20.58" rerouteNo="1" devices="tripinfo_h3568c1:3 routing_h3568c1:3 emissions_h3568c1:3" vType="default_016" speedFactor="1.02" vaporized="">
        <emissions CO_abs="4184.950293" CO2_abs="254189.179702" HC_abs="25.007700" PMx_abs="4.582378" NOx_abs="104.561996" fuel_abs="109.265140" electricity_abs="0"/>
    </tripinfo>
    <tripinfo id="carIn60260:1" depart="57606.00" departLane="315358254#0_1" departPos="5.10" departSpeed="0.00" departDelay="0.90" arrival="57741.00" arrivalLane="399835085#1_1" arrivalPos="212.23" arrivalSpeed="8.61" duration="135.00" routeLength="430.98" waitingTime="81.00" waitingCount="1" stopTime="0.00" timeLoss="90.22" rerouteNo="1" devices="tripinfo_carIn60260:1 routing_carIn60260:1 emissions_carIn60260:1" vType="default_016" speedFactor="1.04" vaporized="">
        <emissions CO_abs="14816.538953" CO2_abs="322075.958326" HC_abs="74.982207" PMx_abs="7.072780" NOx_abs="141.482229" fuel_abs="138.452913" electricity_abs="0"/>
    </tripinfo>
    <tripinfo id="h5979c1:5" depart="57669.00" departLane="399835085#1_1" departPos="5.10" departSpeed="0.00" departDelay="0.00" arrival="57742.00" arrivalLane="-315358254#1_1" arrivalPos="137.16" arrivalSpeed="14.47" duration="73.00" routeLength="659.33" waitingTime="0.00" waitingCount="0" stopTime="0.00" timeLoss="8.23" rerouteNo="1" devices="tripinfo_h5979c1:5 routing_h5979c1:5 emissions_h5979c1:5" vType="default_016" speedFactor="1.13" vaporized="">
        <emissions CO_abs="2965.705951" CO2_abs="174216.839060" HC_abs="17.545575" PMx_abs="2.871922" NOx_abs="70.375089" fuel_abs="74.888877" electricity_abs="0"/>
    </tripinfo>
    <tripinfo id="h3326c1:2" depart="57656.00" departLane="22716069#0_1" departPos="5.10" departSpeed="0.00" departDelay="0.00" arrival="57774.00" arrivalLane="24634517#13_1" arrivalPos="111.62" arrivalSpeed="12.78" duration="118.00" routeLength="1312.81" waitingTime="0.00" waitingCount="0" stopTime="0.00" timeLoss="15.25" rerouteNo="1" devices="tripinfo_h3326c1:2 routing_h3326c1:2 emissions_h3326c1:2" vType="default_016" speedFactor="0.96" vaporized="">
        <emissions CO_abs="3988.494340" CO2_abs="306705.261367" HC_abs="25.319928" PMx_abs="4.965380" NOx_abs="121.748143" fuel_abs="131.839617" electricity_abs="0"/>
    </tripinfo>
    <tripinfo id="h3154c1:1" depart="57658.00" departLane="24634507_1" departPos="5.10" departSpeed="0.00" departDelay="0.00" arrival="57777.00" arrivalLane="-266565295#5_1" arrivalPos="172.76" arrivalSpeed="14.11" duration="119.00" routeLength="1206.22" waitingTime="22.00" waitingCount="1" stopTime="0.00" timeLoss="36.74" rerouteNo="1" devices="tripinfo_h3154c1:1 routing_h3154c1:1 emissions_h3154c1:1" vType="default_016" speedFactor="1.08" vaporized="">
        <emissions CO_abs="6594.423316" CO2_abs="332457.290211" HC_abs="37.799947" PMx_abs="6.132671" NOx_abs="136.517120" fuel_abs="142.910141" electricity_abs="0"/>
    </tripinfo>
    <tripinfo id="carIn27009:1" depart="57673.00" departLane="-447569998#1_1" departPos="5.10" departSpeed="0.00" departDelay="0.50" arrival="57778.00" arrivalLane="-26677539_1" arrivalPos="152.75" arrivalSpeed="7.90" duration="105.00" routeLength="699.63" waitingTime="15.00" waitingCount="1" stopTime="0.00" timeLoss="29.07" rerouteNo="1" devices="tripinfo_carIn27009:1 routing_carIn27009:1 emissions_carIn27009:1" vType="default_015" speedFactor="1.10" vaporized="">
        <emissions CO_abs="5172.666373" CO2_abs="208381.915093" HC_abs="28.372732" PMx_abs="3.655675" NOx_abs="86.102625" fuel_abs="89.576084" electricity_abs="0"/>
    </tripinfo>
    <tripinfo id="h11737c1:1" depart="57665.00" departLane="272042143_1" departPos="5.10" departSpeed="0.00" departDelay="1.50" arrival="57789.00" arrivalLane="-315358254#1_1" arrivalPos="137.16" arrivalSpeed="14.67" duration="124.00" routeLength="1596.88" waitingTime="0.00" waitingCount="0" stopTime="0.00" timeLoss="15.00" rerouteNo="1" devices="tripinfo_h11737c1:1 routing_h11737c1:1 emissions_h11737c1:1" vType="default_016" speedFactor="1.07" vaporized="">
        <emissions CO_abs="3992.063047" CO2_abs="342805.647638" HC_abs="26.135983" PMx_abs="5.706667" NOx_abs="135.883616" fuel_abs="147.357114" electricity_abs="0"/>
    </tripinfo>
    <tripinfo id="carIn30817:1" depart="57681.00" departLane="315358244_1" departPos="5.10" departSpeed="0.00" departDelay="0.20" arrival="57798.00" arrivalLane="447569997#1_1" arrivalPos="180.93" arrivalSpeed="8.89" duration="117.00" routeLength="718.04" waitingTime="43.00" waitingCount="2" stopTime="0.00" timeLoss="61.76" rerouteNo="1" devices="tripinfo_carIn30817:1 routing_carIn30817:1 emissions_carIn30817:1" vType="default_016" speedFactor="1.13" vaporized="">
        <emissions CO_abs="9369.585039" CO2_abs="289572.249108" HC_abs="49.464734" PMx_abs="5.864614" NOx_abs="123.455276" fuel_abs="124.477763" electricity_abs="0"/>
    </tripinfo>
    <tripinfo id="carIn126288:1" depart="57674.00" departLane="272042143_1" departPos="5.10" departSpeed="0.00" departDelay="0.00" arrival="57803.00" arrivalLane="-315358254#1_1" arrivalPos="137.16" arrivalSpeed="13.65" duration="129.00" routeLength="1596.88" waitingTime="0.00" waitingCount="0" stopTime="0.00" timeLoss="13.34" rerouteNo="1" devices="tripinfo_carIn126288:1 routing_carIn126288:1 emissions_carIn126288:1" vType="default_016" speedFactor="1.00" vaporized="">
        <emissions CO_abs="3993.432129" CO2_abs="331568.163891" HC_abs="25.937458" PMx_abs="5.460953" NOx_abs="131.579209" fuel_abs="142.526775" electricity_abs="0"/>
    </tripinfo>
    <tripinfo id="h317c2:1" depart="57707.00" departLane="-32978638#0_1" departPos="5.10" departSpeed="0.00" departDelay="0.10" arrival="57805.00" arrivalLane="-266565295#5_1" arrivalPos="172.76" arrivalSpeed="13.12" duration="98.00" routeLength="370.53" waitingTime="62.00" waitingCount="1" stopTime="0.00" timeLoss="71.12" rerouteNo="1" devices="tripinfo_h317c2:1 routing_h317c2:1 emissions_h317c2:1" vType="default_016" speedFactor="1.03" vaporized="">
        <emissions CO_abs="11698.245865" CO2_abs="273088.668487" HC_abs="59.674740" PMx_abs="6.008385" NOx_abs="119.536344" fuel_abs="117.393719" electricity_abs="0"/>
    </tripinfo>
    <tripinfo id="h330c1:1" depart="57736.00" departLane="-32978638#0_1" departPos="5.10" departSpeed="0.00" departDelay="0.20" arrival="57807.00" arrivalLane="-266565295#5_1" arrivalPos="172.76" arrivalSpeed="13.93" duration="71.00" routeLength="370.53" waitingTime="34.00" waitingCount="1" stopTime="0.00" timeLoss="43.88" rerouteNo="1" devices="tripinfo_h330c1:1 routing_h330c1:1 emissions_h330c1:1" vType="default_016" speedFactor="1.03" vaporized="">
        <emissions CO_abs="7100.254268" CO2_abs="198287.756983" HC_abs="37.000775" PMx_abs="4.207421" NOx_abs="85.860735" fuel_abs="85.237790" electricity_abs="0"/>
    </tripinfo>
    <tripinfo id="h7181c1:1" depart="57660.00" departLane="315358254#0_1" departPos="5.10" departSpeed="0.00" departDelay="0.10" arrival="57811.00" arrivalLane="306240162#0_0" arrivalPos="220.43" arrivalSpeed="14.40" duration="151.00" routeLength="932.35" waitingTime="72.00" waitingCount="2" stopTime="0.00" timeLoss="93.77" rerouteNo="1" devices="tripinfo_h7181c1:1 routing_h7181c1:1 emissions_h7181c1:1" vType="default_016" speedFactor="0.91" vaporized="">
        <emissions CO_abs="14393.161869" CO2_abs="451578.324838" HC_abs="76.176189" PMx_abs="9.596518" NOx_abs="194.311830" fuel_abs="194.118172" electricity_abs="0"/>
    </tripinfo>
    <tripinfo id="carIn50326:1" depart="57651.00" departLane="128361102#0_1" departPos="5.10" departSpeed="0.00" departDelay="0.30" arrival="57834.00" arrivalLane="18809673#0_1" arrivalPos="473.56" arrivalSpeed="13.64" duration="183.00" routeLength="1591.07" waitingTime="32.00" waitingCount="1" stopTime="0.00" timeLoss="53.72" rerouteNo="1" devices="tripinfo_carIn50326:1 routing_carIn50326:1 emissions_carIn50326:1" vType="default_016" speedFactor="1.01" vaporized="">
        <emissions CO_abs="9542.345081" CO2_abs="434621.508943" HC_abs="53.534620" PMx_abs="7.540261" NOx_abs="176.203254" fuel_abs="186.827910" electricity_abs="0"/>
    </tripinfo>
    <tripinfo id="carIn107282:1" depart="57749.00" departLane="-447569998#1_1" departPos="5.10" departSpeed="0.00" departDelay="0.00" arrival="57836.00" arrivalLane="315358242#0_1" arrivalPos="165.37" arrivalSpeed="12.50" duration="87.00" routeLength="448.50" waitingTime="34.00" waitingCount="1" stopTime="0.00" timeLoss="44.28" rerouteNo="1" devices="tripinfo_carIn107282:1 routing_carIn107282:1 emissions_carIn107282:1" vType="default_016" speedFactor="0.98" vaporized="">
        <emissions CO_abs="7298.026893" CO2_abs="205174.728211" HC_abs="38.001852" PMx_abs="4.107661" NOx_abs="87.402989" fuel_abs="88.198602" electricity_abs="0"/>
    </tripinfo>
    <tripinfo id="carIn12365:1" depart="57713.00" departLane="315358244_1" departPos="5.10" departSpeed="0.00" departDelay="0.50" arrival="57838.00" arrivalLane="447569997#1_1" arrivalPos="180.93" arrivalSpeed="6.60" duration="125.00" routeLength="718.04" waitingTime="32.00" waitingCount="2" stopTime="0.00" timeLoss="51.20" rerouteNo="1" devices="tripinfo_carIn12365:1 routing_carIn12365:1 emissions_carIn12365:1" vType="default_016" speedFactor="0.84" vaporized="">
        <emissions CO_abs="7113.323081" CO2_abs="240377.844297" HC_abs="37.985754" PMx_abs="4.563447" NOx_abs="101.261423" fuel_abs="103.330495" electricity_abs="0"/>
    </tripinfo>
    <tripinfo id="h12244c1:3" depart="57612.00" departLane="315358244_1" departPos="5.10" departSpeed="0.00" departDelay="0.40" arrival="57842.00" arrivalLane="386687235_1" arrivalPos="80.84" arrivalSpeed="12.42" duration="230.00" routeLength="1186.14" waitingTime="112.00" waitingCount="2" stopTime="0.00" timeLoss="136.25" rerouteNo="1" devices="tripinfo_h12244c1:3 routing_h12244c1:3 emissions_h12244c1:3" vType="default_016" speedFactor="0.92" vaporized="">
        <emissions CO_abs="22076.038458" CO2_abs="583761.593587" HC_abs="114.181537" PMx_abs="12.059921" NOx_abs="250.347425" fuel_abs="250.942638" electricity_abs="0"/>
    </tripinfo>
    <tripinfo id="carIn129809:1" depart="57729.00" departLane="-447569998#1_1" departPos="5.10" departSpeed="0.00" departDelay="1.00" arrival="57844.00" arrivalLane="-315358244_1" arrivalPos="33.95" arrivalSpeed="12.03" duration="115.00" routeLength="706.49" waitingTime="32.00" waitingCount="2" stopTime="0.00" timeLoss="48.19" rerouteNo="1" devices="tripinfo_carIn129809:1 routing_carIn129809:1 emissions_carIn129809:1" vType="default_015" speedFactor="0.90" vaporized="">
        <emissions CO_abs="7044.999102" CO2_abs="243158.200722" HC_abs="37.722097" PMx_abs="4.469957" NOx_abs="101.067093" fuel_abs="104.525817" electricity_abs="0"/>
    </tripinfo>
    <tripinfo id="h9563c2:5" depart="57631.00" departLane="315358244_1" departPos="5.10" departSpeed="0.00" departDelay="0.70" arrival="57845.00" arrivalLane="386687235_1" arrivalPos="80.84" arrivalSpeed="10.58" duration="214.00" routeLength="1186.14" waitingTime="91.00" waitingCount="1" stopTime="0.00" timeLoss="112.99" rerouteNo="1" devices="tripinfo_h9563c2:5 routing_h9563c2:5 emissions_h9563c2:5" vType="default_016" speedFactor="0.85" vaporized="">
        <emissions CO_abs="18419.163986" CO2_abs="508115.833820" HC_abs="95.695897" PMx_abs="10.047195" NOx_abs="215.112996" fuel_abs="218.424655" electricity_abs="0"/>
    </tripinfo>
    <tripinfo id="carIn118591:1" depart="57689.00" departLane="315358244_1" departPos="5.10" departSpeed="0.00" departDelay="0.20" arrival="57848.00" arrivalLane="386687235_1" arrivalPos="80.84" arrivalSpeed="10.12" duration="159.00" routeLength="1186.14" waitingTime="35.00" waitingCount="1" stopTime="0.00" timeLoss="52.57" rerouteNo="1" devices="tripinfo_carIn118591:1 routing_carIn118591:1 emissions_carIn118591:1" vType="default_016" speedFactor="0.81" vaporized="">
        <emissions CO_abs="9568.069744" CO2_abs="350360.323294" HC_abs="51.686737" PMx_abs="6.269619" NOx_abs="144.302364" fuel_abs="150.608315" electricity_abs="0"/>
    </tripinfo>
    <tripinfo id="S5R_frequency1.2" depart="57739.00" departLane="315358250#0_1" departPos="12.10" departSpeed="0.00" departDelay="127.40" arrival="57856.00" arrivalLane="386687235_1" arrivalPos="80.84" arrivalSpeed="13.33" duration="117.00" routeLength="1115.62" waitingTime="19.00" waitingCount="1" stopTime="0.00" timeLoss="35.54" rerouteNo="1" devices="tripinfo_S5R_frequency1.2 routing_S5R_frequency1.2 emissions_S5R_frequency1.2" vType="bus" speedFactor="1.00" vaporized="">
        <emissions CO_abs="2235.784649" CO2_abs="1320024.799199" HC_abs="477.209935" PMx_abs="237.913502" NOx_abs="10460.369944" fuel_abs="562.949861" electricity_abs="0"/>
    </tripinfo>
    <tripinfo id="randUni15030:1" depart="57735.00" departLane="386687232#0_1" departPos="5.10" departSpeed="0.00" departDelay="0.10" arrival="57859.00" arrivalLane="26677539_1" arrivalPos="151.98" arrivalSpeed="8.60" duration="124.00" routeLength="919.89" waitingTime="36.00" waitingCount="1" stopTime="0.00" timeLoss="50.90" rerouteNo="1" devices="tripinfo_randUni15030:1 routing_randUni15030:1 emissions_randUni15030:1" vType="random_016" speedFactor="1.15" vaporized="">
        <emissions CO_abs="8623.878622" CO2_abs="310576.610351" HC_abs="46.486083" PMx_abs="6.001686" NOx_abs="130.229190" fuel_abs="133.506101" electricity_abs="0"/>
    </tripinfo>
    <tripinfo id="h17600c1:1" depart="57662.00" departLane="272042143_1" departPos="5.10" departSpeed="0.00" departDelay="0.30" arrival="57866.00" arrivalLane="201238729#3_1" arrivalPos="431.02" arrivalSpeed="11.92" duration="204.00" routeLength="2100.26" waitingTime="16.00" waitingCount="1" stopTime="0.00" timeLoss="34.54" rerouteNo="1" devices="tripinfo_h17600c1:1 routing_h17600c1:1 emissions_h17600c1:1" vType="default_016" speedFactor="0.89" vaporized="">
        <emissions CO_abs="6736.918079" CO2_abs="425623.058735" HC_abs="40.513942" PMx_abs="6.575053" NOx_abs="166.831624" fuel_abs="182.958867" electricity_abs="0"/>
    </tripinfo>
    <tripinfo id="h17549c1:1" depart="57680.00" departLane="-447569998#1_1" departPos="5.10" departSpeed="0.00" departDelay="0.00" arrival="57881.00" arrivalLane="-315358254#1_1" arrivalPos="137.16" arrivalSpeed="11.20" duration="201.00" routeLength="1746.60" waitingTime="9.00" waitingCount="3" stopTime="0.00" timeLoss="37.36" rerouteNo="1" devices="tripinfo_h17549c1:1 routing_h17549c1:1 emissions_h17549c1:1" vType="default_016" speedFactor="0.84" vaporized="">
        <emissions CO_abs="7018.808753" CO2_abs="401692.076628" HC_abs="41.208169" PMx_abs="6.251620" NOx_abs="159.402367" fuel_abs="172.672187" electricity_abs="0"/>
    </tripinfo>
    <tripinfo id="randUni31145:1" depart="57814.00" departLane="10425609#0_1" departPos="5.10" departSpeed="0.00" departDelay="0.30" arrival="57882.00" arrivalLane="201956810_1" arrivalPos="71.65" arrivalSpeed="12.40" duration="68.00" routeLength="255.78" waitingTime="35.00" waitingCount="2" stopTime="0.00" timeLoss="47.04" rerouteNo="1" devices="tripinfo_randUni31145:1 routing_randUni31145:1 emissions_randUni31145:1" vType="random_016" speedFactor="0.94" vaporized="">
        <emissions CO_abs="6225.754395" CO2_abs="175804.077094" HC_abs="32.493776" PMx_abs="3.766468" NOx_abs="76.751641" fuel_abs="75.572594" electricity_abs="0"/>
    </tripinfo>
    <tripinfo id="randUni2407:1" depart="57820.00" departLane="10425609#0_1" departPos="5.10" departSpeed="0.00" departDelay="0.80" arrival="57884.00" arrivalLane="201956810_1" arrivalPos="71.65" arrivalSpeed="15.73" duration="64.00" routeLength="255.78" waitingTime="27.00" waitingCount="2" stopTime="0.00" timeLoss="46.88" rerouteNo="1" devices="tripinfo_randUni2407:1 routing_randUni2407:1 emissions_randUni2407:1" vType="random_016" speedFactor="1.20" vaporized="">
        <emissions CO_abs="6030.820236" CO2_abs="187347.469991" HC_abs="31.887120" PMx_abs="3.948394" NOx_abs="81.172097" fuel_abs="80.534336" electricity_abs="0"/>
    </tripinfo>
    <tripinfo id="h8343c1:5" depart="57679.00" departLane="315358254#0_1" departPos="5.10" departSpeed="0.00" departDelay="0.60" arrival="57887.00" arrivalLane="-24634510#5_1" arrivalPos="236.88" arrivalSpeed="13.28" duration="208.00" routeLength="2056.84" waitingTime="54.00" waitingCount="2" stopTime="0.00" timeLoss="85.24" rerouteNo="1" devices="tripinfo_h8343c1:5 routing_h8343c1:5 emissions_h8343c1:5" vType="default_016" speedFactor="1.01" vaporized="">
        <emissions CO_abs="14663.742690" CO2_abs="683604.140681" HC_abs="83.063189" PMx_abs="13.517155" NOx_abs="284.267720" fuel_abs="293.854002" electricity_abs="0"/>
    </tripinfo>
    <tripinfo id="h13377c2:3" depart="57808.00" departLane="315358244_1" departPos="5.10" departSpeed="0.00" departDelay="4.60" arrival="57892.00" arrivalLane="447569997#1_1" arrivalPos="180.93" arrivalSpeed="8.02" duration="84.00" routeLength="718.04" waitingTime="14.00" waitingCount="1" stopTime="0.00" timeLoss="28.65" rerouteNo="1" devices="tripinfo_h13377c2:3 routing_h13377c2:3 emissions_h13377c2:3" vType="default_016" speedFactor="1.11" vaporized="">
        <emissions CO_abs="3922.612631" CO2_abs="190692.623086" HC_abs="22.309589" PMx_abs="3.332153" NOx_abs="77.662936" fuel_abs="81.971512" electricity_abs="0"/>
    </tripinfo>
    <tripinfo id="carIn70533:1" depart="57812.00" departLane="-447569998#1_1" departPos="5.10" departSpeed="0.00" departDelay="0.10" arrival="57893.00" arrivalLane="-315358244_2" arrivalPos="33.95" arrivalSpeed="12.32" duration="81.00" routeLength="706.49" waitingTime="6.00" waitingCount="1" stopTime="0.00" timeLoss="18.56" rerouteNo="1" devices="tripinfo_carIn70533:1 routing_carIn70533:1 emissions_carIn70533:1" vType="default_016" speedFactor="0.96" vaporized="">
        <emissions CO_abs="2999.430241" CO2_abs="175240.171862" HC_abs="17.738431" PMx_abs="2.950210" NOx_abs="70.907072" fuel_abs="75.328716" electricity_abs="0"/>
    </tripinfo>
    <tripinfo id="carIn106665:1" depart="57659.00" departLane="266565295#5_1" departPos="5.10" departSpeed="0.00" departDelay="1.80" arrival="57894.00" arrivalLane="201238729#3_1" arrivalPos="431.02" arrivalSpeed="17.53" duration="235.00" routeLength="2840.38" waitingTime="29.00" waitingCount="3" stopTime="0.00" timeLoss="72.05" rerouteNo="1" devices="tripinfo_carIn106665:1 routing_carIn106665:1 emissions_carIn106665:1" vType="default_016" speedFactor="1.27" vaporized="">
        <emissions CO_abs="11765.748722" CO2_abs="728445.229349" HC_abs="70.445932" PMx_abs="13.550983" NOx_abs="296.199825" fuel_abs="313.127426" electricity_abs="0"/>
    </tripinfo>
    <tripinfo id="carIn8642:1" depart="57774.00" departLane="-447569998#1_1" departPos="5.10" departSpeed="0.00" departDelay="0.90" arrival="57894.00" arrivalLane="-315358244_1" arrivalPos="33.95" arrivalSpeed="11.60" duration="120.00" routeLength="706.49" waitingTime="37.00" waitingCount="2" stopTime="0.00" timeLoss="53.10" rerouteNo="1" devices="tripinfo_carIn8642:1 routing_carIn8642:1 emissions_carIn8642:1" vType="default_016" speedFactor="0.91" vaporized="">
        <emissions CO_abs="7658.566490" CO2_abs="260165.332959" HC_abs="40.942340" PMx_abs="4.962546" NOx_abs="109.253925" fuel_abs="111.836464" electricity_abs="0"/>
    </tripinfo>
    <tripinfo id="carIn132499:1" depart="57740.00" departLane="272042143_1" departPos="5.10" departSpeed="0.00" departDelay="0.70" arrival="57896.00" arrivalLane="201238729#3_1" arrivalPos="431.02" arrivalSpeed="15.33" duration="156.00" routeLength="2100.26" waitingTime="1.00" waitingCount="1" stopTime="0.00" timeLoss="19.40" rerouteNo="1" devices="tripinfo_carIn132499:1 routing_carIn132499:1 emissions_carIn132499:1" vType="default_016" speedFactor="1.11" vaporized="">
        <emissions CO_abs="4593.507025" CO2_abs="402561.269326" HC_abs="30.154799" PMx_abs="6.703804" NOx_abs="158.634941" fuel_abs="173.043426" electricity_abs="0"/>
    </tripinfo>
    <tripinfo id="randUni23028:1" depart="57884.00" departLane="124812856#0_1" departPos="5.10" departSpeed="0.00" departDelay="0.10" arrival="57902.00" arrivalLane="201956810_1" arrivalPos="71.65" arrivalSpeed="13.20" duration="18.00" routeLength="134.91" waitingTime="0.00" waitingCount="0" stopTime="0.00" timeLoss="7.09" rerouteNo="1" devices="tripinfo_randUni23028:1 routing_randUni23028:1 emissions_randUni23028:1" vType="random_016" speedFactor="1.00" vaporized="">
        <emissions CO_abs="1555.099433" CO2_abs="73638.035326" HC_abs="8.821068" PMx_abs="1.436065" NOx_abs="31.305076" fuel_abs="31.653963" electricity_abs="0"/>
    </tripinfo>
    <tripinfo id="50R_frequency3.17" depart="57674.00" departLane="-18809673#6_1" departPos="12.10" departSpeed="0.00" departDelay="0.70" arrival="57905.00" arrivalLane="201956811#0_1" arrivalPos="40.40" arrivalSpeed="11.82" duration="231.00" routeLength="1954.47" waitingTime="53.00" waitingCount="2" stopTime="0.00" timeLoss="86.22" rerouteNo="1" devices="tripinfo_50R_frequency3.17 routing_50R_frequency3.17 emissions_50R_frequency3.17" vType="bus" speedFactor="1.00" vaporized="">
        <emissions CO_abs="4360.025126" CO2_abs="2445640.797721" HC_abs="934.109670" PMx_abs="460.781269" NOx_abs="19755.097693" fuel_abs="1042.940328" electricity_abs="0"/>
    </tripinfo>
    <tripinfo id="carIn118538:1" depart="57683.00" departLane="-447569998#1_1" departPos="5.10" departSpeed="0.00" departDelay="1.00" arrival="57905.00" arrivalLane="399835085#1_1" arrivalPos="212.23" arrivalSpeed="8.27" duration="222.00" routeLength="1907.17" waitingTime="8.00" waitingCount="2" stopTime="0.00" timeLoss="73.32" rerouteNo="1" devices="tripinfo_carIn118538:1 routing_carIn118538:1 emissions_carIn118538:1" vType="default_016" speedFactor="1.09" vaporized="">
        <emissions CO_abs="8089.245784" CO2_abs="453050.250389" HC_abs="47.357617" PMx_abs="7.593286" NOx_abs="183.719909" fuel_abs="194.748392" electricity_abs="0"/>
    </tripinfo>
    <tripinfo id="carIn86816:1" depart="57617.00" departLane="128361102#0_1" departPos="5.10" departSpeed="0.00" departDelay="0.80" arrival="57907.00" arrivalLane="201956811#0_1" arrivalPos="40.40" arrivalSpeed="13.64" duration="290.00" routeLength="2067.33" waitingTime="105.00" waitingCount="2" stopTime="0.00" timeLoss="137.52" rerouteNo="1" devices="tripinfo_carIn86816:1 routing_carIn86816:1 emissions_carIn86816:1" vType="default_016" speedFactor="0.99" vaporized="">
        <emissions CO_abs="22180.135332" CO2_abs="734083.858387" HC_abs="118.182179" PMx_abs="14.343372" NOx_abs="308.311786" fuel_abs="315.558539" electricity_abs="0"/>
    </tripinfo>
    <tripinfo id="carIn29531:1" depart="57667.00" departLane="128361102#0_1" departPos="5.10" departSpeed="0.00" departDelay="1.60" arrival="57909.00" arrivalLane="201956811#0_1" arrivalPos="40.40" arrivalSpeed="14.71" duration="242.00" routeLength="2067.33" waitingTime="41.00" waitingCount="2" stopTime="0.00" timeLoss="112.10" rerouteNo="1" devices="tripinfo_carIn29531:1 routing_carIn29531:1 emissions_carIn29531:1" vType="default_016" speedFactor="1.17" vaporized="">
        <emissions CO_abs="14780.986394" CO2_abs="682826.055836" HC_abs="83.379006" PMx_abs="13.098561" NOx_abs="285.832654" fuel_abs="293.519788" electricity_abs="0"/>
    </tripinfo>
    <tripinfo id="h6846c2:1" depart="57741.00" departLane="26677213#0_1" departPos="5.10" departSpeed="0.00" departDelay="0.00" arrival="57910.00" arrivalLane="386687235_1" arrivalPos="80.84" arrivalSpeed="11.99" duration="169.00" routeLength="1412.24" waitingTime="0.00" waitingCount="0" stopTime="0.00" timeLoss="21.62" rerouteNo="1" devices="tripinfo_h6846c2:1 routing_h6846c2:1 emissions_h6846c2:1" vType="default_016" speedFactor="0.93" vaporized="">
        <emissions CO_abs="6414.593819" CO2_abs="347186.023825" HC_abs="37.246296" PMx_abs="5.742586" NOx_abs="140.660541" fuel_abs="149.241810" electricity_abs="0"/>
    </tripinfo>
    <tripinfo id="carIn2912:1" depart="57670.00" departLane="128361102#0_1" departPos="5.10" departSpeed="0.00" departDelay="3.10" arrival="57912.00" arrivalLane="201956811#0_1" arrivalPos="40.40" arrivalSpeed="10.20" duration="242.00" routeLength="2067.33" waitingTime="29.00" waitingCount="2" stopTime="0.00" timeLoss="57.62" rerouteNo="1" devices="tripinfo_carIn2912:1 routing_carIn2912:1 emissions_carIn2912:1" vType="default_016" speedFactor="0.82" vaporized="">
        <emissions CO_abs="9957.009428" CO2_abs="502014.892271" HC_abs="56.969007" PMx_abs="8.363776" NOx_abs="202.637717" fuel_abs="215.797347" electricity_abs="0"/>
    </tripinfo>
    <tripinfo id="carIn81681:1" depart="57726.00" departLane="272042143_1" departPos="5.10" departSpeed="0.00" departDelay="0.30" arrival="57913.00" arrivalLane="306240162#0_0" arrivalPos="220.43" arrivalSpeed="15.53" duration="187.00" routeLength="2246.89" waitingTime="9.00" waitingCount="1" stopTime="0.00" timeLoss="29.92" rerouteNo="1" devices="tripinfo_carIn81681:1 routing_carIn81681:1 emissions_carIn81681:1" vType="default_016" speedFactor="0.94" vaporized="">
        <emissions CO_abs="6544.745477" CO2_abs="468898.398237" HC_abs="40.818103" PMx_abs="8.250205" NOx_abs="188.962680" fuel_abs="201.559098" electricity_abs="0"/>
    </tripinfo>
    <tripinfo id="carIn49437:1" depart="57673.00" departLane="128361102#0_1" departPos="5.10" departSpeed="0.00" departDelay="4.50" arrival="57914.00" arrivalLane="201956811#0_1" arrivalPos="40.40" arrivalSpeed="11.71" duration="241.00" routeLength="2067.33" waitingTime="27.00" waitingCount="2" stopTime="0.00" timeLoss="67.99" rerouteNo="1" devices="tripinfo_carIn49437:1 routing_carIn49437:1 emissions_carIn49437:1" vType="default_016" speedFactor="0.87" vaporized="">