<?xml version="1.0" encoding="UTF-8"?>

<!-- generated on 2021-10-26 20:53:39 by Eclipse SUMO sumo Version 1.10.0
<configuration xmlns:xsi="http://www.w3.org/2001/XMLSchema-instance" xsi:noNamespaceSchemaLocation="http://sumo.dlr.de/xsd/sumoConfiguration.xsd">

    <input>
        <net-file value="/Users/behradkoohy/sumo-scratchpad/RESCO/environments/ingolstadt21/ingolstadt21.net.xml"/>
        <route-files value="/Users/behradkoohy/sumo-scratchpad/RESCO/environments/ingolstadt21/ingolstadt21.rou.xml"/>
    </input>

    <output>
        <tripinfo-output value="/Users/behradkoohy/sumo-scratchpad/RESCO/logs/MPLight-tr0-ingolstadt21-21-mplight_full-pressure/tripinfo_20.xml"/>
        <tripinfo-output.write-unfinished value="true"/>
    </output>

    <time>
        <begin value="57600"/>
        <end value="61200"/>
    </time>

    <processing>
        <time-to-teleport value="-1"/>
    </processing>

    <report>
        <no-warnings value="true"/>
        <no-step-log value="true"/>
    </report>

    <emissions>
        <device.emissions.probability value="1"/>
    </emissions>

    <traci_server>
        <remote-port value="64594"/>
    </traci_server>

    <random_number>
        <random value="true"/>
    </random_number>

</configuration>
-->

<tripinfos xmlns:xsi="http://www.w3.org/2001/XMLSchema-instance" xsi:noNamespaceSchemaLocation="http://sumo.dlr.de/xsd/tripinfo_file.xsd">
    <tripinfo id="h15454c2:3" depart="57612.00" departLane="24608844_1" departPos="5.10" departSpeed="0.00" departDelay="0.50" arrival="57652.00" arrivalLane="32978638#0_1" arrivalPos="49.29" arrivalSpeed="13.36" duration="40.00" routeLength="354.79" waitingTime="0.00" waitingCount="0" stopTime="0.00" timeLoss="5.03" rerouteNo="1" devices="tripinfo_h15454c2:3 routing_h15454c2:3 emissions_h15454c2:3" vType="default_016" speedFactor="1.00" vaporized="">
        <emissions CO_abs="1693.713202" CO2_abs="100931.230643" HC_abs="10.040055" PMx_abs="1.602530" NOx_abs="40.196552" fuel_abs="43.386405" electricity_abs="0"/>
    </tripinfo>
    <tripinfo id="carIn60260:1" depart="57606.00" departLane="315358254#0_1" departPos="5.10" departSpeed="0.00" departDelay="0.90" arrival="57662.00" arrivalLane="399835085#1_1" arrivalPos="212.23" arrivalSpeed="7.17" duration="56.00" routeLength="430.98" waitingTime="0.00" waitingCount="0" stopTime="0.00" timeLoss="6.33" rerouteNo="1" devices="tripinfo_carIn60260:1 routing_carIn60260:1 emissions_carIn60260:1" vType="default_016" speedFactor="0.94" vaporized="">
        <emissions CO_abs="2307.950928" CO2_abs="113913.001189" HC_abs="13.130894" PMx_abs="1.849064" NOx_abs="46.088823" fuel_abs="48.966993" electricity_abs="0"/>
    </tripinfo>
    <tripinfo id="carIn53971:1" depart="57640.00" departLane="272042143_1" departPos="5.10" departSpeed="0.00" departDelay="0.80" arrival="57695.00" arrivalLane="24634414#1_1" arrivalPos="162.19" arrivalSpeed="8.02" duration="55.00" routeLength="493.04" waitingTime="0.00" waitingCount="0" stopTime="0.00" timeLoss="9.74" rerouteNo="1" devices="tripinfo_carIn53971:1 routing_carIn53971:1 emissions_carIn53971:1" vType="default_016" speedFactor="1.02" vaporized="">
        <emissions CO_abs="2428.410502" CO2_abs="137288.951562" HC_abs="14.266940" PMx_abs="2.403891" NOx_abs="56.355015" fuel_abs="59.014914" electricity_abs="0"/>
    </tripinfo>
    <tripinfo id="h7800c1:5" depart="57696.00" departLane="-447569998#1_1" departPos="5.10" departSpeed="0.00" departDelay="0.00" arrival="57723.00" arrivalLane="-447569998#1_2" arrivalPos="180.76" arrivalSpeed="6.73" duration="27.00" routeLength="175.66" waitingTime="0.00" waitingCount="0" stopTime="0.00" timeLoss="3.96" rerouteNo="1" devices="tripinfo_h7800c1:5 routing_h7800c1:5 emissions_h7800c1:5" vType="default_016" speedFactor="0.95" vaporized="">
        <emissions CO_abs="1385.507139" CO2_abs="57002.907754" HC_abs="7.606856" PMx_abs="0.898971" NOx_abs="23.012757" fuel_abs="24.503670" electricity_abs="0"/>
    </tripinfo>
    <tripinfo id="h3568c1:3" depart="57656.00" departLane="266565295#5_1" departPos="5.10" departSpeed="0.00" departDelay="0.80" arrival="57738.00" arrivalLane="-24634415_1" arrivalPos="62.03" arrivalSpeed="14.27" duration="82.00" routeLength="807.40" waitingTime="4.00" waitingCount="1" stopTime="0.00" timeLoss="20.40" rerouteNo="1" devices="tripinfo_h3568c1:3 routing_h3568c1:3 emissions_h3568c1:3" vType="default_016" speedFactor="1.05" vaporized="">
        <emissions CO_abs="3981.323359" CO2_abs="247634.417715" HC_abs="23.917308" PMx_abs="4.431105" NOx_abs="101.484022" fuel_abs="106.447511" electricity_abs="0"/>
    </tripinfo>
    <tripinfo id="h4538c1:1" depart="57701.00" departLane="-10427692#1_1" departPos="5.10" departSpeed="0.00" departDelay="0.00" arrival="57746.00" arrivalLane="-128361102#1_1" arrivalPos="274.68" arrivalSpeed="13.49" duration="45.00" routeLength="440.74" waitingTime="3.00" waitingCount="1" stopTime="0.00" timeLoss="13.16" rerouteNo="1" devices="tripinfo_h4538c1:1 routing_h4538c1:1 emissions_h4538c1:1" vType="default_016" speedFactor="1.00" vaporized="">
        <emissions CO_abs="1921.284740" CO2_abs="116301.130829" HC_abs="11.451244" PMx_abs="1.956812" NOx_abs="46.731322" fuel_abs="49.993162" electricity_abs="0"/>
    </tripinfo>
    <tripinfo id="h317c2:1" depart="57707.00" departLane="-32978638#0_1" departPos="5.10" departSpeed="0.00" departDelay="0.10" arrival="57753.00" arrivalLane="-266565295#5_1" arrivalPos="172.76" arrivalSpeed="16.00" duration="46.00" routeLength="370.53" waitingTime="10.00" waitingCount="1" stopTime="0.00" timeLoss="22.22" rerouteNo="1" devices="tripinfo_h317c2:1 routing_h317c2:1 emissions_h317c2:1" vType="default_016" speedFactor="1.17" vaporized="">
        <emissions CO_abs="3198.005822" CO2_abs="152414.572980" HC_abs="18.150103" PMx_abs="2.999101" NOx_abs="64.066410" fuel_abs="65.516786" electricity_abs="0"/>
    </tripinfo>
    <tripinfo id="carIn22761:1" depart="57616.00" departLane="-306240162#1_0" departPos="5.10" departSpeed="0.00" departDelay="2.10" arrival="57754.00" arrivalLane="399835085#1_1" arrivalPos="212.23" arrivalSpeed="7.83" duration="138.00" routeLength="1093.26" waitingTime="35.00" waitingCount="2" stopTime="0.00" timeLoss="59.77" rerouteNo="1" devices="tripinfo_carIn22761:1 routing_carIn22761:1 emissions_carIn22761:1" vType="default_016" speedFactor="1.00" vaporized="">
        <emissions CO_abs="9691.977913" CO2_abs="399751.508693" HC_abs="53.564916" PMx_abs="7.995024" NOx_abs="168.223108" fuel_abs="171.837801" electricity_abs="0"/>
    </tripinfo>
    <tripinfo id="h5979c1:5" depart="57669.00" departLane="399835085#1_1" departPos="5.10" departSpeed="0.00" departDelay="0.00" arrival="57769.00" arrivalLane="-315358254#1_1" arrivalPos="137.16" arrivalSpeed="11.91" duration="100.00" routeLength="659.33" waitingTime="0.00" waitingCount="0" stopTime="0.00" timeLoss="15.86" rerouteNo="1" devices="tripinfo_h5979c1:5 routing_h5979c1:5 emissions_h5979c1:5" vType="default_016" speedFactor="0.87" vaporized="">
        <emissions CO_abs="4312.893905" CO2_abs="179948.761146" HC_abs="23.757307" PMx_abs="2.927668" NOx_abs="73.098310" fuel_abs="77.353862" electricity_abs="0"/>
    </tripinfo>
    <tripinfo id="h3326c1:2" depart="57656.00" departLane="22716069#0_1" departPos="5.10" departSpeed="0.00" departDelay="0.00" arrival="57771.00" arrivalLane="24634517#13_1" arrivalPos="111.62" arrivalSpeed="13.30" duration="115.00" routeLength="1312.81" waitingTime="0.00" waitingCount="0" stopTime="0.00" timeLoss="14.61" rerouteNo="1" devices="tripinfo_h3326c1:2 routing_h3326c1:2 emissions_h3326c1:2" vType="default_016" speedFactor="0.98" vaporized="">
        <emissions CO_abs="3832.704337" CO2_abs="294798.113822" HC_abs="24.350412" PMx_abs="4.860445" NOx_abs="117.535846" fuel_abs="126.721109" electricity_abs="0"/>
    </tripinfo>
    <tripinfo id="h3154c1:1" depart="57658.00" departLane="24634507_1" departPos="5.10" departSpeed="0.00" departDelay="0.00" arrival="57771.00" arrivalLane="-266565295#5_1" arrivalPos="172.76" arrivalSpeed="11.84" duration="113.00" routeLength="1206.22" waitingTime="0.00" waitingCount="0" stopTime="0.00" timeLoss="12.17" rerouteNo="1" devices="tripinfo_h3154c1:1 routing_h3154c1:1 emissions_h3154c1:1" vType="default_016" speedFactor="0.88" vaporized="">
        <emissions CO_abs="3502.502655" CO2_abs="259942.758842" HC_abs="21.966064" PMx_abs="3.998806" NOx_abs="102.184632" fuel_abs="111.738783" electricity_abs="0"/>
    </tripinfo>
    <tripinfo id="carIn27009:1" depart="57673.00" departLane="-447569998#1_1" departPos="5.10" departSpeed="0.00" departDelay="0.50" arrival="57773.00" arrivalLane="-26677539_1" arrivalPos="152.75" arrivalSpeed="7.05" duration="100.00" routeLength="699.63" waitingTime="0.00" waitingCount="0" stopTime="0.00" timeLoss="11.48" rerouteNo="1" devices="tripinfo_carIn27009:1 routing_carIn27009:1 emissions_carIn27009:1" vType="default_015" speedFactor="0.95" vaporized="">
        <emissions CO_abs="3886.844420" CO2_abs="174466.403345" HC_abs="21.663680" PMx_abs="2.651145" NOx_abs="69.727489" fuel_abs="74.997210" electricity_abs="0"/>
    </tripinfo>
    <tripinfo id="carIn121703:1" depart="57647.00" departLane="386687232#0_1" departPos="5.10" departSpeed="0.00" departDelay="0.30" arrival="57774.00" arrivalLane="-315358244_1" arrivalPos="33.95" arrivalSpeed="12.51" duration="127.00" routeLength="1157.39" waitingTime="20.00" waitingCount="1" stopTime="0.00" timeLoss="34.57" rerouteNo="1" devices="tripinfo_carIn121703:1 routing_carIn121703:1 emissions_carIn121703:1" vType="default_016" speedFactor="0.91" vaporized="">
        <emissions CO_abs="5955.552014" CO2_abs="295061.153150" HC_abs="33.999818" PMx_abs="5.118409" NOx_abs="119.757929" fuel_abs="126.835554" electricity_abs="0"/>
    </tripinfo>
    <tripinfo id="h3688c1:1" depart="57625.00" departLane="201201950#1_1" departPos="5.10" departSpeed="0.00" departDelay="0.00" arrival="57775.00" arrivalLane="32978638#0_1" arrivalPos="49.29" arrivalSpeed="13.35" duration="150.00" routeLength="1089.75" waitingTime="55.00" waitingCount="2" stopTime="0.00" timeLoss="72.89" rerouteNo="1" devices="tripinfo_h3688c1:1 routing_h3688c1:1 emissions_h3688c1:1" vType="default_016" speedFactor="1.04" vaporized="">
        <emissions CO_abs="11976.557905" CO2_abs="395242.747632" HC_abs="63.833973" PMx_abs="7.904275" NOx_abs="167.106153" fuel_abs="169.901636" electricity_abs="0"/>
    </tripinfo>
    <tripinfo id="carIn50326:1" depart="57651.00" departLane="128361102#0_1" departPos="5.10" departSpeed="0.00" departDelay="0.30" arrival="57782.00" arrivalLane="18809673#0_1" arrivalPos="473.56" arrivalSpeed="14.92" duration="131.00" routeLength="1591.07" waitingTime="0.00" waitingCount="0" stopTime="0.00" timeLoss="16.19" rerouteNo="1" devices="tripinfo_carIn50326:1 routing_carIn50326:1 emissions_carIn50326:1" vType="default_016" speedFactor="1.13" vaporized="">
        <emissions CO_abs="4353.428390" CO2_abs="338980.340791" HC_abs="27.625265" PMx_abs="5.580416" NOx_abs="134.157024" fuel_abs="145.713197" electricity_abs="0"/>
    </tripinfo>
    <tripinfo id="h7181c1:1" depart="57660.00" departLane="315358254#0_1" departPos="5.10" departSpeed="0.00" departDelay="0.10" arrival="57801.00" arrivalLane="306240162#0_0" arrivalPos="220.43" arrivalSpeed="17.31" duration="141.00" routeLength="932.35" waitingTime="71.00" waitingCount="2" stopTime="0.00" timeLoss="92.64" rerouteNo="1" devices="tripinfo_h7181c1:1 routing_h7181c1:1 emissions_h7181c1:1" vType="default_016" speedFactor="1.07" vaporized="">
        <emissions CO_abs="14902.605654" CO2_abs="462290.921971" HC_abs="78.895436" PMx_abs="10.047961" NOx_abs="198.472834" fuel_abs="198.723168" electricity_abs="0"/>
    </tripinfo>
    <tripinfo id="carIn129809:1" depart="57729.00" departLane="-447569998#1_1" departPos="5.10" departSpeed="0.00" departDelay="1.00" arrival="57802.00" arrivalLane="-315358244_1" arrivalPos="33.95" arrivalSpeed="11.68" duration="73.00" routeLength="706.49" waitingTime="0.00" waitingCount="0" stopTime="0.00" timeLoss="6.21" rerouteNo="1" devices="tripinfo_carIn129809:1 routing_carIn129809:1 emissions_carIn129809:1" vType="default_015" speedFactor="0.90" vaporized="">
        <emissions CO_abs="2252.752221" CO2_abs="146436.178198" HC_abs="13.624527" PMx_abs="2.187262" NOx_abs="57.277955" fuel_abs="62.947262" electricity_abs="0"/>
    </tripinfo>
    <tripinfo id="carIn12858:1" depart="57661.00" departLane="128361109#1_1" departPos="5.10" departSpeed="0.00" departDelay="0.90" arrival="57804.00" arrivalLane="399835085#1_1" arrivalPos="212.23" arrivalSpeed="7.15" duration="143.00" routeLength="1738.12" waitingTime="2.00" waitingCount="1" stopTime="0.00" timeLoss="27.01" rerouteNo="1" devices="tripinfo_carIn12858:1 routing_carIn12858:1 emissions_carIn12858:1" vType="default_016" speedFactor="0.99" vaporized="">
        <emissions CO_abs="6782.020543" CO2_abs="453132.448044" HC_abs="41.614422" PMx_abs="8.360056" NOx_abs="184.287014" fuel_abs="194.781887" electricity_abs="0"/>
    </tripinfo>
    <tripinfo id="carIn107282:1" depart="57749.00" departLane="-447569998#1_1" departPos="5.10" departSpeed="0.00" departDelay="0.00" arrival="57806.00" arrivalLane="315358242#0_1" arrivalPos="165.37" arrivalSpeed="12.64" duration="57.00" routeLength="448.50" waitingTime="6.00" waitingCount="1" stopTime="0.00" timeLoss="14.23" rerouteNo="1" devices="tripinfo_carIn107282:1 routing_carIn107282:1 emissions_carIn107282:1" vType="default_016" speedFactor="0.98" vaporized="">
        <emissions CO_abs="2284.688362" CO2_abs="120916.094243" HC_abs="13.216711" PMx_abs="2.068886" NOx_abs="49.274575" fuel_abs="51.977095" electricity_abs="0"/>
    </tripinfo>
    <tripinfo id="carIn80064:1" depart="57603.00" departLane="128361109#1_1" departPos="5.10" departSpeed="0.00" departDelay="0.40" arrival="57809.00" arrivalLane="-315358254#1_1" arrivalPos="137.16" arrivalSpeed="11.79" duration="206.00" routeLength="1587.97" waitingTime="69.00" waitingCount="3" stopTime="0.00" timeLoss="104.70" rerouteNo="1" devices="tripinfo_carIn80064:1 routing_carIn80064:1 emissions_carIn80064:1" vType="default_016" speedFactor="0.89" vaporized="">
        <emissions CO_abs="16616.741481" CO2_abs="587503.380646" HC_abs="89.428482" PMx_abs="11.986059" NOx_abs="249.091873" fuel_abs="252.546733" electricity_abs="0"/>
    </tripinfo>
    <tripinfo id="h9953c2:3" depart="57682.00" departLane="-54169231#2_1" departPos="5.10" departSpeed="0.00" departDelay="0.00" arrival="57833.00" arrivalLane="386687235_1" arrivalPos="80.84" arrivalSpeed="13.89" duration="151.00" routeLength="1535.60" waitingTime="4.00" waitingCount="2" stopTime="0.00" timeLoss="31.63" rerouteNo="1" devices="tripinfo_h9953c2:3 routing_h9953c2:3 emissions_h9953c2:3" vType="default_016" speedFactor="1.05" vaporized="">
        <emissions CO_abs="6061.194077" CO2_abs="381169.616197" HC_abs="36.530121" PMx_abs="6.601928" NOx_abs="154.779565" fuel_abs="163.848907" electricity_abs="0"/>
    </tripinfo>
    <tripinfo id="randUni15030:1" depart="57735.00" departLane="386687232#0_1" departPos="5.10" departSpeed="0.00" departDelay="0.10" arrival="57836.00" arrivalLane="26677539_1" arrivalPos="151.98" arrivalSpeed="6.89" duration="101.00" routeLength="919.89" waitingTime="0.00" waitingCount="0" stopTime="0.00" timeLoss="11.86" rerouteNo="1" devices="tripinfo_randUni15030:1 routing_randUni15030:1 emissions_randUni15030:1" vType="random_016" speedFactor="0.94" vaporized="">
        <emissions CO_abs="3627.158390" CO2_abs="210544.037648" HC_abs="21.397660" PMx_abs="3.447251" NOx_abs="84.675873" fuel_abs="90.504588" electricity_abs="0"/>
    </tripinfo>
    <tripinfo id="carIn73855:1" depart="57743.00" departLane="386687232#0_1" departPos="5.10" departSpeed="0.00" departDelay="0.50" arrival="57844.00" arrivalLane="-315358244_2" arrivalPos="33.95" arrivalSpeed="13.99" duration="101.00" routeLength="1157.39" waitingTime="7.00" waitingCount="1" stopTime="0.00" timeLoss="19.59" rerouteNo="1" devices="tripinfo_carIn73855:1 routing_carIn73855:1 emissions_carIn73855:1" vType="default_016" speedFactor="1.03" vaporized="">
        <emissions CO_abs="2699.440210" CO2_abs="232209.378937" HC_abs="17.709347" PMx_abs="3.677839" NOx_abs="90.800942" fuel_abs="99.816926" electricity_abs="0"/>
    </tripinfo>
    <tripinfo id="h645c1:1" depart="57622.00" departLane="266565295#5_1" departPos="5.10" departSpeed="0.00" departDelay="0.40" arrival="57849.00" arrivalLane="-315358244_1" arrivalPos="33.95" arrivalSpeed="11.75" duration="227.00" routeLength="1910.83" waitingTime="42.00" waitingCount="3" stopTime="0.00" timeLoss="69.24" rerouteNo="1" devices="tripinfo_h645c1:1 routing_h645c1:1 emissions_h645c1:1" vType="default_016" speedFactor="0.88" vaporized="">
        <emissions CO_abs="10203.815236" CO2_abs="469929.135068" HC_abs="57.341926" PMx_abs="7.860537" NOx_abs="189.003699" fuel_abs="202.005685" electricity_abs="0"/>
    </tripinfo>
    <tripinfo id="randUni31145:1" depart="57814.00" departLane="10425609#0_1" departPos="5.10" departSpeed="0.00" departDelay="0.30" arrival="57853.00" arrivalLane="201956810_1" arrivalPos="71.65" arrivalSpeed="13.92" duration="39.00" routeLength="255.78" waitingTime="9.00" waitingCount="1" stopTime="0.00" timeLoss="20.63" rerouteNo="1" devices="tripinfo_randUni31145:1 routing_randUni31145:1 emissions_randUni31145:1" vType="random_016" speedFactor="1.10" vaporized="">
        <emissions CO_abs="3098.810780" CO2_abs="130204.248442" HC_abs="17.207207" PMx_abs="2.680917" NOx_abs="56.027281" fuel_abs="55.969559" electricity_abs="0"/>
    </tripinfo>
    <tripinfo id="randUni2407:1" depart="57820.00" departLane="10425609#0_1" departPos="5.10" departSpeed="0.00" departDelay="0.80" arrival="57854.00" arrivalLane="201956810_1" arrivalPos="71.65" arrivalSpeed="17.69" duration="34.00" routeLength="255.78" waitingTime="6.00" waitingCount="1" stopTime="0.00" timeLoss="18.81" rerouteNo="1" devices="tripinfo_randUni2407:1 routing_randUni2407:1 emissions_randUni2407:1" vType="random_016" speedFactor="1.29" vaporized="">
        <emissions CO_abs="2591.790108" CO2_abs="126018.256517" HC_abs="14.810639" PMx_abs="2.590470" NOx_abs="54.194088" fuel_abs="54.169828" electricity_abs="0"/>
    </tripinfo>
    <tripinfo id="h16072c2:3" depart="57663.00" departLane="315358254#0_1" departPos="5.10" departSpeed="0.00" departDelay="2.50" arrival="57855.00" arrivalLane="386687235_1" arrivalPos="80.84" arrivalSpeed="11.01" duration="192.00" routeLength="1611.92" waitingTime="23.00" waitingCount="4" stopTime="0.00" timeLoss="52.38" rerouteNo="1" devices="tripinfo_h16072c2:3 routing_h16072c2:3 emissions_h16072c2:3" vType="default_016" speedFactor="0.85" vaporized="">
        <emissions CO_abs="7421.955346" CO2_abs="380473.674704" HC_abs="42.606578" PMx_abs="6.284245" NOx_abs="153.005549" fuel_abs="163.551342" electricity_abs="0"/>
    </tripinfo>
    <tripinfo id="50R_frequency3.17" depart="57674.00" departLane="-18809673#6_1" departPos="12.10" departSpeed="0.00" departDelay="0.70" arrival="57861.00" arrivalLane="201956811#0_1" arrivalPos="40.40" arrivalSpeed="11.99" duration="187.00" routeLength="1954.47" waitingTime="14.00" waitingCount="1" stopTime="0.00" timeLoss="42.10" rerouteNo="1" devices="tripinfo_50R_frequency3.17 routing_50R_frequency3.17 emissions_50R_frequency3.17" vType="bus" speedFactor="1.00" vaporized="">
        <emissions CO_abs="3471.214800" CO2_abs="2142425.308490" HC_abs="728.336257" PMx_abs="371.029857" NOx_abs="16718.614017" fuel_abs="913.703902" electricity_abs="0"/>
    </tripinfo>
    <tripinfo id="carIn107842:1" depart="57622.00" departLane="124812856#0_1" departPos="5.10" departSpeed="0.00" departDelay="0.90" arrival="57862.00" arrivalLane="-128361102#1_1" arrivalPos="274.68" arrivalSpeed="16.23" duration="240.00" routeLength="2232.46" waitingTime="45.00" waitingCount="5" stopTime="0.00" timeLoss="103.82" rerouteNo="1" devices="tripinfo_carIn107842:1 routing_carIn107842:1 emissions_carIn107842:1" vType="default_016" speedFactor="1.20" vaporized="">
        <emissions CO_abs="14637.180130" CO2_abs="683624.531185" HC_abs="82.492365" PMx_abs="13.136429" NOx_abs="284.205990" fuel_abs="293.863013" electricity_abs="0"/>
    </tripinfo>
    <tripinfo id="carIn8642:1" depart="57774.00" departLane="-447569998#1_1" departPos="5.10" departSpeed="0.00" departDelay="0.90" arrival="57863.00" arrivalLane="-315358244_1" arrivalPos="33.95" arrivalSpeed="13.15" duration="89.00" routeLength="706.49" waitingTime="13.00" waitingCount="2" stopTime="0.00" timeLoss="29.31" rerouteNo="1" devices="tripinfo_carIn8642:1 routing_carIn8642:1 emissions_carIn8642:1" vType="default_016" speedFactor="1.01" vaporized="">
        <emissions CO_abs="4210.850335" CO2_abs="201519.791484" HC_abs="23.870195" PMx_abs="3.522102" NOx_abs="82.247708" fuel_abs="86.625737" electricity_abs="0"/>
    </tripinfo>
    <tripinfo id="h2831c1:1" depart="57600.00" departLane="201089423#0_1" departPos="5.10" departSpeed="0.00" departDelay="0.00" arrival="57867.00" arrivalLane="-315358244_2" arrivalPos="33.95" arrivalSpeed="12.67" duration="267.00" routeLength="2672.18" waitingTime="26.00" waitingCount="4" stopTime="0.00" timeLoss="66.97" rerouteNo="1" devices="tripinfo_h2831c1:1 routing_h2831c1:1 emissions_h2831c1:1" vType="default_016" speedFactor="0.97" vaporized="">
        <emissions CO_abs="9561.296312" CO2_abs="620331.040125" HC_abs="57.953726" PMx_abs="10.254464" NOx_abs="247.526757" fuel_abs="266.655025" electricity_abs="0"/>
    </tripinfo>
    <tripinfo id="carIn126378:1" depart="57746.00" departLane="386687232#0_1" departPos="5.10" departSpeed="0.00" departDelay="1.80" arrival="57867.00" arrivalLane="-315358244_1" arrivalPos="33.95" arrivalSpeed="12.21" duration="121.00" routeLength="1157.39" waitingTime="14.00" waitingCount="2" stopTime="0.00" timeLoss="32.73" rerouteNo="1" devices="tripinfo_carIn126378:1 routing_carIn126378:1 emissions_carIn126378:1" vType="default_016" speedFactor="0.96" vaporized="">
        <emissions CO_abs="4394.194464" CO2_abs="276826.207365" HC_abs="26.484103" PMx_abs="4.691552" NOx_abs="111.377307" fuel_abs="118.996221" electricity_abs="0"/>
    </tripinfo>
    <tripinfo id="carIn99509:1" depart="57720.00" departLane="-32978638#0_1" departPos="5.10" departSpeed="0.00" departDelay="0.20" arrival="57869.00" arrivalLane="-315358244_1" arrivalPos="33.95" arrivalSpeed="13.07" duration="149.00" routeLength="1785.24" waitingTime="1.00" waitingCount="1" stopTime="0.00" timeLoss="21.13" rerouteNo="1" devices="tripinfo_carIn99509:1 routing_carIn99509:1 emissions_carIn99509:1" vType="default_015" speedFactor="1.02" vaporized="">
        <emissions CO_abs="4821.450131" CO2_abs="382168.117525" HC_abs="30.894651" PMx_abs="6.374826" NOx_abs="152.281323" fuel_abs="164.277553" electricity_abs="0"/>
    </tripinfo>
    <tripinfo id="carIn53503:1" depart="57765.00" departLane="-306240162#1_0" departPos="5.10" departSpeed="0.00" departDelay="4.40" arrival="57887.00" arrivalLane="24634510#6_1" arrivalPos="76.64" arrivalSpeed="14.11" duration="122.00" routeLength="1440.47" waitingTime="8.00" waitingCount="1" stopTime="0.00" timeLoss="26.89" rerouteNo="1" devices="tripinfo_carIn53503:1 routing_carIn53503:1 emissions_carIn53503:1" vType="default_016" speedFactor="1.05" vaporized="">
        <emissions CO_abs="4792.904203" CO2_abs="345822.995889" HC_abs="29.951675" PMx_abs="6.249947" NOx_abs="140.660546" fuel_abs="148.654006" electricity_abs="0"/>
    </tripinfo>
    <tripinfo id="carIn132499:1" depart="57740.00" departLane="272042143_1" departPos="5.10" departSpeed="0.00" departDelay="0.70" arrival="57896.00" arrivalLane="201238729#3_1" arrivalPos="431.02" arrivalSpeed="16.25" duration="156.00" routeLength="2100.26" waitingTime="2.00" waitingCount="2" stopTime="0.00" timeLoss="28.81" rerouteNo="1" devices="tripinfo_carIn132499:1 routing_carIn132499:1 emissions_carIn132499:1" vType="default_016" speedFactor="1.19" vaporized="">
        <emissions CO_abs="5653.243003" CO2_abs="450134.151269" HC_abs="36.093112" PMx_abs="7.959965" NOx_abs="180.374288" fuel_abs="193.492644" electricity_abs="0"/>
    </tripinfo>
    <tripinfo id="carIn70533:1" depart="57812.00" departLane="-447569998#1_1" departPos="5.10" departSpeed="0.00" departDelay="0.10" arrival="57898.00" arrivalLane="-315358244_1" arrivalPos="33.95" arrivalSpeed="12.80" duration="86.00" routeLength="706.49" waitingTime="12.00" waitingCount="1" stopTime="0.00" timeLoss="22.26" rerouteNo="1" devices="tripinfo_carIn70533:1 routing_carIn70533:1 emissions_carIn70533:1" vType="default_016" speedFactor="0.95" vaporized="">
        <emissions CO_abs="4012.647191" CO2_abs="179218.558959" HC_abs="22.416875" PMx_abs="3.011830" NOx_abs="72.345148" fuel_abs="77.039696" electricity_abs="0"/>
    </tripinfo>
    <tripinfo id="randUni23028:1" depart="57884.00" departLane="124812856#0_1" departPos="5.10" departSpeed="0.00" departDelay="0.10" arrival="57901.00" arrivalLane="201956810_1" arrivalPos="71.65" arrivalSpeed="15.22" duration="17.00" routeLength="134.91" waitingTime="0.00" waitingCount="0" stopTime="0.00" timeLoss="7.49" rerouteNo="1" devices="tripinfo_randUni23028:1 routing_randUni23028:1 emissions_randUni23028:1" vType="random_016" speedFactor="1.15" vaporized="">
        <emissions CO_abs="1570.124973" CO2_abs="77161.687921" HC_abs="8.984192" PMx_abs="1.550154" NOx_abs="33.038103" fuel_abs="33.168522" electricity_abs="0"/>
    </tripinfo>
    <tripinfo id="carIn86816:1" depart="57617.00" departLane="128361102#0_1" departPos="5.10" departSpeed="0.00" departDelay="0.80" arrival="57903.00" arrivalLane="201956811#0_1" arrivalPos="40.40" arrivalSpeed="13.46" duration="286.00" routeLength="2067.33" waitingTime="113.00" waitingCount="2" stopTime="0.00" timeLoss="141.25" rerouteNo="1" devices="tripinfo_carIn86816:1 routing_carIn86816:1 emissions_carIn86816:1" vType="default_016" speedFactor="1.04" vaporized="">
        <emissions CO_abs="22540.325663" CO2_abs="731083.196668" HC_abs="119.721593" PMx_abs="14.355042" NOx_abs="306.488806" fuel_abs="314.269029" electricity_abs="0"/>
    </tripinfo>
    <tripinfo id="carIn30817:1" depart="57681.00" departLane="315358244_1" departPos="5.10" departSpeed="0.00" departDelay="0.20" arrival="57904.00" arrivalLane="447569997#1_1" arrivalPos="180.93" arrivalSpeed="6.21" duration="223.00" routeLength="718.04" waitingTime="137.00" waitingCount="2" stopTime="0.00" timeLoss="153.25" rerouteNo="1" devices="tripinfo_carIn30817:1 routing_carIn30817:1 emissions_carIn30817:1" vType="default_016" speedFactor="0.88" vaporized="">
        <emissions CO_abs="24368.371926" CO2_abs="512476.822440" HC_abs="122.924796" PMx_abs="11.305354" NOx_abs="225.275338" fuel_abs="220.302408" electricity_abs="0"/>
    </tripinfo>
    <tripinfo id="h13377c2:3" depart="57806.00" departLane="315358244_1" departPos="5.10" departSpeed="0.00" departDelay="2.60" arrival="57904.00" arrivalLane="447569997#1_2" arrivalPos="180.93" arrivalSpeed="8.88" duration="98.00" routeLength="726.74" waitingTime="16.00" waitingCount="1" stopTime="0.00" timeLoss="36.20" rerouteNo="1" devices="tripinfo_h13377c2:3 routing_h13377c2:3 emissions_h13377c2:3" vType="default_016" speedFactor="1.10" vaporized="">
        <emissions CO_abs="5318.493708" CO2_abs="218480.881176" HC_abs="29.327066" PMx_abs="4.044828" NOx_abs="90.807550" fuel_abs="93.916949" electricity_abs="0"/>
    </tripinfo>
    <tripinfo id="carIn102915:1" depart="57643.00" departLane="128361102#0_1" departPos="5.10" departSpeed="0.00" departDelay="0.40" arrival="57905.00" arrivalLane="201956811#0_1" arrivalPos="40.40" arrivalSpeed="14.51" duration="262.00" routeLength="2067.33" waitingTime="89.00" waitingCount="1" stopTime="0.00" timeLoss="118.50" rerouteNo="1" devices="tripinfo_carIn102915:1 routing_carIn102915:1 emissions_carIn102915:1" vType="default_016" speedFactor="1.06" vaporized="">
        <emissions CO_abs="19694.012191" CO2_abs="683803.815718" HC_abs="105.668388" PMx_abs="13.479439" NOx_abs="287.126926" fuel_abs="293.943863" electricity_abs="0"/>
    </tripinfo>
    <tripinfo id="h5216c1:1" depart="57664.00" departLane="224892339#0_1" departPos="5.10" departSpeed="0.00" departDelay="0.00" arrival="57905.00" arrivalLane="386687235_2" arrivalPos="80.84" arrivalSpeed="14.35" duration="241.00" routeLength="1823.78" waitingTime="91.00" waitingCount="2" stopTime="0.00" timeLoss="124.70" rerouteNo="1" devices="tripinfo_h5216c1:1 routing_h5216c1:1 emissions_h5216c1:1" vType="default_016" speedFactor="1.10" vaporized="">
        <emissions CO_abs="19612.405772" CO2_abs="657931.842726" HC_abs="104.645430" PMx_abs="13.302170" NOx_abs="278.017535" fuel_abs="282.822470" electricity_abs="0"/>
    </tripinfo>
    <tripinfo id="h11737c1:1" depart="57665.00" departLane="272042143_1" departPos="5.10" departSpeed="0.00" departDelay="1.50" arrival="57906.00" arrivalLane="-315358254#1_1" arrivalPos="137.16" arrivalSpeed="14.30" duration="241.00" routeLength="1596.88" waitingTime="108.00" waitingCount="2" stopTime="0.00" timeLoss="133.52" rerouteNo="1" devices="tripinfo_h11737c1:1 routing_h11737c1:1 emissions_h11737c1:1" vType="default_016" speedFactor="1.08" vaporized="">
        <emissions CO_abs="20408.948555" CO2_abs="611217.374301" HC_abs="107.176260" PMx_abs="12.361609" NOx_abs="258.637261" fuel_abs="262.743357" electricity_abs="0"/>
    </tripinfo>
    <tripinfo id="randUni33724:1" depart="57646.00" departLane="128361102#0_1" departPos="5.10" departSpeed="0.00" departDelay="1.20" arrival="57907.00" arrivalLane="201956811#0_1" arrivalPos="40.40" arrivalSpeed="15.25" duration="261.00" routeLength="2067.33" waitingTime="88.00" waitingCount="1" stopTime="0.00" timeLoss="125.15" rerouteNo="1" devices="tripinfo_randUni33724:1 routing_randUni33724:1 emissions_randUni33724:1" vType="random_016" speedFactor="1.12" vaporized="">