<?xml version="1.0" encoding="UTF-8"?>

<!-- generated on 2021-10-26 21:37:55 by Eclipse SUMO sumo Version 1.10.0
<configuration xmlns:xsi="http://www.w3.org/2001/XMLSchema-instance" xsi:noNamespaceSchemaLocation="http://sumo.dlr.de/xsd/sumoConfiguration.xsd">

    <input>
        <net-file value="/Users/behradkoohy/sumo-scratchpad/RESCO/environments/ingolstadt21/ingolstadt21.net.xml"/>
        <route-files value="/Users/behradkoohy/sumo-scratchpad/RESCO/environments/ingolstadt21/ingolstadt21.rou.xml"/>
    </input>

    <output>
        <tripinfo-output value="/Users/behradkoohy/sumo-scratchpad/RESCO/logs/MPLight-tr0-ingolstadt21-21-mplight_full-pressure/tripinfo_62.xml"/>
        <tripinfo-output.write-unfinished value="true"/>
    </output>

    <time>
        <begin value="57600"/>
        <end value="61200"/>
    </time>

    <processing>
        <time-to-teleport value="-1"/>
    </processing>

    <report>
        <no-warnings value="true"/>
        <no-step-log value="true"/>
    </report>

    <emissions>
        <device.emissions.probability value="1"/>
    </emissions>

    <traci_server>
        <remote-port value="65183"/>
    </traci_server>

    <random_number>
        <random value="true"/>
    </random_number>

</configuration>
-->

<tripinfos xmlns:xsi="http://www.w3.org/2001/XMLSchema-instance" xsi:noNamespaceSchemaLocation="http://sumo.dlr.de/xsd/tripinfo_file.xsd">
    <tripinfo id="h15454c2:3" depart="57612.00" departLane="24608844_1" departPos="5.10" departSpeed="0.00" departDelay="0.50" arrival="57656.00" arrivalLane="32978638#0_1" arrivalPos="49.29" arrivalSpeed="14.40" duration="44.00" routeLength="354.79" waitingTime="2.00" waitingCount="1" stopTime="0.00" timeLoss="13.17" rerouteNo="1" devices="tripinfo_h15454c2:3 routing_h15454c2:3 emissions_h15454c2:3" vType="default_016" speedFactor="1.11" vaporized="">
        <emissions CO_abs="2345.569701" CO2_abs="121322.853641" HC_abs="13.491808" PMx_abs="2.163163" NOx_abs="50.088659" fuel_abs="52.151844" electricity_abs="0"/>
    </tripinfo>
    <tripinfo id="carIn53971:1" depart="57640.00" departLane="272042143_1" departPos="5.10" departSpeed="0.00" departDelay="0.80" arrival="57692.00" arrivalLane="24634414#1_1" arrivalPos="162.19" arrivalSpeed="8.36" duration="52.00" routeLength="493.04" waitingTime="0.00" waitingCount="0" stopTime="0.00" timeLoss="7.95" rerouteNo="1" devices="tripinfo_carIn53971:1 routing_carIn53971:1 emissions_carIn53971:1" vType="default_016" speedFactor="1.05" vaporized="">
        <emissions CO_abs="2365.743012" CO2_abs="138022.459390" HC_abs="14.007706" PMx_abs="2.441385" NOx_abs="56.689197" fuel_abs="59.330130" electricity_abs="0"/>
    </tripinfo>
    <tripinfo id="h7800c1:5" depart="57696.00" departLane="-447569998#1_1" departPos="5.10" departSpeed="0.00" departDelay="0.00" arrival="57724.00" arrivalLane="-447569998#1_1" arrivalPos="180.76" arrivalSpeed="6.19" duration="28.00" routeLength="175.66" waitingTime="0.00" waitingCount="0" stopTime="0.00" timeLoss="3.38" rerouteNo="1" devices="tripinfo_h7800c1:5 routing_h7800c1:5 emissions_h7800c1:5" vType="default_016" speedFactor="0.86" vaporized="">
        <emissions CO_abs="1171.048289" CO2_abs="45386.476353" HC_abs="6.369132" PMx_abs="0.746699" NOx_abs="18.560640" fuel_abs="19.510156" electricity_abs="0"/>
    </tripinfo>
    <tripinfo id="carIn60260:1" depart="57606.00" departLane="315358254#0_1" departPos="5.10" departSpeed="0.00" departDelay="0.90" arrival="57732.00" arrivalLane="399835085#1_1" arrivalPos="212.23" arrivalSpeed="7.99" duration="126.00" routeLength="430.98" waitingTime="71.00" waitingCount="1" stopTime="0.00" timeLoss="81.39" rerouteNo="1" devices="tripinfo_carIn60260:1 routing_carIn60260:1 emissions_carIn60260:1" vType="default_016" speedFactor="1.04" vaporized="">
        <emissions CO_abs="13176.480693" CO2_abs="289953.303513" HC_abs="66.779011" PMx_abs="6.369335" NOx_abs="127.436052" fuel_abs="124.643990" electricity_abs="0"/>
    </tripinfo>
    <tripinfo id="carIn80064:1" depart="57603.00" departLane="128361109#1_1" departPos="5.10" departSpeed="0.00" departDelay="0.40" arrival="57737.00" arrivalLane="-315358254#1_1" arrivalPos="137.16" arrivalSpeed="13.10" duration="134.00" routeLength="1587.97" waitingTime="16.00" waitingCount="1" stopTime="0.00" timeLoss="44.35" rerouteNo="1" devices="tripinfo_carIn80064:1 routing_carIn80064:1 emissions_carIn80064:1" vType="default_016" speedFactor="0.99" vaporized="">
        <emissions CO_abs="7937.747944" CO2_abs="472383.214127" HC_abs="47.439592" PMx_abs="9.353667" NOx_abs="196.348619" fuel_abs="203.056710" electricity_abs="0"/>
    </tripinfo>
    <tripinfo id="h4538c1:1" depart="57701.00" departLane="-10427692#1_1" departPos="5.10" departSpeed="0.00" departDelay="0.00" arrival="57743.00" arrivalLane="-128361102#1_1" arrivalPos="274.68" arrivalSpeed="14.54" duration="42.00" routeLength="440.74" waitingTime="3.00" waitingCount="1" stopTime="0.00" timeLoss="13.92" rerouteNo="1" devices="tripinfo_h4538c1:1 routing_h4538c1:1 emissions_h4538c1:1" vType="default_016" speedFactor="1.13" vaporized="">
        <emissions CO_abs="1941.315087" CO2_abs="121057.050772" HC_abs="11.584246" PMx_abs="2.138668" NOx_abs="48.985724" fuel_abs="52.037349" electricity_abs="0"/>
    </tripinfo>
    <tripinfo id="h5979c1:5" depart="57669.00" departLane="399835085#1_1" departPos="5.10" departSpeed="0.00" departDelay="0.00" arrival="57753.00" arrivalLane="-315358254#1_1" arrivalPos="137.16" arrivalSpeed="13.35" duration="84.00" routeLength="659.33" waitingTime="0.00" waitingCount="0" stopTime="0.00" timeLoss="8.93" rerouteNo="1" devices="tripinfo_h5979c1:5 routing_h5979c1:5 emissions_h5979c1:5" vType="default_016" speedFactor="0.97" vaporized="">
        <emissions CO_abs="3332.594789" CO2_abs="165698.611791" HC_abs="18.982979" PMx_abs="2.652047" NOx_abs="66.727883" fuel_abs="71.227758" electricity_abs="0"/>
    </tripinfo>
    <tripinfo id="h3326c1:2" depart="57656.00" departLane="22716069#0_1" departPos="5.10" departSpeed="0.00" departDelay="0.00" arrival="57763.00" arrivalLane="24634517#13_1" arrivalPos="111.62" arrivalSpeed="13.67" duration="107.00" routeLength="1312.81" waitingTime="0.00" waitingCount="0" stopTime="0.00" timeLoss="15.61" rerouteNo="1" devices="tripinfo_h3326c1:2 routing_h3326c1:2 emissions_h3326c1:2" vType="default_016" speedFactor="1.06" vaporized="">
        <emissions CO_abs="4303.672951" CO2_abs="307849.406016" HC_abs="26.766293" PMx_abs="5.517306" NOx_abs="125.541638" fuel_abs="132.330869" electricity_abs="0"/>
    </tripinfo>
    <tripinfo id="carIn27009:1" depart="57673.00" departLane="-447569998#1_1" departPos="5.10" departSpeed="0.00" departDelay="0.50" arrival="57763.00" arrivalLane="-26677539_1" arrivalPos="152.75" arrivalSpeed="8.69" duration="90.00" routeLength="699.63" waitingTime="0.00" waitingCount="0" stopTime="0.00" timeLoss="10.64" rerouteNo="1" devices="tripinfo_carIn27009:1 routing_carIn27009:1 emissions_carIn27009:1" vType="default_015" speedFactor="1.06" vaporized="">
        <emissions CO_abs="3436.859307" CO2_abs="172764.528116" HC_abs="19.621902" PMx_abs="2.781904" NOx_abs="69.855345" fuel_abs="74.265060" electricity_abs="0"/>
    </tripinfo>
    <tripinfo id="carIn30817:1" depart="57681.00" departLane="315358244_1" departPos="5.10" departSpeed="0.00" departDelay="0.20" arrival="57776.00" arrivalLane="447569997#1_1" arrivalPos="180.93" arrivalSpeed="8.37" duration="95.00" routeLength="718.04" waitingTime="20.00" waitingCount="1" stopTime="0.00" timeLoss="36.13" rerouteNo="1" devices="tripinfo_carIn30817:1 routing_carIn30817:1 emissions_carIn30817:1" vType="default_016" speedFactor="1.05" vaporized="">
        <emissions CO_abs="6011.491921" CO2_abs="235950.088520" HC_abs="32.887651" PMx_abs="4.388971" NOx_abs="98.157120" fuel_abs="101.426525" electricity_abs="0"/>
    </tripinfo>
    <tripinfo id="h7181c1:1" depart="57660.00" departLane="315358254#0_1" departPos="5.10" departSpeed="0.00" departDelay="0.10" arrival="57781.00" arrivalLane="306240162#0_0" arrivalPos="220.43" arrivalSpeed="14.88" duration="121.00" routeLength="932.35" waitingTime="43.00" waitingCount="3" stopTime="0.00" timeLoss="66.97" rerouteNo="1" devices="tripinfo_h7181c1:1 routing_h7181c1:1 emissions_h7181c1:1" vType="default_016" speedFactor="0.95" vaporized="">
        <emissions CO_abs="10204.849221" CO2_abs="386147.466078" HC_abs="55.627509" PMx_abs="8.138271" NOx_abs="165.801200" fuel_abs="165.989969" electricity_abs="0"/>
    </tripinfo>
    <tripinfo id="carIn22761:1" depart="57616.00" departLane="-306240162#1_0" departPos="5.10" departSpeed="0.00" departDelay="2.10" arrival="57788.00" arrivalLane="399835085#1_1" arrivalPos="212.23" arrivalSpeed="7.75" duration="172.00" routeLength="1093.26" waitingTime="63.00" waitingCount="2" stopTime="0.00" timeLoss="88.89" rerouteNo="1" devices="tripinfo_carIn22761:1 routing_carIn22761:1 emissions_carIn22761:1" vType="default_016" speedFactor="0.95" vaporized="">
        <emissions CO_abs="14720.501909" CO2_abs="477130.962613" HC_abs="78.238761" PMx_abs="9.761161" NOx_abs="203.316087" fuel_abs="205.102504" electricity_abs="0"/>
    </tripinfo>
    <tripinfo id="h11737c1:1" depart="57665.00" departLane="272042143_1" departPos="5.10" departSpeed="0.00" departDelay="1.50" arrival="57788.00" arrivalLane="-315358254#1_1" arrivalPos="137.16" arrivalSpeed="13.58" duration="123.00" routeLength="1596.88" waitingTime="0.00" waitingCount="0" stopTime="0.00" timeLoss="14.25" rerouteNo="1" devices="tripinfo_h11737c1:1 routing_h11737c1:1 emissions_h11737c1:1" vType="default_016" speedFactor="1.07" vaporized="">
        <emissions CO_abs="3710.750063" CO2_abs="322426.831776" HC_abs="24.431803" PMx_abs="5.354506" NOx_abs="127.706887" fuel_abs="138.597148" electricity_abs="0"/>
    </tripinfo>
    <tripinfo id="carIn107282:1" depart="57749.00" departLane="-447569998#1_1" departPos="5.10" departSpeed="0.00" departDelay="0.00" arrival="57799.00" arrivalLane="315358242#0_1" arrivalPos="165.37" arrivalSpeed="12.68" duration="50.00" routeLength="448.50" waitingTime="0.00" waitingCount="0" stopTime="0.00" timeLoss="4.89" rerouteNo="1" devices="tripinfo_carIn107282:1 routing_carIn107282:1 emissions_carIn107282:1" vType="default_016" speedFactor="0.93" vaporized="">
        <emissions CO_abs="1903.900138" CO2_abs="108064.701724" HC_abs="11.172476" PMx_abs="1.768338" NOx_abs="43.513530" fuel_abs="46.452790" electricity_abs="0"/>
    </tripinfo>
    <tripinfo id="h3568c1:3" depart="57656.00" departLane="266565295#5_1" departPos="5.10" departSpeed="0.00" departDelay="0.80" arrival="57803.00" arrivalLane="-24634415_1" arrivalPos="62.03" arrivalSpeed="14.66" duration="147.00" routeLength="807.40" waitingTime="63.00" waitingCount="2" stopTime="0.00" timeLoss="88.47" rerouteNo="1" devices="tripinfo_h3568c1:3 routing_h3568c1:3 emissions_h3568c1:3" vType="default_016" speedFactor="1.10" vaporized="">
        <emissions CO_abs="14124.117610" CO2_abs="435839.461614" HC_abs="74.547030" PMx_abs="9.177611" NOx_abs="188.382171" fuel_abs="187.352756" electricity_abs="0"/>
    </tripinfo>
    <tripinfo id="carIn129809:1" depart="57729.00" departLane="-447569998#1_1" departPos="5.10" departSpeed="0.00" departDelay="1.00" arrival="57803.00" arrivalLane="-315358244_1" arrivalPos="33.95" arrivalSpeed="14.65" duration="74.00" routeLength="706.49" waitingTime="5.00" waitingCount="1" stopTime="0.00" timeLoss="20.47" rerouteNo="1" devices="tripinfo_carIn129809:1 routing_carIn129809:1 emissions_carIn129809:1" vType="default_015" speedFactor="1.13" vaporized="">
        <emissions CO_abs="2851.734673" CO2_abs="173921.022747" HC_abs="16.989440" PMx_abs="2.973973" NOx_abs="70.009905" fuel_abs="74.761546" electricity_abs="0"/>
    </tripinfo>
    <tripinfo id="carIn126288:1" depart="57674.00" departLane="272042143_1" departPos="5.10" departSpeed="0.00" departDelay="0.00" arrival="57814.00" arrivalLane="-315358254#1_1" arrivalPos="137.16" arrivalSpeed="14.16" duration="140.00" routeLength="1596.88" waitingTime="16.00" waitingCount="1" stopTime="0.00" timeLoss="32.89" rerouteNo="1" devices="tripinfo_carIn126288:1 routing_carIn126288:1 emissions_carIn126288:1" vType="default_016" speedFactor="1.09" vaporized="">
        <emissions CO_abs="6136.948366" CO2_abs="388685.106116" HC_abs="36.842745" PMx_abs="6.771684" NOx_abs="155.985836" fuel_abs="167.079576" electricity_abs="0"/>
    </tripinfo>
    <tripinfo id="carIn12365:1" depart="57713.00" departLane="315358244_1" departPos="5.10" departSpeed="0.00" departDelay="0.50" arrival="57833.00" arrivalLane="447569997#1_1" arrivalPos="180.93" arrivalSpeed="7.35" duration="120.00" routeLength="718.04" waitingTime="43.00" waitingCount="2" stopTime="0.00" timeLoss="59.02" rerouteNo="1" devices="tripinfo_carIn12365:1 routing_carIn12365:1 emissions_carIn12365:1" vType="default_016" speedFactor="1.01" vaporized="">
        <emissions CO_abs="9836.077601" CO2_abs="295470.265367" HC_abs="51.711666" PMx_abs="5.967279" NOx_abs="126.131335" fuel_abs="127.013363" electricity_abs="0"/>
    </tripinfo>
    <tripinfo id="h17549c1:1" depart="57680.00" departLane="-447569998#1_1" departPos="5.10" departSpeed="0.00" departDelay="0.00" arrival="57844.00" arrivalLane="-315358254#1_1" arrivalPos="137.16" arrivalSpeed="12.77" duration="164.00" routeLength="1746.60" waitingTime="6.00" waitingCount="1" stopTime="0.00" timeLoss="21.30" rerouteNo="1" devices="tripinfo_h17549c1:1 routing_h17549c1:1 emissions_h17549c1:1" vType="default_016" speedFactor="0.96" vaporized="">
        <emissions CO_abs="4973.325152" CO2_abs="354669.056350" HC_abs="30.867190" PMx_abs="5.512195" NOx_abs="139.214536" fuel_abs="152.457892" electricity_abs="0"/>
    </tripinfo>
    <tripinfo id="carIn121703:1" depart="57647.00" departLane="386687232#0_1" departPos="5.10" departSpeed="0.00" departDelay="0.30" arrival="57847.00" arrivalLane="-315358244_1" arrivalPos="33.95" arrivalSpeed="13.08" duration="200.00" routeLength="1157.39" waitingTime="96.00" waitingCount="2" stopTime="0.00" timeLoss="113.38" rerouteNo="1" devices="tripinfo_carIn121703:1 routing_carIn121703:1 emissions_carIn121703:1" vType="default_016" speedFactor="0.98" vaporized="">
        <emissions CO_abs="18418.596779" CO2_abs="496369.744709" HC_abs="95.500100" PMx_abs="10.338661" NOx_abs="213.015313" fuel_abs="213.374956" electricity_abs="0"/>
    </tripinfo>
    <tripinfo id="carIn12152:1" depart="57647.00" departLane="24599188#0.94_1" departPos="5.10" departSpeed="0.00" departDelay="0.50" arrival="57849.00" arrivalLane="-315358254#1_1" arrivalPos="137.16" arrivalSpeed="13.98" duration="202.00" routeLength="2034.31" waitingTime="24.00" waitingCount="1" stopTime="0.00" timeLoss="46.11" rerouteNo="1" devices="tripinfo_carIn12152:1 routing_carIn12152:1 emissions_carIn12152:1" vType="default_016" speedFactor="1.01" vaporized="">
        <emissions CO_abs="8947.650227" CO2_abs="496175.397937" HC_abs="52.330987" PMx_abs="8.704687" NOx_abs="201.303659" fuel_abs="213.285913" electricity_abs="0"/>
    </tripinfo>
    <tripinfo id="h3688c1:1" depart="57625.00" departLane="201201950#1_1" departPos="5.10" departSpeed="0.00" departDelay="0.00" arrival="57854.00" arrivalLane="32978638#0_1" arrivalPos="49.29" arrivalSpeed="14.99" duration="229.00" routeLength="1089.75" waitingTime="138.00" waitingCount="2" stopTime="0.00" timeLoss="155.81" rerouteNo="1" devices="tripinfo_h3688c1:1 routing_h3688c1:1 emissions_h3688c1:1" vType="default_016" speedFactor="1.10" vaporized="">
        <emissions CO_abs="25749.383594" CO2_abs="654324.962091" HC_abs="132.518069" PMx_abs="14.185956" NOx_abs="283.824880" fuel_abs="281.275763" electricity_abs="0"/>
    </tripinfo>
    <tripinfo id="h645c1:1" depart="57622.00" departLane="266565295#5_1" departPos="5.10" departSpeed="0.00" departDelay="0.40" arrival="57866.00" arrivalLane="-315358244_1" arrivalPos="33.95" arrivalSpeed="13.33" duration="244.00" routeLength="1910.83" waitingTime="84.00" waitingCount="2" stopTime="0.00" timeLoss="105.60" rerouteNo="1" devices="tripinfo_h645c1:1 routing_h645c1:1 emissions_h645c1:1" vType="default_016" speedFactor="1.01" vaporized="">
        <emissions CO_abs="17778.419400" CO2_abs="611038.427136" HC_abs="95.229109" PMx_abs="11.692230" NOx_abs="254.063902" fuel_abs="262.665240" electricity_abs="0"/>
    </tripinfo>
    <tripinfo id="h2831c1:1" depart="57600.00" departLane="201089423#0_1" departPos="5.10" departSpeed="0.00" departDelay="0.00" arrival="57867.00" arrivalLane="-315358244_1" arrivalPos="33.95" arrivalSpeed="12.75" duration="267.00" routeLength="2672.18" waitingTime="25.00" waitingCount="4" stopTime="0.00" timeLoss="66.44" rerouteNo="1" devices="tripinfo_h2831c1:1 routing_h2831c1:1 emissions_h2831c1:1" vType="default_016" speedFactor="0.97" vaporized="">
        <emissions CO_abs="10254.584872" CO2_abs="637601.470166" HC_abs="61.563387" PMx_abs="10.840454" NOx_abs="256.627391" fuel_abs="274.078759" electricity_abs="0"/>
    </tripinfo>
    <tripinfo id="h3154c1:1" depart="57658.00" departLane="24634507_1" departPos="5.10" departSpeed="0.00" departDelay="0.00" arrival="57867.00" arrivalLane="-266565295#5_1" arrivalPos="172.76" arrivalSpeed="13.23" duration="209.00" routeLength="1206.22" waitingTime="102.00" waitingCount="1" stopTime="0.00" timeLoss="120.76" rerouteNo="1" devices="tripinfo_h3154c1:1 routing_h3154c1:1 emissions_h3154c1:1" vType="default_016" speedFactor="1.01" vaporized="">
        <emissions CO_abs="20343.727093" CO2_abs="559921.613012" HC_abs="105.729984" PMx_abs="11.730615" NOx_abs="240.643374" fuel_abs="240.693585" electricity_abs="0"/>
    </tripinfo>
    <tripinfo id="carIn24709:1" depart="57753.00" departLane="266565295#5_1" departPos="5.10" departSpeed="0.00" departDelay="2.50" arrival="57881.00" arrivalLane="-24634506#2_1" arrivalPos="71.32" arrivalSpeed="14.07" duration="128.00" routeLength="1450.12" waitingTime="0.00" waitingCount="0" stopTime="0.00" timeLoss="13.71" rerouteNo="1" devices="tripinfo_carIn24709:1 routing_carIn24709:1 emissions_carIn24709:1" vType="default_016" speedFactor="1.04" vaporized="">
        <emissions CO_abs="3782.850014" CO2_abs="299615.501957" HC_abs="24.154078" PMx_abs="4.707200" NOx_abs="117.406628" fuel_abs="128.792205" electricity_abs="0"/>
    </tripinfo>
    <tripinfo id="carIn118538:1" depart="57683.00" departLane="-447569998#1_1" departPos="5.10" departSpeed="0.00" departDelay="1.00" arrival="57885.00" arrivalLane="399835085#1_1" arrivalPos="212.23" arrivalSpeed="7.62" duration="202.00" routeLength="1907.17" waitingTime="15.00" waitingCount="3" stopTime="0.00" timeLoss="44.51" rerouteNo="1" devices="tripinfo_carIn118538:1 routing_carIn118538:1 emissions_carIn118538:1" vType="default_016" speedFactor="1.04" vaporized="">
        <emissions CO_abs="7355.348879" CO2_abs="408528.864407" HC_abs="43.023446" PMx_abs="7.142206" NOx_abs="166.324477" fuel_abs="175.610134" electricity_abs="0"/>
    </tripinfo>
    <tripinfo id="h317c2:1" depart="57707.00" departLane="-32978638#0_1" departPos="5.10" departSpeed="0.00" departDelay="0.10" arrival="57885.00" arrivalLane="-266565295#5_1" arrivalPos="172.76" arrivalSpeed="12.44" duration="178.00" routeLength="370.53" waitingTime="140.00" waitingCount="1" stopTime="0.00" timeLoss="150.05" rerouteNo="1" devices="tripinfo_h317c2:1 routing_h317c2:1 emissions_h317c2:1" vType="default_016" speedFactor="0.99" vaporized="">
        <emissions CO_abs="24237.736265" CO2_abs="468899.066689" HC_abs="121.380362" PMx_abs="10.986256" NOx_abs="209.847282" fuel_abs="201.570022" electricity_abs="0"/>
    </tripinfo>
    <tripinfo id="h330c1:1" depart="57736.00" departLane="-32978638#0_1" departPos="5.10" departSpeed="0.00" departDelay="0.20" arrival="57888.00" arrivalLane="-266565295#5_1" arrivalPos="172.76" arrivalSpeed="12.98" duration="152.00" routeLength="370.53" waitingTime="113.00" waitingCount="1" stopTime="0.00" timeLoss="124.06" rerouteNo="1" devices="tripinfo_h330c1:1 routing_h330c1:1 emissions_h330c1:1" vType="default_016" speedFactor="0.98" vaporized="">
        <emissions CO_abs="20130.493820" CO2_abs="408177.402119" HC_abs="101.253132" PMx_abs="9.402587" NOx_abs="181.630295" fuel_abs="175.466450" electricity_abs="0"/>
    </tripinfo>
    <tripinfo id="randUni15030:1" depart="57735.00" departLane="386687232#0_1" departPos="5.10" departSpeed="0.00" departDelay="0.10" arrival="57889.00" arrivalLane="26677539_1" arrivalPos="151.98" arrivalSpeed="7.76" duration="154.00" routeLength="919.89" waitingTime="56.00" waitingCount="1" stopTime="0.00" timeLoss="70.36" rerouteNo="1" devices="tripinfo_randUni15030:1 routing_randUni15030:1 emissions_randUni15030:1" vType="random_016" speedFactor="1.00" vaporized="">
        <emissions CO_abs="11820.018420" CO2_abs="340406.137561" HC_abs="61.739396" PMx_abs="6.743668" NOx_abs="144.369671" fuel_abs="146.330504" electricity_abs="0"/>
    </tripinfo>
    <tripinfo id="50R_frequency3.17" depart="57674.00" departLane="-18809673#6_1" departPos="12.10" departSpeed="0.00" departDelay="0.70" arrival="57894.00" arrivalLane="201956811#0_1" arrivalPos="40.40" arrivalSpeed="11.76" duration="220.00" routeLength="1954.47" waitingTime="44.00" waitingCount="2" stopTime="0.00" timeLoss="75.22" rerouteNo="1" devices="tripinfo_50R_frequency3.17 routing_50R_frequency3.17 emissions_50R_frequency3.17" vType="bus" speedFactor="1.00" vaporized="">
        <emissions CO_abs="3997.225497" CO2_abs="2277829.206491" HC_abs="854.208768" PMx_abs="423.243979" NOx_abs="18291.495032" fuel_abs="971.390646" electricity_abs="0"/>
    </tripinfo>
    <tripinfo id="randUni23028:1" depart="57884.00" departLane="124812856#0_1" departPos="5.10" departSpeed="0.00" departDelay="0.10" arrival="57899.00" arrivalLane="201956810_1" arrivalPos="71.65" arrivalSpeed="14.12" duration="15.00" routeLength="134.91" waitingTime="0.00" waitingCount="0" stopTime="0.00" timeLoss="4.36" rerouteNo="1" devices="tripinfo_randUni23028:1 routing_randUni23028:1 emissions_randUni23028:1" vType="random_016" speedFactor="1.06" vaporized="">
        <emissions CO_abs="1188.385243" CO2_abs="67175.506088" HC_abs="7.001325" PMx_abs="1.275508" NOx_abs="28.175454" fuel_abs="28.875860" electricity_abs="0"/>
    </tripinfo>
    <tripinfo id="carIn126378:1" depart="57746.00" departLane="386687232#0_1" departPos="5.10" departSpeed="0.00" departDelay="1.80" arrival="57902.00" arrivalLane="-315358244_2" arrivalPos="33.95" arrivalSpeed="16.98" duration="156.00" routeLength="1157.39" waitingTime="55.00" waitingCount="3" stopTime="0.00" timeLoss="90.46" rerouteNo="1" devices="tripinfo_carIn126378:1 routing_carIn126378:1 emissions_carIn126378:1" vType="default_016" speedFactor="1.28" vaporized="">
        <emissions CO_abs="12835.345522" CO2_abs="474180.095766" HC_abs="69.600962" PMx_abs="9.746329" NOx_abs="201.578945" fuel_abs="203.832490" electricity_abs="0"/>
    </tripinfo>
    <tripinfo id="carIn73855:1" depart="57743.00" departLane="386687232#0_1" departPos="5.10" departSpeed="0.00" departDelay="0.50" arrival="57903.00" arrivalLane="-315358244_1" arrivalPos="33.95" arrivalSpeed="14.23" duration="160.00" routeLength="1157.39" waitingTime="59.00" waitingCount="3" stopTime="0.00" timeLoss="83.32" rerouteNo="1" devices="tripinfo_carIn73855:1 routing_carIn73855:1 emissions_carIn73855:1" vType="default_016" speedFactor="1.11" vaporized="">
        <emissions CO_abs="12064.533974" CO2_abs="425553.715730" HC_abs="64.883250" PMx_abs="8.482016" NOx_abs="179.381848" fuel_abs="182.930660" electricity_abs="0"/>
    </tripinfo>
    <tripinfo id="carIn132499:1" depart="57740.00" departLane="272042143_1" departPos="5.10" departSpeed="0.00" departDelay="0.70" arrival="57908.00" arrivalLane="201238729#3_1" arrivalPos="431.02" arrivalSpeed="15.11" duration="168.00" routeLength="2100.26" waitingTime="13.00" waitingCount="1" stopTime="0.00" timeLoss="32.90" rerouteNo="1" devices="tripinfo_carIn132499:1 routing_carIn132499:1 emissions_carIn132499:1" vType="default_016" speedFactor="1.12" vaporized="">
        <emissions CO_abs="5922.648855" CO2_abs="433245.222409" HC_abs="36.909271" PMx_abs="7.296802" NOx_abs="171.252410" fuel_abs="186.233826" electricity_abs="0"/>
    </tripinfo>
    <tripinfo id="carIn3969:1" depart="57629.00" departLane="124812856#0_1" departPos="5.10" departSpeed="0.00" departDelay="5.30" arrival="57910.00" arrivalLane="-128361102#1_1" arrivalPos="274.68" arrivalSpeed="15.16" duration="281.00" routeLength="2232.46" waitingTime="87.00" waitingCount="3" stopTime="0.00" timeLoss="138.87" rerouteNo="1" devices="tripinfo_carIn3969:1 routing_carIn3969:1 emissions_carIn3969:1" vType="default_016" speedFactor="1.14" vaporized="">
        <emissions CO_abs="21650.765784" CO2_abs="792744.137114" HC_abs="117.105398" PMx_abs="15.782481" NOx_abs="333.485709" fuel_abs="340.772355" electricity_abs="0"/>
    </tripinfo>
    <tripinfo id="h9563c2:5" depart="57631.00" departLane="315358244_1" departPos="5.10" departSpeed="0.00" departDelay="0.70" arrival="57911.00" arrivalLane="386687235_1" arrivalPos="80.84" arrivalSpeed="14.74" duration="280.00" routeLength="1186.14" waitingTime="175.00" waitingCount="2" stopTime="0.00" timeLoss="199.71" rerouteNo="1" devices="tripinfo_h9563c2:5 routing_h9563c2:5 emissions_h9563c2:5" vType="default_016" speedFactor="1.08" vaporized="">
        <emissions CO_abs="32492.181616" CO2_abs="750225.403397" HC_abs="165.503062" PMx_abs="16.607071" NOx_abs="328.158285" fuel_abs="322.502624" electricity_abs="0"/>
    </tripinfo>
    <tripinfo id="carIn12858:1" depart="57661.00" departLane="128361109#1_1" departPos="5.10" departSpeed="0.00" departDelay="0.90" arrival="57911.00" arrivalLane="399835085#1_1" arrivalPos="212.23" arrivalSpeed="8.25" duration="250.00" routeLength="1738.12" waitingTime="108.00" waitingCount="2" stopTime="0.00" timeLoss="135.88" rerouteNo="1" devices="tripinfo_carIn12858:1 routing_carIn12858:1 emissions_carIn12858:1" vType="default_016" speedFactor="1.01" vaporized="">
        <emissions CO_abs="24267.198962" CO2_abs="751723.859792" HC_abs="128.339022" PMx_abs="15.995216" NOx_abs="322.975487" fuel_abs="323.140856" electricity_abs="0"/>
    </tripinfo>
    <tripinfo id="carIn107084:1" depart="57601.00" departLane="124812856#0_1" departPos="5.10" departSpeed="0.00" departDelay="0.70" arrival="57912.00" arrivalLane="-128361102#1_1" arrivalPos="274.68" arrivalSpeed="15.40" duration="311.00" routeLength="2232.46" waitingTime="134.00" waitingCount="1" stopTime="0.00" timeLoss="168.87" rerouteNo="1" devices="tripinfo_carIn107084:1 routing_carIn107084:1 emissions_carIn107084:1" vType="default_016" speedFactor="1.15" vaporized="">
        <emissions CO_abs="28469.985063" CO2_abs="885903.084929" HC_abs="150.288849" PMx_abs="18.220135" NOx_abs="376.629341" fuel_abs="380.820799" electricity_abs="0"/>
    </tripinfo>
    <tripinfo id="h17600c1:1" depart="57662.00" departLane="272042143_1" departPos="5.10" departSpeed="0.00" departDelay="0.30" arrival="57914.00" arrivalLane="201238729#3_1" arrivalPos="431.02" arrivalSpeed="12.12" duration="252.00" routeLength="2100.26" waitingTime="74.00" waitingCount="1" stopTime="0.00" timeLoss="92.43" rerouteNo="1" devices="tripinfo_h17600c1:1 routing_h17600c1:1 emissions_h17600c1:1" vType="default_016" speedFactor="0.95" vaporized="">
        <emissions CO_abs="16316.637464" CO2_abs="596606.672974" HC_abs="88.196879" PMx_abs="10.889299" NOx_abs="244.660978" fuel_abs="256.461425" electricity_abs="0"/>
    </tripinfo>
    <tripinfo id="randUni3548:1" depart="57726.00" departLane="-447569998#1_1" departPos="5.10" departSpeed="0.00" departDelay="0.00" arrival="57914.00" arrivalLane="-315358254#1_1" arrivalPos="137.16" arrivalSpeed="12.61" duration="188.00" routeLength="1746.60" waitingTime="18.00" waitingCount="2" stopTime="0.00" timeLoss="39.77" rerouteNo="1" devices="tripinfo_randUni3548:1 routing_randUni3548:1 emissions_randUni3548:1" vType="random_016" speedFactor="0.92" vaporized="">
        <emissions CO_abs="6633.613002" CO2_abs="408768.499636" HC_abs="39.687477" PMx_abs="6.571971" NOx_abs="162.625420" fuel_abs="175.713415" electricity_abs="0"/>
    </tripinfo>
    <tripinfo id="carIn53503:1" depart="57765.00" departLane="-306240162#1_0" departPos="5.10" departSpeed="0.00" departDelay="4.40" arrival="57928.00" arrivalLane="24634510#6_1" arrivalPos="76.64" arrivalSpeed="14.04" duration="163.00" routeLength="1440.47" waitingTime="47.00" waitingCount="1" stopTime="0.00" timeLoss="65.50" rerouteNo="1" devices="tripinfo_carIn53503:1 routing_carIn53503:1 emissions_carIn53503:1" vType="default_016" speedFactor="1.02" vaporized="">
        <emissions CO_abs="11767.646551" CO2_abs="469041.495923" HC_abs="64.518736" PMx_abs="9.008619" NOx_abs="194.920964" fuel_abs="201.623805" electricity_abs="0"/>
    </tripinfo>
    <tripinfo id="h3864c1:3" depart="57678.00" departLane="24693977#1_1" departPos="5.10" departSpeed="0.00" departDelay="0.00" arrival="57930.00" arrivalLane="201956820_1" arrivalPos="48.33" arrivalSpeed="14.32" duration="252.00" routeLength="1574.85" waitingTime="95.00" waitingCount="3" stopTime="0.00" timeLoss="132.38" rerouteNo="1" devices="tripinfo_h3864c1:3 routing_h3864c1:3 emissions_h3864c1:3" vType="default_016" speedFactor="1.08" vaporized="">
        <emissions CO_abs="21466.531424" CO2_abs="680096.343632" HC_abs="113.710589" PMx_abs="13.930118" NOx_abs="290.978474" fuel_abs="292.350753" electricity_abs="0"/>
    </tripinfo>
    <tripinfo id="carIn13443:1" depart="57729.00" departLane="272042143_1" departPos="5.10" departSpeed="0.00" departDelay="0.80" arrival="57930.00" arrivalLane="399835085#1_1" arrivalPos="212.23" arrivalSpeed="5.98" duration="201.00" routeLength="1757.45" waitingTime="0.00" waitingCount="0" stopTime="0.00" timeLoss="18.60" rerouteNo="1" devices="tripinfo_carIn13443:1 routing_carIn13443:1 emissions_carIn13443:1" vType="default_016" speedFactor="0.78" vaporized="">