<?xml version="1.0" encoding="UTF-8"?>

<!-- generated on 2021-10-26 21:49:09 by Eclipse SUMO sumo Version 1.10.0
<configuration xmlns:xsi="http://www.w3.org/2001/XMLSchema-instance" xsi:noNamespaceSchemaLocation="http://sumo.dlr.de/xsd/sumoConfiguration.xsd">

    <input>
        <net-file value="/Users/behradkoohy/sumo-scratchpad/RESCO/environments/ingolstadt21/ingolstadt21.net.xml"/>
        <route-files value="/Users/behradkoohy/sumo-scratchpad/RESCO/environments/ingolstadt21/ingolstadt21.rou.xml"/>
    </input>

    <output>
        <tripinfo-output value="/Users/behradkoohy/sumo-scratchpad/RESCO/logs/MPLight-tr0-ingolstadt21-21-mplight_full-pressure/tripinfo_71.xml"/>
        <tripinfo-output.write-unfinished value="true"/>
    </output>

    <time>
        <begin value="57600"/>
        <end value="61200"/>
    </time>

    <processing>
        <time-to-teleport value="-1"/>
    </processing>

    <report>
        <no-warnings value="true"/>
        <no-step-log value="true"/>
    </report>

    <emissions>
        <device.emissions.probability value="1"/>
    </emissions>

    <traci_server>
        <remote-port value="65295"/>
    </traci_server>

    <random_number>
        <random value="true"/>
    </random_number>

</configuration>
-->

<tripinfos xmlns:xsi="http://www.w3.org/2001/XMLSchema-instance" xsi:noNamespaceSchemaLocation="http://sumo.dlr.de/xsd/tripinfo_file.xsd">
    <tripinfo id="h15454c2:3" depart="57612.00" departLane="24608844_1" departPos="5.10" departSpeed="0.00" departDelay="0.50" arrival="57652.00" arrivalLane="32978638#0_1" arrivalPos="49.29" arrivalSpeed="12.92" duration="40.00" routeLength="354.79" waitingTime="0.00" waitingCount="0" stopTime="0.00" timeLoss="6.24" rerouteNo="1" devices="tripinfo_h15454c2:3 routing_h15454c2:3 emissions_h15454c2:3" vType="default_016" speedFactor="1.00" vaporized="">
        <emissions CO_abs="2145.730738" CO2_abs="119224.268042" HC_abs="12.565419" PMx_abs="2.136150" NOx_abs="49.274297" fuel_abs="51.249600" electricity_abs="0"/>
    </tripinfo>
    <tripinfo id="carIn53971:1" depart="57640.00" departLane="272042143_1" departPos="5.10" departSpeed="0.00" departDelay="0.80" arrival="57695.00" arrivalLane="24634414#1_1" arrivalPos="162.19" arrivalSpeed="7.50" duration="55.00" routeLength="493.04" waitingTime="0.00" waitingCount="0" stopTime="0.00" timeLoss="9.35" rerouteNo="1" devices="tripinfo_carIn53971:1 routing_carIn53971:1 emissions_carIn53971:1" vType="default_016" speedFactor="1.00" vaporized="">
        <emissions CO_abs="2634.248898" CO2_abs="148788.656013" HC_abs="15.449700" PMx_abs="2.480865" NOx_abs="60.222945" fuel_abs="63.958365" electricity_abs="0"/>
    </tripinfo>
    <tripinfo id="carIn60260:1" depart="57606.00" departLane="315358254#0_1" departPos="5.10" departSpeed="0.00" departDelay="0.90" arrival="57734.00" arrivalLane="399835085#1_1" arrivalPos="212.23" arrivalSpeed="8.08" duration="128.00" routeLength="430.98" waitingTime="69.00" waitingCount="1" stopTime="0.00" timeLoss="81.46" rerouteNo="1" devices="tripinfo_carIn60260:1 routing_carIn60260:1 emissions_carIn60260:1" vType="default_016" speedFactor="0.99" vaporized="">
        <emissions CO_abs="13411.179023" CO2_abs="300496.076769" HC_abs="68.075011" PMx_abs="6.467520" NOx_abs="131.270972" fuel_abs="129.176065" electricity_abs="0"/>
    </tripinfo>
    <tripinfo id="h7181c1:1" depart="57660.00" departLane="315358254#0_1" departPos="5.10" departSpeed="0.00" departDelay="0.10" arrival="57749.00" arrivalLane="306240162#0_0" arrivalPos="220.43" arrivalSpeed="17.48" duration="89.00" routeLength="932.35" waitingTime="20.00" waitingCount="2" stopTime="0.00" timeLoss="43.10" rerouteNo="1" devices="tripinfo_h7181c1:1 routing_h7181c1:1 emissions_h7181c1:1" vType="default_016" speedFactor="1.12" vaporized="">
        <emissions CO_abs="7656.176863" CO2_abs="366050.351812" HC_abs="43.656267" PMx_abs="7.750219" NOx_abs="156.049596" fuel_abs="157.349355" electricity_abs="0"/>
    </tripinfo>
    <tripinfo id="h4538c1:1" depart="57701.00" departLane="-10427692#1_1" departPos="5.10" departSpeed="0.00" departDelay="0.00" arrival="57750.00" arrivalLane="-128361102#1_1" arrivalPos="274.68" arrivalSpeed="11.64" duration="49.00" routeLength="440.74" waitingTime="1.00" waitingCount="1" stopTime="0.00" timeLoss="13.18" rerouteNo="1" devices="tripinfo_h4538c1:1 routing_h4538c1:1 emissions_h4538c1:1" vType="default_016" speedFactor="0.88" vaporized="">
        <emissions CO_abs="2016.728656" CO2_abs="110374.412939" HC_abs="11.754739" PMx_abs="1.888622" NOx_abs="44.891116" fuel_abs="47.445589" electricity_abs="0"/>
    </tripinfo>
    <tripinfo id="h3326c1:2" depart="57656.00" departLane="22716069#0_1" departPos="5.10" departSpeed="0.00" departDelay="0.00" arrival="57761.00" arrivalLane="24634517#13_1" arrivalPos="111.62" arrivalSpeed="14.54" duration="105.00" routeLength="1312.81" waitingTime="0.00" waitingCount="0" stopTime="0.00" timeLoss="16.73" rerouteNo="1" devices="tripinfo_h3326c1:2 routing_h3326c1:2 emissions_h3326c1:2" vType="default_016" speedFactor="1.11" vaporized="">
        <emissions CO_abs="4476.276727" CO2_abs="329511.438929" HC_abs="28.074473" PMx_abs="5.844401" NOx_abs="133.600183" fuel_abs="141.642446" electricity_abs="0"/>
    </tripinfo>
    <tripinfo id="h5979c1:5" depart="57669.00" departLane="399835085#1_1" departPos="5.10" departSpeed="0.00" departDelay="0.00" arrival="57764.00" arrivalLane="-315358254#1_1" arrivalPos="137.16" arrivalSpeed="15.02" duration="95.00" routeLength="659.33" waitingTime="0.00" waitingCount="0" stopTime="0.00" timeLoss="26.96" rerouteNo="1" devices="tripinfo_h5979c1:5 routing_h5979c1:5 emissions_h5979c1:5" vType="default_016" speedFactor="1.09" vaporized="">
        <emissions CO_abs="4647.870548" CO2_abs="210000.422706" HC_abs="26.043604" PMx_abs="3.713477" NOx_abs="86.952025" fuel_abs="90.271296" electricity_abs="0"/>
    </tripinfo>
    <tripinfo id="h11737c1:1" depart="57665.00" departLane="272042143_1" departPos="5.10" departSpeed="0.00" departDelay="1.50" arrival="57794.00" arrivalLane="-315358254#1_1" arrivalPos="137.16" arrivalSpeed="13.92" duration="129.00" routeLength="1596.88" waitingTime="0.00" waitingCount="0" stopTime="0.00" timeLoss="14.10" rerouteNo="1" devices="tripinfo_h11737c1:1 routing_h11737c1:1 emissions_h11737c1:1" vType="default_016" speedFactor="1.02" vaporized="">
        <emissions CO_abs="3698.705439" CO2_abs="320847.935078" HC_abs="24.349302" PMx_abs="5.166112" NOx_abs="126.274178" fuel_abs="137.918686" electricity_abs="0"/>
    </tripinfo>
    <tripinfo id="h3688c1:1" depart="57625.00" departLane="201201950#1_1" departPos="5.10" departSpeed="0.00" departDelay="0.00" arrival="57806.00" arrivalLane="32978638#0_1" arrivalPos="49.29" arrivalSpeed="10.11" duration="181.00" routeLength="1089.75" waitingTime="65.00" waitingCount="2" stopTime="0.00" timeLoss="83.68" rerouteNo="1" devices="tripinfo_h3688c1:1 routing_h3688c1:1 emissions_h3688c1:1" vType="default_016" speedFactor="0.82" vaporized="">
        <emissions CO_abs="13043.908928" CO2_abs="403713.633881" HC_abs="68.784479" PMx_abs="7.729750" NOx_abs="169.644120" fuel_abs="173.544083" electricity_abs="0"/>
    </tripinfo>
    <tripinfo id="h7800c1:5" depart="57696.00" departLane="-447569998#1_1" departPos="5.10" departSpeed="0.00" departDelay="0.00" arrival="57815.00" arrivalLane="-447569998#1_2" arrivalPos="180.76" arrivalSpeed="3.03" duration="119.00" routeLength="175.66" waitingTime="93.00" waitingCount="1" stopTime="0.00" timeLoss="99.41" rerouteNo="1" devices="tripinfo_h7800c1:5 routing_h7800c1:5 emissions_h7800c1:5" vType="default_016" speedFactor="1.08" vaporized="">
        <emissions CO_abs="15734.841142" CO2_abs="286981.474292" HC_abs="78.356777" PMx_abs="6.714289" NOx_abs="128.713465" fuel_abs="123.368157" electricity_abs="0"/>
    </tripinfo>
    <tripinfo id="carIn126288:1" depart="57674.00" departLane="272042143_1" departPos="5.10" departSpeed="0.00" departDelay="0.00" arrival="57817.00" arrivalLane="-315358254#1_1" arrivalPos="137.16" arrivalSpeed="11.40" duration="143.00" routeLength="1596.88" waitingTime="0.00" waitingCount="0" stopTime="0.00" timeLoss="13.18" rerouteNo="1" devices="tripinfo_carIn126288:1 routing_carIn126288:1 emissions_carIn126288:1" vType="default_016" speedFactor="0.90" vaporized="">
        <emissions CO_abs="4001.387194" CO2_abs="313562.417867" HC_abs="25.520941" PMx_abs="4.990421" NOx_abs="124.145129" fuel_abs="134.787261" electricity_abs="0"/>
    </tripinfo>
    <tripinfo id="h3154c1:1" depart="57658.00" departLane="24634507_1" departPos="5.10" departSpeed="0.00" departDelay="0.00" arrival="57823.00" arrivalLane="-266565295#5_1" arrivalPos="172.76" arrivalSpeed="15.25" duration="165.00" routeLength="1206.22" waitingTime="73.00" waitingCount="1" stopTime="0.00" timeLoss="89.50" rerouteNo="1" devices="tripinfo_h3154c1:1 routing_h3154c1:1 emissions_h3154c1:1" vType="default_016" speedFactor="1.17" vaporized="">
        <emissions CO_abs="15205.332028" CO2_abs="472689.980324" HC_abs="80.252017" PMx_abs="9.808821" NOx_abs="201.407449" fuel_abs="203.193869" electricity_abs="0"/>
    </tripinfo>
    <tripinfo id="carIn107282:1" depart="57749.00" departLane="-447569998#1_1" departPos="5.10" departSpeed="0.00" departDelay="0.00" arrival="57842.00" arrivalLane="315358242#0_1" arrivalPos="165.37" arrivalSpeed="12.17" duration="93.00" routeLength="448.50" waitingTime="38.00" waitingCount="1" stopTime="0.00" timeLoss="46.74" rerouteNo="1" devices="tripinfo_carIn107282:1 routing_carIn107282:1 emissions_carIn107282:1" vType="default_016" speedFactor="0.90" vaporized="">
        <emissions CO_abs="7794.518109" CO2_abs="201741.035500" HC_abs="40.175673" PMx_abs="4.035866" NOx_abs="86.082093" fuel_abs="86.723078" electricity_abs="0"/>
    </tripinfo>
    <tripinfo id="randUni15030:1" depart="57735.00" departLane="386687232#0_1" departPos="5.10" departSpeed="0.00" departDelay="0.10" arrival="57855.00" arrivalLane="26677539_1" arrivalPos="151.98" arrivalSpeed="6.47" duration="120.00" routeLength="919.89" waitingTime="0.00" waitingCount="0" stopTime="0.00" timeLoss="13.67" rerouteNo="1" devices="tripinfo_randUni15030:1 routing_randUni15030:1 emissions_randUni15030:1" vType="random_016" speedFactor="0.78" vaporized="">
        <emissions CO_abs="4492.444734" CO2_abs="222853.554004" HC_abs="25.564189" PMx_abs="3.494017" NOx_abs="89.228518" fuel_abs="95.796697" electricity_abs="0"/>
    </tripinfo>
    <tripinfo id="randUni31145:1" depart="57814.00" departLane="10425609#0_1" departPos="5.10" departSpeed="0.00" departDelay="0.30" arrival="57856.00" arrivalLane="201956810_1" arrivalPos="71.65" arrivalSpeed="13.14" duration="42.00" routeLength="255.78" waitingTime="11.00" waitingCount="1" stopTime="0.00" timeLoss="20.47" rerouteNo="1" devices="tripinfo_randUni31145:1 routing_randUni31145:1 emissions_randUni31145:1" vType="random_016" speedFactor="0.96" vaporized="">
        <emissions CO_abs="3428.694540" CO2_abs="132213.113032" HC_abs="18.736302" PMx_abs="2.669346" NOx_abs="56.679839" fuel_abs="56.833398" electricity_abs="0"/>
    </tripinfo>
    <tripinfo id="randUni2407:1" depart="57820.00" departLane="10425609#0_1" departPos="5.10" departSpeed="0.00" departDelay="0.80" arrival="57858.00" arrivalLane="201956810_1" arrivalPos="71.65" arrivalSpeed="12.95" duration="38.00" routeLength="255.78" waitingTime="7.00" waitingCount="1" stopTime="0.00" timeLoss="17.38" rerouteNo="1" devices="tripinfo_randUni2407:1 routing_randUni2407:1 emissions_randUni2407:1" vType="random_016" speedFactor="0.97" vaporized="">
        <emissions CO_abs="2614.001735" CO2_abs="119212.007287" HC_abs="14.702656" PMx_abs="2.238986" NOx_abs="49.954854" fuel_abs="51.244571" electricity_abs="0"/>
    </tripinfo>
    <tripinfo id="carIn121703:1" depart="57647.00" departLane="386687232#0_1" departPos="5.10" departSpeed="0.00" departDelay="0.30" arrival="57863.00" arrivalLane="-315358244_1" arrivalPos="33.95" arrivalSpeed="14.83" duration="216.00" routeLength="1157.39" waitingTime="111.00" waitingCount="3" stopTime="0.00" timeLoss="139.56" rerouteNo="1" devices="tripinfo_carIn121703:1 routing_carIn121703:1 emissions_carIn121703:1" vType="default_016" speedFactor="1.10" vaporized="">
        <emissions CO_abs="20767.713123" CO2_abs="552881.690563" HC_abs="107.522205" PMx_abs="11.794094" NOx_abs="238.828776" fuel_abs="237.667609" electricity_abs="0"/>
    </tripinfo>
    <tripinfo id="carIn73855:1" depart="57743.00" departLane="386687232#0_1" departPos="5.10" departSpeed="0.00" departDelay="0.50" arrival="57863.00" arrivalLane="-315358244_2" arrivalPos="33.95" arrivalSpeed="13.56" duration="120.00" routeLength="1157.39" waitingTime="17.00" waitingCount="2" stopTime="0.00" timeLoss="37.90" rerouteNo="1" devices="tripinfo_carIn73855:1 routing_carIn73855:1 emissions_carIn73855:1" vType="default_016" speedFactor="1.03" vaporized="">
        <emissions CO_abs="6457.539922" CO2_abs="340633.296077" HC_abs="37.432765" PMx_abs="6.306057" NOx_abs="140.755841" fuel_abs="146.424324" electricity_abs="0"/>
    </tripinfo>
    <tripinfo id="carIn126378:1" depart="57746.00" departLane="386687232#0_1" departPos="5.10" departSpeed="0.00" departDelay="1.80" arrival="57865.00" arrivalLane="-315358244_1" arrivalPos="33.95" arrivalSpeed="12.95" duration="119.00" routeLength="1157.39" waitingTime="14.00" waitingCount="2" stopTime="0.00" timeLoss="32.11" rerouteNo="1" devices="tripinfo_carIn126378:1 routing_carIn126378:1 emissions_carIn126378:1" vType="default_016" speedFactor="0.97" vaporized="">
        <emissions CO_abs="5081.852447" CO2_abs="304139.020355" HC_abs="30.247713" PMx_abs="5.161653" NOx_abs="122.420913" fuel_abs="130.737083" electricity_abs="0"/>
    </tripinfo>
    <tripinfo id="carIn53503:1" depart="57763.00" departLane="-306240162#1_0" departPos="5.10" departSpeed="0.00" departDelay="2.40" arrival="57868.00" arrivalLane="24634510#6_1" arrivalPos="76.64" arrivalSpeed="15.15" duration="105.00" routeLength="1440.47" waitingTime="0.00" waitingCount="0" stopTime="0.00" timeLoss="17.86" rerouteNo="1" devices="tripinfo_carIn53503:1 routing_carIn53503:1 emissions_carIn53503:1" vType="default_016" speedFactor="1.14" vaporized="">
        <emissions CO_abs="4452.938243" CO2_abs="352976.864753" HC_abs="28.424631" PMx_abs="6.383160" NOx_abs="142.912794" fuel_abs="151.728795" electricity_abs="0"/>
    </tripinfo>
    <tripinfo id="h17600c1:1" depart="57662.00" departLane="272042143_1" departPos="5.10" departSpeed="0.00" departDelay="0.30" arrival="57880.00" arrivalLane="201238729#3_1" arrivalPos="431.02" arrivalSpeed="14.23" duration="218.00" routeLength="2100.26" waitingTime="55.00" waitingCount="1" stopTime="0.00" timeLoss="73.75" rerouteNo="1" devices="tripinfo_h17600c1:1 routing_h17600c1:1 emissions_h17600c1:1" vType="default_016" speedFactor="1.05" vaporized="">
        <emissions CO_abs="12774.447201" CO2_abs="515960.112242" HC_abs="70.210904" PMx_abs="9.395086" NOx_abs="210.273530" fuel_abs="221.793149" electricity_abs="0"/>
    </tripinfo>
    <tripinfo id="h3536c1:1" depart="57767.00" departLane="-24634413#2_1" departPos="5.10" departSpeed="0.00" departDelay="0.00" arrival="57880.00" arrivalLane="32978638#0_1" arrivalPos="49.29" arrivalSpeed="15.05" duration="113.00" routeLength="953.61" waitingTime="10.00" waitingCount="1" stopTime="0.00" timeLoss="29.27" rerouteNo="1" devices="tripinfo_h3536c1:1 routing_h3536c1:1 emissions_h3536c1:1" vType="default_016" speedFactor="1.10" vaporized="">
        <emissions CO_abs="5759.622384" CO2_abs="309781.398390" HC_abs="33.462981" PMx_abs="5.480813" NOx_abs="126.991886" fuel_abs="133.162580" electricity_abs="0"/>
    </tripinfo>
    <tripinfo id="carIn27009:1" depart="57673.00" departLane="-447569998#1_1" departPos="5.10" departSpeed="0.00" departDelay="0.50" arrival="57885.00" arrivalLane="-26677539_1" arrivalPos="152.75" arrivalSpeed="8.13" duration="212.00" routeLength="699.63" waitingTime="111.00" waitingCount="1" stopTime="0.00" timeLoss="126.77" rerouteNo="1" devices="tripinfo_carIn27009:1 routing_carIn27009:1 emissions_carIn27009:1" vType="default_015" speedFactor="0.99" vaporized="">
        <emissions CO_abs="21284.222520" CO2_abs="464866.809589" HC_abs="107.744628" PMx_abs="10.048764" NOx_abs="203.699859" fuel_abs="199.835462" electricity_abs="0"/>
    </tripinfo>
    <tripinfo id="carIn12152:1" depart="57647.00" departLane="24599188#0.94_1" departPos="5.10" departSpeed="0.00" departDelay="0.50" arrival="57891.00" arrivalLane="-315358254#1_1" arrivalPos="137.16" arrivalSpeed="13.31" duration="244.00" routeLength="2034.31" waitingTime="61.00" waitingCount="2" stopTime="0.00" timeLoss="92.58" rerouteNo="1" devices="tripinfo_carIn12152:1 routing_carIn12152:1 emissions_carIn12152:1" vType="default_016" speedFactor="1.05" vaporized="">
        <emissions CO_abs="14489.264268" CO2_abs="586130.265599" HC_abs="79.579461" PMx_abs="10.633950" NOx_abs="239.915833" fuel_abs="251.956731" electricity_abs="0"/>
    </tripinfo>
    <tripinfo id="h13377c2:3" depart="57804.00" departLane="315358244_1" departPos="5.10" departSpeed="0.00" departDelay="0.60" arrival="57891.00" arrivalLane="447569997#1_1" arrivalPos="180.93" arrivalSpeed="7.11" duration="87.00" routeLength="726.74" waitingTime="1.00" waitingCount="1" stopTime="0.00" timeLoss="16.75" rerouteNo="1" devices="tripinfo_h13377c2:3 routing_h13377c2:3 emissions_h13377c2:3" vType="default_016" speedFactor="0.97" vaporized="">
        <emissions CO_abs="3668.019901" CO2_abs="185469.283899" HC_abs="20.990205" PMx_abs="3.093596" NOx_abs="75.069573" fuel_abs="79.726244" electricity_abs="0"/>
    </tripinfo>
    <tripinfo id="carIn81681:1" depart="57726.00" departLane="272042143_1" departPos="5.10" departSpeed="0.00" departDelay="0.30" arrival="57896.00" arrivalLane="306240162#0_0" arrivalPos="220.43" arrivalSpeed="16.04" duration="170.00" routeLength="2246.89" waitingTime="0.00" waitingCount="0" stopTime="0.00" timeLoss="18.23" rerouteNo="1" devices="tripinfo_carIn81681:1 routing_carIn81681:1 emissions_carIn81681:1" vType="default_016" speedFactor="0.97" vaporized="">
        <emissions CO_abs="5872.677710" CO2_abs="488952.381913" HC_abs="38.299798" PMx_abs="8.423337" NOx_abs="195.072843" fuel_abs="210.178993" electricity_abs="0"/>
    </tripinfo>
    <tripinfo id="carIn80913:1" depart="57732.00" departLane="272042143_1" departPos="5.10" departSpeed="0.00" departDelay="0.40" arrival="57897.00" arrivalLane="306240162#0_0" arrivalPos="220.43" arrivalSpeed="17.48" duration="165.00" routeLength="2246.89" waitingTime="0.00" waitingCount="0" stopTime="0.00" timeLoss="28.52" rerouteNo="1" devices="tripinfo_carIn80913:1 routing_carIn80913:1 emissions_carIn80913:1" vType="default_016" speedFactor="1.08" vaporized="">
        <emissions CO_abs="6955.810232" CO2_abs="549479.774345" HC_abs="44.649846" PMx_abs="9.995342" NOx_abs="222.384393" fuel_abs="236.196543" electricity_abs="0"/>
    </tripinfo>
    <tripinfo id="carIn132499:1" depart="57740.00" departLane="272042143_1" departPos="5.10" departSpeed="0.00" departDelay="0.70" arrival="57898.00" arrivalLane="201238729#3_1" arrivalPos="431.02" arrivalSpeed="13.43" duration="158.00" routeLength="2100.26" waitingTime="0.00" waitingCount="0" stopTime="0.00" timeLoss="12.50" rerouteNo="1" devices="tripinfo_carIn132499:1 routing_carIn132499:1 emissions_carIn132499:1" vType="default_016" speedFactor="1.04" vaporized="">
        <emissions CO_abs="3528.805155" CO2_abs="361291.959639" HC_abs="24.337663" PMx_abs="5.543717" NOx_abs="139.207426" fuel_abs="155.303795" electricity_abs="0"/>
    </tripinfo>
    <tripinfo id="carIn101266:1" depart="57737.00" departLane="272042143_1" departPos="5.10" departSpeed="0.00" departDelay="0.50" arrival="57899.00" arrivalLane="306240162#0_0" arrivalPos="220.43" arrivalSpeed="17.93" duration="162.00" routeLength="2246.89" waitingTime="0.00" waitingCount="0" stopTime="0.00" timeLoss="26.40" rerouteNo="1" devices="tripinfo_carIn101266:1 routing_carIn101266:1 emissions_carIn101266:1" vType="default_016" speedFactor="1.09" vaporized="">
        <emissions CO_abs="6543.841560" CO2_abs="532868.475727" HC_abs="42.368049" PMx_abs="9.630050" NOx_abs="214.550114" fuel_abs="229.056089" electricity_abs="0"/>
    </tripinfo>
    <tripinfo id="h20540c1:1" depart="57634.00" departLane="10425609#0_1" departPos="5.10" departSpeed="0.00" departDelay="0.50" arrival="57900.00" arrivalLane="-128361102#1_1" arrivalPos="274.68" arrivalSpeed="17.40" duration="266.00" routeLength="2095.01" waitingTime="107.00" waitingCount="2" stopTime="0.00" timeLoss="145.08" rerouteNo="1" devices="tripinfo_h20540c1:1 routing_h20540c1:1 emissions_h20540c1:1" vType="default_016" speedFactor="1.27" vaporized="">
        <emissions CO_abs="23754.164525" CO2_abs="808935.900247" HC_abs="127.217130" PMx_abs="16.682696" NOx_abs="342.920387" fuel_abs="347.733284" electricity_abs="0"/>
    </tripinfo>
    <tripinfo id="randUni23028:1" depart="57884.00" departLane="124812856#0_1" departPos="5.10" departSpeed="0.00" departDelay="0.10" arrival="57901.00" arrivalLane="201956810_1" arrivalPos="71.65" arrivalSpeed="11.76" duration="17.00" routeLength="134.91" waitingTime="0.00" waitingCount="0" stopTime="0.00" timeLoss="4.27" rerouteNo="1" devices="tripinfo_randUni23028:1 routing_randUni23028:1 emissions_randUni23028:1" vType="random_016" speedFactor="0.89" vaporized="">
        <emissions CO_abs="1311.057215" CO2_abs="65441.243654" HC_abs="7.510733" PMx_abs="1.235386" NOx_abs="27.537260" fuel_abs="28.130503" electricity_abs="0"/>
    </tripinfo>
    <tripinfo id="carIn8642:1" depart="57774.00" departLane="-447569998#1_1" departPos="5.10" departSpeed="0.00" departDelay="0.90" arrival="57902.00" arrivalLane="-315358244_2" arrivalPos="33.95" arrivalSpeed="13.92" duration="128.00" routeLength="706.49" waitingTime="48.00" waitingCount="2" stopTime="0.00" timeLoss="71.39" rerouteNo="1" devices="tripinfo_carIn8642:1 routing_carIn8642:1 emissions_carIn8642:1" vType="default_016" speedFactor="1.08" vaporized="">
        <emissions CO_abs="10483.573435" CO2_abs="319410.446108" HC_abs="55.151410" PMx_abs="6.473947" NOx_abs="136.084054" fuel_abs="137.304357" electricity_abs="0"/>
    </tripinfo>
    <tripinfo id="carIn129809:1" depart="57729.00" departLane="-447569998#1_1" departPos="5.10" departSpeed="0.00" departDelay="1.00" arrival="57903.00" arrivalLane="-315358244_1" arrivalPos="33.95" arrivalSpeed="13.06" duration="174.00" routeLength="706.49" waitingTime="88.00" waitingCount="2" stopTime="0.00" timeLoss="112.13" rerouteNo="1" devices="tripinfo_carIn129809:1 routing_carIn129809:1 emissions_carIn129809:1" vType="default_015" speedFactor="0.97" vaporized="">
        <emissions CO_abs="16881.462395" CO2_abs="415455.344762" HC_abs="86.593233" PMx_abs="8.823908" NOx_abs="180.231552" fuel_abs="178.593111" electricity_abs="0"/>
    </tripinfo>
    <tripinfo id="h8468c1:3" depart="57760.00" departLane="176550249#3_1" departPos="5.10" departSpeed="0.00" departDelay="0.00" arrival="57923.00" arrivalLane="201238729#3_1" arrivalPos="431.02" arrivalSpeed="14.74" duration="163.00" routeLength="1949.14" waitingTime="16.00" waitingCount="2" stopTime="0.00" timeLoss="34.37" rerouteNo="1" devices="tripinfo_h8468c1:3 routing_h8468c1:3 emissions_h8468c1:3" vType="default_016" speedFactor="1.11" vaporized="">
        <emissions CO_abs="5004.127232" CO2_abs="386973.479890" HC_abs="31.669992" PMx_abs="6.337989" NOx_abs="151.519545" fuel_abs="166.343622" electricity_abs="0"/>
    </tripinfo>
    <tripinfo id="carIn13443:1" depart="57729.00" departLane="272042143_1" departPos="5.10" departSpeed="0.00" departDelay="0.80" arrival="57924.00" arrivalLane="399835085#1_1" arrivalPos="212.23" arrivalSpeed="6.48" duration="195.00" routeLength="1757.45" waitingTime="0.00" waitingCount="0" stopTime="0.00" timeLoss="17.95" rerouteNo="1" devices="tripinfo_carIn13443:1 routing_carIn13443:1 emissions_carIn13443:1" vType="default_016" speedFactor="0.80" vaporized="">
        <emissions CO_abs="5914.858174" CO2_abs="360798.365435" HC_abs="35.195879" PMx_abs="5.341236" NOx_abs="141.604937" fuel_abs="155.093596" electricity_abs="0"/>
    </tripinfo>
    <tripinfo id="carIn14532:1" depart="57743.00" departLane="272042143_1" departPos="5.10" departSpeed="0.00" departDelay="1.90" arrival="57926.00" arrivalLane="399835085#1_1" arrivalPos="212.23" arrivalSpeed="8.09" duration="183.00" routeLength="1757.45" waitingTime="0.00" waitingCount="0" stopTime="0.00" timeLoss="47.82" rerouteNo="1" devices="tripinfo_carIn14532:1 routing_carIn14532:1 emissions_carIn14532:1" vType="default_016" speedFactor="1.05" vaporized="">
        <emissions CO_abs="6331.872634" CO2_abs="392463.635161" HC_abs="37.912233" PMx_abs="6.307522" NOx_abs="156.728693" fuel_abs="168.704504" electricity_abs="0"/>
    </tripinfo>
    <tripinfo id="carIn22761:1" depart="57616.00" departLane="-306240162#1_0" departPos="5.10" departSpeed="0.00" departDelay="2.10" arrival="57929.00" arrivalLane="399835085#1_1" arrivalPos="212.23" arrivalSpeed="8.24" duration="313.00" routeLength="1093.26" waitingTime="199.00" waitingCount="3" stopTime="0.00" timeLoss="241.57" rerouteNo="1" devices="tripinfo_carIn22761:1 routing_carIn22761:1 emissions_carIn22761:1" vType="default_016" speedFactor="1.10" vaporized="">
        <emissions CO_abs="36665.024873" CO2_abs="852763.258204" HC_abs="187.105914" PMx_abs="19.336205" NOx_abs="376.615520" fuel_abs="366.580037" electricity_abs="0"/>
    </tripinfo>
    <tripinfo id="carIn12858:1" depart="57661.00" departLane="128361109#1_1" departPos="5.10" departSpeed="0.00" departDelay="0.90" arrival="57931.00" arrivalLane="399835085#1_1" arrivalPos="212.23" arrivalSpeed="6.75" duration="270.00" routeLength="1738.12" waitingTime="106.00" waitingCount="4" stopTime="0.00" timeLoss="145.38" rerouteNo="1" devices="tripinfo_carIn12858:1 routing_carIn12858:1 emissions_carIn12858:1" vType="default_016" speedFactor="0.92" vaporized="">
        <emissions CO_abs="22974.354376" CO2_abs="743136.828733" HC_abs="122.076922" PMx_abs="15.231034" NOx_abs="315.879735" fuel_abs="319.449547" electricity_abs="0"/>
    </tripinfo>
    <tripinfo id="h5216c1:1" depart="57664.00" departLane="224892339#0_1" departPos="5.10" departSpeed="0.00" departDelay="0.00" arrival="57935.00" arrivalLane="386687235_1" arrivalPos="80.84" arrivalSpeed="13.31" duration="271.00" routeLength="1823.78" waitingTime="117.00" waitingCount="2" stopTime="0.00" timeLoss="144.45" rerouteNo="1" devices="tripinfo_h5216c1:1 routing_h5216c1:1 emissions_h5216c1:1" vType="default_016" speedFactor="1.01" vaporized="">
        <emissions CO_abs="22861.858458" CO2_abs="698046.659903" HC_abs="120.531435" PMx_abs="14.285154" NOx_abs="296.550270" fuel_abs="300.067944" electricity_abs="0"/>
    </tripinfo>
    <tripinfo id="h17549c1:1" depart="57680.00" departLane="-447569998#1_1" departPos="5.10" departSpeed="0.00" departDelay="0.00" arrival="57935.00" arrivalLane="-315358254#1_1" arrivalPos="137.16" arrivalSpeed="15.01" duration="255.00" routeLength="1746.60" waitingTime="111.00" waitingCount="2" stopTime="0.00" timeLoss="136.21" rerouteNo="1" devices="tripinfo_h17549c1:1 routing_h17549c1:1 emissions_h17549c1:1" vType="default_016" speedFactor="1.15" vaporized="">
        <emissions CO_abs="21970.355856" CO2_abs="654430.939195" HC_abs="115.227944" PMx_abs="13.420411" NOx_abs="277.877721" fuel_abs="281.319351" electricity_abs="0"/>
    </tripinfo>
    <tripinfo id="h16072c2:3" depart="57663.00" departLane="315358254#0_1" departPos="5.10" departSpeed="0.00" departDelay="2.50" arrival="57938.00" arrivalLane="386687235_1" arrivalPos="80.84" arrivalSpeed="11.52" duration="275.00" routeLength="1611.92" waitingTime="122.00" waitingCount="3" stopTime="0.00" timeLoss="146.57" rerouteNo="1" devices="tripinfo_h16072c2:3 routing_h16072c2:3 emissions_h16072c2:3" vType="default_016" speedFactor="0.91" vaporized="">
        <emissions CO_abs="22886.537300" CO2_abs="624108.665698" HC_abs="118.798057" PMx_abs="12.659701" NOx_abs="265.800718" fuel_abs="268.286486" electricity_abs="0"/>
    </tripinfo>
    <tripinfo id="h3426c1:1" depart="57864.00" departLane="-160314345#2_1" departPos="5.10" departSpeed="0.00" departDelay="0.00" arrival="57940.00" arrivalLane="386687235_1" arrivalPos="80.84" arrivalSpeed="12.89" duration="76.00" routeLength="726.87" waitingTime="0.00" waitingCount="0" stopTime="0.00" timeLoss="8.93" rerouteNo="1" devices="tripinfo_h3426c1:1 routing_h3426c1:1 emissions_h3426c1:1" vType="default_016" speedFactor="1.02" vaporized="">
        <emissions CO_abs="2654.837018" CO2_abs="165965.333660" HC_abs="15.922334" PMx_abs="2.628736" NOx_abs="65.927193" fuel_abs="71.341944" electricity_abs="0"/>
    </tripinfo>
    <tripinfo id="h9953c2:3" depart="57682.00" departLane="-54169231#2_1" departPos="5.10" departSpeed="0.00" departDelay="0.00" arrival="57953.00" arrivalLane="386687235_1" arrivalPos="80.84" arrivalSpeed="13.10" duration="271.00" routeLength="1535.60" waitingTime="116.00" waitingCount="3" stopTime="0.00" timeLoss="146.91" rerouteNo="1" devices="tripinfo_h9953c2:3 routing_h9953c2:3 emissions_h9953c2:3" vType="default_016" speedFactor="1.02" vaporized="">
        <emissions CO_abs="23109.612672" CO2_abs="651159.701411" HC_abs="120.492894" PMx_abs="13.397983" NOx_abs="279.107247" fuel_abs="279.913947" electricity_abs="0"/>
    </tripinfo>
    <tripinfo id="carIn81860:1" depart="57712.00" departLane="128361102#0_1" departPos="5.10" departSpeed="0.00" departDelay="0.60" arrival="57957.00" arrivalLane="-24634517#17_1" arrivalPos="6.43" arrivalSpeed="9.46" duration="245.00" routeLength="1229.64" waitingTime="147.00" waitingCount="1" stopTime="0.00" timeLoss="170.59" rerouteNo="1" devices="tripinfo_carIn81860:1 routing_carIn81860:1 emissions_carIn81860:1" vType="default_016" speedFactor="1.22" vaporized="">