<?xml version="1.0" encoding="UTF-8"?>

<!-- generated on 2021-10-26 22:29:10 by Eclipse SUMO sumo Version 1.10.0
<configuration xmlns:xsi="http://www.w3.org/2001/XMLSchema-instance" xsi:noNamespaceSchemaLocation="http://sumo.dlr.de/xsd/sumoConfiguration.xsd">

    <input>
        <net-file value="/Users/behradkoohy/sumo-scratchpad/RESCO/environments/ingolstadt21/ingolstadt21.net.xml"/>
        <route-files value="/Users/behradkoohy/sumo-scratchpad/RESCO/environments/ingolstadt21/ingolstadt21.rou.xml"/>
    </input>

    <output>
        <tripinfo-output value="/Users/behradkoohy/sumo-scratchpad/RESCO/logs/MPLight-tr0-ingolstadt21-21-mplight_full-pressure/tripinfo_96.xml"/>
        <tripinfo-output.write-unfinished value="true"/>
    </output>

    <time>
        <begin value="57600"/>
        <end value="61200"/>
    </time>

    <processing>
        <time-to-teleport value="-1"/>
    </processing>

    <report>
        <no-warnings value="true"/>
        <no-step-log value="true"/>
    </report>

    <emissions>
        <device.emissions.probability value="1"/>
    </emissions>

    <traci_server>
        <remote-port value="50193"/>
    </traci_server>

    <random_number>
        <random value="true"/>
    </random_number>

</configuration>
-->

<tripinfos xmlns:xsi="http://www.w3.org/2001/XMLSchema-instance" xsi:noNamespaceSchemaLocation="http://sumo.dlr.de/xsd/tripinfo_file.xsd">
    <tripinfo id="h15454c2:3" depart="57612.00" departLane="24608844_1" departPos="5.10" departSpeed="0.00" departDelay="0.50" arrival="57668.00" arrivalLane="32978638#0_1" arrivalPos="49.29" arrivalSpeed="12.03" duration="56.00" routeLength="354.79" waitingTime="10.00" waitingCount="1" stopTime="0.00" timeLoss="20.15" rerouteNo="1" devices="tripinfo_h15454c2:3 routing_h15454c2:3 emissions_h15454c2:3" vType="default_016" speedFactor="0.96" vaporized="">
        <emissions CO_abs="3489.616768" CO2_abs="137697.259685" HC_abs="19.106099" PMx_abs="2.577734" NOx_abs="57.765429" fuel_abs="59.191059" electricity_abs="0"/>
    </tripinfo>
    <tripinfo id="carIn53971:1" depart="57640.00" departLane="272042143_1" departPos="5.10" departSpeed="0.00" departDelay="0.80" arrival="57700.00" arrivalLane="24634414#1_1" arrivalPos="162.19" arrivalSpeed="7.09" duration="60.00" routeLength="493.04" waitingTime="0.00" waitingCount="0" stopTime="0.00" timeLoss="8.60" rerouteNo="1" devices="tripinfo_carIn53971:1 routing_carIn53971:1 emissions_carIn53971:1" vType="default_016" speedFactor="0.90" vaporized="">
        <emissions CO_abs="2619.635260" CO2_abs="133810.506980" HC_abs="15.032497" PMx_abs="2.274149" NOx_abs="54.671816" fuel_abs="57.519975" electricity_abs="0"/>
    </tripinfo>
    <tripinfo id="h3568c1:3" depart="57656.00" departLane="266565295#5_1" departPos="5.10" departSpeed="0.00" departDelay="0.80" arrival="57736.00" arrivalLane="-24634415_1" arrivalPos="62.03" arrivalSpeed="12.32" duration="80.00" routeLength="807.40" waitingTime="0.00" waitingCount="0" stopTime="0.00" timeLoss="12.32" rerouteNo="1" devices="tripinfo_h3568c1:3 routing_h3568c1:3 emissions_h3568c1:3" vType="default_016" speedFactor="0.96" vaporized="">
        <emissions CO_abs="3396.649029" CO2_abs="205106.620768" HC_abs="20.282535" PMx_abs="3.638661" NOx_abs="84.150799" fuel_abs="88.166727" electricity_abs="0"/>
    </tripinfo>
    <tripinfo id="h3326c1:2" depart="57656.00" departLane="22716069#0_1" departPos="5.10" departSpeed="0.00" departDelay="0.00" arrival="57756.00" arrivalLane="24634517#13_1" arrivalPos="111.62" arrivalSpeed="15.81" duration="100.00" routeLength="1312.81" waitingTime="0.00" waitingCount="0" stopTime="0.00" timeLoss="15.62" rerouteNo="1" devices="tripinfo_h3326c1:2 routing_h3326c1:2 emissions_h3326c1:2" vType="default_016" speedFactor="1.15" vaporized="">
        <emissions CO_abs="4126.300267" CO2_abs="332982.761513" HC_abs="26.637679" PMx_abs="5.878398" NOx_abs="134.135705" fuel_abs="143.134400" electricity_abs="0"/>
    </tripinfo>
    <tripinfo id="carIn60260:1" depart="57606.00" departLane="315358254#0_1" departPos="5.10" departSpeed="0.00" departDelay="0.90" arrival="57779.00" arrivalLane="399835085#1_1" arrivalPos="212.23" arrivalSpeed="8.64" duration="173.00" routeLength="430.98" waitingTime="121.00" waitingCount="1" stopTime="0.00" timeLoss="132.06" rerouteNo="1" devices="tripinfo_carIn60260:1 routing_carIn60260:1 emissions_carIn60260:1" vType="default_016" speedFactor="1.14" vaporized="">
        <emissions CO_abs="21378.707448" CO2_abs="428861.594400" HC_abs="107.384955" PMx_abs="9.744605" NOx_abs="190.290705" fuel_abs="184.358495" electricity_abs="0"/>
    </tripinfo>
    <tripinfo id="h7181c1:1" depart="57660.00" departLane="315358254#0_1" departPos="5.10" departSpeed="0.00" departDelay="0.10" arrival="57792.00" arrivalLane="306240162#0_0" arrivalPos="220.43" arrivalSpeed="18.16" duration="132.00" routeLength="932.35" waitingTime="68.00" waitingCount="1" stopTime="0.00" timeLoss="85.29" rerouteNo="1" devices="tripinfo_h7181c1:1 routing_h7181c1:1 emissions_h7181c1:1" vType="default_016" speedFactor="1.10" vaporized="">
        <emissions CO_abs="14918.197354" CO2_abs="452778.935693" HC_abs="78.708081" PMx_abs="9.921967" NOx_abs="195.065079" fuel_abs="194.634418" electricity_abs="0"/>
    </tripinfo>
    <tripinfo id="h11737c1:1" depart="57665.00" departLane="272042143_1" departPos="5.10" departSpeed="0.00" departDelay="1.50" arrival="57796.00" arrivalLane="-315358254#1_1" arrivalPos="137.16" arrivalSpeed="14.48" duration="131.00" routeLength="1596.88" waitingTime="3.00" waitingCount="1" stopTime="0.00" timeLoss="20.34" rerouteNo="1" devices="tripinfo_h11737c1:1 routing_h11737c1:1 emissions_h11737c1:1" vType="default_016" speedFactor="1.05" vaporized="">
        <emissions CO_abs="4039.709533" CO2_abs="349501.189339" HC_abs="26.457390" PMx_abs="5.575340" NOx_abs="136.736988" fuel_abs="150.235601" electricity_abs="0"/>
    </tripinfo>
    <tripinfo id="h5979c1:5" depart="57669.00" departLane="399835085#1_1" departPos="5.10" departSpeed="0.00" departDelay="0.00" arrival="57799.00" arrivalLane="-315358254#1_1" arrivalPos="137.16" arrivalSpeed="12.86" duration="130.00" routeLength="659.33" waitingTime="38.00" waitingCount="1" stopTime="0.00" timeLoss="51.66" rerouteNo="1" devices="tripinfo_h5979c1:5 routing_h5979c1:5 emissions_h5979c1:5" vType="default_016" speedFactor="0.93" vaporized="">
        <emissions CO_abs="9284.882134" CO2_abs="274280.051704" HC_abs="48.604484" PMx_abs="5.092629" NOx_abs="114.855125" fuel_abs="117.905104" electricity_abs="0"/>
    </tripinfo>
    <tripinfo id="carIn107084:1" depart="57601.00" departLane="124812856#0_1" departPos="5.10" departSpeed="0.00" departDelay="0.70" arrival="57823.00" arrivalLane="-128361102#1_1" arrivalPos="274.68" arrivalSpeed="15.20" duration="222.00" routeLength="2232.46" waitingTime="49.00" waitingCount="2" stopTime="0.00" timeLoss="78.62" rerouteNo="1" devices="tripinfo_carIn107084:1 routing_carIn107084:1 emissions_carIn107084:1" vType="default_016" speedFactor="1.15" vaporized="">
        <emissions CO_abs="13350.672713" CO2_abs="644916.659651" HC_abs="75.811928" PMx_abs="12.153237" NOx_abs="265.593239" fuel_abs="277.224130" electricity_abs="0"/>
    </tripinfo>
    <tripinfo id="h19804c1:3" depart="57617.00" departLane="124812856#0_1" departPos="5.10" departSpeed="0.00" departDelay="1.50" arrival="57824.00" arrivalLane="-128361102#1_1" arrivalPos="274.68" arrivalSpeed="15.91" duration="207.00" routeLength="2232.46" waitingTime="30.00" waitingCount="2" stopTime="0.00" timeLoss="66.32" rerouteNo="1" devices="tripinfo_h19804c1:3 routing_h19804c1:3 emissions_h19804c1:3" vType="default_016" speedFactor="1.16" vaporized="">
        <emissions CO_abs="10597.639760" CO2_abs="626765.719826" HC_abs="62.910376" PMx_abs="11.585922" NOx_abs="256.475403" fuel_abs="269.420095" electricity_abs="0"/>
    </tripinfo>
    <tripinfo id="carIn77943:1" depart="57608.00" departLane="124812856#0_1" departPos="5.10" departSpeed="0.00" departDelay="2.50" arrival="57826.00" arrivalLane="-128361102#1_1" arrivalPos="274.68" arrivalSpeed="15.29" duration="218.00" routeLength="2232.46" waitingTime="38.00" waitingCount="2" stopTime="0.00" timeLoss="79.33" rerouteNo="1" devices="tripinfo_carIn77943:1 routing_carIn77943:1 emissions_carIn77943:1" vType="default_016" speedFactor="1.18" vaporized="">
        <emissions CO_abs="12462.539075" CO2_abs="641692.572888" HC_abs="71.949905" PMx_abs="12.253636" NOx_abs="265.773118" fuel_abs="275.837265" electricity_abs="0"/>
    </tripinfo>
    <tripinfo id="randUni15030:1" depart="57735.00" departLane="386687232#0_1" departPos="5.10" departSpeed="0.00" departDelay="0.10" arrival="57831.00" arrivalLane="26677539_1" arrivalPos="151.98" arrivalSpeed="7.82" duration="96.00" routeLength="919.89" waitingTime="0.00" waitingCount="0" stopTime="0.00" timeLoss="10.32" rerouteNo="1" devices="tripinfo_randUni15030:1 routing_randUni15030:1 emissions_randUni15030:1" vType="random_016" speedFactor="0.98" vaporized="">
        <emissions CO_abs="3312.176460" CO2_abs="207141.700482" HC_abs="19.876831" PMx_abs="3.293225" NOx_abs="82.443930" fuel_abs="89.042012" electricity_abs="0"/>
    </tripinfo>
    <tripinfo id="h3688c1:1" depart="57625.00" departLane="201201950#1_1" departPos="5.10" departSpeed="0.00" departDelay="0.00" arrival="57844.00" arrivalLane="32978638#0_1" arrivalPos="49.29" arrivalSpeed="16.34" duration="219.00" routeLength="1089.75" waitingTime="131.00" waitingCount="2" stopTime="0.00" timeLoss="151.92" rerouteNo="1" devices="tripinfo_h3688c1:1 routing_h3688c1:1 emissions_h3688c1:1" vType="default_016" speedFactor="1.19" vaporized="">
        <emissions CO_abs="25020.933569" CO2_abs="638229.981057" HC_abs="128.854639" PMx_abs="14.014614" NOx_abs="277.737777" fuel_abs="274.356658" electricity_abs="0"/>
    </tripinfo>
    <tripinfo id="carIn126288:1" depart="57674.00" departLane="272042143_1" departPos="5.10" departSpeed="0.00" departDelay="0.00" arrival="57857.00" arrivalLane="-315358254#1_1" arrivalPos="137.16" arrivalSpeed="13.02" duration="183.00" routeLength="1596.88" waitingTime="45.00" waitingCount="1" stopTime="0.00" timeLoss="60.52" rerouteNo="1" devices="tripinfo_carIn126288:1 routing_carIn126288:1 emissions_carIn126288:1" vType="default_016" speedFactor="0.95" vaporized="">
        <emissions CO_abs="10510.085225" CO2_abs="420934.781978" HC_abs="57.690094" PMx_abs="7.671347" NOx_abs="172.836002" fuel_abs="180.945034" electricity_abs="0"/>
    </tripinfo>
    <tripinfo id="h17600c1:1" depart="57662.00" departLane="272042143_1" departPos="5.10" departSpeed="0.00" departDelay="0.30" arrival="57881.00" arrivalLane="201238729#3_1" arrivalPos="431.02" arrivalSpeed="12.95" duration="219.00" routeLength="2100.26" waitingTime="55.00" waitingCount="1" stopTime="0.00" timeLoss="70.37" rerouteNo="1" devices="tripinfo_h17600c1:1 routing_h17600c1:1 emissions_h17600c1:1" vType="default_016" speedFactor="1.02" vaporized="">
        <emissions CO_abs="12217.936820" CO2_abs="516169.087805" HC_abs="67.675896" PMx_abs="9.335671" NOx_abs="210.092551" fuel_abs="221.882580" electricity_abs="0"/>
    </tripinfo>
    <tripinfo id="h3536c1:1" depart="57767.00" departLane="-24634413#2_1" departPos="5.10" departSpeed="0.00" departDelay="0.00" arrival="57884.00" arrivalLane="32978638#0_1" arrivalPos="49.29" arrivalSpeed="12.66" duration="117.00" routeLength="953.61" waitingTime="3.00" waitingCount="1" stopTime="0.00" timeLoss="22.95" rerouteNo="1" devices="tripinfo_h3536c1:1 routing_h3536c1:1 emissions_h3536c1:1" vType="default_016" speedFactor="0.96" vaporized="">
        <emissions CO_abs="5499.601364" CO2_abs="286226.975412" HC_abs="31.734277" PMx_abs="5.112933" NOx_abs="118.474189" fuel_abs="123.037474" electricity_abs="0"/>
    </tripinfo>
    <tripinfo id="carIn13443:1" depart="57729.00" departLane="272042143_1" departPos="5.10" departSpeed="0.00" departDelay="0.80" arrival="57886.00" arrivalLane="399835085#1_1" arrivalPos="212.23" arrivalSpeed="8.06" duration="157.00" routeLength="1757.45" waitingTime="0.00" waitingCount="0" stopTime="0.00" timeLoss="16.13" rerouteNo="1" devices="tripinfo_carIn13443:1 routing_carIn13443:1 emissions_carIn13443:1" vType="default_016" speedFactor="1.00" vaporized="">
        <emissions CO_abs="4489.837905" CO2_abs="347858.603985" HC_abs="28.482095" PMx_abs="5.346605" NOx_abs="135.885654" fuel_abs="149.530136" electricity_abs="0"/>
    </tripinfo>
    <tripinfo id="h13377c2:3" depart="57804.00" departLane="315358244_1" departPos="5.10" departSpeed="0.00" departDelay="0.60" arrival="57888.00" arrivalLane="447569997#1_1" arrivalPos="180.93" arrivalSpeed="7.89" duration="84.00" routeLength="726.74" waitingTime="2.00" waitingCount="2" stopTime="0.00" timeLoss="15.77" rerouteNo="1" devices="tripinfo_h13377c2:3 routing_h13377c2:3 emissions_h13377c2:3" vType="default_016" speedFactor="0.98" vaporized="">
        <emissions CO_abs="3175.420887" CO2_abs="172671.116851" HC_abs="18.440709" PMx_abs="2.734348" NOx_abs="68.702037" fuel_abs="74.224840" electricity_abs="0"/>
    </tripinfo>
    <tripinfo id="carIn81681:1" depart="57726.00" departLane="272042143_1" departPos="5.10" departSpeed="0.00" departDelay="0.30" arrival="57894.00" arrivalLane="306240162#0_0" arrivalPos="220.43" arrivalSpeed="17.22" duration="168.00" routeLength="2246.89" waitingTime="6.00" waitingCount="2" stopTime="0.00" timeLoss="28.37" rerouteNo="1" devices="tripinfo_carIn81681:1 routing_carIn81681:1 emissions_carIn81681:1" vType="default_016" speedFactor="1.06" vaporized="">
        <emissions CO_abs="6852.830683" CO2_abs="513742.719439" HC_abs="43.339325" PMx_abs="9.241332" NOx_abs="207.003517" fuel_abs="220.835286" electricity_abs="0"/>
    </tripinfo>
    <tripinfo id="randUni23028:1" depart="57884.00" departLane="124812856#0_1" departPos="5.10" departSpeed="0.00" departDelay="0.10" arrival="57899.00" arrivalLane="201956810_1" arrivalPos="71.65" arrivalSpeed="14.36" duration="15.00" routeLength="134.91" waitingTime="0.00" waitingCount="0" stopTime="0.00" timeLoss="4.26" rerouteNo="1" devices="tripinfo_randUni23028:1 routing_randUni23028:1 emissions_randUni23028:1" vType="random_016" speedFactor="1.05" vaporized="">
        <emissions CO_abs="1242.526930" CO2_abs="67367.592578" HC_abs="7.261050" PMx_abs="1.332033" NOx_abs="28.598030" fuel_abs="28.958392" electricity_abs="0"/>
    </tripinfo>
    <tripinfo id="carIn132499:1" depart="57740.00" departLane="272042143_1" departPos="5.10" departSpeed="0.00" departDelay="0.70" arrival="57902.00" arrivalLane="201238729#3_1" arrivalPos="431.02" arrivalSpeed="13.54" duration="162.00" routeLength="2100.26" waitingTime="0.00" waitingCount="0" stopTime="0.00" timeLoss="16.01" rerouteNo="1" devices="tripinfo_carIn132499:1 routing_carIn132499:1 emissions_carIn132499:1" vType="default_016" speedFactor="1.04" vaporized="">
        <emissions CO_abs="3443.063629" CO2_abs="365757.869225" HC_abs="24.044265" PMx_abs="5.291583" NOx_abs="138.700554" fuel_abs="157.223902" electricity_abs="0"/>
    </tripinfo>
    <tripinfo id="carIn80913:1" depart="57732.00" departLane="272042143_1" departPos="5.10" departSpeed="0.00" departDelay="0.40" arrival="57903.00" arrivalLane="306240162#0_0" arrivalPos="220.43" arrivalSpeed="15.73" duration="171.00" routeLength="2246.89" waitingTime="0.00" waitingCount="0" stopTime="0.00" timeLoss="17.36" rerouteNo="1" devices="tripinfo_carIn80913:1 routing_carIn80913:1 emissions_carIn80913:1" vType="default_016" speedFactor="0.96" vaporized="">
        <emissions CO_abs="5621.616089" CO2_abs="468817.579059" HC_abs="36.575711" PMx_abs="8.028990" NOx_abs="186.941722" fuel_abs="201.523957" electricity_abs="0"/>
    </tripinfo>
    <tripinfo id="h7800c1:5" depart="57696.00" departLane="-447569998#1_1" departPos="5.10" departSpeed="0.00" departDelay="0.00" arrival="57915.00" arrivalLane="-447569998#1_2" arrivalPos="180.76" arrivalSpeed="3.74" duration="219.00" routeLength="175.66" waitingTime="192.00" waitingCount="1" stopTime="0.00" timeLoss="197.64" rerouteNo="1" devices="tripinfo_h7800c1:5 routing_h7800c1:5 emissions_h7800c1:5" vType="default_016" speedFactor="1.00" vaporized="">
        <emissions CO_abs="32224.272111" CO2_abs="542407.303188" HC_abs="159.453315" PMx_abs="13.281767" NOx_abs="246.880710" fuel_abs="233.172356" electricity_abs="0"/>
    </tripinfo>
    <tripinfo id="carIn81860:1" depart="57712.00" departLane="128361102#0_1" departPos="5.10" departSpeed="0.00" departDelay="0.60" arrival="57921.00" arrivalLane="-24634517#17_1" arrivalPos="6.43" arrivalSpeed="6.86" duration="209.00" routeLength="1229.64" waitingTime="73.00" waitingCount="3" stopTime="0.00" timeLoss="115.86" rerouteNo="1" devices="tripinfo_carIn81860:1 routing_carIn81860:1 emissions_carIn81860:1" vType="default_016" speedFactor="0.97" vaporized="">
        <emissions CO_abs="15648.892483" CO2_abs="471065.610240" HC_abs="82.281026" PMx_abs="9.388292" NOx_abs="199.648289" fuel_abs="202.496502" electricity_abs="0"/>
    </tripinfo>
    <tripinfo id="carIn88932:1" depart="57647.00" departLane="124812856#0_1" departPos="5.10" departSpeed="0.00" departDelay="16.40" arrival="57936.00" arrivalLane="-128361102#1_1" arrivalPos="274.68" arrivalSpeed="9.44" duration="289.00" routeLength="2232.46" waitingTime="24.00" waitingCount="3" stopTime="0.00" timeLoss="68.00" rerouteNo="1" devices="tripinfo_carIn88932:1 routing_carIn88932:1 emissions_carIn88932:1" vType="default_016" speedFactor="0.74" vaporized="">
        <emissions CO_abs="12205.182493" CO2_abs="560140.226406" HC_abs="68.458691" PMx_abs="9.110005" NOx_abs="225.825416" fuel_abs="240.784400" electricity_abs="0"/>
    </tripinfo>
    <tripinfo id="h3426c1:1" depart="57864.00" departLane="-160314345#2_1" departPos="5.10" departSpeed="0.00" departDelay="0.00" arrival="57941.00" arrivalLane="386687235_1" arrivalPos="80.84" arrivalSpeed="13.86" duration="77.00" routeLength="726.87" waitingTime="0.00" waitingCount="0" stopTime="0.00" timeLoss="8.43" rerouteNo="1" devices="tripinfo_h3426c1:1 routing_h3426c1:1 emissions_h3426c1:1" vType="default_016" speedFactor="1.00" vaporized="">
        <emissions CO_abs="3013.672278" CO2_abs="181887.155631" HC_abs="17.941665" PMx_abs="2.949337" NOx_abs="72.714432" fuel_abs="78.186091" electricity_abs="0"/>
    </tripinfo>
    <tripinfo id="carIn107282:1" depart="57749.00" departLane="-447569998#1_1" departPos="5.10" departSpeed="0.00" departDelay="0.00" arrival="57942.00" arrivalLane="315358242#0_1" arrivalPos="165.37" arrivalSpeed="12.43" duration="193.00" routeLength="448.50" waitingTime="138.00" waitingCount="1" stopTime="0.00" timeLoss="146.93" rerouteNo="1" devices="tripinfo_carIn107282:1 routing_carIn107282:1 emissions_carIn107282:1" vType="default_016" speedFactor="0.90" vaporized="">
        <emissions CO_abs="23875.280060" CO2_abs="462155.934343" HC_abs="119.538053" PMx_abs="10.657725" NOx_abs="206.001101" fuel_abs="198.671509" electricity_abs="0"/>
    </tripinfo>
    <tripinfo id="carIn121703:1" depart="57647.00" departLane="386687232#0_1" departPos="5.10" departSpeed="0.00" departDelay="0.30" arrival="57943.00" arrivalLane="-315358244_1" arrivalPos="33.95" arrivalSpeed="14.56" duration="296.00" routeLength="1157.39" waitingTime="194.00" waitingCount="3" stopTime="0.00" timeLoss="219.34" rerouteNo="1" devices="tripinfo_carIn121703:1 routing_carIn121703:1 emissions_carIn121703:1" vType="default_016" speedFactor="1.10" vaporized="">
        <emissions CO_abs="34899.144325" CO2_abs="774742.361189" HC_abs="177.091315" PMx_abs="17.518227" NOx_abs="341.710563" fuel_abs="333.042381" electricity_abs="0"/>
    </tripinfo>
    <tripinfo id="carIn73855:1" depart="57743.00" departLane="386687232#0_1" departPos="5.10" departSpeed="0.00" departDelay="0.50" arrival="57944.00" arrivalLane="-315358244_2" arrivalPos="33.95" arrivalSpeed="13.52" duration="201.00" routeLength="1157.39" waitingTime="96.00" waitingCount="2" stopTime="0.00" timeLoss="117.03" rerouteNo="1" devices="tripinfo_carIn73855:1 routing_carIn73855:1 emissions_carIn73855:1" vType="default_016" speedFactor="1.01" vaporized="">
        <emissions CO_abs="19389.805029" CO2_abs="532219.215926" HC_abs="100.760038" PMx_abs="11.103863" NOx_abs="228.434071" fuel_abs="228.785274" electricity_abs="0"/>
    </tripinfo>
    <tripinfo id="carIn126378:1" depart="57746.00" departLane="386687232#0_1" departPos="5.10" departSpeed="0.00" departDelay="1.80" arrival="57946.00" arrivalLane="-315358244_1" arrivalPos="33.95" arrivalSpeed="12.37" duration="200.00" routeLength="1157.39" waitingTime="87.00" waitingCount="1" stopTime="0.00" timeLoss="105.10" rerouteNo="1" devices="tripinfo_carIn126378:1 routing_carIn126378:1 emissions_carIn126378:1" vType="default_016" speedFactor="0.89" vaporized="">
        <emissions CO_abs="17058.402283" CO2_abs="465006.999210" HC_abs="88.556842" PMx_abs="9.534586" NOx_abs="198.994396" fuel_abs="199.893044" electricity_abs="0"/>
    </tripinfo>
    <tripinfo id="h3847c1:3" depart="57893.00" departLane="24634416_1" departPos="5.10" departSpeed="0.00" departDelay="0.00" arrival="57947.00" arrivalLane="32978638#0_1" arrivalPos="49.29" arrivalSpeed="12.33" duration="54.00" routeLength="547.99" waitingTime="0.00" waitingCount="0" stopTime="0.00" timeLoss="9.05" rerouteNo="1" devices="tripinfo_h3847c1:3 routing_h3847c1:3 emissions_h3847c1:3" vType="default_016" speedFactor="0.93" vaporized="">
        <emissions CO_abs="2643.988380" CO2_abs="165614.790697" HC_abs="15.924172" PMx_abs="2.904357" NOx_abs="67.754955" fuel_abs="71.190811" electricity_abs="0"/>
    </tripinfo>
    <tripinfo id="carIn9695:1" depart="57822.00" departLane="272042143_1" departPos="5.10" departSpeed="0.00" departDelay="0.80" arrival="57949.00" arrivalLane="-315358254#1_1" arrivalPos="137.16" arrivalSpeed="13.38" duration="127.00" routeLength="1596.88" waitingTime="0.00" waitingCount="0" stopTime="0.00" timeLoss="13.47" rerouteNo="1" devices="tripinfo_carIn9695:1 routing_carIn9695:1 emissions_carIn9695:1" vType="default_016" speedFactor="1.03" vaporized="">
        <emissions CO_abs="3869.920925" CO2_abs="325016.180690" HC_abs="25.220069" PMx_abs="5.370451" NOx_abs="128.885792" fuel_abs="139.710316" electricity_abs="0"/>
    </tripinfo>
    <tripinfo id="carIn12858:1" depart="57661.00" departLane="128361109#1_1" departPos="5.10" departSpeed="0.00" departDelay="0.90" arrival="57952.00" arrivalLane="399835085#1_1" arrivalPos="212.23" arrivalSpeed="8.34" duration="291.00" routeLength="1738.12" waitingTime="145.00" waitingCount="1" stopTime="0.00" timeLoss="182.57" rerouteNo="1" devices="tripinfo_carIn12858:1 routing_carIn12858:1 emissions_carIn12858:1" vType="default_016" speedFactor="1.07" vaporized="">
        <emissions CO_abs="31262.844633" CO2_abs="870277.127372" HC_abs="162.995230" PMx_abs="19.008777" NOx_abs="377.185602" fuel_abs="374.104876" electricity_abs="0"/>
    </tripinfo>
    <tripinfo id="randUni31145:1" depart="57930.00" departLane="10425609#0_1" departPos="5.10" departSpeed="0.00" departDelay="116.30" arrival="57963.00" arrivalLane="201956810_1" arrivalPos="71.65" arrivalSpeed="10.59" duration="33.00" routeLength="255.78" waitingTime="0.00" waitingCount="0" stopTime="0.00" timeLoss="8.09" rerouteNo="1" devices="tripinfo_randUni31145:1 routing_randUni31145:1 emissions_randUni31145:1" vType="random_016" speedFactor="0.79" vaporized="">
        <emissions CO_abs="1926.305355" CO2_abs="95625.409136" HC_abs="10.994602" PMx_abs="1.661592" NOx_abs="39.332522" fuel_abs="41.105662" electricity_abs="0"/>
    </tripinfo>
    <tripinfo id="randUni2407:1" depart="57931.00" departLane="10425609#0_1" departPos="5.10" departSpeed="0.00" departDelay="111.80" arrival="57965.00" arrivalLane="201956810_1" arrivalPos="71.65" arrivalSpeed="11.64" duration="34.00" routeLength="255.78" waitingTime="0.00" waitingCount="0" stopTime="0.00" timeLoss="11.62" rerouteNo="1" devices="tripinfo_randUni2407:1 routing_randUni2407:1 emissions_randUni2407:1" vType="random_016" speedFactor="0.89" vaporized="">
        <emissions CO_abs="2024.935517" CO2_abs="95692.450525" HC_abs="11.454001" PMx_abs="1.727070" NOx_abs="39.822241" fuel_abs="41.134461" electricity_abs="0"/>
    </tripinfo>
    <tripinfo id="h7032c2:3" depart="57863.00" departLane="315358244_1" departPos="5.10" departSpeed="0.00" departDelay="0.40" arrival="57966.00" arrivalLane="26677541_1" arrivalPos="152.31" arrivalSpeed="13.51" duration="103.00" routeLength="925.70" waitingTime="0.00" waitingCount="0" stopTime="0.00" timeLoss="13.72" rerouteNo="1" devices="tripinfo_h7032c2:3 routing_h7032c2:3 emissions_h7032c2:3" vType="default_016" speedFactor="1.00" vaporized="">
        <emissions CO_abs="4144.583605" CO2_abs="235284.722900" HC_abs="24.348207" PMx_abs="3.986865" NOx_abs="95.648809" fuel_abs="101.139491" electricity_abs="0"/>
    </tripinfo>
    <tripinfo id="randUni11215:1" depart="57953.00" departLane="124812856#0_1" departPos="5.10" departSpeed="0.00" departDelay="0.30" arrival="57968.00" arrivalLane="201956810_1" arrivalPos="71.65" arrivalSpeed="14.01" duration="15.00" routeLength="134.91" waitingTime="0.00" waitingCount="0" stopTime="0.00" timeLoss="4.36" rerouteNo="1" devices="tripinfo_randUni11215:1 routing_randUni11215:1 emissions_randUni11215:1" vType="random_016" speedFactor="1.02" vaporized="">
        <emissions CO_abs="1266.046819" CO2_abs="70828.248090" HC_abs="7.445328" PMx_abs="1.370747" NOx_abs="29.919899" fuel_abs="30.445983" electricity_abs="0"/>
    </tripinfo>
    <tripinfo id="carIn7949:1" depart="57676.00" departLane="128361109#1_1" departPos="5.10" departSpeed="0.00" departDelay="2.10" arrival="57972.00" arrivalLane="386687235_1" arrivalPos="80.84" arrivalSpeed="14.47" duration="296.00" routeLength="2088.57" waitingTime="130.00" waitingCount="2" stopTime="0.00" timeLoss="151.97" rerouteNo="1" devices="tripinfo_carIn7949:1 routing_carIn7949:1 emissions_carIn7949:1" vType="default_016" speedFactor="1.05" vaporized="">
        <emissions CO_abs="24392.930555" CO2_abs="705948.059856" HC_abs="127.574990" PMx_abs="14.260579" NOx_abs="298.336921" fuel_abs="303.465906" electricity_abs="0"/>
    </tripinfo>
    <tripinfo id="h19413c1:1" depart="57685.00" departLane="128361109#1_1" departPos="5.10" departSpeed="0.00" departDelay="5.90" arrival="57972.00" arrivalLane="386687235_2" arrivalPos="80.84" arrivalSpeed="12.98" duration="287.00" routeLength="2088.57" waitingTime="118.00" waitingCount="1" stopTime="0.00" timeLoss="139.59" rerouteNo="1" devices="tripinfo_h19413c1:1 routing_h19413c1:1 emissions_h19413c1:1" vType="default_016" speedFactor="1.02" vaporized="">
        <emissions CO_abs="23173.207576" CO2_abs="673970.859977" HC_abs="121.288545" PMx_abs="13.594796" NOx_abs="285.057801" fuel_abs="289.719765" electricity_abs="0"/>
    </tripinfo>
    <tripinfo id="carIn88905:1" depart="57688.00" departLane="128361109#1_1" departPos="5.10" departSpeed="0.00" departDelay="5.80" arrival="57974.00" arrivalLane="386687235_2" arrivalPos="80.84" arrivalSpeed="13.71" duration="286.00" routeLength="2088.57" waitingTime="118.00" waitingCount="1" stopTime="0.00" timeLoss="137.84" rerouteNo="1" devices="tripinfo_carIn88905:1 routing_carIn88905:1 emissions_carIn88905:1" vType="default_016" speedFactor="1.02" vaporized="">
        <emissions CO_abs="22715.998480" CO2_abs="685590.578184" HC_abs="119.422352" PMx_abs="13.461325" NOx_abs="287.009891" fuel_abs="294.714618" electricity_abs="0"/>
    </tripinfo>
    <tripinfo id="carIn75660:1" depart="57679.00" departLane="128361109#1_1" departPos="5.10" departSpeed="0.00" departDelay="3.40" arrival="57975.00" arrivalLane="386687235_2" arrivalPos="80.84" arrivalSpeed="14.80" duration="296.00" routeLength="2088.57" waitingTime="127.00" waitingCount="1" stopTime="0.00" timeLoss="155.92" rerouteNo="1" devices="tripinfo_carIn75660:1 routing_carIn75660:1 emissions_carIn75660:1" vType="default_016" speedFactor="1.07" vaporized="">
        <emissions CO_abs="25756.857006" CO2_abs="765017.869168" HC_abs="135.250375" PMx_abs="15.560847" NOx_abs="324.592285" fuel_abs="328.857450" electricity_abs="0"/>
    </tripinfo>
    <tripinfo id="randUni16001:1" depart="57950.00" departLane="10425609#0_1" departPos="5.10" departSpeed="0.00" departDelay="38.30" arrival="57975.00" arrivalLane="201956810_1" arrivalPos="71.65" arrivalSpeed="13.55" duration="25.00" routeLength="255.78" waitingTime="0.00" waitingCount="0" stopTime="0.00" timeLoss="5.69" rerouteNo="1" devices="tripinfo_randUni16001:1 routing_randUni16001:1 emissions_randUni16001:1" vType="random_016" speedFactor="1.01" vaporized="">
        <emissions CO_abs="1564.427114" CO2_abs="93029.385840" HC_abs="9.306256" PMx_abs="1.730452" NOx_abs="38.702305" fuel_abs="39.989321" electricity_abs="0"/>
    </tripinfo>
    <tripinfo id="carIn14532:1" depart="57743.00" departLane="272042143_1" departPos="5.10" departSpeed="0.00" departDelay="1.90" arrival="57976.00" arrivalLane="399835085#1_1" arrivalPos="212.23" arrivalSpeed="8.06" duration="233.00" routeLength="1757.45" waitingTime="41.00" waitingCount="1" stopTime="0.00" timeLoss="86.85" rerouteNo="1" devices="tripinfo_carIn14532:1 routing_carIn14532:1 emissions_carIn14532:1" vType="default_016" speedFactor="0.97" vaporized="">
        <emissions CO_abs="12275.354859" CO2_abs="496897.641516" HC_abs="67.390437" PMx_abs="8.609825" NOx_abs="203.142867" fuel_abs="213.599153" electricity_abs="0"/>
    </tripinfo>
    <tripinfo id="carIn85747:1" depart="57673.00" departLane="128361109#1_1" departPos="5.10" departSpeed="0.00" departDelay="0.70" arrival="57978.00" arrivalLane="386687235_1" arrivalPos="80.84" arrivalSpeed="11.89" duration="305.00" routeLength="2088.57" waitingTime="128.00" waitingCount="1" stopTime="0.00" timeLoss="145.69" rerouteNo="1" devices="tripinfo_carIn85747:1 routing_carIn85747:1 emissions_carIn85747:1" vType="default_016" speedFactor="0.94" vaporized="">