<?xml version="1.0" encoding="UTF-8"?>

<!-- generated on 2021-10-26 21:46:25 by Eclipse SUMO sumo Version 1.10.0
<configuration xmlns:xsi="http://www.w3.org/2001/XMLSchema-instance" xsi:noNamespaceSchemaLocation="http://sumo.dlr.de/xsd/sumoConfiguration.xsd">

    <input>
        <net-file value="/Users/behradkoohy/sumo-scratchpad/RESCO/environments/ingolstadt21/ingolstadt21.net.xml"/>
        <route-files value="/Users/behradkoohy/sumo-scratchpad/RESCO/environments/ingolstadt21/ingolstadt21.rou.xml"/>
    </input>

    <output>
        <tripinfo-output value="/Users/behradkoohy/sumo-scratchpad/RESCO/logs/MPLight-tr0-ingolstadt21-21-mplight_full-pressure/tripinfo_69.xml"/>
        <tripinfo-output.write-unfinished value="true"/>
    </output>

    <time>
        <begin value="57600"/>
        <end value="61200"/>
    </time>

    <processing>
        <time-to-teleport value="-1"/>
    </processing>

    <report>
        <no-warnings value="true"/>
        <no-step-log value="true"/>
    </report>

    <emissions>
        <device.emissions.probability value="1"/>
    </emissions>

    <traci_server>
        <remote-port value="65256"/>
    </traci_server>

    <random_number>
        <random value="true"/>
    </random_number>

</configuration>
-->

<tripinfos xmlns:xsi="http://www.w3.org/2001/XMLSchema-instance" xsi:noNamespaceSchemaLocation="http://sumo.dlr.de/xsd/tripinfo_file.xsd">
    <tripinfo id="h15454c2:3" depart="57612.00" departLane="24608844_1" departPos="5.10" departSpeed="0.00" departDelay="0.50" arrival="57650.00" arrivalLane="32978638#0_1" arrivalPos="49.29" arrivalSpeed="13.90" duration="38.00" routeLength="354.79" waitingTime="0.00" waitingCount="0" stopTime="0.00" timeLoss="5.41" rerouteNo="1" devices="tripinfo_h15454c2:3 routing_h15454c2:3 emissions_h15454c2:3" vType="default_016" speedFactor="1.05" vaporized="">
        <emissions CO_abs="1874.565253" CO2_abs="112060.433699" HC_abs="11.115977" PMx_abs="1.916518" NOx_abs="45.510634" fuel_abs="48.170195" electricity_abs="0"/>
    </tripinfo>
    <tripinfo id="carIn60260:1" depart="57606.00" departLane="315358254#0_1" departPos="5.10" departSpeed="0.00" departDelay="0.90" arrival="57663.00" arrivalLane="399835085#1_1" arrivalPos="212.23" arrivalSpeed="7.79" duration="57.00" routeLength="430.98" waitingTime="0.00" waitingCount="0" stopTime="0.00" timeLoss="11.30" rerouteNo="1" devices="tripinfo_carIn60260:1 routing_carIn60260:1 emissions_carIn60260:1" vType="default_016" speedFactor="1.02" vaporized="">
        <emissions CO_abs="2702.199683" CO2_abs="132622.273118" HC_abs="15.357001" PMx_abs="2.201033" NOx_abs="53.854341" fuel_abs="57.009367" electricity_abs="0"/>
    </tripinfo>
    <tripinfo id="carIn53971:1" depart="57640.00" departLane="272042143_1" departPos="5.10" departSpeed="0.00" departDelay="0.80" arrival="57692.00" arrivalLane="24634414#1_1" arrivalPos="162.19" arrivalSpeed="8.16" duration="52.00" routeLength="493.04" waitingTime="0.00" waitingCount="0" stopTime="0.00" timeLoss="9.53" rerouteNo="1" devices="tripinfo_carIn53971:1 routing_carIn53971:1 emissions_carIn53971:1" vType="default_016" speedFactor="1.07" vaporized="">
        <emissions CO_abs="2635.435024" CO2_abs="156139.412316" HC_abs="15.641286" PMx_abs="2.780090" NOx_abs="64.179370" fuel_abs="67.117796" electricity_abs="0"/>
    </tripinfo>
    <tripinfo id="h7800c1:5" depart="57696.00" departLane="-447569998#1_1" departPos="5.10" departSpeed="0.00" departDelay="0.00" arrival="57721.00" arrivalLane="-447569998#1_2" arrivalPos="180.76" arrivalSpeed="8.18" duration="25.00" routeLength="175.66" waitingTime="0.00" waitingCount="0" stopTime="0.00" timeLoss="2.99" rerouteNo="1" devices="tripinfo_h7800c1:5 routing_h7800c1:5 emissions_h7800c1:5" vType="default_016" speedFactor="0.99" vaporized="">
        <emissions CO_abs="1087.613035" CO2_abs="48007.073539" HC_abs="6.052035" PMx_abs="0.776442" NOx_abs="19.484944" fuel_abs="20.636563" electricity_abs="0"/>
    </tripinfo>
    <tripinfo id="h3688c1:1" depart="57625.00" departLane="201201950#1_1" departPos="5.10" departSpeed="0.00" departDelay="0.00" arrival="57734.00" arrivalLane="32978638#0_1" arrivalPos="49.29" arrivalSpeed="14.61" duration="109.00" routeLength="1089.75" waitingTime="17.00" waitingCount="2" stopTime="0.00" timeLoss="36.75" rerouteNo="1" devices="tripinfo_h3688c1:1 routing_h3688c1:1 emissions_h3688c1:1" vType="default_016" speedFactor="1.10" vaporized="">
        <emissions CO_abs="5335.422467" CO2_abs="318758.958921" HC_abs="31.549692" PMx_abs="5.760244" NOx_abs="129.958836" fuel_abs="137.021089" electricity_abs="0"/>
    </tripinfo>
    <tripinfo id="carIn22761:1" depart="57616.00" departLane="-306240162#1_0" departPos="5.10" departSpeed="0.00" departDelay="2.10" arrival="57740.00" arrivalLane="399835085#1_1" arrivalPos="212.23" arrivalSpeed="8.76" duration="124.00" routeLength="1093.26" waitingTime="22.00" waitingCount="3" stopTime="0.00" timeLoss="53.04" rerouteNo="1" devices="tripinfo_carIn22761:1 routing_carIn22761:1 emissions_carIn22761:1" vType="default_016" speedFactor="1.09" vaporized="">
        <emissions CO_abs="8115.247890" CO2_abs="405731.089970" HC_abs="46.656281" PMx_abs="8.199184" NOx_abs="171.181268" fuel_abs="174.406612" electricity_abs="0"/>
    </tripinfo>
    <tripinfo id="carIn121703:1" depart="57647.00" departLane="386687232#0_1" departPos="5.10" departSpeed="0.00" departDelay="0.30" arrival="57764.00" arrivalLane="-315358244_1" arrivalPos="33.95" arrivalSpeed="12.51" duration="117.00" routeLength="1157.39" waitingTime="4.00" waitingCount="1" stopTime="0.00" timeLoss="27.31" rerouteNo="1" devices="tripinfo_carIn121703:1 routing_carIn121703:1 emissions_carIn121703:1" vType="default_016" speedFactor="0.95" vaporized="">
        <emissions CO_abs="4366.345578" CO2_abs="273425.214862" HC_abs="26.270082" PMx_abs="4.632845" NOx_abs="110.442503" fuel_abs="117.534252" electricity_abs="0"/>
    </tripinfo>
    <tripinfo id="h5979c1:5" depart="57669.00" departLane="399835085#1_1" departPos="5.10" departSpeed="0.00" departDelay="0.00" arrival="57767.00" arrivalLane="-315358254#1_1" arrivalPos="137.16" arrivalSpeed="14.54" duration="98.00" routeLength="659.33" waitingTime="0.00" waitingCount="0" stopTime="0.00" timeLoss="30.27" rerouteNo="1" devices="tripinfo_h5979c1:5 routing_h5979c1:5 emissions_h5979c1:5" vType="default_016" speedFactor="1.09" vaporized="">
        <emissions CO_abs="4946.859551" CO2_abs="217081.518071" HC_abs="27.569240" PMx_abs="3.867989" NOx_abs="90.182156" fuel_abs="93.315259" electricity_abs="0"/>
    </tripinfo>
    <tripinfo id="h3326c1:2" depart="57656.00" departLane="22716069#0_1" departPos="5.10" departSpeed="0.00" departDelay="0.00" arrival="57769.00" arrivalLane="24634517#13_1" arrivalPos="111.62" arrivalSpeed="12.88" duration="113.00" routeLength="1312.81" waitingTime="0.00" waitingCount="0" stopTime="0.00" timeLoss="14.90" rerouteNo="1" devices="tripinfo_h3326c1:2 routing_h3326c1:2 emissions_h3326c1:2" vType="default_016" speedFactor="1.00" vaporized="">
        <emissions CO_abs="3889.401267" CO2_abs="310207.527607" HC_abs="24.917363" PMx_abs="5.124494" NOx_abs="123.493274" fuel_abs="133.344833" electricity_abs="0"/>
    </tripinfo>
    <tripinfo id="carIn27009:1" depart="57673.00" departLane="-447569998#1_1" departPos="5.10" departSpeed="0.00" departDelay="0.50" arrival="57771.00" arrivalLane="-26677539_1" arrivalPos="152.75" arrivalSpeed="7.48" duration="98.00" routeLength="699.63" waitingTime="0.00" waitingCount="0" stopTime="0.00" timeLoss="11.40" rerouteNo="1" devices="tripinfo_carIn27009:1 routing_carIn27009:1 emissions_carIn27009:1" vType="default_015" speedFactor="0.97" vaporized="">
        <emissions CO_abs="3640.057578" CO2_abs="165009.174490" HC_abs="20.345321" PMx_abs="2.606736" NOx_abs="66.586277" fuel_abs="70.931684" electricity_abs="0"/>
    </tripinfo>
    <tripinfo id="h11737c1:1" depart="57665.00" departLane="272042143_1" departPos="5.10" departSpeed="0.00" departDelay="1.50" arrival="57792.00" arrivalLane="-315358254#1_1" arrivalPos="137.16" arrivalSpeed="13.24" duration="127.00" routeLength="1596.88" waitingTime="0.00" waitingCount="0" stopTime="0.00" timeLoss="12.14" rerouteNo="1" devices="tripinfo_h11737c1:1 routing_h11737c1:1 emissions_h11737c1:1" vType="default_016" speedFactor="1.02" vaporized="">
        <emissions CO_abs="3456.934430" CO2_abs="315241.798638" HC_abs="23.017408" PMx_abs="4.913032" NOx_abs="122.708510" fuel_abs="135.508964" electricity_abs="0"/>
    </tripinfo>
    <tripinfo id="carIn126288:1" depart="57674.00" departLane="272042143_1" departPos="5.10" departSpeed="0.00" departDelay="0.00" arrival="57798.00" arrivalLane="-315358254#1_1" arrivalPos="137.16" arrivalSpeed="14.44" duration="124.00" routeLength="1596.88" waitingTime="0.00" waitingCount="0" stopTime="0.00" timeLoss="13.12" rerouteNo="1" devices="tripinfo_carIn126288:1 routing_carIn126288:1 emissions_carIn126288:1" vType="default_016" speedFactor="1.05" vaporized="">
        <emissions CO_abs="3585.759056" CO2_abs="325840.190718" HC_abs="23.927185" PMx_abs="5.254945" NOx_abs="127.715354" fuel_abs="140.064535" electricity_abs="0"/>
    </tripinfo>
    <tripinfo id="h317c2:1" depart="57707.00" departLane="-32978638#0_1" departPos="5.10" departSpeed="0.00" departDelay="0.10" arrival="57815.00" arrivalLane="-266565295#5_1" arrivalPos="172.76" arrivalSpeed="13.03" duration="108.00" routeLength="370.53" waitingTime="71.00" waitingCount="1" stopTime="0.00" timeLoss="80.59" rerouteNo="1" devices="tripinfo_h317c2:1 routing_h317c2:1 emissions_h317c2:1" vType="default_016" speedFactor="1.02" vaporized="">
        <emissions CO_abs="12645.631934" CO2_abs="286808.332497" HC_abs="64.318732" PMx_abs="6.455252" NOx_abs="126.602080" fuel_abs="123.291518" electricity_abs="0"/>
    </tripinfo>
    <tripinfo id="h330c1:1" depart="57736.00" departLane="-32978638#0_1" departPos="5.10" departSpeed="0.00" departDelay="0.20" arrival="57823.00" arrivalLane="-266565295#5_1" arrivalPos="172.76" arrivalSpeed="10.05" duration="87.00" routeLength="370.53" waitingTime="43.00" waitingCount="1" stopTime="0.00" timeLoss="51.57" rerouteNo="1" devices="tripinfo_h330c1:1 routing_h330c1:1 emissions_h330c1:1" vType="default_016" speedFactor="0.78" vaporized="">
        <emissions CO_abs="8110.585472" CO2_abs="202455.381219" HC_abs="41.648476" PMx_abs="4.182303" NOx_abs="87.218494" fuel_abs="87.030204" electricity_abs="0"/>
    </tripinfo>
    <tripinfo id="h3568c1:3" depart="57656.00" departLane="266565295#5_1" departPos="5.10" departSpeed="0.00" departDelay="0.80" arrival="57827.00" arrivalLane="-24634415_1" arrivalPos="62.03" arrivalSpeed="9.71" duration="171.00" routeLength="807.40" waitingTime="65.00" waitingCount="1" stopTime="0.00" timeLoss="83.19" rerouteNo="1" devices="tripinfo_h3568c1:3 routing_h3568c1:3 emissions_h3568c1:3" vType="default_016" speedFactor="0.74" vaporized="">
        <emissions CO_abs="14377.952181" CO2_abs="371798.549438" HC_abs="74.121982" PMx_abs="7.569144" NOx_abs="159.764097" fuel_abs="159.826040" electricity_abs="0"/>
    </tripinfo>
    <tripinfo id="randUni15030:1" depart="57735.00" departLane="386687232#0_1" departPos="5.10" departSpeed="0.00" departDelay="0.10" arrival="57828.00" arrivalLane="26677539_1" arrivalPos="151.98" arrivalSpeed="7.60" duration="93.00" routeLength="919.89" waitingTime="0.00" waitingCount="0" stopTime="0.00" timeLoss="11.61" rerouteNo="1" devices="tripinfo_randUni15030:1 routing_randUni15030:1 emissions_randUni15030:1" vType="random_016" speedFactor="1.03" vaporized="">
        <emissions CO_abs="3665.277919" CO2_abs="223169.468657" HC_abs="21.907276" PMx_abs="3.832236" NOx_abs="90.677723" fuel_abs="95.931362" electricity_abs="0"/>
    </tripinfo>
    <tripinfo id="h17600c1:1" depart="57662.00" departLane="272042143_1" departPos="5.10" departSpeed="0.00" departDelay="0.30" arrival="57840.00" arrivalLane="201238729#3_1" arrivalPos="431.02" arrivalSpeed="13.25" duration="178.00" routeLength="2100.26" waitingTime="15.00" waitingCount="1" stopTime="0.00" timeLoss="33.39" rerouteNo="1" devices="tripinfo_h17600c1:1 routing_h17600c1:1 emissions_h17600c1:1" vType="default_016" speedFactor="1.05" vaporized="">
        <emissions CO_abs="5619.665135" CO2_abs="418712.942265" HC_abs="35.305642" PMx_abs="6.720834" NOx_abs="163.763138" fuel_abs="179.987421" electricity_abs="0"/>
    </tripinfo>
    <tripinfo id="carIn81860:1" depart="57712.00" departLane="128361102#0_1" departPos="5.10" departSpeed="0.00" departDelay="0.60" arrival="57842.00" arrivalLane="-24634517#17_1" arrivalPos="6.43" arrivalSpeed="6.88" duration="130.00" routeLength="1229.64" waitingTime="18.00" waitingCount="1" stopTime="0.00" timeLoss="40.14" rerouteNo="1" devices="tripinfo_carIn81860:1 routing_carIn81860:1 emissions_carIn81860:1" vType="default_016" speedFactor="1.00" vaporized="">
        <emissions CO_abs="5720.100648" CO2_abs="303802.660902" HC_abs="33.153638" PMx_abs="5.346754" NOx_abs="123.483910" fuel_abs="130.592757" electricity_abs="0"/>
    </tripinfo>
    <tripinfo id="carIn73855:1" depart="57743.00" departLane="386687232#0_1" departPos="5.10" departSpeed="0.00" departDelay="0.50" arrival="57854.00" arrivalLane="-315358244_2" arrivalPos="33.95" arrivalSpeed="12.90" duration="111.00" routeLength="1157.39" waitingTime="4.00" waitingCount="1" stopTime="0.00" timeLoss="19.91" rerouteNo="1" devices="tripinfo_carIn73855:1 routing_carIn73855:1 emissions_carIn73855:1" vType="default_016" speedFactor="0.93" vaporized="">
        <emissions CO_abs="3696.084027" CO2_abs="257715.979047" HC_abs="22.830947" PMx_abs="4.165377" NOx_abs="102.404939" fuel_abs="110.781487" electricity_abs="0"/>
    </tripinfo>
    <tripinfo id="carIn126378:1" depart="57746.00" departLane="386687232#0_1" departPos="5.10" departSpeed="0.00" departDelay="1.80" arrival="57854.00" arrivalLane="-315358244_1" arrivalPos="33.95" arrivalSpeed="13.29" duration="108.00" routeLength="1157.39" waitingTime="10.00" waitingCount="1" stopTime="0.00" timeLoss="24.42" rerouteNo="1" devices="tripinfo_carIn126378:1 routing_carIn126378:1 emissions_carIn126378:1" vType="default_016" speedFactor="1.01" vaporized="">
        <emissions CO_abs="4622.747174" CO2_abs="277268.482879" HC_abs="27.532029" PMx_abs="4.714306" NOx_abs="111.188793" fuel_abs="119.186550" electricity_abs="0"/>
    </tripinfo>
    <tripinfo id="carIn30817:1" depart="57681.00" departLane="315358244_1" departPos="5.10" departSpeed="0.00" departDelay="0.20" arrival="57857.00" arrivalLane="447569997#1_1" arrivalPos="180.93" arrivalSpeed="8.17" duration="176.00" routeLength="718.04" waitingTime="100.00" waitingCount="1" stopTime="0.00" timeLoss="114.27" rerouteNo="1" devices="tripinfo_carIn30817:1 routing_carIn30817:1 emissions_carIn30817:1" vType="default_016" speedFactor="0.99" vaporized="">
        <emissions CO_abs="18505.113264" CO2_abs="433113.262078" HC_abs="94.372146" PMx_abs="9.171295" NOx_abs="187.355551" fuel_abs="186.184631" electricity_abs="0"/>
    </tripinfo>
    <tripinfo id="carIn107282:1" depart="57749.00" departLane="-447569998#1_1" departPos="5.10" departSpeed="0.00" departDelay="0.00" arrival="57864.00" arrivalLane="315358242#0_1" arrivalPos="165.37" arrivalSpeed="14.80" duration="115.00" routeLength="448.50" waitingTime="68.00" waitingCount="1" stopTime="0.00" timeLoss="76.35" rerouteNo="1" devices="tripinfo_carIn107282:1 routing_carIn107282:1 emissions_carIn107282:1" vType="default_016" speedFactor="1.08" vaporized="">
        <emissions CO_abs="12400.643332" CO2_abs="289347.503791" HC_abs="63.223098" PMx_abs="6.327725" NOx_abs="126.405351" fuel_abs="124.383028" electricity_abs="0"/>
    </tripinfo>
    <tripinfo id="randUni31145:1" depart="57831.00" departLane="10425609#0_1" departPos="5.10" departSpeed="0.00" departDelay="17.30" arrival="57873.00" arrivalLane="201956810_1" arrivalPos="71.65" arrivalSpeed="12.82" duration="42.00" routeLength="255.78" waitingTime="12.00" waitingCount="1" stopTime="0.00" timeLoss="22.82" rerouteNo="1" devices="tripinfo_randUni31145:1 routing_randUni31145:1 emissions_randUni31145:1" vType="random_016" speedFactor="1.01" vaporized="">
        <emissions CO_abs="3009.891455" CO2_abs="126137.048326" HC_abs="16.699296" PMx_abs="2.570070" NOx_abs="54.155820" fuel_abs="54.221276" electricity_abs="0"/>
    </tripinfo>
    <tripinfo id="randUni2407:1" depart="57832.00" departLane="10425609#0_1" departPos="5.10" departSpeed="0.00" departDelay="12.80" arrival="57875.00" arrivalLane="201956810_1" arrivalPos="71.65" arrivalSpeed="15.47" duration="43.00" routeLength="255.78" waitingTime="10.00" waitingCount="1" stopTime="0.00" timeLoss="25.36" rerouteNo="1" devices="tripinfo_randUni2407:1 routing_randUni2407:1 emissions_randUni2407:1" vType="random_016" speedFactor="1.13" vaporized="">
        <emissions CO_abs="3246.119277" CO2_abs="138832.504201" HC_abs="18.072961" PMx_abs="2.792027" NOx_abs="59.254819" fuel_abs="59.678556" electricity_abs="0"/>
    </tripinfo>
    <tripinfo id="carIn86816:1" depart="57617.00" departLane="128361102#0_1" departPos="5.10" departSpeed="0.00" departDelay="0.80" arrival="57882.00" arrivalLane="201956811#0_1" arrivalPos="40.40" arrivalSpeed="13.41" duration="265.00" routeLength="2067.33" waitingTime="75.00" waitingCount="3" stopTime="0.00" timeLoss="108.39" rerouteNo="1" devices="tripinfo_carIn86816:1 routing_carIn86816:1 emissions_carIn86816:1" vType="default_016" speedFactor="0.97" vaporized="">
        <emissions CO_abs="16738.543013" CO2_abs="642058.063405" HC_abs="91.222551" PMx_abs="11.977294" NOx_abs="265.884511" fuel_abs="275.998274" electricity_abs="0"/>
    </tripinfo>
    <tripinfo id="carIn102915:1" depart="57643.00" departLane="128361102#0_1" departPos="5.10" departSpeed="0.00" departDelay="0.40" arrival="57883.00" arrivalLane="201956811#0_1" arrivalPos="40.40" arrivalSpeed="15.07" duration="240.00" routeLength="2067.33" waitingTime="55.00" waitingCount="3" stopTime="0.00" timeLoss="110.10" rerouteNo="1" devices="tripinfo_carIn102915:1 routing_carIn102915:1 emissions_carIn102915:1" vType="default_016" speedFactor="1.16" vaporized="">
        <emissions CO_abs="14652.105769" CO2_abs="618599.337136" HC_abs="81.297052" PMx_abs="11.926187" NOx_abs="258.825718" fuel_abs="265.912322" electricity_abs="0"/>
    </tripinfo>
    <tripinfo id="carIn13443:1" depart="57729.00" departLane="272042143_1" departPos="5.10" departSpeed="0.00" departDelay="0.80" arrival="57883.00" arrivalLane="399835085#1_1" arrivalPos="212.23" arrivalSpeed="8.00" duration="154.00" routeLength="1757.45" waitingTime="0.00" waitingCount="0" stopTime="0.00" timeLoss="20.37" rerouteNo="1" devices="tripinfo_carIn13443:1 routing_carIn13443:1 emissions_carIn13443:1" vType="default_016" speedFactor="1.06" vaporized="">
        <emissions CO_abs="4796.041642" CO2_abs="369208.987810" HC_abs="30.402587" PMx_abs="5.902125" NOx_abs="145.892219" fuel_abs="158.707446" electricity_abs="0"/>
    </tripinfo>
    <tripinfo id="randUni33724:1" depart="57646.00" departLane="128361102#0_1" departPos="5.10" departSpeed="0.00" departDelay="1.20" arrival="57885.00" arrivalLane="201956811#0_1" arrivalPos="40.40" arrivalSpeed="13.96" duration="239.00" routeLength="2067.33" waitingTime="49.00" waitingCount="3" stopTime="0.00" timeLoss="100.30" rerouteNo="1" devices="tripinfo_randUni33724:1 routing_randUni33724:1 emissions_randUni33724:1" vType="random_016" speedFactor="1.09" vaporized="">
        <emissions CO_abs="13071.997094" CO2_abs="602907.549065" HC_abs="73.608974" PMx_abs="11.252959" NOx_abs="249.466677" fuel_abs="259.166575" electricity_abs="0"/>
    </tripinfo>
    <tripinfo id="carIn129809:1" depart="57729.00" departLane="-447569998#1_1" departPos="5.10" departSpeed="0.00" departDelay="1.00" arrival="57886.00" arrivalLane="-315358244_1" arrivalPos="33.95" arrivalSpeed="15.35" duration="157.00" routeLength="706.49" waitingTime="90.00" waitingCount="1" stopTime="0.00" timeLoss="106.10" rerouteNo="1" devices="tripinfo_carIn129809:1 routing_carIn129809:1 emissions_carIn129809:1" vType="default_015" speedFactor="1.19" vaporized="">
        <emissions CO_abs="16772.058946" CO2_abs="395070.596608" HC_abs="85.602365" PMx_abs="8.495982" NOx_abs="170.917846" fuel_abs="169.830823" electricity_abs="0"/>
    </tripinfo>
    <tripinfo id="h13377c2:3" depart="57804.00" departLane="315358244_1" departPos="5.10" departSpeed="0.00" departDelay="0.60" arrival="57889.00" arrivalLane="447569997#1_1" arrivalPos="180.93" arrivalSpeed="7.80" duration="85.00" routeLength="726.74" waitingTime="3.00" waitingCount="2" stopTime="0.00" timeLoss="21.03" rerouteNo="1" devices="tripinfo_h13377c2:3 routing_h13377c2:3 emissions_h13377c2:3" vType="default_016" speedFactor="1.05" vaporized="">
        <emissions CO_abs="3585.105888" CO2_abs="193879.306746" HC_abs="20.829626" PMx_abs="3.319872" NOx_abs="78.808038" fuel_abs="83.341073" electricity_abs="0"/>
    </tripinfo>
    <tripinfo id="carIn24709:1" depart="57753.00" departLane="266565295#5_1" departPos="5.10" departSpeed="0.00" departDelay="2.50" arrival="57894.00" arrivalLane="-24634506#2_1" arrivalPos="71.32" arrivalSpeed="13.13" duration="141.00" routeLength="1534.27" waitingTime="0.00" waitingCount="0" stopTime="0.00" timeLoss="21.22" rerouteNo="1" devices="tripinfo_carIn24709:1 routing_carIn24709:1 emissions_carIn24709:1" vType="default_016" speedFactor="0.96" vaporized="">
        <emissions CO_abs="5490.123175" CO2_abs="392458.037515" HC_abs="34.165870" PMx_abs="6.488651" NOx_abs="157.102661" fuel_abs="168.701186" electricity_abs="0"/>
    </tripinfo>
    <tripinfo id="carIn8642:1" depart="57774.00" departLane="-447569998#1_1" departPos="5.10" departSpeed="0.00" departDelay="0.90" arrival="57894.00" arrivalLane="-315358244_1" arrivalPos="33.95" arrivalSpeed="14.00" duration="120.00" routeLength="706.49" waitingTime="52.00" waitingCount="1" stopTime="0.00" timeLoss="64.50" rerouteNo="1" devices="tripinfo_carIn8642:1 routing_carIn8642:1 emissions_carIn8642:1" vType="default_016" speedFactor="1.09" vaporized="">
        <emissions CO_abs="10548.167964" CO2_abs="293095.730091" HC_abs="54.867793" PMx_abs="5.945605" NOx_abs="124.456478" fuel_abs="125.993344" electricity_abs="0"/>
    </tripinfo>
    <tripinfo id="carIn81681:1" depart="57726.00" departLane="272042143_1" departPos="5.10" departSpeed="0.00" departDelay="0.30" arrival="57895.00" arrivalLane="306240162#0_0" arrivalPos="220.43" arrivalSpeed="15.57" duration="169.00" routeLength="2246.89" waitingTime="0.00" waitingCount="0" stopTime="0.00" timeLoss="18.44" rerouteNo="1" devices="tripinfo_carIn81681:1 routing_carIn81681:1 emissions_carIn81681:1" vType="default_016" speedFactor="0.98" vaporized="">
        <emissions CO_abs="5476.704742" CO2_abs="470297.003378" HC_abs="35.884524" PMx_abs="7.962346" NOx_abs="186.351345" fuel_abs="202.159947" electricity_abs="0"/>
    </tripinfo>
    <tripinfo id="carIn50326:1" depart="57651.00" departLane="128361102#0_1" departPos="5.10" departSpeed="0.00" departDelay="0.30" arrival="57898.00" arrivalLane="18809673#0_1" arrivalPos="473.56" arrivalSpeed="11.20" duration="247.00" routeLength="1591.07" waitingTime="72.00" waitingCount="2" stopTime="0.00" timeLoss="99.29" rerouteNo="1" devices="tripinfo_carIn50326:1 routing_carIn50326:1 emissions_carIn50326:1" vType="default_016" speedFactor="0.88" vaporized="">
        <emissions CO_abs="15880.872431" CO2_abs="515847.691545" HC_abs="84.286235" PMx_abs="9.613401" NOx_abs="214.894533" fuel_abs="221.746815" electricity_abs="0"/>
    </tripinfo>
    <tripinfo id="carIn100288:1" depart="57664.00" departLane="128361102#0_1" departPos="5.10" departSpeed="0.00" departDelay="0.60" arrival="57900.00" arrivalLane="201956811#0_1" arrivalPos="40.40" arrivalSpeed="12.39" duration="236.00" routeLength="2067.33" waitingTime="53.00" waitingCount="1" stopTime="0.00" timeLoss="73.81" rerouteNo="1" devices="tripinfo_carIn100288:1 routing_carIn100288:1 emissions_carIn100288:1" vType="default_016" speedFactor="0.93" vaporized="">
        <emissions CO_abs="12832.783072" CO2_abs="536105.453037" HC_abs="70.905715" PMx_abs="9.405819" NOx_abs="217.611326" fuel_abs="230.452949" electricity_abs="0"/>
    </tripinfo>
    <tripinfo id="randUni23028:1" depart="57884.00" departLane="124812856#0_1" departPos="5.10" departSpeed="0.00" departDelay="0.10" arrival="57901.00" arrivalLane="201956810_1" arrivalPos="71.65" arrivalSpeed="9.94" duration="17.00" routeLength="134.91" waitingTime="0.00" waitingCount="0" stopTime="0.00" timeLoss="4.04" rerouteNo="1" devices="tripinfo_randUni23028:1 routing_randUni23028:1 emissions_randUni23028:1" vType="random_016" speedFactor="0.80" vaporized="">
        <emissions CO_abs="1287.475727" CO2_abs="60256.786385" HC_abs="7.288012" PMx_abs="1.192932" NOx_abs="25.813612" fuel_abs="25.901891" electricity_abs="0"/>
    </tripinfo>
    <tripinfo id="carIn29531:1" depart="57667.00" departLane="128361102#0_1" departPos="5.10" departSpeed="0.00" departDelay="1.60" arrival="57902.00" arrivalLane="201956811#0_1" arrivalPos="40.40" arrivalSpeed="15.92" duration="235.00" routeLength="2067.33" waitingTime="52.00" waitingCount="1" stopTime="0.00" timeLoss="104.42" rerouteNo="1" devices="tripinfo_carIn29531:1 routing_carIn29531:1 emissions_carIn29531:1" vType="default_016" speedFactor="1.16" vaporized="">
        <emissions CO_abs="14404.730044" CO2_abs="612379.481507" HC_abs="80.022142" PMx_abs="11.724323" NOx_abs="255.748535" fuel_abs="263.238678" electricity_abs="0"/>
    </tripinfo>
    <tripinfo id="carIn107084:1" depart="57601.00" departLane="124812856#0_1" departPos="5.10" departSpeed="0.00" departDelay="0.70" arrival="57910.00" arrivalLane="-128361102#1_1" arrivalPos="274.68" arrivalSpeed="15.91" duration="309.00" routeLength="2232.46" waitingTime="134.00" waitingCount="1" stopTime="0.00" timeLoss="172.15" rerouteNo="1" devices="tripinfo_carIn107084:1 routing_carIn107084:1 emissions_carIn107084:1" vType="default_016" speedFactor="1.20" vaporized="">
        <emissions CO_abs="28507.683933" CO2_abs="875799.729355" HC_abs="150.226593" PMx_abs="18.171328" NOx_abs="373.334450" fuel_abs="376.477763" electricity_abs="0"/>
    </tripinfo>
    <tripinfo id="carIn2912:1" depart="57670.00" departLane="128361102#0_1" departPos="5.10" departSpeed="0.00" departDelay="3.10" arrival="57919.00" arrivalLane="201956811#0_1" arrivalPos="40.40" arrivalSpeed="11.46" duration="249.00" routeLength="2067.33" waitingTime="56.00" waitingCount="2" stopTime="0.00" timeLoss="84.20" rerouteNo="1" devices="tripinfo_carIn2912:1 routing_carIn2912:1 emissions_carIn2912:1" vType="default_016" speedFactor="0.92" vaporized="">
        <emissions CO_abs="14946.530037" CO2_abs="600471.758222" HC_abs="82.050196" PMx_abs="10.806349" NOx_abs="246.328069" fuel_abs="258.121757" electricity_abs="0"/>
    </tripinfo>
    <tripinfo id="h3864c1:3" depart="57678.00" departLane="24693977#1_1" departPos="5.10" departSpeed="0.00" departDelay="0.00" arrival="57920.00" arrivalLane="201956820_1" arrivalPos="48.33" arrivalSpeed="12.78" duration="242.00" routeLength="1574.85" waitingTime="80.00" waitingCount="2" stopTime="0.00" timeLoss="108.34" rerouteNo="1" devices="tripinfo_h3864c1:3 routing_h3864c1:3 emissions_h3864c1:3" vType="default_016" speedFactor="0.96" vaporized="">
        <emissions CO_abs="18084.469701" CO2_abs="592999.914095" HC_abs="96.213627" PMx_abs="11.592091" NOx_abs="250.169736" fuel_abs="254.911209" electricity_abs="0"/>
    </tripinfo>
    <tripinfo id="carIn49437:1" depart="57673.00" departLane="128361102#0_1" departPos="5.10" departSpeed="0.00" departDelay="4.50" arrival="57921.00" arrivalLane="201956811#0_1" arrivalPos="40.40" arrivalSpeed="14.55" duration="248.00" routeLength="2067.33" waitingTime="56.00" waitingCount="2" stopTime="0.00" timeLoss="109.59" rerouteNo="1" devices="tripinfo_carIn49437:1 routing_carIn49437:1 emissions_carIn49437:1" vType="default_016" speedFactor="1.09" vaporized="">
        <emissions CO_abs="16100.949266" CO2_abs="655537.292961" HC_abs="88.735658" PMx_abs="12.547339" NOx_abs="274.130769" fuel_abs="281.791131" electricity_abs="0"/>
    </tripinfo>
    <tripinfo id="carIn14532:1" depart="57743.00" departLane="272042143_1" departPos="5.10" departSpeed="0.00" departDelay="1.90" arrival="57921.00" arrivalLane="399835085#1_1" arrivalPos="212.23" arrivalSpeed="7.79" duration="178.00" routeLength="1757.45" waitingTime="0.00" waitingCount="0" stopTime="0.00" timeLoss="34.28" rerouteNo="1" devices="tripinfo_carIn14532:1 routing_carIn14532:1 emissions_carIn14532:1" vType="default_016" speedFactor="0.98" vaporized="">
        <emissions CO_abs="6595.581860" CO2_abs="439546.221676" HC_abs="40.264400" PMx_abs="7.228339" NOx_abs="176.668341" fuel_abs="188.942755" electricity_abs="0"/>
    </tripinfo>
    <tripinfo id="carIn53503:1" depart="57765.00" departLane="-306240162#1_0" departPos="5.10" departSpeed="0.00" departDelay="4.40" arrival="57925.00" arrivalLane="24634510#6_1" arrivalPos="76.64" arrivalSpeed="14.02" duration="160.00" routeLength="1440.47" waitingTime="38.00" waitingCount="2" stopTime="0.00" timeLoss="65.27" rerouteNo="1" devices="tripinfo_carIn53503:1 routing_carIn53503:1 emissions_carIn53503:1" vType="default_016" speedFactor="1.05" vaporized="">
        <emissions CO_abs="9914.910234" CO2_abs="451223.476793" HC_abs="55.722905" PMx_abs="8.714919" NOx_abs="187.699471" fuel_abs="193.963227" electricity_abs="0"/>
    </tripinfo>
    <tripinfo id="carIn12152:1" depart="57647.00" departLane="24599188#0.94_1" departPos="5.10" departSpeed="0.00" departDelay="0.50" arrival="57933.00" arrivalLane="-315358254#1_1" arrivalPos="137.16" arrivalSpeed="13.06" duration="286.00" routeLength="2034.31" waitingTime="93.00" waitingCount="2" stopTime="0.00" timeLoss="119.96" rerouteNo="1" devices="tripinfo_carIn12152:1 routing_carIn12152:1 emissions_carIn12152:1" vType="default_016" speedFactor="0.95" vaporized="">