<?xml version="1.0" encoding="UTF-8"?>

<!-- generated on 2021-10-26 21:07:55 by Eclipse SUMO sumo Version 1.10.0
<configuration xmlns:xsi="http://www.w3.org/2001/XMLSchema-instance" xsi:noNamespaceSchemaLocation="http://sumo.dlr.de/xsd/sumoConfiguration.xsd">

    <input>
        <net-file value="/Users/behradkoohy/sumo-scratchpad/RESCO/environments/ingolstadt21/ingolstadt21.net.xml"/>
        <route-files value="/Users/behradkoohy/sumo-scratchpad/RESCO/environments/ingolstadt21/ingolstadt21.rou.xml"/>
    </input>

    <output>
        <tripinfo-output value="/Users/behradkoohy/sumo-scratchpad/RESCO/logs/MPLight-tr0-ingolstadt21-21-mplight_full-pressure/tripinfo_34.xml"/>
        <tripinfo-output.write-unfinished value="true"/>
    </output>

    <time>
        <begin value="57600"/>
        <end value="61200"/>
    </time>

    <processing>
        <time-to-teleport value="-1"/>
    </processing>

    <report>
        <no-warnings value="true"/>
        <no-step-log value="true"/>
    </report>

    <emissions>
        <device.emissions.probability value="1"/>
    </emissions>

    <traci_server>
        <remote-port value="64789"/>
    </traci_server>

    <random_number>
        <random value="true"/>
    </random_number>

</configuration>
-->

<tripinfos xmlns:xsi="http://www.w3.org/2001/XMLSchema-instance" xsi:noNamespaceSchemaLocation="http://sumo.dlr.de/xsd/tripinfo_file.xsd">
    <tripinfo id="carIn60260:1" depart="57606.00" departLane="315358254#0_1" departPos="5.10" departSpeed="0.00" departDelay="0.90" arrival="57656.00" arrivalLane="399835085#1_1" arrivalPos="212.23" arrivalSpeed="8.30" duration="50.00" routeLength="430.98" waitingTime="0.00" waitingCount="0" stopTime="0.00" timeLoss="6.50" rerouteNo="1" devices="tripinfo_carIn60260:1 routing_carIn60260:1 emissions_carIn60260:1" vType="default_016" speedFactor="1.05" vaporized="">
        <emissions CO_abs="2067.619637" CO2_abs="111104.593671" HC_abs="11.979228" PMx_abs="1.799880" NOx_abs="44.770544" fuel_abs="47.759627" electricity_abs="0"/>
    </tripinfo>
    <tripinfo id="h15454c2:3" depart="57612.00" departLane="24608844_1" departPos="5.10" departSpeed="0.00" departDelay="0.50" arrival="57657.00" arrivalLane="32978638#0_1" arrivalPos="49.29" arrivalSpeed="13.31" duration="45.00" routeLength="354.79" waitingTime="0.00" waitingCount="0" stopTime="0.00" timeLoss="10.57" rerouteNo="1" devices="tripinfo_h15454c2:3 routing_h15454c2:3 emissions_h15454c2:3" vType="default_016" speedFactor="1.01" vaporized="">
        <emissions CO_abs="2439.830468" CO2_abs="126647.374322" HC_abs="14.057822" PMx_abs="2.190106" NOx_abs="51.873221" fuel_abs="54.440741" electricity_abs="0"/>
    </tripinfo>
    <tripinfo id="carIn53971:1" depart="57640.00" departLane="272042143_1" departPos="5.10" departSpeed="0.00" departDelay="0.80" arrival="57696.00" arrivalLane="24634414#1_1" arrivalPos="162.19" arrivalSpeed="6.67" duration="56.00" routeLength="493.04" waitingTime="0.00" waitingCount="0" stopTime="0.00" timeLoss="7.56" rerouteNo="1" devices="tripinfo_carIn53971:1 routing_carIn53971:1 emissions_carIn53971:1" vType="default_016" speedFactor="0.94" vaporized="">
        <emissions CO_abs="2371.286945" CO2_abs="132284.757768" HC_abs="13.863010" PMx_abs="2.178411" NOx_abs="53.362750" fuel_abs="56.864058" electricity_abs="0"/>
    </tripinfo>
    <tripinfo id="S5R_frequency1.2" depart="57615.00" departLane="315358250#0_1" departPos="12.10" departSpeed="0.00" departDelay="3.40" arrival="57720.00" arrivalLane="386687235_1" arrivalPos="80.84" arrivalSpeed="13.65" duration="105.00" routeLength="1115.62" waitingTime="5.00" waitingCount="1" stopTime="0.00" timeLoss="22.76" rerouteNo="1" devices="tripinfo_S5R_frequency1.2 routing_S5R_frequency1.2 emissions_S5R_frequency1.2" vType="bus" speedFactor="1.00" vaporized="">
        <emissions CO_abs="2027.592856" CO2_abs="1253577.768272" HC_abs="431.042733" PMx_abs="217.142241" NOx_abs="9769.360036" fuel_abs="534.634028" electricity_abs="0"/>
    </tripinfo>
    <tripinfo id="h7800c1:5" depart="57696.00" departLane="-447569998#1_1" departPos="5.10" departSpeed="0.00" departDelay="0.00" arrival="57725.00" arrivalLane="-447569998#1_2" arrivalPos="180.76" arrivalSpeed="6.33" duration="29.00" routeLength="175.66" waitingTime="0.00" waitingCount="0" stopTime="0.00" timeLoss="3.23" rerouteNo="1" devices="tripinfo_h7800c1:5 routing_h7800c1:5 emissions_h7800c1:5" vType="default_016" speedFactor="0.85" vaporized="">
        <emissions CO_abs="1416.539562" CO2_abs="54152.973476" HC_abs="7.685802" PMx_abs="0.886150" NOx_abs="22.109254" fuel_abs="23.278610" electricity_abs="0"/>
    </tripinfo>
    <tripinfo id="h4538c1:1" depart="57701.00" departLane="-10427692#1_1" departPos="5.10" departSpeed="0.00" departDelay="0.00" arrival="57737.00" arrivalLane="-128361102#1_1" arrivalPos="274.68" arrivalSpeed="14.62" duration="36.00" routeLength="440.74" waitingTime="0.00" waitingCount="0" stopTime="0.00" timeLoss="6.68" rerouteNo="1" devices="tripinfo_h4538c1:1 routing_h4538c1:1 emissions_h4538c1:1" vType="default_016" speedFactor="1.08" vaporized="">
        <emissions CO_abs="1427.633061" CO2_abs="108571.541604" HC_abs="9.009957" PMx_abs="1.811681" NOx_abs="43.125240" fuel_abs="46.670270" electricity_abs="0"/>
    </tripinfo>
    <tripinfo id="h3688c1:1" depart="57625.00" departLane="201201950#1_1" departPos="5.10" departSpeed="0.00" departDelay="0.00" arrival="57745.00" arrivalLane="32978638#0_1" arrivalPos="49.29" arrivalSpeed="15.12" duration="120.00" routeLength="1089.75" waitingTime="28.00" waitingCount="2" stopTime="0.00" timeLoss="46.17" rerouteNo="1" devices="tripinfo_h3688c1:1 routing_h3688c1:1 emissions_h3688c1:1" vType="default_016" speedFactor="1.09" vaporized="">
        <emissions CO_abs="7969.775871" CO2_abs="363872.898739" HC_abs="44.695601" PMx_abs="6.818466" NOx_abs="150.003322" fuel_abs="156.414931" electricity_abs="0"/>
    </tripinfo>
    <tripinfo id="h7181c1:1" depart="57660.00" departLane="315358254#0_1" departPos="5.10" departSpeed="0.00" departDelay="0.10" arrival="57752.00" arrivalLane="306240162#0_0" arrivalPos="220.43" arrivalSpeed="15.74" duration="92.00" routeLength="932.35" waitingTime="18.00" waitingCount="1" stopTime="0.00" timeLoss="37.31" rerouteNo="1" devices="tripinfo_h7181c1:1 routing_h7181c1:1 emissions_h7181c1:1" vType="default_016" speedFactor="0.95" vaporized="">
        <emissions CO_abs="6957.561390" CO2_abs="336649.300230" HC_abs="39.566288" PMx_abs="6.669697" NOx_abs="140.717471" fuel_abs="144.711693" electricity_abs="0"/>
    </tripinfo>
    <tripinfo id="carIn22761:1" depart="57616.00" departLane="-306240162#1_0" departPos="5.10" departSpeed="0.00" departDelay="2.10" arrival="57754.00" arrivalLane="399835085#1_1" arrivalPos="212.23" arrivalSpeed="8.02" duration="138.00" routeLength="1093.26" waitingTime="43.00" waitingCount="1" stopTime="0.00" timeLoss="60.35" rerouteNo="1" devices="tripinfo_carIn22761:1 routing_carIn22761:1 emissions_carIn22761:1" vType="default_016" speedFactor="1.01" vaporized="">
        <emissions CO_abs="11098.057865" CO2_abs="395186.965463" HC_abs="59.892285" PMx_abs="7.979712" NOx_abs="166.367245" fuel_abs="169.876916" electricity_abs="0"/>
    </tripinfo>
    <tripinfo id="carIn27009:1" depart="57673.00" departLane="-447569998#1_1" departPos="5.10" departSpeed="0.00" departDelay="0.50" arrival="57763.00" arrivalLane="-26677539_1" arrivalPos="152.75" arrivalSpeed="7.80" duration="90.00" routeLength="699.63" waitingTime="0.00" waitingCount="0" stopTime="0.00" timeLoss="10.86" rerouteNo="1" devices="tripinfo_carIn27009:1 routing_carIn27009:1 emissions_carIn27009:1" vType="default_015" speedFactor="1.06" vaporized="">
        <emissions CO_abs="3682.610021" CO2_abs="186757.047068" HC_abs="21.067818" PMx_abs="3.027526" NOx_abs="75.627008" fuel_abs="80.279868" electricity_abs="0"/>
    </tripinfo>
    <tripinfo id="h317c2:1" depart="57707.00" departLane="-32978638#0_1" departPos="5.10" departSpeed="0.00" departDelay="0.10" arrival="57768.00" arrivalLane="-266565295#5_1" arrivalPos="172.76" arrivalSpeed="11.26" duration="61.00" routeLength="370.53" waitingTime="21.00" waitingCount="1" stopTime="0.00" timeLoss="29.15" rerouteNo="1" devices="tripinfo_h317c2:1 routing_h317c2:1 emissions_h317c2:1" vType="default_016" speedFactor="0.87" vaporized="">
        <emissions CO_abs="4697.383076" CO2_abs="155970.097784" HC_abs="25.035040" PMx_abs="3.027815" NOx_abs="65.829023" fuel_abs="67.046393" electricity_abs="0"/>
    </tripinfo>
    <tripinfo id="h330c1:1" depart="57736.00" departLane="-32978638#0_1" departPos="5.10" departSpeed="0.00" departDelay="0.20" arrival="57769.00" arrivalLane="-266565295#5_1" arrivalPos="172.76" arrivalSpeed="13.18" duration="33.00" routeLength="370.53" waitingTime="0.00" waitingCount="0" stopTime="0.00" timeLoss="8.89" rerouteNo="1" devices="tripinfo_h330c1:1 routing_h330c1:1 emissions_h330c1:1" vType="default_016" speedFactor="1.13" vaporized="">
        <emissions CO_abs="1925.295337" CO2_abs="120262.531584" HC_abs="11.615577" PMx_abs="2.248035" NOx_abs="50.024316" fuel_abs="51.695589" electricity_abs="0"/>
    </tripinfo>
    <tripinfo id="carIn30817:1" depart="57681.00" departLane="315358244_1" departPos="5.10" departSpeed="0.00" departDelay="0.20" arrival="57772.00" arrivalLane="447569997#1_1" arrivalPos="180.93" arrivalSpeed="8.42" duration="91.00" routeLength="718.04" waitingTime="11.00" waitingCount="2" stopTime="0.00" timeLoss="32.51" rerouteNo="1" devices="tripinfo_carIn30817:1 routing_carIn30817:1 emissions_carIn30817:1" vType="default_016" speedFactor="1.06" vaporized="">
        <emissions CO_abs="4703.426782" CO2_abs="224078.479806" HC_abs="26.656132" PMx_abs="4.049041" NOx_abs="92.421147" fuel_abs="96.322667" electricity_abs="0"/>
    </tripinfo>
    <tripinfo id="carIn48184:1" depart="57613.00" departLane="-306240162#1_0" departPos="5.10" departSpeed="0.00" departDelay="0.70" arrival="57773.00" arrivalLane="386687235_1" arrivalPos="80.84" arrivalSpeed="16.55" duration="160.00" routeLength="2257.41" waitingTime="14.00" waitingCount="1" stopTime="0.00" timeLoss="41.99" rerouteNo="1" devices="tripinfo_carIn48184:1 routing_carIn48184:1 emissions_carIn48184:1" vType="default_016" speedFactor="1.26" vaporized="">
        <emissions CO_abs="10113.576190" CO2_abs="646170.936660" HC_abs="61.519530" PMx_abs="13.066490" NOx_abs="268.382149" fuel_abs="277.759523" electricity_abs="0"/>
    </tripinfo>
    <tripinfo id="h3326c1:2" depart="57656.00" departLane="22716069#0_1" departPos="5.10" departSpeed="0.00" departDelay="0.00" arrival="57775.00" arrivalLane="24634517#13_1" arrivalPos="111.62" arrivalSpeed="12.87" duration="119.00" routeLength="1312.81" waitingTime="0.00" waitingCount="0" stopTime="0.00" timeLoss="15.05" rerouteNo="1" devices="tripinfo_h3326c1:2 routing_h3326c1:2 emissions_h3326c1:2" vType="default_016" speedFactor="0.94" vaporized="">
        <emissions CO_abs="4178.218870" CO2_abs="306860.679010" HC_abs="26.172444" PMx_abs="4.942777" NOx_abs="121.890326" fuel_abs="131.906598" electricity_abs="0"/>
    </tripinfo>
    <tripinfo id="carIn107084:1" depart="57601.00" departLane="124812856#0_1" departPos="5.10" departSpeed="0.00" departDelay="0.70" arrival="57781.00" arrivalLane="-128361102#1_1" arrivalPos="274.68" arrivalSpeed="15.87" duration="180.00" routeLength="2232.46" waitingTime="8.00" waitingCount="2" stopTime="0.00" timeLoss="44.56" rerouteNo="1" devices="tripinfo_carIn107084:1 routing_carIn107084:1 emissions_carIn107084:1" vType="default_016" speedFactor="1.21" vaporized="">
        <emissions CO_abs="7482.000067" CO2_abs="548396.413313" HC_abs="46.919701" PMx_abs="9.918052" NOx_abs="222.233109" fuel_abs="235.731324" electricity_abs="0"/>
    </tripinfo>
    <tripinfo id="h12244c1:3" depart="57612.00" departLane="315358244_1" departPos="5.10" departSpeed="0.00" departDelay="0.40" arrival="57783.00" arrivalLane="386687235_1" arrivalPos="80.84" arrivalSpeed="13.80" duration="171.00" routeLength="1186.14" waitingTime="68.00" waitingCount="1" stopTime="0.00" timeLoss="83.39" rerouteNo="1" devices="tripinfo_h12244c1:3 routing_h12244c1:3 emissions_h12244c1:3" vType="default_016" speedFactor="1.00" vaporized="">
        <emissions CO_abs="13521.809276" CO2_abs="408849.052695" HC_abs="71.055028" PMx_abs="7.993500" NOx_abs="171.422621" fuel_abs="175.751794" electricity_abs="0"/>
    </tripinfo>
    <tripinfo id="h9563c2:5" depart="57631.00" departLane="315358244_1" departPos="5.10" departSpeed="0.00" departDelay="0.70" arrival="57786.00" arrivalLane="386687235_1" arrivalPos="80.84" arrivalSpeed="11.92" duration="155.00" routeLength="1186.14" waitingTime="49.00" waitingCount="1" stopTime="0.00" timeLoss="63.71" rerouteNo="1" devices="tripinfo_h9563c2:5 routing_h9563c2:5 emissions_h9563c2:5" vType="default_016" speedFactor="0.94" vaporized="">
        <emissions CO_abs="10564.836784" CO2_abs="362155.451138" HC_abs="56.538746" PMx_abs="6.706083" NOx_abs="149.486979" fuel_abs="155.679001" electricity_abs="0"/>
    </tripinfo>
    <tripinfo id="carIn80064:1" depart="57603.00" departLane="128361109#1_1" departPos="5.10" departSpeed="0.00" departDelay="0.40" arrival="57788.00" arrivalLane="-315358254#1_1" arrivalPos="137.16" arrivalSpeed="12.34" duration="185.00" routeLength="1587.97" waitingTime="52.00" waitingCount="2" stopTime="0.00" timeLoss="88.12" rerouteNo="1" devices="tripinfo_carIn80064:1 routing_carIn80064:1 emissions_carIn80064:1" vType="default_016" speedFactor="0.93" vaporized="">
        <emissions CO_abs="14113.773285" CO2_abs="576411.784670" HC_abs="77.988244" PMx_abs="11.729208" NOx_abs="243.771965" fuel_abs="247.777097" electricity_abs="0"/>
    </tripinfo>
    <tripinfo id="h16072c2:3" depart="57663.00" departLane="315358254#0_1" departPos="5.10" departSpeed="0.00" departDelay="2.50" arrival="57792.00" arrivalLane="386687235_1" arrivalPos="80.84" arrivalSpeed="13.26" duration="129.00" routeLength="1611.92" waitingTime="0.00" waitingCount="0" stopTime="0.00" timeLoss="12.06" rerouteNo="1" devices="tripinfo_h16072c2:3 routing_h16072c2:3 emissions_h16072c2:3" vType="default_016" speedFactor="1.00" vaporized="">
        <emissions CO_abs="3472.826993" CO2_abs="314503.258089" HC_abs="23.115650" PMx_abs="4.863750" NOx_abs="122.326980" fuel_abs="135.191570" electricity_abs="0"/>
    </tripinfo>
    <tripinfo id="h3154c1:1" depart="57658.00" departLane="24634507_1" departPos="5.10" departSpeed="0.00" departDelay="0.00" arrival="57798.00" arrivalLane="-266565295#5_1" arrivalPos="172.76" arrivalSpeed="12.78" duration="140.00" routeLength="1206.22" waitingTime="25.00" waitingCount="1" stopTime="0.00" timeLoss="43.26" rerouteNo="1" devices="tripinfo_h3154c1:1 routing_h3154c1:1 emissions_h3154c1:1" vType="default_016" speedFactor="0.92" vaporized="">
        <emissions CO_abs="7291.033615" CO2_abs="338953.944416" HC_abs="41.125370" PMx_abs="6.074373" NOx_abs="139.027633" fuel_abs="145.703461" electricity_abs="0"/>
    </tripinfo>
    <tripinfo id="h11737c1:1" depart="57665.00" departLane="272042143_1" departPos="5.10" departSpeed="0.00" departDelay="1.50" arrival="57801.00" arrivalLane="-315358254#1_1" arrivalPos="137.16" arrivalSpeed="12.78" duration="136.00" routeLength="1596.88" waitingTime="4.00" waitingCount="1" stopTime="0.00" timeLoss="21.24" rerouteNo="1" devices="tripinfo_h11737c1:1 routing_h11737c1:1 emissions_h11737c1:1" vType="default_016" speedFactor="1.01" vaporized="">
        <emissions CO_abs="4513.892552" CO2_abs="356057.032075" HC_abs="28.894923" PMx_abs="5.864558" NOx_abs="141.282940" fuel_abs="153.053676" electricity_abs="0"/>
    </tripinfo>
    <tripinfo id="carIn126288:1" depart="57674.00" departLane="272042143_1" departPos="5.10" departSpeed="0.00" departDelay="0.00" arrival="57803.00" arrivalLane="-315358254#1_1" arrivalPos="137.16" arrivalSpeed="15.04" duration="129.00" routeLength="1596.88" waitingTime="0.00" waitingCount="0" stopTime="0.00" timeLoss="23.70" rerouteNo="1" devices="tripinfo_carIn126288:1 routing_carIn126288:1 emissions_carIn126288:1" vType="default_016" speedFactor="1.11" vaporized="">
        <emissions CO_abs="5033.919317" CO2_abs="383918.921350" HC_abs="31.913461" PMx_abs="6.731769" NOx_abs="154.953642" fuel_abs="165.029816" electricity_abs="0"/>
    </tripinfo>
    <tripinfo id="h5979c1:5" depart="57669.00" departLane="399835085#1_1" departPos="5.10" departSpeed="0.00" departDelay="0.00" arrival="57805.00" arrivalLane="-315358254#1_1" arrivalPos="137.16" arrivalSpeed="15.38" duration="136.00" routeLength="659.33" waitingTime="55.00" waitingCount="2" stopTime="0.00" timeLoss="70.52" rerouteNo="1" devices="tripinfo_h5979c1:5 routing_h5979c1:5 emissions_h5979c1:5" vType="default_016" speedFactor="1.12" vaporized="">
        <emissions CO_abs="11139.760041" CO2_abs="315280.799033" HC_abs="58.038873" PMx_abs="6.269305" NOx_abs="134.288367" fuel_abs="135.529949" electricity_abs="0"/>
    </tripinfo>
    <tripinfo id="carIn86816:1" depart="57617.00" departLane="128361102#0_1" departPos="5.10" departSpeed="0.00" departDelay="0.80" arrival="57807.00" arrivalLane="201956811#0_1" arrivalPos="40.40" arrivalSpeed="14.10" duration="190.00" routeLength="2067.33" waitingTime="17.00" waitingCount="2" stopTime="0.00" timeLoss="42.39" rerouteNo="1" devices="tripinfo_carIn86816:1 routing_carIn86816:1 emissions_carIn86816:1" vType="default_016" speedFactor="1.03" vaporized="">
        <emissions CO_abs="7574.200070" CO2_abs="485824.231647" HC_abs="45.882417" PMx_abs="8.304591" NOx_abs="194.753457" fuel_abs="208.835785" electricity_abs="0"/>
    </tripinfo>
    <tripinfo id="h3568c1:3" depart="57656.00" departLane="266565295#5_1" departPos="5.10" departSpeed="0.00" departDelay="0.80" arrival="57808.00" arrivalLane="-24634415_1" arrivalPos="62.03" arrivalSpeed="12.57" duration="152.00" routeLength="807.40" waitingTime="59.00" waitingCount="1" stopTime="0.00" timeLoss="80.64" rerouteNo="1" devices="tripinfo_h3568c1:3 routing_h3568c1:3 emissions_h3568c1:3" vType="default_016" speedFactor="0.91" vaporized="">
        <emissions CO_abs="14043.539635" CO2_abs="411338.973957" HC_abs="73.585863" PMx_abs="8.391019" NOx_abs="176.452028" fuel_abs="176.821811" electricity_abs="0"/>
    </tripinfo>
    <tripinfo id="carIn12365:1" depart="57713.00" departLane="315358244_1" departPos="5.10" departSpeed="0.00" departDelay="0.50" arrival="57809.00" arrivalLane="447569997#1_1" arrivalPos="180.93" arrivalSpeed="8.85" duration="96.00" routeLength="718.04" waitingTime="26.00" waitingCount="1" stopTime="0.00" timeLoss="41.59" rerouteNo="1" devices="tripinfo_carIn12365:1 routing_carIn12365:1 emissions_carIn12365:1" vType="default_016" speedFactor="1.14" vaporized="">
        <emissions CO_abs="6136.148044" CO2_abs="235889.088655" HC_abs="33.432782" PMx_abs="4.515442" NOx_abs="98.435900" fuel_abs="101.400261" electricity_abs="0"/>
    </tripinfo>
    <tripinfo id="carIn50326:1" depart="57651.00" departLane="128361102#0_1" departPos="5.10" departSpeed="0.00" departDelay="0.30" arrival="57811.00" arrivalLane="18809673#0_1" arrivalPos="473.56" arrivalSpeed="14.30" duration="160.00" routeLength="1591.07" waitingTime="18.00" waitingCount="1" stopTime="0.00" timeLoss="37.65" rerouteNo="1" devices="tripinfo_carIn50326:1 routing_carIn50326:1 emissions_carIn50326:1" vType="default_016" speedFactor="1.07" vaporized="">
        <emissions CO_abs="6780.366153" CO2_abs="371075.609871" HC_abs="39.416532" PMx_abs="6.305516" NOx_abs="149.184671" fuel_abs="159.510906" electricity_abs="0"/>
    </tripinfo>
    <tripinfo id="carIn129809:1" depart="57729.00" departLane="-447569998#1_1" departPos="5.10" departSpeed="0.00" departDelay="1.00" arrival="57813.00" arrivalLane="-315358244_2" arrivalPos="33.95" arrivalSpeed="13.89" duration="84.00" routeLength="706.49" waitingTime="10.00" waitingCount="1" stopTime="0.00" timeLoss="27.18" rerouteNo="1" devices="tripinfo_carIn129809:1 routing_carIn129809:1 emissions_carIn129809:1" vType="default_015" speedFactor="1.07" vaporized="">
        <emissions CO_abs="4136.488399" CO2_abs="215986.643313" HC_abs="23.834656" PMx_abs="3.834447" NOx_abs="88.307681" fuel_abs="92.844089" electricity_abs="0"/>
    </tripinfo>
    <tripinfo id="h645c1:1" depart="57622.00" departLane="266565295#5_1" departPos="5.10" departSpeed="0.00" departDelay="0.40" arrival="57814.00" arrivalLane="-315358244_1" arrivalPos="33.95" arrivalSpeed="13.25" duration="192.00" routeLength="1910.83" waitingTime="26.00" waitingCount="2" stopTime="0.00" timeLoss="46.82" rerouteNo="1" devices="tripinfo_h645c1:1 routing_h645c1:1 emissions_h645c1:1" vType="default_016" speedFactor="0.96" vaporized="">
        <emissions CO_abs="7896.148593" CO2_abs="437008.698900" HC_abs="46.160230" PMx_abs="7.446691" NOx_abs="175.770710" fuel_abs="187.852889" electricity_abs="0"/>
    </tripinfo>
    <tripinfo id="carIn102915:1" depart="57643.00" departLane="128361102#0_1" departPos="5.10" departSpeed="0.00" departDelay="0.40" arrival="57814.00" arrivalLane="201956811#0_1" arrivalPos="40.40" arrivalSpeed="13.95" duration="171.00" routeLength="2067.33" waitingTime="1.00" waitingCount="1" stopTime="0.00" timeLoss="21.68" rerouteNo="1" devices="tripinfo_carIn102915:1 routing_carIn102915:1 emissions_carIn102915:1" vType="default_016" speedFactor="1.02" vaporized="">
        <emissions CO_abs="5504.842102" CO2_abs="443169.941793" HC_abs="35.402701" PMx_abs="7.321869" NOx_abs="175.945773" fuel_abs="190.499650" electricity_abs="0"/>
    </tripinfo>
    <tripinfo id="randUni33724:1" depart="57646.00" departLane="128361102#0_1" departPos="5.10" departSpeed="0.00" departDelay="1.20" arrival="57815.00" arrivalLane="201956811#0_1" arrivalPos="40.40" arrivalSpeed="13.20" duration="169.00" routeLength="2067.33" waitingTime="0.00" waitingCount="0" stopTime="0.00" timeLoss="22.21" rerouteNo="1" devices="tripinfo_randUni33724:1 routing_randUni33724:1 emissions_randUni33724:1" vType="random_016" speedFactor="1.03" vaporized="">
        <emissions CO_abs="4919.757455" CO2_abs="413037.215489" HC_abs="31.989026" PMx_abs="6.614693" NOx_abs="162.316505" fuel_abs="177.547059" electricity_abs="0"/>
    </tripinfo>
    <tripinfo id="h2831c1:1" depart="57600.00" departLane="201089423#0_1" departPos="5.10" departSpeed="0.00" departDelay="0.00" arrival="57816.00" arrivalLane="-315358244_1" arrivalPos="33.95" arrivalSpeed="14.16" duration="216.00" routeLength="2672.18" waitingTime="6.00" waitingCount="1" stopTime="0.00" timeLoss="31.23" rerouteNo="1" devices="tripinfo_h2831c1:1 routing_h2831c1:1 emissions_h2831c1:1" vType="default_016" speedFactor="1.06" vaporized="">
        <emissions CO_abs="6185.818440" CO2_abs="560284.916526" HC_abs="40.921623" PMx_abs="8.628821" NOx_abs="216.564392" fuel_abs="240.842769" electricity_abs="0"/>
    </tripinfo>
    <tripinfo id="h8343c1:5" depart="57679.00" departLane="315358254#0_1" departPos="5.10" departSpeed="0.00" departDelay="0.60" arrival="57833.00" arrivalLane="-24634510#5_1" arrivalPos="236.88" arrivalSpeed="13.66" duration="154.00" routeLength="2056.84" waitingTime="9.00" waitingCount="2" stopTime="0.00" timeLoss="37.58" rerouteNo="1" devices="tripinfo_h8343c1:5 routing_h8343c1:5 emissions_h8343c1:5" vType="default_016" speedFactor="1.07" vaporized="">
        <emissions CO_abs="8521.610640" CO2_abs="560964.496120" HC_abs="52.236278" PMx_abs="11.091709" NOx_abs="233.115972" fuel_abs="241.133141" electricity_abs="0"/>
    </tripinfo>
    <tripinfo id="h17600c1:1" depart="57662.00" departLane="272042143_1" departPos="5.10" departSpeed="0.00" departDelay="0.30" arrival="57835.00" arrivalLane="201238729#3_1" arrivalPos="431.02" arrivalSpeed="16.82" duration="173.00" routeLength="2100.26" waitingTime="27.00" waitingCount="2" stopTime="0.00" timeLoss="51.20" rerouteNo="1" devices="tripinfo_h17600c1:1 routing_h17600c1:1 emissions_h17600c1:1" vType="default_016" speedFactor="1.24" vaporized="">
        <emissions CO_abs="8153.770157" CO2_abs="496508.749755" HC_abs="48.680914" PMx_abs="8.978472" NOx_abs="199.357364" fuel_abs="213.428478" electricity_abs="0"/>
    </tripinfo>
    <tripinfo id="h3864c1:3" depart="57678.00" departLane="24693977#1_1" departPos="5.10" departSpeed="0.00" departDelay="0.00" arrival="57850.00" arrivalLane="201956820_1" arrivalPos="48.33" arrivalSpeed="16.05" duration="172.00" routeLength="1574.85" waitingTime="24.00" waitingCount="3" stopTime="0.00" timeLoss="60.66" rerouteNo="1" devices="tripinfo_h3864c1:3 routing_h3864c1:3 emissions_h3864c1:3" vType="default_016" speedFactor="1.16" vaporized="">
        <emissions CO_abs="9799.906480" CO2_abs="547185.629078" HC_abs="57.564713" PMx_abs="10.462635" NOx_abs="228.754943" fuel_abs="235.211669" electricity_abs="0"/>
    </tripinfo>
    <tripinfo id="randUni31145:1" depart="57815.00" departLane="10425609#0_1" departPos="5.10" departSpeed="0.00" departDelay="1.30" arrival="57855.00" arrivalLane="201956810_1" arrivalPos="71.65" arrivalSpeed="12.47" duration="40.00" routeLength="255.78" waitingTime="9.00" waitingCount="1" stopTime="0.00" timeLoss="18.69" rerouteNo="1" devices="tripinfo_randUni31145:1 routing_randUni31145:1 emissions_randUni31145:1" vType="random_016" speedFactor="0.93" vaporized="">
        <emissions CO_abs="2855.389035" CO2_abs="117728.260064" HC_abs="15.772032" PMx_abs="2.281204" NOx_abs="49.790959" fuel_abs="50.606893" electricity_abs="0"/>
    </tripinfo>
    <tripinfo id="50R_frequency3.17" depart="57674.00" departLane="-18809673#6_1" departPos="12.10" departSpeed="0.00" departDelay="0.70" arrival="57857.00" arrivalLane="201956811#0_1" arrivalPos="40.40" arrivalSpeed="13.79" duration="183.00" routeLength="1954.47" waitingTime="8.00" waitingCount="2" stopTime="0.00" timeLoss="37.74" rerouteNo="1" devices="tripinfo_50R_frequency3.17 routing_50R_frequency3.17 emissions_50R_frequency3.17" vType="bus" speedFactor="1.00" vaporized="">
        <emissions CO_abs="3608.421382" CO2_abs="2242376.232104" HC_abs="761.730332" PMx_abs="386.395606" NOx_abs="17449.677814" fuel_abs="956.342148" electricity_abs="0"/>
    </tripinfo>
    <tripinfo id="h17549c1:1" depart="57680.00" departLane="-447569998#1_1" departPos="5.10" departSpeed="0.00" departDelay="0.00" arrival="57857.00" arrivalLane="-315358254#1_1" arrivalPos="137.16" arrivalSpeed="14.21" duration="177.00" routeLength="1746.60" waitingTime="27.00" waitingCount="1" stopTime="0.00" timeLoss="48.94" rerouteNo="1" devices="tripinfo_h17549c1:1 routing_h17549c1:1 emissions_h17549c1:1" vType="default_016" speedFactor="1.07" vaporized="">
        <emissions CO_abs="8497.343349" CO2_abs="437452.191840" HC_abs="48.688214" PMx_abs="7.545166" NOx_abs="175.685035" fuel_abs="188.043943" electricity_abs="0"/>
    </tripinfo>
    <tripinfo id="carIn118591:1" depart="57689.00" departLane="315358244_1" departPos="5.10" departSpeed="0.00" departDelay="0.20" arrival="57859.00" arrivalLane="386687235_1" arrivalPos="80.84" arrivalSpeed="15.07" duration="170.00" routeLength="1186.14" waitingTime="62.00" waitingCount="2" stopTime="0.00" timeLoss="90.58" rerouteNo="1" devices="tripinfo_carIn118591:1 routing_carIn118591:1 emissions_carIn118591:1" vType="default_016" speedFactor="1.09" vaporized="">
        <emissions CO_abs="13123.322557" CO2_abs="453926.950451" HC_abs="70.407595" PMx_abs="8.970907" NOx_abs="191.074166" fuel_abs="195.127645" electricity_abs="0"/>
    </tripinfo>
    <tripinfo id="randUni2407:1" depart="57820.00" departLane="10425609#0_1" departPos="5.10" departSpeed="0.00" departDelay="0.80" arrival="57859.00" arrivalLane="201956810_1" arrivalPos="71.65" arrivalSpeed="12.02" duration="39.00" routeLength="255.78" waitingTime="4.00" waitingCount="1" stopTime="0.00" timeLoss="15.94" rerouteNo="1" devices="tripinfo_randUni2407:1 routing_randUni2407:1 emissions_randUni2407:1" vType="random_016" speedFactor="0.89" vaporized="">
        <emissions CO_abs="2187.380227" CO2_abs="106461.413727" HC_abs="12.475757" PMx_abs="2.066714" NOx_abs="45.197224" fuel_abs="45.763346" electricity_abs="0"/>
    </tripinfo>
    <tripinfo id="carIn12152:1" depart="57647.00" departLane="24599188#0.94_1" departPos="5.10" departSpeed="0.00" departDelay="0.50" arrival="57860.00" arrivalLane="-315358254#1_1" arrivalPos="137.16" arrivalSpeed="11.43" duration="213.00" routeLength="2034.31" waitingTime="14.00" waitingCount="1" stopTime="0.00" timeLoss="38.96" rerouteNo="1" devices="tripinfo_carIn12152:1 routing_carIn12152:1 emissions_carIn12152:1" vType="default_016" speedFactor="0.91" vaporized="">
        <emissions CO_abs="7408.977443" CO2_abs="429485.939067" HC_abs="43.699077" PMx_abs="6.996454" NOx_abs="171.707019" fuel_abs="184.619233" electricity_abs="0"/>
    </tripinfo>
    <tripinfo id="carIn82220:1" depart="57619.00" departLane="-306240162#1_0" departPos="5.10" departSpeed="0.00" departDelay="3.50" arrival="57864.00" arrivalLane="386687235_1" arrivalPos="80.84" arrivalSpeed="12.73" duration="245.00" routeLength="2257.41" waitingTime="48.00" waitingCount="5" stopTime="0.00" timeLoss="89.63" rerouteNo="1" devices="tripinfo_carIn82220:1 routing_carIn82220:1 emissions_carIn82220:1" vType="default_016" speedFactor="0.95" vaporized="">
        <emissions CO_abs="12778.279892" CO2_abs="645174.094673" HC_abs="73.330350" PMx_abs="11.962255" NOx_abs="265.306002" fuel_abs="277.334534" electricity_abs="0"/>
    </tripinfo>
    <tripinfo id="carIn462:1" depart="57622.00" departLane="-306240162#1_0" departPos="5.10" departSpeed="0.00" departDelay="4.80" arrival="57864.00" arrivalLane="386687235_2" arrivalPos="80.84" arrivalSpeed="11.19" duration="242.00" routeLength="2257.41" waitingTime="23.00" waitingCount="4" stopTime="0.00" timeLoss="69.84" rerouteNo="1" devices="tripinfo_carIn462:1 routing_carIn462:1 emissions_carIn462:1" vType="default_016" speedFactor="0.86" vaporized="">
        <emissions CO_abs="9759.475493" CO2_abs="566783.727363" HC_abs="57.673185" PMx_abs="9.900725" NOx_abs="229.953259" fuel_abs="243.637244" electricity_abs="0"/>
    </tripinfo>