<?xml version="1.0" encoding="UTF-8"?>

<!-- generated on 2021-10-26 21:13:44 by Eclipse SUMO sumo Version 1.10.0
<configuration xmlns:xsi="http://www.w3.org/2001/XMLSchema-instance" xsi:noNamespaceSchemaLocation="http://sumo.dlr.de/xsd/sumoConfiguration.xsd">

    <input>
        <net-file value="/Users/behradkoohy/sumo-scratchpad/RESCO/environments/ingolstadt21/ingolstadt21.net.xml"/>
        <route-files value="/Users/behradkoohy/sumo-scratchpad/RESCO/environments/ingolstadt21/ingolstadt21.rou.xml"/>
    </input>

    <output>
        <tripinfo-output value="/Users/behradkoohy/sumo-scratchpad/RESCO/logs/MPLight-tr0-ingolstadt21-21-mplight_full-pressure/tripinfo_40.xml"/>
        <tripinfo-output.write-unfinished value="true"/>
    </output>

    <time>
        <begin value="57600"/>
        <end value="61200"/>
    </time>

    <processing>
        <time-to-teleport value="-1"/>
    </processing>

    <report>
        <no-warnings value="true"/>
        <no-step-log value="true"/>
    </report>

    <emissions>
        <device.emissions.probability value="1"/>
    </emissions>

    <traci_server>
        <remote-port value="64836"/>
    </traci_server>

    <random_number>
        <random value="true"/>
    </random_number>

</configuration>
-->

<tripinfos xmlns:xsi="http://www.w3.org/2001/XMLSchema-instance" xsi:noNamespaceSchemaLocation="http://sumo.dlr.de/xsd/tripinfo_file.xsd">
    <tripinfo id="h15454c2:3" depart="57612.00" departLane="24608844_1" departPos="5.10" departSpeed="0.00" departDelay="0.50" arrival="57656.00" arrivalLane="32978638#0_1" arrivalPos="49.29" arrivalSpeed="15.29" duration="44.00" routeLength="354.79" waitingTime="2.00" waitingCount="1" stopTime="0.00" timeLoss="13.05" rerouteNo="1" devices="tripinfo_h15454c2:3 routing_h15454c2:3 emissions_h15454c2:3" vType="default_016" speedFactor="1.11" vaporized="">
        <emissions CO_abs="2365.562900" CO2_abs="125932.135125" HC_abs="13.737004" PMx_abs="2.338593" NOx_abs="52.545261" fuel_abs="54.132998" electricity_abs="0"/>
    </tripinfo>
    <tripinfo id="carIn60260:1" depart="57606.00" departLane="315358254#0_1" departPos="5.10" departSpeed="0.00" departDelay="0.90" arrival="57662.00" arrivalLane="399835085#1_1" arrivalPos="212.23" arrivalSpeed="6.67" duration="56.00" routeLength="430.98" waitingTime="0.00" waitingCount="0" stopTime="0.00" timeLoss="7.19" rerouteNo="1" devices="tripinfo_carIn60260:1 routing_carIn60260:1 emissions_carIn60260:1" vType="default_016" speedFactor="0.95" vaporized="">
        <emissions CO_abs="2063.471842" CO2_abs="103033.821667" HC_abs="11.760902" PMx_abs="1.632061" NOx_abs="41.380903" fuel_abs="44.290481" electricity_abs="0"/>
    </tripinfo>
    <tripinfo id="carIn53971:1" depart="57640.00" departLane="272042143_1" departPos="5.10" departSpeed="0.00" departDelay="0.80" arrival="57697.00" arrivalLane="24634414#1_1" arrivalPos="162.19" arrivalSpeed="7.24" duration="57.00" routeLength="493.04" waitingTime="0.00" waitingCount="0" stopTime="0.00" timeLoss="9.04" rerouteNo="1" devices="tripinfo_carIn53971:1 routing_carIn53971:1 emissions_carIn53971:1" vType="default_016" speedFactor="0.96" vaporized="">
        <emissions CO_abs="2440.181339" CO2_abs="135465.451994" HC_abs="14.240727" PMx_abs="2.187691" NOx_abs="54.434854" fuel_abs="58.231383" electricity_abs="0"/>
    </tripinfo>
    <tripinfo id="carIn80064:1" depart="57603.00" departLane="128361109#1_1" departPos="5.10" departSpeed="0.00" departDelay="0.40" arrival="57733.00" arrivalLane="-315358254#1_1" arrivalPos="137.16" arrivalSpeed="14.03" duration="130.00" routeLength="1587.97" waitingTime="14.00" waitingCount="1" stopTime="0.00" timeLoss="41.78" rerouteNo="1" devices="tripinfo_carIn80064:1 routing_carIn80064:1 emissions_carIn80064:1" vType="default_016" speedFactor="1.01" vaporized="">
        <emissions CO_abs="8269.038213" CO2_abs="494870.943875" HC_abs="49.499035" PMx_abs="9.743443" NOx_abs="205.104450" fuel_abs="212.723266" electricity_abs="0"/>
    </tripinfo>
    <tripinfo id="carIn22761:1" depart="57616.00" departLane="-306240162#1_0" departPos="5.10" departSpeed="0.00" departDelay="2.10" arrival="57735.00" arrivalLane="399835085#1_1" arrivalPos="212.23" arrivalSpeed="7.30" duration="119.00" routeLength="1093.26" waitingTime="14.00" waitingCount="2" stopTime="0.00" timeLoss="39.27" rerouteNo="1" devices="tripinfo_carIn22761:1 routing_carIn22761:1 emissions_carIn22761:1" vType="default_016" speedFactor="0.98" vaporized="">
        <emissions CO_abs="6433.793157" CO2_abs="337505.126044" HC_abs="37.244370" PMx_abs="6.392961" NOx_abs="140.037957" fuel_abs="145.079491" electricity_abs="0"/>
    </tripinfo>
    <tripinfo id="h317c2:1" depart="57707.00" departLane="-32978638#0_1" departPos="5.10" departSpeed="0.00" departDelay="0.10" arrival="57743.00" arrivalLane="-266565295#5_1" arrivalPos="172.76" arrivalSpeed="11.78" duration="36.00" routeLength="370.53" waitingTime="0.00" waitingCount="0" stopTime="0.00" timeLoss="5.78" rerouteNo="1" devices="tripinfo_h317c2:1 routing_h317c2:1 emissions_h317c2:1" vType="default_016" speedFactor="0.91" vaporized="">
        <emissions CO_abs="1571.881146" CO2_abs="99855.655811" HC_abs="9.490592" PMx_abs="1.693146" NOx_abs="40.393911" fuel_abs="42.923812" electricity_abs="0"/>
    </tripinfo>
    <tripinfo id="h4538c1:1" depart="57701.00" departLane="-10427692#1_1" departPos="5.10" departSpeed="0.00" departDelay="0.00" arrival="57751.00" arrivalLane="-128361102#1_1" arrivalPos="274.68" arrivalSpeed="16.65" duration="50.00" routeLength="440.74" waitingTime="13.00" waitingCount="1" stopTime="0.00" timeLoss="23.65" rerouteNo="1" devices="tripinfo_h4538c1:1 routing_h4538c1:1 emissions_h4538c1:1" vType="default_016" speedFactor="1.21" vaporized="">
        <emissions CO_abs="3218.022129" CO2_abs="152352.011938" HC_abs="18.089378" PMx_abs="2.872228" NOx_abs="62.651103" fuel_abs="65.490138" electricity_abs="0"/>
    </tripinfo>
    <tripinfo id="carIn30817:1" depart="57681.00" departLane="315358244_1" departPos="5.10" departSpeed="0.00" departDelay="0.20" arrival="57761.00" arrivalLane="447569997#1_1" arrivalPos="180.93" arrivalSpeed="7.31" duration="80.00" routeLength="718.04" waitingTime="1.00" waitingCount="1" stopTime="0.00" timeLoss="19.63" rerouteNo="1" devices="tripinfo_carIn30817:1 routing_carIn30817:1 emissions_carIn30817:1" vType="default_016" speedFactor="1.02" vaporized="">
        <emissions CO_abs="3062.194256" CO2_abs="177765.091568" HC_abs="18.038970" PMx_abs="2.835229" NOx_abs="70.957890" fuel_abs="76.414328" electricity_abs="0"/>
    </tripinfo>
    <tripinfo id="h7181c1:1" depart="57660.00" departLane="315358254#0_1" departPos="5.10" departSpeed="0.00" departDelay="0.10" arrival="57762.00" arrivalLane="306240162#0_0" arrivalPos="220.43" arrivalSpeed="16.91" duration="102.00" routeLength="932.35" waitingTime="36.00" waitingCount="1" stopTime="0.00" timeLoss="51.31" rerouteNo="1" devices="tripinfo_h7181c1:1 routing_h7181c1:1 emissions_h7181c1:1" vType="default_016" speedFactor="1.03" vaporized="">
        <emissions CO_abs="8797.999613" CO2_abs="346915.953936" HC_abs="48.364272" PMx_abs="7.223594" NOx_abs="146.319796" fuel_abs="149.125890" electricity_abs="0"/>
    </tripinfo>
    <tripinfo id="h5979c1:5" depart="57669.00" departLane="399835085#1_1" departPos="5.10" departSpeed="0.00" departDelay="0.00" arrival="57762.00" arrivalLane="-315358254#1_1" arrivalPos="137.16" arrivalSpeed="12.85" duration="93.00" routeLength="659.33" waitingTime="5.00" waitingCount="1" stopTime="0.00" timeLoss="19.30" rerouteNo="1" devices="tripinfo_h5979c1:5 routing_h5979c1:5 emissions_h5979c1:5" vType="default_016" speedFactor="1.00" vaporized="">
        <emissions CO_abs="3842.867966" CO2_abs="189569.480252" HC_abs="21.874066" PMx_abs="3.138303" NOx_abs="77.028071" fuel_abs="81.488834" electricity_abs="0"/>
    </tripinfo>
    <tripinfo id="h3568c1:3" depart="57656.00" departLane="266565295#5_1" departPos="5.10" departSpeed="0.00" departDelay="0.80" arrival="57763.00" arrivalLane="-24634415_1" arrivalPos="62.03" arrivalSpeed="10.17" duration="107.00" routeLength="807.40" waitingTime="7.00" waitingCount="1" stopTime="0.00" timeLoss="26.15" rerouteNo="1" devices="tripinfo_h3568c1:3 routing_h3568c1:3 emissions_h3568c1:3" vType="default_016" speedFactor="0.80" vaporized="">
        <emissions CO_abs="4246.690585" CO2_abs="218582.254720" HC_abs="24.380043" PMx_abs="3.559409" NOx_abs="88.216499" fuel_abs="93.960297" electricity_abs="0"/>
    </tripinfo>
    <tripinfo id="h330c1:1" depart="57736.00" departLane="-32978638#0_1" departPos="5.10" departSpeed="0.00" departDelay="0.20" arrival="57773.00" arrivalLane="-266565295#5_1" arrivalPos="172.76" arrivalSpeed="11.55" duration="37.00" routeLength="370.53" waitingTime="0.00" waitingCount="0" stopTime="0.00" timeLoss="5.14" rerouteNo="1" devices="tripinfo_h330c1:1 routing_h330c1:1 emissions_h330c1:1" vType="default_016" speedFactor="0.86" vaporized="">
        <emissions CO_abs="1588.620004" CO2_abs="100493.422508" HC_abs="9.580302" PMx_abs="1.706568" NOx_abs="40.781962" fuel_abs="43.197951" electricity_abs="0"/>
    </tripinfo>
    <tripinfo id="carIn121703:1" depart="57647.00" departLane="386687232#0_1" departPos="5.10" departSpeed="0.00" departDelay="0.30" arrival="57774.00" arrivalLane="-315358244_1" arrivalPos="33.95" arrivalSpeed="12.43" duration="127.00" routeLength="1157.39" waitingTime="27.00" waitingCount="1" stopTime="0.00" timeLoss="39.76" rerouteNo="1" devices="tripinfo_carIn121703:1 routing_carIn121703:1 emissions_carIn121703:1" vType="default_016" speedFactor="0.97" vaporized="">
        <emissions CO_abs="6644.708733" CO2_abs="295223.295024" HC_abs="37.142661" PMx_abs="5.234462" NOx_abs="120.155364" fuel_abs="126.905707" electricity_abs="0"/>
    </tripinfo>
    <tripinfo id="h9563c2:5" depart="57631.00" departLane="315358244_1" departPos="5.10" departSpeed="0.00" departDelay="0.70" arrival="57777.00" arrivalLane="386687235_1" arrivalPos="80.84" arrivalSpeed="15.23" duration="146.00" routeLength="1186.14" waitingTime="52.00" waitingCount="1" stopTime="0.00" timeLoss="71.20" rerouteNo="1" devices="tripinfo_h9563c2:5 routing_h9563c2:5 emissions_h9563c2:5" vType="default_016" speedFactor="1.15" vaporized="">
        <emissions CO_abs="10863.281175" CO2_abs="388840.023145" HC_abs="58.613496" PMx_abs="7.617736" NOx_abs="162.571363" fuel_abs="167.148857" electricity_abs="0"/>
    </tripinfo>
    <tripinfo id="h3326c1:2" depart="57656.00" departLane="22716069#0_1" departPos="5.10" departSpeed="0.00" departDelay="0.00" arrival="57781.00" arrivalLane="24634517#13_1" arrivalPos="111.62" arrivalSpeed="11.33" duration="125.00" routeLength="1312.81" waitingTime="0.00" waitingCount="0" stopTime="0.00" timeLoss="15.70" rerouteNo="1" devices="tripinfo_h3326c1:2 routing_h3326c1:2 emissions_h3326c1:2" vType="default_016" speedFactor="0.90" vaporized="">
        <emissions CO_abs="3966.344884" CO2_abs="281160.924379" HC_abs="24.593130" PMx_abs="4.489482" NOx_abs="111.750459" fuel_abs="120.859491" electricity_abs="0"/>
    </tripinfo>
    <tripinfo id="h7800c1:5" depart="57696.00" departLane="-447569998#1_1" departPos="5.10" departSpeed="0.00" departDelay="0.00" arrival="57795.00" arrivalLane="-447569998#1_2" arrivalPos="180.76" arrivalSpeed="3.07" duration="99.00" routeLength="175.66" waitingTime="77.00" waitingCount="1" stopTime="0.00" timeLoss="83.94" rerouteNo="1" devices="tripinfo_h7800c1:5 routing_h7800c1:5 emissions_h7800c1:5" vType="default_016" speedFactor="1.41" vaporized="">
        <emissions CO_abs="13007.547421" CO2_abs="244418.085072" HC_abs="64.965961" PMx_abs="5.769658" NOx_abs="109.893744" fuel_abs="105.070515" electricity_abs="0"/>
    </tripinfo>
    <tripinfo id="carIn28951:1" depart="57606.00" departLane="10425609#0_1" departPos="5.10" departSpeed="0.00" departDelay="0.20" arrival="57796.00" arrivalLane="-128361102#1_1" arrivalPos="274.68" arrivalSpeed="13.16" duration="190.00" routeLength="2113.04" waitingTime="7.00" waitingCount="1" stopTime="0.00" timeLoss="33.83" rerouteNo="1" devices="tripinfo_carIn28951:1 routing_carIn28951:1 emissions_carIn28951:1" vType="default_016" speedFactor="0.99" vaporized="">
        <emissions CO_abs="6591.650896" CO2_abs="482444.934412" HC_abs="41.267275" PMx_abs="7.994365" NOx_abs="192.200342" fuel_abs="207.382703" electricity_abs="0"/>
    </tripinfo>
    <tripinfo id="carIn12858:1" depart="57661.00" departLane="128361109#1_1" departPos="5.10" departSpeed="0.00" departDelay="0.90" arrival="57796.00" arrivalLane="399835085#1_1" arrivalPos="212.23" arrivalSpeed="4.37" duration="135.00" routeLength="1738.12" waitingTime="0.00" waitingCount="0" stopTime="0.00" timeLoss="26.21" rerouteNo="1" devices="tripinfo_carIn12858:1 routing_carIn12858:1 emissions_carIn12858:1" vType="default_016" speedFactor="1.06" vaporized="">
        <emissions CO_abs="7061.885130" CO2_abs="478021.580124" HC_abs="43.572885" PMx_abs="9.158050" NOx_abs="196.122656" fuel_abs="205.480097" electricity_abs="0"/>
    </tripinfo>
    <tripinfo id="h16072c2:3" depart="57663.00" departLane="315358254#0_1" departPos="5.10" departSpeed="0.00" departDelay="2.50" arrival="57797.00" arrivalLane="386687235_1" arrivalPos="80.84" arrivalSpeed="14.57" duration="134.00" routeLength="1611.92" waitingTime="14.00" waitingCount="1" stopTime="0.00" timeLoss="29.05" rerouteNo="1" devices="tripinfo_h16072c2:3 routing_h16072c2:3 emissions_h16072c2:3" vType="default_016" speedFactor="1.12" vaporized="">
        <emissions CO_abs="5099.334208" CO2_abs="341566.884099" HC_abs="31.104775" PMx_abs="5.954248" NOx_abs="136.658845" fuel_abs="146.825209" electricity_abs="0"/>
    </tripinfo>
    <tripinfo id="carIn81860:1" depart="57712.00" departLane="128361102#0_1" departPos="5.10" departSpeed="0.00" departDelay="0.60" arrival="57799.00" arrivalLane="-24634517#17_1" arrivalPos="6.43" arrivalSpeed="8.03" duration="87.00" routeLength="1229.64" waitingTime="0.00" waitingCount="0" stopTime="0.00" timeLoss="13.22" rerouteNo="1" devices="tripinfo_carIn81860:1 routing_carIn81860:1 emissions_carIn81860:1" vType="default_016" speedFactor="1.21" vaporized="">
        <emissions CO_abs="3159.427529" CO2_abs="256472.640445" HC_abs="20.393107" PMx_abs="4.551636" NOx_abs="102.835982" fuel_abs="110.246123" electricity_abs="0"/>
    </tripinfo>
    <tripinfo id="carIn86816:1" depart="57617.00" departLane="128361102#0_1" departPos="5.10" departSpeed="0.00" departDelay="0.80" arrival="57801.00" arrivalLane="201956811#0_1" arrivalPos="40.40" arrivalSpeed="12.21" duration="184.00" routeLength="2067.33" waitingTime="0.00" waitingCount="0" stopTime="0.00" timeLoss="18.42" rerouteNo="1" devices="tripinfo_carIn86816:1 routing_carIn86816:1 emissions_carIn86816:1" vType="default_016" speedFactor="0.91" vaporized="">
        <emissions CO_abs="5317.241712" CO2_abs="415580.412815" HC_abs="33.873121" PMx_abs="6.521642" NOx_abs="163.711926" fuel_abs="178.640672" electricity_abs="0"/>
    </tripinfo>
    <tripinfo id="carIn50326:1" depart="57651.00" departLane="128361102#0_1" departPos="5.10" departSpeed="0.00" departDelay="0.30" arrival="57803.00" arrivalLane="18809673#0_1" arrivalPos="473.56" arrivalSpeed="13.16" duration="152.00" routeLength="1591.07" waitingTime="0.00" waitingCount="0" stopTime="0.00" timeLoss="15.00" rerouteNo="1" devices="tripinfo_carIn50326:1 routing_carIn50326:1 emissions_carIn50326:1" vType="default_016" speedFactor="0.95" vaporized="">
        <emissions CO_abs="4235.842914" CO2_abs="311444.102494" HC_abs="26.469202" PMx_abs="4.691718" NOx_abs="121.522503" fuel_abs="133.877320" electricity_abs="0"/>
    </tripinfo>
    <tripinfo id="carIn118591:1" depart="57689.00" departLane="315358244_1" departPos="5.10" departSpeed="0.00" departDelay="0.20" arrival="57806.00" arrivalLane="386687235_1" arrivalPos="80.84" arrivalSpeed="13.76" duration="117.00" routeLength="1186.14" waitingTime="6.00" waitingCount="3" stopTime="0.00" timeLoss="29.75" rerouteNo="1" devices="tripinfo_carIn118591:1 routing_carIn118591:1 emissions_carIn118591:1" vType="default_016" speedFactor="0.99" vaporized="">
        <emissions CO_abs="4047.030347" CO2_abs="276993.302642" HC_abs="24.871796" PMx_abs="4.483225" NOx_abs="110.029797" fuel_abs="119.068076" electricity_abs="0"/>
    </tripinfo>
    <tripinfo id="h645c1:1" depart="57622.00" departLane="266565295#5_1" departPos="5.10" departSpeed="0.00" departDelay="0.40" arrival="57809.00" arrivalLane="-315358244_1" arrivalPos="33.95" arrivalSpeed="11.90" duration="187.00" routeLength="1910.83" waitingTime="10.00" waitingCount="2" stopTime="0.00" timeLoss="36.14" rerouteNo="1" devices="tripinfo_h645c1:1 routing_h645c1:1 emissions_h645c1:1" vType="default_016" speedFactor="0.92" vaporized="">
        <emissions CO_abs="6301.372623" CO2_abs="400096.986378" HC_abs="37.996914" PMx_abs="6.493742" NOx_abs="159.189388" fuel_abs="171.985656" electricity_abs="0"/>
    </tripinfo>
    <tripinfo id="h12244c1:3" depart="57612.00" departLane="315358244_1" departPos="5.10" departSpeed="0.00" departDelay="0.40" arrival="57810.00" arrivalLane="386687235_1" arrivalPos="80.84" arrivalSpeed="10.70" duration="198.00" routeLength="1186.14" waitingTime="68.00" waitingCount="3" stopTime="0.00" timeLoss="90.52" rerouteNo="1" devices="tripinfo_h12244c1:3 routing_h12244c1:3 emissions_h12244c1:3" vType="default_016" speedFactor="0.81" vaporized="">
        <emissions CO_abs="14343.851561" CO2_abs="430482.994320" HC_abs="75.298021" PMx_abs="8.154928" NOx_abs="180.205739" fuel_abs="185.051927" electricity_abs="0"/>
    </tripinfo>
    <tripinfo id="carIn102915:1" depart="57643.00" departLane="128361102#0_1" departPos="5.10" departSpeed="0.00" departDelay="0.40" arrival="57815.00" arrivalLane="201956811#0_1" arrivalPos="40.40" arrivalSpeed="13.22" duration="172.00" routeLength="2067.33" waitingTime="4.00" waitingCount="1" stopTime="0.00" timeLoss="23.10" rerouteNo="1" devices="tripinfo_carIn102915:1 routing_carIn102915:1 emissions_carIn102915:1" vType="default_016" speedFactor="1.02" vaporized="">
        <emissions CO_abs="5441.747051" CO2_abs="413813.507985" HC_abs="34.399414" PMx_abs="6.811495" NOx_abs="164.111994" fuel_abs="177.880880" electricity_abs="0"/>
    </tripinfo>
    <tripinfo id="h3688c1:1" depart="57625.00" departLane="201201950#1_1" departPos="5.10" departSpeed="0.00" departDelay="0.00" arrival="57816.00" arrivalLane="32978638#0_1" arrivalPos="49.29" arrivalSpeed="10.75" duration="191.00" routeLength="1089.75" waitingTime="82.00" waitingCount="1" stopTime="0.00" timeLoss="97.71" rerouteNo="1" devices="tripinfo_h3688c1:1 routing_h3688c1:1 emissions_h3688c1:1" vType="default_016" speedFactor="0.86" vaporized="">
        <emissions CO_abs="16166.294317" CO2_abs="457724.908960" HC_abs="84.262854" PMx_abs="8.972066" NOx_abs="193.258928" fuel_abs="196.762775" electricity_abs="0"/>
    </tripinfo>
    <tripinfo id="carIn107282:1" depart="57749.00" departLane="-447569998#1_1" departPos="5.10" departSpeed="0.00" departDelay="0.00" arrival="57819.00" arrivalLane="315358242#0_1" arrivalPos="165.37" arrivalSpeed="14.06" duration="70.00" routeLength="448.50" waitingTime="22.00" waitingCount="1" stopTime="0.00" timeLoss="30.08" rerouteNo="1" devices="tripinfo_carIn107282:1 routing_carIn107282:1 emissions_carIn107282:1" vType="default_016" speedFactor="1.06" vaporized="">
        <emissions CO_abs="5270.495592" CO2_abs="173328.961491" HC_abs="28.051525" PMx_abs="3.371523" NOx_abs="73.111020" fuel_abs="74.508437" electricity_abs="0"/>
    </tripinfo>
    <tripinfo id="randUni33724:1" depart="57646.00" departLane="128361102#0_1" departPos="5.10" departSpeed="0.00" departDelay="1.20" arrival="57832.00" arrivalLane="201956811#0_1" arrivalPos="40.40" arrivalSpeed="12.21" duration="186.00" routeLength="2067.33" waitingTime="0.00" waitingCount="0" stopTime="0.00" timeLoss="21.77" rerouteNo="1" devices="tripinfo_randUni33724:1 routing_randUni33724:1 emissions_randUni33724:1" vType="random_016" speedFactor="0.92" vaporized="">
        <emissions CO_abs="5412.711823" CO2_abs="430701.944928" HC_abs="34.631386" PMx_abs="6.577368" NOx_abs="168.227984" fuel_abs="185.141008" electricity_abs="0"/>
    </tripinfo>
    <tripinfo id="50R_frequency3.17" depart="57674.00" departLane="-18809673#6_1" departPos="12.10" departSpeed="0.00" departDelay="0.70" arrival="57834.00" arrivalLane="201956811#0_1" arrivalPos="40.40" arrivalSpeed="13.34" duration="160.00" routeLength="1954.47" waitingTime="0.00" waitingCount="0" stopTime="0.00" timeLoss="15.67" rerouteNo="1" devices="tripinfo_50R_frequency3.17 routing_50R_frequency3.17 emissions_50R_frequency3.17" vType="bus" speedFactor="1.00" vaporized="">
        <emissions CO_abs="2867.392571" CO2_abs="1840975.404085" HC_abs="605.976277" PMx_abs="308.651968" NOx_abs="14159.304501" fuel_abs="785.174719" electricity_abs="0"/>
    </tripinfo>
    <tripinfo id="h11737c1:1" depart="57665.00" departLane="272042143_1" departPos="5.10" departSpeed="0.00" departDelay="1.50" arrival="57839.00" arrivalLane="-315358254#1_1" arrivalPos="137.16" arrivalSpeed="10.49" duration="174.00" routeLength="1596.88" waitingTime="14.00" waitingCount="1" stopTime="0.00" timeLoss="28.49" rerouteNo="1" devices="tripinfo_h11737c1:1 routing_h11737c1:1 emissions_h11737c1:1" vType="default_016" speedFactor="0.80" vaporized="">
        <emissions CO_abs="6055.248677" CO2_abs="354932.355831" HC_abs="35.729682" PMx_abs="5.396915" NOx_abs="139.653546" fuel_abs="152.572064" electricity_abs="0"/>
    </tripinfo>
    <tripinfo id="carIn12152:1" depart="57647.00" departLane="24599188#0.94_1" departPos="5.10" departSpeed="0.00" departDelay="0.50" arrival="57841.00" arrivalLane="-315358254#1_1" arrivalPos="137.16" arrivalSpeed="14.02" duration="194.00" routeLength="2034.31" waitingTime="13.00" waitingCount="2" stopTime="0.00" timeLoss="50.55" rerouteNo="1" devices="tripinfo_carIn12152:1 routing_carIn12152:1 emissions_carIn12152:1" vType="default_016" speedFactor="1.11" vaporized="">
        <emissions CO_abs="7068.670666" CO2_abs="439144.204265" HC_abs="42.354075" PMx_abs="7.387406" NOx_abs="175.863677" fuel_abs="188.770261" electricity_abs="0"/>
    </tripinfo>
    <tripinfo id="carIn126288:1" depart="57674.00" departLane="272042143_1" departPos="5.10" departSpeed="0.00" departDelay="0.00" arrival="57843.00" arrivalLane="-315358254#1_1" arrivalPos="137.16" arrivalSpeed="11.40" duration="169.00" routeLength="1596.88" waitingTime="18.00" waitingCount="1" stopTime="0.00" timeLoss="38.38" rerouteNo="1" devices="tripinfo_carIn126288:1 routing_carIn126288:1 emissions_carIn126288:1" vType="default_016" speedFactor="0.89" vaporized="">
        <emissions CO_abs="6335.648745" CO2_abs="347617.350800" HC_abs="36.929480" PMx_abs="5.787611" NOx_abs="139.577214" fuel_abs="149.427245" electricity_abs="0"/>
    </tripinfo>
    <tripinfo id="h17600c1:1" depart="57662.00" departLane="272042143_1" departPos="5.10" departSpeed="0.00" departDelay="0.30" arrival="57844.00" arrivalLane="201238729#3_1" arrivalPos="431.02" arrivalSpeed="12.12" duration="182.00" routeLength="2100.26" waitingTime="0.00" waitingCount="0" stopTime="0.00" timeLoss="14.02" rerouteNo="1" devices="tripinfo_h17600c1:1 routing_h17600c1:1 emissions_h17600c1:1" vType="default_016" speedFactor="0.90" vaporized="">
        <emissions CO_abs="4262.179546" CO2_abs="385358.213935" HC_abs="28.305029" PMx_abs="5.577306" NOx_abs="148.176066" fuel_abs="165.649618" electricity_abs="0"/>
    </tripinfo>
    <tripinfo id="h3154c1:1" depart="57658.00" departLane="24634507_1" departPos="5.10" departSpeed="0.00" departDelay="0.00" arrival="57846.00" arrivalLane="-266565295#5_1" arrivalPos="172.76" arrivalSpeed="12.88" duration="188.00" routeLength="1206.22" waitingTime="72.00" waitingCount="3" stopTime="0.00" timeLoss="100.40" rerouteNo="1" devices="tripinfo_h3154c1:1 routing_h3154c1:1 emissions_h3154c1:1" vType="default_016" speedFactor="1.02" vaporized="">
        <emissions CO_abs="15110.495427" CO2_abs="497616.239015" HC_abs="80.467079" PMx_abs="10.021727" NOx_abs="211.451153" fuel_abs="213.908423" electricity_abs="0"/>
    </tripinfo>
    <tripinfo id="randUni15030:1" depart="57735.00" departLane="386687232#0_1" departPos="5.10" departSpeed="0.00" departDelay="0.10" arrival="57847.00" arrivalLane="26677539_1" arrivalPos="151.98" arrivalSpeed="8.61" duration="112.00" routeLength="919.89" waitingTime="27.00" waitingCount="1" stopTime="0.00" timeLoss="40.08" rerouteNo="1" devices="tripinfo_randUni15030:1 routing_randUni15030:1 emissions_randUni15030:1" vType="random_016" speedFactor="1.16" vaporized="">
        <emissions CO_abs="6931.730351" CO2_abs="290406.292270" HC_abs="38.298715" PMx_abs="5.387707" NOx_abs="120.046064" fuel_abs="124.834983" electricity_abs="0"/>
    </tripinfo>
    <tripinfo id="carIn27009:1" depart="57673.00" departLane="-447569998#1_1" departPos="5.10" departSpeed="0.00" departDelay="0.50" arrival="57856.00" arrivalLane="-26677539_1" arrivalPos="152.75" arrivalSpeed="9.37" duration="183.00" routeLength="699.63" waitingTime="96.00" waitingCount="1" stopTime="0.00" timeLoss="108.54" rerouteNo="1" devices="tripinfo_carIn27009:1 routing_carIn27009:1 emissions_carIn27009:1" vType="default_015" speedFactor="1.13" vaporized="">
        <emissions CO_abs="18380.276409" CO2_abs="422888.635891" HC_abs="93.543815" PMx_abs="8.964183" NOx_abs="183.887183" fuel_abs="181.789478" electricity_abs="0"/>
    </tripinfo>
    <tripinfo id="h8343c1:5" depart="57679.00" departLane="315358254#0_1" departPos="5.10" departSpeed="0.00" departDelay="0.60" arrival="57858.00" arrivalLane="-24634510#5_1" arrivalPos="236.88" arrivalSpeed="12.66" duration="179.00" routeLength="2056.84" waitingTime="21.00" waitingCount="2" stopTime="0.00" timeLoss="54.02" rerouteNo="1" devices="tripinfo_h8343c1:5 routing_h8343c1:5 emissions_h8343c1:5" vType="default_016" speedFactor="1.00" vaporized="">
        <emissions CO_abs="9805.073635" CO2_abs="586676.178787" HC_abs="58.643979" PMx_abs="11.278115" NOx_abs="241.725062" fuel_abs="252.186687" electricity_abs="0"/>
    </tripinfo>
    <tripinfo id="carIn46110:1" depart="57684.00" departLane="315358244_1" departPos="5.10" departSpeed="0.00" departDelay="1.20" arrival="57860.00" arrivalLane="32978638#0_1" arrivalPos="49.29" arrivalSpeed="14.81" duration="176.00" routeLength="1764.04" waitingTime="21.00" waitingCount="3" stopTime="0.00" timeLoss="57.08" rerouteNo="1" devices="tripinfo_carIn46110:1 routing_carIn46110:1 emissions_carIn46110:1" vType="default_016" speedFactor="1.09" vaporized="">
        <emissions CO_abs="7370.126184" CO2_abs="464809.043608" HC_abs="44.272640" PMx_abs="8.151769" NOx_abs="187.958645" fuel_abs="199.801941" electricity_abs="0"/>
    </tripinfo>
    <tripinfo id="h6541c1:3" depart="57727.00" departLane="201950247#3_1" departPos="5.10" departSpeed="0.00" departDelay="0.00" arrival="57862.00" arrivalLane="32978638#0_1" arrivalPos="49.29" arrivalSpeed="13.00" duration="135.00" routeLength="1176.17" waitingTime="6.00" waitingCount="3" stopTime="0.00" timeLoss="35.37" rerouteNo="1" devices="tripinfo_h6541c1:3 routing_h6541c1:3 emissions_h6541c1:3" vType="default_016" speedFactor="1.02" vaporized="">
        <emissions CO_abs="6309.682199" CO2_abs="340646.718690" HC_abs="36.706916" PMx_abs="6.112264" NOx_abs="140.512978" fuel_abs="146.430158" electricity_abs="0"/>
    </tripinfo>
    <tripinfo id="carIn73855:1" depart="57743.00" departLane="386687232#0_1" departPos="5.10" departSpeed="0.00" departDelay="0.50" arrival="57862.00" arrivalLane="-315358244_2" arrivalPos="33.95" arrivalSpeed="14.39" duration="119.00" routeLength="1157.39" waitingTime="23.00" waitingCount="2" stopTime="0.00" timeLoss="42.12" rerouteNo="1" devices="tripinfo_carIn73855:1 routing_carIn73855:1 emissions_carIn73855:1" vType="default_016" speedFactor="1.10" vaporized="">
        <emissions CO_abs="5966.030854" CO2_abs="306401.919728" HC_abs="34.303899" PMx_abs="5.535502" NOx_abs="124.715119" fuel_abs="131.710092" electricity_abs="0"/>
    </tripinfo>
    <tripinfo id="carIn129809:1" depart="57729.00" departLane="-447569998#1_1" departPos="5.10" departSpeed="0.00" departDelay="1.00" arrival="57864.00" arrivalLane="-315358244_1" arrivalPos="33.95" arrivalSpeed="12.92" duration="135.00" routeLength="706.49" waitingTime="50.00" waitingCount="3" stopTime="0.00" timeLoss="72.95" rerouteNo="1" devices="tripinfo_carIn129809:1 routing_carIn129809:1 emissions_carIn129809:1" vType="default_015" speedFactor="0.98" vaporized="">
        <emissions CO_abs="10618.071345" CO2_abs="324503.389707" HC_abs="55.939583" PMx_abs="6.458983" NOx_abs="137.949503" fuel_abs="139.493772" electricity_abs="0"/>
    </tripinfo>
    <tripinfo id="h3536c1:1" depart="57767.00" departLane="-24634413#2_1" departPos="5.10" departSpeed="0.00" departDelay="0.00" arrival="57864.00" arrivalLane="32978638#0_1" arrivalPos="49.29" arrivalSpeed="15.45" duration="97.00" routeLength="953.61" waitingTime="0.00" waitingCount="0" stopTime="0.00" timeLoss="19.66" rerouteNo="1" devices="tripinfo_h3536c1:1 routing_h3536c1:1 emissions_h3536c1:1" vType="default_016" speedFactor="1.17" vaporized="">
        <emissions CO_abs="4607.003845" CO2_abs="288717.229426" HC_abs="27.651352" PMx_abs="5.072634" NOx_abs="118.001606" fuel_abs="124.107339" electricity_abs="0"/>
    </tripinfo>
    <tripinfo id="carIn8642:1" depart="57774.00" departLane="-447569998#1_1" departPos="5.10" departSpeed="0.00" departDelay="0.90" arrival="57868.00" arrivalLane="-315358244_1" arrivalPos="33.95" arrivalSpeed="11.65" duration="94.00" routeLength="706.49" waitingTime="8.00" waitingCount="1" stopTime="0.00" timeLoss="22.68" rerouteNo="1" devices="tripinfo_carIn8642:1 routing_carIn8642:1 emissions_carIn8642:1" vType="default_016" speedFactor="0.85" vaporized="">
        <emissions CO_abs="3776.503503" CO2_abs="183602.147970" HC_abs="21.432730" PMx_abs="3.012822" NOx_abs="74.072765" fuel_abs="78.923826" electricity_abs="0"/>
    </tripinfo>