<?xml version="1.0" encoding="UTF-8"?>

<!-- generated on 2021-10-26 21:14:40 by Eclipse SUMO sumo Version 1.10.0
<configuration xmlns:xsi="http://www.w3.org/2001/XMLSchema-instance" xsi:noNamespaceSchemaLocation="http://sumo.dlr.de/xsd/sumoConfiguration.xsd">

    <input>
        <net-file value="/Users/behradkoohy/sumo-scratchpad/RESCO/environments/ingolstadt21/ingolstadt21.net.xml"/>
        <route-files value="/Users/behradkoohy/sumo-scratchpad/RESCO/environments/ingolstadt21/ingolstadt21.rou.xml"/>
    </input>

    <output>
        <tripinfo-output value="/Users/behradkoohy/sumo-scratchpad/RESCO/logs/MPLight-tr0-ingolstadt21-21-mplight_full-pressure/tripinfo_41.xml"/>
        <tripinfo-output.write-unfinished value="true"/>
    </output>

    <time>
        <begin value="57600"/>
        <end value="61200"/>
    </time>

    <processing>
        <time-to-teleport value="-1"/>
    </processing>

    <report>
        <no-warnings value="true"/>
        <no-step-log value="true"/>
    </report>

    <emissions>
        <device.emissions.probability value="1"/>
    </emissions>

    <traci_server>
        <remote-port value="64848"/>
    </traci_server>

    <random_number>
        <random value="true"/>
    </random_number>

</configuration>
-->

<tripinfos xmlns:xsi="http://www.w3.org/2001/XMLSchema-instance" xsi:noNamespaceSchemaLocation="http://sumo.dlr.de/xsd/tripinfo_file.xsd">
    <tripinfo id="h15454c2:3" depart="57612.00" departLane="24608844_1" departPos="5.10" departSpeed="0.00" departDelay="0.50" arrival="57653.00" arrivalLane="32978638#0_1" arrivalPos="49.29" arrivalSpeed="13.34" duration="41.00" routeLength="354.79" waitingTime="0.00" waitingCount="0" stopTime="0.00" timeLoss="5.54" rerouteNo="1" devices="tripinfo_h15454c2:3 routing_h15454c2:3 emissions_h15454c2:3" vType="default_016" speedFactor="0.98" vaporized="">
        <emissions CO_abs="1884.289893" CO2_abs="102878.795571" HC_abs="10.988390" PMx_abs="1.835286" NOx_abs="42.523129" fuel_abs="44.223389" electricity_abs="0"/>
    </tripinfo>
    <tripinfo id="carIn53971:1" depart="57640.00" departLane="272042143_1" departPos="5.10" departSpeed="0.00" departDelay="0.80" arrival="57691.00" arrivalLane="24634414#1_1" arrivalPos="162.19" arrivalSpeed="8.24" duration="51.00" routeLength="493.04" waitingTime="0.00" waitingCount="0" stopTime="0.00" timeLoss="7.88" rerouteNo="1" devices="tripinfo_carIn53971:1 routing_carIn53971:1 emissions_carIn53971:1" vType="default_016" speedFactor="1.05" vaporized="">
        <emissions CO_abs="2462.430400" CO2_abs="145407.559463" HC_abs="14.581575" PMx_abs="2.509060" NOx_abs="59.299012" fuel_abs="62.504745" electricity_abs="0"/>
    </tripinfo>
    <tripinfo id="h7800c1:5" depart="57696.00" departLane="-447569998#1_1" departPos="5.10" departSpeed="0.00" departDelay="0.00" arrival="57719.00" arrivalLane="-447569998#1_1" arrivalPos="180.76" arrivalSpeed="8.32" duration="23.00" routeLength="175.66" waitingTime="0.00" waitingCount="0" stopTime="0.00" timeLoss="3.00" rerouteNo="1" devices="tripinfo_h7800c1:5 routing_h7800c1:5 emissions_h7800c1:5" vType="default_016" speedFactor="1.06" vaporized="">
        <emissions CO_abs="1036.406988" CO2_abs="48000.723375" HC_abs="5.825110" PMx_abs="0.798738" NOx_abs="19.593798" fuel_abs="20.633758" electricity_abs="0"/>
    </tripinfo>
    <tripinfo id="h3568c1:3" depart="57656.00" departLane="266565295#5_1" departPos="5.10" departSpeed="0.00" departDelay="0.80" arrival="57740.00" arrivalLane="-24634415_1" arrivalPos="62.03" arrivalSpeed="13.01" duration="84.00" routeLength="807.40" waitingTime="2.00" waitingCount="1" stopTime="0.00" timeLoss="20.40" rerouteNo="1" devices="tripinfo_h3568c1:3 routing_h3568c1:3 emissions_h3568c1:3" vType="default_016" speedFactor="1.02" vaporized="">
        <emissions CO_abs="4016.429106" CO2_abs="250755.249620" HC_abs="24.174622" PMx_abs="4.537038" NOx_abs="103.222468" fuel_abs="107.788924" electricity_abs="0"/>
    </tripinfo>
    <tripinfo id="h4538c1:1" depart="57701.00" departLane="-10427692#1_1" departPos="5.10" departSpeed="0.00" departDelay="0.00" arrival="57740.00" arrivalLane="-128361102#1_1" arrivalPos="274.68" arrivalSpeed="13.58" duration="39.00" routeLength="440.74" waitingTime="0.00" waitingCount="0" stopTime="0.00" timeLoss="6.79" rerouteNo="1" devices="tripinfo_h4538c1:1 routing_h4538c1:1 emissions_h4538c1:1" vType="default_016" speedFactor="1.00" vaporized="">
        <emissions CO_abs="1659.816979" CO2_abs="114699.380426" HC_abs="10.237498" PMx_abs="1.958803" NOx_abs="46.184564" fuel_abs="49.304398" electricity_abs="0"/>
    </tripinfo>
    <tripinfo id="h317c2:1" depart="57707.00" departLane="-32978638#0_1" departPos="5.10" departSpeed="0.00" departDelay="0.10" arrival="57743.00" arrivalLane="-266565295#5_1" arrivalPos="172.76" arrivalSpeed="11.69" duration="36.00" routeLength="370.53" waitingTime="0.00" waitingCount="0" stopTime="0.00" timeLoss="5.70" rerouteNo="1" devices="tripinfo_h317c2:1 routing_h317c2:1 emissions_h317c2:1" vType="default_016" speedFactor="0.92" vaporized="">
        <emissions CO_abs="1695.535533" CO2_abs="104842.088983" HC_abs="10.184307" PMx_abs="1.864489" NOx_abs="43.052130" fuel_abs="45.067171" electricity_abs="0"/>
    </tripinfo>
    <tripinfo id="carIn22761:1" depart="57616.00" departLane="-306240162#1_0" departPos="5.10" departSpeed="0.00" departDelay="2.10" arrival="57757.00" arrivalLane="399835085#1_1" arrivalPos="212.23" arrivalSpeed="6.70" duration="141.00" routeLength="1093.26" waitingTime="36.00" waitingCount="2" stopTime="0.00" timeLoss="57.07" rerouteNo="1" devices="tripinfo_carIn22761:1 routing_carIn22761:1 emissions_carIn22761:1" vType="default_016" speedFactor="0.93" vaporized="">
        <emissions CO_abs="9378.776003" CO2_abs="380715.041102" HC_abs="51.679294" PMx_abs="7.382129" NOx_abs="159.332247" fuel_abs="163.655182" electricity_abs="0"/>
    </tripinfo>
    <tripinfo id="carIn121703:1" depart="57647.00" departLane="386687232#0_1" departPos="5.10" departSpeed="0.00" departDelay="0.30" arrival="57764.00" arrivalLane="-315358244_1" arrivalPos="33.95" arrivalSpeed="13.73" duration="117.00" routeLength="1157.39" waitingTime="18.00" waitingCount="2" stopTime="0.00" timeLoss="36.33" rerouteNo="1" devices="tripinfo_carIn121703:1 routing_carIn121703:1 emissions_carIn121703:1" vType="default_016" speedFactor="1.05" vaporized="">
        <emissions CO_abs="5375.782155" CO2_abs="288323.129365" HC_abs="31.222487" PMx_abs="5.230609" NOx_abs="117.873752" fuel_abs="123.938461" electricity_abs="0"/>
    </tripinfo>
    <tripinfo id="carIn27009:1" depart="57673.00" departLane="-447569998#1_1" departPos="5.10" departSpeed="0.00" departDelay="0.50" arrival="57775.00" arrivalLane="-26677539_1" arrivalPos="152.75" arrivalSpeed="6.89" duration="102.00" routeLength="699.63" waitingTime="0.00" waitingCount="0" stopTime="0.00" timeLoss="12.52" rerouteNo="1" devices="tripinfo_carIn27009:1 routing_carIn27009:1 emissions_carIn27009:1" vType="default_015" speedFactor="0.93" vaporized="">
        <emissions CO_abs="4259.874311" CO2_abs="188789.880599" HC_abs="23.698934" PMx_abs="2.938469" NOx_abs="75.944944" fuel_abs="81.154324" electricity_abs="0"/>
    </tripinfo>
    <tripinfo id="h3326c1:2" depart="57656.00" departLane="22716069#0_1" departPos="5.10" departSpeed="0.00" departDelay="0.00" arrival="57776.00" arrivalLane="24634517#13_1" arrivalPos="111.62" arrivalSpeed="12.99" duration="120.00" routeLength="1312.81" waitingTime="5.00" waitingCount="1" stopTime="0.00" timeLoss="22.29" rerouteNo="1" devices="tripinfo_h3326c1:2 routing_h3326c1:2 emissions_h3326c1:2" vType="default_016" speedFactor="1.01" vaporized="">
        <emissions CO_abs="4583.943809" CO2_abs="326044.265716" HC_abs="28.543100" PMx_abs="5.713831" NOx_abs="132.372769" fuel_abs="140.152250" electricity_abs="0"/>
    </tripinfo>
    <tripinfo id="h5979c1:5" depart="57669.00" departLane="399835085#1_1" departPos="5.10" departSpeed="0.00" departDelay="0.00" arrival="57783.00" arrivalLane="-315358254#1_1" arrivalPos="137.16" arrivalSpeed="13.38" duration="114.00" routeLength="659.33" waitingTime="23.00" waitingCount="1" stopTime="0.00" timeLoss="38.71" rerouteNo="1" devices="tripinfo_h5979c1:5 routing_h5979c1:5 emissions_h5979c1:5" vType="default_016" speedFactor="0.97" vaporized="">
        <emissions CO_abs="7316.662369" CO2_abs="237529.680830" HC_abs="38.816935" PMx_abs="4.416698" NOx_abs="99.578420" fuel_abs="102.106540" electricity_abs="0"/>
    </tripinfo>
    <tripinfo id="h11737c1:1" depart="57665.00" departLane="272042143_1" departPos="5.10" departSpeed="0.00" departDelay="1.50" arrival="57794.00" arrivalLane="-315358254#1_1" arrivalPos="137.16" arrivalSpeed="14.27" duration="129.00" routeLength="1596.88" waitingTime="4.00" waitingCount="1" stopTime="0.00" timeLoss="22.19" rerouteNo="1" devices="tripinfo_h11737c1:1 routing_h11737c1:1 emissions_h11737c1:1" vType="default_016" speedFactor="1.09" vaporized="">
        <emissions CO_abs="4281.286690" CO2_abs="330362.048323" HC_abs="27.195257" PMx_abs="5.746771" NOx_abs="132.804970" fuel_abs="142.008123" electricity_abs="0"/>
    </tripinfo>
    <tripinfo id="carIn30817:1" depart="57681.00" departLane="315358244_1" departPos="5.10" departSpeed="0.00" departDelay="0.20" arrival="57796.00" arrivalLane="447569997#1_1" arrivalPos="180.93" arrivalSpeed="7.93" duration="115.00" routeLength="718.04" waitingTime="42.00" waitingCount="1" stopTime="0.00" timeLoss="53.83" rerouteNo="1" devices="tripinfo_carIn30817:1 routing_carIn30817:1 emissions_carIn30817:1" vType="default_016" speedFactor="1.00" vaporized="">
        <emissions CO_abs="9004.591099" CO2_abs="275290.786438" HC_abs="47.430586" PMx_abs="5.395595" NOx_abs="116.145580" fuel_abs="118.338987" electricity_abs="0"/>
    </tripinfo>
    <tripinfo id="carIn60260:1" depart="57606.00" departLane="315358254#0_1" departPos="5.10" departSpeed="0.00" departDelay="0.90" arrival="57797.00" arrivalLane="399835085#1_1" arrivalPos="212.23" arrivalSpeed="7.42" duration="191.00" routeLength="430.98" waitingTime="129.00" waitingCount="1" stopTime="0.00" timeLoss="139.98" rerouteNo="1" devices="tripinfo_carIn60260:1 routing_carIn60260:1 emissions_carIn60260:1" vType="default_016" speedFactor="0.90" vaporized="">
        <emissions CO_abs="23563.516916" CO2_abs="456149.640266" HC_abs="117.953773" PMx_abs="10.426619" NOx_abs="203.136054" fuel_abs="196.089622" electricity_abs="0"/>
    </tripinfo>
    <tripinfo id="carIn126288:1" depart="57674.00" departLane="272042143_1" departPos="5.10" departSpeed="0.00" departDelay="0.00" arrival="57801.00" arrivalLane="-315358254#1_1" arrivalPos="137.16" arrivalSpeed="14.08" duration="127.00" routeLength="1596.88" waitingTime="0.00" waitingCount="0" stopTime="0.00" timeLoss="11.75" rerouteNo="1" devices="tripinfo_carIn126288:1 routing_carIn126288:1 emissions_carIn126288:1" vType="default_016" speedFactor="1.01" vaporized="">
        <emissions CO_abs="3616.936124" CO2_abs="325650.112944" HC_abs="24.061383" PMx_abs="5.209102" NOx_abs="127.755926" fuel_abs="139.982884" electricity_abs="0"/>
    </tripinfo>
    <tripinfo id="carIn12365:1" depart="57713.00" departLane="315358244_1" departPos="5.10" departSpeed="0.00" departDelay="0.50" arrival="57803.00" arrivalLane="447569997#1_1" arrivalPos="180.93" arrivalSpeed="7.84" duration="90.00" routeLength="718.04" waitingTime="13.00" waitingCount="1" stopTime="0.00" timeLoss="26.98" rerouteNo="1" devices="tripinfo_carIn12365:1 routing_carIn12365:1 emissions_carIn12365:1" vType="default_016" speedFactor="0.97" vaporized="">
        <emissions CO_abs="4433.018250" CO2_abs="198129.649255" HC_abs="24.794991" PMx_abs="3.478526" NOx_abs="81.091419" fuel_abs="85.168657" electricity_abs="0"/>
    </tripinfo>
    <tripinfo id="carIn80064:1" depart="57603.00" departLane="128361109#1_1" departPos="5.10" departSpeed="0.00" departDelay="0.40" arrival="57813.00" arrivalLane="-315358254#1_1" arrivalPos="137.16" arrivalSpeed="10.86" duration="210.00" routeLength="1587.97" waitingTime="73.00" waitingCount="4" stopTime="0.00" timeLoss="105.11" rerouteNo="1" devices="tripinfo_carIn80064:1 routing_carIn80064:1 emissions_carIn80064:1" vType="default_016" speedFactor="0.85" vaporized="">
        <emissions CO_abs="15743.458301" CO2_abs="589998.890107" HC_abs="85.485351" PMx_abs="11.800958" NOx_abs="247.948961" fuel_abs="253.619083" electricity_abs="0"/>
    </tripinfo>
    <tripinfo id="h3688c1:1" depart="57625.00" departLane="201201950#1_1" departPos="5.10" departSpeed="0.00" departDelay="0.00" arrival="57814.00" arrivalLane="32978638#0_1" arrivalPos="49.29" arrivalSpeed="13.83" duration="189.00" routeLength="1089.75" waitingTime="95.00" waitingCount="2" stopTime="0.00" timeLoss="112.17" rerouteNo="1" devices="tripinfo_h3688c1:1 routing_h3688c1:1 emissions_h3688c1:1" vType="default_016" speedFactor="1.04" vaporized="">
        <emissions CO_abs="18154.483934" CO2_abs="507441.809747" HC_abs="94.514731" PMx_abs="10.670559" NOx_abs="218.170633" fuel_abs="218.133793" electricity_abs="0"/>
    </tripinfo>
    <tripinfo id="h330c1:1" depart="57736.00" departLane="-32978638#0_1" departPos="5.10" departSpeed="0.00" departDelay="0.20" arrival="57827.00" arrivalLane="-266565295#5_1" arrivalPos="172.76" arrivalSpeed="12.31" duration="91.00" routeLength="370.53" waitingTime="53.00" waitingCount="1" stopTime="0.00" timeLoss="60.37" rerouteNo="1" devices="tripinfo_h330c1:1 routing_h330c1:1 emissions_h330c1:1" vType="default_016" speedFactor="0.90" vaporized="">
        <emissions CO_abs="9898.700921" CO2_abs="234508.758336" HC_abs="50.582864" PMx_abs="5.150673" NOx_abs="102.890256" fuel_abs="100.809077" electricity_abs="0"/>
    </tripinfo>
    <tripinfo id="h17549c1:1" depart="57680.00" departLane="-447569998#1_1" departPos="5.10" departSpeed="0.00" departDelay="0.00" arrival="57835.00" arrivalLane="-315358254#1_1" arrivalPos="137.16" arrivalSpeed="14.11" duration="155.00" routeLength="1746.60" waitingTime="9.00" waitingCount="1" stopTime="0.00" timeLoss="26.52" rerouteNo="1" devices="tripinfo_h17549c1:1 routing_h17549c1:1 emissions_h17549c1:1" vType="default_016" speedFactor="1.06" vaporized="">
        <emissions CO_abs="5482.799372" CO2_abs="382214.992920" HC_abs="33.808174" PMx_abs="6.431284" NOx_abs="152.427970" fuel_abs="164.298190" electricity_abs="0"/>
    </tripinfo>
    <tripinfo id="h3864c1:3" depart="57678.00" departLane="24693977#1_1" departPos="5.10" departSpeed="0.00" departDelay="0.00" arrival="57841.00" arrivalLane="201956820_1" arrivalPos="48.33" arrivalSpeed="14.77" duration="163.00" routeLength="1574.85" waitingTime="12.00" waitingCount="2" stopTime="0.00" timeLoss="42.39" rerouteNo="1" devices="tripinfo_h3864c1:3 routing_h3864c1:3 emissions_h3864c1:3" vType="default_016" speedFactor="1.07" vaporized="">
        <emissions CO_abs="7891.985760" CO2_abs="462654.944451" HC_abs="46.745318" PMx_abs="8.252189" NOx_abs="189.457809" fuel_abs="198.876125" electricity_abs="0"/>
    </tripinfo>
    <tripinfo id="50R_frequency3.17" depart="57674.00" departLane="-18809673#6_1" departPos="12.10" departSpeed="0.00" departDelay="0.70" arrival="57848.00" arrivalLane="201956811#0_1" arrivalPos="40.40" arrivalSpeed="13.79" duration="174.00" routeLength="1954.47" waitingTime="4.00" waitingCount="1" stopTime="0.00" timeLoss="29.11" rerouteNo="1" devices="tripinfo_50R_frequency3.17 routing_50R_frequency3.17 emissions_50R_frequency3.17" vType="bus" speedFactor="1.00" vaporized="">
        <emissions CO_abs="3487.928003" CO2_abs="2201042.978609" HC_abs="739.526787" PMx_abs="374.588328" NOx_abs="17029.837931" fuel_abs="938.730965" electricity_abs="0"/>
    </tripinfo>
    <tripinfo id="h7181c1:1" depart="57660.00" departLane="315358254#0_1" departPos="5.10" departSpeed="0.00" departDelay="0.10" arrival="57850.00" arrivalLane="306240162#0_0" arrivalPos="220.43" arrivalSpeed="15.96" duration="190.00" routeLength="932.35" waitingTime="112.00" waitingCount="3" stopTime="0.00" timeLoss="138.64" rerouteNo="1" devices="tripinfo_h7181c1:1 routing_h7181c1:1 emissions_h7181c1:1" vType="default_016" speedFactor="1.00" vaporized="">
        <emissions CO_abs="20894.085679" CO2_abs="572858.403475" HC_abs="108.777171" PMx_abs="12.838004" NOx_abs="251.119890" fuel_abs="246.253581" electricity_abs="0"/>
    </tripinfo>
    <tripinfo id="h16072c2:3" depart="57663.00" departLane="315358254#0_1" departPos="5.10" departSpeed="0.00" departDelay="2.50" arrival="57864.00" arrivalLane="386687235_1" arrivalPos="80.84" arrivalSpeed="15.42" duration="201.00" routeLength="1611.92" waitingTime="72.00" waitingCount="3" stopTime="0.00" timeLoss="97.11" rerouteNo="1" devices="tripinfo_h16072c2:3 routing_h16072c2:3 emissions_h16072c2:3" vType="default_016" speedFactor="1.14" vaporized="">
        <emissions CO_abs="15118.261009" CO2_abs="536368.149235" HC_abs="81.392499" PMx_abs="10.657937" NOx_abs="225.217118" fuel_abs="230.565956" electricity_abs="0"/>
    </tripinfo>
    <tripinfo id="h11868c1:5" depart="57700.00" departLane="315358254#0_1" departPos="5.10" departSpeed="0.00" departDelay="0.10" arrival="57864.00" arrivalLane="386687235_2" arrivalPos="80.84" arrivalSpeed="11.50" duration="164.00" routeLength="1611.92" waitingTime="9.00" waitingCount="2" stopTime="0.00" timeLoss="30.92" rerouteNo="1" devices="tripinfo_h11868c1:5 routing_h11868c1:5 emissions_h11868c1:5" vType="default_016" speedFactor="0.88" vaporized="">
        <emissions CO_abs="5473.962403" CO2_abs="343125.048554" HC_abs="32.877360" PMx_abs="5.471284" NOx_abs="136.296667" fuel_abs="147.495871" electricity_abs="0"/>
    </tripinfo>
    <tripinfo id="h2831c1:1" depart="57600.00" departLane="201089423#0_1" departPos="5.10" departSpeed="0.00" departDelay="0.00" arrival="57874.00" arrivalLane="-315358244_2" arrivalPos="33.95" arrivalSpeed="11.67" duration="274.00" routeLength="2672.18" waitingTime="33.00" waitingCount="2" stopTime="0.00" timeLoss="61.90" rerouteNo="1" devices="tripinfo_h2831c1:1 routing_h2831c1:1 emissions_h2831c1:1" vType="default_016" speedFactor="0.92" vaporized="">
        <emissions CO_abs="10980.924968" CO2_abs="595152.824308" HC_abs="63.818220" PMx_abs="9.766379" NOx_abs="237.101952" fuel_abs="255.833595" electricity_abs="0"/>
    </tripinfo>
    <tripinfo id="h645c1:1" depart="57622.00" departLane="266565295#5_1" departPos="5.10" departSpeed="0.00" departDelay="0.40" arrival="57874.00" arrivalLane="-315358244_1" arrivalPos="33.95" arrivalSpeed="13.34" duration="252.00" routeLength="1910.83" waitingTime="81.00" waitingCount="3" stopTime="0.00" timeLoss="108.93" rerouteNo="1" devices="tripinfo_h645c1:1 routing_h645c1:1 emissions_h645c1:1" vType="default_016" speedFactor="0.97" vaporized="">
        <emissions CO_abs="17115.303322" CO2_abs="604677.015642" HC_abs="92.054857" PMx_abs="11.486570" NOx_abs="251.462354" fuel_abs="259.930338" electricity_abs="0"/>
    </tripinfo>
    <tripinfo id="carIn73855:1" depart="57743.00" departLane="386687232#0_1" departPos="5.10" departSpeed="0.00" departDelay="0.50" arrival="57875.00" arrivalLane="-315358244_1" arrivalPos="33.95" arrivalSpeed="15.31" duration="132.00" routeLength="1157.39" waitingTime="40.00" waitingCount="1" stopTime="0.00" timeLoss="57.02" rerouteNo="1" devices="tripinfo_carIn73855:1 routing_carIn73855:1 emissions_carIn73855:1" vType="default_016" speedFactor="1.13" vaporized="">
        <emissions CO_abs="9368.572687" CO2_abs="371756.189502" HC_abs="51.390372" PMx_abs="7.189552" NOx_abs="154.677177" fuel_abs="159.804390" electricity_abs="0"/>
    </tripinfo>
    <tripinfo id="carIn12858:1" depart="57661.00" departLane="128361109#1_1" departPos="5.10" departSpeed="0.00" departDelay="0.90" arrival="57877.00" arrivalLane="399835085#1_1" arrivalPos="212.23" arrivalSpeed="7.69" duration="216.00" routeLength="1738.12" waitingTime="58.00" waitingCount="3" stopTime="0.00" timeLoss="93.18" rerouteNo="1" devices="tripinfo_carIn12858:1 routing_carIn12858:1 emissions_carIn12858:1" vType="default_016" speedFactor="0.94" vaporized="">
        <emissions CO_abs="15563.926320" CO2_abs="630525.901349" HC_abs="85.778928" PMx_abs="12.494669" NOx_abs="264.645352" fuel_abs="271.039257" electricity_abs="0"/>
    </tripinfo>
    <tripinfo id="carIn12152:1" depart="57647.00" departLane="24599188#0.94_1" departPos="5.10" departSpeed="0.00" departDelay="0.50" arrival="57878.00" arrivalLane="-315358254#1_1" arrivalPos="137.16" arrivalSpeed="12.05" duration="231.00" routeLength="2034.31" waitingTime="41.00" waitingCount="2" stopTime="0.00" timeLoss="64.36" rerouteNo="1" devices="tripinfo_carIn12152:1 routing_carIn12152:1 emissions_carIn12152:1" vType="default_016" speedFactor="0.95" vaporized="">
        <emissions CO_abs="10826.444793" CO2_abs="477599.694754" HC_abs="60.422821" PMx_abs="8.394971" NOx_abs="194.463150" fuel_abs="205.302779" electricity_abs="0"/>
    </tripinfo>
    <tripinfo id="h12244c1:3" depart="57612.00" departLane="315358244_1" departPos="5.10" departSpeed="0.00" departDelay="0.40" arrival="57879.00" arrivalLane="386687235_1" arrivalPos="80.84" arrivalSpeed="13.47" duration="267.00" routeLength="1186.14" waitingTime="162.00" waitingCount="2" stopTime="0.00" timeLoss="182.73" rerouteNo="1" devices="tripinfo_h12244c1:3 routing_h12244c1:3 emissions_h12244c1:3" vType="default_016" speedFactor="1.02" vaporized="">
        <emissions CO_abs="28596.034479" CO2_abs="663943.280523" HC_abs="145.746724" PMx_abs="14.524267" NOx_abs="289.445368" fuel_abs="285.412275" electricity_abs="0"/>
    </tripinfo>
    <tripinfo id="h9563c2:5" depart="57631.00" departLane="315358244_1" departPos="5.10" departSpeed="0.00" departDelay="0.70" arrival="57881.00" arrivalLane="386687235_1" arrivalPos="80.84" arrivalSpeed="14.18" duration="250.00" routeLength="1186.14" waitingTime="144.00" waitingCount="2" stopTime="0.00" timeLoss="170.13" rerouteNo="1" devices="tripinfo_h9563c2:5 routing_h9563c2:5 emissions_h9563c2:5" vType="default_016" speedFactor="1.08" vaporized="">
        <emissions CO_abs="26104.933970" CO2_abs="641630.780374" HC_abs="133.931973" PMx_abs="13.947952" NOx_abs="279.104636" fuel_abs="275.819535" electricity_abs="0"/>
    </tripinfo>
    <tripinfo id="carIn118591:1" depart="57689.00" departLane="315358244_1" departPos="5.10" departSpeed="0.00" departDelay="0.20" arrival="57884.00" arrivalLane="386687235_1" arrivalPos="80.84" arrivalSpeed="14.25" duration="195.00" routeLength="1186.14" waitingTime="86.00" waitingCount="2" stopTime="0.00" timeLoss="112.36" rerouteNo="1" devices="tripinfo_carIn118591:1 routing_carIn118591:1 emissions_carIn118591:1" vType="default_016" speedFactor="1.05" vaporized="">
        <emissions CO_abs="16822.362388" CO2_abs="492928.815814" HC_abs="88.077753" PMx_abs="9.989582" NOx_abs="209.204376" fuel_abs="211.895011" electricity_abs="0"/>
    </tripinfo>
    <tripinfo id="carIn118538:1" depart="57683.00" departLane="-447569998#1_1" departPos="5.10" departSpeed="0.00" departDelay="1.00" arrival="57886.00" arrivalLane="399835085#1_1" arrivalPos="212.23" arrivalSpeed="7.57" duration="203.00" routeLength="1907.17" waitingTime="9.00" waitingCount="2" stopTime="0.00" timeLoss="34.97" rerouteNo="1" devices="tripinfo_carIn118538:1 routing_carIn118538:1 emissions_carIn118538:1" vType="default_016" speedFactor="0.97" vaporized="">
        <emissions CO_abs="7154.286963" CO2_abs="426013.418686" HC_abs="42.423769" PMx_abs="6.783265" NOx_abs="169.123050" fuel_abs="183.126621" electricity_abs="0"/>
    </tripinfo>
    <tripinfo id="carIn24709:1" depart="57753.00" departLane="266565295#5_1" departPos="5.10" departSpeed="0.00" departDelay="2.50" arrival="57889.00" arrivalLane="-24634506#2_1" arrivalPos="71.32" arrivalSpeed="12.78" duration="136.00" routeLength="1534.27" waitingTime="0.00" waitingCount="0" stopTime="0.00" timeLoss="18.19" rerouteNo="1" devices="tripinfo_carIn24709:1 routing_carIn24709:1 emissions_carIn24709:1" vType="default_016" speedFactor="0.97" vaporized="">
        <emissions CO_abs="4956.422576" CO2_abs="371042.721814" HC_abs="31.255357" PMx_abs="6.164976" NOx_abs="148.314776" fuel_abs="159.495440" electricity_abs="0"/>
    </tripinfo>
    <tripinfo id="h7097c1:1" depart="57670.00" departLane="315358242#0_1" departPos="5.10" departSpeed="0.00" departDelay="0.60" arrival="57893.00" arrivalLane="306240162#0_0" arrivalPos="220.43" arrivalSpeed="17.04" duration="223.00" routeLength="2586.94" waitingTime="30.00" waitingCount="3" stopTime="0.00" timeLoss="63.02" rerouteNo="1" devices="tripinfo_h7097c1:1 routing_h7097c1:1 emissions_h7097c1:1" vType="default_016" speedFactor="1.08" vaporized="">
        <emissions CO_abs="10487.191624" CO2_abs="653025.628634" HC_abs="63.130799" PMx_abs="12.220921" NOx_abs="266.802435" fuel_abs="280.707569" electricity_abs="0"/>
    </tripinfo>
    <tripinfo id="carIn107282:1" depart="57749.00" departLane="-447569998#1_1" departPos="5.10" departSpeed="0.00" departDelay="0.00" arrival="57899.00" arrivalLane="315358242#0_1" arrivalPos="165.37" arrivalSpeed="11.70" duration="150.00" routeLength="448.50" waitingTime="93.00" waitingCount="1" stopTime="0.00" timeLoss="100.80" rerouteNo="1" devices="tripinfo_carIn107282:1 routing_carIn107282:1 emissions_carIn107282:1" vType="default_016" speedFactor="0.84" vaporized="">
        <emissions CO_abs="16571.842319" CO2_abs="340395.538166" HC_abs="83.405303" PMx_abs="7.570507" NOx_abs="150.087130" fuel_abs="146.328715" electricity_abs="0"/>
    </tripinfo>
    <tripinfo id="randUni23028:1" depart="57884.00" departLane="124812856#0_1" departPos="5.10" departSpeed="0.00" departDelay="0.10" arrival="57899.00" arrivalLane="201956810_1" arrivalPos="71.65" arrivalSpeed="13.80" duration="15.00" routeLength="134.91" waitingTime="0.00" waitingCount="0" stopTime="0.00" timeLoss="4.47" rerouteNo="1" devices="tripinfo_randUni23028:1 routing_randUni23028:1 emissions_randUni23028:1" vType="random_016" speedFactor="1.02" vaporized="">
        <emissions CO_abs="1199.153845" CO2_abs="63568.534563" HC_abs="6.968710" PMx_abs="1.240917" NOx_abs="26.916885" fuel_abs="27.325386" electricity_abs="0"/>
    </tripinfo>
    <tripinfo id="h17600c1:1" depart="57662.00" departLane="272042143_1" departPos="5.10" departSpeed="0.00" departDelay="0.30" arrival="57902.00" arrivalLane="201238729#3_1" arrivalPos="431.02" arrivalSpeed="13.00" duration="240.00" routeLength="2100.26" waitingTime="63.00" waitingCount="2" stopTime="0.00" timeLoss="87.87" rerouteNo="1" devices="tripinfo_h17600c1:1 routing_h17600c1:1 emissions_h17600c1:1" vType="default_016" speedFactor="1.00" vaporized="">
        <emissions CO_abs="14235.445458" CO2_abs="554475.916742" HC_abs="77.781055" PMx_abs="10.318923" NOx_abs="228.603198" fuel_abs="238.349713" electricity_abs="0"/>
    </tripinfo>
    <tripinfo id="carIn48184:1" depart="57613.00" departLane="-306240162#1_0" departPos="5.10" departSpeed="0.00" departDelay="0.70" arrival="57903.00" arrivalLane="386687235_2" arrivalPos="80.84" arrivalSpeed="12.77" duration="290.00" routeLength="2257.41" waitingTime="97.00" waitingCount="3" stopTime="0.00" timeLoss="141.01" rerouteNo="1" devices="tripinfo_carIn48184:1 routing_carIn48184:1 emissions_carIn48184:1" vType="default_016" speedFactor="1.00" vaporized="">
        <emissions CO_abs="21930.865536" CO2_abs="776964.530716" HC_abs="118.170768" PMx_abs="15.542431" NOx_abs="327.675896" fuel_abs="333.989758" electricity_abs="0"/>
    </tripinfo>
    <tripinfo id="h16437c1:3" depart="57717.00" departLane="315358254#0_1" departPos="5.10" departSpeed="0.00" departDelay="0.80" arrival="57904.00" arrivalLane="386687235_1" arrivalPos="80.84" arrivalSpeed="12.48" duration="187.00" routeLength="1611.92" waitingTime="31.00" waitingCount="2" stopTime="0.00" timeLoss="56.33" rerouteNo="1" devices="tripinfo_h16437c1:3 routing_h16437c1:3 emissions_h16437c1:3" vType="default_016" speedFactor="0.90" vaporized="">
        <emissions CO_abs="8959.248598" CO2_abs="415455.464613" HC_abs="50.474676" PMx_abs="7.255984" NOx_abs="169.082568" fuel_abs="178.588885" electricity_abs="0"/>
    </tripinfo>
    <tripinfo id="h6541c1:3" depart="57727.00" departLane="201950247#3_1" departPos="5.10" departSpeed="0.00" departDelay="0.00" arrival="57904.00" arrivalLane="32978638#0_1" arrivalPos="49.29" arrivalSpeed="13.95" duration="177.00" routeLength="1176.17" waitingTime="62.00" waitingCount="1" stopTime="0.00" timeLoss="82.08" rerouteNo="1" devices="tripinfo_h6541c1:3 routing_h6541c1:3 emissions_h6541c1:3" vType="default_016" speedFactor="1.07" vaporized="">
        <emissions CO_abs="14637.958949" CO2_abs="482132.080042" HC_abs="77.974350" PMx_abs="9.630024" NOx_abs="204.654439" fuel_abs="207.252403" electricity_abs="0"/>
    </tripinfo>
    <tripinfo id="h17890c1:3" depart="57792.00" departLane="386687232#0_1" departPos="5.10" departSpeed="0.00" departDelay="0.00" arrival="57905.00" arrivalLane="32978638#0_1" arrivalPos="49.29" arrivalSpeed="12.27" duration="113.00" routeLength="797.04" waitingTime="29.00" waitingCount="3" stopTime="0.00" timeLoss="50.63" rerouteNo="1" devices="tripinfo_h17890c1:3 routing_h17890c1:3 emissions_h17890c1:3" vType="default_016" speedFactor="0.95" vaporized="">
        <emissions CO_abs="7200.955178" CO2_abs="289558.440552" HC_abs="39.585012" PMx_abs="5.502984" NOx_abs="121.191150" fuel_abs="124.470516" electricity_abs="0"/>
    </tripinfo>
    <tripinfo id="carIn53503:1" depart="57765.00" departLane="-306240162#1_0" departPos="5.10" departSpeed="0.00" departDelay="4.40" arrival="57907.00" arrivalLane="24634510#6_1" arrivalPos="76.64" arrivalSpeed="12.64" duration="142.00" routeLength="1440.47" waitingTime="11.00" waitingCount="1" stopTime="0.00" timeLoss="37.93" rerouteNo="1" devices="tripinfo_carIn53503:1 routing_carIn53503:1 emissions_carIn53503:1" vType="default_016" speedFactor="0.95" vaporized="">
        <emissions CO_abs="6430.584895" CO2_abs="388023.058721" HC_abs="38.396413" PMx_abs="6.854571" NOx_abs="158.364727" fuel_abs="166.794942" electricity_abs="0"/>
    </tripinfo>