<?xml version="1.0" encoding="UTF-8"?>

<!-- generated on 2021-10-26 21:26:18 by Eclipse SUMO sumo Version 1.10.0
<configuration xmlns:xsi="http://www.w3.org/2001/XMLSchema-instance" xsi:noNamespaceSchemaLocation="http://sumo.dlr.de/xsd/sumoConfiguration.xsd">

    <input>
        <net-file value="/Users/behradkoohy/sumo-scratchpad/RESCO/environments/ingolstadt21/ingolstadt21.net.xml"/>
        <route-files value="/Users/behradkoohy/sumo-scratchpad/RESCO/environments/ingolstadt21/ingolstadt21.rou.xml"/>
    </input>

    <output>
        <tripinfo-output value="/Users/behradkoohy/sumo-scratchpad/RESCO/logs/MPLight-tr0-ingolstadt21-21-mplight_full-pressure/tripinfo_52.xml"/>
        <tripinfo-output.write-unfinished value="true"/>
    </output>

    <time>
        <begin value="57600"/>
        <end value="61200"/>
    </time>

    <processing>
        <time-to-teleport value="-1"/>
    </processing>

    <report>
        <no-warnings value="true"/>
        <no-step-log value="true"/>
    </report>

    <emissions>
        <device.emissions.probability value="1"/>
    </emissions>

    <traci_server>
        <remote-port value="65098"/>
    </traci_server>

    <random_number>
        <random value="true"/>
    </random_number>

</configuration>
-->

<tripinfos xmlns:xsi="http://www.w3.org/2001/XMLSchema-instance" xsi:noNamespaceSchemaLocation="http://sumo.dlr.de/xsd/tripinfo_file.xsd">
    <tripinfo id="h15454c2:3" depart="57612.00" departLane="24608844_1" departPos="5.10" departSpeed="0.00" departDelay="0.50" arrival="57649.00" arrivalLane="32978638#0_1" arrivalPos="49.29" arrivalSpeed="14.12" duration="37.00" routeLength="354.79" waitingTime="0.00" waitingCount="0" stopTime="0.00" timeLoss="6.19" rerouteNo="1" devices="tripinfo_h15454c2:3 routing_h15454c2:3 emissions_h15454c2:3" vType="default_016" speedFactor="1.10" vaporized="">
        <emissions CO_abs="2086.657113" CO2_abs="119445.369779" HC_abs="12.322806" PMx_abs="2.234836" NOx_abs="49.912175" fuel_abs="51.344450" electricity_abs="0"/>
    </tripinfo>
    <tripinfo id="carIn60260:1" depart="57606.00" departLane="315358254#0_1" departPos="5.10" departSpeed="0.00" departDelay="0.90" arrival="57684.00" arrivalLane="399835085#1_1" arrivalPos="212.23" arrivalSpeed="7.63" duration="78.00" routeLength="430.98" waitingTime="21.00" waitingCount="1" stopTime="0.00" timeLoss="31.53" rerouteNo="1" devices="tripinfo_carIn60260:1 routing_carIn60260:1 emissions_carIn60260:1" vType="default_016" speedFactor="1.00" vaporized="">
        <emissions CO_abs="4976.120018" CO2_abs="160820.373581" HC_abs="26.396130" PMx_abs="3.052753" NOx_abs="67.699687" fuel_abs="69.131558" electricity_abs="0"/>
    </tripinfo>
    <tripinfo id="carIn53971:1" depart="57640.00" departLane="272042143_1" departPos="5.10" departSpeed="0.00" departDelay="0.80" arrival="57689.00" arrivalLane="24634414#1_1" arrivalPos="162.19" arrivalSpeed="8.20" duration="49.00" routeLength="493.04" waitingTime="0.00" waitingCount="0" stopTime="0.00" timeLoss="7.83" rerouteNo="1" devices="tripinfo_carIn53971:1 routing_carIn53971:1 emissions_carIn53971:1" vType="default_016" speedFactor="1.12" vaporized="">
        <emissions CO_abs="2281.624287" CO2_abs="140251.197185" HC_abs="13.687386" PMx_abs="2.503745" NOx_abs="57.600280" fuel_abs="60.288048" electricity_abs="0"/>
    </tripinfo>
    <tripinfo id="h3688c1:1" depart="57625.00" departLane="201201950#1_1" departPos="5.10" departSpeed="0.00" departDelay="0.00" arrival="57718.00" arrivalLane="32978638#0_1" arrivalPos="49.29" arrivalSpeed="12.66" duration="93.00" routeLength="1089.75" waitingTime="0.00" waitingCount="0" stopTime="0.00" timeLoss="9.50" rerouteNo="1" devices="tripinfo_h3688c1:1 routing_h3688c1:1 emissions_h3688c1:1" vType="default_016" speedFactor="0.96" vaporized="">
        <emissions CO_abs="2793.539115" CO2_abs="230556.187685" HC_abs="18.052749" PMx_abs="3.646546" NOx_abs="90.706996" fuel_abs="99.106327" electricity_abs="0"/>
    </tripinfo>
    <tripinfo id="h7800c1:5" depart="57696.00" departLane="-447569998#1_1" departPos="5.10" departSpeed="0.00" departDelay="0.00" arrival="57723.00" arrivalLane="-447569998#1_1" arrivalPos="180.76" arrivalSpeed="6.64" duration="27.00" routeLength="175.66" waitingTime="0.00" waitingCount="0" stopTime="0.00" timeLoss="3.51" rerouteNo="1" devices="tripinfo_h7800c1:5 routing_h7800c1:5 emissions_h7800c1:5" vType="default_016" speedFactor="0.91" vaporized="">
        <emissions CO_abs="1302.502453" CO2_abs="51676.140271" HC_abs="7.103588" PMx_abs="0.803185" NOx_abs="20.807481" fuel_abs="22.213924" electricity_abs="0"/>
    </tripinfo>
    <tripinfo id="h3568c1:3" depart="57656.00" departLane="266565295#5_1" departPos="5.10" departSpeed="0.00" departDelay="0.80" arrival="57734.00" arrivalLane="-24634415_1" arrivalPos="62.03" arrivalSpeed="14.30" duration="78.00" routeLength="807.40" waitingTime="0.00" waitingCount="0" stopTime="0.00" timeLoss="17.95" rerouteNo="1" devices="tripinfo_h3568c1:3 routing_h3568c1:3 emissions_h3568c1:3" vType="default_016" speedFactor="1.07" vaporized="">
        <emissions CO_abs="3989.033141" CO2_abs="250262.692755" HC_abs="24.067488" PMx_abs="4.526658" NOx_abs="102.858609" fuel_abs="107.577201" electricity_abs="0"/>
    </tripinfo>
    <tripinfo id="h4538c1:1" depart="57701.00" departLane="-10427692#1_1" departPos="5.10" departSpeed="0.00" departDelay="0.00" arrival="57738.00" arrivalLane="-128361102#1_1" arrivalPos="274.68" arrivalSpeed="14.11" duration="37.00" routeLength="440.74" waitingTime="0.00" waitingCount="0" stopTime="0.00" timeLoss="6.42" rerouteNo="1" devices="tripinfo_h4538c1:1 routing_h4538c1:1 emissions_h4538c1:1" vType="default_016" speedFactor="1.06" vaporized="">
        <emissions CO_abs="1509.220645" CO2_abs="111194.609199" HC_abs="9.460386" PMx_abs="1.883570" NOx_abs="44.533524" fuel_abs="47.797796" electricity_abs="0"/>
    </tripinfo>
    <tripinfo id="h5979c1:5" depart="57669.00" departLane="399835085#1_1" departPos="5.10" departSpeed="0.00" departDelay="0.00" arrival="57744.00" arrivalLane="-315358254#1_1" arrivalPos="137.16" arrivalSpeed="15.40" duration="75.00" routeLength="659.33" waitingTime="0.00" waitingCount="0" stopTime="0.00" timeLoss="10.39" rerouteNo="1" devices="tripinfo_h5979c1:5 routing_h5979c1:5 emissions_h5979c1:5" vType="default_016" speedFactor="1.14" vaporized="">
        <emissions CO_abs="2890.631872" CO2_abs="165081.507220" HC_abs="16.995048" PMx_abs="2.742370" NOx_abs="66.712787" fuel_abs="70.962010" electricity_abs="0"/>
    </tripinfo>
    <tripinfo id="h3154c1:1" depart="57658.00" departLane="24634507_1" departPos="5.10" departSpeed="0.00" departDelay="0.00" arrival="57757.00" arrivalLane="-266565295#5_1" arrivalPos="172.76" arrivalSpeed="14.78" duration="99.00" routeLength="1206.22" waitingTime="0.00" waitingCount="0" stopTime="0.00" timeLoss="16.65" rerouteNo="1" devices="tripinfo_h3154c1:1 routing_h3154c1:1 emissions_h3154c1:1" vType="default_016" speedFactor="1.08" vaporized="">
        <emissions CO_abs="3912.788933" CO2_abs="289755.495126" HC_abs="24.630291" PMx_abs="5.088248" NOx_abs="117.109185" fuel_abs="124.553191" electricity_abs="0"/>
    </tripinfo>
    <tripinfo id="h3326c1:2" depart="57656.00" departLane="22716069#0_1" departPos="5.10" departSpeed="0.00" departDelay="0.00" arrival="57773.00" arrivalLane="24634517#13_1" arrivalPos="111.62" arrivalSpeed="12.42" duration="117.00" routeLength="1312.81" waitingTime="0.00" waitingCount="0" stopTime="0.00" timeLoss="15.33" rerouteNo="1" devices="tripinfo_h3326c1:2 routing_h3326c1:2 emissions_h3326c1:2" vType="default_016" speedFactor="0.96" vaporized="">
        <emissions CO_abs="3890.892079" CO2_abs="293748.130688" HC_abs="24.574140" PMx_abs="4.778396" NOx_abs="116.829505" fuel_abs="126.269913" electricity_abs="0"/>
    </tripinfo>
    <tripinfo id="carIn27009:1" depart="57673.00" departLane="-447569998#1_1" departPos="5.10" departSpeed="0.00" departDelay="0.50" arrival="57777.00" arrivalLane="-26677539_1" arrivalPos="152.75" arrivalSpeed="7.13" duration="104.00" routeLength="699.63" waitingTime="1.00" waitingCount="1" stopTime="0.00" timeLoss="15.32" rerouteNo="1" devices="tripinfo_carIn27009:1 routing_carIn27009:1 emissions_carIn27009:1" vType="default_015" speedFactor="0.95" vaporized="">
        <emissions CO_abs="4027.649264" CO2_abs="177164.346971" HC_abs="22.401341" PMx_abs="2.891129" NOx_abs="72.139873" fuel_abs="76.156724" electricity_abs="0"/>
    </tripinfo>
    <tripinfo id="carIn12858:1" depart="57661.00" departLane="128361109#1_1" departPos="5.10" departSpeed="0.00" departDelay="0.90" arrival="57791.00" arrivalLane="399835085#1_1" arrivalPos="212.23" arrivalSpeed="8.93" duration="130.00" routeLength="1738.12" waitingTime="0.00" waitingCount="0" stopTime="0.00" timeLoss="25.67" rerouteNo="1" devices="tripinfo_carIn12858:1 routing_carIn12858:1 emissions_carIn12858:1" vType="default_016" speedFactor="1.12" vaporized="">
        <emissions CO_abs="7293.450792" CO2_abs="495108.478055" HC_abs="45.002068" PMx_abs="9.613698" NOx_abs="203.918086" fuel_abs="212.824769" electricity_abs="0"/>
    </tripinfo>
    <tripinfo id="h11737c1:1" depart="57665.00" departLane="272042143_1" departPos="5.10" departSpeed="0.00" departDelay="1.50" arrival="57797.00" arrivalLane="-315358254#1_1" arrivalPos="137.16" arrivalSpeed="14.48" duration="132.00" routeLength="1596.88" waitingTime="3.00" waitingCount="1" stopTime="0.00" timeLoss="21.28" rerouteNo="1" devices="tripinfo_h11737c1:1 routing_h11737c1:1 emissions_h11737c1:1" vType="default_016" speedFactor="1.05" vaporized="">
        <emissions CO_abs="4188.192865" CO2_abs="329953.973200" HC_abs="26.807816" PMx_abs="5.531636" NOx_abs="131.354095" fuel_abs="141.832962" electricity_abs="0"/>
    </tripinfo>
    <tripinfo id="carIn107282:1" depart="57749.00" departLane="-447569998#1_1" departPos="5.10" departSpeed="0.00" departDelay="0.00" arrival="57814.00" arrivalLane="315358242#0_1" arrivalPos="165.37" arrivalSpeed="14.16" duration="65.00" routeLength="448.50" waitingTime="17.00" waitingCount="1" stopTime="0.00" timeLoss="26.56" rerouteNo="1" devices="tripinfo_carIn107282:1 routing_carIn107282:1 emissions_carIn107282:1" vType="default_016" speedFactor="1.09" vaporized="">
        <emissions CO_abs="4140.776918" CO2_abs="153771.508640" HC_abs="22.435563" PMx_abs="2.859344" NOx_abs="63.919553" fuel_abs="66.101081" electricity_abs="0"/>
    </tripinfo>
    <tripinfo id="carIn126288:1" depart="57674.00" departLane="272042143_1" departPos="5.10" departSpeed="0.00" departDelay="0.00" arrival="57828.00" arrivalLane="-315358254#1_1" arrivalPos="137.16" arrivalSpeed="11.93" duration="154.00" routeLength="1596.88" waitingTime="5.00" waitingCount="1" stopTime="0.00" timeLoss="23.04" rerouteNo="1" devices="tripinfo_carIn126288:1 routing_carIn126288:1 emissions_carIn126288:1" vType="default_016" speedFactor="0.89" vaporized="">
        <emissions CO_abs="4100.851173" CO2_abs="313845.981268" HC_abs="25.928797" PMx_abs="4.737166" NOx_abs="122.524951" fuel_abs="134.909635" electricity_abs="0"/>
    </tripinfo>
    <tripinfo id="h7181c1:1" depart="57660.00" departLane="315358254#0_1" departPos="5.10" departSpeed="0.00" departDelay="0.10" arrival="57841.00" arrivalLane="306240162#0_0" arrivalPos="220.43" arrivalSpeed="15.38" duration="181.00" routeLength="932.35" waitingTime="101.00" waitingCount="3" stopTime="0.00" timeLoss="129.27" rerouteNo="1" devices="tripinfo_h7181c1:1 routing_h7181c1:1 emissions_h7181c1:1" vType="default_016" speedFactor="0.99" vaporized="">
        <emissions CO_abs="19964.872611" CO2_abs="560315.945198" HC_abs="104.143195" PMx_abs="12.208970" NOx_abs="242.936302" fuel_abs="240.862140" electricity_abs="0"/>
    </tripinfo>
    <tripinfo id="carIn7949:1" depart="57676.00" departLane="128361109#1_1" departPos="5.10" departSpeed="0.00" departDelay="2.10" arrival="57843.00" arrivalLane="386687235_1" arrivalPos="80.84" arrivalSpeed="13.36" duration="167.00" routeLength="2088.57" waitingTime="8.00" waitingCount="1" stopTime="0.00" timeLoss="23.58" rerouteNo="1" devices="tripinfo_carIn7949:1 routing_carIn7949:1 emissions_carIn7949:1" vType="default_016" speedFactor="1.05" vaporized="">
        <emissions CO_abs="4248.417453" CO2_abs="374032.428985" HC_abs="27.999743" PMx_abs="5.908116" NOx_abs="145.450508" fuel_abs="160.780614" electricity_abs="0"/>
    </tripinfo>
    <tripinfo id="carIn81860:1" depart="57712.00" departLane="128361102#0_1" departPos="5.10" departSpeed="0.00" departDelay="0.60" arrival="57844.00" arrivalLane="-24634517#17_1" arrivalPos="6.43" arrivalSpeed="7.20" duration="132.00" routeLength="1229.64" waitingTime="8.00" waitingCount="2" stopTime="0.00" timeLoss="39.22" rerouteNo="1" devices="tripinfo_carIn81860:1 routing_carIn81860:1 emissions_carIn81860:1" vType="default_016" speedFactor="0.97" vaporized="">
        <emissions CO_abs="5154.546594" CO2_abs="299725.897089" HC_abs="30.461188" PMx_abs="5.049798" NOx_abs="120.590806" fuel_abs="128.840222" electricity_abs="0"/>
    </tripinfo>
    <tripinfo id="carIn85747:1" depart="57673.00" departLane="128361109#1_1" departPos="5.10" departSpeed="0.00" departDelay="0.70" arrival="57845.00" arrivalLane="386687235_1" arrivalPos="80.84" arrivalSpeed="13.77" duration="172.00" routeLength="2088.57" waitingTime="12.00" waitingCount="1" stopTime="0.00" timeLoss="30.04" rerouteNo="1" devices="tripinfo_carIn85747:1 routing_carIn85747:1 emissions_carIn85747:1" vType="default_016" speedFactor="1.06" vaporized="">
        <emissions CO_abs="5429.652987" CO2_abs="401774.008173" HC_abs="34.110846" PMx_abs="6.566355" NOx_abs="158.080702" fuel_abs="172.705914" electricity_abs="0"/>
    </tripinfo>
    <tripinfo id="carIn75660:1" depart="57679.00" departLane="128361109#1_1" departPos="5.10" departSpeed="0.00" departDelay="3.40" arrival="57846.00" arrivalLane="386687235_2" arrivalPos="80.84" arrivalSpeed="14.67" duration="167.00" routeLength="2088.57" waitingTime="8.00" waitingCount="1" stopTime="0.00" timeLoss="28.26" rerouteNo="1" devices="tripinfo_carIn75660:1 routing_carIn75660:1 emissions_carIn75660:1" vType="default_016" speedFactor="1.09" vaporized="">
        <emissions CO_abs="5237.910788" CO2_abs="431724.262561" HC_abs="33.898268" PMx_abs="7.129105" NOx_abs="170.092568" fuel_abs="185.579670" electricity_abs="0"/>
    </tripinfo>
    <tripinfo id="h19413c1:1" depart="57685.00" departLane="128361109#1_1" departPos="5.10" departSpeed="0.00" departDelay="5.90" arrival="57847.00" arrivalLane="386687235_1" arrivalPos="80.84" arrivalSpeed="15.22" duration="162.00" routeLength="2088.57" waitingTime="4.00" waitingCount="1" stopTime="0.00" timeLoss="27.54" rerouteNo="1" devices="tripinfo_h19413c1:1 routing_h19413c1:1 emissions_h19413c1:1" vType="default_016" speedFactor="1.12" vaporized="">
        <emissions CO_abs="5335.866430" CO2_abs="449033.618422" HC_abs="34.749375" PMx_abs="7.612896" NOx_abs="178.399625" fuel_abs="193.019790" electricity_abs="0"/>
    </tripinfo>
    <tripinfo id="carIn88905:1" depart="57688.00" departLane="128361109#1_1" departPos="5.10" departSpeed="0.00" departDelay="5.80" arrival="57849.00" arrivalLane="386687235_2" arrivalPos="80.84" arrivalSpeed="14.70" duration="161.00" routeLength="2088.57" waitingTime="2.00" waitingCount="1" stopTime="0.00" timeLoss="28.16" rerouteNo="1" devices="tripinfo_carIn88905:1 routing_carIn88905:1 emissions_carIn88905:1" vType="default_016" speedFactor="1.14" vaporized="">
        <emissions CO_abs="5616.684162" CO2_abs="444488.612340" HC_abs="35.982925" PMx_abs="7.840019" NOx_abs="179.061868" fuel_abs="191.065865" electricity_abs="0"/>
    </tripinfo>
    <tripinfo id="carIn12152:1" depart="57647.00" departLane="24599188#0.94_1" departPos="5.10" departSpeed="0.00" departDelay="0.50" arrival="57850.00" arrivalLane="-315358254#1_1" arrivalPos="137.16" arrivalSpeed="13.83" duration="203.00" routeLength="2034.31" waitingTime="17.00" waitingCount="2" stopTime="0.00" timeLoss="44.32" rerouteNo="1" devices="tripinfo_carIn12152:1 routing_carIn12152:1 emissions_carIn12152:1" vType="default_016" speedFactor="1.00" vaporized="">
        <emissions CO_abs="7014.400291" CO2_abs="462165.113768" HC_abs="42.684492" PMx_abs="7.552751" NOx_abs="183.674135" fuel_abs="198.666002" electricity_abs="0"/>
    </tripinfo>
    <tripinfo id="h19577c1:1" depart="57694.00" departLane="128361109#1_1" departPos="5.10" departSpeed="0.00" departDelay="2.80" arrival="57850.00" arrivalLane="386687235_2" arrivalPos="80.84" arrivalSpeed="15.21" duration="156.00" routeLength="2088.57" waitingTime="0.00" waitingCount="0" stopTime="0.00" timeLoss="26.65" rerouteNo="1" devices="tripinfo_h19577c1:1 routing_h19577c1:1 emissions_h19577c1:1" vType="default_016" speedFactor="1.17" vaporized="">
        <emissions CO_abs="5879.806815" CO2_abs="489715.035983" HC_abs="38.280788" PMx_abs="8.696257" NOx_abs="197.787007" fuel_abs="210.506329" electricity_abs="0"/>
    </tripinfo>
    <tripinfo id="carIn5824:1" depart="57700.00" departLane="128361109#1_1" departPos="5.10" departSpeed="0.00" departDelay="5.60" arrival="57850.00" arrivalLane="386687235_1" arrivalPos="80.84" arrivalSpeed="15.29" duration="150.00" routeLength="2088.57" waitingTime="0.00" waitingCount="0" stopTime="0.00" timeLoss="13.87" rerouteNo="1" devices="tripinfo_carIn5824:1 routing_carIn5824:1 emissions_carIn5824:1" vType="default_016" speedFactor="1.11" vaporized="">
        <emissions CO_abs="3698.230174" CO2_abs="382698.813269" HC_abs="25.666240" PMx_abs="6.022005" NOx_abs="147.888826" fuel_abs="164.505475" electricity_abs="0"/>
    </tripinfo>
    <tripinfo id="h645c1:1" depart="57622.00" departLane="266565295#5_1" departPos="5.10" departSpeed="0.00" departDelay="0.40" arrival="57853.00" arrivalLane="-315358244_2" arrivalPos="33.95" arrivalSpeed="14.48" duration="231.00" routeLength="1910.83" waitingTime="79.00" waitingCount="3" stopTime="0.00" timeLoss="106.20" rerouteNo="1" devices="tripinfo_h645c1:1 routing_h645c1:1 emissions_h645c1:1" vType="default_016" speedFactor="1.11" vaporized="">
        <emissions CO_abs="16332.016279" CO2_abs="578491.537137" HC_abs="87.862721" PMx_abs="11.405843" NOx_abs="242.314971" fuel_abs="248.673486" electricity_abs="0"/>
    </tripinfo>
    <tripinfo id="carIn121703:1" depart="57647.00" departLane="386687232#0_1" departPos="5.10" departSpeed="0.00" departDelay="0.30" arrival="57854.00" arrivalLane="-315358244_1" arrivalPos="33.95" arrivalSpeed="12.12" duration="207.00" routeLength="1157.39" waitingTime="93.00" waitingCount="3" stopTime="0.00" timeLoss="116.49" rerouteNo="1" devices="tripinfo_carIn121703:1 routing_carIn121703:1 emissions_carIn121703:1" vType="default_016" speedFactor="0.94" vaporized="">
        <emissions CO_abs="17805.290945" CO2_abs="494722.812107" HC_abs="92.691195" PMx_abs="10.286970" NOx_abs="212.640575" fuel_abs="212.666498" electricity_abs="0"/>
    </tripinfo>
    <tripinfo id="carIn129809:1" depart="57729.00" departLane="-447569998#1_1" departPos="5.10" departSpeed="0.00" departDelay="1.00" arrival="57855.00" arrivalLane="-315358244_1" arrivalPos="33.95" arrivalSpeed="14.21" duration="126.00" routeLength="706.49" waitingTime="52.00" waitingCount="2" stopTime="0.00" timeLoss="71.67" rerouteNo="1" devices="tripinfo_carIn129809:1 routing_carIn129809:1 emissions_carIn129809:1" vType="default_015" speedFactor="1.11" vaporized="">
        <emissions CO_abs="10463.963930" CO2_abs="327371.110508" HC_abs="55.290245" PMx_abs="6.596848" NOx_abs="139.194841" fuel_abs="140.726222" electricity_abs="0"/>
    </tripinfo>
    <tripinfo id="h17600c1:1" depart="57662.00" departLane="272042143_1" departPos="5.10" departSpeed="0.00" departDelay="0.30" arrival="57857.00" arrivalLane="201238729#3_1" arrivalPos="431.02" arrivalSpeed="11.42" duration="195.00" routeLength="2100.26" waitingTime="1.00" waitingCount="1" stopTime="0.00" timeLoss="23.91" rerouteNo="1" devices="tripinfo_h17600c1:1 routing_h17600c1:1 emissions_h17600c1:1" vType="default_016" speedFactor="0.89" vaporized="">
        <emissions CO_abs="5326.850725" CO2_abs="415490.690274" HC_abs="33.844347" PMx_abs="6.157820" NOx_abs="161.347492" fuel_abs="178.602665" electricity_abs="0"/>
    </tripinfo>
    <tripinfo id="carIn12775:1" depart="57676.00" departLane="10425609#0_1" departPos="5.10" departSpeed="0.00" departDelay="0.60" arrival="57858.00" arrivalLane="18809673#0_1" arrivalPos="473.56" arrivalSpeed="11.31" duration="182.00" routeLength="1959.45" waitingTime="0.00" waitingCount="0" stopTime="0.00" timeLoss="16.21" rerouteNo="1" devices="tripinfo_carIn12775:1 routing_carIn12775:1 emissions_carIn12775:1" vType="default_016" speedFactor="0.88" vaporized="">
        <emissions CO_abs="4596.589408" CO2_abs="367324.366146" HC_abs="29.386600" PMx_abs="5.320893" NOx_abs="141.890278" fuel_abs="157.897995" electricity_abs="0"/>
    </tripinfo>
    <tripinfo id="carIn22761:1" depart="57616.00" departLane="-306240162#1_0" departPos="5.10" departSpeed="0.00" departDelay="2.10" arrival="57868.00" arrivalLane="399835085#1_1" arrivalPos="212.23" arrivalSpeed="6.80" duration="252.00" routeLength="1093.26" waitingTime="138.00" waitingCount="3" stopTime="0.00" timeLoss="166.78" rerouteNo="1" devices="tripinfo_carIn22761:1 routing_carIn22761:1 emissions_carIn22761:1" vType="default_016" speedFactor="0.91" vaporized="">
        <emissions CO_abs="26296.835734" CO2_abs="642750.979368" HC_abs="134.900900" PMx_abs="14.199270" NOx_abs="281.393476" fuel_abs="276.300828" electricity_abs="0"/>
    </tripinfo>
    <tripinfo id="carIn24709:1" depart="57753.00" departLane="266565295#5_1" departPos="5.10" departSpeed="0.00" departDelay="2.50" arrival="57874.00" arrivalLane="-24634506#2_1" arrivalPos="71.32" arrivalSpeed="14.16" duration="121.00" routeLength="1450.12" waitingTime="0.00" waitingCount="0" stopTime="0.00" timeLoss="12.56" rerouteNo="1" devices="tripinfo_carIn24709:1 routing_carIn24709:1 emissions_carIn24709:1" vType="default_016" speedFactor="1.10" vaporized="">
        <emissions CO_abs="3879.300648" CO2_abs="312155.963752" HC_abs="24.850348" PMx_abs="5.106431" NOx_abs="123.381213" fuel_abs="134.182475" electricity_abs="0"/>
    </tripinfo>
    <tripinfo id="carIn86816:1" depart="57617.00" departLane="128361102#0_1" departPos="5.10" departSpeed="0.00" departDelay="0.80" arrival="57876.00" arrivalLane="201956811#0_1" arrivalPos="40.40" arrivalSpeed="12.81" duration="259.00" routeLength="2067.33" waitingTime="79.00" waitingCount="1" stopTime="0.00" timeLoss="101.40" rerouteNo="1" devices="tripinfo_carIn86816:1 routing_carIn86816:1 emissions_carIn86816:1" vType="default_016" speedFactor="0.96" vaporized="">
        <emissions CO_abs="17758.115573" CO2_abs="614985.611287" HC_abs="95.239201" PMx_abs="11.738483" NOx_abs="256.257853" fuel_abs="264.361860" electricity_abs="0"/>
    </tripinfo>
    <tripinfo id="h7097c1:1" depart="57670.00" departLane="315358242#0_1" departPos="5.10" departSpeed="0.00" departDelay="0.60" arrival="57879.00" arrivalLane="306240162#0_0" arrivalPos="220.43" arrivalSpeed="18.67" duration="209.00" routeLength="2586.94" waitingTime="21.00" waitingCount="2" stopTime="0.00" timeLoss="64.16" rerouteNo="1" devices="tripinfo_h7097c1:1 routing_h7097c1:1 emissions_h7097c1:1" vType="default_016" speedFactor="1.19" vaporized="">
        <emissions CO_abs="10562.927249" CO2_abs="677206.951383" HC_abs="63.993651" PMx_abs="12.791708" NOx_abs="275.983208" fuel_abs="291.101761" electricity_abs="0"/>
    </tripinfo>
    <tripinfo id="h17890c1:3" depart="57792.00" departLane="386687232#0_1" departPos="5.10" departSpeed="0.00" departDelay="0.00" arrival="57880.00" arrivalLane="32978638#0_1" arrivalPos="49.29" arrivalSpeed="13.79" duration="88.00" routeLength="792.72" waitingTime="12.00" waitingCount="2" stopTime="0.00" timeLoss="31.78" rerouteNo="1" devices="tripinfo_h17890c1:3 routing_h17890c1:3 emissions_h17890c1:3" vType="default_016" speedFactor="1.05" vaporized="">
        <emissions CO_abs="4707.557666" CO2_abs="265692.695475" HC_abs="27.684136" PMx_abs="4.910967" NOx_abs="109.798359" fuel_abs="114.210145" electricity_abs="0"/>
    </tripinfo>
    <tripinfo id="h3536c1:1" depart="57767.00" departLane="-24634413#2_1" departPos="5.10" departSpeed="0.00" departDelay="0.00" arrival="57883.00" arrivalLane="32978638#0_1" arrivalPos="49.29" arrivalSpeed="14.10" duration="116.00" routeLength="953.61" waitingTime="6.00" waitingCount="2" stopTime="0.00" timeLoss="29.19" rerouteNo="1" devices="tripinfo_h3536c1:1 routing_h3536c1:1 emissions_h3536c1:1" vType="default_016" speedFactor="1.04" vaporized="">
        <emissions CO_abs="5506.532536" CO2_abs="300557.187153" HC_abs="32.064877" PMx_abs="5.377800" NOx_abs="124.107012" fuel_abs="129.197240" electricity_abs="0"/>
    </tripinfo>
    <tripinfo id="carIn50326:1" depart="57651.00" departLane="128361102#0_1" departPos="5.10" departSpeed="0.00" departDelay="0.30" arrival="57886.00" arrivalLane="18809673#0_1" arrivalPos="473.56" arrivalSpeed="12.41" duration="235.00" routeLength="1591.07" waitingTime="62.00" waitingCount="3" stopTime="0.00" timeLoss="91.17" rerouteNo="1" devices="tripinfo_carIn50326:1 routing_carIn50326:1 emissions_carIn50326:1" vType="default_016" speedFactor="0.90" vaporized="">
        <emissions CO_abs="14527.568852" CO2_abs="502466.126230" HC_abs="77.806980" PMx_abs="9.164611" NOx_abs="207.815061" fuel_abs="215.994020" electricity_abs="0"/>
    </tripinfo>
    <tripinfo id="h6541c1:3" depart="57727.00" departLane="201950247#3_1" departPos="5.10" departSpeed="0.00" departDelay="0.00" arrival="57891.00" arrivalLane="32978638#0_1" arrivalPos="49.29" arrivalSpeed="10.81" duration="164.00" routeLength="1176.17" waitingTime="14.00" waitingCount="2" stopTime="0.00" timeLoss="37.73" rerouteNo="1" devices="tripinfo_h6541c1:3 routing_h6541c1:3 emissions_h6541c1:3" vType="default_016" speedFactor="0.81" vaporized="">
        <emissions CO_abs="7225.258244" CO2_abs="314380.108037" HC_abs="40.129070" PMx_abs="5.176098" NOx_abs="127.292676" fuel_abs="135.141059" electricity_abs="0"/>
    </tripinfo>
    <tripinfo id="carIn102915:1" depart="57643.00" departLane="128361102#0_1" departPos="5.10" departSpeed="0.00" departDelay="0.40" arrival="57892.00" arrivalLane="201956811#0_1" arrivalPos="40.40" arrivalSpeed="11.45" duration="249.00" routeLength="2067.33" waitingTime="55.00" waitingCount="2" stopTime="0.00" timeLoss="81.64" rerouteNo="1" devices="tripinfo_carIn102915:1 routing_carIn102915:1 emissions_carIn102915:1" vType="default_016" speedFactor="0.90" vaporized="">
        <emissions CO_abs="13836.838216" CO2_abs="562720.205425" HC_abs="76.104572" PMx_abs="10.034248" NOx_abs="230.264608" fuel_abs="241.893682" electricity_abs="0"/>
    </tripinfo>
    <tripinfo id="carIn126378:1" depart="57746.00" departLane="386687232#0_1" departPos="5.10" departSpeed="0.00" departDelay="1.80" arrival="57893.00" arrivalLane="-315358244_2" arrivalPos="33.95" arrivalSpeed="14.49" duration="147.00" routeLength="1157.39" waitingTime="50.00" waitingCount="2" stopTime="0.00" timeLoss="71.03" rerouteNo="1" devices="tripinfo_carIn126378:1 routing_carIn126378:1 emissions_carIn126378:1" vType="default_016" speedFactor="1.11" vaporized="">
        <emissions CO_abs="10722.475227" CO2_abs="380918.167261" HC_abs="57.656606" PMx_abs="7.398027" NOx_abs="159.055855" fuel_abs="163.743649" electricity_abs="0"/>
    </tripinfo>
    <tripinfo id="carIn8642:1" depart="57774.00" departLane="-447569998#1_1" departPos="5.10" departSpeed="0.00" departDelay="0.90" arrival="57893.00" arrivalLane="-315358244_1" arrivalPos="33.95" arrivalSpeed="13.24" duration="119.00" routeLength="706.49" waitingTime="42.00" waitingCount="2" stopTime="0.00" timeLoss="58.65" rerouteNo="1" devices="tripinfo_carIn8642:1 routing_carIn8642:1 emissions_carIn8642:1" vType="default_016" speedFactor="1.00" vaporized="">
        <emissions CO_abs="8209.958850" CO2_abs="269819.692094" HC_abs="43.708109" PMx_abs="5.329752" NOx_abs="114.315787" fuel_abs="115.986521" electricity_abs="0"/>
    </tripinfo>
    <tripinfo id="randUni33724:1" depart="57646.00" departLane="128361102#0_1" departPos="5.10" departSpeed="0.00" departDelay="1.20" arrival="57894.00" arrivalLane="201956811#0_1" arrivalPos="40.40" arrivalSpeed="13.92" duration="248.00" routeLength="2067.33" waitingTime="52.00" waitingCount="1" stopTime="0.00" timeLoss="109.29" rerouteNo="1" devices="tripinfo_randUni33724:1 routing_randUni33724:1 emissions_randUni33724:1" vType="random_016" speedFactor="1.10" vaporized="">
        <emissions CO_abs="15594.469940" CO2_abs="651724.211283" HC_abs="86.336676" PMx_abs="12.415935" NOx_abs="272.449549" fuel_abs="280.151734" electricity_abs="0"/>
    </tripinfo>
    <tripinfo id="h9953c2:3" depart="57682.00" departLane="-54169231#2_1" departPos="5.10" departSpeed="0.00" departDelay="0.00" arrival="57894.00" arrivalLane="386687235_1" arrivalPos="80.84" arrivalSpeed="11.84" duration="212.00" routeLength="1535.60" waitingTime="42.00" waitingCount="2" stopTime="0.00" timeLoss="71.25" rerouteNo="1" devices="tripinfo_h9953c2:3 routing_h9953c2:3 emissions_h9953c2:3" vType="default_016" speedFactor="0.89" vaporized="">
        <emissions CO_abs="11747.109851" CO2_abs="460347.027326" HC_abs="64.242148" PMx_abs="8.581153" NOx_abs="192.279458" fuel_abs="197.886683" electricity_abs="0"/>
    </tripinfo>
    <tripinfo id="h13377c2:3" depart="57804.00" departLane="315358244_1" departPos="5.10" departSpeed="0.00" departDelay="0.60" arrival="57894.00" arrivalLane="447569997#1_1" arrivalPos="180.93" arrivalSpeed="6.94" duration="90.00" routeLength="726.74" waitingTime="0.00" waitingCount="0" stopTime="0.00" timeLoss="15.02" rerouteNo="1" devices="tripinfo_h13377c2:3 routing_h13377c2:3 emissions_h13377c2:3" vType="default_016" speedFactor="0.89" vaporized="">
        <emissions CO_abs="3494.504869" CO2_abs="182351.372794" HC_abs="20.116853" PMx_abs="2.938491" NOx_abs="73.246671" fuel_abs="78.386024" electricity_abs="0"/>
    </tripinfo>