<?xml version="1.0" encoding="UTF-8"?>

<!-- generated on 2021-10-26 21:03:00 by Eclipse SUMO sumo Version 1.10.0
<configuration xmlns:xsi="http://www.w3.org/2001/XMLSchema-instance" xsi:noNamespaceSchemaLocation="http://sumo.dlr.de/xsd/sumoConfiguration.xsd">

    <input>
        <net-file value="/Users/behradkoohy/sumo-scratchpad/RESCO/environments/ingolstadt21/ingolstadt21.net.xml"/>
        <route-files value="/Users/behradkoohy/sumo-scratchpad/RESCO/environments/ingolstadt21/ingolstadt21.rou.xml"/>
    </input>

    <output>
        <tripinfo-output value="/Users/behradkoohy/sumo-scratchpad/RESCO/logs/MPLight-tr0-ingolstadt21-21-mplight_full-pressure/tripinfo_29.xml"/>
        <tripinfo-output.write-unfinished value="true"/>
    </output>

    <time>
        <begin value="57600"/>
        <end value="61200"/>
    </time>

    <processing>
        <time-to-teleport value="-1"/>
    </processing>

    <report>
        <no-warnings value="true"/>
        <no-step-log value="true"/>
    </report>

    <emissions>
        <device.emissions.probability value="1"/>
    </emissions>

    <traci_server>
        <remote-port value="64751"/>
    </traci_server>

    <random_number>
        <random value="true"/>
    </random_number>

</configuration>
-->

<tripinfos xmlns:xsi="http://www.w3.org/2001/XMLSchema-instance" xsi:noNamespaceSchemaLocation="http://sumo.dlr.de/xsd/tripinfo_file.xsd">
    <tripinfo id="h15454c2:3" depart="57612.00" departLane="24608844_1" departPos="5.10" departSpeed="0.00" departDelay="0.50" arrival="57657.00" arrivalLane="32978638#0_1" arrivalPos="49.29" arrivalSpeed="13.82" duration="45.00" routeLength="354.79" waitingTime="1.00" waitingCount="1" stopTime="0.00" timeLoss="10.31" rerouteNo="1" devices="tripinfo_h15454c2:3 routing_h15454c2:3 emissions_h15454c2:3" vType="default_016" speedFactor="1.00" vaporized="">
        <emissions CO_abs="2080.104993" CO2_abs="104984.944055" HC_abs="11.936228" PMx_abs="1.935413" NOx_abs="43.822159" fuel_abs="45.128773" electricity_abs="0"/>
    </tripinfo>
    <tripinfo id="carIn60260:1" depart="57606.00" departLane="315358254#0_1" departPos="5.10" departSpeed="0.00" departDelay="0.90" arrival="57663.00" arrivalLane="399835085#1_1" arrivalPos="212.23" arrivalSpeed="7.61" duration="57.00" routeLength="430.98" waitingTime="2.00" waitingCount="1" stopTime="0.00" timeLoss="10.85" rerouteNo="1" devices="tripinfo_carIn60260:1 routing_carIn60260:1 emissions_carIn60260:1" vType="default_016" speedFactor="1.00" vaporized="">
        <emissions CO_abs="2431.761745" CO2_abs="120708.426825" HC_abs="13.872514" PMx_abs="2.062186" NOx_abs="49.423600" fuel_abs="51.887935" electricity_abs="0"/>
    </tripinfo>
    <tripinfo id="carIn53971:1" depart="57640.00" departLane="272042143_1" departPos="5.10" departSpeed="0.00" departDelay="0.80" arrival="57697.00" arrivalLane="24634414#1_1" arrivalPos="162.19" arrivalSpeed="6.71" duration="57.00" routeLength="493.04" waitingTime="0.00" waitingCount="0" stopTime="0.00" timeLoss="6.76" rerouteNo="1" devices="tripinfo_carIn53971:1 routing_carIn53971:1 emissions_carIn53971:1" vType="default_016" speedFactor="0.92" vaporized="">
        <emissions CO_abs="2398.549511" CO2_abs="129222.955452" HC_abs="13.923444" PMx_abs="2.191202" NOx_abs="52.697552" fuel_abs="55.547866" electricity_abs="0"/>
    </tripinfo>
    <tripinfo id="h7800c1:5" depart="57696.00" departLane="-447569998#1_1" departPos="5.10" departSpeed="0.00" departDelay="0.00" arrival="57720.00" arrivalLane="-447569998#1_1" arrivalPos="180.76" arrivalSpeed="7.58" duration="24.00" routeLength="175.66" waitingTime="0.00" waitingCount="0" stopTime="0.00" timeLoss="3.27" rerouteNo="1" devices="tripinfo_h7800c1:5 routing_h7800c1:5 emissions_h7800c1:5" vType="default_016" speedFactor="1.03" vaporized="">
        <emissions CO_abs="1077.324510" CO2_abs="48687.282123" HC_abs="6.021685" PMx_abs="0.787362" NOx_abs="19.750705" fuel_abs="20.928940" electricity_abs="0"/>
    </tripinfo>
    <tripinfo id="h4538c1:1" depart="57701.00" departLane="-10427692#1_1" departPos="5.10" departSpeed="0.00" departDelay="0.00" arrival="57739.00" arrivalLane="-128361102#1_1" arrivalPos="274.68" arrivalSpeed="14.06" duration="38.00" routeLength="440.74" waitingTime="0.00" waitingCount="0" stopTime="0.00" timeLoss="7.20" rerouteNo="1" devices="tripinfo_h4538c1:1 routing_h4538c1:1 emissions_h4538c1:1" vType="default_016" speedFactor="1.06" vaporized="">
        <emissions CO_abs="1463.467435" CO2_abs="110607.369760" HC_abs="9.242030" PMx_abs="1.825132" NOx_abs="43.910278" fuel_abs="47.545418" electricity_abs="0"/>
    </tripinfo>
    <tripinfo id="carIn80064:1" depart="57603.00" departLane="128361109#1_1" departPos="5.10" departSpeed="0.00" departDelay="0.40" arrival="57751.00" arrivalLane="-315358254#1_1" arrivalPos="137.16" arrivalSpeed="10.29" duration="148.00" routeLength="1587.97" waitingTime="11.00" waitingCount="2" stopTime="0.00" timeLoss="34.35" rerouteNo="1" devices="tripinfo_carIn80064:1 routing_carIn80064:1 emissions_carIn80064:1" vType="default_016" speedFactor="0.79" vaporized="">
        <emissions CO_abs="6670.847472" CO2_abs="400941.210142" HC_abs="39.835990" PMx_abs="7.404058" NOx_abs="164.832607" fuel_abs="172.347534" electricity_abs="0"/>
    </tripinfo>
    <tripinfo id="h3568c1:3" depart="57656.00" departLane="266565295#5_1" departPos="5.10" departSpeed="0.00" departDelay="0.80" arrival="57751.00" arrivalLane="-24634415_1" arrivalPos="62.03" arrivalSpeed="9.98" duration="95.00" routeLength="807.40" waitingTime="0.00" waitingCount="0" stopTime="0.00" timeLoss="14.62" rerouteNo="1" devices="tripinfo_h3568c1:3 routing_h3568c1:3 emissions_h3568c1:3" vType="default_016" speedFactor="0.81" vaporized="">
        <emissions CO_abs="3481.761190" CO2_abs="197326.825320" HC_abs="20.417430" PMx_abs="3.200548" NOx_abs="79.387093" fuel_abs="84.823123" electricity_abs="0"/>
    </tripinfo>
    <tripinfo id="h7181c1:1" depart="57660.00" departLane="315358254#0_1" departPos="5.10" departSpeed="0.00" departDelay="0.10" arrival="57751.00" arrivalLane="306240162#0_0" arrivalPos="220.43" arrivalSpeed="15.09" duration="91.00" routeLength="932.35" waitingTime="18.00" waitingCount="2" stopTime="0.00" timeLoss="38.52" rerouteNo="1" devices="tripinfo_h7181c1:1 routing_h7181c1:1 emissions_h7181c1:1" vType="default_016" speedFactor="0.98" vaporized="">
        <emissions CO_abs="5296.367528" CO2_abs="281461.862465" HC_abs="30.807671" PMx_abs="5.611443" NOx_abs="117.468650" fuel_abs="120.988439" electricity_abs="0"/>
    </tripinfo>
    <tripinfo id="carIn27009:1" depart="57673.00" departLane="-447569998#1_1" departPos="5.10" departSpeed="0.00" departDelay="0.50" arrival="57755.00" arrivalLane="-26677539_1" arrivalPos="152.75" arrivalSpeed="9.44" duration="82.00" routeLength="699.63" waitingTime="0.00" waitingCount="0" stopTime="0.00" timeLoss="11.22" rerouteNo="1" devices="tripinfo_carIn27009:1 routing_carIn27009:1 emissions_carIn27009:1" vType="default_015" speedFactor="1.18" vaporized="">
        <emissions CO_abs="3335.821832" CO2_abs="188482.032022" HC_abs="19.540824" PMx_abs="3.040636" NOx_abs="75.990446" fuel_abs="81.021096" electricity_abs="0"/>
    </tripinfo>
    <tripinfo id="h317c2:1" depart="57707.00" departLane="-32978638#0_1" departPos="5.10" departSpeed="0.00" departDelay="0.10" arrival="57756.00" arrivalLane="-266565295#5_1" arrivalPos="172.76" arrivalSpeed="13.43" duration="49.00" routeLength="370.53" waitingTime="11.00" waitingCount="1" stopTime="0.00" timeLoss="20.83" rerouteNo="1" devices="tripinfo_h317c2:1 routing_h317c2:1 emissions_h317c2:1" vType="default_016" speedFactor="0.99" vaporized="">
        <emissions CO_abs="3348.893178" CO2_abs="143888.150416" HC_abs="18.631771" PMx_abs="2.717911" NOx_abs="59.985357" fuel_abs="61.852063" electricity_abs="0"/>
    </tripinfo>
    <tripinfo id="h3154c1:1" depart="57658.00" departLane="24634507_1" departPos="5.10" departSpeed="0.00" departDelay="0.00" arrival="57770.00" arrivalLane="-266565295#5_1" arrivalPos="172.76" arrivalSpeed="13.07" duration="112.00" routeLength="1206.22" waitingTime="10.00" waitingCount="1" stopTime="0.00" timeLoss="24.47" rerouteNo="1" devices="tripinfo_h3154c1:1 routing_h3154c1:1 emissions_h3154c1:1" vType="default_016" speedFactor="1.02" vaporized="">
        <emissions CO_abs="4708.829177" CO2_abs="294493.620314" HC_abs="28.281249" PMx_abs="5.081656" NOx_abs="118.725742" fuel_abs="126.590630" electricity_abs="0"/>
    </tripinfo>
    <tripinfo id="h5979c1:5" depart="57669.00" departLane="399835085#1_1" departPos="5.10" departSpeed="0.00" departDelay="0.00" arrival="57773.00" arrivalLane="-315358254#1_1" arrivalPos="137.16" arrivalSpeed="12.42" duration="104.00" routeLength="659.33" waitingTime="12.00" waitingCount="1" stopTime="0.00" timeLoss="26.51" rerouteNo="1" devices="tripinfo_h5979c1:5 routing_h5979c1:5 emissions_h5979c1:5" vType="default_016" speedFactor="0.95" vaporized="">
        <emissions CO_abs="5414.452565" CO2_abs="211001.742297" HC_abs="29.517151" PMx_abs="3.636941" NOx_abs="86.717477" fuel_abs="90.702511" electricity_abs="0"/>
    </tripinfo>
    <tripinfo id="h3688c1:1" depart="57625.00" departLane="201201950#1_1" departPos="5.10" departSpeed="0.00" departDelay="0.00" arrival="57784.00" arrivalLane="32978638#0_1" arrivalPos="49.29" arrivalSpeed="14.24" duration="159.00" routeLength="1089.75" waitingTime="66.00" waitingCount="1" stopTime="0.00" timeLoss="86.36" rerouteNo="1" devices="tripinfo_h3688c1:1 routing_h3688c1:1 emissions_h3688c1:1" vType="default_016" speedFactor="1.10" vaporized="">
        <emissions CO_abs="13689.964856" CO2_abs="428530.425061" HC_abs="72.301422" PMx_abs="8.836880" NOx_abs="182.710096" fuel_abs="184.211082" electricity_abs="0"/>
    </tripinfo>
    <tripinfo id="carIn121703:1" depart="57647.00" departLane="386687232#0_1" departPos="5.10" departSpeed="0.00" departDelay="0.30" arrival="57784.00" arrivalLane="-315358244_1" arrivalPos="33.95" arrivalSpeed="10.56" duration="137.00" routeLength="1157.39" waitingTime="17.00" waitingCount="3" stopTime="0.00" timeLoss="37.96" rerouteNo="1" devices="tripinfo_carIn121703:1 routing_carIn121703:1 emissions_carIn121703:1" vType="default_016" speedFactor="0.85" vaporized="">
        <emissions CO_abs="5230.506337" CO2_abs="281116.538098" HC_abs="30.345201" PMx_abs="4.705015" NOx_abs="113.545893" fuel_abs="120.841120" electricity_abs="0"/>
    </tripinfo>
    <tripinfo id="carIn22761:1" depart="57616.00" departLane="-306240162#1_0" departPos="5.10" departSpeed="0.00" departDelay="2.10" arrival="57788.00" arrivalLane="399835085#1_1" arrivalPos="212.23" arrivalSpeed="7.34" duration="172.00" routeLength="1093.26" waitingTime="70.00" waitingCount="1" stopTime="0.00" timeLoss="87.70" rerouteNo="1" devices="tripinfo_carIn22761:1 routing_carIn22761:1 emissions_carIn22761:1" vType="default_016" speedFactor="0.93" vaporized="">
        <emissions CO_abs="15718.862039" CO2_abs="471200.909981" HC_abs="82.637790" PMx_abs="9.897425" NOx_abs="202.572786" fuel_abs="202.553975" electricity_abs="0"/>
    </tripinfo>
    <tripinfo id="carIn107282:1" depart="57749.00" departLane="-447569998#1_1" departPos="5.10" departSpeed="0.00" departDelay="0.00" arrival="57789.00" arrivalLane="315358242#0_1" arrivalPos="165.37" arrivalSpeed="15.88" duration="40.00" routeLength="448.50" waitingTime="0.00" waitingCount="0" stopTime="0.00" timeLoss="4.41" rerouteNo="1" devices="tripinfo_carIn107282:1 routing_carIn107282:1 emissions_carIn107282:1" vType="default_016" speedFactor="1.20" vaporized="">
        <emissions CO_abs="1639.973991" CO2_abs="107753.319136" HC_abs="9.941462" PMx_abs="1.845467" NOx_abs="43.411167" fuel_abs="46.318635" electricity_abs="0"/>
    </tripinfo>
    <tripinfo id="h3326c1:2" depart="57656.00" departLane="22716069#0_1" departPos="5.10" departSpeed="0.00" departDelay="0.00" arrival="57794.00" arrivalLane="24634517#13_1" arrivalPos="111.62" arrivalSpeed="10.36" duration="138.00" routeLength="1312.81" waitingTime="3.00" waitingCount="1" stopTime="0.00" timeLoss="20.96" rerouteNo="1" devices="tripinfo_h3326c1:2 routing_h3326c1:2 emissions_h3326c1:2" vType="default_016" speedFactor="0.84" vaporized="">
        <emissions CO_abs="4481.322553" CO2_abs="289298.191739" HC_abs="27.100332" PMx_abs="4.574645" NOx_abs="115.087628" fuel_abs="124.357737" electricity_abs="0"/>
    </tripinfo>
    <tripinfo id="carIn129809:1" depart="57729.00" departLane="-447569998#1_1" departPos="5.10" departSpeed="0.00" departDelay="1.00" arrival="57803.00" arrivalLane="-315358244_1" arrivalPos="33.95" arrivalSpeed="11.44" duration="74.00" routeLength="706.49" waitingTime="0.00" waitingCount="0" stopTime="0.00" timeLoss="7.34" rerouteNo="1" devices="tripinfo_carIn129809:1 routing_carIn129809:1 emissions_carIn129809:1" vType="default_015" speedFactor="0.91" vaporized="">
        <emissions CO_abs="2442.247248" CO2_abs="147166.686012" HC_abs="14.529380" PMx_abs="2.364400" NOx_abs="58.732099" fuel_abs="63.261168" electricity_abs="0"/>
    </tripinfo>
    <tripinfo id="h330c1:1" depart="57736.00" departLane="-32978638#0_1" departPos="5.10" departSpeed="0.00" departDelay="0.20" arrival="57810.00" arrivalLane="-266565295#5_1" arrivalPos="172.76" arrivalSpeed="11.07" duration="74.00" routeLength="370.53" waitingTime="30.00" waitingCount="1" stopTime="0.00" timeLoss="39.20" rerouteNo="1" devices="tripinfo_h330c1:1 routing_h330c1:1 emissions_h330c1:1" vType="default_016" speedFactor="0.80" vaporized="">
        <emissions CO_abs="6189.911832" CO2_abs="179395.018637" HC_abs="32.364949" PMx_abs="3.543443" NOx_abs="76.208637" fuel_abs="77.116563" electricity_abs="0"/>
    </tripinfo>
    <tripinfo id="randUni15030:1" depart="57735.00" departLane="386687232#0_1" departPos="5.10" departSpeed="0.00" departDelay="0.10" arrival="57822.00" arrivalLane="26677539_1" arrivalPos="151.98" arrivalSpeed="8.65" duration="87.00" routeLength="919.89" waitingTime="0.00" waitingCount="0" stopTime="0.00" timeLoss="11.27" rerouteNo="1" devices="tripinfo_randUni15030:1 routing_randUni15030:1 emissions_randUni15030:1" vType="random_016" speedFactor="1.09" vaporized="">
        <emissions CO_abs="3265.876551" CO2_abs="216328.107224" HC_abs="19.872302" PMx_abs="3.623090" NOx_abs="86.900230" fuel_abs="92.990469" electricity_abs="0"/>
    </tripinfo>
    <tripinfo id="carIn86816:1" depart="57617.00" departLane="128361102#0_1" departPos="5.10" departSpeed="0.00" departDelay="0.80" arrival="57825.00" arrivalLane="201956811#0_1" arrivalPos="40.40" arrivalSpeed="13.12" duration="208.00" routeLength="2067.33" waitingTime="30.00" waitingCount="1" stopTime="0.00" timeLoss="52.23" rerouteNo="1" devices="tripinfo_carIn86816:1 routing_carIn86816:1 emissions_carIn86816:1" vType="default_016" speedFactor="0.97" vaporized="">
        <emissions CO_abs="10032.785953" CO2_abs="502687.207733" HC_abs="57.444469" PMx_abs="8.872864" NOx_abs="204.311891" fuel_abs="216.085830" electricity_abs="0"/>
    </tripinfo>
    <tripinfo id="carIn50326:1" depart="57651.00" departLane="128361102#0_1" departPos="5.10" departSpeed="0.00" departDelay="0.30" arrival="57825.00" arrivalLane="18809673#0_1" arrivalPos="473.56" arrivalSpeed="12.22" duration="174.00" routeLength="1591.07" waitingTime="5.00" waitingCount="1" stopTime="0.00" timeLoss="27.61" rerouteNo="1" devices="tripinfo_carIn50326:1 routing_carIn50326:1 emissions_carIn50326:1" vType="default_016" speedFactor="0.89" vaporized="">
        <emissions CO_abs="6026.519140" CO2_abs="359702.169932" HC_abs="35.735941" PMx_abs="5.594259" NOx_abs="142.336308" fuel_abs="154.622143" electricity_abs="0"/>
    </tripinfo>
    <tripinfo id="carIn30817:1" depart="57681.00" departLane="315358244_1" departPos="5.10" departSpeed="0.00" departDelay="0.20" arrival="57827.00" arrivalLane="447569997#1_1" arrivalPos="180.93" arrivalSpeed="7.63" duration="146.00" routeLength="718.04" waitingTime="63.00" waitingCount="2" stopTime="0.00" timeLoss="82.69" rerouteNo="1" devices="tripinfo_carIn30817:1 routing_carIn30817:1 emissions_carIn30817:1" vType="default_016" speedFactor="0.98" vaporized="">
        <emissions CO_abs="12747.888495" CO2_abs="336739.264448" HC_abs="65.899537" PMx_abs="6.839732" NOx_abs="143.900498" fuel_abs="144.754873" electricity_abs="0"/>
    </tripinfo>
    <tripinfo id="carIn102915:1" depart="57643.00" departLane="128361102#0_1" departPos="5.10" departSpeed="0.00" departDelay="0.40" arrival="57828.00" arrivalLane="201956811#0_1" arrivalPos="40.40" arrivalSpeed="14.60" duration="185.00" routeLength="2067.33" waitingTime="14.00" waitingCount="1" stopTime="0.00" timeLoss="45.91" rerouteNo="1" devices="tripinfo_carIn102915:1 routing_carIn102915:1 emissions_carIn102915:1" vType="default_016" speedFactor="1.09" vaporized="">
        <emissions CO_abs="7770.698252" CO2_abs="517291.039461" HC_abs="47.330726" PMx_abs="8.862588" NOx_abs="207.124505" fuel_abs="222.361785" electricity_abs="0"/>
    </tripinfo>
    <tripinfo id="randUni33724:1" depart="57646.00" departLane="128361102#0_1" departPos="5.10" departSpeed="0.00" departDelay="1.20" arrival="57832.00" arrivalLane="201956811#0_1" arrivalPos="40.40" arrivalSpeed="12.68" duration="186.00" routeLength="2067.33" waitingTime="13.00" waitingCount="1" stopTime="0.00" timeLoss="34.93" rerouteNo="1" devices="tripinfo_randUni33724:1 routing_randUni33724:1 emissions_randUni33724:1" vType="random_016" speedFactor="1.00" vaporized="">
        <emissions CO_abs="6320.270509" CO2_abs="444161.882677" HC_abs="39.162964" PMx_abs="7.330125" NOx_abs="176.405781" fuel_abs="190.926740" electricity_abs="0"/>
    </tripinfo>
    <tripinfo id="h3864c1:3" depart="57678.00" departLane="24693977#1_1" departPos="5.10" departSpeed="0.00" departDelay="0.00" arrival="57833.00" arrivalLane="201956820_2" arrivalPos="48.33" arrivalSpeed="13.02" duration="155.00" routeLength="1574.85" waitingTime="1.00" waitingCount="1" stopTime="0.00" timeLoss="23.07" rerouteNo="1" devices="tripinfo_h3864c1:3 routing_h3864c1:3 emissions_h3864c1:3" vType="default_016" speedFactor="0.98" vaporized="">
        <emissions CO_abs="6491.568966" CO2_abs="405977.280105" HC_abs="39.040644" PMx_abs="6.963917" NOx_abs="164.785489" fuel_abs="174.512780" electricity_abs="0"/>
    </tripinfo>
    <tripinfo id="h11737c1:1" depart="57665.00" departLane="272042143_1" departPos="5.10" departSpeed="0.00" departDelay="1.50" arrival="57838.00" arrivalLane="-315358254#1_1" arrivalPos="137.16" arrivalSpeed="11.31" duration="173.00" routeLength="1596.88" waitingTime="14.00" waitingCount="2" stopTime="0.00" timeLoss="34.79" rerouteNo="1" devices="tripinfo_h11737c1:1 routing_h11737c1:1 emissions_h11737c1:1" vType="default_016" speedFactor="0.84" vaporized="">
        <emissions CO_abs="5184.437087" CO2_abs="325807.098322" HC_abs="31.124173" PMx_abs="5.028417" NOx_abs="128.455552" fuel_abs="140.051801" electricity_abs="0"/>
    </tripinfo>
    <tripinfo id="carIn126288:1" depart="57674.00" departLane="272042143_1" departPos="5.10" departSpeed="0.00" departDelay="0.00" arrival="57840.00" arrivalLane="-315358254#1_1" arrivalPos="137.16" arrivalSpeed="14.56" duration="166.00" routeLength="1596.88" waitingTime="12.00" waitingCount="2" stopTime="0.00" timeLoss="59.96" rerouteNo="1" devices="tripinfo_carIn126288:1 routing_carIn126288:1 emissions_carIn126288:1" vType="default_016" speedFactor="1.10" vaporized="">
        <emissions CO_abs="6146.967920" CO2_abs="406734.533607" HC_abs="37.429274" PMx_abs="6.824664" NOx_abs="163.485323" fuel_abs="174.838274" electricity_abs="0"/>
    </tripinfo>
    <tripinfo id="carIn12152:1" depart="57647.00" departLane="24599188#0.94_1" departPos="5.10" departSpeed="0.00" departDelay="0.50" arrival="57842.00" arrivalLane="-315358254#1_1" arrivalPos="137.16" arrivalSpeed="14.00" duration="195.00" routeLength="2034.31" waitingTime="7.00" waitingCount="1" stopTime="0.00" timeLoss="40.91" rerouteNo="1" devices="tripinfo_carIn12152:1 routing_carIn12152:1 emissions_carIn12152:1" vType="default_016" speedFactor="1.03" vaporized="">
        <emissions CO_abs="6461.206652" CO2_abs="474552.787924" HC_abs="40.463430" PMx_abs="7.772070" NOx_abs="189.019144" fuel_abs="203.990265" electricity_abs="0"/>
    </tripinfo>
    <tripinfo id="h645c1:1" depart="57622.00" departLane="266565295#5_1" departPos="5.10" departSpeed="0.00" departDelay="0.40" arrival="57843.00" arrivalLane="-315358244_1" arrivalPos="33.95" arrivalSpeed="13.42" duration="221.00" routeLength="1910.83" waitingTime="63.00" waitingCount="3" stopTime="0.00" timeLoss="90.64" rerouteNo="1" devices="tripinfo_h645c1:1 routing_h645c1:1 emissions_h645c1:1" vType="default_016" speedFactor="1.06" vaporized="">
        <emissions CO_abs="14770.089622" CO2_abs="597191.866941" HC_abs="81.161148" PMx_abs="11.211967" NOx_abs="246.490611" fuel_abs="256.711188" electricity_abs="0"/>
    </tripinfo>
    <tripinfo id="carIn73855:1" depart="57743.00" departLane="386687232#0_1" departPos="5.10" departSpeed="0.00" departDelay="0.50" arrival="57843.00" arrivalLane="-315358244_2" arrivalPos="33.95" arrivalSpeed="16.21" duration="100.00" routeLength="1157.39" waitingTime="6.00" waitingCount="1" stopTime="0.00" timeLoss="30.28" rerouteNo="1" devices="tripinfo_carIn73855:1 routing_carIn73855:1 emissions_carIn73855:1" vType="default_016" speedFactor="1.22" vaporized="">
        <emissions CO_abs="5073.155576" CO2_abs="334452.667310" HC_abs="30.779474" PMx_abs="6.148259" NOx_abs="136.118261" fuel_abs="143.766645" electricity_abs="0"/>
    </tripinfo>
    <tripinfo id="carIn126378:1" depart="57746.00" departLane="386687232#0_1" departPos="5.10" departSpeed="0.00" departDelay="1.80" arrival="57845.00" arrivalLane="-315358244_2" arrivalPos="33.95" arrivalSpeed="15.60" duration="99.00" routeLength="1157.39" waitingTime="5.00" waitingCount="1" stopTime="0.00" timeLoss="23.50" rerouteNo="1" devices="tripinfo_carIn126378:1 routing_carIn126378:1 emissions_carIn126378:1" vType="default_016" speedFactor="1.13" vaporized="">
        <emissions CO_abs="4129.133008" CO2_abs="294172.704780" HC_abs="25.577447" PMx_abs="5.140980" NOx_abs="118.329705" fuel_abs="126.452144" electricity_abs="0"/>
    </tripinfo>
    <tripinfo id="carIn8642:1" depart="57774.00" departLane="-447569998#1_1" departPos="5.10" departSpeed="0.00" departDelay="0.90" arrival="57845.00" arrivalLane="-315358244_1" arrivalPos="33.95" arrivalSpeed="13.76" duration="71.00" routeLength="706.49" waitingTime="3.00" waitingCount="1" stopTime="0.00" timeLoss="15.05" rerouteNo="1" devices="tripinfo_carIn8642:1 routing_carIn8642:1 emissions_carIn8642:1" vType="default_016" speedFactor="1.08" vaporized="">
        <emissions CO_abs="2938.194241" CO2_abs="189114.444826" HC_abs="17.780437" PMx_abs="3.193631" NOx_abs="76.112200" fuel_abs="81.292484" electricity_abs="0"/>
    </tripinfo>
    <tripinfo id="carIn12858:1" depart="57661.00" departLane="128361109#1_1" departPos="5.10" departSpeed="0.00" departDelay="0.90" arrival="57846.00" arrivalLane="399835085#1_1" arrivalPos="212.23" arrivalSpeed="7.16" duration="185.00" routeLength="1738.12" waitingTime="30.00" waitingCount="2" stopTime="0.00" timeLoss="66.54" rerouteNo="1" devices="tripinfo_carIn12858:1 routing_carIn12858:1 emissions_carIn12858:1" vType="default_016" speedFactor="0.97" vaporized="">
        <emissions CO_abs="10826.064616" CO2_abs="520089.007644" HC_abs="61.649101" PMx_abs="10.192357" NOx_abs="217.031553" fuel_abs="223.565119" electricity_abs="0"/>
    </tripinfo>
    <tripinfo id="carIn81860:1" depart="57712.00" departLane="128361102#0_1" departPos="5.10" departSpeed="0.00" departDelay="0.60" arrival="57846.00" arrivalLane="-24634517#17_1" arrivalPos="6.43" arrivalSpeed="7.72" duration="134.00" routeLength="1229.64" waitingTime="17.00" waitingCount="3" stopTime="0.00" timeLoss="50.67" rerouteNo="1" devices="tripinfo_carIn81860:1 routing_carIn81860:1 emissions_carIn81860:1" vType="default_016" speedFactor="1.08" vaporized="">
        <emissions CO_abs="5859.395268" CO2_abs="330920.434453" HC_abs="34.412274" PMx_abs="6.007789" NOx_abs="135.738634" fuel_abs="142.249002" electricity_abs="0"/>
    </tripinfo>
    <tripinfo id="50R_frequency3.17" depart="57674.00" departLane="-18809673#6_1" departPos="12.10" departSpeed="0.00" departDelay="0.70" arrival="57851.00" arrivalLane="201956811#0_1" arrivalPos="40.40" arrivalSpeed="12.64" duration="177.00" routeLength="1954.47" waitingTime="3.00" waitingCount="1" stopTime="0.00" timeLoss="32.29" rerouteNo="1" devices="tripinfo_50R_frequency3.17 routing_50R_frequency3.17 emissions_50R_frequency3.17" vType="bus" speedFactor="1.00" vaporized="">
        <emissions CO_abs="3570.100289" CO2_abs="2262134.153795" HC_abs="747.634575" PMx_abs="383.058651" NOx_abs="17488.545403" fuel_abs="964.779756" electricity_abs="0"/>
    </tripinfo>
    <tripinfo id="carIn82278:1" depart="57702.00" departLane="-306240162#1_0" departPos="5.10" departSpeed="0.00" departDelay="0.70" arrival="57853.00" arrivalLane="399835085#1_1" arrivalPos="212.23" arrivalSpeed="7.61" duration="151.00" routeLength="1093.26" waitingTime="33.00" waitingCount="3" stopTime="0.00" timeLoss="74.90" rerouteNo="1" devices="tripinfo_carIn82278:1 routing_carIn82278:1 emissions_carIn82278:1" vType="default_016" speedFactor="1.02" vaporized="">
        <emissions CO_abs="10393.074688" CO2_abs="409939.435560" HC_abs="57.038772" PMx_abs="8.235945" NOx_abs="172.696012" fuel_abs="176.217545" electricity_abs="0"/>
    </tripinfo>
    <tripinfo id="randUni31145:1" depart="57814.00" departLane="10425609#0_1" departPos="5.10" departSpeed="0.00" departDelay="0.30" arrival="57853.00" arrivalLane="201956810_1" arrivalPos="71.65" arrivalSpeed="13.90" duration="39.00" routeLength="255.78" waitingTime="11.00" waitingCount="1" stopTime="0.00" timeLoss="20.84" rerouteNo="1" devices="tripinfo_randUni31145:1 routing_randUni31145:1 emissions_randUni31145:1" vType="random_016" speedFactor="1.09" vaporized="">
        <emissions CO_abs="3224.677966" CO2_abs="135012.215093" HC_abs="17.887366" PMx_abs="2.743088" NOx_abs="57.849970" fuel_abs="58.036377" electricity_abs="0"/>
    </tripinfo>
    <tripinfo id="h12244c1:3" depart="57612.00" departLane="315358244_1" departPos="5.10" departSpeed="0.00" departDelay="0.40" arrival="57857.00" arrivalLane="386687235_1" arrivalPos="80.84" arrivalSpeed="13.74" duration="245.00" routeLength="1186.14" waitingTime="135.00" waitingCount="3" stopTime="0.00" timeLoss="159.00" rerouteNo="1" devices="tripinfo_h12244c1:3 routing_h12244c1:3 emissions_h12244c1:3" vType="default_016" speedFactor="1.01" vaporized="">
        <emissions CO_abs="25388.648022" CO2_abs="634216.802319" HC_abs="130.495382" PMx_abs="13.576217" NOx_abs="274.738537" fuel_abs="272.632418" electricity_abs="0"/>
    </tripinfo>
    <tripinfo id="randUni2407:1" depart="57820.00" departLane="10425609#0_1" departPos="5.10" departSpeed="0.00" departDelay="0.80" arrival="57857.00" arrivalLane="201956810_1" arrivalPos="71.65" arrivalSpeed="12.02" duration="37.00" routeLength="255.78" waitingTime="6.00" waitingCount="1" stopTime="0.00" timeLoss="15.37" rerouteNo="1" devices="tripinfo_randUni2407:1 routing_randUni2407:1 emissions_randUni2407:1" vType="random_016" speedFactor="0.93" vaporized="">
        <emissions CO_abs="2220.531510" CO2_abs="103460.669383" HC_abs="12.543211" PMx_abs="1.948434" NOx_abs="43.410656" fuel_abs="44.473636" electricity_abs="0"/>
    </tripinfo>
    <tripinfo id="h9563c2:5" depart="57631.00" departLane="315358244_1" departPos="5.10" departSpeed="0.00" departDelay="0.70" arrival="57859.00" arrivalLane="386687235_1" arrivalPos="80.84" arrivalSpeed="13.69" duration="228.00" routeLength="1186.14" waitingTime="114.00" waitingCount="3" stopTime="0.00" timeLoss="144.22" rerouteNo="1" devices="tripinfo_h9563c2:5 routing_h9563c2:5 emissions_h9563c2:5" vType="default_016" speedFactor="1.03" vaporized="">
        <emissions CO_abs="22678.181877" CO2_abs="606821.733724" HC_abs="117.488451" PMx_abs="12.829115" NOx_abs="261.741414" fuel_abs="260.854895" electricity_abs="0"/>
    </tripinfo>
    <tripinfo id="carIn12365:1" depart="57713.00" departLane="315358244_1" departPos="5.10" departSpeed="0.00" departDelay="0.50" arrival="57861.00" arrivalLane="447569997#1_1" arrivalPos="180.93" arrivalSpeed="8.24" duration="148.00" routeLength="718.04" waitingTime="69.00" waitingCount="3" stopTime="0.00" timeLoss="92.12" rerouteNo="1" devices="tripinfo_carIn12365:1 routing_carIn12365:1 emissions_carIn12365:1" vType="default_016" speedFactor="1.10" vaporized="">
        <emissions CO_abs="12640.180756" CO2_abs="346504.355022" HC_abs="65.682884" PMx_abs="7.229719" NOx_abs="149.143896" fuel_abs="148.951930" electricity_abs="0"/>
    </tripinfo>
    <tripinfo id="carIn28951:1" depart="57606.00" departLane="10425609#0_1" departPos="5.10" departSpeed="0.00" departDelay="0.20" arrival="57869.00" arrivalLane="-128361102#1_1" arrivalPos="274.68" arrivalSpeed="11.54" duration="263.00" routeLength="2113.04" waitingTime="65.00" waitingCount="2" stopTime="0.00" timeLoss="92.47" rerouteNo="1" devices="tripinfo_carIn28951:1 routing_carIn28951:1 emissions_carIn28951:1" vType="default_016" speedFactor="0.91" vaporized="">
        <emissions CO_abs="15465.238954" CO2_abs="595385.114268" HC_abs="84.321361" PMx_abs="10.989603" NOx_abs="246.383126" fuel_abs="255.935281" electricity_abs="0"/>
    </tripinfo>
    <tripinfo id="carIn118591:1" depart="57689.00" departLane="315358244_1" departPos="5.10" departSpeed="0.00" departDelay="0.20" arrival="57869.00" arrivalLane="386687235_1" arrivalPos="80.84" arrivalSpeed="11.83" duration="180.00" routeLength="1186.14" waitingTime="58.00" waitingCount="2" stopTime="0.00" timeLoss="84.31" rerouteNo="1" devices="tripinfo_carIn118591:1 routing_carIn118591:1 emissions_carIn118591:1" vType="default_016" speedFactor="0.91" vaporized="">
        <emissions CO_abs="12854.854114" CO2_abs="430230.617824" HC_abs="68.548688" PMx_abs="8.056535" NOx_abs="178.870807" fuel_abs="184.942379" electricity_abs="0"/>