<?xml version="1.0" encoding="UTF-8"?>

<!-- generated on 2021-10-26 22:19:00 by Eclipse SUMO sumo Version 1.10.0
<configuration xmlns:xsi="http://www.w3.org/2001/XMLSchema-instance" xsi:noNamespaceSchemaLocation="http://sumo.dlr.de/xsd/sumoConfiguration.xsd">

    <input>
        <net-file value="/Users/behradkoohy/sumo-scratchpad/RESCO/environments/ingolstadt21/ingolstadt21.net.xml"/>
        <route-files value="/Users/behradkoohy/sumo-scratchpad/RESCO/environments/ingolstadt21/ingolstadt21.rou.xml"/>
    </input>

    <output>
        <tripinfo-output value="/Users/behradkoohy/sumo-scratchpad/RESCO/logs/MPLight-tr0-ingolstadt21-21-mplight_full-pressure/tripinfo_90.xml"/>
        <tripinfo-output.write-unfinished value="true"/>
    </output>

    <time>
        <begin value="57600"/>
        <end value="61200"/>
    </time>

    <processing>
        <time-to-teleport value="-1"/>
    </processing>

    <report>
        <no-warnings value="true"/>
        <no-step-log value="true"/>
    </report>

    <emissions>
        <device.emissions.probability value="1"/>
    </emissions>

    <traci_server>
        <remote-port value="49819"/>
    </traci_server>

    <random_number>
        <random value="true"/>
    </random_number>

</configuration>
-->

<tripinfos xmlns:xsi="http://www.w3.org/2001/XMLSchema-instance" xsi:noNamespaceSchemaLocation="http://sumo.dlr.de/xsd/tripinfo_file.xsd">
    <tripinfo id="h15454c2:3" depart="57612.00" departLane="24608844_1" departPos="5.10" departSpeed="0.00" departDelay="0.50" arrival="57668.00" arrivalLane="32978638#0_1" arrivalPos="49.29" arrivalSpeed="11.98" duration="56.00" routeLength="354.79" waitingTime="10.00" waitingCount="1" stopTime="0.00" timeLoss="19.54" rerouteNo="1" devices="tripinfo_h15454c2:3 routing_h15454c2:3 emissions_h15454c2:3" vType="default_016" speedFactor="0.94" vaporized="">
        <emissions CO_abs="3056.103262" CO2_abs="127989.908498" HC_abs="16.916367" PMx_abs="2.430834" NOx_abs="54.014346" fuel_abs="55.017997" electricity_abs="0"/>
    </tripinfo>
    <tripinfo id="carIn53971:1" depart="57640.00" departLane="272042143_1" departPos="5.10" departSpeed="0.00" departDelay="0.80" arrival="57695.00" arrivalLane="24634414#1_1" arrivalPos="162.19" arrivalSpeed="7.99" duration="55.00" routeLength="493.04" waitingTime="0.00" waitingCount="0" stopTime="0.00" timeLoss="8.27" rerouteNo="1" devices="tripinfo_carIn53971:1 routing_carIn53971:1 emissions_carIn53971:1" vType="default_016" speedFactor="0.99" vaporized="">
        <emissions CO_abs="2422.676128" CO2_abs="138278.084226" HC_abs="14.258111" PMx_abs="2.386221" NOx_abs="56.521630" fuel_abs="59.440137" electricity_abs="0"/>
    </tripinfo>
    <tripinfo id="h3326c1:2" depart="57656.00" departLane="22716069#0_1" departPos="5.10" departSpeed="0.00" departDelay="0.00" arrival="57758.00" arrivalLane="24634517#13_1" arrivalPos="111.62" arrivalSpeed="14.92" duration="102.00" routeLength="1312.81" waitingTime="0.00" waitingCount="0" stopTime="0.00" timeLoss="14.30" rerouteNo="1" devices="tripinfo_h3326c1:2 routing_h3326c1:2 emissions_h3326c1:2" vType="default_016" speedFactor="1.11" vaporized="">
        <emissions CO_abs="4130.891534" CO2_abs="318881.189568" HC_abs="26.307700" PMx_abs="5.753382" NOx_abs="129.691669" fuel_abs="137.072678" electricity_abs="0"/>
    </tripinfo>
    <tripinfo id="h5979c1:5" depart="57669.00" departLane="399835085#1_1" departPos="5.10" departSpeed="0.00" departDelay="0.00" arrival="57776.00" arrivalLane="-315358254#1_1" arrivalPos="137.16" arrivalSpeed="10.76" duration="107.00" routeLength="659.33" waitingTime="0.00" waitingCount="0" stopTime="0.00" timeLoss="13.05" rerouteNo="1" devices="tripinfo_h5979c1:5 routing_h5979c1:5 emissions_h5979c1:5" vType="default_016" speedFactor="0.78" vaporized="">
        <emissions CO_abs="4846.644463" CO2_abs="191945.388468" HC_abs="26.448882" PMx_abs="3.103472" NOx_abs="77.989212" fuel_abs="82.511030" electricity_abs="0"/>
    </tripinfo>
    <tripinfo id="h11737c1:1" depart="57665.00" departLane="272042143_1" departPos="5.10" departSpeed="0.00" departDelay="1.50" arrival="57794.00" arrivalLane="-315358254#1_1" arrivalPos="137.16" arrivalSpeed="13.71" duration="129.00" routeLength="1596.88" waitingTime="0.00" waitingCount="0" stopTime="0.00" timeLoss="13.12" rerouteNo="1" devices="tripinfo_h11737c1:1 routing_h11737c1:1 emissions_h11737c1:1" vType="default_016" speedFactor="1.00" vaporized="">
        <emissions CO_abs="3826.310489" CO2_abs="342447.158199" HC_abs="25.375138" PMx_abs="5.357258" NOx_abs="133.653771" fuel_abs="147.203400" electricity_abs="0"/>
    </tripinfo>
    <tripinfo id="carIn126288:1" depart="57674.00" departLane="272042143_1" departPos="5.10" departSpeed="0.00" departDelay="0.00" arrival="57796.00" arrivalLane="-315358254#1_1" arrivalPos="137.16" arrivalSpeed="14.38" duration="122.00" routeLength="1596.88" waitingTime="0.00" waitingCount="0" stopTime="0.00" timeLoss="15.66" rerouteNo="1" devices="tripinfo_carIn126288:1 routing_carIn126288:1 emissions_carIn126288:1" vType="default_016" speedFactor="1.10" vaporized="">
        <emissions CO_abs="3932.730211" CO2_abs="326118.124050" HC_abs="25.528074" PMx_abs="5.565462" NOx_abs="130.200568" fuel_abs="140.183786" electricity_abs="0"/>
    </tripinfo>
    <tripinfo id="randUni15030:1" depart="57735.00" departLane="386687232#0_1" departPos="5.10" departSpeed="0.00" departDelay="0.10" arrival="57834.00" arrivalLane="26677539_1" arrivalPos="151.98" arrivalSpeed="8.78" duration="99.00" routeLength="919.89" waitingTime="6.00" waitingCount="1" stopTime="0.00" timeLoss="20.48" rerouteNo="1" devices="tripinfo_randUni15030:1 routing_randUni15030:1 emissions_randUni15030:1" vType="random_016" speedFactor="1.06" vaporized="">
        <emissions CO_abs="4255.495928" CO2_abs="245282.865445" HC_abs="25.072975" PMx_abs="4.202472" NOx_abs="99.534157" fuel_abs="105.437210" electricity_abs="0"/>
    </tripinfo>
    <tripinfo id="h17600c1:1" depart="57662.00" departLane="272042143_1" departPos="5.10" departSpeed="0.00" departDelay="0.30" arrival="57841.00" arrivalLane="201238729#3_1" arrivalPos="431.02" arrivalSpeed="13.23" duration="179.00" routeLength="2100.26" waitingTime="15.00" waitingCount="1" stopTime="0.00" timeLoss="33.31" rerouteNo="1" devices="tripinfo_h17600c1:1 routing_h17600c1:1 emissions_h17600c1:1" vType="default_016" speedFactor="1.04" vaporized="">
        <emissions CO_abs="6391.640428" CO2_abs="420636.069456" HC_abs="38.965085" PMx_abs="7.184857" NOx_abs="168.033994" fuel_abs="180.814005" electricity_abs="0"/>
    </tripinfo>
    <tripinfo id="h3688c1:1" depart="57625.00" departLane="201201950#1_1" departPos="5.10" departSpeed="0.00" departDelay="0.00" arrival="57851.00" arrivalLane="32978638#0_1" arrivalPos="49.29" arrivalSpeed="14.20" duration="226.00" routeLength="1089.75" waitingTime="133.00" waitingCount="1" stopTime="0.00" timeLoss="148.24" rerouteNo="1" devices="tripinfo_h3688c1:1 routing_h3688c1:1 emissions_h3688c1:1" vType="default_016" speedFactor="1.03" vaporized="">
        <emissions CO_abs="24428.006657" CO2_abs="596754.145832" HC_abs="125.181239" PMx_abs="12.800802" NOx_abs="258.167882" fuel_abs="256.528712" electricity_abs="0"/>
    </tripinfo>
    <tripinfo id="h7800c1:5" depart="57696.00" departLane="-447569998#1_1" departPos="5.10" departSpeed="0.00" departDelay="0.00" arrival="57855.00" arrivalLane="-447569998#1_2" arrivalPos="180.76" arrivalSpeed="3.54" duration="159.00" routeLength="175.66" waitingTime="134.00" waitingCount="1" stopTime="0.00" timeLoss="140.26" rerouteNo="1" devices="tripinfo_h7800c1:5 routing_h7800c1:5 emissions_h7800c1:5" vType="default_016" speedFactor="1.14" vaporized="">
        <emissions CO_abs="22666.521653" CO2_abs="397374.454653" HC_abs="112.519824" PMx_abs="9.528190" NOx_abs="179.619101" fuel_abs="170.824516" electricity_abs="0"/>
    </tripinfo>
    <tripinfo id="carIn60260:1" depart="57606.00" departLane="315358254#0_1" departPos="5.10" departSpeed="0.00" departDelay="0.90" arrival="57858.00" arrivalLane="399835085#1_1" arrivalPos="212.23" arrivalSpeed="6.70" duration="252.00" routeLength="430.98" waitingTime="189.00" waitingCount="1" stopTime="0.00" timeLoss="200.51" rerouteNo="1" devices="tripinfo_carIn60260:1 routing_carIn60260:1 emissions_carIn60260:1" vType="default_016" speedFactor="0.90" vaporized="">
        <emissions CO_abs="33024.477823" CO2_abs="600201.135331" HC_abs="164.422911" PMx_abs="14.136628" NOx_abs="269.693368" fuel_abs="258.015604" electricity_abs="0"/>
    </tripinfo>
    <tripinfo id="h7181c1:1" depart="57660.00" departLane="315358254#0_1" departPos="5.10" departSpeed="0.00" departDelay="0.10" arrival="57871.00" arrivalLane="306240162#0_0" arrivalPos="220.43" arrivalSpeed="15.95" duration="211.00" routeLength="932.35" waitingTime="141.00" waitingCount="2" stopTime="0.00" timeLoss="159.92" rerouteNo="1" devices="tripinfo_h7181c1:1 routing_h7181c1:1 emissions_h7181c1:1" vType="default_016" speedFactor="1.01" vaporized="">
        <emissions CO_abs="26753.375775" CO2_abs="633861.814818" HC_abs="136.807921" PMx_abs="14.436143" NOx_abs="278.683653" fuel_abs="272.479822" electricity_abs="0"/>
    </tripinfo>
    <tripinfo id="carIn107282:1" depart="57749.00" departLane="-447569998#1_1" departPos="5.10" departSpeed="0.00" departDelay="0.00" arrival="57880.00" arrivalLane="315358242#0_1" arrivalPos="165.37" arrivalSpeed="13.52" duration="131.00" routeLength="448.50" waitingTime="79.00" waitingCount="1" stopTime="0.00" timeLoss="88.26" rerouteNo="1" devices="tripinfo_carIn107282:1 routing_carIn107282:1 emissions_carIn107282:1" vType="default_016" speedFactor="0.98" vaporized="">
        <emissions CO_abs="14585.905556" CO2_abs="325567.919562" HC_abs="74.033879" PMx_abs="7.119671" NOx_abs="142.613099" fuel_abs="139.953760" electricity_abs="0"/>
    </tripinfo>
    <tripinfo id="carIn107084:1" depart="57601.00" departLane="124812856#0_1" departPos="5.10" departSpeed="0.00" departDelay="0.70" arrival="57886.00" arrivalLane="-128361102#1_1" arrivalPos="274.68" arrivalSpeed="10.59" duration="285.00" routeLength="2232.46" waitingTime="62.00" waitingCount="1" stopTime="0.00" timeLoss="88.50" rerouteNo="1" devices="tripinfo_carIn107084:1 routing_carIn107084:1 emissions_carIn107084:1" vType="default_016" speedFactor="0.83" vaporized="">
        <emissions CO_abs="16062.806051" CO2_abs="626339.354491" HC_abs="87.656585" PMx_abs="11.009251" NOx_abs="256.180917" fuel_abs="269.242037" electricity_abs="0"/>
    </tripinfo>
    <tripinfo id="h3568c1:3" depart="57656.00" departLane="266565295#5_1" departPos="5.10" departSpeed="0.00" departDelay="0.80" arrival="57887.00" arrivalLane="-24634415_1" arrivalPos="62.03" arrivalSpeed="12.42" duration="231.00" routeLength="807.40" waitingTime="146.00" waitingCount="1" stopTime="0.00" timeLoss="164.10" rerouteNo="1" devices="tripinfo_h3568c1:3 routing_h3568c1:3 emissions_h3568c1:3" vType="default_016" speedFactor="0.97" vaporized="">
        <emissions CO_abs="26671.940950" CO2_abs="596450.156889" HC_abs="135.455134" PMx_abs="13.310251" NOx_abs="262.644476" fuel_abs="256.399055" electricity_abs="0"/>
    </tripinfo>
    <tripinfo id="carIn13443:1" depart="57729.00" departLane="272042143_1" departPos="5.10" departSpeed="0.00" departDelay="0.80" arrival="57887.00" arrivalLane="399835085#1_1" arrivalPos="212.23" arrivalSpeed="7.75" duration="158.00" routeLength="1757.45" waitingTime="0.00" waitingCount="0" stopTime="0.00" timeLoss="11.62" rerouteNo="1" devices="tripinfo_carIn13443:1 routing_carIn13443:1 emissions_carIn13443:1" vType="default_016" speedFactor="0.97" vaporized="">
        <emissions CO_abs="4275.036668" CO2_abs="333595.208441" HC_abs="27.162237" PMx_abs="5.096430" NOx_abs="130.206147" fuel_abs="143.398898" electricity_abs="0"/>
    </tripinfo>
    <tripinfo id="h13377c2:3" depart="57804.00" departLane="315358244_1" departPos="5.10" departSpeed="0.00" departDelay="0.60" arrival="57888.00" arrivalLane="447569997#1_1" arrivalPos="180.93" arrivalSpeed="8.25" duration="84.00" routeLength="726.74" waitingTime="4.00" waitingCount="3" stopTime="0.00" timeLoss="22.23" rerouteNo="1" devices="tripinfo_h13377c2:3 routing_h13377c2:3 emissions_h13377c2:3" vType="default_016" speedFactor="1.09" vaporized="">
        <emissions CO_abs="3780.422146" CO2_abs="207811.195364" HC_abs="22.048256" PMx_abs="3.593816" NOx_abs="84.527699" fuel_abs="89.329752" electricity_abs="0"/>
    </tripinfo>
    <tripinfo id="carIn81681:1" depart="57726.00" departLane="272042143_1" departPos="5.10" departSpeed="0.00" departDelay="0.30" arrival="57891.00" arrivalLane="306240162#0_0" arrivalPos="220.43" arrivalSpeed="18.65" duration="165.00" routeLength="2246.89" waitingTime="9.00" waitingCount="1" stopTime="0.00" timeLoss="33.30" rerouteNo="1" devices="tripinfo_carIn81681:1 routing_carIn81681:1 emissions_carIn81681:1" vType="default_016" speedFactor="1.12" vaporized="">
        <emissions CO_abs="7391.561164" CO2_abs="537355.537359" HC_abs="46.242036" PMx_abs="9.956448" NOx_abs="217.326338" fuel_abs="230.985219" electricity_abs="0"/>
    </tripinfo>
    <tripinfo id="carIn81860:1" depart="57712.00" departLane="128361102#0_1" departPos="5.10" departSpeed="0.00" departDelay="0.60" arrival="57894.00" arrivalLane="-24634517#17_1" arrivalPos="6.43" arrivalSpeed="6.03" duration="182.00" routeLength="1229.64" waitingTime="61.00" waitingCount="1" stopTime="0.00" timeLoss="83.39" rerouteNo="1" devices="tripinfo_carIn81860:1 routing_carIn81860:1 emissions_carIn81860:1" vType="default_016" speedFactor="0.91" vaporized="">
        <emissions CO_abs="13848.450766" CO2_abs="435695.768766" HC_abs="73.230632" PMx_abs="8.459320" NOx_abs="183.227925" fuel_abs="187.291909" electricity_abs="0"/>
    </tripinfo>
    <tripinfo id="carIn80913:1" depart="57732.00" departLane="272042143_1" departPos="5.10" departSpeed="0.00" departDelay="0.40" arrival="57897.00" arrivalLane="306240162#0_0" arrivalPos="220.43" arrivalSpeed="16.37" duration="165.00" routeLength="2246.89" waitingTime="0.00" waitingCount="0" stopTime="0.00" timeLoss="21.05" rerouteNo="1" devices="tripinfo_carIn80913:1 routing_carIn80913:1 emissions_carIn80913:1" vType="default_016" speedFactor="1.03" vaporized="">
        <emissions CO_abs="6179.346690" CO2_abs="514815.486345" HC_abs="40.156347" PMx_abs="9.099240" NOx_abs="206.138724" fuel_abs="221.296080" electricity_abs="0"/>
    </tripinfo>
    <tripinfo id="randUni23028:1" depart="57884.00" departLane="124812856#0_1" departPos="5.10" departSpeed="0.00" departDelay="0.10" arrival="57898.00" arrivalLane="201956810_1" arrivalPos="71.65" arrivalSpeed="15.55" duration="14.00" routeLength="134.91" waitingTime="0.00" waitingCount="0" stopTime="0.00" timeLoss="4.66" rerouteNo="1" devices="tripinfo_randUni23028:1 routing_randUni23028:1 emissions_randUni23028:1" vType="random_016" speedFactor="1.14" vaporized="">
        <emissions CO_abs="1310.473549" CO2_abs="70180.270506" HC_abs="7.640111" PMx_abs="1.407560" NOx_abs="29.961698" fuel_abs="30.167419" electricity_abs="0"/>
    </tripinfo>
    <tripinfo id="h330c1:1" depart="57736.00" departLane="-32978638#0_1" departPos="5.10" departSpeed="0.00" departDelay="0.20" arrival="57900.00" arrivalLane="-266565295#5_2" arrivalPos="172.76" arrivalSpeed="12.64" duration="164.00" routeLength="370.53" waitingTime="123.00" waitingCount="1" stopTime="0.00" timeLoss="133.70" rerouteNo="1" devices="tripinfo_h330c1:1 routing_h330c1:1 emissions_h330c1:1" vType="default_016" speedFactor="0.93" vaporized="">
        <emissions CO_abs="21648.082010" CO2_abs="430855.845976" HC_abs="108.680036" PMx_abs="9.911438" NOx_abs="191.724807" fuel_abs="185.215765" electricity_abs="0"/>
    </tripinfo>
    <tripinfo id="h317c2:1" depart="57707.00" departLane="-32978638#0_1" departPos="5.10" departSpeed="0.00" departDelay="0.10" arrival="57902.00" arrivalLane="-266565295#5_1" arrivalPos="172.76" arrivalSpeed="9.07" duration="195.00" routeLength="370.53" waitingTime="149.00" waitingCount="1" stopTime="0.00" timeLoss="158.14" rerouteNo="1" devices="tripinfo_h317c2:1 routing_h317c2:1 emissions_h317c2:1" vType="default_016" speedFactor="0.74" vaporized="">
        <emissions CO_abs="26072.789550" CO2_abs="489292.595705" HC_abs="130.186667" PMx_abs="11.457203" NOx_abs="219.375004" fuel_abs="210.337411" electricity_abs="0"/>
    </tripinfo>
    <tripinfo id="carIn132499:1" depart="57740.00" departLane="272042143_1" departPos="5.10" departSpeed="0.00" departDelay="0.70" arrival="57908.00" arrivalLane="201238729#3_1" arrivalPos="431.02" arrivalSpeed="13.36" duration="168.00" routeLength="2100.26" waitingTime="0.00" waitingCount="0" stopTime="0.00" timeLoss="12.52" rerouteNo="1" devices="tripinfo_carIn132499:1 routing_carIn132499:1 emissions_carIn132499:1" vType="default_016" speedFactor="0.97" vaporized="">
        <emissions CO_abs="3498.973355" CO2_abs="360630.713527" HC_abs="24.277774" PMx_abs="5.214733" NOx_abs="137.534844" fuel_abs="155.019985" electricity_abs="0"/>
    </tripinfo>
    <tripinfo id="carIn50326:1" depart="57651.00" departLane="128361102#0_1" departPos="5.10" departSpeed="0.00" departDelay="0.30" arrival="57919.00" arrivalLane="18809673#0_1" arrivalPos="473.56" arrivalSpeed="14.57" duration="268.00" routeLength="1591.07" waitingTime="120.00" waitingCount="2" stopTime="0.00" timeLoss="150.44" rerouteNo="1" devices="tripinfo_carIn50326:1 routing_carIn50326:1 emissions_carIn50326:1" vType="default_016" speedFactor="1.10" vaporized="">
        <emissions CO_abs="23768.932583" CO2_abs="665882.020247" HC_abs="123.743407" PMx_abs="13.675875" NOx_abs="284.144238" fuel_abs="286.242880" electricity_abs="0"/>
    </tripinfo>
    <tripinfo id="carIn27009:1" depart="57673.00" departLane="-447569998#1_1" departPos="5.10" departSpeed="0.00" departDelay="0.50" arrival="57926.00" arrivalLane="-26677539_1" arrivalPos="152.75" arrivalSpeed="7.28" duration="253.00" routeLength="699.63" waitingTime="151.00" waitingCount="1" stopTime="0.00" timeLoss="167.20" rerouteNo="1" devices="tripinfo_carIn27009:1 routing_carIn27009:1 emissions_carIn27009:1" vType="default_015" speedFactor="0.98" vaporized="">
        <emissions CO_abs="28452.549649" CO2_abs="569274.752479" HC_abs="142.831752" PMx_abs="12.740566" NOx_abs="252.021962" fuel_abs="244.719420" electricity_abs="0"/>
    </tripinfo>
    <tripinfo id="carIn129809:1" depart="57729.00" departLane="-447569998#1_1" departPos="5.10" departSpeed="0.00" departDelay="1.00" arrival="57945.00" arrivalLane="-315358244_1" arrivalPos="33.95" arrivalSpeed="13.04" duration="216.00" routeLength="706.49" waitingTime="141.00" waitingCount="2" stopTime="0.00" timeLoss="156.28" rerouteNo="1" devices="tripinfo_carIn129809:1 routing_carIn129809:1 emissions_carIn129809:1" vType="default_015" speedFactor="1.01" vaporized="">
        <emissions CO_abs="24592.471563" CO2_abs="523389.127678" HC_abs="124.219612" PMx_abs="11.550642" NOx_abs="229.327845" fuel_abs="224.993187" electricity_abs="0"/>
    </tripinfo>
    <tripinfo id="h3426c1:1" depart="57864.00" departLane="-160314345#2_1" departPos="5.10" departSpeed="0.00" departDelay="0.00" arrival="57947.00" arrivalLane="386687235_1" arrivalPos="80.84" arrivalSpeed="12.67" duration="83.00" routeLength="726.87" waitingTime="0.00" waitingCount="0" stopTime="0.00" timeLoss="9.82" rerouteNo="1" devices="tripinfo_h3426c1:1 routing_h3426c1:1 emissions_h3426c1:1" vType="default_016" speedFactor="0.93" vaporized="">
        <emissions CO_abs="3269.374326" CO2_abs="177010.445260" HC_abs="18.977243" PMx_abs="2.874427" NOx_abs="71.199096" fuel_abs="76.090025" electricity_abs="0"/>
    </tripinfo>
    <tripinfo id="carIn8642:1" depart="57774.00" departLane="-447569998#1_1" departPos="5.10" departSpeed="0.00" departDelay="0.90" arrival="57951.00" arrivalLane="-315358244_1" arrivalPos="33.95" arrivalSpeed="12.95" duration="177.00" routeLength="706.49" waitingTime="98.00" waitingCount="2" stopTime="0.00" timeLoss="116.34" rerouteNo="1" devices="tripinfo_carIn8642:1 routing_carIn8642:1 emissions_carIn8642:1" vType="default_016" speedFactor="1.00" vaporized="">
        <emissions CO_abs="17505.062900" CO2_abs="403442.462057" HC_abs="89.142183" PMx_abs="8.673193" NOx_abs="175.331518" fuel_abs="173.429924" electricity_abs="0"/>
    </tripinfo>
    <tripinfo id="carIn24709:1" depart="57752.00" departLane="266565295#5_1" departPos="5.10" departSpeed="0.00" departDelay="1.50" arrival="57952.00" arrivalLane="-24634506#2_1" arrivalPos="71.32" arrivalSpeed="11.97" duration="200.00" routeLength="1534.27" waitingTime="46.00" waitingCount="2" stopTime="0.00" timeLoss="79.31" rerouteNo="1" devices="tripinfo_carIn24709:1 routing_carIn24709:1 emissions_carIn24709:1" vType="default_016" speedFactor="0.95" vaporized="">
        <emissions CO_abs="13061.428450" CO2_abs="528915.379879" HC_abs="71.895905" PMx_abs="10.067591" NOx_abs="221.335434" fuel_abs="227.361166" electricity_abs="0"/>
    </tripinfo>
    <tripinfo id="carIn115169:1" depart="57759.00" departLane="24599188#0.94_1" departPos="5.10" departSpeed="0.00" departDelay="0.50" arrival="57955.00" arrivalLane="-10427692#3_1" arrivalPos="28.64" arrivalSpeed="21.00" duration="196.00" routeLength="2183.23" waitingTime="0.00" waitingCount="0" stopTime="0.00" timeLoss="26.86" rerouteNo="1" devices="tripinfo_carIn115169:1 routing_carIn115169:1 emissions_carIn115169:1" vType="default_016" speedFactor="1.00" vaporized="">
        <emissions CO_abs="7090.684548" CO2_abs="506207.415196" HC_abs="44.185081" PMx_abs="8.757119" NOx_abs="204.542543" fuel_abs="217.596731" electricity_abs="0"/>
    </tripinfo>
    <tripinfo id="carIn14532:1" depart="57742.00" departLane="272042143_1" departPos="5.10" departSpeed="0.00" departDelay="0.90" arrival="57958.00" arrivalLane="399835085#1_1" arrivalPos="212.23" arrivalSpeed="6.89" duration="216.00" routeLength="1757.45" waitingTime="43.00" waitingCount="1" stopTime="0.00" timeLoss="64.23" rerouteNo="1" devices="tripinfo_carIn14532:1 routing_carIn14532:1 emissions_carIn14532:1" vType="default_016" speedFactor="0.94" vaporized="">
        <emissions CO_abs="11101.640049" CO2_abs="452057.761282" HC_abs="61.019008" PMx_abs="7.770806" NOx_abs="183.066015" fuel_abs="194.324213" electricity_abs="0"/>
    </tripinfo>
    <tripinfo id="randUni11215:1" depart="57953.00" departLane="124812856#0_1" departPos="5.10" departSpeed="0.00" departDelay="0.30" arrival="57968.00" arrivalLane="201956810_1" arrivalPos="71.65" arrivalSpeed="12.11" duration="15.00" routeLength="134.91" waitingTime="0.00" waitingCount="0" stopTime="0.00" timeLoss="3.99" rerouteNo="1" devices="tripinfo_randUni11215:1 routing_randUni11215:1 emissions_randUni11215:1" vType="random_016" speedFactor="0.93" vaporized="">
        <emissions CO_abs="1109.272029" CO2_abs="59740.381653" HC_abs="6.455664" PMx_abs="1.098979" NOx_abs="24.895251" fuel_abs="25.679912" electricity_abs="0"/>
    </tripinfo>
    <tripinfo id="carIn101266:1" depart="57737.00" departLane="272042143_1" departPos="5.10" departSpeed="0.00" departDelay="0.50" arrival="57970.00" arrivalLane="306240162#0_0" arrivalPos="220.43" arrivalSpeed="14.74" duration="233.00" routeLength="2246.89" waitingTime="55.00" waitingCount="2" stopTime="0.00" timeLoss="78.85" rerouteNo="1" devices="tripinfo_carIn101266:1 routing_carIn101266:1 emissions_carIn101266:1" vType="default_016" speedFactor="0.96" vaporized="">
        <emissions CO_abs="14345.153018" CO2_abs="628556.860592" HC_abs="80.124783" PMx_abs="11.980962" NOx_abs="259.787624" fuel_abs="270.192662" electricity_abs="0"/>
    </tripinfo>
    <tripinfo id="h7032c2:3" depart="57863.00" departLane="315358244_1" departPos="5.10" departSpeed="0.00" departDelay="0.40" arrival="57977.00" arrivalLane="26677541_1" arrivalPos="152.31" arrivalSpeed="11.55" duration="114.00" routeLength="925.70" waitingTime="0.00" waitingCount="0" stopTime="0.00" timeLoss="14.99" rerouteNo="1" devices="tripinfo_h7032c2:3 routing_h7032c2:3 emissions_h7032c2:3" vType="default_016" speedFactor="0.90" vaporized="">
        <emissions CO_abs="4570.427509" CO2_abs="233462.671451" HC_abs="26.190762" PMx_abs="3.773328" NOx_abs="94.050012" fuel_abs="100.356901" electricity_abs="0"/>
    </tripinfo>
    <tripinfo id="carIn95912:1" depart="57825.00" departLane="272042143_1" departPos="5.10" departSpeed="0.00" departDelay="1.40" arrival="57980.00" arrivalLane="201238729#3_1" arrivalPos="431.02" arrivalSpeed="14.47" duration="155.00" routeLength="2100.26" waitingTime="0.00" waitingCount="0" stopTime="0.00" timeLoss="12.91" rerouteNo="1" devices="tripinfo_carIn95912:1 routing_carIn95912:1 emissions_carIn95912:1" vType="default_016" speedFactor="1.06" vaporized="">
        <emissions CO_abs="3507.263331" CO2_abs="362143.613847" HC_abs="24.222241" PMx_abs="5.526642" NOx_abs="139.073618" fuel_abs="155.669926" electricity_abs="0"/>
    </tripinfo>
    <tripinfo id="carIn113750:1" depart="57961.00" departLane="24599188#0.94_1" departPos="5.10" departSpeed="0.00" departDelay="0.30" arrival="57987.00" arrivalLane="24599188#0.94_1" arrivalPos="186.59" arrivalSpeed="7.10" duration="26.00" routeLength="181.49" waitingTime="0.00" waitingCount="0" stopTime="0.00" timeLoss="3.35" rerouteNo="1" devices="tripinfo_carIn113750:1 routing_carIn113750:1 emissions_carIn113750:1" vType="default_016" speedFactor="0.98" vaporized="">
        <emissions CO_abs="1200.661903" CO2_abs="52526.650781" HC_abs="6.672970" PMx_abs="0.864532" NOx_abs="21.410891" fuel_abs="22.579358" electricity_abs="0"/>
    </tripinfo>
    <tripinfo id="h23116c2:5" depart="57698.00" departLane="128361102#0_1" departPos="5.10" departSpeed="0.00" departDelay="0.40" arrival="57997.00" arrivalLane="30482615#1_0" arrivalPos="424.01" arrivalSpeed="4.44" duration="299.00" routeLength="1599.26" waitingTime="73.00" waitingCount="1" stopTime="0.00" timeLoss="109.24" rerouteNo="1" devices="tripinfo_h23116c2:5 routing_h23116c2:5 emissions_h23116c2:5" vType="default_016" speedFactor="0.94" vaporized="">
        <emissions CO_abs="20859.875772" CO2_abs="601889.815837" HC_abs="108.919616" PMx_abs="11.488990" NOx_abs="253.604233" fuel_abs="258.735101" electricity_abs="0"/>
    </tripinfo>
    <tripinfo id="carIn70533:1" depart="57812.00" departLane="-447569998#1_1" departPos="5.10" departSpeed="0.00" departDelay="0.10" arrival="57998.00" arrivalLane="-315358244_1" arrivalPos="33.95" arrivalSpeed="12.44" duration="186.00" routeLength="706.49" waitingTime="100.00" waitingCount="3" stopTime="0.00" timeLoss="123.71" rerouteNo="1" devices="tripinfo_carIn70533:1 routing_carIn70533:1 emissions_carIn70533:1" vType="default_016" speedFactor="0.97" vaporized="">
        <emissions CO_abs="16943.124734" CO2_abs="395324.955967" HC_abs="86.391276" PMx_abs="8.478807" NOx_abs="171.859058" fuel_abs="169.940241" electricity_abs="0"/>
    </tripinfo>
    <tripinfo id="carIn13353:1" depart="57838.00" departLane="-447569998#1_1" departPos="5.10" departSpeed="0.00" departDelay="0.30" arrival="57998.00" arrivalLane="-315358244_2" arrivalPos="33.95" arrivalSpeed="14.62" duration="160.00" routeLength="706.49" waitingTime="75.00" waitingCount="3" stopTime="0.00" timeLoss="102.76" rerouteNo="1" devices="tripinfo_carIn13353:1 routing_carIn13353:1 emissions_carIn13353:1" vType="default_016" speedFactor="1.07" vaporized="">
        <emissions CO_abs="14110.835306" CO2_abs="369091.321662" HC_abs="72.854214" PMx_abs="7.626117" NOx_abs="158.123028" fuel_abs="158.662086" electricity_abs="0"/>
    </tripinfo>
    <tripinfo id="carIn56449:1" depart="57758.00" departLane="128361102#0_1" departPos="5.10" departSpeed="0.00" departDelay="0.70" arrival="58000.00" arrivalLane="30482615#1_0" arrivalPos="424.01" arrivalSpeed="4.52" duration="242.00" routeLength="1599.26" waitingTime="22.00" waitingCount="1" stopTime="0.00" timeLoss="65.69" rerouteNo="1" devices="tripinfo_carIn56449:1 routing_carIn56449:1 emissions_carIn56449:1" vType="default_016" speedFactor="1.01" vaporized="">
        <emissions CO_abs="12565.605802" CO2_abs="469652.863517" HC_abs="68.116831" PMx_abs="8.654590" NOx_abs="196.277319" fuel_abs="201.887496" electricity_abs="0"/>
    </tripinfo>
    <tripinfo id="carIn63848:1" depart="57841.00" departLane="-447569998#1_1" departPos="5.10" departSpeed="0.00" departDelay="0.80" arrival="58010.00" arrivalLane="-315358244_1" arrivalPos="33.95" arrivalSpeed="14.96" duration="169.00" routeLength="706.49" waitingTime="84.00" waitingCount="4" stopTime="0.00" timeLoss="116.21" rerouteNo="1" devices="tripinfo_carIn63848:1 routing_carIn63848:1 emissions_carIn63848:1" vType="default_016" speedFactor="1.14" vaporized="">
        <emissions CO_abs="15041.426875" CO2_abs="375172.501836" HC_abs="77.226212" PMx_abs="7.958119" NOx_abs="161.945631" fuel_abs="161.276505" electricity_abs="0"/>
    </tripinfo>
    <tripinfo id="carIn52048:1" depart="57930.00" departLane="386687232#0_1" departPos="5.10" departSpeed="0.00" departDelay="5.10" arrival="58013.00" arrivalLane="-40888354#2_1" arrivalPos="59.15" arrivalSpeed="7.90" duration="83.00" routeLength="706.63" waitingTime="0.00" waitingCount="0" stopTime="0.00" timeLoss="15.99" rerouteNo="1" devices="tripinfo_carIn52048:1 routing_carIn52048:1 emissions_carIn52048:1" vType="default_016" speedFactor="1.08" vaporized="">
        <emissions CO_abs="3074.995548" CO2_abs="169882.019648" HC_abs="17.927997" PMx_abs="2.771562" NOx_abs="68.668845" fuel_abs="73.025688" electricity_abs="0"/>
    </tripinfo>
    <tripinfo id="carIn9695:1" depart="57822.00" departLane="272042143_1" departPos="5.10" departSpeed="0.00" departDelay="0.80" arrival="58018.00" arrivalLane="-315358254#1_1" arrivalPos="137.16" arrivalSpeed="11.56" duration="196.00" routeLength="1596.88" waitingTime="51.00" waitingCount="1" stopTime="0.00" timeLoss="66.83" rerouteNo="1" devices="tripinfo_carIn9695:1 routing_carIn9695:1 emissions_carIn9695:1" vType="default_016" speedFactor="0.90" vaporized="">