<?xml version="1.0" encoding="UTF-8"?>

<!-- generated on 2021-10-26 21:15:47 by Eclipse SUMO sumo Version 1.10.0
<configuration xmlns:xsi="http://www.w3.org/2001/XMLSchema-instance" xsi:noNamespaceSchemaLocation="http://sumo.dlr.de/xsd/sumoConfiguration.xsd">

    <input>
        <net-file value="/Users/behradkoohy/sumo-scratchpad/RESCO/environments/ingolstadt21/ingolstadt21.net.xml"/>
        <route-files value="/Users/behradkoohy/sumo-scratchpad/RESCO/environments/ingolstadt21/ingolstadt21.rou.xml"/>
    </input>

    <output>
        <tripinfo-output value="/Users/behradkoohy/sumo-scratchpad/RESCO/logs/MPLight-tr0-ingolstadt21-21-mplight_full-pressure/tripinfo_42.xml"/>
        <tripinfo-output.write-unfinished value="true"/>
    </output>

    <time>
        <begin value="57600"/>
        <end value="61200"/>
    </time>

    <processing>
        <time-to-teleport value="-1"/>
    </processing>

    <report>
        <no-warnings value="true"/>
        <no-step-log value="true"/>
    </report>

    <emissions>
        <device.emissions.probability value="1"/>
    </emissions>

    <traci_server>
        <remote-port value="64865"/>
    </traci_server>

    <random_number>
        <random value="true"/>
    </random_number>

</configuration>
-->

<tripinfos xmlns:xsi="http://www.w3.org/2001/XMLSchema-instance" xsi:noNamespaceSchemaLocation="http://sumo.dlr.de/xsd/tripinfo_file.xsd">
    <tripinfo id="h15454c2:3" depart="57612.00" departLane="24608844_1" departPos="5.10" departSpeed="0.00" departDelay="0.50" arrival="57653.00" arrivalLane="32978638#0_1" arrivalPos="49.29" arrivalSpeed="13.01" duration="41.00" routeLength="354.79" waitingTime="0.00" waitingCount="0" stopTime="0.00" timeLoss="5.00" rerouteNo="1" devices="tripinfo_h15454c2:3 routing_h15454c2:3 emissions_h15454c2:3" vType="default_016" speedFactor="0.94" vaporized="">
        <emissions CO_abs="1856.631266" CO2_abs="99520.914255" HC_abs="10.766014" PMx_abs="1.687113" NOx_abs="40.549144" fuel_abs="42.780139" electricity_abs="0"/>
    </tripinfo>
    <tripinfo id="carIn53971:1" depart="57640.00" departLane="272042143_1" departPos="5.10" departSpeed="0.00" departDelay="0.80" arrival="57687.00" arrivalLane="24634414#1_1" arrivalPos="162.19" arrivalSpeed="10.21" duration="47.00" routeLength="493.04" waitingTime="0.00" waitingCount="0" stopTime="0.00" timeLoss="10.43" rerouteNo="1" devices="tripinfo_carIn53971:1 routing_carIn53971:1 emissions_carIn53971:1" vType="default_016" speedFactor="1.26" vaporized="">
        <emissions CO_abs="2649.950887" CO2_abs="165680.269366" HC_abs="15.961118" PMx_abs="3.060276" NOx_abs="68.563860" fuel_abs="71.218744" electricity_abs="0"/>
    </tripinfo>
    <tripinfo id="carIn60260:1" depart="57606.00" departLane="315358254#0_1" departPos="5.10" departSpeed="0.00" departDelay="0.90" arrival="57722.00" arrivalLane="399835085#1_1" arrivalPos="212.23" arrivalSpeed="6.38" duration="116.00" routeLength="430.98" waitingTime="50.00" waitingCount="1" stopTime="0.00" timeLoss="60.04" rerouteNo="1" devices="tripinfo_carIn60260:1 routing_carIn60260:1 emissions_carIn60260:1" vType="default_016" speedFactor="0.82" vaporized="">
        <emissions CO_abs="10589.890407" CO2_abs="242579.145524" HC_abs="53.849947" PMx_abs="5.062571" NOx_abs="105.240606" fuel_abs="104.278972" electricity_abs="0"/>
    </tripinfo>
    <tripinfo id="h3568c1:3" depart="57656.00" departLane="266565295#5_1" departPos="5.10" departSpeed="0.00" departDelay="0.80" arrival="57741.00" arrivalLane="-24634415_1" arrivalPos="62.03" arrivalSpeed="12.92" duration="85.00" routeLength="807.40" waitingTime="2.00" waitingCount="1" stopTime="0.00" timeLoss="18.38" rerouteNo="1" devices="tripinfo_h3568c1:3 routing_h3568c1:3 emissions_h3568c1:3" vType="default_016" speedFactor="0.96" vaporized="">
        <emissions CO_abs="3814.626224" CO2_abs="232691.506198" HC_abs="22.806304" PMx_abs="4.031848" NOx_abs="94.800895" fuel_abs="100.024428" electricity_abs="0"/>
    </tripinfo>
    <tripinfo id="h4538c1:1" depart="57701.00" departLane="-10427692#1_1" departPos="5.10" departSpeed="0.00" departDelay="0.00" arrival="57743.00" arrivalLane="-128361102#1_1" arrivalPos="274.68" arrivalSpeed="11.31" duration="42.00" routeLength="440.74" waitingTime="0.00" waitingCount="0" stopTime="0.00" timeLoss="6.61" rerouteNo="1" devices="tripinfo_h4538c1:1 routing_h4538c1:1 emissions_h4538c1:1" vType="default_016" speedFactor="0.90" vaporized="">
        <emissions CO_abs="1697.587374" CO2_abs="110606.735770" HC_abs="10.301831" PMx_abs="1.803481" NOx_abs="44.264857" fuel_abs="47.545330" electricity_abs="0"/>
    </tripinfo>
    <tripinfo id="h5979c1:5" depart="57669.00" departLane="399835085#1_1" departPos="5.10" departSpeed="0.00" departDelay="0.00" arrival="57754.00" arrivalLane="-315358254#1_1" arrivalPos="137.16" arrivalSpeed="12.74" duration="85.00" routeLength="659.33" waitingTime="0.00" waitingCount="0" stopTime="0.00" timeLoss="9.33" rerouteNo="1" devices="tripinfo_h5979c1:5 routing_h5979c1:5 emissions_h5979c1:5" vType="default_016" speedFactor="0.96" vaporized="">
        <emissions CO_abs="3593.007743" CO2_abs="179881.741805" HC_abs="20.492420" PMx_abs="2.867257" NOx_abs="72.415174" fuel_abs="77.324557" electricity_abs="0"/>
    </tripinfo>
    <tripinfo id="h3688c1:1" depart="57625.00" departLane="201201950#1_1" departPos="5.10" departSpeed="0.00" departDelay="0.00" arrival="57765.00" arrivalLane="32978638#0_1" arrivalPos="49.29" arrivalSpeed="13.23" duration="140.00" routeLength="1089.75" waitingTime="47.00" waitingCount="2" stopTime="0.00" timeLoss="62.10" rerouteNo="1" devices="tripinfo_h3688c1:1 routing_h3688c1:1 emissions_h3688c1:1" vType="default_016" speedFactor="1.03" vaporized="">
        <emissions CO_abs="9007.711218" CO2_abs="354742.808683" HC_abs="49.232918" PMx_abs="6.641213" NOx_abs="146.576430" fuel_abs="152.491300" electricity_abs="0"/>
    </tripinfo>
    <tripinfo id="h3326c1:2" depart="57656.00" departLane="22716069#0_1" departPos="5.10" departSpeed="0.00" departDelay="0.00" arrival="57767.00" arrivalLane="24634517#13_1" arrivalPos="111.62" arrivalSpeed="13.81" duration="111.00" routeLength="1312.81" waitingTime="0.00" waitingCount="0" stopTime="0.00" timeLoss="14.44" rerouteNo="1" devices="tripinfo_h3326c1:2 routing_h3326c1:2 emissions_h3326c1:2" vType="default_016" speedFactor="1.01" vaporized="">
        <emissions CO_abs="4115.235618" CO2_abs="318112.585197" HC_abs="26.178508" PMx_abs="5.388798" NOx_abs="127.577462" fuel_abs="136.742778" electricity_abs="0"/>
    </tripinfo>
    <tripinfo id="h7181c1:1" depart="57660.00" departLane="315358254#0_1" departPos="5.10" departSpeed="0.00" departDelay="0.10" arrival="57771.00" arrivalLane="306240162#0_0" arrivalPos="220.43" arrivalSpeed="16.53" duration="111.00" routeLength="932.35" waitingTime="34.00" waitingCount="2" stopTime="0.00" timeLoss="59.79" rerouteNo="1" devices="tripinfo_h7181c1:1 routing_h7181c1:1 emissions_h7181c1:1" vType="default_016" speedFactor="1.01" vaporized="">
        <emissions CO_abs="9146.107215" CO2_abs="394773.335788" HC_abs="50.956840" PMx_abs="8.001188" NOx_abs="166.330269" fuel_abs="169.697392" electricity_abs="0"/>
    </tripinfo>
    <tripinfo id="h317c2:1" depart="57707.00" departLane="-32978638#0_1" departPos="5.10" departSpeed="0.00" departDelay="0.10" arrival="57776.00" arrivalLane="-266565295#5_1" arrivalPos="172.76" arrivalSpeed="12.35" duration="69.00" routeLength="370.53" waitingTime="31.00" waitingCount="1" stopTime="0.00" timeLoss="39.27" rerouteNo="1" devices="tripinfo_h317c2:1 routing_h317c2:1 emissions_h317c2:1" vType="default_016" speedFactor="0.92" vaporized="">
        <emissions CO_abs="6017.686699" CO2_abs="177811.355806" HC_abs="31.570661" PMx_abs="3.614735" NOx_abs="75.970598" fuel_abs="76.435560" electricity_abs="0"/>
    </tripinfo>
    <tripinfo id="h330c1:1" depart="57736.00" departLane="-32978638#0_1" departPos="5.10" departSpeed="0.00" departDelay="0.20" arrival="57781.00" arrivalLane="-266565295#5_1" arrivalPos="172.76" arrivalSpeed="11.48" duration="45.00" routeLength="370.53" waitingTime="2.00" waitingCount="1" stopTime="0.00" timeLoss="11.57" rerouteNo="1" devices="tripinfo_h330c1:1 routing_h330c1:1 emissions_h330c1:1" vType="default_016" speedFactor="0.83" vaporized="">
        <emissions CO_abs="2039.379639" CO2_abs="104627.405675" HC_abs="11.721431" PMx_abs="1.809451" NOx_abs="42.832716" fuel_abs="44.975242" electricity_abs="0"/>
    </tripinfo>
    <tripinfo id="carIn48184:1" depart="57613.00" departLane="-306240162#1_0" departPos="5.10" departSpeed="0.00" departDelay="0.70" arrival="57782.00" arrivalLane="386687235_1" arrivalPos="80.84" arrivalSpeed="14.10" duration="169.00" routeLength="2257.41" waitingTime="4.00" waitingCount="1" stopTime="0.00" timeLoss="29.19" rerouteNo="1" devices="tripinfo_carIn48184:1 routing_carIn48184:1 emissions_carIn48184:1" vType="default_016" speedFactor="1.06" vaporized="">
        <emissions CO_abs="6909.408614" CO2_abs="536201.959993" HC_abs="44.086940" PMx_abs="9.703517" NOx_abs="216.768847" fuel_abs="230.489178" electricity_abs="0"/>
    </tripinfo>
    <tripinfo id="carIn121703:1" depart="57647.00" departLane="386687232#0_1" departPos="5.10" departSpeed="0.00" departDelay="0.30" arrival="57784.00" arrivalLane="-315358244_1" arrivalPos="33.95" arrivalSpeed="12.16" duration="137.00" routeLength="1157.39" waitingTime="29.00" waitingCount="2" stopTime="0.00" timeLoss="46.23" rerouteNo="1" devices="tripinfo_carIn121703:1 routing_carIn121703:1 emissions_carIn121703:1" vType="default_016" speedFactor="0.93" vaporized="">
        <emissions CO_abs="6779.965193" CO2_abs="303465.399819" HC_abs="37.921785" PMx_abs="5.217618" NOx_abs="122.628265" fuel_abs="130.448876" electricity_abs="0"/>
    </tripinfo>
    <tripinfo id="carIn30817:1" depart="57681.00" departLane="315358244_1" departPos="5.10" departSpeed="0.00" departDelay="0.20" arrival="57790.00" arrivalLane="447569997#1_1" arrivalPos="180.93" arrivalSpeed="7.52" duration="109.00" routeLength="718.04" waitingTime="30.00" waitingCount="1" stopTime="0.00" timeLoss="47.94" rerouteNo="1" devices="tripinfo_carIn30817:1 routing_carIn30817:1 emissions_carIn30817:1" vType="default_016" speedFactor="1.01" vaporized="">
        <emissions CO_abs="7390.997965" CO2_abs="255935.066848" HC_abs="39.636602" PMx_abs="4.910156" NOx_abs="107.562276" fuel_abs="110.017858" electricity_abs="0"/>
    </tripinfo>
    <tripinfo id="h7800c1:5" depart="57696.00" departLane="-447569998#1_1" departPos="5.10" departSpeed="0.00" departDelay="0.00" arrival="57795.00" arrivalLane="-447569998#1_2" arrivalPos="180.76" arrivalSpeed="4.88" duration="99.00" routeLength="175.66" waitingTime="73.00" waitingCount="1" stopTime="0.00" timeLoss="80.25" rerouteNo="1" devices="tripinfo_h7800c1:5 routing_h7800c1:5 emissions_h7800c1:5" vType="default_016" speedFactor="1.15" vaporized="">
        <emissions CO_abs="12167.516077" CO2_abs="231307.714815" HC_abs="60.823780" PMx_abs="5.395627" NOx_abs="103.669296" fuel_abs="99.434593" electricity_abs="0"/>
    </tripinfo>
    <tripinfo id="carIn126288:1" depart="57674.00" departLane="272042143_1" departPos="5.10" departSpeed="0.00" departDelay="0.00" arrival="57800.00" arrivalLane="-315358254#1_1" arrivalPos="137.16" arrivalSpeed="14.10" duration="126.00" routeLength="1596.88" waitingTime="0.00" waitingCount="0" stopTime="0.00" timeLoss="13.40" rerouteNo="1" devices="tripinfo_carIn126288:1 routing_carIn126288:1 emissions_carIn126288:1" vType="default_016" speedFactor="1.03" vaporized="">
        <emissions CO_abs="3828.908629" CO2_abs="339654.408401" HC_abs="25.317083" PMx_abs="5.451433" NOx_abs="133.277375" fuel_abs="146.002747" electricity_abs="0"/>
    </tripinfo>
    <tripinfo id="h3154c1:1" depart="57658.00" departLane="24634507_1" departPos="5.10" departSpeed="0.00" departDelay="0.00" arrival="57808.00" arrivalLane="-266565295#5_1" arrivalPos="172.76" arrivalSpeed="12.56" duration="150.00" routeLength="1206.22" waitingTime="31.00" waitingCount="3" stopTime="0.00" timeLoss="55.07" rerouteNo="1" devices="tripinfo_h3154c1:1 routing_h3154c1:1 emissions_h3154c1:1" vType="default_016" speedFactor="0.94" vaporized="">
        <emissions CO_abs="7400.707770" CO2_abs="352456.604469" HC_abs="41.980739" PMx_abs="6.583815" NOx_abs="146.677010" fuel_abs="151.507137" electricity_abs="0"/>
    </tripinfo>
    <tripinfo id="carIn107282:1" depart="57749.00" departLane="-447569998#1_1" departPos="5.10" departSpeed="0.00" departDelay="0.00" arrival="57820.00" arrivalLane="315358242#0_1" arrivalPos="165.37" arrivalSpeed="12.22" duration="71.00" routeLength="448.50" waitingTime="19.00" waitingCount="1" stopTime="0.00" timeLoss="27.90" rerouteNo="1" devices="tripinfo_carIn107282:1 routing_carIn107282:1 emissions_carIn107282:1" vType="default_016" speedFactor="0.96" vaporized="">
        <emissions CO_abs="4221.847536" CO2_abs="145585.803815" HC_abs="22.602390" PMx_abs="2.674692" NOx_abs="60.488851" fuel_abs="62.582618" electricity_abs="0"/>
    </tripinfo>
    <tripinfo id="h645c1:1" depart="57622.00" departLane="266565295#5_1" departPos="5.10" departSpeed="0.00" departDelay="0.40" arrival="57826.00" arrivalLane="-315358244_1" arrivalPos="33.95" arrivalSpeed="13.08" duration="204.00" routeLength="1910.83" waitingTime="40.00" waitingCount="3" stopTime="0.00" timeLoss="64.88" rerouteNo="1" devices="tripinfo_h645c1:1 routing_h645c1:1 emissions_h645c1:1" vType="default_016" speedFactor="1.00" vaporized="">
        <emissions CO_abs="10066.128798" CO2_abs="486733.163960" HC_abs="57.185550" PMx_abs="8.607472" NOx_abs="197.543644" fuel_abs="209.228113" electricity_abs="0"/>
    </tripinfo>
    <tripinfo id="carIn82220:1" depart="57619.00" departLane="-306240162#1_0" departPos="5.10" departSpeed="0.00" departDelay="3.50" arrival="57834.00" arrivalLane="386687235_1" arrivalPos="80.84" arrivalSpeed="12.37" duration="215.00" routeLength="2257.41" waitingTime="25.00" waitingCount="2" stopTime="0.00" timeLoss="54.63" rerouteNo="1" devices="tripinfo_carIn82220:1 routing_carIn82220:1 emissions_carIn82220:1" vType="default_016" speedFactor="0.92" vaporized="">
        <emissions CO_abs="9156.565895" CO2_abs="547184.433847" HC_abs="54.505723" PMx_abs="9.566292" NOx_abs="220.483729" fuel_abs="235.212230" electricity_abs="0"/>
    </tripinfo>
    <tripinfo id="carIn80064:1" depart="57603.00" departLane="128361109#1_1" departPos="5.10" departSpeed="0.00" departDelay="0.40" arrival="57837.00" arrivalLane="-315358254#1_1" arrivalPos="137.16" arrivalSpeed="14.37" duration="234.00" routeLength="1587.97" waitingTime="116.00" waitingCount="3" stopTime="0.00" timeLoss="147.52" rerouteNo="1" devices="tripinfo_carIn80064:1 routing_carIn80064:1 emissions_carIn80064:1" vType="default_016" speedFactor="1.04" vaporized="">
        <emissions CO_abs="25203.421231" CO2_abs="784286.554592" HC_abs="133.470370" PMx_abs="17.142972" NOx_abs="338.424570" fuel_abs="337.137824" electricity_abs="0"/>
    </tripinfo>
    <tripinfo id="h9563c2:5" depart="57631.00" departLane="315358244_1" departPos="5.10" departSpeed="0.00" departDelay="0.70" arrival="57842.00" arrivalLane="386687235_1" arrivalPos="80.84" arrivalSpeed="15.22" duration="211.00" routeLength="1186.14" waitingTime="106.00" waitingCount="3" stopTime="0.00" timeLoss="132.63" rerouteNo="1" devices="tripinfo_h9563c2:5 routing_h9563c2:5 emissions_h9563c2:5" vType="default_016" speedFactor="1.10" vaporized="">
        <emissions CO_abs="20095.968439" CO2_abs="539883.600023" HC_abs="104.061912" PMx_abs="11.307505" NOx_abs="231.373329" fuel_abs="232.080312" electricity_abs="0"/>
    </tripinfo>
    <tripinfo id="h8343c1:5" depart="57679.00" departLane="315358254#0_1" departPos="5.10" departSpeed="0.00" departDelay="0.60" arrival="57844.00" arrivalLane="-24634510#5_1" arrivalPos="236.88" arrivalSpeed="14.77" duration="165.00" routeLength="2056.84" waitingTime="21.00" waitingCount="1" stopTime="0.00" timeLoss="47.55" rerouteNo="1" devices="tripinfo_h8343c1:5 routing_h8343c1:5 emissions_h8343c1:5" vType="default_016" speedFactor="1.07" vaporized="">
        <emissions CO_abs="10546.530948" CO2_abs="613996.580642" HC_abs="62.668544" PMx_abs="12.118543" NOx_abs="254.400702" fuel_abs="263.930360" electricity_abs="0"/>
    </tripinfo>
    <tripinfo id="carIn118591:1" depart="57689.00" departLane="315358244_1" departPos="5.10" departSpeed="0.00" departDelay="0.20" arrival="57845.00" arrivalLane="386687235_1" arrivalPos="80.84" arrivalSpeed="14.08" duration="156.00" routeLength="1186.14" waitingTime="43.00" waitingCount="3" stopTime="0.00" timeLoss="72.84" rerouteNo="1" devices="tripinfo_carIn118591:1 routing_carIn118591:1 emissions_carIn118591:1" vType="default_016" speedFactor="1.04" vaporized="">
        <emissions CO_abs="9762.203914" CO2_abs="391257.398683" HC_abs="53.590053" PMx_abs="7.342881" NOx_abs="162.220529" fuel_abs="168.187414" electricity_abs="0"/>
    </tripinfo>
    <tripinfo id="h12244c1:3" depart="57612.00" departLane="315358244_1" departPos="5.10" departSpeed="0.00" departDelay="0.40" arrival="57850.00" arrivalLane="386687235_1" arrivalPos="80.84" arrivalSpeed="11.50" duration="238.00" routeLength="1186.14" waitingTime="109.00" waitingCount="3" stopTime="0.00" timeLoss="134.36" rerouteNo="1" devices="tripinfo_h12244c1:3 routing_h12244c1:3 emissions_h12244c1:3" vType="default_016" speedFactor="0.84" vaporized="">
        <emissions CO_abs="21110.525746" CO2_abs="535197.355910" HC_abs="108.627106" PMx_abs="11.128124" NOx_abs="230.568592" fuel_abs="230.066818" electricity_abs="0"/>
    </tripinfo>
    <tripinfo id="h16072c2:3" depart="57663.00" departLane="315358254#0_1" departPos="5.10" departSpeed="0.00" departDelay="2.50" arrival="57852.00" arrivalLane="386687235_1" arrivalPos="80.84" arrivalSpeed="14.67" duration="189.00" routeLength="1611.92" waitingTime="47.00" waitingCount="4" stopTime="0.00" timeLoss="83.05" rerouteNo="1" devices="tripinfo_h16072c2:3 routing_h16072c2:3 emissions_h16072c2:3" vType="default_016" speedFactor="1.11" vaporized="">
        <emissions CO_abs="10553.065387" CO2_abs="495382.549201" HC_abs="59.654003" PMx_abs="9.270982" NOx_abs="204.881006" fuel_abs="212.945578" electricity_abs="0"/>
    </tripinfo>
    <tripinfo id="carIn73855:1" depart="57743.00" departLane="386687232#0_1" departPos="5.10" departSpeed="0.00" departDelay="0.50" arrival="57853.00" arrivalLane="-315358244_1" arrivalPos="33.95" arrivalSpeed="14.79" duration="110.00" routeLength="1157.39" waitingTime="11.00" waitingCount="2" stopTime="0.00" timeLoss="36.57" rerouteNo="1" devices="tripinfo_carIn73855:1 routing_carIn73855:1 emissions_carIn73855:1" vType="default_016" speedFactor="1.15" vaporized="">
        <emissions CO_abs="5183.339797" CO2_abs="320030.459635" HC_abs="31.034573" PMx_abs="5.889777" NOx_abs="131.285718" fuel_abs="137.567354" electricity_abs="0"/>
    </tripinfo>
    <tripinfo id="carIn126378:1" depart="57746.00" departLane="386687232#0_1" departPos="5.10" departSpeed="0.00" departDelay="1.80" arrival="57853.00" arrivalLane="-315358244_2" arrivalPos="33.95" arrivalSpeed="14.39" duration="107.00" routeLength="1157.39" waitingTime="5.00" waitingCount="1" stopTime="0.00" timeLoss="28.89" rerouteNo="1" devices="tripinfo_carIn126378:1 routing_carIn126378:1 emissions_carIn126378:1" vType="default_016" speedFactor="1.08" vaporized="">
        <emissions CO_abs="4920.027652" CO2_abs="315168.195694" HC_abs="29.703226" PMx_abs="5.702874" NOx_abs="128.879692" fuel_abs="135.477243" electricity_abs="0"/>
    </tripinfo>
    <tripinfo id="randUni15030:1" depart="57735.00" departLane="386687232#0_1" departPos="5.10" departSpeed="0.00" departDelay="0.10" arrival="57858.00" arrivalLane="26677539_1" arrivalPos="151.98" arrivalSpeed="6.36" duration="123.00" routeLength="919.89" waitingTime="5.00" waitingCount="1" stopTime="0.00" timeLoss="19.91" rerouteNo="1" devices="tripinfo_randUni15030:1 routing_randUni15030:1 emissions_randUni15030:1" vType="random_016" speedFactor="0.81" vaporized="">
        <emissions CO_abs="4789.280134" CO2_abs="228124.249121" HC_abs="27.019408" PMx_abs="3.510395" NOx_abs="90.818846" fuel_abs="98.062653" electricity_abs="0"/>
    </tripinfo>
    <tripinfo id="carIn27009:1" depart="57673.00" departLane="-447569998#1_1" departPos="5.10" departSpeed="0.00" departDelay="0.50" arrival="57859.00" arrivalLane="-26677539_1" arrivalPos="152.75" arrivalSpeed="8.91" duration="186.00" routeLength="699.63" waitingTime="94.00" waitingCount="1" stopTime="0.00" timeLoss="109.45" rerouteNo="1" devices="tripinfo_carIn27009:1 routing_carIn27009:1 emissions_carIn27009:1" vType="default_015" speedFactor="1.10" vaporized="">
        <emissions CO_abs="18855.982005" CO2_abs="441837.425360" HC_abs="96.167612" PMx_abs="9.408839" NOx_abs="192.575984" fuel_abs="189.934717" electricity_abs="0"/>
    </tripinfo>
    <tripinfo id="randUni31145:1" depart="57814.00" departLane="10425609#0_1" departPos="5.10" departSpeed="0.00" departDelay="0.30" arrival="57860.00" arrivalLane="201956810_1" arrivalPos="71.65" arrivalSpeed="9.78" duration="46.00" routeLength="255.78" waitingTime="10.00" waitingCount="1" stopTime="0.00" timeLoss="19.62" rerouteNo="1" devices="tripinfo_randUni31145:1 routing_randUni31145:1 emissions_randUni31145:1" vType="random_016" speedFactor="0.75" vaporized="">
        <emissions CO_abs="3046.756829" CO2_abs="111297.980873" HC_abs="16.472380" PMx_abs="2.127031" NOx_abs="47.106398" fuel_abs="47.843079" electricity_abs="0"/>
    </tripinfo>
    <tripinfo id="randUni2407:1" depart="57820.00" departLane="10425609#0_1" departPos="5.10" departSpeed="0.00" departDelay="0.80" arrival="57862.00" arrivalLane="201956810_1" arrivalPos="71.65" arrivalSpeed="13.08" duration="42.00" routeLength="255.78" waitingTime="6.00" waitingCount="1" stopTime="0.00" timeLoss="22.66" rerouteNo="1" devices="tripinfo_randUni2407:1 routing_randUni2407:1 emissions_randUni2407:1" vType="random_016" speedFactor="1.04" vaporized="">
        <emissions CO_abs="2593.696596" CO2_abs="117185.483839" HC_abs="14.568349" PMx_abs="2.254664" NOx_abs="49.709927" fuel_abs="50.373359" electricity_abs="0"/>
    </tripinfo>
    <tripinfo id="carIn86816:1" depart="57617.00" departLane="128361102#0_1" departPos="5.10" departSpeed="0.00" departDelay="0.80" arrival="57865.00" arrivalLane="201956811#0_1" arrivalPos="40.40" arrivalSpeed="13.60" duration="248.00" routeLength="2067.33" waitingTime="74.00" waitingCount="2" stopTime="0.00" timeLoss="103.03" rerouteNo="1" devices="tripinfo_carIn86816:1 routing_carIn86816:1 emissions_carIn86816:1" vType="default_016" speedFactor="1.04" vaporized="">
        <emissions CO_abs="17374.788005" CO2_abs="647339.715185" HC_abs="94.194294" PMx_abs="12.549118" NOx_abs="270.434206" fuel_abs="278.268422" electricity_abs="0"/>
    </tripinfo>
    <tripinfo id="h11737c1:1" depart="57665.00" departLane="272042143_1" departPos="5.10" departSpeed="0.00" departDelay="1.50" arrival="57865.00" arrivalLane="-315358254#1_1" arrivalPos="137.16" arrivalSpeed="8.34" duration="200.00" routeLength="1596.88" waitingTime="11.00" waitingCount="1" stopTime="0.00" timeLoss="29.24" rerouteNo="1" devices="tripinfo_h11737c1:1 routing_h11737c1:1 emissions_h11737c1:1" vType="default_016" speedFactor="0.68" vaporized="">
        <emissions CO_abs="7351.988858" CO2_abs="355576.109878" HC_abs="41.593661" PMx_abs="5.420675" NOx_abs="141.246919" fuel_abs="152.849739" electricity_abs="0"/>
    </tripinfo>
    <tripinfo id="carIn102915:1" depart="57643.00" departLane="128361102#0_1" departPos="5.10" departSpeed="0.00" departDelay="0.40" arrival="57867.00" arrivalLane="201956811#0_1" arrivalPos="40.40" arrivalSpeed="14.72" duration="224.00" routeLength="2067.33" waitingTime="50.00" waitingCount="2" stopTime="0.00" timeLoss="92.13" rerouteNo="1" devices="tripinfo_carIn102915:1 routing_carIn102915:1 emissions_carIn102915:1" vType="default_016" speedFactor="1.15" vaporized="">
        <emissions CO_abs="14571.776426" CO2_abs="651962.135078" HC_abs="81.556224" PMx_abs="12.471813" NOx_abs="270.894776" fuel_abs="280.253219" electricity_abs="0"/>
    </tripinfo>
    <tripinfo id="50R_frequency3.17" depart="57674.00" departLane="-18809673#6_1" departPos="12.10" departSpeed="0.00" departDelay="0.70" arrival="57870.00" arrivalLane="201956811#0_1" arrivalPos="40.40" arrivalSpeed="12.30" duration="196.00" routeLength="1954.47" waitingTime="24.00" waitingCount="1" stopTime="0.00" timeLoss="51.23" rerouteNo="1" devices="tripinfo_50R_frequency3.17 routing_50R_frequency3.17 emissions_50R_frequency3.17" vType="bus" speedFactor="1.00" vaporized="">
        <emissions CO_abs="3909.820317" CO2_abs="2317874.283242" HC_abs="834.015695" PMx_abs="416.268961" NOx_abs="18340.341392" fuel_abs="988.505321" electricity_abs="0"/>
    </tripinfo>
    <tripinfo id="randUni33724:1" depart="57646.00" departLane="128361102#0_1" departPos="5.10" departSpeed="0.00" departDelay="1.20" arrival="57874.00" arrivalLane="201956811#0_1" arrivalPos="40.40" arrivalSpeed="12.64" duration="228.00" routeLength="2067.33" waitingTime="48.00" waitingCount="2" stopTime="0.00" timeLoss="74.66" rerouteNo="1" devices="tripinfo_randUni33724:1 routing_randUni33724:1 emissions_randUni33724:1" vType="random_016" speedFactor="0.99" vaporized="">
        <emissions CO_abs="12400.395077" CO2_abs="536280.586499" HC_abs="68.992624" PMx_abs="9.752492" NOx_abs="219.881147" fuel_abs="230.527331" electricity_abs="0"/>
    </tripinfo>
    <tripinfo id="carIn12365:1" depart="57713.00" departLane="315358244_1" departPos="5.10" departSpeed="0.00" departDelay="0.50" arrival="57879.00" arrivalLane="447569997#1_1" arrivalPos="180.93" arrivalSpeed="8.00" duration="166.00" routeLength="718.04" waitingTime="85.00" waitingCount="3" stopTime="0.00" timeLoss="107.79" rerouteNo="1" devices="tripinfo_carIn12365:1 routing_carIn12365:1 emissions_carIn12365:1" vType="default_016" speedFactor="1.05" vaporized="">
        <emissions CO_abs="16012.586726" CO2_abs="385349.077805" HC_abs="81.914893" PMx_abs="8.287180" NOx_abs="167.689641" fuel_abs="165.651390" electricity_abs="0"/>
    </tripinfo>
    <tripinfo id="carIn8642:1" depart="57774.00" departLane="-447569998#1_1" departPos="5.10" departSpeed="0.00" departDelay="0.90" arrival="57881.00" arrivalLane="-315358244_2" arrivalPos="33.95" arrivalSpeed="13.83" duration="107.00" routeLength="706.49" waitingTime="32.00" waitingCount="2" stopTime="0.00" timeLoss="50.42" rerouteNo="1" devices="tripinfo_carIn8642:1 routing_carIn8642:1 emissions_carIn8642:1" vType="default_016" speedFactor="1.07" vaporized="">
        <emissions CO_abs="7617.533622" CO2_abs="259168.854295" HC_abs="40.733971" PMx_abs="5.091215" NOx_abs="109.349244" fuel_abs="111.407915" electricity_abs="0"/>
    </tripinfo>
    <tripinfo id="carIn24709:1" depart="57753.00" departLane="266565295#5_1" departPos="5.10" departSpeed="0.00" departDelay="2.50" arrival="57885.00" arrivalLane="-24634506#2_1" arrivalPos="71.32" arrivalSpeed="12.99" duration="132.00" routeLength="1450.12" waitingTime="0.00" waitingCount="0" stopTime="0.00" timeLoss="12.75" rerouteNo="1" devices="tripinfo_carIn24709:1 routing_carIn24709:1 emissions_carIn24709:1" vType="default_016" speedFactor="0.99" vaporized="">
        <emissions CO_abs="3771.152355" CO2_abs="291669.806345" HC_abs="23.937857" PMx_abs="4.491835" NOx_abs="114.112071" fuel_abs="125.376863" electricity_abs="0"/>
    </tripinfo>
    <tripinfo id="carIn129809:1" depart="57729.00" departLane="-447569998#1_1" departPos="5.10" departSpeed="0.00" departDelay="1.00" arrival="57886.00" arrivalLane="-315358244_1" arrivalPos="33.95" arrivalSpeed="10.41" duration="157.00" routeLength="706.49" waitingTime="68.00" waitingCount="2" stopTime="0.00" timeLoss="80.66" rerouteNo="1" devices="tripinfo_carIn129809:1 routing_carIn129809:1 emissions_carIn129809:1" vType="default_015" speedFactor="0.79" vaporized="">
        <emissions CO_abs="12788.208039" CO2_abs="316968.170903" HC_abs="65.585862" PMx_abs="6.401982" NOx_abs="135.558234" fuel_abs="136.256523" electricity_abs="0"/>
    </tripinfo>
    <tripinfo id="h13377c2:3" depart="57804.00" departLane="315358244_1" departPos="5.10" departSpeed="0.00" departDelay="0.60" arrival="57891.00" arrivalLane="447569997#1_1" arrivalPos="180.93" arrivalSpeed="7.33" duration="87.00" routeLength="726.74" waitingTime="1.00" waitingCount="1" stopTime="0.00" timeLoss="15.19" rerouteNo="1" devices="tripinfo_h13377c2:3 routing_h13377c2:3 emissions_h13377c2:3" vType="default_016" speedFactor="0.94" vaporized="">
        <emissions CO_abs="3380.931242" CO2_abs="173683.221169" HC_abs="19.408411" PMx_abs="2.843260" NOx_abs="69.945153" fuel_abs="74.659899" electricity_abs="0"/>
    </tripinfo>
    <tripinfo id="carIn70533:1" depart="57812.00" departLane="-447569998#1_1" departPos="5.10" departSpeed="0.00" departDelay="0.10" arrival="57892.00" arrivalLane="-315358244_1" arrivalPos="33.95" arrivalSpeed="11.46" duration="80.00" routeLength="706.49" waitingTime="0.00" waitingCount="0" stopTime="0.00" timeLoss="8.86" rerouteNo="1" devices="tripinfo_carIn70533:1 routing_carIn70533:1 emissions_carIn70533:1" vType="default_016" speedFactor="0.85" vaporized="">
        <emissions CO_abs="2745.035686" CO2_abs="156337.991974" HC_abs="16.107653" PMx_abs="2.486242" NOx_abs="62.450291" fuel_abs="67.203696" electricity_abs="0"/>
    </tripinfo>
    <tripinfo id="carIn50326:1" depart="57651.00" departLane="128361102#0_1" departPos="5.10" departSpeed="0.00" departDelay="0.30" arrival="57894.00" arrivalLane="18809673#0_1" arrivalPos="473.56" arrivalSpeed="11.82" duration="243.00" routeLength="1591.07" waitingTime="79.00" waitingCount="3" stopTime="0.00" timeLoss="105.91" rerouteNo="1" devices="tripinfo_carIn50326:1 routing_carIn50326:1 emissions_carIn50326:1" vType="default_016" speedFactor="0.94" vaporized="">
        <emissions CO_abs="16549.097330" CO2_abs="536502.584937" HC_abs="87.857492" PMx_abs="10.216125" NOx_abs="224.372221" fuel_abs="230.625460" electricity_abs="0"/>