<?xml version="1.0" encoding="UTF-8"?>

<!-- generated on 2021-10-26 20:38:42 by Eclipse SUMO sumo Version 1.10.0
<configuration xmlns:xsi="http://www.w3.org/2001/XMLSchema-instance" xsi:noNamespaceSchemaLocation="http://sumo.dlr.de/xsd/sumoConfiguration.xsd">

    <input>
        <net-file value="/Users/behradkoohy/sumo-scratchpad/RESCO/environments/ingolstadt21/ingolstadt21.net.xml"/>
        <route-files value="/Users/behradkoohy/sumo-scratchpad/RESCO/environments/ingolstadt21/ingolstadt21.rou.xml"/>
    </input>

    <output>
        <tripinfo-output value="/Users/behradkoohy/sumo-scratchpad/RESCO/logs/MPLight-tr0-ingolstadt21-21-mplight_full-pressure/tripinfo_5.xml"/>
        <tripinfo-output.write-unfinished value="true"/>
    </output>

    <time>
        <begin value="57600"/>
        <end value="61200"/>
    </time>

    <processing>
        <time-to-teleport value="-1"/>
    </processing>

    <report>
        <no-warnings value="true"/>
        <no-step-log value="true"/>
    </report>

    <emissions>
        <device.emissions.probability value="1"/>
    </emissions>

    <traci_server>
        <remote-port value="64406"/>
    </traci_server>

    <random_number>
        <random value="true"/>
    </random_number>

</configuration>
-->

<tripinfos xmlns:xsi="http://www.w3.org/2001/XMLSchema-instance" xsi:noNamespaceSchemaLocation="http://sumo.dlr.de/xsd/tripinfo_file.xsd">
    <tripinfo id="h15454c2:3" depart="57612.00" departLane="24608844_1" departPos="5.10" departSpeed="0.00" departDelay="0.50" arrival="57654.00" arrivalLane="32978638#0_1" arrivalPos="49.29" arrivalSpeed="12.82" duration="42.00" routeLength="354.79" waitingTime="0.00" waitingCount="0" stopTime="0.00" timeLoss="6.08" rerouteNo="1" devices="tripinfo_h15454c2:3 routing_h15454c2:3 emissions_h15454c2:3" vType="default_016" speedFactor="0.96" vaporized="">
        <emissions CO_abs="2073.564241" CO2_abs="113442.715268" HC_abs="12.064958" PMx_abs="1.851239" NOx_abs="45.737165" fuel_abs="48.764650" electricity_abs="0"/>
    </tripinfo>
    <tripinfo id="carIn60260:1" depart="57606.00" departLane="315358254#0_1" departPos="5.10" departSpeed="0.00" departDelay="0.90" arrival="57658.00" arrivalLane="399835085#1_1" arrivalPos="212.23" arrivalSpeed="7.84" duration="52.00" routeLength="430.98" waitingTime="0.00" waitingCount="0" stopTime="0.00" timeLoss="7.22" rerouteNo="1" devices="tripinfo_carIn60260:1 routing_carIn60260:1 emissions_carIn60260:1" vType="default_016" speedFactor="1.04" vaporized="">
        <emissions CO_abs="2175.383254" CO2_abs="113918.756128" HC_abs="12.506031" PMx_abs="1.848855" NOx_abs="45.970003" fuel_abs="48.969361" electricity_abs="0"/>
    </tripinfo>
    <tripinfo id="carIn53971:1" depart="57640.00" departLane="272042143_1" departPos="5.10" departSpeed="0.00" departDelay="0.80" arrival="57703.00" arrivalLane="24634414#1_1" arrivalPos="162.19" arrivalSpeed="5.72" duration="63.00" routeLength="493.04" waitingTime="0.00" waitingCount="0" stopTime="0.00" timeLoss="7.91" rerouteNo="1" devices="tripinfo_carIn53971:1 routing_carIn53971:1 emissions_carIn53971:1" vType="default_016" speedFactor="0.83" vaporized="">
        <emissions CO_abs="2463.940363" CO2_abs="127011.810594" HC_abs="14.133306" PMx_abs="1.983121" NOx_abs="50.717769" fuel_abs="54.597731" electricity_abs="0"/>
    </tripinfo>
    <tripinfo id="h7800c1:5" depart="57696.00" departLane="-447569998#1_1" departPos="5.10" departSpeed="0.00" departDelay="0.00" arrival="57719.00" arrivalLane="-447569998#1_2" arrivalPos="180.76" arrivalSpeed="7.91" duration="23.00" routeLength="175.66" waitingTime="0.00" waitingCount="0" stopTime="0.00" timeLoss="2.80" rerouteNo="1" devices="tripinfo_h7800c1:5 routing_h7800c1:5 emissions_h7800c1:5" vType="default_016" speedFactor="1.05" vaporized="">
        <emissions CO_abs="996.189692" CO2_abs="45300.060842" HC_abs="5.582015" PMx_abs="0.768781" NOx_abs="18.593852" fuel_abs="19.472834" electricity_abs="0"/>
    </tripinfo>
    <tripinfo id="h7181c1:1" depart="57660.00" departLane="315358254#0_1" departPos="5.10" departSpeed="0.00" departDelay="0.10" arrival="57731.00" arrivalLane="306240162#0_0" arrivalPos="220.43" arrivalSpeed="15.52" duration="71.00" routeLength="932.35" waitingTime="5.00" waitingCount="1" stopTime="0.00" timeLoss="16.68" rerouteNo="1" devices="tripinfo_h7181c1:1 routing_h7181c1:1 emissions_h7181c1:1" vType="default_016" speedFactor="0.95" vaporized="">
        <emissions CO_abs="3166.336612" CO2_abs="237244.181101" HC_abs="20.043748" PMx_abs="4.386863" NOx_abs="96.070371" fuel_abs="101.980635" electricity_abs="0"/>
    </tripinfo>
    <tripinfo id="h3688c1:1" depart="57625.00" departLane="201201950#1_1" departPos="5.10" departSpeed="0.00" departDelay="0.00" arrival="57733.00" arrivalLane="32978638#0_1" arrivalPos="49.29" arrivalSpeed="12.67" duration="108.00" routeLength="1089.75" waitingTime="8.00" waitingCount="1" stopTime="0.00" timeLoss="21.55" rerouteNo="1" devices="tripinfo_h3688c1:1 routing_h3688c1:1 emissions_h3688c1:1" vType="default_016" speedFactor="0.92" vaporized="">
        <emissions CO_abs="3785.175352" CO2_abs="258567.390234" HC_abs="23.244940" PMx_abs="4.136245" NOx_abs="102.471737" fuel_abs="111.147604" electricity_abs="0"/>
    </tripinfo>
    <tripinfo id="h3568c1:3" depart="57656.00" departLane="266565295#5_1" departPos="5.10" departSpeed="0.00" departDelay="0.80" arrival="57735.00" arrivalLane="-24634415_1" arrivalPos="62.03" arrivalSpeed="12.29" duration="79.00" routeLength="807.40" waitingTime="0.00" waitingCount="0" stopTime="0.00" timeLoss="11.55" rerouteNo="1" devices="tripinfo_h3568c1:3 routing_h3568c1:3 emissions_h3568c1:3" vType="default_016" speedFactor="0.96" vaporized="">
        <emissions CO_abs="3108.780952" CO2_abs="206824.228012" HC_abs="18.986669" PMx_abs="3.524159" NOx_abs="83.653268" fuel_abs="88.905031" electricity_abs="0"/>
    </tripinfo>
    <tripinfo id="S5R_frequency1.2" depart="57615.00" departLane="315358250#0_1" departPos="12.10" departSpeed="0.00" departDelay="3.40" arrival="57737.00" arrivalLane="386687235_1" arrivalPos="80.84" arrivalSpeed="13.50" duration="122.00" routeLength="1115.62" waitingTime="14.00" waitingCount="1" stopTime="0.00" timeLoss="40.25" rerouteNo="1" devices="tripinfo_S5R_frequency1.2 routing_S5R_frequency1.2 emissions_S5R_frequency1.2" vType="bus" speedFactor="1.00" vaporized="">
        <emissions CO_abs="2366.484724" CO2_abs="1367546.151503" HC_abs="508.293951" PMx_abs="251.242153" NOx_abs="10920.453877" fuel_abs="583.207229" electricity_abs="0"/>
    </tripinfo>
    <tripinfo id="h317c2:1" depart="57707.00" departLane="-32978638#0_1" departPos="5.10" departSpeed="0.00" departDelay="0.10" arrival="57738.00" arrivalLane="-266565295#5_1" arrivalPos="172.76" arrivalSpeed="14.65" duration="31.00" routeLength="370.53" waitingTime="0.00" waitingCount="0" stopTime="0.00" timeLoss="6.43" rerouteNo="1" devices="tripinfo_h317c2:1 routing_h317c2:1 emissions_h317c2:1" vType="default_016" speedFactor="1.15" vaporized="">
        <emissions CO_abs="1718.260972" CO2_abs="122107.991726" HC_abs="10.717138" PMx_abs="2.207568" NOx_abs="49.791088" fuel_abs="52.488837" electricity_abs="0"/>
    </tripinfo>
    <tripinfo id="h4538c1:1" depart="57701.00" departLane="-10427692#1_1" departPos="5.10" departSpeed="0.00" departDelay="0.00" arrival="57741.00" arrivalLane="-128361102#1_1" arrivalPos="274.68" arrivalSpeed="12.92" duration="40.00" routeLength="440.74" waitingTime="0.00" waitingCount="0" stopTime="0.00" timeLoss="6.71" rerouteNo="1" devices="tripinfo_h4538c1:1 routing_h4538c1:1 emissions_h4538c1:1" vType="default_016" speedFactor="0.96" vaporized="">
        <emissions CO_abs="1663.984516" CO2_abs="111768.678760" HC_abs="10.193786" PMx_abs="1.895734" NOx_abs="45.055899" fuel_abs="48.044661" electricity_abs="0"/>
    </tripinfo>
    <tripinfo id="carIn30817:1" depart="57681.00" departLane="315358244_1" departPos="5.10" departSpeed="0.00" departDelay="0.20" arrival="57749.00" arrivalLane="447569997#1_1" arrivalPos="180.93" arrivalSpeed="8.39" duration="68.00" routeLength="718.04" waitingTime="0.00" waitingCount="0" stopTime="0.00" timeLoss="7.55" rerouteNo="1" devices="tripinfo_carIn30817:1 routing_carIn30817:1 emissions_carIn30817:1" vType="default_016" speedFactor="1.03" vaporized="">
        <emissions CO_abs="2338.943282" CO2_abs="155971.281102" HC_abs="14.285052" PMx_abs="2.559304" NOx_abs="62.313510" fuel_abs="67.045651" electricity_abs="0"/>
    </tripinfo>
    <tripinfo id="h3326c1:2" depart="57656.00" departLane="22716069#0_1" departPos="5.10" departSpeed="0.00" departDelay="0.00" arrival="57760.00" arrivalLane="24634517#13_1" arrivalPos="111.62" arrivalSpeed="14.75" duration="104.00" routeLength="1312.81" waitingTime="0.00" waitingCount="0" stopTime="0.00" timeLoss="15.33" rerouteNo="1" devices="tripinfo_h3326c1:2 routing_h3326c1:2 emissions_h3326c1:2" vType="default_016" speedFactor="1.11" vaporized="">
        <emissions CO_abs="4236.929594" CO2_abs="333808.961216" HC_abs="27.062587" PMx_abs="5.877737" NOx_abs="134.580678" fuel_abs="143.489617" electricity_abs="0"/>
    </tripinfo>
    <tripinfo id="h5979c1:5" depart="57669.00" departLane="399835085#1_1" departPos="5.10" departSpeed="0.00" departDelay="0.00" arrival="57763.00" arrivalLane="-315358254#1_1" arrivalPos="137.16" arrivalSpeed="11.40" duration="94.00" routeLength="659.33" waitingTime="0.00" waitingCount="0" stopTime="0.00" timeLoss="12.78" rerouteNo="1" devices="tripinfo_h5979c1:5 routing_h5979c1:5 emissions_h5979c1:5" vType="default_016" speedFactor="0.90" vaporized="">
        <emissions CO_abs="3786.735590" CO2_abs="166700.013404" HC_abs="21.047660" PMx_abs="2.617520" NOx_abs="67.018400" fuel_abs="71.658650" electricity_abs="0"/>
    </tripinfo>
    <tripinfo id="h9563c2:5" depart="57631.00" departLane="315358244_1" departPos="5.10" departSpeed="0.00" departDelay="0.70" arrival="57766.00" arrivalLane="386687235_1" arrivalPos="80.84" arrivalSpeed="14.43" duration="135.00" routeLength="1186.14" waitingTime="36.00" waitingCount="2" stopTime="0.00" timeLoss="56.94" rerouteNo="1" devices="tripinfo_h9563c2:5 routing_h9563c2:5 emissions_h9563c2:5" vType="default_016" speedFactor="1.10" vaporized="">
        <emissions CO_abs="8717.357515" CO2_abs="355002.003105" HC_abs="48.015528" PMx_abs="6.822434" NOx_abs="147.715192" fuel_abs="152.602216" electricity_abs="0"/>
    </tripinfo>
    <tripinfo id="carIn27009:1" depart="57673.00" departLane="-447569998#1_1" departPos="5.10" departSpeed="0.00" departDelay="0.50" arrival="57767.00" arrivalLane="-26677539_1" arrivalPos="152.75" arrivalSpeed="8.35" duration="94.00" routeLength="699.63" waitingTime="0.00" waitingCount="0" stopTime="0.00" timeLoss="11.41" rerouteNo="1" devices="tripinfo_carIn27009:1 routing_carIn27009:1 emissions_carIn27009:1" vType="default_015" speedFactor="1.02" vaporized="">
        <emissions CO_abs="3530.793903" CO2_abs="171664.973485" HC_abs="20.036876" PMx_abs="2.856348" NOx_abs="70.119520" fuel_abs="73.792349" electricity_abs="0"/>
    </tripinfo>
    <tripinfo id="h12244c1:3" depart="57612.00" departLane="315358244_1" departPos="5.10" departSpeed="0.00" departDelay="0.40" arrival="57769.00" arrivalLane="386687235_1" arrivalPos="80.84" arrivalSpeed="13.53" duration="157.00" routeLength="1186.14" waitingTime="53.00" waitingCount="2" stopTime="0.00" timeLoss="74.19" rerouteNo="1" devices="tripinfo_h12244c1:3 routing_h12244c1:3 emissions_h12244c1:3" vType="default_016" speedFactor="1.05" vaporized="">
        <emissions CO_abs="11359.457180" CO2_abs="404126.486914" HC_abs="61.167286" PMx_abs="7.768867" NOx_abs="168.406252" fuel_abs="173.720216" electricity_abs="0"/>
    </tripinfo>
    <tripinfo id="h330c1:1" depart="57736.00" departLane="-32978638#0_1" departPos="5.10" departSpeed="0.00" departDelay="0.20" arrival="57774.00" arrivalLane="-266565295#5_1" arrivalPos="172.76" arrivalSpeed="13.91" duration="38.00" routeLength="370.53" waitingTime="1.00" waitingCount="1" stopTime="0.00" timeLoss="12.87" rerouteNo="1" devices="tripinfo_h330c1:1 routing_h330c1:1 emissions_h330c1:1" vType="default_016" speedFactor="1.08" vaporized="">
        <emissions CO_abs="2130.626853" CO2_abs="121982.449864" HC_abs="12.539529" PMx_abs="2.272359" NOx_abs="50.591526" fuel_abs="52.435072" electricity_abs="0"/>
    </tripinfo>
    <tripinfo id="carIn80064:1" depart="57603.00" departLane="128361109#1_1" departPos="5.10" departSpeed="0.00" departDelay="0.40" arrival="57778.00" arrivalLane="-315358254#1_1" arrivalPos="137.16" arrivalSpeed="13.48" duration="175.00" routeLength="1587.97" waitingTime="49.00" waitingCount="3" stopTime="0.00" timeLoss="83.20" rerouteNo="1" devices="tripinfo_carIn80064:1 routing_carIn80064:1 emissions_carIn80064:1" vType="default_016" speedFactor="0.97" vaporized="">
        <emissions CO_abs="12781.512027" CO2_abs="582147.304141" HC_abs="72.036592" PMx_abs="11.434490" NOx_abs="242.011414" fuel_abs="250.242100" electricity_abs="0"/>
    </tripinfo>
    <tripinfo id="carIn22761:1" depart="57616.00" departLane="-306240162#1_0" departPos="5.10" departSpeed="0.00" departDelay="2.10" arrival="57790.00" arrivalLane="399835085#1_1" arrivalPos="212.23" arrivalSpeed="8.71" duration="174.00" routeLength="1093.26" waitingTime="74.00" waitingCount="2" stopTime="0.00" timeLoss="102.75" rerouteNo="1" devices="tripinfo_carIn22761:1 routing_carIn22761:1 emissions_carIn22761:1" vType="default_016" speedFactor="1.10" vaporized="">
        <emissions CO_abs="16959.358830" CO2_abs="541725.849683" HC_abs="90.070972" PMx_abs="11.584001" NOx_abs="233.546946" fuel_abs="232.869171" electricity_abs="0"/>
    </tripinfo>
    <tripinfo id="h3154c1:1" depart="57658.00" departLane="24634507_1" departPos="5.10" departSpeed="0.00" departDelay="0.00" arrival="57802.00" arrivalLane="-266565295#5_1" arrivalPos="172.76" arrivalSpeed="12.27" duration="144.00" routeLength="1206.22" waitingTime="29.00" waitingCount="2" stopTime="0.00" timeLoss="51.35" rerouteNo="1" devices="tripinfo_h3154c1:1 routing_h3154c1:1 emissions_h3154c1:1" vType="default_016" speedFactor="0.96" vaporized="">
        <emissions CO_abs="8398.742325" CO2_abs="375146.520439" HC_abs="47.016903" PMx_abs="6.815684" NOx_abs="154.384248" fuel_abs="161.261426" electricity_abs="0"/>
    </tripinfo>
    <tripinfo id="h16072c2:3" depart="57663.00" departLane="315358254#0_1" departPos="5.10" departSpeed="0.00" departDelay="2.50" arrival="57817.00" arrivalLane="386687235_1" arrivalPos="80.84" arrivalSpeed="12.51" duration="154.00" routeLength="1611.92" waitingTime="8.00" waitingCount="2" stopTime="0.00" timeLoss="28.85" rerouteNo="1" devices="tripinfo_h16072c2:3 routing_h16072c2:3 emissions_h16072c2:3" vType="default_016" speedFactor="0.94" vaporized="">
        <emissions CO_abs="4364.192483" CO2_abs="320759.741495" HC_abs="27.310141" PMx_abs="4.966295" NOx_abs="125.791685" fuel_abs="137.881562" electricity_abs="0"/>
    </tripinfo>
    <tripinfo id="carIn121703:1" depart="57647.00" departLane="386687232#0_1" departPos="5.10" departSpeed="0.00" departDelay="0.30" arrival="57823.00" arrivalLane="-315358244_1" arrivalPos="33.95" arrivalSpeed="14.23" duration="176.00" routeLength="1157.39" waitingTime="71.00" waitingCount="3" stopTime="0.00" timeLoss="95.90" rerouteNo="1" devices="tripinfo_carIn121703:1 routing_carIn121703:1 emissions_carIn121703:1" vType="default_016" speedFactor="1.06" vaporized="">
        <emissions CO_abs="13526.339245" CO2_abs="442451.773481" HC_abs="71.935270" PMx_abs="8.886662" NOx_abs="187.300164" fuel_abs="190.195249" electricity_abs="0"/>
    </tripinfo>
    <tripinfo id="carIn28951:1" depart="57606.00" departLane="10425609#0_1" departPos="5.10" departSpeed="0.00" departDelay="0.20" arrival="57826.00" arrivalLane="-128361102#1_1" arrivalPos="274.68" arrivalSpeed="14.56" duration="220.00" routeLength="2113.04" waitingTime="48.00" waitingCount="1" stopTime="0.00" timeLoss="72.11" rerouteNo="1" devices="tripinfo_carIn28951:1 routing_carIn28951:1 emissions_carIn28951:1" vType="default_016" speedFactor="1.05" vaporized="">
        <emissions CO_abs="12362.454745" CO2_abs="580999.547628" HC_abs="69.656706" PMx_abs="10.290373" NOx_abs="235.103019" fuel_abs="249.749974" electricity_abs="0"/>
    </tripinfo>
    <tripinfo id="h20540c1:1" depart="57634.00" departLane="10425609#0_1" departPos="5.10" departSpeed="0.00" departDelay="0.50" arrival="57827.00" arrivalLane="-128361102#1_1" arrivalPos="274.68" arrivalSpeed="13.61" duration="193.00" routeLength="2113.04" waitingTime="19.00" waitingCount="1" stopTime="0.00" timeLoss="48.32" rerouteNo="1" devices="tripinfo_h20540c1:1 routing_h20540c1:1 emissions_h20540c1:1" vType="default_016" speedFactor="1.07" vaporized="">
        <emissions CO_abs="8883.502215" CO2_abs="525417.730297" HC_abs="52.740980" PMx_abs="9.352603" NOx_abs="213.092825" fuel_abs="225.855399" electricity_abs="0"/>
    </tripinfo>
    <tripinfo id="carIn3969:1" depart="57629.00" departLane="124812856#0_1" departPos="5.10" departSpeed="0.00" departDelay="5.30" arrival="57829.00" arrivalLane="-128361102#1_1" arrivalPos="274.68" arrivalSpeed="16.62" duration="200.00" routeLength="2232.46" waitingTime="6.00" waitingCount="3" stopTime="0.00" timeLoss="68.34" rerouteNo="1" devices="tripinfo_carIn3969:1 routing_carIn3969:1 emissions_carIn3969:1" vType="default_016" speedFactor="1.24" vaporized="">
        <emissions CO_abs="9403.008243" CO2_abs="619799.354266" HC_abs="57.426447" PMx_abs="11.462646" NOx_abs="254.412097" fuel_abs="266.424558" electricity_abs="0"/>
    </tripinfo>
    <tripinfo id="50R_frequency3.17" depart="57674.00" departLane="-18809673#6_1" departPos="12.10" departSpeed="0.00" departDelay="0.70" arrival="57833.00" arrivalLane="201956811#0_1" arrivalPos="40.40" arrivalSpeed="13.64" duration="159.00" routeLength="1954.47" waitingTime="0.00" waitingCount="0" stopTime="0.00" timeLoss="14.66" rerouteNo="1" devices="tripinfo_50R_frequency3.17 routing_50R_frequency3.17 emissions_50R_frequency3.17" vType="bus" speedFactor="1.00" vaporized="">
        <emissions CO_abs="3017.810022" CO2_abs="1930386.631152" HC_abs="646.280905" PMx_abs="325.201366" NOx_abs="14855.879218" fuel_abs="823.314768" electricity_abs="0"/>
    </tripinfo>
    <tripinfo id="carIn12365:1" depart="57713.00" departLane="315358244_1" departPos="5.10" departSpeed="0.00" departDelay="0.50" arrival="57835.00" arrivalLane="447569997#1_1" arrivalPos="180.93" arrivalSpeed="6.52" duration="122.00" routeLength="718.04" waitingTime="40.00" waitingCount="1" stopTime="0.00" timeLoss="52.81" rerouteNo="1" devices="tripinfo_carIn12365:1 routing_carIn12365:1 emissions_carIn12365:1" vType="default_016" speedFactor="0.89" vaporized="">
        <emissions CO_abs="9069.395340" CO2_abs="272861.106468" HC_abs="47.644015" PMx_abs="5.275620" NOx_abs="115.086489" fuel_abs="117.294732" electricity_abs="0"/>
    </tripinfo>
    <tripinfo id="h2831c1:1" depart="57600.00" departLane="201089423#0_1" departPos="5.10" departSpeed="0.00" departDelay="0.00" arrival="57843.00" arrivalLane="-315358244_1" arrivalPos="33.95" arrivalSpeed="13.93" duration="243.00" routeLength="2672.18" waitingTime="21.00" waitingCount="3" stopTime="0.00" timeLoss="53.91" rerouteNo="1" devices="tripinfo_h2831c1:1 routing_h2831c1:1 emissions_h2831c1:1" vType="default_016" speedFactor="1.03" vaporized="">
        <emissions CO_abs="9202.581370" CO2_abs="625144.488714" HC_abs="56.317767" PMx_abs="10.539571" NOx_abs="249.476339" fuel_abs="268.723546" electricity_abs="0"/>
    </tripinfo>
    <tripinfo id="carIn12858:1" depart="57661.00" departLane="128361109#1_1" departPos="5.10" departSpeed="0.00" departDelay="0.90" arrival="57844.00" arrivalLane="399835085#1_1" arrivalPos="212.23" arrivalSpeed="6.62" duration="183.00" routeLength="1738.12" waitingTime="12.00" waitingCount="1" stopTime="0.00" timeLoss="40.84" rerouteNo="1" devices="tripinfo_carIn12858:1 routing_carIn12858:1 emissions_carIn12858:1" vType="default_016" speedFactor="0.81" vaporized="">
        <emissions CO_abs="8540.037082" CO2_abs="476455.511390" HC_abs="49.987929" PMx_abs="8.471755" NOx_abs="193.966488" fuel_abs="204.808905" electricity_abs="0"/>
    </tripinfo>
    <tripinfo id="randUni15030:1" depart="57735.00" departLane="386687232#0_1" departPos="5.10" departSpeed="0.00" departDelay="0.10" arrival="57846.00" arrivalLane="26677539_1" arrivalPos="151.98" arrivalSpeed="5.95" duration="111.00" routeLength="919.89" waitingTime="0.00" waitingCount="0" stopTime="0.00" timeLoss="12.94" rerouteNo="1" devices="tripinfo_randUni15030:1 routing_randUni15030:1 emissions_randUni15030:1" vType="random_016" speedFactor="0.85" vaporized="">
        <emissions CO_abs="3918.941985" CO2_abs="203873.421109" HC_abs="22.541101" PMx_abs="3.274914" NOx_abs="81.977018" fuel_abs="87.637557" electricity_abs="0"/>
    </tripinfo>
    <tripinfo id="h645c1:1" depart="57622.00" departLane="266565295#5_1" departPos="5.10" departSpeed="0.00" departDelay="0.40" arrival="57847.00" arrivalLane="-315358244_1" arrivalPos="33.95" arrivalSpeed="12.28" duration="225.00" routeLength="1910.83" waitingTime="54.00" waitingCount="1" stopTime="0.00" timeLoss="74.18" rerouteNo="1" devices="tripinfo_h645c1:1 routing_h645c1:1 emissions_h645c1:1" vType="default_016" speedFactor="0.92" vaporized="">
        <emissions CO_abs="12094.726151" CO2_abs="489584.507850" HC_abs="66.420857" PMx_abs="8.423777" NOx_abs="197.550015" fuel_abs="210.455811" electricity_abs="0"/>
    </tripinfo>
    <tripinfo id="h11737c1:1" depart="57665.00" departLane="272042143_1" departPos="5.10" departSpeed="0.00" departDelay="1.50" arrival="57847.00" arrivalLane="-315358254#1_1" arrivalPos="137.16" arrivalSpeed="13.66" duration="182.00" routeLength="1596.88" waitingTime="46.00" waitingCount="2" stopTime="0.00" timeLoss="66.74" rerouteNo="1" devices="tripinfo_h11737c1:1 routing_h11737c1:1 emissions_h11737c1:1" vType="default_016" speedFactor="1.01" vaporized="">
        <emissions CO_abs="10635.346083" CO2_abs="454540.081362" HC_abs="59.035822" PMx_abs="8.299347" NOx_abs="186.268791" fuel_abs="195.390175" electricity_abs="0"/>
    </tripinfo>
    <tripinfo id="carIn118591:1" depart="57689.00" departLane="315358244_1" departPos="5.10" departSpeed="0.00" departDelay="0.20" arrival="57847.00" arrivalLane="386687235_1" arrivalPos="80.84" arrivalSpeed="14.39" duration="158.00" routeLength="1186.14" waitingTime="62.00" waitingCount="1" stopTime="0.00" timeLoss="76.11" rerouteNo="1" devices="tripinfo_carIn118591:1 routing_carIn118591:1 emissions_carIn118591:1" vType="default_016" speedFactor="1.05" vaporized="">
        <emissions CO_abs="12218.368912" CO2_abs="391273.953601" HC_abs="64.722892" PMx_abs="7.662776" NOx_abs="163.691325" fuel_abs="168.196197" electricity_abs="0"/>
    </tripinfo>
    <tripinfo id="carIn126288:1" depart="57674.00" departLane="272042143_1" departPos="5.10" departSpeed="0.00" departDelay="0.00" arrival="57849.00" arrivalLane="-315358254#1_1" arrivalPos="137.16" arrivalSpeed="12.63" duration="175.00" routeLength="1596.88" waitingTime="35.00" waitingCount="2" stopTime="0.00" timeLoss="58.62" rerouteNo="1" devices="tripinfo_carIn126288:1 routing_carIn126288:1 emissions_carIn126288:1" vType="default_016" speedFactor="1.00" vaporized="">
        <emissions CO_abs="8181.330869" CO2_abs="398674.195799" HC_abs="46.558636" PMx_abs="7.076343" NOx_abs="162.192032" fuel_abs="171.374788" electricity_abs="0"/>
    </tripinfo>
    <tripinfo id="carIn12152:1" depart="57647.00" departLane="24599188#0.94_1" departPos="5.10" departSpeed="0.00" departDelay="0.50" arrival="57851.00" arrivalLane="-315358254#1_1" arrivalPos="137.16" arrivalSpeed="14.01" duration="204.00" routeLength="2034.31" waitingTime="27.00" waitingCount="2" stopTime="0.00" timeLoss="52.13" rerouteNo="1" devices="tripinfo_carIn12152:1 routing_carIn12152:1 emissions_carIn12152:1" vType="default_016" speedFactor="1.04" vaporized="">
        <emissions CO_abs="7876.229588" CO2_abs="478791.598469" HC_abs="46.979404" PMx_abs="8.019895" NOx_abs="191.082117" fuel_abs="205.813316" electricity_abs="0"/>
    </tripinfo>
    <tripinfo id="carIn85747:1" depart="57673.00" departLane="128361109#1_1" departPos="5.10" departSpeed="0.00" departDelay="0.70" arrival="57853.00" arrivalLane="386687235_1" arrivalPos="80.84" arrivalSpeed="15.79" duration="180.00" routeLength="2088.57" waitingTime="34.00" waitingCount="2" stopTime="0.00" timeLoss="56.08" rerouteNo="1" devices="tripinfo_carIn85747:1 routing_carIn85747:1 emissions_carIn85747:1" vType="default_016" speedFactor="1.22" vaporized="">
        <emissions CO_abs="8996.933576" CO2_abs="495996.092720" HC_abs="52.428935" PMx_abs="9.083689" NOx_abs="200.470109" fuel_abs="213.208589" electricity_abs="0"/>
    </tripinfo>
    <tripinfo id="randUni31145:1" depart="57814.00" departLane="10425609#0_1" departPos="5.10" departSpeed="0.00" departDelay="0.30" arrival="57853.00" arrivalLane="201956810_1" arrivalPos="71.65" arrivalSpeed="13.23" duration="39.00" routeLength="255.78" waitingTime="10.00" waitingCount="1" stopTime="0.00" timeLoss="19.82" rerouteNo="1" devices="tripinfo_randUni31145:1 routing_randUni31145:1 emissions_randUni31145:1" vType="random_016" speedFactor="1.01" vaporized="">
        <emissions CO_abs="2833.269716" CO2_abs="121990.038867" HC_abs="15.794697" PMx_abs="2.467722" NOx_abs="52.316789" fuel_abs="52.438597" electricity_abs="0"/>
    </tripinfo>
    <tripinfo id="randUni2407:1" depart="57820.00" departLane="10425609#0_1" departPos="5.10" departSpeed="0.00" departDelay="0.80" arrival="57856.00" arrivalLane="201956810_1" arrivalPos="71.65" arrivalSpeed="14.13" duration="36.00" routeLength="255.78" waitingTime="5.00" waitingCount="1" stopTime="0.00" timeLoss="16.73" rerouteNo="1" devices="tripinfo_randUni2407:1 routing_randUni2407:1 emissions_randUni2407:1" vType="random_016" speedFactor="1.08" vaporized="">
        <emissions CO_abs="2323.634303" CO2_abs="118550.800561" HC_abs="13.386867" PMx_abs="2.288480" NOx_abs="49.975680" fuel_abs="50.960024" electricity_abs="0"/>
    </tripinfo>
    <tripinfo id="carIn12775:1" depart="57676.00" departLane="10425609#0_1" departPos="5.10" departSpeed="0.00" departDelay="0.60" arrival="57859.00" arrivalLane="18809673#0_1" arrivalPos="473.56" arrivalSpeed="13.21" duration="183.00" routeLength="1959.45" waitingTime="18.00" waitingCount="2" stopTime="0.00" timeLoss="42.84" rerouteNo="1" devices="tripinfo_carIn12775:1 routing_carIn12775:1 emissions_carIn12775:1" vType="default_016" speedFactor="1.04" vaporized="">
        <emissions CO_abs="7188.725960" CO2_abs="443202.065812" HC_abs="42.968174" PMx_abs="7.596737" NOx_abs="177.854566" fuel_abs="190.514448" electricity_abs="0"/>
    </tripinfo>
    <tripinfo id="h17600c1:1" depart="57662.00" departLane="272042143_1" departPos="5.10" departSpeed="0.00" departDelay="0.30" arrival="57861.00" arrivalLane="201238729#3_1" arrivalPos="431.02" arrivalSpeed="13.96" duration="199.00" routeLength="2100.26" waitingTime="30.00" waitingCount="2" stopTime="0.00" timeLoss="52.58" rerouteNo="1" devices="tripinfo_h17600c1:1 routing_h17600c1:1 emissions_h17600c1:1" vType="default_016" speedFactor="1.03" vaporized="">
        <emissions CO_abs="8594.139411" CO2_abs="482178.252504" HC_abs="50.406707" PMx_abs="8.326630" NOx_abs="193.559802" fuel_abs="207.269346" electricity_abs="0"/>
    </tripinfo>
    <tripinfo id="h3864c1:3" depart="57678.00" departLane="24693977#1_1" departPos="5.10" departSpeed="0.00" departDelay="0.00" arrival="57872.00" arrivalLane="201956820_1" arrivalPos="48.33" arrivalSpeed="12.59" duration="194.00" routeLength="1574.85" waitingTime="19.00" waitingCount="2" stopTime="0.00" timeLoss="50.91" rerouteNo="1" devices="tripinfo_h3864c1:3 routing_h3864c1:3 emissions_h3864c1:3" vType="default_016" speedFactor="0.91" vaporized="">
        <emissions CO_abs="8586.400093" CO2_abs="437462.570506" HC_abs="49.288471" PMx_abs="7.584448" NOx_abs="178.755207" fuel_abs="188.048171" electricity_abs="0"/>
    </tripinfo>
    <tripinfo id="h3536c1:1" depart="57767.00" departLane="-24634413#2_1" departPos="5.10" departSpeed="0.00" departDelay="0.00" arrival="57874.00" arrivalLane="32978638#0_2" arrivalPos="49.29" arrivalSpeed="13.98" duration="107.00" routeLength="957.93" waitingTime="1.00" waitingCount="1" stopTime="0.00" timeLoss="18.84" rerouteNo="1" devices="tripinfo_h3536c1:1 routing_h3536c1:1 emissions_h3536c1:1" vType="default_016" speedFactor="1.02" vaporized="">
        <emissions CO_abs="5138.016105" CO2_abs="287209.022952" HC_abs="30.070659" PMx_abs="4.929817" NOx_abs="117.182388" fuel_abs="123.459636" electricity_abs="0"/>
    </tripinfo>
    <tripinfo id="h6541c1:3" depart="57727.00" departLane="201950247#3_1" departPos="5.10" departSpeed="0.00" departDelay="0.00" arrival="57875.00" arrivalLane="32978638#0_1" arrivalPos="49.29" arrivalSpeed="12.93" duration="148.00" routeLength="1176.17" waitingTime="19.00" waitingCount="3" stopTime="0.00" timeLoss="47.11" rerouteNo="1" devices="tripinfo_h6541c1:3 routing_h6541c1:3 emissions_h6541c1:3" vType="default_016" speedFactor="1.01" vaporized="">
        <emissions CO_abs="7217.947842" CO2_abs="344920.567038" HC_abs="40.925283" PMx_abs="6.153464" NOx_abs="141.798020" fuel_abs="148.268103" electricity_abs="0"/>
    </tripinfo>
    <tripinfo id="randUni14624:1" depart="57606.00" departLane="315358244_1" departPos="5.10" departSpeed="0.00" departDelay="0.80" arrival="57881.00" arrivalLane="-25149001#4_1" arrivalPos="105.67" arrivalSpeed="7.53" duration="275.00" routeLength="2803.98" waitingTime="20.00" waitingCount="3" stopTime="0.00" timeLoss="56.45" rerouteNo="1" devices="tripinfo_randUni14624:1 routing_randUni14624:1 emissions_randUni14624:1" vType="random_016" speedFactor="0.97" vaporized="">
        <emissions CO_abs="9214.915464" CO2_abs="606470.137113" HC_abs="55.992403" PMx_abs="9.666790" NOx_abs="239.245480" fuel_abs="260.697267" electricity_abs="0"/>
    </tripinfo>