<?xml version="1.0" encoding="UTF-8"?>

<!-- generated on 2021-10-26 20:54:44 by Eclipse SUMO sumo Version 1.10.0
<configuration xmlns:xsi="http://www.w3.org/2001/XMLSchema-instance" xsi:noNamespaceSchemaLocation="http://sumo.dlr.de/xsd/sumoConfiguration.xsd">

    <input>
        <net-file value="/Users/behradkoohy/sumo-scratchpad/RESCO/environments/ingolstadt21/ingolstadt21.net.xml"/>
        <route-files value="/Users/behradkoohy/sumo-scratchpad/RESCO/environments/ingolstadt21/ingolstadt21.rou.xml"/>
    </input>

    <output>
        <tripinfo-output value="/Users/behradkoohy/sumo-scratchpad/RESCO/logs/MPLight-tr0-ingolstadt21-21-mplight_full-pressure/tripinfo_21.xml"/>
        <tripinfo-output.write-unfinished value="true"/>
    </output>

    <time>
        <begin value="57600"/>
        <end value="61200"/>
    </time>

    <processing>
        <time-to-teleport value="-1"/>
    </processing>

    <report>
        <no-warnings value="true"/>
        <no-step-log value="true"/>
    </report>

    <emissions>
        <device.emissions.probability value="1"/>
    </emissions>

    <traci_server>
        <remote-port value="64602"/>
    </traci_server>

    <random_number>
        <random value="true"/>
    </random_number>

</configuration>
-->

<tripinfos xmlns:xsi="http://www.w3.org/2001/XMLSchema-instance" xsi:noNamespaceSchemaLocation="http://sumo.dlr.de/xsd/tripinfo_file.xsd">
    <tripinfo id="carIn60260:1" depart="57606.00" departLane="315358254#0_1" departPos="5.10" departSpeed="0.00" departDelay="0.90" arrival="57662.00" arrivalLane="399835085#1_1" arrivalPos="212.23" arrivalSpeed="7.49" duration="56.00" routeLength="430.98" waitingTime="0.00" waitingCount="0" stopTime="0.00" timeLoss="5.81" rerouteNo="1" devices="tripinfo_carIn60260:1 routing_carIn60260:1 emissions_carIn60260:1" vType="default_016" speedFactor="0.92" vaporized="">
        <emissions CO_abs="2184.767166" CO2_abs="107839.678454" HC_abs="12.433330" PMx_abs="1.764300" NOx_abs="43.690613" fuel_abs="46.356277" electricity_abs="0"/>
    </tripinfo>
    <tripinfo id="h15454c2:3" depart="57612.00" departLane="24608844_1" departPos="5.10" departSpeed="0.00" departDelay="0.50" arrival="57665.00" arrivalLane="32978638#0_1" arrivalPos="49.29" arrivalSpeed="11.42" duration="53.00" routeLength="354.79" waitingTime="4.00" waitingCount="1" stopTime="0.00" timeLoss="13.46" rerouteNo="1" devices="tripinfo_h15454c2:3 routing_h15454c2:3 emissions_h15454c2:3" vType="default_016" speedFactor="0.87" vaporized="">
        <emissions CO_abs="2681.490020" CO2_abs="120992.399050" HC_abs="15.019892" PMx_abs="2.136627" NOx_abs="50.142173" fuel_abs="52.010090" electricity_abs="0"/>
    </tripinfo>
    <tripinfo id="carIn53971:1" depart="57640.00" departLane="272042143_1" departPos="5.10" departSpeed="0.00" departDelay="0.80" arrival="57704.00" arrivalLane="24634414#1_1" arrivalPos="162.19" arrivalSpeed="6.78" duration="64.00" routeLength="493.04" waitingTime="0.00" waitingCount="0" stopTime="0.00" timeLoss="8.36" rerouteNo="1" devices="tripinfo_carIn53971:1 routing_carIn53971:1 emissions_carIn53971:1" vType="default_016" speedFactor="0.83" vaporized="">
        <emissions CO_abs="2669.182035" CO2_abs="132474.100896" HC_abs="15.197690" PMx_abs="2.114543" NOx_abs="53.286900" fuel_abs="56.945774" electricity_abs="0"/>
    </tripinfo>
    <tripinfo id="h12244c1:3" depart="57612.00" departLane="315358244_1" departPos="5.10" departSpeed="0.00" departDelay="0.40" arrival="57707.00" arrivalLane="386687235_1" arrivalPos="80.84" arrivalSpeed="16.17" duration="95.00" routeLength="1186.14" waitingTime="3.00" waitingCount="1" stopTime="0.00" timeLoss="23.81" rerouteNo="1" devices="tripinfo_h12244c1:3 routing_h12244c1:3 emissions_h12244c1:3" vType="default_016" speedFactor="1.22" vaporized="">
        <emissions CO_abs="4101.573705" CO2_abs="290278.765635" HC_abs="25.404073" PMx_abs="5.318813" NOx_abs="118.067915" fuel_abs="124.777983" electricity_abs="0"/>
    </tripinfo>
    <tripinfo id="h7800c1:5" depart="57696.00" departLane="-447569998#1_1" departPos="5.10" departSpeed="0.00" departDelay="0.00" arrival="57718.00" arrivalLane="-447569998#1_2" arrivalPos="180.76" arrivalSpeed="8.04" duration="22.00" routeLength="175.66" waitingTime="0.00" waitingCount="0" stopTime="0.00" timeLoss="3.12" rerouteNo="1" devices="tripinfo_h7800c1:5 routing_h7800c1:5 emissions_h7800c1:5" vType="default_016" speedFactor="1.12" vaporized="">
        <emissions CO_abs="1105.216978" CO2_abs="53924.392709" HC_abs="6.271644" PMx_abs="0.867162" NOx_abs="21.767517" fuel_abs="23.180128" electricity_abs="0"/>
    </tripinfo>
    <tripinfo id="h3688c1:1" depart="57625.00" departLane="201201950#1_1" departPos="5.10" departSpeed="0.00" departDelay="0.00" arrival="57730.00" arrivalLane="32978638#0_1" arrivalPos="49.29" arrivalSpeed="13.82" duration="105.00" routeLength="1089.75" waitingTime="13.00" waitingCount="1" stopTime="0.00" timeLoss="27.23" rerouteNo="1" devices="tripinfo_h3688c1:1 routing_h3688c1:1 emissions_h3688c1:1" vType="default_016" speedFactor="1.03" vaporized="">
        <emissions CO_abs="5133.573735" CO2_abs="293109.836655" HC_abs="30.128339" PMx_abs="5.147183" NOx_abs="118.571491" fuel_abs="125.996051" electricity_abs="0"/>
    </tripinfo>
    <tripinfo id="h3568c1:3" depart="57656.00" departLane="266565295#5_1" departPos="5.10" departSpeed="0.00" departDelay="0.80" arrival="57731.00" arrivalLane="-24634415_1" arrivalPos="62.03" arrivalSpeed="13.33" duration="75.00" routeLength="807.40" waitingTime="0.00" waitingCount="0" stopTime="0.00" timeLoss="10.90" rerouteNo="1" devices="tripinfo_h3568c1:3 routing_h3568c1:3 emissions_h3568c1:3" vType="default_016" speedFactor="1.02" vaporized="">
        <emissions CO_abs="2885.628495" CO2_abs="198949.511968" HC_abs="17.717798" PMx_abs="3.376252" NOx_abs="80.111405" fuel_abs="85.519967" electricity_abs="0"/>
    </tripinfo>
    <tripinfo id="h317c2:1" depart="57707.00" departLane="-32978638#0_1" departPos="5.10" departSpeed="0.00" departDelay="0.10" arrival="57735.00" arrivalLane="-266565295#5_1" arrivalPos="172.76" arrivalSpeed="17.50" duration="28.00" routeLength="370.53" waitingTime="0.00" waitingCount="0" stopTime="0.00" timeLoss="5.97" rerouteNo="1" devices="tripinfo_h317c2:1 routing_h317c2:1 emissions_h317c2:1" vType="default_016" speedFactor="1.29" vaporized="">
        <emissions CO_abs="2081.038097" CO2_abs="132849.076121" HC_abs="12.668406" PMx_abs="2.676867" NOx_abs="56.062758" fuel_abs="57.105704" electricity_abs="0"/>
    </tripinfo>
    <tripinfo id="h4538c1:1" depart="57701.00" departLane="-10427692#1_1" departPos="5.10" departSpeed="0.00" departDelay="0.00" arrival="57741.00" arrivalLane="-128361102#1_1" arrivalPos="274.68" arrivalSpeed="12.34" duration="40.00" routeLength="440.74" waitingTime="0.00" waitingCount="0" stopTime="0.00" timeLoss="5.97" rerouteNo="1" devices="tripinfo_h4538c1:1 routing_h4538c1:1 emissions_h4538c1:1" vType="default_016" speedFactor="0.94" vaporized="">
        <emissions CO_abs="1471.055657" CO2_abs="106275.475759" HC_abs="9.176468" PMx_abs="1.728227" NOx_abs="42.312408" fuel_abs="45.683388" electricity_abs="0"/>
    </tripinfo>
    <tripinfo id="carIn30817:1" depart="57681.00" departLane="315358244_1" departPos="5.10" departSpeed="0.00" departDelay="0.20" arrival="57750.00" arrivalLane="447569997#1_1" arrivalPos="180.93" arrivalSpeed="8.48" duration="69.00" routeLength="718.04" waitingTime="0.00" waitingCount="0" stopTime="0.00" timeLoss="13.14" rerouteNo="1" devices="tripinfo_carIn30817:1 routing_carIn30817:1 emissions_carIn30817:1" vType="default_016" speedFactor="1.10" vaporized="">
        <emissions CO_abs="2978.727887" CO2_abs="187600.681051" HC_abs="17.870459" PMx_abs="3.278282" NOx_abs="76.236444" fuel_abs="80.641649" electricity_abs="0"/>
    </tripinfo>
    <tripinfo id="carIn121703:1" depart="57647.00" departLane="386687232#0_1" departPos="5.10" departSpeed="0.00" departDelay="0.30" arrival="57758.00" arrivalLane="-315358244_1" arrivalPos="33.95" arrivalSpeed="12.42" duration="111.00" routeLength="1157.39" waitingTime="9.00" waitingCount="1" stopTime="0.00" timeLoss="21.90" rerouteNo="1" devices="tripinfo_carIn121703:1 routing_carIn121703:1 emissions_carIn121703:1" vType="default_016" speedFactor="0.94" vaporized="">
        <emissions CO_abs="3914.826239" CO2_abs="269709.115300" HC_abs="24.118557" PMx_abs="4.411660" NOx_abs="107.269518" fuel_abs="115.936827" electricity_abs="0"/>
    </tripinfo>
    <tripinfo id="h7181c1:1" depart="57660.00" departLane="315358254#0_1" departPos="5.10" departSpeed="0.00" departDelay="0.10" arrival="57763.00" arrivalLane="306240162#0_0" arrivalPos="220.43" arrivalSpeed="13.35" duration="103.00" routeLength="932.35" waitingTime="23.00" waitingCount="2" stopTime="0.00" timeLoss="41.25" rerouteNo="1" devices="tripinfo_h7181c1:1 routing_h7181c1:1 emissions_h7181c1:1" vType="default_016" speedFactor="0.83" vaporized="">
        <emissions CO_abs="5943.990263" CO2_abs="290464.048866" HC_abs="33.864375" PMx_abs="5.483826" NOx_abs="120.025094" fuel_abs="124.858888" electricity_abs="0"/>
    </tripinfo>
    <tripinfo id="h3326c1:2" depart="57656.00" departLane="22716069#0_1" departPos="5.10" departSpeed="0.00" departDelay="0.00" arrival="57766.00" arrivalLane="24634517#13_1" arrivalPos="111.62" arrivalSpeed="12.96" duration="110.00" routeLength="1312.81" waitingTime="0.00" waitingCount="0" stopTime="0.00" timeLoss="14.43" rerouteNo="1" devices="tripinfo_h3326c1:2 routing_h3326c1:2 emissions_h3326c1:2" vType="default_016" speedFactor="1.02" vaporized="">
        <emissions CO_abs="4025.845109" CO2_abs="310312.751460" HC_abs="25.535227" PMx_abs="5.275896" NOx_abs="124.474189" fuel_abs="133.389948" electricity_abs="0"/>
    </tripinfo>
    <tripinfo id="h3154c1:1" depart="57658.00" departLane="24634507_1" departPos="5.10" departSpeed="0.00" departDelay="0.00" arrival="57766.00" arrivalLane="-266565295#5_1" arrivalPos="172.76" arrivalSpeed="15.27" duration="108.00" routeLength="1206.22" waitingTime="11.00" waitingCount="1" stopTime="0.00" timeLoss="26.85" rerouteNo="1" devices="tripinfo_h3154c1:1 routing_h3154c1:1 emissions_h3154c1:1" vType="default_016" speedFactor="1.11" vaporized="">
        <emissions CO_abs="4679.471147" CO2_abs="299089.374476" HC_abs="28.343109" PMx_abs="5.436140" NOx_abs="122.038281" fuel_abs="128.565684" electricity_abs="0"/>
    </tripinfo>
    <tripinfo id="S5R_frequency1.2" depart="57624.00" departLane="315358250#0_1" departPos="12.10" departSpeed="0.00" departDelay="12.40" arrival="57767.00" arrivalLane="386687235_1" arrivalPos="80.84" arrivalSpeed="13.19" duration="143.00" routeLength="1115.62" waitingTime="26.00" waitingCount="3" stopTime="0.00" timeLoss="61.79" rerouteNo="1" devices="tripinfo_S5R_frequency1.2 routing_S5R_frequency1.2 emissions_S5R_frequency1.2" vType="bus" speedFactor="1.00" vaporized="">
        <emissions CO_abs="2813.295083" CO2_abs="1591110.057825" HC_abs="599.702917" PMx_abs="297.468856" NOx_abs="12815.678608" fuel_abs="678.529336" electricity_abs="0"/>
    </tripinfo>
    <tripinfo id="carIn80064:1" depart="57603.00" departLane="128361109#1_1" departPos="5.10" departSpeed="0.00" departDelay="0.40" arrival="57768.00" arrivalLane="-315358254#1_1" arrivalPos="137.16" arrivalSpeed="13.37" duration="165.00" routeLength="1587.97" waitingTime="40.00" waitingCount="3" stopTime="0.00" timeLoss="72.36" rerouteNo="1" devices="tripinfo_carIn80064:1 routing_carIn80064:1 emissions_carIn80064:1" vType="default_016" speedFactor="0.97" vaporized="">
        <emissions CO_abs="11790.627001" CO2_abs="553724.390240" HC_abs="66.856079" PMx_abs="11.027083" NOx_abs="231.144101" fuel_abs="238.023666" electricity_abs="0"/>
    </tripinfo>
    <tripinfo id="carIn27009:1" depart="57673.00" departLane="-447569998#1_1" departPos="5.10" departSpeed="0.00" departDelay="0.50" arrival="57770.00" arrivalLane="-26677539_1" arrivalPos="152.75" arrivalSpeed="7.68" duration="97.00" routeLength="699.63" waitingTime="0.00" waitingCount="0" stopTime="0.00" timeLoss="9.95" rerouteNo="1" devices="tripinfo_carIn27009:1 routing_carIn27009:1 emissions_carIn27009:1" vType="default_015" speedFactor="0.97" vaporized="">
        <emissions CO_abs="3517.714165" CO2_abs="163468.511753" HC_abs="19.762177" PMx_abs="2.613369" NOx_abs="66.133571" fuel_abs="70.269288" electricity_abs="0"/>
    </tripinfo>
    <tripinfo id="carIn22761:1" depart="57616.00" departLane="-306240162#1_0" departPos="5.10" departSpeed="0.00" departDelay="2.10" arrival="57771.00" arrivalLane="399835085#1_1" arrivalPos="212.23" arrivalSpeed="8.98" duration="155.00" routeLength="1093.26" waitingTime="50.00" waitingCount="3" stopTime="0.00" timeLoss="83.13" rerouteNo="1" devices="tripinfo_carIn22761:1 routing_carIn22761:1 emissions_carIn22761:1" vType="default_016" speedFactor="1.09" vaporized="">
        <emissions CO_abs="11540.932228" CO2_abs="430237.189671" HC_abs="62.779594" PMx_abs="8.920079" NOx_abs="183.995417" fuel_abs="184.942808" electricity_abs="0"/>
    </tripinfo>
    <tripinfo id="h16072c2:3" depart="57663.00" departLane="315358254#0_1" departPos="5.10" departSpeed="0.00" departDelay="2.50" arrival="57787.00" arrivalLane="386687235_1" arrivalPos="80.84" arrivalSpeed="14.64" duration="124.00" routeLength="1611.92" waitingTime="1.00" waitingCount="1" stopTime="0.00" timeLoss="15.11" rerouteNo="1" devices="tripinfo_h16072c2:3 routing_h16072c2:3 emissions_h16072c2:3" vType="default_016" speedFactor="1.08" vaporized="">
        <emissions CO_abs="3859.799009" CO2_abs="318637.329179" HC_abs="24.967385" PMx_abs="5.363028" NOx_abs="126.429640" fuel_abs="136.968275" electricity_abs="0"/>
    </tripinfo>
    <tripinfo id="h5979c1:5" depart="57669.00" departLane="399835085#1_1" departPos="5.10" departSpeed="0.00" departDelay="0.00" arrival="57787.00" arrivalLane="-315358254#1_1" arrivalPos="137.16" arrivalSpeed="14.28" duration="118.00" routeLength="659.33" waitingTime="34.00" waitingCount="1" stopTime="0.00" timeLoss="46.54" rerouteNo="1" devices="tripinfo_h5979c1:5 routing_h5979c1:5 emissions_h5979c1:5" vType="default_016" speedFactor="1.03" vaporized="">
        <emissions CO_abs="7952.408814" CO2_abs="250061.829267" HC_abs="42.027024" PMx_abs="4.797283" NOx_abs="105.509090" fuel_abs="107.493733" electricity_abs="0"/>
    </tripinfo>
    <tripinfo id="h330c1:1" depart="57736.00" departLane="-32978638#0_1" departPos="5.10" departSpeed="0.00" departDelay="0.20" arrival="57787.00" arrivalLane="-266565295#5_1" arrivalPos="172.76" arrivalSpeed="11.74" duration="51.00" routeLength="370.53" waitingTime="12.00" waitingCount="1" stopTime="0.00" timeLoss="20.35" rerouteNo="1" devices="tripinfo_h330c1:1 routing_h330c1:1 emissions_h330c1:1" vType="default_016" speedFactor="0.89" vaporized="">
        <emissions CO_abs="3074.778551" CO2_abs="129745.759276" HC_abs="17.026431" PMx_abs="2.343152" NOx_abs="53.542754" fuel_abs="55.772981" electricity_abs="0"/>
    </tripinfo>
    <tripinfo id="h645c1:1" depart="57622.00" departLane="266565295#5_1" departPos="5.10" departSpeed="0.00" departDelay="0.40" arrival="57794.00" arrivalLane="-315358244_1" arrivalPos="33.95" arrivalSpeed="12.16" duration="172.00" routeLength="1910.83" waitingTime="2.00" waitingCount="1" stopTime="0.00" timeLoss="24.54" rerouteNo="1" devices="tripinfo_h645c1:1 routing_h645c1:1 emissions_h645c1:1" vType="default_016" speedFactor="0.94" vaporized="">
        <emissions CO_abs="5007.952287" CO2_abs="385213.938652" HC_abs="31.769206" PMx_abs="6.112766" NOx_abs="151.911825" fuel_abs="165.587384" electricity_abs="0"/>
    </tripinfo>
    <tripinfo id="carIn118591:1" depart="57689.00" departLane="315358244_1" departPos="5.10" departSpeed="0.00" departDelay="0.20" arrival="57805.00" arrivalLane="386687235_1" arrivalPos="80.84" arrivalSpeed="15.66" duration="116.00" routeLength="1186.14" waitingTime="27.00" waitingCount="1" stopTime="0.00" timeLoss="39.87" rerouteNo="1" devices="tripinfo_carIn118591:1 routing_carIn118591:1 emissions_carIn118591:1" vType="default_016" speedFactor="1.14" vaporized="">
        <emissions CO_abs="6504.825657" CO2_abs="306178.825374" HC_abs="36.698172" PMx_abs="5.603438" NOx_abs="124.478852" fuel_abs="131.614599" electricity_abs="0"/>
    </tripinfo>
    <tripinfo id="carIn107282:1" depart="57749.00" departLane="-447569998#1_1" departPos="5.10" departSpeed="0.00" departDelay="0.00" arrival="57805.00" arrivalLane="315358242#0_1" arrivalPos="165.37" arrivalSpeed="13.79" duration="56.00" routeLength="448.50" waitingTime="8.00" waitingCount="1" stopTime="0.00" timeLoss="15.08" rerouteNo="1" devices="tripinfo_carIn107282:1 routing_carIn107282:1 emissions_carIn107282:1" vType="default_016" speedFactor="1.02" vaporized="">
        <emissions CO_abs="2316.919672" CO2_abs="120270.764213" HC_abs="13.331405" PMx_abs="2.032899" NOx_abs="48.733731" fuel_abs="51.699779" electricity_abs="0"/>
    </tripinfo>
    <tripinfo id="h9563c2:5" depart="57631.00" departLane="315358244_1" departPos="5.10" departSpeed="0.00" departDelay="0.70" arrival="57809.00" arrivalLane="386687235_1" arrivalPos="80.84" arrivalSpeed="12.88" duration="178.00" routeLength="1186.14" waitingTime="69.00" waitingCount="2" stopTime="0.00" timeLoss="87.57" rerouteNo="1" devices="tripinfo_h9563c2:5 routing_h9563c2:5 emissions_h9563c2:5" vType="default_016" speedFactor="0.95" vaporized="">
        <emissions CO_abs="13615.151150" CO2_abs="435036.435157" HC_abs="72.176074" PMx_abs="8.501420" NOx_abs="182.903267" fuel_abs="187.008259" electricity_abs="0"/>
    </tripinfo>
    <tripinfo id="carIn86816:1" depart="57617.00" departLane="128361102#0_1" departPos="5.10" departSpeed="0.00" departDelay="0.80" arrival="57826.00" arrivalLane="201956811#0_1" arrivalPos="40.40" arrivalSpeed="11.29" duration="209.00" routeLength="2067.33" waitingTime="15.00" waitingCount="2" stopTime="0.00" timeLoss="41.55" rerouteNo="1" devices="tripinfo_carIn86816:1 routing_carIn86816:1 emissions_carIn86816:1" vType="default_016" speedFactor="0.90" vaporized="">
        <emissions CO_abs="7789.800800" CO2_abs="486634.922257" HC_abs="46.790239" PMx_abs="7.959637" NOx_abs="194.317185" fuel_abs="209.184828" electricity_abs="0"/>
    </tripinfo>
    <tripinfo id="h17600c1:1" depart="57662.00" departLane="272042143_1" departPos="5.10" departSpeed="0.00" departDelay="0.30" arrival="57830.00" arrivalLane="201238729#3_1" arrivalPos="431.02" arrivalSpeed="13.84" duration="168.00" routeLength="2100.26" waitingTime="8.00" waitingCount="1" stopTime="0.00" timeLoss="25.45" rerouteNo="1" devices="tripinfo_h17600c1:1 routing_h17600c1:1 emissions_h17600c1:1" vType="default_016" speedFactor="1.06" vaporized="">
        <emissions CO_abs="5017.423761" CO2_abs="418864.423936" HC_abs="32.512360" PMx_abs="6.795489" NOx_abs="164.219927" fuel_abs="180.051900" electricity_abs="0"/>
    </tripinfo>
    <tripinfo id="carIn12365:1" depart="57713.00" departLane="315358244_1" departPos="5.10" departSpeed="0.00" departDelay="0.50" arrival="57832.00" arrivalLane="447569997#1_1" arrivalPos="180.93" arrivalSpeed="7.51" duration="119.00" routeLength="718.04" waitingTime="39.00" waitingCount="2" stopTime="0.00" timeLoss="56.42" rerouteNo="1" devices="tripinfo_carIn12365:1 routing_carIn12365:1 emissions_carIn12365:1" vType="default_016" speedFactor="0.99" vaporized="">
        <emissions CO_abs="7799.414108" CO2_abs="256315.384024" HC_abs="41.504944" PMx_abs="4.971305" NOx_abs="107.970835" fuel_abs="110.181611" electricity_abs="0"/>
    </tripinfo>
    <tripinfo id="h11737c1:1" depart="57665.00" departLane="272042143_1" departPos="5.10" departSpeed="0.00" departDelay="1.50" arrival="57838.00" arrivalLane="-315358254#1_1" arrivalPos="137.16" arrivalSpeed="13.32" duration="173.00" routeLength="1596.88" waitingTime="36.00" waitingCount="1" stopTime="0.00" timeLoss="51.78" rerouteNo="1" devices="tripinfo_h11737c1:1 routing_h11737c1:1 emissions_h11737c1:1" vType="default_016" speedFactor="0.96" vaporized="">
        <emissions CO_abs="9350.960864" CO2_abs="424263.596751" HC_abs="52.479322" PMx_abs="7.513729" NOx_abs="172.456959" fuel_abs="182.375278" electricity_abs="0"/>
    </tripinfo>
    <tripinfo id="carIn12152:1" depart="57647.00" departLane="24599188#0.94_1" departPos="5.10" departSpeed="0.00" departDelay="0.50" arrival="57839.00" arrivalLane="-315358254#1_1" arrivalPos="137.16" arrivalSpeed="15.60" duration="192.00" routeLength="2034.31" waitingTime="33.00" waitingCount="2" stopTime="0.00" timeLoss="58.39" rerouteNo="1" devices="tripinfo_carIn12152:1 routing_carIn12152:1 emissions_carIn12152:1" vType="default_016" speedFactor="1.19" vaporized="">
        <emissions CO_abs="9822.755552" CO2_abs="506028.464724" HC_abs="56.448003" PMx_abs="9.093687" NOx_abs="204.649457" fuel_abs="217.521803" electricity_abs="0"/>
    </tripinfo>
    <tripinfo id="carIn126288:1" depart="57674.00" departLane="272042143_1" departPos="5.10" departSpeed="0.00" departDelay="0.00" arrival="57843.00" arrivalLane="-315358254#1_1" arrivalPos="137.16" arrivalSpeed="12.13" duration="169.00" routeLength="1596.88" waitingTime="15.00" waitingCount="2" stopTime="0.00" timeLoss="37.75" rerouteNo="1" devices="tripinfo_carIn126288:1 routing_carIn126288:1 emissions_carIn126288:1" vType="default_016" speedFactor="0.89" vaporized="">
        <emissions CO_abs="5171.648770" CO2_abs="344357.851559" HC_abs="31.545175" PMx_abs="5.517365" NOx_abs="136.898747" fuel_abs="148.025494" electricity_abs="0"/>
    </tripinfo>
    <tripinfo id="h5216c1:1" depart="57664.00" departLane="224892339#0_1" departPos="5.10" departSpeed="0.00" departDelay="0.00" arrival="57844.00" arrivalLane="386687235_1" arrivalPos="80.84" arrivalSpeed="15.67" duration="180.00" routeLength="1823.78" waitingTime="36.00" waitingCount="2" stopTime="0.00" timeLoss="67.97" rerouteNo="1" devices="tripinfo_h5216c1:1 routing_h5216c1:1 emissions_h5216c1:1" vType="default_016" speedFactor="1.15" vaporized="">
        <emissions CO_abs="11395.784655" CO2_abs="561392.167274" HC_abs="64.978445" PMx_abs="10.816998" NOx_abs="232.426375" fuel_abs="241.319726" electricity_abs="0"/>
    </tripinfo>
    <tripinfo id="carIn129809:1" depart="57729.00" departLane="-447569998#1_1" departPos="5.10" departSpeed="0.00" departDelay="1.00" arrival="57844.00" arrivalLane="-315358244_1" arrivalPos="33.95" arrivalSpeed="12.16" duration="115.00" routeLength="706.49" waitingTime="35.00" waitingCount="2" stopTime="0.00" timeLoss="51.86" rerouteNo="1" devices="tripinfo_carIn129809:1 routing_carIn129809:1 emissions_carIn129809:1" vType="default_015" speedFactor="0.97" vaporized="">
        <emissions CO_abs="7423.355250" CO2_abs="245683.251733" HC_abs="39.524650" PMx_abs="4.676113" NOx_abs="103.010186" fuel_abs="105.611286" electricity_abs="0"/>
    </tripinfo>
    <tripinfo id="carIn50326:1" depart="57651.00" departLane="128361102#0_1" departPos="5.10" departSpeed="0.00" departDelay="0.30" arrival="57847.00" arrivalLane="18809673#0_1" arrivalPos="473.56" arrivalSpeed="15.89" duration="196.00" routeLength="1591.07" waitingTime="58.00" waitingCount="2" stopTime="0.00" timeLoss="83.91" rerouteNo="1" devices="tripinfo_carIn50326:1 routing_carIn50326:1 emissions_carIn50326:1" vType="default_016" speedFactor="1.16" vaporized="">
        <emissions CO_abs="13285.282112" CO2_abs="499414.679266" HC_abs="71.920990" PMx_abs="9.513290" NOx_abs="207.317603" fuel_abs="214.680832" electricity_abs="0"/>
    </tripinfo>
    <tripinfo id="carIn12858:1" depart="57661.00" departLane="128361109#1_1" departPos="5.10" departSpeed="0.00" departDelay="0.90" arrival="57851.00" arrivalLane="399835085#1_1" arrivalPos="212.23" arrivalSpeed="4.39" duration="190.00" routeLength="1738.12" waitingTime="33.00" waitingCount="2" stopTime="0.00" timeLoss="70.92" rerouteNo="1" devices="tripinfo_carIn12858:1 routing_carIn12858:1 emissions_carIn12858:1" vType="default_016" speedFactor="0.96" vaporized="">
        <emissions CO_abs="11907.810632" CO2_abs="541183.412611" HC_abs="67.093392" PMx_abs="10.815554" NOx_abs="227.767706" fuel_abs="232.632916" electricity_abs="0"/>
    </tripinfo>
    <tripinfo id="carIn107084:1" depart="57601.00" departLane="124812856#0_1" departPos="5.10" departSpeed="0.00" departDelay="0.70" arrival="57854.00" arrivalLane="-128361102#1_1" arrivalPos="274.68" arrivalSpeed="13.73" duration="253.00" routeLength="2250.49" waitingTime="74.00" waitingCount="2" stopTime="0.00" timeLoss="100.95" rerouteNo="1" devices="tripinfo_carIn107084:1 routing_carIn107084:1 emissions_carIn107084:1" vType="default_016" speedFactor="1.08" vaporized="">
        <emissions CO_abs="17748.719253" CO2_abs="675753.431826" HC_abs="96.546987" PMx_abs="13.183334" NOx_abs="282.342657" fuel_abs="290.482056" electricity_abs="0"/>
    </tripinfo>
    <tripinfo id="carIn28951:1" depart="57606.00" departLane="10425609#0_1" departPos="5.10" departSpeed="0.00" departDelay="0.20" arrival="57857.00" arrivalLane="-128361102#1_1" arrivalPos="274.68" arrivalSpeed="14.00" duration="251.00" routeLength="2113.04" waitingTime="71.00" waitingCount="3" stopTime="0.00" timeLoss="104.13" rerouteNo="1" devices="tripinfo_carIn28951:1 routing_carIn28951:1 emissions_carIn28951:1" vType="default_016" speedFactor="1.06" vaporized="">
        <emissions CO_abs="16548.036453" CO2_abs="659412.424826" HC_abs="90.656821" PMx_abs="12.486915" NOx_abs="273.182140" fuel_abs="283.457553" electricity_abs="0"/>
    </tripinfo>
    <tripinfo id="randUni15030:1" depart="57735.00" departLane="386687232#0_1" departPos="5.10" departSpeed="0.00" departDelay="0.10" arrival="57857.00" arrivalLane="26677539_1" arrivalPos="151.98" arrivalSpeed="7.36" duration="122.00" routeLength="919.89" waitingTime="25.00" waitingCount="1" stopTime="0.00" timeLoss="41.57" rerouteNo="1" devices="tripinfo_randUni15030:1 routing_randUni15030:1 emissions_randUni15030:1" vType="random_016" speedFactor="1.04" vaporized="">
        <emissions CO_abs="7772.082401" CO2_abs="296149.605644" HC_abs="42.300665" PMx_abs="5.482162" NOx_abs="122.940633" fuel_abs="127.304394" electricity_abs="0"/>
    </tripinfo>
    <tripinfo id="carIn12775:1" depart="57676.00" departLane="10425609#0_1" departPos="5.10" departSpeed="0.00" departDelay="0.60" arrival="57862.00" arrivalLane="18809673#0_1" arrivalPos="473.56" arrivalSpeed="13.07" duration="186.00" routeLength="1959.45" waitingTime="8.00" waitingCount="1" stopTime="0.00" timeLoss="41.10" rerouteNo="1" devices="tripinfo_carIn12775:1 routing_carIn12775:1 emissions_carIn12775:1" vType="default_016" speedFactor="1.01" vaporized="">
        <emissions CO_abs="6825.720050" CO2_abs="465003.563960" HC_abs="41.970491" PMx_abs="7.870616" NOx_abs="186.882875" fuel_abs="199.885494" electricity_abs="0"/>
    </tripinfo>
    <tripinfo id="carIn81046:1" depart="57611.00" departLane="124812856#0_1" departPos="5.10" departSpeed="0.00" departDelay="2.50" arrival="57863.00" arrivalLane="-128361102#1_1" arrivalPos="274.68" arrivalSpeed="12.23" duration="252.00" routeLength="2250.49" waitingTime="33.00" waitingCount="2" stopTime="0.00" timeLoss="73.32" rerouteNo="1" devices="tripinfo_carIn81046:1 routing_carIn81046:1 emissions_carIn81046:1" vType="default_016" speedFactor="0.92" vaporized="">
        <emissions CO_abs="11001.116817" CO2_abs="561576.137469" HC_abs="63.170327" PMx_abs="9.596955" NOx_abs="227.143692" fuel_abs="241.400117" electricity_abs="0"/>
    </tripinfo>
    <tripinfo id="randUni31145:1" depart="57814.00" departLane="10425609#0_1" departPos="5.10" departSpeed="0.00" departDelay="0.30" arrival="57866.00" arrivalLane="201956810_1" arrivalPos="71.65" arrivalSpeed="11.45" duration="52.00" routeLength="255.78" waitingTime="19.00" waitingCount="1" stopTime="0.00" timeLoss="29.46" rerouteNo="1" devices="tripinfo_randUni31145:1 routing_randUni31145:1 emissions_randUni31145:1" vType="random_016" speedFactor="0.90" vaporized="">
        <emissions CO_abs="4215.121146" CO2_abs="134916.240945" HC_abs="22.362338" PMx_abs="2.740507" NOx_abs="57.952970" fuel_abs="57.995956" electricity_abs="0"/>
    </tripinfo>
    <tripinfo id="randUni2407:1" depart="57820.00" departLane="10425609#0_1" departPos="5.10" departSpeed="0.00" departDelay="0.80" arrival="57868.00" arrivalLane="201956810_1" arrivalPos="71.65" arrivalSpeed="14.63" duration="48.00" routeLength="255.78" waitingTime="16.00" waitingCount="1" stopTime="0.00" timeLoss="29.07" rerouteNo="1" devices="tripinfo_randUni2407:1 routing_randUni2407:1 emissions_randUni2407:1" vType="random_016" speedFactor="1.08" vaporized="">
        <emissions CO_abs="3832.404394" CO2_abs="136257.988939" HC_abs="20.664458" PMx_abs="2.764602" NOx_abs="58.447707" fuel_abs="58.572377" electricity_abs="0"/>
    </tripinfo>
    <tripinfo id="carIn102915:1" depart="57643.00" departLane="128361102#0_1" departPos="5.10" departSpeed="0.00" departDelay="0.40" arrival="57876.00" arrivalLane="201956811#0_1" arrivalPos="40.40" arrivalSpeed="12.26" duration="233.00" routeLength="2067.33" waitingTime="41.00" waitingCount="2" stopTime="0.00" timeLoss="72.13" rerouteNo="1" devices="tripinfo_carIn102915:1 routing_carIn102915:1 emissions_carIn102915:1" vType="default_016" speedFactor="0.94" vaporized="">
        <emissions CO_abs="11249.608249" CO2_abs="542888.455318" HC_abs="63.910433" PMx_abs="9.591361" NOx_abs="221.413431" fuel_abs="233.367064" electricity_abs="0"/>
    </tripinfo>
    <tripinfo id="randUni33724:1" depart="57646.00" departLane="128361102#0_1" departPos="5.10" departSpeed="0.00" departDelay="1.20" arrival="57878.00" arrivalLane="201956811#0_1" arrivalPos="40.40" arrivalSpeed="13.56" duration="232.00" routeLength="2067.33" waitingTime="40.00" waitingCount="2" stopTime="0.00" timeLoss="84.13" rerouteNo="1" devices="tripinfo_randUni33724:1 routing_randUni33724:1 emissions_randUni33724:1" vType="random_016" speedFactor="1.03" vaporized="">
        <emissions CO_abs="12215.537027" CO2_abs="606026.419926" HC_abs="69.862386" PMx_abs="11.120604" NOx_abs="249.985658" fuel_abs="260.506727" electricity_abs="0"/>