<?xml version="1.0" encoding="UTF-8"?>

<!-- generated on 2021-10-26 21:05:52 by Eclipse SUMO sumo Version 1.10.0
<configuration xmlns:xsi="http://www.w3.org/2001/XMLSchema-instance" xsi:noNamespaceSchemaLocation="http://sumo.dlr.de/xsd/sumoConfiguration.xsd">

    <input>
        <net-file value="/Users/behradkoohy/sumo-scratchpad/RESCO/environments/ingolstadt21/ingolstadt21.net.xml"/>
        <route-files value="/Users/behradkoohy/sumo-scratchpad/RESCO/environments/ingolstadt21/ingolstadt21.rou.xml"/>
    </input>

    <output>
        <tripinfo-output value="/Users/behradkoohy/sumo-scratchpad/RESCO/logs/MPLight-tr0-ingolstadt21-21-mplight_full-pressure/tripinfo_32.xml"/>
        <tripinfo-output.write-unfinished value="true"/>
    </output>

    <time>
        <begin value="57600"/>
        <end value="61200"/>
    </time>

    <processing>
        <time-to-teleport value="-1"/>
    </processing>

    <report>
        <no-warnings value="true"/>
        <no-step-log value="true"/>
    </report>

    <emissions>
        <device.emissions.probability value="1"/>
    </emissions>

    <traci_server>
        <remote-port value="64777"/>
    </traci_server>

    <random_number>
        <random value="true"/>
    </random_number>

</configuration>
-->

<tripinfos xmlns:xsi="http://www.w3.org/2001/XMLSchema-instance" xsi:noNamespaceSchemaLocation="http://sumo.dlr.de/xsd/tripinfo_file.xsd">
    <tripinfo id="h15454c2:3" depart="57612.00" departLane="24608844_1" departPos="5.10" departSpeed="0.00" departDelay="0.50" arrival="57652.00" arrivalLane="32978638#0_1" arrivalPos="49.29" arrivalSpeed="13.53" duration="40.00" routeLength="354.79" waitingTime="0.00" waitingCount="0" stopTime="0.00" timeLoss="6.73" rerouteNo="1" devices="tripinfo_h15454c2:3 routing_h15454c2:3 emissions_h15454c2:3" vType="default_016" speedFactor="1.04" vaporized="">
        <emissions CO_abs="1938.435304" CO2_abs="106686.709490" HC_abs="11.324132" PMx_abs="1.894894" NOx_abs="43.965191" fuel_abs="45.860263" electricity_abs="0"/>
    </tripinfo>
    <tripinfo id="carIn60260:1" depart="57606.00" departLane="315358254#0_1" departPos="5.10" departSpeed="0.00" departDelay="0.90" arrival="57660.00" arrivalLane="399835085#1_1" arrivalPos="212.23" arrivalSpeed="8.14" duration="54.00" routeLength="430.98" waitingTime="0.00" waitingCount="0" stopTime="0.00" timeLoss="8.19" rerouteNo="1" devices="tripinfo_carIn60260:1 routing_carIn60260:1 emissions_carIn60260:1" vType="default_016" speedFactor="1.00" vaporized="">
        <emissions CO_abs="2246.975072" CO2_abs="109446.146148" HC_abs="12.763572" PMx_abs="1.850048" NOx_abs="44.765783" fuel_abs="47.046769" electricity_abs="0"/>
    </tripinfo>
    <tripinfo id="carIn53971:1" depart="57640.00" departLane="272042143_1" departPos="5.10" departSpeed="0.00" departDelay="0.80" arrival="57690.00" arrivalLane="24634414#1_1" arrivalPos="162.19" arrivalSpeed="9.05" duration="50.00" routeLength="493.04" waitingTime="0.00" waitingCount="0" stopTime="0.00" timeLoss="9.52" rerouteNo="1" devices="tripinfo_carIn53971:1 routing_carIn53971:1 emissions_carIn53971:1" vType="default_016" speedFactor="1.14" vaporized="">
        <emissions CO_abs="2513.422479" CO2_abs="145655.387015" HC_abs="14.863413" PMx_abs="2.602793" NOx_abs="60.011136" fuel_abs="62.611181" electricity_abs="0"/>
    </tripinfo>
    <tripinfo id="carIn80064:1" depart="57603.00" departLane="128361109#1_1" departPos="5.10" departSpeed="0.00" departDelay="0.40" arrival="57730.00" arrivalLane="-315358254#1_1" arrivalPos="137.16" arrivalSpeed="15.19" duration="127.00" routeLength="1587.97" waitingTime="16.00" waitingCount="3" stopTime="0.00" timeLoss="50.46" rerouteNo="1" devices="tripinfo_carIn80064:1 routing_carIn80064:1 emissions_carIn80064:1" vType="default_016" speedFactor="1.16" vaporized="">
        <emissions CO_abs="9008.687966" CO2_abs="509936.427412" HC_abs="53.362155" PMx_abs="10.662955" NOx_abs="214.817009" fuel_abs="219.198783" electricity_abs="0"/>
    </tripinfo>
    <tripinfo id="h7181c1:1" depart="57660.00" departLane="315358254#0_1" departPos="5.10" departSpeed="0.00" departDelay="0.10" arrival="57740.00" arrivalLane="306240162#0_0" arrivalPos="220.43" arrivalSpeed="17.37" duration="80.00" routeLength="932.35" waitingTime="13.00" waitingCount="2" stopTime="0.00" timeLoss="33.12" rerouteNo="1" devices="tripinfo_h7181c1:1 routing_h7181c1:1 emissions_h7181c1:1" vType="default_016" speedFactor="1.10" vaporized="">
        <emissions CO_abs="6487.810347" CO2_abs="360497.234638" HC_abs="38.238248" PMx_abs="7.481784" NOx_abs="152.423919" fuel_abs="154.961673" electricity_abs="0"/>
    </tripinfo>
    <tripinfo id="carIn121703:1" depart="57647.00" departLane="386687232#0_1" departPos="5.10" departSpeed="0.00" departDelay="0.30" arrival="57745.00" arrivalLane="-315358244_1" arrivalPos="33.95" arrivalSpeed="15.34" duration="98.00" routeLength="1157.39" waitingTime="12.00" waitingCount="1" stopTime="0.00" timeLoss="26.02" rerouteNo="1" devices="tripinfo_carIn121703:1 routing_carIn121703:1 emissions_carIn121703:1" vType="default_016" speedFactor="1.17" vaporized="">
        <emissions CO_abs="3925.995703" CO2_abs="262397.151235" HC_abs="23.856429" PMx_abs="4.503224" NOx_abs="104.004938" fuel_abs="112.793634" electricity_abs="0"/>
    </tripinfo>
    <tripinfo id="h317c2:1" depart="57707.00" departLane="-32978638#0_1" departPos="5.10" departSpeed="0.00" departDelay="0.10" arrival="57747.00" arrivalLane="-266565295#5_1" arrivalPos="172.76" arrivalSpeed="11.99" duration="40.00" routeLength="370.53" waitingTime="1.00" waitingCount="1" stopTime="0.00" timeLoss="9.35" rerouteNo="1" devices="tripinfo_h317c2:1 routing_h317c2:1 emissions_h317c2:1" vType="default_016" speedFactor="0.90" vaporized="">
        <emissions CO_abs="1995.636983" CO2_abs="113319.304181" HC_abs="11.737426" PMx_abs="1.978717" NOx_abs="46.334546" fuel_abs="48.711358" electricity_abs="0"/>
    </tripinfo>
    <tripinfo id="h5979c1:5" depart="57669.00" departLane="399835085#1_1" departPos="5.10" departSpeed="0.00" departDelay="0.00" arrival="57758.00" arrivalLane="-315358254#1_1" arrivalPos="137.16" arrivalSpeed="13.74" duration="89.00" routeLength="659.33" waitingTime="3.00" waitingCount="1" stopTime="0.00" timeLoss="16.45" rerouteNo="1" devices="tripinfo_h5979c1:5 routing_h5979c1:5 emissions_h5979c1:5" vType="default_016" speedFactor="1.01" vaporized="">
        <emissions CO_abs="4146.515548" CO2_abs="202033.566694" HC_abs="23.556366" PMx_abs="3.409476" NOx_abs="82.445288" fuel_abs="86.846631" electricity_abs="0"/>
    </tripinfo>
    <tripinfo id="h3326c1:2" depart="57656.00" departLane="22716069#0_1" departPos="5.10" departSpeed="0.00" departDelay="0.00" arrival="57762.00" arrivalLane="24634517#13_1" arrivalPos="111.62" arrivalSpeed="14.57" duration="106.00" routeLength="1312.81" waitingTime="0.00" waitingCount="0" stopTime="0.00" timeLoss="15.16" rerouteNo="1" devices="tripinfo_h3326c1:2 routing_h3326c1:2 emissions_h3326c1:2" vType="default_016" speedFactor="1.07" vaporized="">
        <emissions CO_abs="4239.240649" CO2_abs="308682.158783" HC_abs="26.561747" PMx_abs="5.523731" NOx_abs="125.717905" fuel_abs="132.688804" electricity_abs="0"/>
    </tripinfo>
    <tripinfo id="h3154c1:1" depart="57658.00" departLane="24634507_1" departPos="5.10" departSpeed="0.00" departDelay="0.00" arrival="57765.00" arrivalLane="-266565295#5_1" arrivalPos="172.76" arrivalSpeed="12.99" duration="107.00" routeLength="1206.22" waitingTime="0.00" waitingCount="0" stopTime="0.00" timeLoss="12.28" rerouteNo="1" devices="tripinfo_h3154c1:1 routing_h3154c1:1 emissions_h3154c1:1" vType="default_016" speedFactor="0.94" vaporized="">
        <emissions CO_abs="3712.869690" CO2_abs="268558.765423" HC_abs="23.185515" PMx_abs="4.459771" NOx_abs="107.587041" fuel_abs="115.442043" electricity_abs="0"/>
    </tripinfo>
    <tripinfo id="h7800c1:5" depart="57696.00" departLane="-447569998#1_1" departPos="5.10" departSpeed="0.00" departDelay="0.00" arrival="57765.00" arrivalLane="-447569998#1_2" arrivalPos="180.76" arrivalSpeed="3.88" duration="69.00" routeLength="175.66" waitingTime="45.00" waitingCount="1" stopTime="0.00" timeLoss="49.93" rerouteNo="1" devices="tripinfo_h7800c1:5 routing_h7800c1:5 emissions_h7800c1:5" vType="default_016" speedFactor="1.12" vaporized="">
        <emissions CO_abs="7892.909986" CO2_abs="161868.865533" HC_abs="39.727795" PMx_abs="3.658652" NOx_abs="71.869211" fuel_abs="69.583850" electricity_abs="0"/>
    </tripinfo>
    <tripinfo id="carIn30817:1" depart="57681.00" departLane="315358244_1" departPos="5.10" departSpeed="0.00" departDelay="0.20" arrival="57774.00" arrivalLane="447569997#1_1" arrivalPos="180.93" arrivalSpeed="8.46" duration="93.00" routeLength="718.04" waitingTime="24.00" waitingCount="1" stopTime="0.00" timeLoss="37.01" rerouteNo="1" devices="tripinfo_carIn30817:1 routing_carIn30817:1 emissions_carIn30817:1" vType="default_016" speedFactor="1.10" vaporized="">
        <emissions CO_abs="6469.140569" CO2_abs="241676.178275" HC_abs="35.118825" PMx_abs="4.584456" NOx_abs="100.728882" fuel_abs="103.888138" electricity_abs="0"/>
    </tripinfo>
    <tripinfo id="carIn107084:1" depart="57601.00" departLane="124812856#0_1" departPos="5.10" departSpeed="0.00" departDelay="0.70" arrival="57779.00" arrivalLane="-128361102#1_1" arrivalPos="274.68" arrivalSpeed="14.13" duration="178.00" routeLength="2250.49" waitingTime="1.00" waitingCount="1" stopTime="0.00" timeLoss="23.49" rerouteNo="1" devices="tripinfo_carIn107084:1 routing_carIn107084:1 emissions_carIn107084:1" vType="default_016" speedFactor="1.06" vaporized="">
        <emissions CO_abs="5593.713526" CO2_abs="464689.389735" HC_abs="36.296566" PMx_abs="7.771638" NOx_abs="184.532992" fuel_abs="199.749686" electricity_abs="0"/>
    </tripinfo>
    <tripinfo id="carIn12365:1" depart="57713.00" departLane="315358244_1" departPos="5.10" departSpeed="0.00" departDelay="0.50" arrival="57779.00" arrivalLane="447569997#1_1" arrivalPos="180.93" arrivalSpeed="7.94" duration="66.00" routeLength="718.04" waitingTime="0.00" waitingCount="0" stopTime="0.00" timeLoss="7.50" rerouteNo="1" devices="tripinfo_carIn12365:1 routing_carIn12365:1 emissions_carIn12365:1" vType="default_016" speedFactor="1.06" vaporized="">
        <emissions CO_abs="2256.313228" CO2_abs="153869.659374" HC_abs="13.855897" PMx_abs="2.493365" NOx_abs="61.232151" fuel_abs="66.142258" electricity_abs="0"/>
    </tripinfo>
    <tripinfo id="h3568c1:3" depart="57656.00" departLane="266565295#5_1" departPos="5.10" departSpeed="0.00" departDelay="0.80" arrival="57781.00" arrivalLane="-24634415_1" arrivalPos="62.03" arrivalSpeed="11.47" duration="125.00" routeLength="807.40" waitingTime="30.00" waitingCount="2" stopTime="0.00" timeLoss="51.64" rerouteNo="1" devices="tripinfo_h3568c1:3 routing_h3568c1:3 emissions_h3568c1:3" vType="default_016" speedFactor="0.88" vaporized="">
        <emissions CO_abs="8601.714250" CO2_abs="314517.497058" HC_abs="46.536563" PMx_abs="6.078264" NOx_abs="132.830007" fuel_abs="135.199953" electricity_abs="0"/>
    </tripinfo>
    <tripinfo id="carIn107282:1" depart="57749.00" departLane="-447569998#1_1" departPos="5.10" departSpeed="0.00" departDelay="0.00" arrival="57799.00" arrivalLane="315358242#0_1" arrivalPos="165.37" arrivalSpeed="12.99" duration="50.00" routeLength="448.50" waitingTime="0.00" waitingCount="0" stopTime="0.00" timeLoss="5.73" rerouteNo="1" devices="tripinfo_carIn107282:1 routing_carIn107282:1 emissions_carIn107282:1" vType="default_016" speedFactor="0.94" vaporized="">
        <emissions CO_abs="1987.258743" CO2_abs="111151.743029" HC_abs="11.623223" PMx_abs="1.820055" NOx_abs="44.742923" fuel_abs="47.779814" electricity_abs="0"/>
    </tripinfo>
    <tripinfo id="h645c1:1" depart="57622.00" departLane="266565295#5_1" departPos="5.10" departSpeed="0.00" departDelay="0.40" arrival="57804.00" arrivalLane="-315358244_1" arrivalPos="33.95" arrivalSpeed="13.42" duration="182.00" routeLength="1910.83" waitingTime="18.00" waitingCount="2" stopTime="0.00" timeLoss="40.92" rerouteNo="1" devices="tripinfo_h645c1:1 routing_h645c1:1 emissions_h645c1:1" vType="default_016" speedFactor="0.98" vaporized="">
        <emissions CO_abs="6830.341504" CO2_abs="400361.893827" HC_abs="40.445772" PMx_abs="6.716124" NOx_abs="160.150727" fuel_abs="172.099703" electricity_abs="0"/>
    </tripinfo>
    <tripinfo id="h4538c1:1" depart="57701.00" departLane="-10427692#1_1" departPos="5.10" departSpeed="0.00" departDelay="0.00" arrival="57818.00" arrivalLane="-128361102#1_1" arrivalPos="274.68" arrivalSpeed="12.60" duration="117.00" routeLength="440.74" waitingTime="72.00" waitingCount="1" stopTime="0.00" timeLoss="83.84" rerouteNo="1" devices="tripinfo_h4538c1:1 routing_h4538c1:1 emissions_h4538c1:1" vType="default_016" speedFactor="0.97" vaporized="">
        <emissions CO_abs="13201.036266" CO2_abs="296000.412192" HC_abs="67.034530" PMx_abs="6.485266" NOx_abs="129.387911" fuel_abs="127.243370" electricity_abs="0"/>
    </tripinfo>
    <tripinfo id="carIn129809:1" depart="57729.00" departLane="-447569998#1_1" departPos="5.10" departSpeed="0.00" departDelay="1.00" arrival="57823.00" arrivalLane="-315358244_1" arrivalPos="33.95" arrivalSpeed="14.20" duration="94.00" routeLength="706.49" waitingTime="20.00" waitingCount="2" stopTime="0.00" timeLoss="38.60" rerouteNo="1" devices="tripinfo_carIn129809:1 routing_carIn129809:1 emissions_carIn129809:1" vType="default_015" speedFactor="1.08" vaporized="">
        <emissions CO_abs="5564.203100" CO2_abs="233172.246733" HC_abs="30.760111" PMx_abs="4.316727" NOx_abs="96.588866" fuel_abs="100.232161" electricity_abs="0"/>
    </tripinfo>
    <tripinfo id="randUni15030:1" depart="57735.00" departLane="386687232#0_1" departPos="5.10" departSpeed="0.00" departDelay="0.10" arrival="57825.00" arrivalLane="26677539_1" arrivalPos="151.98" arrivalSpeed="8.18" duration="90.00" routeLength="919.89" waitingTime="0.00" waitingCount="0" stopTime="0.00" timeLoss="9.79" rerouteNo="1" devices="tripinfo_randUni15030:1 routing_randUni15030:1 emissions_randUni15030:1" vType="random_016" speedFactor="1.04" vaporized="">
        <emissions CO_abs="3156.893078" CO2_abs="212939.750131" HC_abs="19.241916" PMx_abs="3.411312" NOx_abs="84.515926" fuel_abs="91.534139" electricity_abs="0"/>
    </tripinfo>
    <tripinfo id="h11737c1:1" depart="57665.00" departLane="272042143_1" departPos="5.10" departSpeed="0.00" departDelay="1.50" arrival="57827.00" arrivalLane="-315358254#1_1" arrivalPos="137.16" arrivalSpeed="12.88" duration="162.00" routeLength="1596.88" waitingTime="25.00" waitingCount="1" stopTime="0.00" timeLoss="41.39" rerouteNo="1" devices="tripinfo_h11737c1:1 routing_h11737c1:1 emissions_h11737c1:1" vType="default_016" speedFactor="0.97" vaporized="">
        <emissions CO_abs="7453.938596" CO2_abs="379394.904687" HC_abs="42.798254" PMx_abs="6.577283" NOx_abs="153.310977" fuel_abs="163.087321" electricity_abs="0"/>
    </tripinfo>
    <tripinfo id="h330c1:1" depart="57736.00" departLane="-32978638#0_1" departPos="5.10" departSpeed="0.00" departDelay="0.20" arrival="57827.00" arrivalLane="-266565295#5_1" arrivalPos="172.76" arrivalSpeed="12.04" duration="91.00" routeLength="370.53" waitingTime="51.00" waitingCount="1" stopTime="0.00" timeLoss="60.35" rerouteNo="1" devices="tripinfo_h330c1:1 routing_h330c1:1 emissions_h330c1:1" vType="default_016" speedFactor="0.90" vaporized="">
        <emissions CO_abs="9500.804649" CO2_abs="230567.975349" HC_abs="48.666513" PMx_abs="4.956460" NOx_abs="100.350799" fuel_abs="99.115017" electricity_abs="0"/>
    </tripinfo>
    <tripinfo id="carIn22761:1" depart="57616.00" departLane="-306240162#1_0" departPos="5.10" departSpeed="0.00" departDelay="2.10" arrival="57829.00" arrivalLane="399835085#1_1" arrivalPos="212.23" arrivalSpeed="6.83" duration="213.00" routeLength="1093.26" waitingTime="104.00" waitingCount="2" stopTime="0.00" timeLoss="127.53" rerouteNo="1" devices="tripinfo_carIn22761:1 routing_carIn22761:1 emissions_carIn22761:1" vType="default_016" speedFactor="0.91" vaporized="">
        <emissions CO_abs="21570.525166" CO2_abs="567580.168605" HC_abs="111.534067" PMx_abs="12.072243" NOx_abs="245.138133" fuel_abs="243.986307" electricity_abs="0"/>
    </tripinfo>
    <tripinfo id="h17600c1:1" depart="57662.00" departLane="272042143_1" departPos="5.10" departSpeed="0.00" departDelay="0.30" arrival="57829.00" arrivalLane="201238729#3_1" arrivalPos="431.02" arrivalSpeed="14.66" duration="167.00" routeLength="2100.26" waitingTime="9.00" waitingCount="1" stopTime="0.00" timeLoss="26.63" rerouteNo="1" devices="tripinfo_h17600c1:1 routing_h17600c1:1 emissions_h17600c1:1" vType="default_016" speedFactor="1.08" vaporized="">
        <emissions CO_abs="5735.633229" CO2_abs="447658.723653" HC_abs="36.513797" PMx_abs="7.521770" NOx_abs="177.431056" fuel_abs="192.429242" electricity_abs="0"/>
    </tripinfo>
    <tripinfo id="carIn126288:1" depart="57674.00" departLane="272042143_1" departPos="5.10" departSpeed="0.00" departDelay="0.00" arrival="57829.00" arrivalLane="-315358254#1_1" arrivalPos="137.16" arrivalSpeed="15.71" duration="155.00" routeLength="1596.88" waitingTime="25.00" waitingCount="1" stopTime="0.00" timeLoss="53.41" rerouteNo="1" devices="tripinfo_carIn126288:1 routing_carIn126288:1 emissions_carIn126288:1" vType="default_016" speedFactor="1.15" vaporized="">
        <emissions CO_abs="8011.377055" CO2_abs="423620.247762" HC_abs="46.376392" PMx_abs="7.726575" NOx_abs="173.318652" fuel_abs="182.097269" electricity_abs="0"/>
    </tripinfo>
    <tripinfo id="carIn12858:1" depart="57661.00" departLane="128361109#1_1" departPos="5.10" departSpeed="0.00" departDelay="0.90" arrival="57832.00" arrivalLane="399835085#1_1" arrivalPos="212.23" arrivalSpeed="6.46" duration="171.00" routeLength="1738.12" waitingTime="14.00" waitingCount="2" stopTime="0.00" timeLoss="43.96" rerouteNo="1" devices="tripinfo_carIn12858:1 routing_carIn12858:1 emissions_carIn12858:1" vType="default_016" speedFactor="0.91" vaporized="">
        <emissions CO_abs="8490.142390" CO2_abs="482012.978581" HC_abs="50.094368" PMx_abs="9.112033" NOx_abs="199.068754" fuel_abs="207.196964" electricity_abs="0"/>
    </tripinfo>
    <tripinfo id="carIn27009:1" depart="57673.00" departLane="-447569998#1_1" departPos="5.10" departSpeed="0.00" departDelay="0.50" arrival="57833.00" arrivalLane="-26677539_1" arrivalPos="152.75" arrivalSpeed="8.56" duration="160.00" routeLength="699.63" waitingTime="62.00" waitingCount="1" stopTime="0.00" timeLoss="78.38" rerouteNo="1" devices="tripinfo_carIn27009:1 routing_carIn27009:1 emissions_carIn27009:1" vType="default_015" speedFactor="1.03" vaporized="">
        <emissions CO_abs="13302.183041" CO2_abs="341597.656205" HC_abs="68.520236" PMx_abs="6.990696" NOx_abs="147.328831" fuel_abs="146.843493" electricity_abs="0"/>
    </tripinfo>
    <tripinfo id="h3688c1:1" depart="57625.00" departLane="201201950#1_1" departPos="5.10" departSpeed="0.00" departDelay="0.00" arrival="57834.00" arrivalLane="32978638#0_1" arrivalPos="49.29" arrivalSpeed="13.20" duration="209.00" routeLength="1089.75" waitingTime="111.00" waitingCount="1" stopTime="0.00" timeLoss="130.05" rerouteNo="1" devices="tripinfo_h3688c1:1 routing_h3688c1:1 emissions_h3688c1:1" vType="default_016" speedFactor="1.01" vaporized="">
        <emissions CO_abs="21320.168437" CO2_abs="540962.379680" HC_abs="109.790185" PMx_abs="11.632141" NOx_abs="234.679595" fuel_abs="232.544529" electricity_abs="0"/>
    </tripinfo>
    <tripinfo id="randUni31145:1" depart="57814.00" departLane="10425609#0_1" departPos="5.10" departSpeed="0.00" departDelay="0.30" arrival="57839.00" arrivalLane="201956810_1" arrivalPos="71.65" arrivalSpeed="14.21" duration="25.00" routeLength="255.78" waitingTime="0.00" waitingCount="0" stopTime="0.00" timeLoss="6.07" rerouteNo="1" devices="tripinfo_randUni31145:1 routing_randUni31145:1 emissions_randUni31145:1" vType="random_016" speedFactor="1.05" vaporized="">
        <emissions CO_abs="1631.901974" CO2_abs="95766.568165" HC_abs="9.689746" PMx_abs="1.805157" NOx_abs="40.030638" fuel_abs="41.165898" electricity_abs="0"/>
    </tripinfo>
    <tripinfo id="carIn28951:1" depart="57606.00" departLane="10425609#0_1" departPos="5.10" departSpeed="0.00" departDelay="0.20" arrival="57842.00" arrivalLane="-128361102#1_1" arrivalPos="274.68" arrivalSpeed="15.55" duration="236.00" routeLength="2095.01" waitingTime="65.00" waitingCount="2" stopTime="0.00" timeLoss="102.91" rerouteNo="1" devices="tripinfo_carIn28951:1 routing_carIn28951:1 emissions_carIn28951:1" vType="default_016" speedFactor="1.16" vaporized="">
        <emissions CO_abs="16221.298000" CO2_abs="685150.466316" HC_abs="89.869942" PMx_abs="13.290138" NOx_abs="285.586263" fuel_abs="294.520124" electricity_abs="0"/>
    </tripinfo>
    <tripinfo id="randUni2407:1" depart="57820.00" departLane="10425609#0_1" departPos="5.10" departSpeed="0.00" departDelay="0.80" arrival="57845.00" arrivalLane="201956810_1" arrivalPos="71.65" arrivalSpeed="13.67" duration="25.00" routeLength="255.78" waitingTime="0.00" waitingCount="0" stopTime="0.00" timeLoss="6.48" rerouteNo="1" devices="tripinfo_randUni2407:1 routing_randUni2407:1 emissions_randUni2407:1" vType="random_016" speedFactor="1.05" vaporized="">
        <emissions CO_abs="1614.323017" CO2_abs="95510.508931" HC_abs="9.605013" PMx_abs="1.760528" NOx_abs="39.623281" fuel_abs="41.055885" electricity_abs="0"/>
    </tripinfo>
    <tripinfo id="carIn12152:1" depart="57647.00" departLane="24599188#0.94_1" departPos="5.10" departSpeed="0.00" departDelay="0.50" arrival="57847.00" arrivalLane="-315358254#1_1" arrivalPos="137.16" arrivalSpeed="12.97" duration="200.00" routeLength="2034.31" waitingTime="9.00" waitingCount="2" stopTime="0.00" timeLoss="34.96" rerouteNo="1" devices="tripinfo_carIn12152:1 routing_carIn12152:1 emissions_carIn12152:1" vType="default_016" speedFactor="0.96" vaporized="">
        <emissions CO_abs="6344.553829" CO2_abs="428242.839115" HC_abs="38.859612" PMx_abs="6.938157" NOx_abs="170.192788" fuel_abs="184.084119" electricity_abs="0"/>
    </tripinfo>
    <tripinfo id="h12244c1:3" depart="57612.00" departLane="315358244_1" departPos="5.10" departSpeed="0.00" departDelay="0.40" arrival="57852.00" arrivalLane="386687235_1" arrivalPos="80.84" arrivalSpeed="14.66" duration="240.00" routeLength="1186.14" waitingTime="135.00" waitingCount="3" stopTime="0.00" timeLoss="159.95" rerouteNo="1" devices="tripinfo_h12244c1:3 routing_h12244c1:3 emissions_h12244c1:3" vType="default_016" speedFactor="1.09" vaporized="">
        <emissions CO_abs="24557.976112" CO2_abs="614021.314167" HC_abs="126.134294" PMx_abs="13.126642" NOx_abs="265.024134" fuel_abs="263.951006" electricity_abs="0"/>
    </tripinfo>
    <tripinfo id="carIn118591:1" depart="57689.00" departLane="315358244_1" departPos="5.10" departSpeed="0.00" departDelay="0.20" arrival="57854.00" arrivalLane="386687235_1" arrivalPos="80.84" arrivalSpeed="14.48" duration="165.00" routeLength="1186.14" waitingTime="62.00" waitingCount="3" stopTime="0.00" timeLoss="87.34" rerouteNo="1" devices="tripinfo_carIn118591:1 routing_carIn118591:1 emissions_carIn118591:1" vType="default_016" speedFactor="1.12" vaporized="">
        <emissions CO_abs="12345.845642" CO2_abs="421891.485232" HC_abs="66.045262" PMx_abs="8.391686" NOx_abs="177.459024" fuel_abs="181.356775" electricity_abs="0"/>
    </tripinfo>
    <tripinfo id="carIn77943:1" depart="57608.00" departLane="124812856#0_1" departPos="5.10" departSpeed="0.00" departDelay="2.50" arrival="57857.00" arrivalLane="-128361102#1_1" arrivalPos="274.68" arrivalSpeed="10.59" duration="249.00" routeLength="2232.46" waitingTime="10.00" waitingCount="2" stopTime="0.00" timeLoss="43.11" rerouteNo="1" devices="tripinfo_carIn77943:1 routing_carIn77943:1 emissions_carIn77943:1" vType="default_016" speedFactor="0.80" vaporized="">
        <emissions CO_abs="7945.539039" CO2_abs="494913.828941" HC_abs="47.590957" PMx_abs="7.682561" NOx_abs="196.328733" fuel_abs="212.744106" electricity_abs="0"/>
    </tripinfo>
    <tripinfo id="carIn50326:1" depart="57651.00" departLane="128361102#0_1" departPos="5.10" departSpeed="0.00" departDelay="0.30" arrival="57857.00" arrivalLane="18809673#0_1" arrivalPos="473.56" arrivalSpeed="13.61" duration="206.00" routeLength="1591.07" waitingTime="49.00" waitingCount="2" stopTime="0.00" timeLoss="76.04" rerouteNo="1" devices="tripinfo_carIn50326:1 routing_carIn50326:1 emissions_carIn50326:1" vType="default_016" speedFactor="1.00" vaporized="">
        <emissions CO_abs="12052.608830" CO2_abs="474100.554727" HC_abs="65.911075" PMx_abs="8.571393" NOx_abs="194.813713" fuel_abs="203.799352" electricity_abs="0"/>
    </tripinfo>
    <tripinfo id="carIn8642:1" depart="57774.00" departLane="-447569998#1_1" departPos="5.10" departSpeed="0.00" departDelay="0.90" arrival="57861.00" arrivalLane="-315358244_1" arrivalPos="33.95" arrivalSpeed="15.04" duration="87.00" routeLength="706.49" waitingTime="23.00" waitingCount="1" stopTime="0.00" timeLoss="33.71" rerouteNo="1" devices="tripinfo_carIn8642:1 routing_carIn8642:1 emissions_carIn8642:1" vType="default_016" speedFactor="1.14" vaporized="">
        <emissions CO_abs="5349.800864" CO2_abs="218726.617161" HC_abs="29.347252" PMx_abs="3.952893" NOx_abs="89.087200" fuel_abs="94.022852" electricity_abs="0"/>
    </tripinfo>
    <tripinfo id="S5R_frequency1.2" depart="57612.00" departLane="315358250#0_1" departPos="12.10" departSpeed="0.00" departDelay="0.40" arrival="57862.00" arrivalLane="386687235_1" arrivalPos="80.84" arrivalSpeed="13.30" duration="250.00" routeLength="1115.62" waitingTime="142.00" waitingCount="3" stopTime="0.00" timeLoss="168.39" rerouteNo="1" devices="tripinfo_S5R_frequency1.2 routing_S5R_frequency1.2 emissions_S5R_frequency1.2" vType="bus" speedFactor="1.00" vaporized="">
        <emissions CO_abs="4716.499959" CO2_abs="1955647.799668" HC_abs="1072.017383" PMx_abs="484.157934" NOx_abs="17862.062455" fuel_abs="833.745974" electricity_abs="0"/>
    </tripinfo>
    <tripinfo id="carIn73855:1" depart="57743.00" departLane="386687232#0_1" departPos="5.10" departSpeed="0.00" departDelay="0.50" arrival="57871.00" arrivalLane="-315358244_1" arrivalPos="33.95" arrivalSpeed="14.60" duration="128.00" routeLength="1157.39" waitingTime="34.00" waitingCount="2" stopTime="0.00" timeLoss="53.54" rerouteNo="1" devices="tripinfo_carIn73855:1 routing_carIn73855:1 emissions_carIn73855:1" vType="default_016" speedFactor="1.13" vaporized="">
        <emissions CO_abs="7425.170789" CO2_abs="330189.053524" HC_abs="41.366342" PMx_abs="6.163435" NOx_abs="135.534074" fuel_abs="141.935779" electricity_abs="0"/>
    </tripinfo>
    <tripinfo id="h9563c2:5" depart="57631.00" departLane="315358244_1" departPos="5.10" departSpeed="0.00" departDelay="0.70" arrival="57872.00" arrivalLane="386687235_1" arrivalPos="80.84" arrivalSpeed="13.20" duration="241.00" routeLength="1186.14" waitingTime="114.00" waitingCount="4" stopTime="0.00" timeLoss="154.17" rerouteNo="1" devices="tripinfo_h9563c2:5 routing_h9563c2:5 emissions_h9563c2:5" vType="default_016" speedFactor="1.00" vaporized="">
        <emissions CO_abs="22292.509096" CO2_abs="580096.686940" HC_abs="115.045744" PMx_abs="11.955217" NOx_abs="248.196769" fuel_abs="249.367582" electricity_abs="0"/>
    </tripinfo>
    <tripinfo id="carIn126378:1" depart="57746.00" departLane="386687232#0_1" departPos="5.10" departSpeed="0.00" departDelay="1.80" arrival="57873.00" arrivalLane="-315358244_1" arrivalPos="33.95" arrivalSpeed="15.17" duration="127.00" routeLength="1157.39" waitingTime="31.00" waitingCount="2" stopTime="0.00" timeLoss="49.34" rerouteNo="1" devices="tripinfo_carIn126378:1 routing_carIn126378:1 emissions_carIn126378:1" vType="default_016" speedFactor="1.09" vaporized="">
        <emissions CO_abs="7106.735962" CO2_abs="335863.372222" HC_abs="40.103377" PMx_abs="6.076218" NOx_abs="136.711563" fuel_abs="144.374873" electricity_abs="0"/>
    </tripinfo>
    <tripinfo id="carIn13443:1" depart="57729.00" departLane="272042143_1" departPos="5.10" departSpeed="0.00" departDelay="0.80" arrival="57875.00" arrivalLane="399835085#1_1" arrivalPos="212.23" arrivalSpeed="8.26" duration="146.00" routeLength="1757.45" waitingTime="0.00" waitingCount="0" stopTime="0.00" timeLoss="13.78" rerouteNo="1" devices="tripinfo_carIn13443:1 routing_carIn13443:1 emissions_carIn13443:1" vType="default_016" speedFactor="1.07" vaporized="">
        <emissions CO_abs="4144.277858" CO2_abs="348884.088361" HC_abs="26.954169" PMx_abs="5.580644" NOx_abs="136.997087" fuel_abs="149.970374" electricity_abs="0"/>
    </tripinfo>
    <tripinfo id="h5239c1:3" depart="57834.00" departLane="315358254#0_1" departPos="5.10" departSpeed="0.00" departDelay="0.80" arrival="57881.00" arrivalLane="224892361#3_1" arrivalPos="220.30" arrivalSpeed="25.32" duration="47.00" routeLength="793.34" waitingTime="0.00" waitingCount="0" stopTime="0.00" timeLoss="13.25" rerouteNo="1" devices="tripinfo_h5239c1:3 routing_h5239c1:3 emissions_h5239c1:3" vType="default_016" speedFactor="1.18" vaporized="">
        <emissions CO_abs="4882.338479" CO2_abs="307947.836195" HC_abs="29.697668" PMx_abs="6.581629" NOx_abs="129.449291" fuel_abs="132.372374" electricity_abs="0"/>
    </tripinfo>
    <tripinfo id="h2831c1:1" depart="57600.00" departLane="201089423#0_1" departPos="5.10" departSpeed="0.00" departDelay="0.00" arrival="57883.00" arrivalLane="-315358244_1" arrivalPos="33.95" arrivalSpeed="15.15" duration="283.00" routeLength="2672.18" waitingTime="78.00" waitingCount="2" stopTime="0.00" timeLoss="108.31" rerouteNo="1" devices="tripinfo_h2831c1:1 routing_h2831c1:1 emissions_h2831c1:1" vType="default_016" speedFactor="1.11" vaporized="">
        <emissions CO_abs="17547.712707" CO2_abs="716053.691029" HC_abs="96.303851" PMx_abs="13.313606" NOx_abs="293.054201" fuel_abs="307.805768" electricity_abs="0"/>
    </tripinfo>