<?xml version="1.0" encoding="UTF-8"?>

<!-- generated on 2021-10-26 20:56:53 by Eclipse SUMO sumo Version 1.10.0
<configuration xmlns:xsi="http://www.w3.org/2001/XMLSchema-instance" xsi:noNamespaceSchemaLocation="http://sumo.dlr.de/xsd/sumoConfiguration.xsd">

    <input>
        <net-file value="/Users/behradkoohy/sumo-scratchpad/RESCO/environments/ingolstadt21/ingolstadt21.net.xml"/>
        <route-files value="/Users/behradkoohy/sumo-scratchpad/RESCO/environments/ingolstadt21/ingolstadt21.rou.xml"/>
    </input>

    <output>
        <tripinfo-output value="/Users/behradkoohy/sumo-scratchpad/RESCO/logs/MPLight-tr0-ingolstadt21-21-mplight_full-pressure/tripinfo_23.xml"/>
        <tripinfo-output.write-unfinished value="true"/>
    </output>

    <time>
        <begin value="57600"/>
        <end value="61200"/>
    </time>

    <processing>
        <time-to-teleport value="-1"/>
    </processing>

    <report>
        <no-warnings value="true"/>
        <no-step-log value="true"/>
    </report>

    <emissions>
        <device.emissions.probability value="1"/>
    </emissions>

    <traci_server>
        <remote-port value="64669"/>
    </traci_server>

    <random_number>
        <random value="true"/>
    </random_number>

</configuration>
-->

<tripinfos xmlns:xsi="http://www.w3.org/2001/XMLSchema-instance" xsi:noNamespaceSchemaLocation="http://sumo.dlr.de/xsd/tripinfo_file.xsd">
    <tripinfo id="h15454c2:3" depart="57612.00" departLane="24608844_1" departPos="5.10" departSpeed="0.00" departDelay="0.50" arrival="57650.00" arrivalLane="32978638#0_1" arrivalPos="49.29" arrivalSpeed="14.10" duration="38.00" routeLength="354.79" waitingTime="0.00" waitingCount="0" stopTime="0.00" timeLoss="4.99" rerouteNo="1" devices="tripinfo_h15454c2:3 routing_h15454c2:3 emissions_h15454c2:3" vType="default_016" speedFactor="1.06" vaporized="">
        <emissions CO_abs="1734.003958" CO2_abs="106787.527637" HC_abs="10.394913" PMx_abs="1.844005" NOx_abs="43.457650" fuel_abs="45.903526" electricity_abs="0"/>
    </tripinfo>
    <tripinfo id="carIn60260:1" depart="57606.00" departLane="315358254#0_1" departPos="5.10" departSpeed="0.00" departDelay="0.90" arrival="57671.00" arrivalLane="399835085#1_1" arrivalPos="212.23" arrivalSpeed="8.87" duration="65.00" routeLength="430.98" waitingTime="11.00" waitingCount="1" stopTime="0.00" timeLoss="21.36" rerouteNo="1" devices="tripinfo_carIn60260:1 routing_carIn60260:1 emissions_carIn60260:1" vType="default_016" speedFactor="1.07" vaporized="">
        <emissions CO_abs="4064.570663" CO2_abs="152192.526468" HC_abs="22.051261" PMx_abs="2.822945" NOx_abs="63.680959" fuel_abs="65.422266" electricity_abs="0"/>
    </tripinfo>
    <tripinfo id="carIn53971:1" depart="57640.00" departLane="272042143_1" departPos="5.10" departSpeed="0.00" departDelay="0.80" arrival="57697.00" arrivalLane="24634414#1_1" arrivalPos="162.19" arrivalSpeed="7.36" duration="57.00" routeLength="493.04" waitingTime="0.00" waitingCount="0" stopTime="0.00" timeLoss="8.65" rerouteNo="1" devices="tripinfo_carIn53971:1 routing_carIn53971:1 emissions_carIn53971:1" vType="default_016" speedFactor="0.95" vaporized="">
        <emissions CO_abs="2346.275248" CO2_abs="129043.773839" HC_abs="13.688300" PMx_abs="2.211261" NOx_abs="52.701243" fuel_abs="55.470773" electricity_abs="0"/>
    </tripinfo>
    <tripinfo id="h3688c1:1" depart="57625.00" departLane="201201950#1_1" departPos="5.10" departSpeed="0.00" departDelay="0.00" arrival="57713.00" arrivalLane="32978638#0_1" arrivalPos="49.29" arrivalSpeed="13.27" duration="88.00" routeLength="1089.75" waitingTime="0.00" waitingCount="0" stopTime="0.00" timeLoss="10.24" rerouteNo="1" devices="tripinfo_h3688c1:1 routing_h3688c1:1 emissions_h3688c1:1" vType="default_016" speedFactor="1.02" vaporized="">
        <emissions CO_abs="2883.407323" CO2_abs="231979.044009" HC_abs="18.543148" PMx_abs="3.925855" NOx_abs="92.806250" fuel_abs="99.717635" electricity_abs="0"/>
    </tripinfo>
    <tripinfo id="h7800c1:5" depart="57696.00" departLane="-447569998#1_1" departPos="5.10" departSpeed="0.00" departDelay="0.00" arrival="57725.00" arrivalLane="-447569998#1_2" arrivalPos="180.76" arrivalSpeed="5.13" duration="29.00" routeLength="175.66" waitingTime="2.00" waitingCount="1" stopTime="0.00" timeLoss="9.22" rerouteNo="1" devices="tripinfo_h7800c1:5 routing_h7800c1:5 emissions_h7800c1:5" vType="default_016" speedFactor="1.09" vaporized="">
        <emissions CO_abs="1248.633837" CO2_abs="51456.455690" HC_abs="6.880508" PMx_abs="0.929978" NOx_abs="21.520915" fuel_abs="22.119252" electricity_abs="0"/>
    </tripinfo>
    <tripinfo id="h7181c1:1" depart="57660.00" departLane="315358254#0_1" departPos="5.10" departSpeed="0.00" departDelay="0.10" arrival="57731.00" arrivalLane="306240162#0_0" arrivalPos="220.43" arrivalSpeed="15.90" duration="71.00" routeLength="932.35" waitingTime="7.00" waitingCount="1" stopTime="0.00" timeLoss="19.52" rerouteNo="1" devices="tripinfo_h7181c1:1 routing_h7181c1:1 emissions_h7181c1:1" vType="default_016" speedFactor="1.00" vaporized="">
        <emissions CO_abs="3667.842427" CO2_abs="250872.294889" HC_abs="22.615606" PMx_abs="4.755270" NOx_abs="102.008485" fuel_abs="107.838871" electricity_abs="0"/>
    </tripinfo>
    <tripinfo id="carIn22761:1" depart="57616.00" departLane="-306240162#1_0" departPos="5.10" departSpeed="0.00" departDelay="2.10" arrival="57732.00" arrivalLane="399835085#1_1" arrivalPos="212.23" arrivalSpeed="7.66" duration="116.00" routeLength="1093.26" waitingTime="16.00" waitingCount="1" stopTime="0.00" timeLoss="42.24" rerouteNo="1" devices="tripinfo_carIn22761:1 routing_carIn22761:1 emissions_carIn22761:1" vType="default_016" speedFactor="1.06" vaporized="">
        <emissions CO_abs="7526.289509" CO2_abs="361782.567741" HC_abs="42.859939" PMx_abs="7.244931" NOx_abs="152.820397" fuel_abs="155.515284" electricity_abs="0"/>
    </tripinfo>
    <tripinfo id="h3568c1:3" depart="57656.00" departLane="266565295#5_1" departPos="5.10" departSpeed="0.00" departDelay="0.80" arrival="57737.00" arrivalLane="-24634415_1" arrivalPos="62.03" arrivalSpeed="14.44" duration="81.00" routeLength="807.40" waitingTime="3.00" waitingCount="1" stopTime="0.00" timeLoss="22.14" rerouteNo="1" devices="tripinfo_h3568c1:3 routing_h3568c1:3 emissions_h3568c1:3" vType="default_016" speedFactor="1.10" vaporized="">
        <emissions CO_abs="4406.101487" CO2_abs="265139.837718" HC_abs="26.311116" PMx_abs="4.945997" NOx_abs="110.089289" fuel_abs="113.972152" electricity_abs="0"/>
    </tripinfo>
    <tripinfo id="h4538c1:1" depart="57701.00" departLane="-10427692#1_1" departPos="5.10" departSpeed="0.00" departDelay="0.00" arrival="57749.00" arrivalLane="-128361102#1_1" arrivalPos="274.68" arrivalSpeed="13.16" duration="48.00" routeLength="440.74" waitingTime="1.00" waitingCount="1" stopTime="0.00" timeLoss="14.20" rerouteNo="1" devices="tripinfo_h4538c1:1 routing_h4538c1:1 emissions_h4538c1:1" vType="default_016" speedFactor="0.95" vaporized="">
        <emissions CO_abs="2171.620252" CO2_abs="130215.553364" HC_abs="12.920995" PMx_abs="2.165629" NOx_abs="52.266321" fuel_abs="55.974458" electricity_abs="0"/>
    </tripinfo>
    <tripinfo id="carIn121703:1" depart="57647.00" departLane="386687232#0_1" departPos="5.10" departSpeed="0.00" departDelay="0.30" arrival="57753.00" arrivalLane="-315358244_1" arrivalPos="33.95" arrivalSpeed="13.91" duration="106.00" routeLength="1157.39" waitingTime="2.00" waitingCount="2" stopTime="0.00" timeLoss="22.36" rerouteNo="1" devices="tripinfo_carIn121703:1 routing_carIn121703:1 emissions_carIn121703:1" vType="default_016" speedFactor="1.01" vaporized="">
        <emissions CO_abs="4107.088758" CO2_abs="285522.820972" HC_abs="25.353295" PMx_abs="4.931023" NOx_abs="115.302345" fuel_abs="122.734040" electricity_abs="0"/>
    </tripinfo>
    <tripinfo id="h5979c1:5" depart="57669.00" departLane="399835085#1_1" departPos="5.10" departSpeed="0.00" departDelay="0.00" arrival="57754.00" arrivalLane="-315358254#1_1" arrivalPos="137.16" arrivalSpeed="14.75" duration="85.00" routeLength="659.33" waitingTime="0.00" waitingCount="0" stopTime="0.00" timeLoss="19.38" rerouteNo="1" devices="tripinfo_h5979c1:5 routing_h5979c1:5 emissions_h5979c1:5" vType="default_016" speedFactor="1.12" vaporized="">
        <emissions CO_abs="3802.558816" CO2_abs="188551.144539" HC_abs="21.713516" PMx_abs="3.360325" NOx_abs="78.170312" fuel_abs="81.050707" electricity_abs="0"/>
    </tripinfo>
    <tripinfo id="h3326c1:2" depart="57656.00" departLane="22716069#0_1" departPos="5.10" departSpeed="0.00" departDelay="0.00" arrival="57762.00" arrivalLane="24634517#13_1" arrivalPos="111.62" arrivalSpeed="14.21" duration="106.00" routeLength="1312.81" waitingTime="0.00" waitingCount="0" stopTime="0.00" timeLoss="14.27" rerouteNo="1" devices="tripinfo_h3326c1:2 routing_h3326c1:2 emissions_h3326c1:2" vType="default_016" speedFactor="1.07" vaporized="">
        <emissions CO_abs="4380.488880" CO2_abs="324805.745327" HC_abs="27.512604" PMx_abs="5.748436" NOx_abs="131.783513" fuel_abs="139.619647" electricity_abs="0"/>
    </tripinfo>
    <tripinfo id="S5R_frequency1.2" depart="57615.00" departLane="315358250#0_1" departPos="12.10" departSpeed="0.00" departDelay="3.40" arrival="57770.00" arrivalLane="386687235_1" arrivalPos="80.84" arrivalSpeed="13.45" duration="155.00" routeLength="1115.62" waitingTime="55.00" waitingCount="1" stopTime="0.00" timeLoss="72.98" rerouteNo="1" devices="tripinfo_S5R_frequency1.2 routing_S5R_frequency1.2 emissions_S5R_frequency1.2" vType="bus" speedFactor="1.00" vaporized="">
        <emissions CO_abs="3062.898770" CO2_abs="1536685.703300" HC_abs="676.053247" PMx_abs="320.174647" NOx_abs="12951.116702" fuel_abs="655.259066" electricity_abs="0"/>
    </tripinfo>
    <tripinfo id="carIn30817:1" depart="57681.00" departLane="315358244_1" departPos="5.10" departSpeed="0.00" departDelay="0.20" arrival="57784.00" arrivalLane="447569997#1_1" arrivalPos="180.93" arrivalSpeed="7.60" duration="103.00" routeLength="718.04" waitingTime="29.00" waitingCount="1" stopTime="0.00" timeLoss="42.38" rerouteNo="1" devices="tripinfo_carIn30817:1 routing_carIn30817:1 emissions_carIn30817:1" vType="default_016" speedFactor="1.02" vaporized="">
        <emissions CO_abs="7118.808617" CO2_abs="246495.443730" HC_abs="38.183374" PMx_abs="4.825266" NOx_abs="104.060882" fuel_abs="105.959949" electricity_abs="0"/>
    </tripinfo>
    <tripinfo id="h9563c2:5" depart="57631.00" departLane="315358244_1" departPos="5.10" departSpeed="0.00" departDelay="0.70" arrival="57787.00" arrivalLane="386687235_1" arrivalPos="80.84" arrivalSpeed="15.21" duration="156.00" routeLength="1186.14" waitingTime="53.00" waitingCount="3" stopTime="0.00" timeLoss="77.55" rerouteNo="1" devices="tripinfo_h9563c2:5 routing_h9563c2:5 emissions_h9563c2:5" vType="default_016" speedFactor="1.10" vaporized="">
        <emissions CO_abs="10766.036131" CO2_abs="387694.759709" HC_abs="58.004992" PMx_abs="7.577535" NOx_abs="162.364091" fuel_abs="166.656454" electricity_abs="0"/>
    </tripinfo>
    <tripinfo id="carIn27009:1" depart="57673.00" departLane="-447569998#1_1" departPos="5.10" departSpeed="0.00" departDelay="0.50" arrival="57789.00" arrivalLane="-26677539_1" arrivalPos="152.75" arrivalSpeed="7.99" duration="116.00" routeLength="699.63" waitingTime="23.00" waitingCount="1" stopTime="0.00" timeLoss="39.64" rerouteNo="1" devices="tripinfo_carIn27009:1 routing_carIn27009:1 emissions_carIn27009:1" vType="default_015" speedFactor="1.10" vaporized="">
        <emissions CO_abs="6605.359058" CO2_abs="237342.331431" HC_abs="35.571899" PMx_abs="4.303376" NOx_abs="98.933905" fuel_abs="102.025553" electricity_abs="0"/>
    </tripinfo>
    <tripinfo id="h11737c1:1" depart="57665.00" departLane="272042143_1" departPos="5.10" departSpeed="0.00" departDelay="1.50" arrival="57796.00" arrivalLane="-315358254#1_1" arrivalPos="137.16" arrivalSpeed="14.16" duration="131.00" routeLength="1596.88" waitingTime="0.00" waitingCount="0" stopTime="0.00" timeLoss="22.15" rerouteNo="1" devices="tripinfo_h11737c1:1 routing_h11737c1:1 emissions_h11737c1:1" vType="default_016" speedFactor="1.07" vaporized="">
        <emissions CO_abs="4642.883590" CO2_abs="361772.580902" HC_abs="29.553748" PMx_abs="6.054077" NOx_abs="144.095431" fuel_abs="155.510440" electricity_abs="0"/>
    </tripinfo>
    <tripinfo id="carIn107282:1" depart="57749.00" departLane="-447569998#1_1" departPos="5.10" departSpeed="0.00" departDelay="0.00" arrival="57807.00" arrivalLane="315358242#0_1" arrivalPos="165.37" arrivalSpeed="10.88" duration="58.00" routeLength="448.50" waitingTime="0.00" waitingCount="0" stopTime="0.00" timeLoss="6.22" rerouteNo="1" devices="tripinfo_carIn107282:1 routing_carIn107282:1 emissions_carIn107282:1" vType="default_016" speedFactor="0.81" vaporized="">
        <emissions CO_abs="2379.326791" CO2_abs="116967.880222" HC_abs="13.513261" PMx_abs="1.826042" NOx_abs="46.766273" fuel_abs="50.280301" electricity_abs="0"/>
    </tripinfo>
    <tripinfo id="h3154c1:1" depart="57658.00" departLane="24634507_1" departPos="5.10" departSpeed="0.00" departDelay="0.00" arrival="57809.00" arrivalLane="-266565295#5_1" arrivalPos="172.76" arrivalSpeed="9.91" duration="151.00" routeLength="1206.22" waitingTime="20.00" waitingCount="1" stopTime="0.00" timeLoss="39.47" rerouteNo="1" devices="tripinfo_h3154c1:1 routing_h3154c1:1 emissions_h3154c1:1" vType="default_016" speedFactor="0.80" vaporized="">
        <emissions CO_abs="7391.744989" CO2_abs="335871.653542" HC_abs="41.450509" PMx_abs="5.791008" NOx_abs="137.100443" fuel_abs="144.378907" electricity_abs="0"/>
    </tripinfo>
    <tripinfo id="h12244c1:3" depart="57612.00" departLane="315358244_1" departPos="5.10" departSpeed="0.00" departDelay="0.40" arrival="57813.00" arrivalLane="386687235_1" arrivalPos="80.84" arrivalSpeed="12.94" duration="201.00" routeLength="1186.14" waitingTime="87.00" waitingCount="4" stopTime="0.00" timeLoss="116.06" rerouteNo="1" devices="tripinfo_h12244c1:3 routing_h12244c1:3 emissions_h12244c1:3" vType="default_016" speedFactor="1.02" vaporized="">
        <emissions CO_abs="16708.299002" CO2_abs="499093.289815" HC_abs="87.790579" PMx_abs="10.144884" NOx_abs="212.362632" fuel_abs="214.544584" electricity_abs="0"/>
    </tripinfo>
    <tripinfo id="carIn12365:1" depart="57713.00" departLane="315358244_1" departPos="5.10" departSpeed="0.00" departDelay="0.50" arrival="57813.00" arrivalLane="447569997#1_1" arrivalPos="180.93" arrivalSpeed="7.60" duration="100.00" routeLength="718.04" waitingTime="16.00" waitingCount="1" stopTime="0.00" timeLoss="32.87" rerouteNo="1" devices="tripinfo_carIn12365:1 routing_carIn12365:1 emissions_carIn12365:1" vType="default_016" speedFactor="0.92" vaporized="">
        <emissions CO_abs="5054.543215" CO2_abs="217185.621317" HC_abs="28.059333" PMx_abs="3.819945" NOx_abs="89.228789" fuel_abs="93.360245" electricity_abs="0"/>
    </tripinfo>
    <tripinfo id="carIn126288:1" depart="57674.00" departLane="272042143_1" departPos="5.10" departSpeed="0.00" departDelay="0.00" arrival="57814.00" arrivalLane="-315358254#1_1" arrivalPos="137.16" arrivalSpeed="12.10" duration="140.00" routeLength="1596.88" waitingTime="0.00" waitingCount="0" stopTime="0.00" timeLoss="12.15" rerouteNo="1" devices="tripinfo_carIn126288:1 routing_carIn126288:1 emissions_carIn126288:1" vType="default_016" speedFactor="0.91" vaporized="">
        <emissions CO_abs="3846.846082" CO2_abs="314096.575160" HC_abs="24.812364" PMx_abs="4.858482" NOx_abs="123.128224" fuel_abs="135.016982" electricity_abs="0"/>
    </tripinfo>
    <tripinfo id="carIn12152:1" depart="57647.00" departLane="24599188#0.94_1" departPos="5.10" departSpeed="0.00" departDelay="0.50" arrival="57833.00" arrivalLane="-315358254#1_1" arrivalPos="137.16" arrivalSpeed="14.30" duration="186.00" routeLength="2034.31" waitingTime="16.00" waitingCount="2" stopTime="0.00" timeLoss="43.37" rerouteNo="1" devices="tripinfo_carIn12152:1 routing_carIn12152:1 emissions_carIn12152:1" vType="default_016" speedFactor="1.11" vaporized="">
        <emissions CO_abs="7284.751178" CO2_abs="469545.789590" HC_abs="44.042991" PMx_abs="8.138424" NOx_abs="188.718015" fuel_abs="201.838146" electricity_abs="0"/>
    </tripinfo>
    <tripinfo id="50R_frequency3.17" depart="57674.00" departLane="-18809673#6_1" departPos="12.10" departSpeed="0.00" departDelay="0.70" arrival="57835.00" arrivalLane="201956811#0_1" arrivalPos="40.40" arrivalSpeed="13.59" duration="161.00" routeLength="1954.47" waitingTime="0.00" waitingCount="0" stopTime="0.00" timeLoss="16.03" rerouteNo="1" devices="tripinfo_50R_frequency3.17 routing_50R_frequency3.17 emissions_50R_frequency3.17" vType="bus" speedFactor="1.00" vaporized="">
        <emissions CO_abs="3104.619313" CO2_abs="1973191.440959" HC_abs="668.329983" PMx_abs="334.441756" NOx_abs="15215.637189" fuel_abs="841.569888" electricity_abs="0"/>
    </tripinfo>
    <tripinfo id="h17549c1:1" depart="57680.00" departLane="-447569998#1_1" departPos="5.10" departSpeed="0.00" departDelay="0.00" arrival="57836.00" arrivalLane="-315358254#1_1" arrivalPos="137.16" arrivalSpeed="15.20" duration="156.00" routeLength="1746.60" waitingTime="19.00" waitingCount="1" stopTime="0.00" timeLoss="38.03" rerouteNo="1" devices="tripinfo_h17549c1:1 routing_h17549c1:1 emissions_h17549c1:1" vType="default_016" speedFactor="1.16" vaporized="">
        <emissions CO_abs="6716.702174" CO2_abs="415812.558213" HC_abs="40.339951" PMx_abs="7.470126" NOx_abs="168.518159" fuel_abs="178.740344" electricity_abs="0"/>
    </tripinfo>
    <tripinfo id="carIn129809:1" depart="57729.00" departLane="-447569998#1_1" departPos="5.10" departSpeed="0.00" departDelay="1.00" arrival="57853.00" arrivalLane="-315358244_1" arrivalPos="33.95" arrivalSpeed="12.24" duration="124.00" routeLength="706.49" waitingTime="48.00" waitingCount="2" stopTime="0.00" timeLoss="61.57" rerouteNo="1" devices="tripinfo_carIn129809:1 routing_carIn129809:1 emissions_carIn129809:1" vType="default_015" speedFactor="0.97" vaporized="">
        <emissions CO_abs="9434.443823" CO2_abs="284264.938354" HC_abs="49.590355" PMx_abs="5.558998" NOx_abs="119.886665" fuel_abs="122.196829" electricity_abs="0"/>
    </tripinfo>
    <tripinfo id="h645c1:1" depart="57622.00" departLane="266565295#5_1" departPos="5.10" departSpeed="0.00" departDelay="0.40" arrival="57854.00" arrivalLane="-315358244_2" arrivalPos="33.95" arrivalSpeed="11.70" duration="232.00" routeLength="1910.83" waitingTime="50.00" waitingCount="3" stopTime="0.00" timeLoss="82.55" rerouteNo="1" devices="tripinfo_h645c1:1 routing_h645c1:1 emissions_h645c1:1" vType="default_016" speedFactor="0.93" vaporized="">
        <emissions CO_abs="11350.852895" CO2_abs="504854.850883" HC_abs="63.468624" PMx_abs="8.990620" NOx_abs="206.465139" fuel_abs="217.018508" electricity_abs="0"/>
    </tripinfo>
    <tripinfo id="carIn85747:1" depart="57673.00" departLane="128361109#1_1" departPos="5.10" departSpeed="0.00" departDelay="0.70" arrival="57854.00" arrivalLane="386687235_1" arrivalPos="80.84" arrivalSpeed="13.45" duration="181.00" routeLength="2088.57" waitingTime="11.00" waitingCount="1" stopTime="0.00" timeLoss="30.76" rerouteNo="1" devices="tripinfo_carIn85747:1 routing_carIn85747:1 emissions_carIn85747:1" vType="default_016" speedFactor="1.00" vaporized="">
        <emissions CO_abs="5214.913653" CO2_abs="415191.919603" HC_abs="33.383616" PMx_abs="6.536088" NOx_abs="162.292775" fuel_abs="178.473698" electricity_abs="0"/>
    </tripinfo>
    <tripinfo id="carIn73855:1" depart="57743.00" departLane="386687232#0_1" departPos="5.10" departSpeed="0.00" departDelay="0.50" arrival="57855.00" arrivalLane="-315358244_1" arrivalPos="33.95" arrivalSpeed="13.43" duration="112.00" routeLength="1157.39" waitingTime="10.00" waitingCount="2" stopTime="0.00" timeLoss="31.76" rerouteNo="1" devices="tripinfo_carIn73855:1 routing_carIn73855:1 emissions_carIn73855:1" vType="default_016" speedFactor="1.06" vaporized="">
        <emissions CO_abs="4536.172380" CO2_abs="291430.921301" HC_abs="27.460929" PMx_abs="5.081829" NOx_abs="117.743667" fuel_abs="125.273929" electricity_abs="0"/>
    </tripinfo>
    <tripinfo id="carIn7949:1" depart="57676.00" departLane="128361109#1_1" departPos="5.10" departSpeed="0.00" departDelay="2.10" arrival="57856.00" arrivalLane="386687235_1" arrivalPos="80.84" arrivalSpeed="12.63" duration="180.00" routeLength="2088.57" waitingTime="6.00" waitingCount="1" stopTime="0.00" timeLoss="22.81" rerouteNo="1" devices="tripinfo_carIn7949:1 routing_carIn7949:1 emissions_carIn7949:1" vType="default_016" speedFactor="0.96" vaporized="">
        <emissions CO_abs="4683.415302" CO2_abs="392508.103598" HC_abs="30.439874" PMx_abs="5.976646" NOx_abs="152.388857" fuel_abs="168.722948" electricity_abs="0"/>
    </tripinfo>
    <tripinfo id="carIn126378:1" depart="57746.00" departLane="386687232#0_1" departPos="5.10" departSpeed="0.00" departDelay="1.80" arrival="57856.00" arrivalLane="-315358244_1" arrivalPos="33.95" arrivalSpeed="12.96" duration="110.00" routeLength="1157.39" waitingTime="6.00" waitingCount="1" stopTime="0.00" timeLoss="24.84" rerouteNo="1" devices="tripinfo_carIn126378:1 routing_carIn126378:1 emissions_carIn126378:1" vType="default_016" speedFactor="0.99" vaporized="">
        <emissions CO_abs="4014.494366" CO2_abs="266742.041903" HC_abs="24.501527" PMx_abs="4.555760" NOx_abs="107.467382" fuel_abs="114.661213" electricity_abs="0"/>
    </tripinfo>
    <tripinfo id="randUni15030:1" depart="57735.00" departLane="386687232#0_1" departPos="5.10" departSpeed="0.00" departDelay="0.10" arrival="57858.00" arrivalLane="26677539_1" arrivalPos="151.98" arrivalSpeed="7.19" duration="123.00" routeLength="919.89" waitingTime="15.00" waitingCount="1" stopTime="0.00" timeLoss="31.24" rerouteNo="1" devices="tripinfo_randUni15030:1 routing_randUni15030:1 emissions_randUni15030:1" vType="random_016" speedFactor="0.91" vaporized="">
        <emissions CO_abs="6054.700287" CO2_abs="261354.403169" HC_abs="33.627392" PMx_abs="4.535101" NOx_abs="107.028454" fuel_abs="112.346873" electricity_abs="0"/>
    </tripinfo>
    <tripinfo id="h2831c1:1" depart="57600.00" departLane="201089423#0_1" departPos="5.10" departSpeed="0.00" departDelay="0.00" arrival="57859.00" arrivalLane="-315358244_1" arrivalPos="33.95" arrivalSpeed="12.78" duration="259.00" routeLength="2672.18" waitingTime="34.00" waitingCount="1" stopTime="0.00" timeLoss="58.99" rerouteNo="1" devices="tripinfo_h2831c1:1 routing_h2831c1:1 emissions_h2831c1:1" vType="default_016" speedFactor="0.97" vaporized="">
        <emissions CO_abs="11054.680246" CO2_abs="594561.676182" HC_abs="64.086444" PMx_abs="9.956420" NOx_abs="237.124442" fuel_abs="255.579337" electricity_abs="0"/>
    </tripinfo>
    <tripinfo id="h317c2:1" depart="57707.00" departLane="-32978638#0_1" departPos="5.10" departSpeed="0.00" departDelay="0.10" arrival="57862.00" arrivalLane="-266565295#5_1" arrivalPos="172.76" arrivalSpeed="16.07" duration="155.00" routeLength="370.53" waitingTime="121.00" waitingCount="1" stopTime="0.00" timeLoss="131.60" rerouteNo="1" devices="tripinfo_h317c2:1 routing_h317c2:1 emissions_h317c2:1" vType="default_016" speedFactor="1.17" vaporized="">
        <emissions CO_abs="21316.937445" CO2_abs="440866.546735" HC_abs="107.421331" PMx_abs="10.315538" NOx_abs="196.982577" fuel_abs="189.518197" electricity_abs="0"/>
    </tripinfo>
    <tripinfo id="carIn50326:1" depart="57651.00" departLane="128361102#0_1" departPos="5.10" departSpeed="0.00" departDelay="0.30" arrival="57867.00" arrivalLane="18809673#0_1" arrivalPos="473.56" arrivalSpeed="13.62" duration="216.00" routeLength="1591.07" waitingTime="62.00" waitingCount="1" stopTime="0.00" timeLoss="84.13" rerouteNo="1" devices="tripinfo_carIn50326:1 routing_carIn50326:1 emissions_carIn50326:1" vType="default_016" speedFactor="0.98" vaporized="">
        <emissions CO_abs="14885.219842" CO2_abs="508708.962518" HC_abs="79.546074" PMx_abs="9.533106" NOx_abs="211.249450" fuel_abs="218.677443" electricity_abs="0"/>
    </tripinfo>
    <tripinfo id="h330c1:1" depart="57736.00" departLane="-32978638#0_1" departPos="5.10" departSpeed="0.00" departDelay="0.20" arrival="57868.00" arrivalLane="-266565295#5_1" arrivalPos="172.76" arrivalSpeed="12.28" duration="132.00" routeLength="370.53" waitingTime="93.00" waitingCount="1" stopTime="0.00" timeLoss="102.58" rerouteNo="1" devices="tripinfo_h330c1:1 routing_h330c1:1 emissions_h330c1:1" vType="default_016" speedFactor="0.92" vaporized="">
        <emissions CO_abs="16285.935789" CO2_abs="340912.591015" HC_abs="82.169954" PMx_abs="7.796279" NOx_abs="151.461372" fuel_abs="146.550416" electricity_abs="0"/>
    </tripinfo>
    <tripinfo id="randUni31145:1" depart="57814.00" departLane="10425609#0_1" departPos="5.10" departSpeed="0.00" departDelay="0.30" arrival="57872.00" arrivalLane="201956810_1" arrivalPos="71.65" arrivalSpeed="12.22" duration="58.00" routeLength="255.78" waitingTime="23.00" waitingCount="2" stopTime="0.00" timeLoss="36.68" rerouteNo="1" devices="tripinfo_randUni31145:1 routing_randUni31145:1 emissions_randUni31145:1" vType="random_016" speedFactor="0.94" vaporized="">
        <emissions CO_abs="4938.563620" CO2_abs="155543.530024" HC_abs="26.158636" PMx_abs="3.263311" NOx_abs="67.483076" fuel_abs="66.862844" electricity_abs="0"/>
    </tripinfo>
    <tripinfo id="randUni2407:1" depart="57820.00" departLane="10425609#0_1" departPos="5.10" departSpeed="0.00" departDelay="0.80" arrival="57874.00" arrivalLane="201956810_1" arrivalPos="71.65" arrivalSpeed="12.41" duration="54.00" routeLength="255.78" waitingTime="17.00" waitingCount="2" stopTime="0.00" timeLoss="33.47" rerouteNo="1" devices="tripinfo_randUni2407:1 routing_randUni2407:1 emissions_randUni2407:1" vType="random_016" speedFactor="0.97" vaporized="">
        <emissions CO_abs="4349.742126" CO2_abs="146929.131150" HC_abs="23.258196" PMx_abs="2.949910" NOx_abs="62.887595" fuel_abs="63.159741" electricity_abs="0"/>
    </tripinfo>
    <tripinfo id="h17890c1:3" depart="57792.00" departLane="386687232#0_1" departPos="5.10" departSpeed="0.00" departDelay="0.00" arrival="57875.00" arrivalLane="32978638#0_1" arrivalPos="49.29" arrivalSpeed="12.40" duration="83.00" routeLength="792.72" waitingTime="6.00" waitingCount="1" stopTime="0.00" timeLoss="19.22" rerouteNo="1" devices="tripinfo_h17890c1:3 routing_h17890c1:3 emissions_h17890c1:3" vType="default_016" speedFactor="0.92" vaporized="">
        <emissions CO_abs="3262.956678" CO2_abs="209026.134702" HC_abs="19.744248" PMx_abs="3.543270" NOx_abs="84.415525" fuel_abs="89.851673" electricity_abs="0"/>
    </tripinfo>
    <tripinfo id="h8343c1:5" depart="57679.00" departLane="315358254#0_1" departPos="5.10" departSpeed="0.00" departDelay="0.60" arrival="57878.00" arrivalLane="-24634510#5_1" arrivalPos="236.88" arrivalSpeed="10.67" duration="199.00" routeLength="2056.84" waitingTime="18.00" waitingCount="2" stopTime="0.00" timeLoss="47.15" rerouteNo="1" devices="tripinfo_h8343c1:5 routing_h8343c1:5 emissions_h8343c1:5" vType="default_016" speedFactor="0.82" vaporized="">
        <emissions CO_abs="8279.500325" CO2_abs="497808.558157" HC_abs="49.311465" PMx_abs="8.805303" NOx_abs="202.024240" fuel_abs="213.987268" electricity_abs="0"/>
    </tripinfo>
    <tripinfo id="carIn118591:1" depart="57689.00" departLane="315358244_1" departPos="5.10" departSpeed="0.00" departDelay="0.20" arrival="57883.00" arrivalLane="386687235_1" arrivalPos="80.84" arrivalSpeed="13.62" duration="194.00" routeLength="1186.14" waitingTime="78.00" waitingCount="4" stopTime="0.00" timeLoss="106.21" rerouteNo="1" devices="tripinfo_carIn118591:1 routing_carIn118591:1 emissions_carIn118591:1" vType="default_016" speedFactor="0.99" vaporized="">
        <emissions CO_abs="15008.456373" CO2_abs="467843.897542" HC_abs="79.310265" PMx_abs="9.391554" NOx_abs="198.566111" fuel_abs="201.111042" electricity_abs="0"/>
    </tripinfo>
    <tripinfo id="h6846c2:1" depart="57741.00" departLane="26677213#0_1" departPos="5.10" departSpeed="0.00" departDelay="0.00" arrival="57885.00" arrivalLane="386687235_1" arrivalPos="80.84" arrivalSpeed="16.31" duration="144.00" routeLength="1412.24" waitingTime="0.00" waitingCount="0" stopTime="0.00" timeLoss="27.01" rerouteNo="1" devices="tripinfo_h6846c2:1 routing_h6846c2:1 emissions_h6846c2:1" vType="default_016" speedFactor="1.18" vaporized="">
        <emissions CO_abs="7013.721821" CO2_abs="423130.933841" HC_abs="41.889029" PMx_abs="7.708847" NOx_abs="175.007390" fuel_abs="181.885910" electricity_abs="0"/>
    </tripinfo>
    <tripinfo id="carIn118538:1" depart="57682.00" departLane="-447569998#1_1" departPos="5.10" departSpeed="0.00" departDelay="0.00" arrival="57887.00" arrivalLane="399835085#1_1" arrivalPos="212.23" arrivalSpeed="8.14" duration="205.00" routeLength="1907.17" waitingTime="19.00" waitingCount="3" stopTime="0.00" timeLoss="46.11" rerouteNo="1" devices="tripinfo_carIn118538:1 routing_carIn118538:1 emissions_carIn118538:1" vType="default_016" speedFactor="1.02" vaporized="">
        <emissions CO_abs="8044.177067" CO2_abs="441602.433564" HC_abs="46.793766" PMx_abs="7.273831" NOx_abs="176.326953" fuel_abs="189.827943" electricity_abs="0"/>
    </tripinfo>
    <tripinfo id="carIn13443:1" depart="57729.00" departLane="272042143_1" departPos="5.10" departSpeed="0.00" departDelay="0.80" arrival="57889.00" arrivalLane="399835085#1_1" arrivalPos="212.23" arrivalSpeed="8.90" duration="160.00" routeLength="1757.45" waitingTime="9.00" waitingCount="1" stopTime="0.00" timeLoss="33.10" rerouteNo="1" devices="tripinfo_carIn13443:1 routing_carIn13443:1 emissions_carIn13443:1" vType="default_016" speedFactor="1.12" vaporized="">
        <emissions CO_abs="5635.992736" CO2_abs="391417.857143" HC_abs="34.714870" PMx_abs="6.652790" NOx_abs="156.822976" fuel_abs="168.253999" electricity_abs="0"/>
    </tripinfo>