<?xml version="1.0" encoding="UTF-8"?>

<!-- generated on 2021-10-26 21:17:54 by Eclipse SUMO sumo Version 1.10.0
<configuration xmlns:xsi="http://www.w3.org/2001/XMLSchema-instance" xsi:noNamespaceSchemaLocation="http://sumo.dlr.de/xsd/sumoConfiguration.xsd">

    <input>
        <net-file value="/Users/behradkoohy/sumo-scratchpad/RESCO/environments/ingolstadt21/ingolstadt21.net.xml"/>
        <route-files value="/Users/behradkoohy/sumo-scratchpad/RESCO/environments/ingolstadt21/ingolstadt21.rou.xml"/>
    </input>

    <output>
        <tripinfo-output value="/Users/behradkoohy/sumo-scratchpad/RESCO/logs/MPLight-tr0-ingolstadt21-21-mplight_full-pressure/tripinfo_44.xml"/>
        <tripinfo-output.write-unfinished value="true"/>
    </output>

    <time>
        <begin value="57600"/>
        <end value="61200"/>
    </time>

    <processing>
        <time-to-teleport value="-1"/>
    </processing>

    <report>
        <no-warnings value="true"/>
        <no-step-log value="true"/>
    </report>

    <emissions>
        <device.emissions.probability value="1"/>
    </emissions>

    <traci_server>
        <remote-port value="64977"/>
    </traci_server>

    <random_number>
        <random value="true"/>
    </random_number>

</configuration>
-->

<tripinfos xmlns:xsi="http://www.w3.org/2001/XMLSchema-instance" xsi:noNamespaceSchemaLocation="http://sumo.dlr.de/xsd/tripinfo_file.xsd">
    <tripinfo id="carIn60260:1" depart="57606.00" departLane="315358254#0_1" departPos="5.10" departSpeed="0.00" departDelay="0.90" arrival="57662.00" arrivalLane="399835085#1_1" arrivalPos="212.23" arrivalSpeed="8.36" duration="56.00" routeLength="430.98" waitingTime="2.00" waitingCount="1" stopTime="0.00" timeLoss="10.45" rerouteNo="1" devices="tripinfo_carIn60260:1 routing_carIn60260:1 emissions_carIn60260:1" vType="default_016" speedFactor="1.02" vaporized="">
        <emissions CO_abs="2642.480061" CO2_abs="134152.110526" HC_abs="15.131037" PMx_abs="2.214328" NOx_abs="54.403965" fuel_abs="57.666929" electricity_abs="0"/>
    </tripinfo>
    <tripinfo id="h15454c2:3" depart="57612.00" departLane="24608844_1" departPos="5.10" departSpeed="0.00" departDelay="0.50" arrival="57667.00" arrivalLane="32978638#0_1" arrivalPos="49.29" arrivalSpeed="11.98" duration="55.00" routeLength="354.79" waitingTime="10.00" waitingCount="1" stopTime="0.00" timeLoss="18.53" rerouteNo="1" devices="tripinfo_h15454c2:3 routing_h15454c2:3 emissions_h15454c2:3" vType="default_016" speedFactor="0.94" vaporized="">
        <emissions CO_abs="3285.619371" CO2_abs="131504.000560" HC_abs="18.027811" PMx_abs="2.428884" NOx_abs="54.942900" fuel_abs="56.528813" electricity_abs="0"/>
    </tripinfo>
    <tripinfo id="carIn53971:1" depart="57640.00" departLane="272042143_1" departPos="5.10" departSpeed="0.00" departDelay="0.80" arrival="57697.00" arrivalLane="24634414#1_1" arrivalPos="162.19" arrivalSpeed="6.77" duration="57.00" routeLength="493.04" waitingTime="0.00" waitingCount="0" stopTime="0.00" timeLoss="7.65" rerouteNo="1" devices="tripinfo_carIn53971:1 routing_carIn53971:1 emissions_carIn53971:1" vType="default_016" speedFactor="0.93" vaporized="">
        <emissions CO_abs="2397.238521" CO2_abs="130325.159065" HC_abs="13.945895" PMx_abs="2.215718" NOx_abs="53.116667" fuel_abs="56.021639" electricity_abs="0"/>
    </tripinfo>
    <tripinfo id="h7800c1:5" depart="57696.00" departLane="-447569998#1_1" departPos="5.10" departSpeed="0.00" departDelay="0.00" arrival="57721.00" arrivalLane="-447569998#1_1" arrivalPos="180.76" arrivalSpeed="7.45" duration="25.00" routeLength="175.66" waitingTime="0.00" waitingCount="0" stopTime="0.00" timeLoss="3.75" rerouteNo="1" devices="tripinfo_h7800c1:5 routing_h7800c1:5 emissions_h7800c1:5" vType="default_016" speedFactor="1.03" vaporized="">
        <emissions CO_abs="1215.362444" CO2_abs="52972.442028" HC_abs="6.744492" PMx_abs="0.842057" NOx_abs="21.384073" fuel_abs="22.771039" electricity_abs="0"/>
    </tripinfo>
    <tripinfo id="carIn80064:1" depart="57603.00" departLane="128361109#1_1" departPos="5.10" departSpeed="0.00" departDelay="0.40" arrival="57724.00" arrivalLane="-315358254#1_1" arrivalPos="137.16" arrivalSpeed="11.79" duration="121.00" routeLength="1587.97" waitingTime="0.00" waitingCount="0" stopTime="0.00" timeLoss="17.47" rerouteNo="1" devices="tripinfo_carIn80064:1 routing_carIn80064:1 emissions_carIn80064:1" vType="default_016" speedFactor="0.87" vaporized="">
        <emissions CO_abs="5723.446413" CO2_abs="417741.253710" HC_abs="36.047395" PMx_abs="7.915602" NOx_abs="171.791303" fuel_abs="179.567935" electricity_abs="0"/>
    </tripinfo>
    <tripinfo id="h3568c1:3" depart="57656.00" departLane="266565295#5_1" departPos="5.10" departSpeed="0.00" departDelay="0.80" arrival="57730.00" arrivalLane="-24634415_1" arrivalPos="62.03" arrivalSpeed="14.80" duration="74.00" routeLength="807.40" waitingTime="0.00" waitingCount="0" stopTime="0.00" timeLoss="12.83" rerouteNo="1" devices="tripinfo_h3568c1:3 routing_h3568c1:3 emissions_h3568c1:3" vType="default_016" speedFactor="1.07" vaporized="">
        <emissions CO_abs="3346.334386" CO2_abs="224375.382468" HC_abs="20.458698" PMx_abs="3.891624" NOx_abs="90.800379" fuel_abs="96.449440" electricity_abs="0"/>
    </tripinfo>
    <tripinfo id="h317c2:1" depart="57707.00" departLane="-32978638#0_1" departPos="5.10" departSpeed="0.00" departDelay="0.10" arrival="57739.00" arrivalLane="-266565295#5_1" arrivalPos="172.76" arrivalSpeed="13.62" duration="32.00" routeLength="370.53" waitingTime="0.00" waitingCount="0" stopTime="0.00" timeLoss="5.64" rerouteNo="1" devices="tripinfo_h317c2:1 routing_h317c2:1 emissions_h317c2:1" vType="default_016" speedFactor="1.04" vaporized="">
        <emissions CO_abs="1769.350945" CO2_abs="109765.380302" HC_abs="10.667117" PMx_abs="2.101032" NOx_abs="45.899100" fuel_abs="47.183267" electricity_abs="0"/>
    </tripinfo>
    <tripinfo id="h7181c1:1" depart="57660.00" departLane="315358254#0_1" departPos="5.10" departSpeed="0.00" departDelay="0.10" arrival="57742.00" arrivalLane="306240162#0_0" arrivalPos="220.43" arrivalSpeed="14.95" duration="82.00" routeLength="932.35" waitingTime="12.00" waitingCount="2" stopTime="0.00" timeLoss="28.86" rerouteNo="1" devices="tripinfo_h7181c1:1 routing_h7181c1:1 emissions_h7181c1:1" vType="default_016" speedFactor="0.97" vaporized="">
        <emissions CO_abs="4954.926187" CO2_abs="279716.511226" HC_abs="29.222069" PMx_abs="5.577580" NOx_abs="116.878170" fuel_abs="120.237908" electricity_abs="0"/>
    </tripinfo>
    <tripinfo id="h4538c1:1" depart="57701.00" departLane="-10427692#1_1" departPos="5.10" departSpeed="0.00" departDelay="0.00" arrival="57744.00" arrivalLane="-128361102#1_1" arrivalPos="274.68" arrivalSpeed="15.14" duration="43.00" routeLength="440.74" waitingTime="3.00" waitingCount="1" stopTime="0.00" timeLoss="13.24" rerouteNo="1" devices="tripinfo_h4538c1:1 routing_h4538c1:1 emissions_h4538c1:1" vType="default_016" speedFactor="1.09" vaporized="">
        <emissions CO_abs="1910.600348" CO2_abs="125129.916723" HC_abs="11.648738" PMx_abs="2.213018" NOx_abs="50.820767" fuel_abs="53.788020" electricity_abs="0"/>
    </tripinfo>
    <tripinfo id="h5979c1:5" depart="57669.00" departLane="399835085#1_1" departPos="5.10" departSpeed="0.00" departDelay="0.00" arrival="57751.00" arrivalLane="-315358254#1_1" arrivalPos="137.16" arrivalSpeed="14.55" duration="82.00" routeLength="659.33" waitingTime="1.00" waitingCount="1" stopTime="0.00" timeLoss="15.43" rerouteNo="1" devices="tripinfo_h5979c1:5 routing_h5979c1:5 emissions_h5979c1:5" vType="default_016" speedFactor="1.11" vaporized="">
        <emissions CO_abs="3593.810188" CO2_abs="186466.911531" HC_abs="20.684455" PMx_abs="3.120831" NOx_abs="75.731440" fuel_abs="80.154972" electricity_abs="0"/>
    </tripinfo>
    <tripinfo id="h12244c1:3" depart="57612.00" departLane="315358244_1" departPos="5.10" departSpeed="0.00" departDelay="0.40" arrival="57757.00" arrivalLane="386687235_1" arrivalPos="80.84" arrivalSpeed="14.50" duration="145.00" routeLength="1186.14" waitingTime="44.00" waitingCount="2" stopTime="0.00" timeLoss="62.62" rerouteNo="1" devices="tripinfo_h12244c1:3 routing_h12244c1:3 emissions_h12244c1:3" vType="default_016" speedFactor="1.05" vaporized="">
        <emissions CO_abs="9580.296290" CO2_abs="368707.745022" HC_abs="52.248790" PMx_abs="7.094128" NOx_abs="153.752675" fuel_abs="158.494216" electricity_abs="0"/>
    </tripinfo>
    <tripinfo id="h9563c2:5" depart="57631.00" departLane="315358244_1" departPos="5.10" departSpeed="0.00" departDelay="0.70" arrival="57760.00" arrivalLane="386687235_1" arrivalPos="80.84" arrivalSpeed="14.55" duration="129.00" routeLength="1186.14" waitingTime="23.00" waitingCount="2" stopTime="0.00" timeLoss="48.98" rerouteNo="1" devices="tripinfo_h9563c2:5 routing_h9563c2:5 emissions_h9563c2:5" vType="default_016" speedFactor="1.09" vaporized="">
        <emissions CO_abs="6958.601069" CO2_abs="343742.737866" HC_abs="39.773061" PMx_abs="6.523265" NOx_abs="142.918079" fuel_abs="147.761090" electricity_abs="0"/>
    </tripinfo>
    <tripinfo id="h3326c1:2" depart="57656.00" departLane="22716069#0_1" departPos="5.10" departSpeed="0.00" departDelay="0.00" arrival="57762.00" arrivalLane="24634517#13_1" arrivalPos="111.62" arrivalSpeed="13.93" duration="106.00" routeLength="1312.81" waitingTime="0.00" waitingCount="0" stopTime="0.00" timeLoss="14.89" rerouteNo="1" devices="tripinfo_h3326c1:2 routing_h3326c1:2 emissions_h3326c1:2" vType="default_016" speedFactor="1.07" vaporized="">
        <emissions CO_abs="4215.611843" CO2_abs="324424.065862" HC_abs="26.824189" PMx_abs="5.703691" NOx_abs="131.189005" fuel_abs="139.455535" electricity_abs="0"/>
    </tripinfo>
    <tripinfo id="S5R_frequency1.2" depart="57634.00" departLane="315358250#0_1" departPos="12.10" departSpeed="0.00" departDelay="22.40" arrival="57764.00" arrivalLane="386687235_1" arrivalPos="80.84" arrivalSpeed="13.49" duration="130.00" routeLength="1115.62" waitingTime="27.00" waitingCount="1" stopTime="0.00" timeLoss="47.86" rerouteNo="1" devices="tripinfo_S5R_frequency1.2 routing_S5R_frequency1.2 emissions_S5R_frequency1.2" vType="bus" speedFactor="1.00" vaporized="">
        <emissions CO_abs="2720.645492" CO2_abs="1538494.280071" HC_abs="580.444280" PMx_abs="287.698255" NOx_abs="12391.938381" fuel_abs="656.091748" electricity_abs="0"/>
    </tripinfo>
    <tripinfo id="h3688c1:1" depart="57625.00" departLane="201201950#1_1" departPos="5.10" departSpeed="0.00" departDelay="0.00" arrival="57771.00" arrivalLane="32978638#0_1" arrivalPos="49.29" arrivalSpeed="14.55" duration="146.00" routeLength="1089.75" waitingTime="55.00" waitingCount="1" stopTime="0.00" timeLoss="69.27" rerouteNo="1" devices="tripinfo_h3688c1:1 routing_h3688c1:1 emissions_h3688c1:1" vType="default_016" speedFactor="1.05" vaporized="">
        <emissions CO_abs="12495.804663" CO2_abs="425117.911229" HC_abs="66.807626" PMx_abs="8.418321" NOx_abs="178.882103" fuel_abs="182.743782" electricity_abs="0"/>
    </tripinfo>
    <tripinfo id="carIn27009:1" depart="57673.00" departLane="-447569998#1_1" departPos="5.10" departSpeed="0.00" departDelay="0.50" arrival="57771.00" arrivalLane="-26677539_1" arrivalPos="152.75" arrivalSpeed="8.00" duration="98.00" routeLength="699.63" waitingTime="0.00" waitingCount="0" stopTime="0.00" timeLoss="11.36" rerouteNo="1" devices="tripinfo_carIn27009:1 routing_carIn27009:1 emissions_carIn27009:1" vType="default_015" speedFactor="0.97" vaporized="">
        <emissions CO_abs="3967.296175" CO2_abs="184107.716811" HC_abs="22.274750" PMx_abs="2.906128" NOx_abs="74.242939" fuel_abs="79.141408" electricity_abs="0"/>
    </tripinfo>
    <tripinfo id="h330c1:1" depart="57736.00" departLane="-32978638#0_1" departPos="5.10" departSpeed="0.00" departDelay="0.20" arrival="57773.00" arrivalLane="-266565295#5_1" arrivalPos="172.76" arrivalSpeed="14.44" duration="37.00" routeLength="370.53" waitingTime="2.00" waitingCount="1" stopTime="0.00" timeLoss="12.18" rerouteNo="1" devices="tripinfo_h330c1:1 routing_h330c1:1 emissions_h330c1:1" vType="default_016" speedFactor="1.11" vaporized="">
        <emissions CO_abs="2176.301883" CO2_abs="127997.836978" HC_abs="12.899227" PMx_abs="2.411353" NOx_abs="53.181038" fuel_abs="55.020748" electricity_abs="0"/>
    </tripinfo>
    <tripinfo id="carIn121703:1" depart="57647.00" departLane="386687232#0_1" departPos="5.10" departSpeed="0.00" departDelay="0.30" arrival="57783.00" arrivalLane="-315358244_1" arrivalPos="33.95" arrivalSpeed="14.29" duration="136.00" routeLength="1157.39" waitingTime="37.00" waitingCount="2" stopTime="0.00" timeLoss="55.30" rerouteNo="1" devices="tripinfo_carIn121703:1 routing_carIn121703:1 emissions_carIn121703:1" vType="default_016" speedFactor="1.05" vaporized="">
        <emissions CO_abs="8964.138314" CO2_abs="372035.121588" HC_abs="49.508544" PMx_abs="6.992561" NOx_abs="153.672695" fuel_abs="159.924227" electricity_abs="0"/>
    </tripinfo>
    <tripinfo id="h16072c2:3" depart="57663.00" departLane="315358254#0_1" departPos="5.10" departSpeed="0.00" departDelay="2.50" arrival="57793.00" arrivalLane="386687235_1" arrivalPos="80.84" arrivalSpeed="13.95" duration="130.00" routeLength="1611.92" waitingTime="7.00" waitingCount="1" stopTime="0.00" timeLoss="21.92" rerouteNo="1" devices="tripinfo_h16072c2:3 routing_h16072c2:3 emissions_h16072c2:3" vType="default_016" speedFactor="1.09" vaporized="">
        <emissions CO_abs="4231.705256" CO2_abs="330748.091754" HC_abs="26.965548" PMx_abs="5.648900" NOx_abs="131.821147" fuel_abs="142.174227" electricity_abs="0"/>
    </tripinfo>
    <tripinfo id="carIn30817:1" depart="57681.00" departLane="315358244_1" departPos="5.10" departSpeed="0.00" departDelay="0.20" arrival="57801.00" arrivalLane="447569997#1_1" arrivalPos="180.93" arrivalSpeed="7.83" duration="120.00" routeLength="718.04" waitingTime="39.00" waitingCount="1" stopTime="0.00" timeLoss="56.88" rerouteNo="1" devices="tripinfo_carIn30817:1 routing_carIn30817:1 emissions_carIn30817:1" vType="default_016" speedFactor="0.97" vaporized="">
        <emissions CO_abs="8964.531171" CO2_abs="281953.210092" HC_abs="47.404418" PMx_abs="5.508485" NOx_abs="119.094049" fuel_abs="121.202737" electricity_abs="0"/>
    </tripinfo>
    <tripinfo id="carIn22761:1" depart="57616.00" departLane="-306240162#1_0" departPos="5.10" departSpeed="0.00" departDelay="2.10" arrival="57803.00" arrivalLane="399835085#1_1" arrivalPos="212.23" arrivalSpeed="7.87" duration="187.00" routeLength="1093.26" waitingTime="85.00" waitingCount="2" stopTime="0.00" timeLoss="112.40" rerouteNo="1" devices="tripinfo_carIn22761:1 routing_carIn22761:1 emissions_carIn22761:1" vType="default_016" speedFactor="1.05" vaporized="">
        <emissions CO_abs="17797.125377" CO2_abs="528902.224331" HC_abs="93.564332" PMx_abs="11.426759" NOx_abs="228.812981" fuel_abs="227.357616" electricity_abs="0"/>
    </tripinfo>
    <tripinfo id="h645c1:1" depart="57622.00" departLane="266565295#5_1" departPos="5.10" departSpeed="0.00" departDelay="0.40" arrival="57803.00" arrivalLane="-315358244_1" arrivalPos="33.95" arrivalSpeed="14.18" duration="181.00" routeLength="1910.83" waitingTime="22.00" waitingCount="4" stopTime="0.00" timeLoss="53.26" rerouteNo="1" devices="tripinfo_h645c1:1 routing_h645c1:1 emissions_h645c1:1" vType="default_016" speedFactor="1.08" vaporized="">
        <emissions CO_abs="6718.083175" CO2_abs="470026.159941" HC_abs="41.586498" PMx_abs="8.162590" NOx_abs="189.120044" fuel_abs="202.044128" electricity_abs="0"/>
    </tripinfo>
    <tripinfo id="carIn12365:1" depart="57713.00" departLane="315358244_1" departPos="5.10" departSpeed="0.00" departDelay="0.50" arrival="57804.00" arrivalLane="447569997#1_1" arrivalPos="180.93" arrivalSpeed="7.78" duration="91.00" routeLength="718.04" waitingTime="10.00" waitingCount="1" stopTime="0.00" timeLoss="27.67" rerouteNo="1" devices="tripinfo_carIn12365:1 routing_carIn12365:1 emissions_carIn12365:1" vType="default_016" speedFactor="0.97" vaporized="">
        <emissions CO_abs="4637.418429" CO2_abs="225302.038422" HC_abs="26.370941" PMx_abs="3.973182" NOx_abs="92.502385" fuel_abs="96.848678" electricity_abs="0"/>
    </tripinfo>
    <tripinfo id="h3154c1:1" depart="57658.00" departLane="24634507_1" departPos="5.10" departSpeed="0.00" departDelay="0.00" arrival="57806.00" arrivalLane="-266565295#5_1" arrivalPos="172.76" arrivalSpeed="11.11" duration="148.00" routeLength="1206.22" waitingTime="24.00" waitingCount="2" stopTime="0.00" timeLoss="45.46" rerouteNo="1" devices="tripinfo_h3154c1:1 routing_h3154c1:1 emissions_h3154c1:1" vType="default_016" speedFactor="0.87" vaporized="">
        <emissions CO_abs="7186.425348" CO2_abs="327679.643817" HC_abs="40.346113" PMx_abs="5.724209" NOx_abs="133.876708" fuel_abs="140.857365" electricity_abs="0"/>
    </tripinfo>
    <tripinfo id="carIn77943:1" depart="57608.00" departLane="124812856#0_1" departPos="5.10" departSpeed="0.00" departDelay="2.50" arrival="57811.00" arrivalLane="-128361102#1_1" arrivalPos="274.68" arrivalSpeed="14.95" duration="203.00" routeLength="2232.46" waitingTime="28.00" waitingCount="2" stopTime="0.00" timeLoss="62.36" rerouteNo="1" devices="tripinfo_carIn77943:1 routing_carIn77943:1 emissions_carIn77943:1" vType="default_016" speedFactor="1.16" vaporized="">
        <emissions CO_abs="9702.282808" CO2_abs="562454.391400" HC_abs="57.337572" PMx_abs="10.300071" NOx_abs="229.425034" fuel_abs="241.775702" electricity_abs="0"/>
    </tripinfo>
    <tripinfo id="carIn77438:1" depart="57614.00" departLane="124812856#0_1" departPos="5.10" departSpeed="0.00" departDelay="1.10" arrival="57832.00" arrivalLane="-128361102#1_1" arrivalPos="274.68" arrivalSpeed="15.81" duration="218.00" routeLength="2232.46" waitingTime="31.00" waitingCount="3" stopTime="0.00" timeLoss="78.84" rerouteNo="1" devices="tripinfo_carIn77438:1 routing_carIn77438:1 emissions_carIn77438:1" vType="default_016" speedFactor="1.17" vaporized="">
        <emissions CO_abs="11300.458696" CO2_abs="643882.664042" HC_abs="66.453512" PMx_abs="11.996956" NOx_abs="265.020480" fuel_abs="276.778048" electricity_abs="0"/>
    </tripinfo>
    <tripinfo id="h11737c1:1" depart="57665.00" departLane="272042143_1" departPos="5.10" departSpeed="0.00" departDelay="1.50" arrival="57837.00" arrivalLane="-315358254#1_1" arrivalPos="137.16" arrivalSpeed="13.26" duration="172.00" routeLength="1596.88" waitingTime="37.00" waitingCount="2" stopTime="0.00" timeLoss="59.10" rerouteNo="1" devices="tripinfo_h11737c1:1 routing_h11737c1:1 emissions_h11737c1:1" vType="default_016" speedFactor="1.04" vaporized="">
        <emissions CO_abs="8970.215268" CO2_abs="421279.079617" HC_abs="50.672917" PMx_abs="7.605246" NOx_abs="171.815522" fuel_abs="181.091883" electricity_abs="0"/>
    </tripinfo>
    <tripinfo id="carIn126288:1" depart="57674.00" departLane="272042143_1" departPos="5.10" departSpeed="0.00" departDelay="0.00" arrival="57838.00" arrivalLane="-315358254#1_1" arrivalPos="137.16" arrivalSpeed="15.68" duration="164.00" routeLength="1596.88" waitingTime="35.00" waitingCount="2" stopTime="0.00" timeLoss="63.83" rerouteNo="1" devices="tripinfo_carIn126288:1 routing_carIn126288:1 emissions_carIn126288:1" vType="default_016" speedFactor="1.16" vaporized="">
        <emissions CO_abs="9222.251384" CO2_abs="451002.790268" HC_abs="52.624681" PMx_abs="8.409721" NOx_abs="185.414837" fuel_abs="193.868277" electricity_abs="0"/>
    </tripinfo>
    <tripinfo id="carIn50326:1" depart="57651.00" departLane="128361102#0_1" departPos="5.10" departSpeed="0.00" departDelay="0.30" arrival="57840.00" arrivalLane="18809673#0_1" arrivalPos="473.56" arrivalSpeed="10.42" duration="189.00" routeLength="1591.07" waitingTime="6.00" waitingCount="1" stopTime="0.00" timeLoss="29.65" rerouteNo="1" devices="tripinfo_carIn50326:1 routing_carIn50326:1 emissions_carIn50326:1" vType="default_016" speedFactor="0.82" vaporized="">
        <emissions CO_abs="6299.124607" CO2_abs="353276.212553" HC_abs="36.790233" PMx_abs="5.408376" NOx_abs="139.941695" fuel_abs="151.860254" electricity_abs="0"/>
    </tripinfo>
    <tripinfo id="carIn12152:1" depart="57647.00" departLane="24599188#0.94_1" departPos="5.10" departSpeed="0.00" departDelay="0.50" arrival="57841.00" arrivalLane="-315358254#1_1" arrivalPos="137.16" arrivalSpeed="13.30" duration="194.00" routeLength="2034.31" waitingTime="19.00" waitingCount="2" stopTime="0.00" timeLoss="41.00" rerouteNo="1" devices="tripinfo_carIn12152:1 routing_carIn12152:1 emissions_carIn12152:1" vType="default_016" speedFactor="1.03" vaporized="">
        <emissions CO_abs="7110.222793" CO2_abs="434564.970392" HC_abs="42.389199" PMx_abs="7.212979" NOx_abs="172.951839" fuel_abs="186.802122" electricity_abs="0"/>
    </tripinfo>
    <tripinfo id="carIn107282:1" depart="57749.00" departLane="-447569998#1_1" departPos="5.10" departSpeed="0.00" departDelay="0.00" arrival="57845.00" arrivalLane="315358242#0_1" arrivalPos="165.37" arrivalSpeed="12.67" duration="96.00" routeLength="448.50" waitingTime="48.00" waitingCount="1" stopTime="0.00" timeLoss="54.52" rerouteNo="1" devices="tripinfo_carIn107282:1 routing_carIn107282:1 emissions_carIn107282:1" vType="default_016" speedFactor="1.01" vaporized="">
        <emissions CO_abs="9457.703982" CO2_abs="232083.713424" HC_abs="48.510463" PMx_abs="5.005872" NOx_abs="101.238163" fuel_abs="99.766464" electricity_abs="0"/>
    </tripinfo>
    <tripinfo id="h17600c1:1" depart="57662.00" departLane="272042143_1" departPos="5.10" departSpeed="0.00" departDelay="0.30" arrival="57846.00" arrivalLane="201238729#3_1" arrivalPos="431.02" arrivalSpeed="13.68" duration="184.00" routeLength="2100.26" waitingTime="14.00" waitingCount="1" stopTime="0.00" timeLoss="32.34" rerouteNo="1" devices="tripinfo_h17600c1:1 routing_h17600c1:1 emissions_h17600c1:1" vType="default_016" speedFactor="1.00" vaporized="">
        <emissions CO_abs="5970.970549" CO2_abs="423311.046889" HC_abs="37.033982" PMx_abs="6.716358" NOx_abs="165.701229" fuel_abs="181.964267" electricity_abs="0"/>
    </tripinfo>
    <tripinfo id="h3864c1:3" depart="57678.00" departLane="24693977#1_1" departPos="5.10" departSpeed="0.00" departDelay="0.00" arrival="57851.00" arrivalLane="201956820_1" arrivalPos="48.33" arrivalSpeed="12.82" duration="173.00" routeLength="1574.85" waitingTime="7.00" waitingCount="1" stopTime="0.00" timeLoss="35.17" rerouteNo="1" devices="tripinfo_h3864c1:3 routing_h3864c1:3 emissions_h3864c1:3" vType="default_016" speedFactor="0.94" vaporized="">
        <emissions CO_abs="7291.150661" CO2_abs="421002.310577" HC_abs="43.035002" PMx_abs="7.272994" NOx_abs="171.651221" fuel_abs="180.971775" electricity_abs="0"/>
    </tripinfo>
    <tripinfo id="carIn81860:1" depart="57712.00" departLane="128361102#0_1" departPos="5.10" departSpeed="0.00" departDelay="0.60" arrival="57851.00" arrivalLane="-24634517#17_1" arrivalPos="6.43" arrivalSpeed="6.06" duration="139.00" routeLength="1229.64" waitingTime="9.00" waitingCount="1" stopTime="0.00" timeLoss="25.71" rerouteNo="1" devices="tripinfo_carIn81860:1 routing_carIn81860:1 emissions_carIn81860:1" vType="default_016" speedFactor="0.79" vaporized="">
        <emissions CO_abs="5067.711568" CO2_abs="280682.732776" HC_abs="29.556061" PMx_abs="4.493503" NOx_abs="112.256524" fuel_abs="120.654802" electricity_abs="0"/>
    </tripinfo>
    <tripinfo id="carIn129809:1" depart="57729.00" departLane="-447569998#1_1" departPos="5.10" departSpeed="0.00" departDelay="1.00" arrival="57854.00" arrivalLane="-315358244_1" arrivalPos="33.95" arrivalSpeed="12.15" duration="125.00" routeLength="706.49" waitingTime="41.00" waitingCount="2" stopTime="0.00" timeLoss="55.90" rerouteNo="1" devices="tripinfo_carIn129809:1 routing_carIn129809:1 emissions_carIn129809:1" vType="default_015" speedFactor="0.88" vaporized="">
        <emissions CO_abs="8645.630409" CO2_abs="273909.582571" HC_abs="45.734390" PMx_abs="5.204268" NOx_abs="114.986446" fuel_abs="117.745182" electricity_abs="0"/>
    </tripinfo>
    <tripinfo id="carIn12858:1" depart="57661.00" departLane="128361109#1_1" departPos="5.10" departSpeed="0.00" departDelay="0.90" arrival="57859.00" arrivalLane="399835085#1_1" arrivalPos="212.23" arrivalSpeed="5.78" duration="198.00" routeLength="1738.12" waitingTime="16.00" waitingCount="2" stopTime="0.00" timeLoss="42.69" rerouteNo="1" devices="tripinfo_carIn12858:1 routing_carIn12858:1 emissions_carIn12858:1" vType="default_016" speedFactor="0.74" vaporized="">
        <emissions CO_abs="8768.930355" CO2_abs="455568.802355" HC_abs="50.454123" PMx_abs="8.011051" NOx_abs="185.593535" fuel_abs="195.831126" electricity_abs="0"/>
    </tripinfo>
    <tripinfo id="carIn48184:1" depart="57613.00" departLane="-306240162#1_0" departPos="5.10" departSpeed="0.00" departDelay="0.70" arrival="57873.00" arrivalLane="386687235_1" arrivalPos="80.84" arrivalSpeed="14.30" duration="260.00" routeLength="2257.41" waitingTime="81.00" waitingCount="3" stopTime="0.00" timeLoss="119.71" rerouteNo="1" devices="tripinfo_carIn48184:1 routing_carIn48184:1 emissions_carIn48184:1" vType="default_016" speedFactor="1.06" vaporized="">
        <emissions CO_abs="19493.294973" CO2_abs="763519.588084" HC_abs="106.799527" PMx_abs="15.478204" NOx_abs="322.485559" fuel_abs="328.208250" electricity_abs="0"/>
    </tripinfo>
    <tripinfo id="carIn75660:1" depart="57679.00" departLane="128361109#1_1" departPos="5.10" departSpeed="0.00" departDelay="3.40" arrival="57873.00" arrivalLane="386687235_2" arrivalPos="80.84" arrivalSpeed="14.53" duration="194.00" routeLength="2088.57" waitingTime="30.00" waitingCount="2" stopTime="0.00" timeLoss="57.14" rerouteNo="1" devices="tripinfo_carIn75660:1 routing_carIn75660:1 emissions_carIn75660:1" vType="default_016" speedFactor="1.10" vaporized="">
        <emissions CO_abs="8175.619173" CO2_abs="481773.446400" HC_abs="48.418173" PMx_abs="8.530780" NOx_abs="194.291488" fuel_abs="207.094686" electricity_abs="0"/>
    </tripinfo>
    <tripinfo id="carIn85747:1" depart="57673.00" departLane="128361109#1_1" departPos="5.10" departSpeed="0.00" departDelay="0.70" arrival="57875.00" arrivalLane="386687235_1" arrivalPos="80.84" arrivalSpeed="13.11" duration="202.00" routeLength="2088.57" waitingTime="37.00" waitingCount="2" stopTime="0.00" timeLoss="56.64" rerouteNo="1" devices="tripinfo_carIn85747:1 routing_carIn85747:1 emissions_carIn85747:1" vType="default_016" speedFactor="1.04" vaporized="">
        <emissions CO_abs="8476.890823" CO2_abs="468403.430142" HC_abs="49.498646" PMx_abs="7.984963" NOx_abs="187.007479" fuel_abs="201.348394" electricity_abs="0"/>
    </tripinfo>
    <tripinfo id="carIn82220:1" depart="57619.00" departLane="-306240162#1_0" departPos="5.10" departSpeed="0.00" departDelay="3.50" arrival="57876.00" arrivalLane="386687235_2" arrivalPos="80.84" arrivalSpeed="12.49" duration="257.00" routeLength="2257.41" waitingTime="67.00" waitingCount="2" stopTime="0.00" timeLoss="106.03" rerouteNo="1" devices="tripinfo_carIn82220:1 routing_carIn82220:1 emissions_carIn82220:1" vType="default_016" speedFactor="0.99" vaporized="">
        <emissions CO_abs="17518.230311" CO2_abs="721574.601202" HC_abs="96.760345" PMx_abs="13.933475" NOx_abs="300.059284" fuel_abs="310.178003" electricity_abs="0"/>
    </tripinfo>
    <tripinfo id="h17549c1:1" depart="57680.00" departLane="-447569998#1_1" departPos="5.10" departSpeed="0.00" departDelay="0.00" arrival="57876.00" arrivalLane="-315358254#1_1" arrivalPos="137.16" arrivalSpeed="14.21" duration="196.00" routeLength="1746.60" waitingTime="39.00" waitingCount="3" stopTime="0.00" timeLoss="64.20" rerouteNo="1" devices="tripinfo_h17549c1:1 routing_h17549c1:1 emissions_h17549c1:1" vType="default_016" speedFactor="1.04" vaporized="">
        <emissions CO_abs="9682.748674" CO2_abs="472590.665576" HC_abs="55.048316" PMx_abs="8.479423" NOx_abs="192.859379" fuel_abs="203.148481" electricity_abs="0"/>
    </tripinfo>
    <tripinfo id="carIn7949:1" depart="57676.00" departLane="128361109#1_1" departPos="5.10" departSpeed="0.00" departDelay="2.10" arrival="57877.00" arrivalLane="386687235_1" arrivalPos="80.84" arrivalSpeed="13.37" duration="201.00" routeLength="2088.57" waitingTime="22.00" waitingCount="2" stopTime="0.00" timeLoss="45.60" rerouteNo="1" devices="tripinfo_carIn7949:1 routing_carIn7949:1 emissions_carIn7949:1" vType="default_016" speedFactor="0.97" vaporized="">
        <emissions CO_abs="7122.484398" CO2_abs="454608.721248" HC_abs="43.019895" PMx_abs="7.413765" NOx_abs="180.128373" fuel_abs="195.418081" electricity_abs="0"/>
    </tripinfo>
    <tripinfo id="randUni15030:1" depart="57735.00" departLane="386687232#0_1" departPos="5.10" departSpeed="0.00" departDelay="0.10" arrival="57877.00" arrivalLane="26677539_1" arrivalPos="151.98" arrivalSpeed="6.79" duration="142.00" routeLength="919.89" waitingTime="36.00" waitingCount="1" stopTime="0.00" timeLoss="52.20" rerouteNo="1" devices="tripinfo_randUni15030:1 routing_randUni15030:1 emissions_randUni15030:1" vType="random_016" speedFactor="0.93" vaporized="">
        <emissions CO_abs="9539.152059" CO2_abs="319433.563827" HC_abs="50.864435" PMx_abs="5.993432" NOx_abs="133.523279" fuel_abs="137.314181" electricity_abs="0"/>
    </tripinfo>
    <tripinfo id="carIn88905:1" depart="57688.00" departLane="128361109#1_1" departPos="5.10" departSpeed="0.00" departDelay="5.80" arrival="57878.00" arrivalLane="386687235_1" arrivalPos="80.84" arrivalSpeed="13.21" duration="190.00" routeLength="2088.57" waitingTime="9.00" waitingCount="2" stopTime="0.00" timeLoss="38.08" rerouteNo="1" devices="tripinfo_carIn88905:1 routing_carIn88905:1 emissions_carIn88905:1" vType="default_016" speedFactor="1.00" vaporized="">
        <emissions CO_abs="6620.102575" CO2_abs="464526.053106" HC_abs="40.978678" PMx_abs="7.844904" NOx_abs="186.261032" fuel_abs="199.680113" electricity_abs="0"/>
    </tripinfo>