<?xml version="1.0" encoding="UTF-8"?>

<!-- generated on 2021-10-26 21:47:50 by Eclipse SUMO sumo Version 1.10.0
<configuration xmlns:xsi="http://www.w3.org/2001/XMLSchema-instance" xsi:noNamespaceSchemaLocation="http://sumo.dlr.de/xsd/sumoConfiguration.xsd">

    <input>
        <net-file value="/Users/behradkoohy/sumo-scratchpad/RESCO/environments/ingolstadt21/ingolstadt21.net.xml"/>
        <route-files value="/Users/behradkoohy/sumo-scratchpad/RESCO/environments/ingolstadt21/ingolstadt21.rou.xml"/>
    </input>

    <output>
        <tripinfo-output value="/Users/behradkoohy/sumo-scratchpad/RESCO/logs/MPLight-tr0-ingolstadt21-21-mplight_full-pressure/tripinfo_70.xml"/>
        <tripinfo-output.write-unfinished value="true"/>
    </output>

    <time>
        <begin value="57600"/>
        <end value="61200"/>
    </time>

    <processing>
        <time-to-teleport value="-1"/>
    </processing>

    <report>
        <no-warnings value="true"/>
        <no-step-log value="true"/>
    </report>

    <emissions>
        <device.emissions.probability value="1"/>
    </emissions>

    <traci_server>
        <remote-port value="65266"/>
    </traci_server>

    <random_number>
        <random value="true"/>
    </random_number>

</configuration>
-->

<tripinfos xmlns:xsi="http://www.w3.org/2001/XMLSchema-instance" xsi:noNamespaceSchemaLocation="http://sumo.dlr.de/xsd/tripinfo_file.xsd">
    <tripinfo id="h15454c2:3" depart="57612.00" departLane="24608844_1" departPos="5.10" departSpeed="0.00" departDelay="0.50" arrival="57650.00" arrivalLane="32978638#0_1" arrivalPos="49.29" arrivalSpeed="14.61" duration="38.00" routeLength="354.79" waitingTime="0.00" waitingCount="0" stopTime="0.00" timeLoss="6.11" rerouteNo="1" devices="tripinfo_h15454c2:3 routing_h15454c2:3 emissions_h15454c2:3" vType="default_016" speedFactor="1.07" vaporized="">
        <emissions CO_abs="2080.260689" CO2_abs="125978.299367" HC_abs="12.389069" PMx_abs="2.187719" NOx_abs="51.365712" fuel_abs="54.152845" electricity_abs="0"/>
    </tripinfo>
    <tripinfo id="carIn53971:1" depart="57640.00" departLane="272042143_1" departPos="5.10" departSpeed="0.00" departDelay="0.80" arrival="57689.00" arrivalLane="24634414#1_1" arrivalPos="162.19" arrivalSpeed="8.90" duration="49.00" routeLength="493.04" waitingTime="0.00" waitingCount="0" stopTime="0.00" timeLoss="7.63" rerouteNo="1" devices="tripinfo_carIn53971:1 routing_carIn53971:1 emissions_carIn53971:1" vType="default_016" speedFactor="1.11" vaporized="">
        <emissions CO_abs="2348.800196" CO2_abs="143615.308576" HC_abs="14.014900" PMx_abs="2.588755" NOx_abs="59.121188" fuel_abs="61.734100" electricity_abs="0"/>
    </tripinfo>
    <tripinfo id="h7800c1:5" depart="57696.00" departLane="-447569998#1_1" departPos="5.10" departSpeed="0.00" departDelay="0.00" arrival="57718.00" arrivalLane="-447569998#1_1" arrivalPos="180.76" arrivalSpeed="8.51" duration="22.00" routeLength="175.66" waitingTime="0.00" waitingCount="0" stopTime="0.00" timeLoss="3.40" rerouteNo="1" devices="tripinfo_h7800c1:5 routing_h7800c1:5 emissions_h7800c1:5" vType="default_016" speedFactor="1.18" vaporized="">
        <emissions CO_abs="930.829996" CO2_abs="44679.259734" HC_abs="5.268548" PMx_abs="0.738588" NOx_abs="18.166225" fuel_abs="19.205965" electricity_abs="0"/>
    </tripinfo>
    <tripinfo id="carIn60260:1" depart="57606.00" departLane="315358254#0_1" departPos="5.10" departSpeed="0.00" departDelay="0.90" arrival="57731.00" arrivalLane="399835085#1_1" arrivalPos="212.23" arrivalSpeed="8.01" duration="125.00" routeLength="430.98" waitingTime="71.00" waitingCount="1" stopTime="0.00" timeLoss="80.97" rerouteNo="1" devices="tripinfo_carIn60260:1 routing_carIn60260:1 emissions_carIn60260:1" vType="default_016" speedFactor="1.04" vaporized="">
        <emissions CO_abs="13429.038535" CO2_abs="296528.975851" HC_abs="68.063061" PMx_abs="6.470065" NOx_abs="129.976211" fuel_abs="127.470746" electricity_abs="0"/>
    </tripinfo>
    <tripinfo id="h3568c1:3" depart="57656.00" departLane="266565295#5_1" departPos="5.10" departSpeed="0.00" departDelay="0.80" arrival="57732.00" arrivalLane="-24634415_1" arrivalPos="62.03" arrivalSpeed="12.90" duration="76.00" routeLength="807.40" waitingTime="0.00" waitingCount="0" stopTime="0.00" timeLoss="12.56" rerouteNo="1" devices="tripinfo_h3568c1:3 routing_h3568c1:3 emissions_h3568c1:3" vType="default_016" speedFactor="1.02" vaporized="">
        <emissions CO_abs="3318.664204" CO2_abs="214741.178965" HC_abs="20.104000" PMx_abs="3.677118" NOx_abs="86.871333" fuel_abs="92.308251" electricity_abs="0"/>
    </tripinfo>
    <tripinfo id="h5979c1:5" depart="57669.00" departLane="399835085#1_1" departPos="5.10" departSpeed="0.00" departDelay="0.00" arrival="57749.00" arrivalLane="-315358254#1_1" arrivalPos="137.16" arrivalSpeed="13.06" duration="80.00" routeLength="659.33" waitingTime="0.00" waitingCount="0" stopTime="0.00" timeLoss="8.76" rerouteNo="1" devices="tripinfo_h5979c1:5 routing_h5979c1:5 emissions_h5979c1:5" vType="default_016" speedFactor="1.02" vaporized="">
        <emissions CO_abs="3191.470076" CO2_abs="169920.603929" HC_abs="18.400068" PMx_abs="2.627077" NOx_abs="67.647710" fuel_abs="73.042599" electricity_abs="0"/>
    </tripinfo>
    <tripinfo id="h4538c1:1" depart="57701.00" departLane="-10427692#1_1" departPos="5.10" departSpeed="0.00" departDelay="0.00" arrival="57750.00" arrivalLane="-128361102#1_1" arrivalPos="274.68" arrivalSpeed="11.93" duration="49.00" routeLength="440.74" waitingTime="2.00" waitingCount="1" stopTime="0.00" timeLoss="12.94" rerouteNo="1" devices="tripinfo_h4538c1:1 routing_h4538c1:1 emissions_h4538c1:1" vType="default_016" speedFactor="0.89" vaporized="">
        <emissions CO_abs="1988.169694" CO2_abs="122286.840943" HC_abs="11.903285" PMx_abs="2.051696" NOx_abs="49.381503" fuel_abs="52.566131" electricity_abs="0"/>
    </tripinfo>
    <tripinfo id="h3326c1:2" depart="57656.00" departLane="22716069#0_1" departPos="5.10" departSpeed="0.00" departDelay="0.00" arrival="57754.00" arrivalLane="24634517#13_1" arrivalPos="111.62" arrivalSpeed="16.12" duration="98.00" routeLength="1312.81" waitingTime="0.00" waitingCount="0" stopTime="0.00" timeLoss="14.58" rerouteNo="1" devices="tripinfo_h3326c1:2 routing_h3326c1:2 emissions_h3326c1:2" vType="default_016" speedFactor="1.17" vaporized="">
        <emissions CO_abs="4436.788708" CO2_abs="345033.842828" HC_abs="28.193109" PMx_abs="6.242889" NOx_abs="139.997771" fuel_abs="148.314493" electricity_abs="0"/>
    </tripinfo>
    <tripinfo id="h317c2:1" depart="57707.00" departLane="-32978638#0_1" departPos="5.10" departSpeed="0.00" departDelay="0.10" arrival="57760.00" arrivalLane="-266565295#5_1" arrivalPos="172.76" arrivalSpeed="9.96" duration="53.00" routeLength="370.53" waitingTime="10.00" waitingCount="1" stopTime="0.00" timeLoss="18.46" rerouteNo="1" devices="tripinfo_h317c2:1 routing_h317c2:1 emissions_h317c2:1" vType="default_016" speedFactor="0.79" vaporized="">
        <emissions CO_abs="2801.788182" CO2_abs="116033.917588" HC_abs="15.449869" PMx_abs="2.048623" NOx_abs="47.788278" fuel_abs="49.878853" electricity_abs="0"/>
    </tripinfo>
    <tripinfo id="carIn27009:1" depart="57673.00" departLane="-447569998#1_1" departPos="5.10" departSpeed="0.00" departDelay="0.50" arrival="57782.00" arrivalLane="-26677539_1" arrivalPos="152.75" arrivalSpeed="6.66" duration="109.00" routeLength="699.63" waitingTime="0.00" waitingCount="0" stopTime="0.00" timeLoss="12.34" rerouteNo="1" devices="tripinfo_carIn27009:1 routing_carIn27009:1 emissions_carIn27009:1" vType="default_015" speedFactor="0.87" vaporized="">
        <emissions CO_abs="4357.475009" CO2_abs="179601.431780" HC_abs="23.927192" PMx_abs="2.816390" NOx_abs="72.484404" fuel_abs="77.204742" electricity_abs="0"/>
    </tripinfo>
    <tripinfo id="carIn80064:1" depart="57603.00" departLane="128361109#1_1" departPos="5.10" departSpeed="0.00" departDelay="0.40" arrival="57798.00" arrivalLane="-315358254#1_1" arrivalPos="137.16" arrivalSpeed="13.44" duration="195.00" routeLength="1587.97" waitingTime="75.00" waitingCount="2" stopTime="0.00" timeLoss="102.91" rerouteNo="1" devices="tripinfo_carIn80064:1 routing_carIn80064:1 emissions_carIn80064:1" vType="default_016" speedFactor="0.97" vaporized="">
        <emissions CO_abs="17749.498351" CO2_abs="636230.510283" HC_abs="95.986612" PMx_abs="13.366124" NOx_abs="271.299857" fuel_abs="273.492116" electricity_abs="0"/>
    </tripinfo>
    <tripinfo id="carIn86816:1" depart="57617.00" departLane="128361102#0_1" departPos="5.10" departSpeed="0.00" departDelay="0.80" arrival="57807.00" arrivalLane="201956811#0_1" arrivalPos="40.40" arrivalSpeed="14.89" duration="190.00" routeLength="2067.33" waitingTime="15.00" waitingCount="3" stopTime="0.00" timeLoss="50.63" rerouteNo="1" devices="tripinfo_carIn86816:1 routing_carIn86816:1 emissions_carIn86816:1" vType="default_016" speedFactor="1.08" vaporized="">
        <emissions CO_abs="7481.888021" CO2_abs="506660.872826" HC_abs="45.755595" PMx_abs="8.733120" NOx_abs="203.358153" fuel_abs="217.792110" electricity_abs="0"/>
    </tripinfo>
    <tripinfo id="h11737c1:1" depart="57665.00" departLane="272042143_1" departPos="5.10" departSpeed="0.00" departDelay="1.50" arrival="57807.00" arrivalLane="-315358254#1_1" arrivalPos="137.16" arrivalSpeed="13.12" duration="142.00" routeLength="1596.88" waitingTime="5.00" waitingCount="1" stopTime="0.00" timeLoss="24.07" rerouteNo="1" devices="tripinfo_h11737c1:1 routing_h11737c1:1 emissions_h11737c1:1" vType="default_016" speedFactor="0.99" vaporized="">
        <emissions CO_abs="4158.312208" CO2_abs="328931.321505" HC_abs="26.555987" PMx_abs="5.227567" NOx_abs="129.521506" fuel_abs="141.393742" electricity_abs="0"/>
    </tripinfo>
    <tripinfo id="carIn107282:1" depart="57749.00" departLane="-447569998#1_1" departPos="5.10" departSpeed="0.00" departDelay="0.00" arrival="57812.00" arrivalLane="315358242#0_1" arrivalPos="165.37" arrivalSpeed="9.92" duration="63.00" routeLength="448.50" waitingTime="0.00" waitingCount="0" stopTime="0.00" timeLoss="7.66" rerouteNo="1" devices="tripinfo_carIn107282:1 routing_carIn107282:1 emissions_carIn107282:1" vType="default_016" speedFactor="0.76" vaporized="">
        <emissions CO_abs="2775.101423" CO2_abs="125508.527279" HC_abs="15.523748" PMx_abs="2.073361" NOx_abs="51.081985" fuel_abs="53.951618" electricity_abs="0"/>
    </tripinfo>
    <tripinfo id="carIn81860:1" depart="57712.00" departLane="128361102#0_1" departPos="5.10" departSpeed="0.00" departDelay="0.60" arrival="57816.00" arrivalLane="-24634517#17_1" arrivalPos="6.43" arrivalSpeed="7.39" duration="104.00" routeLength="1229.64" waitingTime="0.00" waitingCount="0" stopTime="0.00" timeLoss="14.65" rerouteNo="1" devices="tripinfo_carIn81860:1 routing_carIn81860:1 emissions_carIn81860:1" vType="default_016" speedFactor="1.01" vaporized="">
        <emissions CO_abs="3553.310398" CO2_abs="270063.184820" HC_abs="22.492900" PMx_abs="4.568442" NOx_abs="108.265470" fuel_abs="116.088490" electricity_abs="0"/>
    </tripinfo>
    <tripinfo id="carIn126288:1" depart="57674.00" departLane="272042143_1" departPos="5.10" departSpeed="0.00" departDelay="0.00" arrival="57819.00" arrivalLane="-315358254#1_1" arrivalPos="137.16" arrivalSpeed="11.19" duration="145.00" routeLength="1596.88" waitingTime="0.00" waitingCount="0" stopTime="0.00" timeLoss="12.52" rerouteNo="1" devices="tripinfo_carIn126288:1 routing_carIn126288:1 emissions_carIn126288:1" vType="default_016" speedFactor="0.88" vaporized="">
        <emissions CO_abs="3712.590322" CO2_abs="297265.469213" HC_abs="23.779126" PMx_abs="4.466376" NOx_abs="115.899706" fuel_abs="127.782234" electricity_abs="0"/>
    </tripinfo>
    <tripinfo id="carIn30817:1" depart="57681.00" departLane="315358244_1" departPos="5.10" departSpeed="0.00" departDelay="0.20" arrival="57821.00" arrivalLane="447569997#1_1" arrivalPos="180.93" arrivalSpeed="8.01" duration="140.00" routeLength="718.04" waitingTime="61.00" waitingCount="1" stopTime="0.00" timeLoss="77.82" rerouteNo="1" devices="tripinfo_carIn30817:1 routing_carIn30817:1 emissions_carIn30817:1" vType="default_016" speedFactor="0.99" vaporized="">
        <emissions CO_abs="12664.933866" CO2_abs="332924.870134" HC_abs="65.443606" PMx_abs="6.840516" NOx_abs="142.939897" fuel_abs="143.115087" electricity_abs="0"/>
    </tripinfo>
    <tripinfo id="h17549c1:1" depart="57680.00" departLane="-447569998#1_1" departPos="5.10" departSpeed="0.00" departDelay="0.00" arrival="57830.00" arrivalLane="-315358254#1_1" arrivalPos="137.16" arrivalSpeed="12.96" duration="150.00" routeLength="1746.60" waitingTime="0.00" waitingCount="0" stopTime="0.00" timeLoss="14.30" rerouteNo="1" devices="tripinfo_h17549c1:1 routing_h17549c1:1 emissions_h17549c1:1" vType="default_016" speedFactor="1.01" vaporized="">
        <emissions CO_abs="3971.873680" CO2_abs="339626.585020" HC_abs="25.940759" PMx_abs="5.117156" NOx_abs="131.493927" fuel_abs="145.991388" electricity_abs="0"/>
    </tripinfo>
    <tripinfo id="randUni15030:1" depart="57735.00" departLane="386687232#0_1" departPos="5.10" departSpeed="0.00" departDelay="0.10" arrival="57836.00" arrivalLane="26677539_1" arrivalPos="151.98" arrivalSpeed="8.07" duration="101.00" routeLength="919.89" waitingTime="2.00" waitingCount="1" stopTime="0.00" timeLoss="17.36" rerouteNo="1" devices="tripinfo_randUni15030:1 routing_randUni15030:1 emissions_randUni15030:1" vType="random_016" speedFactor="1.00" vaporized="">
        <emissions CO_abs="3790.998300" CO2_abs="220449.167951" HC_abs="22.387333" PMx_abs="3.667088" NOx_abs="88.856775" fuel_abs="94.762338" electricity_abs="0"/>
    </tripinfo>
    <tripinfo id="carIn85747:1" depart="57673.00" departLane="128361109#1_1" departPos="5.10" departSpeed="0.00" departDelay="0.70" arrival="57847.00" arrivalLane="386687235_1" arrivalPos="80.84" arrivalSpeed="14.90" duration="174.00" routeLength="2088.57" waitingTime="23.00" waitingCount="1" stopTime="0.00" timeLoss="38.47" rerouteNo="1" devices="tripinfo_carIn85747:1 routing_carIn85747:1 emissions_carIn85747:1" vType="default_016" speedFactor="1.12" vaporized="">
        <emissions CO_abs="6507.229857" CO2_abs="399175.798721" HC_abs="38.709788" PMx_abs="6.674817" NOx_abs="157.077752" fuel_abs="171.589825" electricity_abs="0"/>
    </tripinfo>
    <tripinfo id="carIn7949:1" depart="57676.00" departLane="128361109#1_1" departPos="5.10" departSpeed="0.00" departDelay="2.10" arrival="57848.00" arrivalLane="386687235_1" arrivalPos="80.84" arrivalSpeed="15.07" duration="172.00" routeLength="2088.57" waitingTime="19.00" waitingCount="1" stopTime="0.00" timeLoss="34.86" rerouteNo="1" devices="tripinfo_carIn7949:1 routing_carIn7949:1 emissions_carIn7949:1" vType="default_016" speedFactor="1.10" vaporized="">
        <emissions CO_abs="5783.967083" CO2_abs="376887.718758" HC_abs="35.003370" PMx_abs="6.252967" NOx_abs="148.174207" fuel_abs="162.008830" electricity_abs="0"/>
    </tripinfo>
    <tripinfo id="carIn75660:1" depart="57679.00" departLane="128361109#1_1" departPos="5.10" departSpeed="0.00" departDelay="3.40" arrival="57860.00" arrivalLane="386687235_2" arrivalPos="80.84" arrivalSpeed="13.56" duration="181.00" routeLength="2088.57" waitingTime="17.00" waitingCount="1" stopTime="0.00" timeLoss="32.25" rerouteNo="1" devices="tripinfo_carIn75660:1 routing_carIn75660:1 emissions_carIn75660:1" vType="default_016" speedFactor="1.01" vaporized="">
        <emissions CO_abs="5916.062107" CO2_abs="397506.390518" HC_abs="36.132796" PMx_abs="6.361484" NOx_abs="155.644730" fuel_abs="170.872094" electricity_abs="0"/>
    </tripinfo>
    <tripinfo id="carIn50326:1" depart="57651.00" departLane="128361102#0_1" departPos="5.10" departSpeed="0.00" departDelay="0.30" arrival="57862.00" arrivalLane="18809673#0_1" arrivalPos="473.56" arrivalSpeed="12.66" duration="211.00" routeLength="1591.07" waitingTime="56.00" waitingCount="2" stopTime="0.00" timeLoss="82.06" rerouteNo="1" devices="tripinfo_carIn50326:1 routing_carIn50326:1 emissions_carIn50326:1" vType="default_016" speedFactor="1.01" vaporized="">
        <emissions CO_abs="12543.770388" CO2_abs="466444.615751" HC_abs="67.984913" PMx_abs="8.704099" NOx_abs="193.515841" fuel_abs="200.508489" electricity_abs="0"/>
    </tripinfo>
    <tripinfo id="carIn118538:1" depart="57683.00" departLane="-447569998#1_1" departPos="5.10" departSpeed="0.00" departDelay="1.00" arrival="57864.00" arrivalLane="399835085#1_1" arrivalPos="212.23" arrivalSpeed="7.79" duration="181.00" routeLength="1907.17" waitingTime="0.00" waitingCount="0" stopTime="0.00" timeLoss="14.04" rerouteNo="1" devices="tripinfo_carIn118538:1 routing_carIn118538:1 emissions_carIn118538:1" vType="default_016" speedFactor="0.97" vaporized="">
        <emissions CO_abs="4868.809271" CO2_abs="365478.996897" HC_abs="30.572949" PMx_abs="5.368837" NOx_abs="141.531161" fuel_abs="157.104894" electricity_abs="0"/>
    </tripinfo>
    <tripinfo id="carIn53503:1" depart="57763.00" departLane="-306240162#1_0" departPos="5.10" departSpeed="0.00" departDelay="2.40" arrival="57864.00" arrivalLane="24634510#6_1" arrivalPos="76.64" arrivalSpeed="15.55" duration="101.00" routeLength="1440.47" waitingTime="0.00" waitingCount="0" stopTime="0.00" timeLoss="15.76" rerouteNo="1" devices="tripinfo_carIn53503:1 routing_carIn53503:1 emissions_carIn53503:1" vType="default_016" speedFactor="1.16" vaporized="">
        <emissions CO_abs="4223.519020" CO2_abs="335225.500417" HC_abs="27.027357" PMx_abs="6.079968" NOx_abs="135.415570" fuel_abs="144.098307" electricity_abs="0"/>
    </tripinfo>
    <tripinfo id="carIn24709:1" depart="57753.00" departLane="266565295#5_1" departPos="5.10" departSpeed="0.00" departDelay="2.50" arrival="57876.00" arrivalLane="-24634506#2_1" arrivalPos="71.32" arrivalSpeed="14.12" duration="123.00" routeLength="1450.12" waitingTime="0.00" waitingCount="0" stopTime="0.00" timeLoss="12.35" rerouteNo="1" devices="tripinfo_carIn24709:1 routing_carIn24709:1 emissions_carIn24709:1" vType="default_016" speedFactor="1.08" vaporized="">
        <emissions CO_abs="3825.570661" CO2_abs="302602.636857" HC_abs="24.411150" PMx_abs="4.961158" NOx_abs="119.889608" fuel_abs="130.075931" electricity_abs="0"/>
    </tripinfo>
    <tripinfo id="carIn129809:1" depart="57729.00" departLane="-447569998#1_1" departPos="5.10" departSpeed="0.00" departDelay="1.00" arrival="57883.00" arrivalLane="-315358244_2" arrivalPos="33.95" arrivalSpeed="14.50" duration="154.00" routeLength="706.49" waitingTime="80.00" waitingCount="2" stopTime="0.00" timeLoss="96.95" rerouteNo="1" devices="tripinfo_carIn129809:1 routing_carIn129809:1 emissions_carIn129809:1" vType="default_015" speedFactor="1.06" vaporized="">
        <emissions CO_abs="14892.833995" CO2_abs="381823.365727" HC_abs="76.742374" PMx_abs="8.039665" NOx_abs="164.719185" fuel_abs="164.135245" electricity_abs="0"/>
    </tripinfo>
    <tripinfo id="carIn121703:1" depart="57647.00" departLane="386687232#0_1" departPos="5.10" departSpeed="0.00" departDelay="0.30" arrival="57884.00" arrivalLane="-315358244_1" arrivalPos="33.95" arrivalSpeed="14.16" duration="237.00" routeLength="1157.39" waitingTime="131.00" waitingCount="3" stopTime="0.00" timeLoss="153.69" rerouteNo="1" devices="tripinfo_carIn121703:1 routing_carIn121703:1 emissions_carIn121703:1" vType="default_016" speedFactor="1.02" vaporized="">
        <emissions CO_abs="24246.407379" CO2_abs="615818.562454" HC_abs="124.764292" PMx_abs="13.156573" NOx_abs="266.318431" fuel_abs="264.723220" electricity_abs="0"/>
    </tripinfo>
    <tripinfo id="carIn8642:1" depart="57774.00" departLane="-447569998#1_1" departPos="5.10" departSpeed="0.00" departDelay="0.90" arrival="57886.00" arrivalLane="-315358244_1" arrivalPos="33.95" arrivalSpeed="11.74" duration="112.00" routeLength="706.49" waitingTime="29.00" waitingCount="1" stopTime="0.00" timeLoss="46.46" rerouteNo="1" devices="tripinfo_carIn8642:1 routing_carIn8642:1 emissions_carIn8642:1" vType="default_016" speedFactor="0.91" vaporized="">
        <emissions CO_abs="7562.092855" CO2_abs="247025.260969" HC_abs="40.191688" PMx_abs="4.738339" NOx_abs="103.976098" fuel_abs="106.188183" electricity_abs="0"/>
    </tripinfo>
    <tripinfo id="carIn13443:1" depart="57729.00" departLane="272042143_1" departPos="5.10" departSpeed="0.00" departDelay="0.80" arrival="57888.00" arrivalLane="399835085#1_1" arrivalPos="212.23" arrivalSpeed="7.90" duration="159.00" routeLength="1757.45" waitingTime="0.00" waitingCount="0" stopTime="0.00" timeLoss="20.68" rerouteNo="1" devices="tripinfo_carIn13443:1 routing_carIn13443:1 emissions_carIn13443:1" vType="default_016" speedFactor="1.02" vaporized="">
        <emissions CO_abs="4941.845225" CO2_abs="374400.955486" HC_abs="31.230071" PMx_abs="6.044846" NOx_abs="148.562266" fuel_abs="160.939214" electricity_abs="0"/>
    </tripinfo>
    <tripinfo id="h19413c1:1" depart="57685.00" departLane="128361109#1_1" departPos="5.10" departSpeed="0.00" departDelay="5.90" arrival="57889.00" arrivalLane="386687235_1" arrivalPos="80.84" arrivalSpeed="12.31" duration="204.00" routeLength="2088.57" waitingTime="14.00" waitingCount="2" stopTime="0.00" timeLoss="38.21" rerouteNo="1" devices="tripinfo_h19413c1:1 routing_h19413c1:1 emissions_h19413c1:1" vType="default_016" speedFactor="0.91" vaporized="">
        <emissions CO_abs="6100.442236" CO2_abs="417080.416505" HC_abs="37.433951" PMx_abs="6.434219" NOx_abs="163.292013" fuel_abs="179.286314" electricity_abs="0"/>
    </tripinfo>
    <tripinfo id="carIn88905:1" depart="57688.00" departLane="128361109#1_1" departPos="5.10" departSpeed="0.00" departDelay="5.80" arrival="57890.00" arrivalLane="386687235_1" arrivalPos="80.84" arrivalSpeed="11.31" duration="202.00" routeLength="2088.57" waitingTime="10.00" waitingCount="2" stopTime="0.00" timeLoss="33.69" rerouteNo="1" devices="tripinfo_carIn88905:1 routing_carIn88905:1 emissions_carIn88905:1" vType="default_016" speedFactor="0.90" vaporized="">
        <emissions CO_abs="5376.731140" CO2_abs="423660.586162" HC_abs="34.297647" PMx_abs="6.454109" NOx_abs="165.510117" fuel_abs="182.114274" electricity_abs="0"/>
    </tripinfo>
    <tripinfo id="h13377c2:3" depart="57804.00" departLane="315358244_1" departPos="5.10" departSpeed="0.00" departDelay="0.60" arrival="57890.00" arrivalLane="447569997#1_1" arrivalPos="180.93" arrivalSpeed="8.40" duration="86.00" routeLength="726.74" waitingTime="3.00" waitingCount="3" stopTime="0.00" timeLoss="20.12" rerouteNo="1" devices="tripinfo_h13377c2:3 routing_h13377c2:3 emissions_h13377c2:3" vType="default_016" speedFactor="1.02" vaporized="">
        <emissions CO_abs="3496.384333" CO2_abs="187355.205173" HC_abs="20.276600" PMx_abs="3.162959" NOx_abs="75.842816" fuel_abs="80.536720" electricity_abs="0"/>
    </tripinfo>
    <tripinfo id="h3864c1:3" depart="57678.00" departLane="24693977#1_1" departPos="5.10" departSpeed="0.00" departDelay="0.00" arrival="57892.00" arrivalLane="201956820_1" arrivalPos="48.33" arrivalSpeed="11.07" duration="214.00" routeLength="1574.85" waitingTime="40.00" waitingCount="2" stopTime="0.00" timeLoss="67.86" rerouteNo="1" devices="tripinfo_h3864c1:3 routing_h3864c1:3 emissions_h3864c1:3" vType="default_016" speedFactor="0.89" vaporized="">
        <emissions CO_abs="12014.719373" CO2_abs="472538.717223" HC_abs="65.727764" PMx_abs="8.695836" NOx_abs="196.465471" fuel_abs="203.127607" electricity_abs="0"/>
    </tripinfo>
    <tripinfo id="carIn106665:1" depart="57659.00" departLane="266565295#5_1" departPos="5.10" departSpeed="0.00" departDelay="1.80" arrival="57898.00" arrivalLane="201238729#3_1" arrivalPos="431.02" arrivalSpeed="14.28" duration="239.00" routeLength="2840.38" waitingTime="23.00" waitingCount="2" stopTime="0.00" timeLoss="47.83" rerouteNo="1" devices="tripinfo_carIn106665:1 routing_carIn106665:1 emissions_carIn106665:1" vType="default_016" speedFactor="1.08" vaporized="">
        <emissions CO_abs="8387.050047" CO2_abs="557208.149240" HC_abs="50.971495" PMx_abs="9.367340" NOx_abs="220.567620" fuel_abs="239.520900" electricity_abs="0"/>
    </tripinfo>
    <tripinfo id="carIn14532:1" depart="57743.00" departLane="272042143_1" departPos="5.10" departSpeed="0.00" departDelay="1.90" arrival="57899.00" arrivalLane="399835085#1_1" arrivalPos="212.23" arrivalSpeed="8.73" duration="156.00" routeLength="1757.45" waitingTime="2.00" waitingCount="1" stopTime="0.00" timeLoss="21.19" rerouteNo="1" devices="tripinfo_carIn14532:1 routing_carIn14532:1 emissions_carIn14532:1" vType="default_016" speedFactor="1.05" vaporized="">
        <emissions CO_abs="4783.216339" CO2_abs="353565.216485" HC_abs="29.993861" PMx_abs="5.809363" NOx_abs="140.415442" fuel_abs="151.982798" electricity_abs="0"/>
    </tripinfo>
    <tripinfo id="randUni23028:1" depart="57884.00" departLane="124812856#0_1" departPos="5.10" departSpeed="0.00" departDelay="0.10" arrival="57901.00" arrivalLane="201956810_1" arrivalPos="71.65" arrivalSpeed="11.96" duration="17.00" routeLength="134.91" waitingTime="0.00" waitingCount="0" stopTime="0.00" timeLoss="4.63" rerouteNo="1" devices="tripinfo_randUni23028:1 routing_randUni23028:1 emissions_randUni23028:1" vType="random_016" speedFactor="0.91" vaporized="">
        <emissions CO_abs="1279.870010" CO2_abs="65463.975990" HC_abs="7.368515" PMx_abs="1.226652" NOx_abs="27.483782" fuel_abs="28.140262" electricity_abs="0"/>
    </tripinfo>
    <tripinfo id="carIn99233:1" depart="57691.00" departLane="128361109#1_1" departPos="5.10" departSpeed="0.00" departDelay="1.90" arrival="57904.00" arrivalLane="386687235_1" arrivalPos="80.84" arrivalSpeed="13.76" duration="213.00" routeLength="2088.57" waitingTime="22.00" waitingCount="3" stopTime="0.00" timeLoss="69.33" rerouteNo="1" devices="tripinfo_carIn99233:1 routing_carIn99233:1 emissions_carIn99233:1" vType="default_016" speedFactor="1.05" vaporized="">
        <emissions CO_abs="8688.818201" CO2_abs="515022.662120" HC_abs="51.675690" PMx_abs="9.196259" NOx_abs="210.903652" fuel_abs="221.386752" electricity_abs="0"/>
    </tripinfo>
    <tripinfo id="carIn5824:1" depart="57700.00" departLane="128361109#1_1" departPos="5.10" departSpeed="0.00" departDelay="5.60" arrival="57904.00" arrivalLane="386687235_2" arrivalPos="80.84" arrivalSpeed="12.83" duration="204.00" routeLength="2088.57" waitingTime="10.00" waitingCount="2" stopTime="0.00" timeLoss="43.85" rerouteNo="1" devices="tripinfo_carIn5824:1 routing_carIn5824:1 emissions_carIn5824:1" vType="default_016" speedFactor="0.94" vaporized="">
        <emissions CO_abs="6962.189518" CO2_abs="492534.588319" HC_abs="43.230665" PMx_abs="8.273140" NOx_abs="197.966108" fuel_abs="211.719749" electricity_abs="0"/>
    </tripinfo>
    <tripinfo id="h19577c1:1" depart="57694.00" departLane="128361109#1_1" departPos="5.10" departSpeed="0.00" departDelay="2.80" arrival="57906.00" arrivalLane="386687235_1" arrivalPos="80.84" arrivalSpeed="14.40" duration="212.00" routeLength="2088.57" waitingTime="19.00" waitingCount="3" stopTime="0.00" timeLoss="66.64" rerouteNo="1" devices="tripinfo_h19577c1:1 routing_h19577c1:1 emissions_h19577c1:1" vType="default_016" speedFactor="1.04" vaporized="">
        <emissions CO_abs="9649.080941" CO2_abs="586905.360832" HC_abs="57.812543" PMx_abs="10.930180" NOx_abs="243.550007" fuel_abs="252.285186" electricity_abs="0"/>
    </tripinfo>
    <tripinfo id="carIn102915:1" depart="57643.00" departLane="128361102#0_1" departPos="5.10" departSpeed="0.00" departDelay="0.40" arrival="57912.00" arrivalLane="201956811#0_1" arrivalPos="40.40" arrivalSpeed="13.48" duration="269.00" routeLength="2067.33" waitingTime="89.00" waitingCount="3" stopTime="0.00" timeLoss="119.07" rerouteNo="1" devices="tripinfo_carIn102915:1 routing_carIn102915:1 emissions_carIn102915:1" vType="default_016" speedFactor="1.01" vaporized="">
        <emissions CO_abs="18613.698016" CO2_abs="676423.967325" HC_abs="100.552101" PMx_abs="13.026510" NOx_abs="282.452822" fuel_abs="290.771206" electricity_abs="0"/>
    </tripinfo>
    <tripinfo id="randUni31145:1" depart="57814.00" departLane="10425609#0_1" departPos="5.10" departSpeed="0.00" departDelay="0.30" arrival="57913.00" arrivalLane="201956810_1" arrivalPos="71.65" arrivalSpeed="14.53" duration="99.00" routeLength="255.78" waitingTime="70.00" waitingCount="1" stopTime="0.00" timeLoss="80.74" rerouteNo="1" devices="tripinfo_randUni31145:1 routing_randUni31145:1 emissions_randUni31145:1" vType="random_016" speedFactor="1.11" vaporized="">
        <emissions CO_abs="12997.766925" CO2_abs="292045.074368" HC_abs="66.064883" PMx_abs="6.661814" NOx_abs="129.622010" fuel_abs="125.542614" electricity_abs="0"/>
    </tripinfo>
    <tripinfo id="h17600c1:1" depart="57662.00" departLane="272042143_1" departPos="5.10" departSpeed="0.00" departDelay="0.30" arrival="57914.00" arrivalLane="201238729#3_1" arrivalPos="431.02" arrivalSpeed="9.44" duration="252.00" routeLength="2100.26" waitingTime="30.00" waitingCount="1" stopTime="0.00" timeLoss="50.13" rerouteNo="1" devices="tripinfo_h17600c1:1 routing_h17600c1:1 emissions_h17600c1:1" vType="default_016" speedFactor="0.75" vaporized="">
        <emissions CO_abs="10256.244195" CO2_abs="464340.603329" HC_abs="57.351264" PMx_abs="7.357152" NOx_abs="185.141338" fuel_abs="199.604043" electricity_abs="0"/>
    </tripinfo>
    <tripinfo id="randUni33724:1" depart="57646.00" departLane="128361102#0_1" departPos="5.10" departSpeed="0.00" departDelay="1.20" arrival="57915.00" arrivalLane="201956811#0_1" arrivalPos="40.40" arrivalSpeed="9.36" duration="269.00" routeLength="2067.33" waitingTime="64.00" waitingCount="3" stopTime="0.00" timeLoss="95.92" rerouteNo="1" devices="tripinfo_randUni33724:1 routing_randUni33724:1 emissions_randUni33724:1" vType="random_016" speedFactor="0.87" vaporized="">