<?xml version="1.0" encoding="UTF-8"?>

<!-- generated on 2021-10-26 21:29:32 by Eclipse SUMO sumo Version 1.10.0
<configuration xmlns:xsi="http://www.w3.org/2001/XMLSchema-instance" xsi:noNamespaceSchemaLocation="http://sumo.dlr.de/xsd/sumoConfiguration.xsd">

    <input>
        <net-file value="/Users/behradkoohy/sumo-scratchpad/RESCO/environments/ingolstadt21/ingolstadt21.net.xml"/>
        <route-files value="/Users/behradkoohy/sumo-scratchpad/RESCO/environments/ingolstadt21/ingolstadt21.rou.xml"/>
    </input>

    <output>
        <tripinfo-output value="/Users/behradkoohy/sumo-scratchpad/RESCO/logs/MPLight-tr0-ingolstadt21-21-mplight_full-pressure/tripinfo_55.xml"/>
        <tripinfo-output.write-unfinished value="true"/>
    </output>

    <time>
        <begin value="57600"/>
        <end value="61200"/>
    </time>

    <processing>
        <time-to-teleport value="-1"/>
    </processing>

    <report>
        <no-warnings value="true"/>
        <no-step-log value="true"/>
    </report>

    <emissions>
        <device.emissions.probability value="1"/>
    </emissions>

    <traci_server>
        <remote-port value="65118"/>
    </traci_server>

    <random_number>
        <random value="true"/>
    </random_number>

</configuration>
-->

<tripinfos xmlns:xsi="http://www.w3.org/2001/XMLSchema-instance" xsi:noNamespaceSchemaLocation="http://sumo.dlr.de/xsd/tripinfo_file.xsd">
    <tripinfo id="h15454c2:3" depart="57612.00" departLane="24608844_1" departPos="5.10" departSpeed="0.00" departDelay="0.50" arrival="57647.00" arrivalLane="32978638#0_1" arrivalPos="49.29" arrivalSpeed="16.09" duration="35.00" routeLength="354.79" waitingTime="0.00" waitingCount="0" stopTime="0.00" timeLoss="5.03" rerouteNo="1" devices="tripinfo_h15454c2:3 routing_h15454c2:3 emissions_h15454c2:3" vType="default_016" speedFactor="1.16" vaporized="">
        <emissions CO_abs="1773.127628" CO2_abs="111236.167334" HC_abs="10.679335" PMx_abs="1.915253" NOx_abs="45.084856" fuel_abs="47.815808" electricity_abs="0"/>
    </tripinfo>
    <tripinfo id="carIn60260:1" depart="57606.00" departLane="315358254#0_1" departPos="5.10" departSpeed="0.00" departDelay="0.90" arrival="57666.00" arrivalLane="399835085#1_1" arrivalPos="212.23" arrivalSpeed="6.75" duration="60.00" routeLength="430.98" waitingTime="1.00" waitingCount="1" stopTime="0.00" timeLoss="10.95" rerouteNo="1" devices="tripinfo_carIn60260:1 routing_carIn60260:1 emissions_carIn60260:1" vType="default_016" speedFactor="0.94" vaporized="">
        <emissions CO_abs="2455.160161" CO2_abs="113128.822001" HC_abs="13.785974" PMx_abs="1.877204" NOx_abs="46.041236" fuel_abs="48.629980" electricity_abs="0"/>
    </tripinfo>
    <tripinfo id="carIn53971:1" depart="57640.00" departLane="272042143_1" departPos="5.10" departSpeed="0.00" departDelay="0.80" arrival="57693.00" arrivalLane="24634414#1_1" arrivalPos="162.19" arrivalSpeed="7.57" duration="53.00" routeLength="493.04" waitingTime="0.00" waitingCount="0" stopTime="0.00" timeLoss="7.88" rerouteNo="1" devices="tripinfo_carIn53971:1 routing_carIn53971:1 emissions_carIn53971:1" vType="default_016" speedFactor="1.02" vaporized="">
        <emissions CO_abs="2360.582820" CO2_abs="142455.113939" HC_abs="14.008018" PMx_abs="2.349109" NOx_abs="57.274173" fuel_abs="61.235740" electricity_abs="0"/>
    </tripinfo>
    <tripinfo id="h7800c1:5" depart="57696.00" departLane="-447569998#1_1" departPos="5.10" departSpeed="0.00" departDelay="0.00" arrival="57716.00" arrivalLane="-447569998#1_2" arrivalPos="180.76" arrivalSpeed="9.93" duration="20.00" routeLength="175.66" waitingTime="0.00" waitingCount="0" stopTime="0.00" timeLoss="3.60" rerouteNo="1" devices="tripinfo_h7800c1:5 routing_h7800c1:5 emissions_h7800c1:5" vType="default_016" speedFactor="1.31" vaporized="">
        <emissions CO_abs="991.511276" CO2_abs="51912.859689" HC_abs="5.717913" PMx_abs="0.869248" NOx_abs="21.086221" fuel_abs="22.315338" electricity_abs="0"/>
    </tripinfo>
    <tripinfo id="h3688c1:1" depart="57625.00" departLane="201201950#1_1" departPos="5.10" departSpeed="0.00" departDelay="0.00" arrival="57730.00" arrivalLane="32978638#0_1" arrivalPos="49.29" arrivalSpeed="13.70" duration="105.00" routeLength="1089.75" waitingTime="13.00" waitingCount="1" stopTime="0.00" timeLoss="28.76" rerouteNo="1" devices="tripinfo_h3688c1:1 routing_h3688c1:1 emissions_h3688c1:1" vType="default_016" speedFactor="1.05" vaporized="">
        <emissions CO_abs="4892.589391" CO2_abs="279219.187783" HC_abs="28.721714" PMx_abs="4.968692" NOx_abs="113.505529" fuel_abs="120.024912" electricity_abs="0"/>
    </tripinfo>
    <tripinfo id="h3568c1:3" depart="57656.00" departLane="266565295#5_1" departPos="5.10" departSpeed="0.00" departDelay="0.80" arrival="57742.00" arrivalLane="-24634415_1" arrivalPos="62.03" arrivalSpeed="12.19" duration="86.00" routeLength="807.40" waitingTime="0.00" waitingCount="0" stopTime="0.00" timeLoss="13.14" rerouteNo="1" devices="tripinfo_h3568c1:3 routing_h3568c1:3 emissions_h3568c1:3" vType="default_016" speedFactor="0.88" vaporized="">
        <emissions CO_abs="3212.619688" CO2_abs="201990.928040" HC_abs="19.313770" PMx_abs="3.264821" NOx_abs="80.828624" fuel_abs="86.827793" electricity_abs="0"/>
    </tripinfo>
    <tripinfo id="h7181c1:1" depart="57660.00" departLane="315358254#0_1" departPos="5.10" departSpeed="0.00" departDelay="0.10" arrival="57742.00" arrivalLane="306240162#0_0" arrivalPos="220.43" arrivalSpeed="14.93" duration="82.00" routeLength="932.35" waitingTime="17.00" waitingCount="1" stopTime="0.00" timeLoss="27.96" rerouteNo="1" devices="tripinfo_h7181c1:1 routing_h7181c1:1 emissions_h7181c1:1" vType="default_016" speedFactor="0.96" vaporized="">
        <emissions CO_abs="4982.448588" CO2_abs="254558.551534" HC_abs="28.725277" PMx_abs="4.985738" NOx_abs="105.160492" fuel_abs="109.424208" electricity_abs="0"/>
    </tripinfo>
    <tripinfo id="h4538c1:1" depart="57701.00" departLane="-10427692#1_1" departPos="5.10" departSpeed="0.00" departDelay="0.00" arrival="57748.00" arrivalLane="-128361102#1_1" arrivalPos="274.68" arrivalSpeed="12.44" duration="47.00" routeLength="440.74" waitingTime="3.00" waitingCount="1" stopTime="0.00" timeLoss="13.25" rerouteNo="1" devices="tripinfo_h4538c1:1 routing_h4538c1:1 emissions_h4538c1:1" vType="default_016" speedFactor="0.95" vaporized="">
        <emissions CO_abs="1964.344026" CO2_abs="113923.653388" HC_abs="11.617661" PMx_abs="2.021092" NOx_abs="46.709800" fuel_abs="48.971066" electricity_abs="0"/>
    </tripinfo>
    <tripinfo id="h5979c1:5" depart="57669.00" departLane="399835085#1_1" departPos="5.10" departSpeed="0.00" departDelay="0.00" arrival="57762.00" arrivalLane="-315358254#1_1" arrivalPos="137.16" arrivalSpeed="11.69" duration="93.00" routeLength="659.33" waitingTime="0.00" waitingCount="0" stopTime="0.00" timeLoss="11.93" rerouteNo="1" devices="tripinfo_h5979c1:5 routing_h5979c1:5 emissions_h5979c1:5" vType="default_016" speedFactor="0.90" vaporized="">
        <emissions CO_abs="3800.305165" CO2_abs="171717.147076" HC_abs="21.239133" PMx_abs="2.758730" NOx_abs="69.435124" fuel_abs="73.815164" electricity_abs="0"/>
    </tripinfo>
    <tripinfo id="h12244c1:3" depart="57612.00" departLane="315358244_1" departPos="5.10" departSpeed="0.00" departDelay="0.40" arrival="57766.00" arrivalLane="386687235_1" arrivalPos="80.84" arrivalSpeed="14.43" duration="154.00" routeLength="1186.14" waitingTime="53.00" waitingCount="3" stopTime="0.00" timeLoss="77.55" rerouteNo="1" devices="tripinfo_h12244c1:3 routing_h12244c1:3 emissions_h12244c1:3" vType="default_016" speedFactor="1.13" vaporized="">
        <emissions CO_abs="11449.062481" CO2_abs="406590.612127" HC_abs="61.514467" PMx_abs="7.964457" NOx_abs="169.903611" fuel_abs="174.779273" electricity_abs="0"/>
    </tripinfo>
    <tripinfo id="h9563c2:5" depart="57631.00" departLane="315358244_1" departPos="5.10" departSpeed="0.00" departDelay="0.70" arrival="57769.00" arrivalLane="386687235_1" arrivalPos="80.84" arrivalSpeed="14.76" duration="138.00" routeLength="1186.14" waitingTime="34.00" waitingCount="2" stopTime="0.00" timeLoss="59.73" rerouteNo="1" devices="tripinfo_h9563c2:5 routing_h9563c2:5 emissions_h9563c2:5" vType="default_016" speedFactor="1.11" vaporized="">
        <emissions CO_abs="8808.052925" CO2_abs="358674.893546" HC_abs="48.475176" PMx_abs="6.753166" NOx_abs="148.038839" fuel_abs="154.181298" electricity_abs="0"/>
    </tripinfo>
    <tripinfo id="h3326c1:2" depart="57656.00" departLane="22716069#0_1" departPos="5.10" departSpeed="0.00" departDelay="0.00" arrival="57769.00" arrivalLane="24634517#13_1" arrivalPos="111.62" arrivalSpeed="13.64" duration="113.00" routeLength="1312.81" waitingTime="0.00" waitingCount="0" stopTime="0.00" timeLoss="14.23" rerouteNo="1" devices="tripinfo_h3326c1:2 routing_h3326c1:2 emissions_h3326c1:2" vType="default_016" speedFactor="0.99" vaporized="">
        <emissions CO_abs="3850.835662" CO2_abs="301695.403404" HC_abs="24.552327" PMx_abs="4.903527" NOx_abs="119.612768" fuel_abs="129.686022" electricity_abs="0"/>
    </tripinfo>
    <tripinfo id="carIn27009:1" depart="57673.00" departLane="-447569998#1_1" departPos="5.10" departSpeed="0.00" departDelay="0.50" arrival="57769.00" arrivalLane="-26677539_1" arrivalPos="152.75" arrivalSpeed="7.58" duration="96.00" routeLength="699.63" waitingTime="0.00" waitingCount="0" stopTime="0.00" timeLoss="12.07" rerouteNo="1" devices="tripinfo_carIn27009:1 routing_carIn27009:1 emissions_carIn27009:1" vType="default_015" speedFactor="1.00" vaporized="">
        <emissions CO_abs="3942.022537" CO2_abs="187201.660017" HC_abs="22.235347" PMx_abs="2.962334" NOx_abs="75.491801" fuel_abs="80.471300" electricity_abs="0"/>
    </tripinfo>
    <tripinfo id="carIn121703:1" depart="57647.00" departLane="386687232#0_1" departPos="5.10" departSpeed="0.00" departDelay="0.30" arrival="57783.00" arrivalLane="-315358244_1" arrivalPos="33.95" arrivalSpeed="14.10" duration="136.00" routeLength="1157.39" waitingTime="29.00" waitingCount="3" stopTime="0.00" timeLoss="54.66" rerouteNo="1" devices="tripinfo_carIn121703:1 routing_carIn121703:1 emissions_carIn121703:1" vType="default_016" speedFactor="1.04" vaporized="">
        <emissions CO_abs="7083.504047" CO2_abs="355162.619093" HC_abs="40.570021" PMx_abs="6.408763" NOx_abs="145.131366" fuel_abs="152.670494" electricity_abs="0"/>
    </tripinfo>
    <tripinfo id="h11737c1:1" depart="57665.00" departLane="272042143_1" departPos="5.10" departSpeed="0.00" departDelay="1.50" arrival="57790.00" arrivalLane="-315358254#1_1" arrivalPos="137.16" arrivalSpeed="13.63" duration="125.00" routeLength="1596.88" waitingTime="0.00" waitingCount="0" stopTime="0.00" timeLoss="12.65" rerouteNo="1" devices="tripinfo_h11737c1:1 routing_h11737c1:1 emissions_h11737c1:1" vType="default_016" speedFactor="1.03" vaporized="">
        <emissions CO_abs="3636.581787" CO2_abs="319777.242516" HC_abs="23.973264" PMx_abs="5.233838" NOx_abs="126.282065" fuel_abs="137.458265" electricity_abs="0"/>
    </tripinfo>
    <tripinfo id="carIn107282:1" depart="57749.00" departLane="-447569998#1_1" departPos="5.10" departSpeed="0.00" departDelay="0.00" arrival="57795.00" arrivalLane="315358242#0_1" arrivalPos="165.37" arrivalSpeed="13.55" duration="46.00" routeLength="448.50" waitingTime="0.00" waitingCount="0" stopTime="0.00" timeLoss="4.66" rerouteNo="1" devices="tripinfo_carIn107282:1 routing_carIn107282:1 emissions_carIn107282:1" vType="default_016" speedFactor="1.01" vaporized="">
        <emissions CO_abs="1868.710778" CO2_abs="115044.173152" HC_abs="11.186224" PMx_abs="1.906339" NOx_abs="46.286254" fuel_abs="49.452840" electricity_abs="0"/>
    </tripinfo>
    <tripinfo id="carIn107084:1" depart="57601.00" departLane="124812856#0_1" departPos="5.10" departSpeed="0.00" departDelay="0.70" arrival="57812.00" arrivalLane="-128361102#1_1" arrivalPos="274.68" arrivalSpeed="12.42" duration="211.00" routeLength="2250.49" waitingTime="3.00" waitingCount="2" stopTime="0.00" timeLoss="37.15" rerouteNo="1" devices="tripinfo_carIn107084:1 routing_carIn107084:1 emissions_carIn107084:1" vType="default_016" speedFactor="0.95" vaporized="">
        <emissions CO_abs="6822.803433" CO2_abs="506723.006975" HC_abs="42.869828" PMx_abs="8.131402" NOx_abs="200.902755" fuel_abs="217.819071" electricity_abs="0"/>
    </tripinfo>
    <tripinfo id="carIn81860:1" depart="57712.00" departLane="128361102#0_1" departPos="5.10" departSpeed="0.00" departDelay="0.60" arrival="57812.00" arrivalLane="-24634517#17_1" arrivalPos="6.43" arrivalSpeed="8.41" duration="100.00" routeLength="1229.64" waitingTime="0.00" waitingCount="0" stopTime="0.00" timeLoss="24.27" rerouteNo="1" devices="tripinfo_carIn81860:1 routing_carIn81860:1 emissions_carIn81860:1" vType="default_016" speedFactor="1.20" vaporized="">
        <emissions CO_abs="4503.973949" CO2_abs="305210.773798" HC_abs="27.651811" PMx_abs="5.655475" NOx_abs="125.094876" fuel_abs="131.196616" electricity_abs="0"/>
    </tripinfo>
    <tripinfo id="h16072c2:3" depart="57663.00" departLane="315358254#0_1" departPos="5.10" departSpeed="0.00" departDelay="2.50" arrival="57813.00" arrivalLane="386687235_2" arrivalPos="80.84" arrivalSpeed="16.25" duration="150.00" routeLength="1611.92" waitingTime="22.00" waitingCount="2" stopTime="0.00" timeLoss="52.83" rerouteNo="1" devices="tripinfo_h16072c2:3 routing_h16072c2:3 emissions_h16072c2:3" vType="default_016" speedFactor="1.21" vaporized="">
        <emissions CO_abs="7484.227671" CO2_abs="405014.317512" HC_abs="43.553352" PMx_abs="7.529239" NOx_abs="166.274022" fuel_abs="174.098994" electricity_abs="0"/>
    </tripinfo>
    <tripinfo id="carIn30817:1" depart="57681.00" departLane="315358244_1" departPos="5.10" departSpeed="0.00" departDelay="0.20" arrival="57813.00" arrivalLane="447569997#1_1" arrivalPos="180.93" arrivalSpeed="7.68" duration="132.00" routeLength="718.04" waitingTime="49.00" waitingCount="2" stopTime="0.00" timeLoss="65.63" rerouteNo="1" devices="tripinfo_carIn30817:1 routing_carIn30817:1 emissions_carIn30817:1" vType="default_016" speedFactor="0.93" vaporized="">
        <emissions CO_abs="9847.663119" CO2_abs="290855.247798" HC_abs="51.627735" PMx_abs="5.762806" NOx_abs="123.576676" fuel_abs="125.029810" electricity_abs="0"/>
    </tripinfo>
    <tripinfo id="carIn12365:1" depart="57713.00" departLane="315358244_1" departPos="5.10" departSpeed="0.00" departDelay="0.50" arrival="57815.00" arrivalLane="447569997#1_2" arrivalPos="180.93" arrivalSpeed="7.56" duration="102.00" routeLength="718.04" waitingTime="19.00" waitingCount="2" stopTime="0.00" timeLoss="37.58" rerouteNo="1" devices="tripinfo_carIn12365:1 routing_carIn12365:1 emissions_carIn12365:1" vType="default_016" speedFactor="0.96" vaporized="">
        <emissions CO_abs="5719.019982" CO2_abs="230646.594337" HC_abs="31.394393" PMx_abs="4.080020" NOx_abs="94.709760" fuel_abs="99.146917" electricity_abs="0"/>
    </tripinfo>
    <tripinfo id="carIn48184:1" depart="57613.00" departLane="-306240162#1_0" departPos="5.10" departSpeed="0.00" departDelay="0.70" arrival="57818.00" arrivalLane="386687235_1" arrivalPos="80.84" arrivalSpeed="13.04" duration="205.00" routeLength="2257.41" waitingTime="24.00" waitingCount="3" stopTime="0.00" timeLoss="56.53" rerouteNo="1" devices="tripinfo_carIn48184:1 routing_carIn48184:1 emissions_carIn48184:1" vType="default_016" speedFactor="1.00" vaporized="">
        <emissions CO_abs="10384.946921" CO2_abs="588189.078553" HC_abs="61.125098" PMx_abs="10.793201" NOx_abs="239.763034" fuel_abs="252.838188" electricity_abs="0"/>
    </tripinfo>
    <tripinfo id="h17600c1:1" depart="57662.00" departLane="272042143_1" departPos="5.10" departSpeed="0.00" departDelay="0.30" arrival="57820.00" arrivalLane="201238729#3_1" arrivalPos="431.02" arrivalSpeed="14.08" duration="158.00" routeLength="2100.26" waitingTime="0.00" waitingCount="0" stopTime="0.00" timeLoss="11.88" rerouteNo="1" devices="tripinfo_h17600c1:1 routing_h17600c1:1 emissions_h17600c1:1" vType="default_016" speedFactor="1.04" vaporized="">
        <emissions CO_abs="3466.399270" CO2_abs="361913.683916" HC_abs="24.090193" PMx_abs="5.434392" NOx_abs="138.601420" fuel_abs="155.571187" electricity_abs="0"/>
    </tripinfo>
    <tripinfo id="carIn126288:1" depart="57674.00" departLane="272042143_1" departPos="5.10" departSpeed="0.00" departDelay="0.00" arrival="57821.00" arrivalLane="-315358254#1_1" arrivalPos="137.16" arrivalSpeed="13.58" duration="147.00" routeLength="1596.88" waitingTime="11.00" waitingCount="1" stopTime="0.00" timeLoss="29.18" rerouteNo="1" devices="tripinfo_carIn126288:1 routing_carIn126288:1 emissions_carIn126288:1" vType="default_016" speedFactor="0.99" vaporized="">
        <emissions CO_abs="5164.654980" CO2_abs="368807.603851" HC_abs="32.091719" PMx_abs="5.918423" NOx_abs="145.326589" fuel_abs="158.535255" electricity_abs="0"/>
    </tripinfo>
    <tripinfo id="carIn81046:1" depart="57611.00" departLane="124812856#0_1" departPos="5.10" departSpeed="0.00" departDelay="2.50" arrival="57825.00" arrivalLane="-128361102#1_1" arrivalPos="274.68" arrivalSpeed="10.61" duration="214.00" routeLength="2250.49" waitingTime="0.00" waitingCount="0" stopTime="0.00" timeLoss="21.55" rerouteNo="1" devices="tripinfo_carIn81046:1 routing_carIn81046:1 emissions_carIn81046:1" vType="default_016" speedFactor="0.85" vaporized="">
        <emissions CO_abs="5907.415202" CO2_abs="435241.319302" HC_abs="36.977903" PMx_abs="6.739695" NOx_abs="171.654501" fuel_abs="187.092421" electricity_abs="0"/>
    </tripinfo>
    <tripinfo id="carIn73855:1" depart="57743.00" departLane="386687232#0_1" departPos="5.10" departSpeed="0.00" departDelay="0.50" arrival="57842.00" arrivalLane="-315358244_2" arrivalPos="33.95" arrivalSpeed="16.03" duration="99.00" routeLength="1157.39" waitingTime="9.00" waitingCount="1" stopTime="0.00" timeLoss="30.79" rerouteNo="1" devices="tripinfo_carIn73855:1 routing_carIn73855:1 emissions_carIn73855:1" vType="default_016" speedFactor="1.24" vaporized="">
        <emissions CO_abs="4845.614972" CO2_abs="307292.380765" HC_abs="29.241749" PMx_abs="5.700661" NOx_abs="125.733773" fuel_abs="132.091687" electricity_abs="0"/>
    </tripinfo>
    <tripinfo id="carIn129809:1" depart="57729.00" departLane="-447569998#1_1" departPos="5.10" departSpeed="0.00" departDelay="1.00" arrival="57843.00" arrivalLane="-315358244_1" arrivalPos="33.95" arrivalSpeed="15.66" duration="114.00" routeLength="706.49" waitingTime="39.00" waitingCount="2" stopTime="0.00" timeLoss="60.69" rerouteNo="1" devices="tripinfo_carIn129809:1 routing_carIn129809:1 emissions_carIn129809:1" vType="default_015" speedFactor="1.13" vaporized="">
        <emissions CO_abs="8868.281185" CO2_abs="297438.645727" HC_abs="47.247909" PMx_abs="5.843782" NOx_abs="125.294322" fuel_abs="127.858917" electricity_abs="0"/>
    </tripinfo>
    <tripinfo id="randUni31145:1" depart="57814.00" departLane="10425609#0_1" departPos="5.10" departSpeed="0.00" departDelay="0.30" arrival="57843.00" arrivalLane="201956810_1" arrivalPos="71.65" arrivalSpeed="15.26" duration="29.00" routeLength="255.78" waitingTime="1.00" waitingCount="1" stopTime="0.00" timeLoss="11.10" rerouteNo="1" devices="tripinfo_randUni31145:1 routing_randUni31145:1 emissions_randUni31145:1" vType="random_016" speedFactor="1.12" vaporized="">
        <emissions CO_abs="2275.780942" CO2_abs="121556.089949" HC_abs="13.204073" PMx_abs="2.367951" NOx_abs="51.392383" fuel_abs="52.251738" electricity_abs="0"/>
    </tripinfo>
    <tripinfo id="carIn12152:1" depart="57647.00" departLane="24599188#0.94_1" departPos="5.10" departSpeed="0.00" departDelay="0.50" arrival="57846.00" arrivalLane="-315358254#1_1" arrivalPos="137.16" arrivalSpeed="14.39" duration="199.00" routeLength="2034.31" waitingTime="28.00" waitingCount="2" stopTime="0.00" timeLoss="55.78" rerouteNo="1" devices="tripinfo_carIn12152:1 routing_carIn12152:1 emissions_carIn12152:1" vType="default_016" speedFactor="1.10" vaporized="">
        <emissions CO_abs="9080.164454" CO2_abs="493893.201227" HC_abs="52.754509" PMx_abs="8.790610" NOx_abs="200.434548" fuel_abs="212.304894" electricity_abs="0"/>
    </tripinfo>
    <tripinfo id="randUni2407:1" depart="57820.00" departLane="10425609#0_1" departPos="5.10" departSpeed="0.00" departDelay="0.80" arrival="57846.00" arrivalLane="201956810_1" arrivalPos="71.65" arrivalSpeed="13.65" duration="26.00" routeLength="255.78" waitingTime="0.00" waitingCount="0" stopTime="0.00" timeLoss="6.60" rerouteNo="1" devices="tripinfo_randUni2407:1 routing_randUni2407:1 emissions_randUni2407:1" vType="random_016" speedFactor="1.02" vaporized="">
        <emissions CO_abs="1492.122679" CO2_abs="85547.222753" HC_abs="8.820468" PMx_abs="1.627930" NOx_abs="35.912071" fuel_abs="36.773046" electricity_abs="0"/>
    </tripinfo>
    <tripinfo id="h645c1:1" depart="57622.00" departLane="266565295#5_1" departPos="5.10" departSpeed="0.00" departDelay="0.40" arrival="57847.00" arrivalLane="-315358244_1" arrivalPos="33.95" arrivalSpeed="12.66" duration="225.00" routeLength="1910.83" waitingTime="57.00" waitingCount="1" stopTime="0.00" timeLoss="74.49" rerouteNo="1" devices="tripinfo_h645c1:1 routing_h645c1:1 emissions_h645c1:1" vType="default_016" speedFactor="0.92" vaporized="">
        <emissions CO_abs="12592.284501" CO2_abs="499616.216173" HC_abs="68.943649" PMx_abs="8.772669" NOx_abs="202.851143" fuel_abs="214.768035" electricity_abs="0"/>
    </tripinfo>
    <tripinfo id="randUni15030:1" depart="57735.00" departLane="386687232#0_1" departPos="5.10" departSpeed="0.00" departDelay="0.10" arrival="57847.00" arrivalLane="26677539_1" arrivalPos="151.98" arrivalSpeed="7.43" duration="112.00" routeLength="919.89" waitingTime="16.00" waitingCount="1" stopTime="0.00" timeLoss="32.16" rerouteNo="1" devices="tripinfo_randUni15030:1 routing_randUni15030:1 emissions_randUni15030:1" vType="random_016" speedFactor="1.04" vaporized="">
        <emissions CO_abs="5810.445941" CO2_abs="267915.324675" HC_abs="32.709155" PMx_abs="4.761391" NOx_abs="109.905831" fuel_abs="115.166722" electricity_abs="0"/>
    </tripinfo>
    <tripinfo id="carIn86816:1" depart="57617.00" departLane="128361102#0_1" departPos="5.10" departSpeed="0.00" departDelay="0.80" arrival="57852.00" arrivalLane="201956811#0_1" arrivalPos="40.40" arrivalSpeed="12.11" duration="235.00" routeLength="2067.33" waitingTime="39.00" waitingCount="2" stopTime="0.00" timeLoss="66.12" rerouteNo="1" devices="tripinfo_carIn86816:1 routing_carIn86816:1 emissions_carIn86816:1" vType="default_016" speedFactor="0.89" vaporized="">
        <emissions CO_abs="10746.282696" CO2_abs="535264.656014" HC_abs="61.342288" PMx_abs="8.886078" NOx_abs="214.587959" fuel_abs="230.090463" electricity_abs="0"/>
    </tripinfo>
    <tripinfo id="carIn50326:1" depart="57651.00" departLane="128361102#0_1" departPos="5.10" departSpeed="0.00" departDelay="0.30" arrival="57853.00" arrivalLane="18809673#0_1" arrivalPos="473.56" arrivalSpeed="13.67" duration="202.00" routeLength="1591.07" waitingTime="39.00" waitingCount="1" stopTime="0.00" timeLoss="70.53" rerouteNo="1" devices="tripinfo_carIn50326:1 routing_carIn50326:1 emissions_carIn50326:1" vType="default_016" speedFactor="0.99" vaporized="">
        <emissions CO_abs="11684.558379" CO2_abs="464994.304815" HC_abs="64.002495" PMx_abs="8.445998" NOx_abs="191.589822" fuel_abs="199.884682" electricity_abs="0"/>
    </tripinfo>
    <tripinfo id="carIn80064:1" depart="57603.00" departLane="128361109#1_1" departPos="5.10" departSpeed="0.00" departDelay="0.40" arrival="57857.00" arrivalLane="-315358254#1_1" arrivalPos="137.16" arrivalSpeed="13.79" duration="254.00" routeLength="1587.97" waitingTime="129.00" waitingCount="4" stopTime="0.00" timeLoss="167.63" rerouteNo="1" devices="tripinfo_carIn80064:1 routing_carIn80064:1 emissions_carIn80064:1" vType="default_016" speedFactor="1.04" vaporized="">
        <emissions CO_abs="25979.483217" CO2_abs="799765.118955" HC_abs="137.239225" PMx_abs="17.287421" NOx_abs="344.735980" fuel_abs="343.791954" electricity_abs="0"/>
    </tripinfo>
    <tripinfo id="50R_frequency3.17" depart="57674.00" departLane="-18809673#6_1" departPos="12.10" departSpeed="0.00" departDelay="0.70" arrival="57857.00" arrivalLane="201956811#0_1" arrivalPos="40.40" arrivalSpeed="12.45" duration="183.00" routeLength="1954.47" waitingTime="3.00" waitingCount="1" stopTime="0.00" timeLoss="37.54" rerouteNo="1" devices="tripinfo_50R_frequency3.17 routing_50R_frequency3.17 emissions_50R_frequency3.17" vType="bus" speedFactor="1.00" vaporized="">
        <emissions CO_abs="3606.963740" CO2_abs="2278841.470298" HC_abs="749.993043" PMx_abs="386.493245" NOx_abs="17642.696199" fuel_abs="971.896974" electricity_abs="0"/>
    </tripinfo>
    <tripinfo id="carIn126378:1" depart="57746.00" departLane="386687232#0_1" departPos="5.10" departSpeed="0.00" departDelay="1.80" arrival="57864.00" arrivalLane="-315358244_1" arrivalPos="33.95" arrivalSpeed="13.75" duration="118.00" routeLength="1157.39" waitingTime="16.00" waitingCount="2" stopTime="0.00" timeLoss="35.95" rerouteNo="1" devices="tripinfo_carIn126378:1 routing_carIn126378:1 emissions_carIn126378:1" vType="default_016" speedFactor="1.03" vaporized="">
        <emissions CO_abs="5096.409157" CO2_abs="287388.436532" HC_abs="29.850562" PMx_abs="4.877977" NOx_abs="115.153154" fuel_abs="123.536976" electricity_abs="0"/>
    </tripinfo>
    <tripinfo id="carIn8642:1" depart="57774.00" departLane="-447569998#1_1" departPos="5.10" departSpeed="0.00" departDelay="0.90" arrival="57865.00" arrivalLane="-315358244_1" arrivalPos="33.95" arrivalSpeed="15.49" duration="91.00" routeLength="706.49" waitingTime="26.00" waitingCount="1" stopTime="0.00" timeLoss="39.70" rerouteNo="1" devices="tripinfo_carIn8642:1 routing_carIn8642:1 emissions_carIn8642:1" vType="default_016" speedFactor="1.18" vaporized="">
        <emissions CO_abs="6740.592068" CO2_abs="260055.208873" HC_abs="36.773249" PMx_abs="5.012190" NOx_abs="108.590062" fuel_abs="111.788356" electricity_abs="0"/>
    </tripinfo>
    <tripinfo id="h3864c1:3" depart="57678.00" departLane="24693977#1_1" departPos="5.10" departSpeed="0.00" departDelay="0.00" arrival="57868.00" arrivalLane="201956820_1" arrivalPos="48.33" arrivalSpeed="11.31" duration="190.00" routeLength="1574.85" waitingTime="7.00" waitingCount="1" stopTime="0.00" timeLoss="32.61" rerouteNo="1" devices="tripinfo_h3864c1:3 routing_h3864c1:3 emissions_h3864c1:3" vType="default_016" speedFactor="0.82" vaporized="">
        <emissions CO_abs="7425.176962" CO2_abs="396108.635239" HC_abs="42.982249" PMx_abs="6.563757" NOx_abs="160.383463" fuel_abs="170.271834" electricity_abs="0"/>
    </tripinfo>
    <tripinfo id="h17549c1:1" depart="57680.00" departLane="-447569998#1_1" departPos="5.10" departSpeed="0.00" departDelay="0.00" arrival="57868.00" arrivalLane="-315358254#1_1" arrivalPos="137.16" arrivalSpeed="14.29" duration="188.00" routeLength="1746.60" waitingTime="35.00" waitingCount="3" stopTime="0.00" timeLoss="62.60" rerouteNo="1" devices="tripinfo_h17549c1:1 routing_h17549c1:1 emissions_h17549c1:1" vType="default_016" speedFactor="1.10" vaporized="">
        <emissions CO_abs="9936.723541" CO2_abs="485347.939940" HC_abs="56.504823" PMx_abs="8.755071" NOx_abs="198.033607" fuel_abs="208.632296" electricity_abs="0"/>
    </tripinfo>
    <tripinfo id="carIn22761:1" depart="57616.00" departLane="-306240162#1_0" departPos="5.10" departSpeed="0.00" departDelay="2.10" arrival="57870.00" arrivalLane="399835085#1_1" arrivalPos="212.23" arrivalSpeed="6.47" duration="254.00" routeLength="1093.26" waitingTime="144.00" waitingCount="2" stopTime="0.00" timeLoss="166.12" rerouteNo="1" devices="tripinfo_carIn22761:1 routing_carIn22761:1 emissions_carIn22761:1" vType="default_016" speedFactor="0.88" vaporized="">
        <emissions CO_abs="27030.252370" CO2_abs="642075.981686" HC_abs="138.076759" PMx_abs="14.148884" NOx_abs="280.704437" fuel_abs="276.011365" electricity_abs="0"/>
    </tripinfo>
    <tripinfo id="carIn102915:1" depart="57643.00" departLane="128361102#0_1" departPos="5.10" departSpeed="0.00" departDelay="0.40" arrival="57871.00" arrivalLane="201956811#0_1" arrivalPos="40.40" arrivalSpeed="15.06" duration="228.00" routeLength="2067.33" waitingTime="26.00" waitingCount="4" stopTime="0.00" timeLoss="92.89" rerouteNo="1" devices="tripinfo_carIn102915:1 routing_carIn102915:1 emissions_carIn102915:1" vType="default_016" speedFactor="1.12" vaporized="">
        <emissions CO_abs="10747.532512" CO2_abs="606282.853348" HC_abs="63.159156" PMx_abs="11.001696" NOx_abs="249.527736" fuel_abs="260.615854" electricity_abs="0"/>
    </tripinfo>
    <tripinfo id="carIn7949:1" depart="57676.00" departLane="128361109#1_1" departPos="5.10" departSpeed="0.00" departDelay="2.10" arrival="57872.00" arrivalLane="386687235_1" arrivalPos="80.84" arrivalSpeed="13.69" duration="196.00" routeLength="2088.57" waitingTime="27.00" waitingCount="1" stopTime="0.00" timeLoss="43.27" rerouteNo="1" devices="tripinfo_carIn7949:1 routing_carIn7949:1 emissions_carIn7949:1" vType="default_016" speedFactor="0.99" vaporized="">
        <emissions CO_abs="7736.107449" CO2_abs="449949.716160" HC_abs="45.651229" PMx_abs="7.309795" NOx_abs="177.386572" fuel_abs="193.416059" electricity_abs="0"/>
    </tripinfo>
    <tripinfo id="randUni33724:1" depart="57646.00" departLane="128361102#0_1" departPos="5.10" departSpeed="0.00" departDelay="1.20" arrival="57874.00" arrivalLane="201956811#0_1" arrivalPos="40.40" arrivalSpeed="14.64" duration="228.00" routeLength="2067.33" waitingTime="23.00" waitingCount="4" stopTime="0.00" timeLoss="85.07" rerouteNo="1" devices="tripinfo_randUni33724:1 routing_randUni33724:1 emissions_randUni33724:1" vType="random_016" speedFactor="1.07" vaporized="">