<?xml version="1.0" encoding="UTF-8"?>

<!-- generated on 2021-10-26 22:23:34 by Eclipse SUMO sumo Version 1.10.0
<configuration xmlns:xsi="http://www.w3.org/2001/XMLSchema-instance" xsi:noNamespaceSchemaLocation="http://sumo.dlr.de/xsd/sumoConfiguration.xsd">

    <input>
        <net-file value="/Users/behradkoohy/sumo-scratchpad/RESCO/environments/ingolstadt21/ingolstadt21.net.xml"/>
        <route-files value="/Users/behradkoohy/sumo-scratchpad/RESCO/environments/ingolstadt21/ingolstadt21.rou.xml"/>
    </input>

    <output>
        <tripinfo-output value="/Users/behradkoohy/sumo-scratchpad/RESCO/logs/MPLight-tr0-ingolstadt21-21-mplight_full-pressure/tripinfo_93.xml"/>
        <tripinfo-output.write-unfinished value="true"/>
    </output>

    <time>
        <begin value="57600"/>
        <end value="61200"/>
    </time>

    <processing>
        <time-to-teleport value="-1"/>
    </processing>

    <report>
        <no-warnings value="true"/>
        <no-step-log value="true"/>
    </report>

    <emissions>
        <device.emissions.probability value="1"/>
    </emissions>

    <traci_server>
        <remote-port value="49890"/>
    </traci_server>

    <random_number>
        <random value="true"/>
    </random_number>

</configuration>
-->

<tripinfos xmlns:xsi="http://www.w3.org/2001/XMLSchema-instance" xsi:noNamespaceSchemaLocation="http://sumo.dlr.de/xsd/tripinfo_file.xsd">
    <tripinfo id="h15454c2:3" depart="57612.00" departLane="24608844_1" departPos="5.10" departSpeed="0.00" departDelay="0.50" arrival="57668.00" arrivalLane="32978638#0_1" arrivalPos="49.29" arrivalSpeed="12.11" duration="56.00" routeLength="354.79" waitingTime="10.00" waitingCount="1" stopTime="0.00" timeLoss="20.42" rerouteNo="1" devices="tripinfo_h15454c2:3 routing_h15454c2:3 emissions_h15454c2:3" vType="default_016" speedFactor="0.96" vaporized="">
        <emissions CO_abs="2830.637642" CO2_abs="128737.284319" HC_abs="15.902138" PMx_abs="2.378890" NOx_abs="53.887511" fuel_abs="55.339160" electricity_abs="0"/>
    </tripinfo>
    <tripinfo id="carIn53971:1" depart="57640.00" departLane="272042143_1" departPos="5.10" departSpeed="0.00" departDelay="0.80" arrival="57697.00" arrivalLane="24634414#1_1" arrivalPos="162.19" arrivalSpeed="7.05" duration="57.00" routeLength="493.04" waitingTime="0.00" waitingCount="0" stopTime="0.00" timeLoss="7.44" rerouteNo="1" devices="tripinfo_carIn53971:1 routing_carIn53971:1 emissions_carIn53971:1" vType="default_016" speedFactor="0.93" vaporized="">
        <emissions CO_abs="2235.389966" CO2_abs="124447.973199" HC_abs="13.061624" PMx_abs="2.049881" NOx_abs="50.267221" fuel_abs="53.495327" electricity_abs="0"/>
    </tripinfo>
    <tripinfo id="h5979c1:5" depart="57669.00" departLane="399835085#1_1" departPos="5.10" departSpeed="0.00" departDelay="0.00" arrival="57745.00" arrivalLane="-315358254#1_1" arrivalPos="137.16" arrivalSpeed="14.61" duration="76.00" routeLength="659.33" waitingTime="0.00" waitingCount="0" stopTime="0.00" timeLoss="8.60" rerouteNo="1" devices="tripinfo_h5979c1:5 routing_h5979c1:5 emissions_h5979c1:5" vType="default_016" speedFactor="1.09" vaporized="">
        <emissions CO_abs="2962.504461" CO2_abs="166995.171600" HC_abs="17.339272" PMx_abs="2.650398" NOx_abs="66.846897" fuel_abs="71.784824" electricity_abs="0"/>
    </tripinfo>
    <tripinfo id="h3326c1:2" depart="57656.00" departLane="22716069#0_1" departPos="5.10" departSpeed="0.00" departDelay="0.00" arrival="57767.00" arrivalLane="24634517#13_1" arrivalPos="111.62" arrivalSpeed="13.28" duration="111.00" routeLength="1312.81" waitingTime="0.00" waitingCount="0" stopTime="0.00" timeLoss="15.86" rerouteNo="1" devices="tripinfo_h3326c1:2 routing_h3326c1:2 emissions_h3326c1:2" vType="default_016" speedFactor="1.03" vaporized="">
        <emissions CO_abs="3729.796365" CO2_abs="295090.501998" HC_abs="23.843272" PMx_abs="4.845167" NOx_abs="117.199723" fuel_abs="126.846757" electricity_abs="0"/>
    </tripinfo>
    <tripinfo id="h7800c1:5" depart="57696.00" departLane="-447569998#1_1" departPos="5.10" departSpeed="0.00" departDelay="0.00" arrival="57795.00" arrivalLane="-447569998#1_2" arrivalPos="180.76" arrivalSpeed="3.90" duration="99.00" routeLength="175.66" waitingTime="69.00" waitingCount="1" stopTime="0.00" timeLoss="75.40" rerouteNo="1" devices="tripinfo_h7800c1:5 routing_h7800c1:5 emissions_h7800c1:5" vType="default_016" speedFactor="0.91" vaporized="">
        <emissions CO_abs="12206.633464" CO2_abs="226097.527982" HC_abs="60.859158" PMx_abs="5.225064" NOx_abs="101.125962" fuel_abs="97.195169" electricity_abs="0"/>
    </tripinfo>
    <tripinfo id="h11737c1:1" depart="57665.00" departLane="272042143_1" departPos="5.10" departSpeed="0.00" departDelay="1.50" arrival="57796.00" arrivalLane="-315358254#1_1" arrivalPos="137.16" arrivalSpeed="13.29" duration="131.00" routeLength="1596.88" waitingTime="0.00" waitingCount="0" stopTime="0.00" timeLoss="12.01" rerouteNo="1" devices="tripinfo_h11737c1:1 routing_h11737c1:1 emissions_h11737c1:1" vType="default_016" speedFactor="0.98" vaporized="">
        <emissions CO_abs="3481.576859" CO2_abs="311280.850149" HC_abs="23.089357" PMx_abs="4.828883" NOx_abs="121.384799" fuel_abs="133.806388" electricity_abs="0"/>
    </tripinfo>
    <tripinfo id="carIn126288:1" depart="57674.00" departLane="272042143_1" departPos="5.10" departSpeed="0.00" departDelay="0.00" arrival="57800.00" arrivalLane="-315358254#1_1" arrivalPos="137.16" arrivalSpeed="14.22" duration="126.00" routeLength="1596.88" waitingTime="0.00" waitingCount="0" stopTime="0.00" timeLoss="12.99" rerouteNo="1" devices="tripinfo_carIn126288:1 routing_carIn126288:1 emissions_carIn126288:1" vType="default_016" speedFactor="1.04" vaporized="">
        <emissions CO_abs="3671.785396" CO2_abs="325471.245933" HC_abs="24.270199" PMx_abs="5.223650" NOx_abs="127.687154" fuel_abs="139.906023" electricity_abs="0"/>
    </tripinfo>
    <tripinfo id="carIn107282:1" depart="57749.00" departLane="-447569998#1_1" departPos="5.10" departSpeed="0.00" departDelay="0.00" arrival="57820.00" arrivalLane="315358242#0_1" arrivalPos="165.37" arrivalSpeed="12.65" duration="71.00" routeLength="448.50" waitingTime="19.00" waitingCount="1" stopTime="0.00" timeLoss="28.61" rerouteNo="1" devices="tripinfo_carIn107282:1 routing_carIn107282:1 emissions_carIn107282:1" vType="default_016" speedFactor="0.99" vaporized="">
        <emissions CO_abs="4563.662959" CO2_abs="149531.851989" HC_abs="24.252967" PMx_abs="2.855025" NOx_abs="62.851524" fuel_abs="64.278921" electricity_abs="0"/>
    </tripinfo>
    <tripinfo id="randUni15030:1" depart="57735.00" departLane="386687232#0_1" departPos="5.10" departSpeed="0.00" departDelay="0.10" arrival="57838.00" arrivalLane="26677539_1" arrivalPos="151.98" arrivalSpeed="7.14" duration="103.00" routeLength="919.89" waitingTime="0.00" waitingCount="0" stopTime="0.00" timeLoss="11.45" rerouteNo="1" devices="tripinfo_randUni15030:1 routing_randUni15030:1 emissions_randUni15030:1" vType="random_016" speedFactor="0.91" vaporized="">
        <emissions CO_abs="3516.940190" CO2_abs="197355.811172" HC_abs="20.545897" PMx_abs="3.032577" NOx_abs="78.233017" fuel_abs="84.835878" electricity_abs="0"/>
    </tripinfo>
    <tripinfo id="h3688c1:1" depart="57625.00" departLane="201201950#1_1" departPos="5.10" departSpeed="0.00" departDelay="0.00" arrival="57843.00" arrivalLane="32978638#0_1" arrivalPos="49.29" arrivalSpeed="11.81" duration="218.00" routeLength="1089.75" waitingTime="116.00" waitingCount="1" stopTime="0.00" timeLoss="131.61" rerouteNo="1" devices="tripinfo_h3688c1:1 routing_h3688c1:1 emissions_h3688c1:1" vType="default_016" speedFactor="0.93" vaporized="">
        <emissions CO_abs="21710.224935" CO2_abs="546189.760930" HC_abs="111.626413" PMx_abs="11.380372" NOx_abs="234.640169" fuel_abs="234.792345" electricity_abs="0"/>
    </tripinfo>
    <tripinfo id="carIn129809:1" depart="57729.00" departLane="-447569998#1_1" departPos="5.10" departSpeed="0.00" departDelay="1.00" arrival="57849.00" arrivalLane="-315358244_1" arrivalPos="33.95" arrivalSpeed="11.63" duration="120.00" routeLength="706.49" waitingTime="37.00" waitingCount="1" stopTime="0.00" timeLoss="51.87" rerouteNo="1" devices="tripinfo_carIn129809:1 routing_carIn129809:1 emissions_carIn129809:1" vType="default_015" speedFactor="0.88" vaporized="">
        <emissions CO_abs="8193.098151" CO2_abs="242003.060341" HC_abs="42.907810" PMx_abs="4.542654" NOx_abs="101.016718" fuel_abs="104.030146" electricity_abs="0"/>
    </tripinfo>
    <tripinfo id="carIn8642:1" depart="57774.00" departLane="-447569998#1_1" departPos="5.10" departSpeed="0.00" departDelay="0.90" arrival="57851.00" arrivalLane="-315358244_1" arrivalPos="33.95" arrivalSpeed="14.06" duration="77.00" routeLength="706.49" waitingTime="2.00" waitingCount="1" stopTime="0.00" timeLoss="22.94" rerouteNo="1" devices="tripinfo_carIn8642:1 routing_carIn8642:1 emissions_carIn8642:1" vType="default_016" speedFactor="1.12" vaporized="">
        <emissions CO_abs="3384.759451" CO2_abs="192942.890027" HC_abs="19.937392" PMx_abs="3.425209" NOx_abs="79.178826" fuel_abs="82.938208" electricity_abs="0"/>
    </tripinfo>
    <tripinfo id="carIn27009:1" depart="57673.00" departLane="-447569998#1_1" departPos="5.10" departSpeed="0.00" departDelay="0.50" arrival="57862.00" arrivalLane="-26677539_1" arrivalPos="152.75" arrivalSpeed="7.72" duration="189.00" routeLength="699.63" waitingTime="93.00" waitingCount="1" stopTime="0.00" timeLoss="108.88" rerouteNo="1" devices="tripinfo_carIn27009:1 routing_carIn27009:1 emissions_carIn27009:1" vType="default_015" speedFactor="1.04" vaporized="">
        <emissions CO_abs="18245.026386" CO2_abs="416539.736281" HC_abs="92.763522" PMx_abs="8.785706" NOx_abs="181.093706" fuel_abs="179.060402" electricity_abs="0"/>
    </tripinfo>
    <tripinfo id="h17600c1:1" depart="57662.00" departLane="272042143_1" departPos="5.10" departSpeed="0.00" departDelay="0.30" arrival="57872.00" arrivalLane="201238729#3_1" arrivalPos="431.02" arrivalSpeed="13.33" duration="210.00" routeLength="2100.26" waitingTime="41.00" waitingCount="1" stopTime="0.00" timeLoss="60.24" rerouteNo="1" devices="tripinfo_h17600c1:1 routing_h17600c1:1 emissions_h17600c1:1" vType="default_016" speedFactor="1.01" vaporized="">
        <emissions CO_abs="10292.356986" CO2_abs="485298.638358" HC_abs="58.117391" PMx_abs="8.245930" NOx_abs="193.847422" fuel_abs="208.612294" electricity_abs="0"/>
    </tripinfo>
    <tripinfo id="h3536c1:1" depart="57767.00" departLane="-24634413#2_1" departPos="5.10" departSpeed="0.00" departDelay="0.00" arrival="57884.00" arrivalLane="32978638#0_1" arrivalPos="49.29" arrivalSpeed="11.98" duration="117.00" routeLength="953.61" waitingTime="0.00" waitingCount="0" stopTime="0.00" timeLoss="16.99" rerouteNo="1" devices="tripinfo_h3536c1:1 routing_h3536c1:1 emissions_h3536c1:1" vType="default_016" speedFactor="0.90" vaporized="">
        <emissions CO_abs="5154.210161" CO2_abs="260928.243508" HC_abs="29.504765" PMx_abs="4.351271" NOx_abs="106.082921" fuel_abs="112.163151" electricity_abs="0"/>
    </tripinfo>
    <tripinfo id="randUni23028:1" depart="57884.00" departLane="124812856#0_1" departPos="5.10" departSpeed="0.00" departDelay="0.10" arrival="57899.00" arrivalLane="201956810_1" arrivalPos="71.65" arrivalSpeed="13.27" duration="15.00" routeLength="134.91" waitingTime="0.00" waitingCount="0" stopTime="0.00" timeLoss="4.15" rerouteNo="1" devices="tripinfo_randUni23028:1 routing_randUni23028:1 emissions_randUni23028:1" vType="random_016" speedFactor="1.04" vaporized="">
        <emissions CO_abs="1237.727241" CO2_abs="66650.706214" HC_abs="7.220123" PMx_abs="1.313636" NOx_abs="28.328579" fuel_abs="28.650241" electricity_abs="0"/>
    </tripinfo>
    <tripinfo id="carIn13443:1" depart="57729.00" departLane="272042143_1" departPos="5.10" departSpeed="0.00" departDelay="0.80" arrival="57902.00" arrivalLane="399835085#1_1" arrivalPos="212.23" arrivalSpeed="6.68" duration="173.00" routeLength="1757.45" waitingTime="0.00" waitingCount="0" stopTime="0.00" timeLoss="15.56" rerouteNo="1" devices="tripinfo_carIn13443:1 routing_carIn13443:1 emissions_carIn13443:1" vType="default_016" speedFactor="0.90" vaporized="">
        <emissions CO_abs="4663.779926" CO2_abs="325842.230090" HC_abs="28.756895" PMx_abs="4.950871" NOx_abs="127.842779" fuel_abs="140.066589" electricity_abs="0"/>
    </tripinfo>
    <tripinfo id="h13377c2:3" depart="57804.00" departLane="315358244_1" departPos="5.10" departSpeed="0.00" departDelay="0.60" arrival="57905.00" arrivalLane="447569997#1_1" arrivalPos="180.93" arrivalSpeed="6.71" duration="101.00" routeLength="726.74" waitingTime="5.00" waitingCount="2" stopTime="0.00" timeLoss="20.61" rerouteNo="1" devices="tripinfo_h13377c2:3 routing_h13377c2:3 emissions_h13377c2:3" vType="default_016" speedFactor="0.85" vaporized="">
        <emissions CO_abs="4284.648999" CO2_abs="196792.146224" HC_abs="24.022251" PMx_abs="3.132400" NOx_abs="78.949013" fuel_abs="84.594054" electricity_abs="0"/>
    </tripinfo>
    <tripinfo id="carIn14532:1" depart="57743.00" departLane="272042143_1" departPos="5.10" departSpeed="0.00" departDelay="1.90" arrival="57918.00" arrivalLane="399835085#1_1" arrivalPos="212.23" arrivalSpeed="9.82" duration="175.00" routeLength="1757.45" waitingTime="18.00" waitingCount="1" stopTime="0.00" timeLoss="55.07" rerouteNo="1" devices="tripinfo_carIn14532:1 routing_carIn14532:1 emissions_carIn14532:1" vType="default_016" speedFactor="1.18" vaporized="">
        <emissions CO_abs="8018.428985" CO2_abs="458592.544746" HC_abs="47.264235" PMx_abs="8.260610" NOx_abs="187.941114" fuel_abs="197.129956" electricity_abs="0"/>
    </tripinfo>
    <tripinfo id="carIn81860:1" depart="57712.00" departLane="128361102#0_1" departPos="5.10" departSpeed="0.00" departDelay="0.60" arrival="57919.00" arrivalLane="-24634517#17_1" arrivalPos="6.43" arrivalSpeed="7.97" duration="207.00" routeLength="1229.64" waitingTime="92.00" waitingCount="1" stopTime="0.00" timeLoss="114.83" rerouteNo="1" devices="tripinfo_carIn81860:1 routing_carIn81860:1 emissions_carIn81860:1" vType="default_016" speedFactor="0.98" vaporized="">
        <emissions CO_abs="18829.968219" CO2_abs="527446.251958" HC_abs="98.093211" PMx_abs="10.734200" NOx_abs="224.590868" fuel_abs="226.733612" electricity_abs="0"/>
    </tripinfo>
    <tripinfo id="carIn132499:1" depart="57740.00" departLane="272042143_1" departPos="5.10" departSpeed="0.00" departDelay="0.70" arrival="57931.00" arrivalLane="201238729#3_1" arrivalPos="431.02" arrivalSpeed="14.26" duration="191.00" routeLength="2100.26" waitingTime="25.00" waitingCount="1" stopTime="0.00" timeLoss="43.68" rerouteNo="1" devices="tripinfo_carIn132499:1 routing_carIn132499:1 emissions_carIn132499:1" vType="default_016" speedFactor="1.03" vaporized="">
        <emissions CO_abs="7689.186406" CO2_abs="455464.766207" HC_abs="45.580800" PMx_abs="7.597740" NOx_abs="180.620764" fuel_abs="195.786359" electricity_abs="0"/>
    </tripinfo>
    <tripinfo id="carIn77438:1" depart="57614.00" departLane="124812856#0_1" departPos="5.10" departSpeed="0.00" departDelay="1.10" arrival="57938.00" arrivalLane="-128361102#1_1" arrivalPos="274.68" arrivalSpeed="15.62" duration="324.00" routeLength="2232.46" waitingTime="136.00" waitingCount="3" stopTime="0.00" timeLoss="183.36" rerouteNo="1" devices="tripinfo_carIn77438:1 routing_carIn77438:1 emissions_carIn77438:1" vType="default_016" speedFactor="1.16" vaporized="">
        <emissions CO_abs="27674.693670" CO2_abs="859312.883123" HC_abs="145.958561" PMx_abs="17.554453" NOx_abs="364.329996" fuel_abs="369.390783" electricity_abs="0"/>
    </tripinfo>
    <tripinfo id="carIn12858:1" depart="57661.00" departLane="128361109#1_1" departPos="5.10" departSpeed="0.00" departDelay="0.90" arrival="57942.00" arrivalLane="399835085#1_1" arrivalPos="212.23" arrivalSpeed="7.58" duration="281.00" routeLength="1738.12" waitingTime="134.00" waitingCount="1" stopTime="0.00" timeLoss="165.85" rerouteNo="1" devices="tripinfo_carIn12858:1 routing_carIn12858:1 emissions_carIn12858:1" vType="default_016" speedFactor="1.00" vaporized="">
        <emissions CO_abs="28591.839471" CO2_abs="809454.734394" HC_abs="149.345916" PMx_abs="17.304593" NOx_abs="348.230666" fuel_abs="347.959412" electricity_abs="0"/>
    </tripinfo>
    <tripinfo id="h3426c1:1" depart="57864.00" departLane="-160314345#2_1" departPos="5.10" departSpeed="0.00" departDelay="0.00" arrival="57943.00" arrivalLane="386687235_1" arrivalPos="80.84" arrivalSpeed="12.37" duration="79.00" routeLength="726.87" waitingTime="0.00" waitingCount="0" stopTime="0.00" timeLoss="8.73" rerouteNo="1" devices="tripinfo_h3426c1:1 routing_h3426c1:1 emissions_h3426c1:1" vType="default_016" speedFactor="0.97" vaporized="">
        <emissions CO_abs="2653.689372" CO2_abs="152117.969369" HC_abs="15.608794" PMx_abs="2.485817" NOx_abs="61.123589" fuel_abs="65.389561" electricity_abs="0"/>
    </tripinfo>
    <tripinfo id="carIn115169:1" depart="57759.00" departLane="24599188#0.94_1" departPos="5.10" departSpeed="0.00" departDelay="0.50" arrival="57954.00" arrivalLane="-10427692#3_1" arrivalPos="28.64" arrivalSpeed="21.94" duration="195.00" routeLength="2183.23" waitingTime="0.00" waitingCount="0" stopTime="0.00" timeLoss="25.36" rerouteNo="1" devices="tripinfo_carIn115169:1 routing_carIn115169:1 emissions_carIn115169:1" vType="default_016" speedFactor="1.00" vaporized="">
        <emissions CO_abs="6994.373812" CO2_abs="515927.200213" HC_abs="43.940196" PMx_abs="8.685417" NOx_abs="206.562852" fuel_abs="221.775051" electricity_abs="0"/>
    </tripinfo>
    <tripinfo id="carIn75660:1" depart="57679.00" departLane="128361109#1_1" departPos="5.10" departSpeed="0.00" departDelay="3.40" arrival="57956.00" arrivalLane="386687235_1" arrivalPos="80.84" arrivalSpeed="12.97" duration="277.00" routeLength="2088.57" waitingTime="113.00" waitingCount="1" stopTime="0.00" timeLoss="130.38" rerouteNo="1" devices="tripinfo_carIn75660:1 routing_carIn75660:1 emissions_carIn75660:1" vType="default_016" speedFactor="1.03" vaporized="">
        <emissions CO_abs="21471.013340" CO2_abs="660321.889471" HC_abs="113.137647" PMx_abs="12.741264" NOx_abs="274.415397" fuel_abs="283.852426" electricity_abs="0"/>
    </tripinfo>
    <tripinfo id="carIn99385:1" depart="57665.00" departLane="124812856#0_1" departPos="5.10" departSpeed="0.00" departDelay="27.90" arrival="57962.00" arrivalLane="-128361102#1_1" arrivalPos="274.68" arrivalSpeed="15.32" duration="297.00" routeLength="2232.46" waitingTime="72.00" waitingCount="5" stopTime="0.00" timeLoss="155.94" rerouteNo="1" devices="tripinfo_carIn99385:1 routing_carIn99385:1 emissions_carIn99385:1" vType="default_016" speedFactor="1.16" vaporized="">
        <emissions CO_abs="18832.424392" CO2_abs="722374.201306" HC_abs="102.557196" PMx_abs="14.086992" NOx_abs="301.930514" fuel_abs="310.522516" electricity_abs="0"/>
    </tripinfo>
    <tripinfo id="carIn50326:1" depart="57651.00" departLane="128361102#0_1" departPos="5.10" departSpeed="0.00" departDelay="0.30" arrival="57967.00" arrivalLane="18809673#0_1" arrivalPos="473.56" arrivalSpeed="15.58" duration="316.00" routeLength="1591.07" waitingTime="172.00" waitingCount="2" stopTime="0.00" timeLoss="207.80" rerouteNo="1" devices="tripinfo_carIn50326:1 routing_carIn50326:1 emissions_carIn50326:1" vType="default_016" speedFactor="1.20" vaporized="">
        <emissions CO_abs="32419.086970" CO2_abs="817681.277156" HC_abs="166.677987" PMx_abs="17.569240" NOx_abs="353.700558" fuel_abs="351.498462" electricity_abs="0"/>
    </tripinfo>
    <tripinfo id="h7032c2:3" depart="57863.00" departLane="315358244_1" departPos="5.10" departSpeed="0.00" departDelay="0.40" arrival="57968.00" arrivalLane="26677541_1" arrivalPos="152.31" arrivalSpeed="13.16" duration="105.00" routeLength="925.70" waitingTime="0.00" waitingCount="0" stopTime="0.00" timeLoss="14.30" rerouteNo="1" devices="tripinfo_h7032c2:3 routing_h7032c2:3 emissions_h7032c2:3" vType="default_016" speedFactor="0.98" vaporized="">
        <emissions CO_abs="4528.977766" CO2_abs="251313.989886" HC_abs="26.475533" PMx_abs="4.312310" NOx_abs="102.608995" fuel_abs="108.029826" electricity_abs="0"/>
    </tripinfo>
    <tripinfo id="randUni11215:1" depart="57953.00" departLane="124812856#0_1" departPos="5.10" departSpeed="0.00" departDelay="0.30" arrival="57968.00" arrivalLane="201956810_1" arrivalPos="71.65" arrivalSpeed="11.57" duration="15.00" routeLength="134.91" waitingTime="0.00" waitingCount="0" stopTime="0.00" timeLoss="3.47" rerouteNo="1" devices="tripinfo_randUni11215:1 routing_randUni11215:1 emissions_randUni11215:1" vType="random_016" speedFactor="0.92" vaporized="">
        <emissions CO_abs="1129.183411" CO2_abs="59673.289593" HC_abs="6.557662" PMx_abs="1.173611" NOx_abs="25.429054" fuel_abs="25.650966" electricity_abs="0"/>
    </tripinfo>
    <tripinfo id="carIn85747:1" depart="57673.00" departLane="128361109#1_1" departPos="5.10" departSpeed="0.00" departDelay="0.70" arrival="57974.00" arrivalLane="386687235_1" arrivalPos="80.84" arrivalSpeed="13.33" duration="301.00" routeLength="2088.57" waitingTime="127.00" waitingCount="2" stopTime="0.00" timeLoss="149.83" rerouteNo="1" devices="tripinfo_carIn85747:1 routing_carIn85747:1 emissions_carIn85747:1" vType="default_016" speedFactor="0.99" vaporized="">
        <emissions CO_abs="23873.147210" CO2_abs="707312.570546" HC_abs="125.203031" PMx_abs="13.943699" NOx_abs="296.882136" fuel_abs="304.052492" electricity_abs="0"/>
    </tripinfo>
    <tripinfo id="h19413c1:1" depart="57686.00" departLane="128361109#1_1" departPos="5.10" departSpeed="0.00" departDelay="6.90" arrival="57976.00" arrivalLane="386687235_1" arrivalPos="80.84" arrivalSpeed="12.99" duration="290.00" routeLength="2088.57" waitingTime="106.00" waitingCount="2" stopTime="0.00" timeLoss="134.28" rerouteNo="1" devices="tripinfo_h19413c1:1 routing_h19413c1:1 emissions_h19413c1:1" vType="default_016" speedFactor="0.97" vaporized="">
        <emissions CO_abs="21489.381080" CO2_abs="676975.982213" HC_abs="113.627552" PMx_abs="12.958931" NOx_abs="282.120705" fuel_abs="291.011085" electricity_abs="0"/>
    </tripinfo>
    <tripinfo id="carIn88905:1" depart="57689.00" departLane="128361109#1_1" departPos="5.10" departSpeed="0.00" departDelay="6.80" arrival="57978.00" arrivalLane="386687235_1" arrivalPos="80.84" arrivalSpeed="13.07" duration="289.00" routeLength="2088.57" waitingTime="103.00" waitingCount="2" stopTime="0.00" timeLoss="136.91" rerouteNo="1" devices="tripinfo_carIn88905:1 routing_carIn88905:1 emissions_carIn88905:1" vType="default_016" speedFactor="0.99" vaporized="">
        <emissions CO_abs="21643.168467" CO2_abs="713148.538736" HC_abs="115.214394" PMx_abs="13.634427" NOx_abs="297.039070" fuel_abs="306.559733" electricity_abs="0"/>
    </tripinfo>
    <tripinfo id="h3847c1:3" depart="57893.00" departLane="24634416_1" departPos="5.10" departSpeed="0.00" departDelay="0.00" arrival="57980.00" arrivalLane="32978638#0_1" arrivalPos="49.29" arrivalSpeed="8.56" duration="87.00" routeLength="547.99" waitingTime="5.00" waitingCount="2" stopTime="0.00" timeLoss="21.88" rerouteNo="1" devices="tripinfo_h3847c1:3 routing_h3847c1:3 emissions_h3847c1:3" vType="default_016" speedFactor="0.64" vaporized="">
        <emissions CO_abs="3778.773295" CO2_abs="165213.220373" HC_abs="20.994875" PMx_abs="2.692565" NOx_abs="67.108537" fuel_abs="71.019395" electricity_abs="0"/>
    </tripinfo>
    <tripinfo id="h2859c1:1" depart="57822.00" departLane="201238726#0.117_1" departPos="5.10" departSpeed="0.00" departDelay="0.10" arrival="57982.00" arrivalLane="386687235_1" arrivalPos="80.84" arrivalSpeed="12.20" duration="160.00" routeLength="1631.78" waitingTime="18.00" waitingCount="1" stopTime="0.00" timeLoss="32.47" rerouteNo="1" devices="tripinfo_h2859c1:1 routing_h2859c1:1 emissions_h2859c1:1" vType="default_016" speedFactor="0.93" vaporized="">
        <emissions CO_abs="5593.359025" CO2_abs="345274.837276" HC_abs="33.453700" PMx_abs="5.341059" NOx_abs="134.949806" fuel_abs="148.420423" electricity_abs="0"/>
    </tripinfo>
    <tripinfo id="carIn95912:1" depart="57825.00" departLane="272042143_1" departPos="5.10" departSpeed="0.00" departDelay="1.40" arrival="57982.00" arrivalLane="201238729#3_1" arrivalPos="431.02" arrivalSpeed="14.08" duration="157.00" routeLength="2100.26" waitingTime="0.00" waitingCount="0" stopTime="0.00" timeLoss="13.71" rerouteNo="1" devices="tripinfo_carIn95912:1 routing_carIn95912:1 emissions_carIn95912:1" vType="default_016" speedFactor="1.06" vaporized="">
        <emissions CO_abs="3464.089650" CO2_abs="372322.189401" HC_abs="24.396570" PMx_abs="5.520490" NOx_abs="141.819644" fuel_abs="160.045426" electricity_abs="0"/>
    </tripinfo>
    <tripinfo id="carIn113750:1" depart="57961.00" departLane="24599188#0.94_1" departPos="5.10" departSpeed="0.00" departDelay="0.30" arrival="57988.00" arrivalLane="24599188#0.94_1" arrivalPos="186.59" arrivalSpeed="9.63" duration="27.00" routeLength="181.49" waitingTime="0.00" waitingCount="0" stopTime="0.00" timeLoss="7.56" rerouteNo="1" devices="tripinfo_carIn113750:1 routing_carIn113750:1 emissions_carIn113750:1" vType="default_016" speedFactor="1.17" vaporized="">
        <emissions CO_abs="1440.342418" CO2_abs="65462.511724" HC_abs="8.078571" PMx_abs="1.158574" NOx_abs="27.214300" fuel_abs="28.139856" electricity_abs="0"/>
    </tripinfo>
    <tripinfo id="randUni20153:1" depart="57834.00" departLane="272042143_1" departPos="5.10" departSpeed="0.00" departDelay="5.60" arrival="57995.00" arrivalLane="201238729#3_1" arrivalPos="431.02" arrivalSpeed="13.09" duration="161.00" routeLength="2100.26" waitingTime="0.00" waitingCount="0" stopTime="0.00" timeLoss="12.21" rerouteNo="1" devices="tripinfo_randUni20153:1 routing_randUni20153:1 emissions_randUni20153:1" vType="random_016" speedFactor="1.02" vaporized="">
        <emissions CO_abs="3436.450927" CO2_abs="360834.861665" HC_abs="23.922136" PMx_abs="5.325199" NOx_abs="137.736650" fuel_abs="155.107560" electricity_abs="0"/>
    </tripinfo>
    <tripinfo id="carIn81681:1" depart="57726.00" departLane="272042143_1" departPos="5.10" departSpeed="0.00" departDelay="0.30" arrival="57996.00" arrivalLane="306240162#0_0" arrivalPos="220.43" arrivalSpeed="17.78" duration="270.00" routeLength="2246.89" waitingTime="112.00" waitingCount="1" stopTime="0.00" timeLoss="137.04" rerouteNo="1" devices="tripinfo_carIn81681:1 routing_carIn81681:1 emissions_carIn81681:1" vType="default_016" speedFactor="1.11" vaporized="">
        <emissions CO_abs="24664.810801" CO2_abs="846638.535561" HC_abs="132.169173" PMx_abs="17.435838" NOx_abs="357.625216" fuel_abs="363.940297" electricity_abs="0"/>
    </tripinfo>
    <tripinfo id="carIn80913:1" depart="57732.00" departLane="272042143_1" departPos="5.10" departSpeed="0.00" departDelay="0.40" arrival="58001.00" arrivalLane="306240162#0_0" arrivalPos="220.43" arrivalSpeed="15.28" duration="269.00" routeLength="2246.89" waitingTime="83.00" waitingCount="1" stopTime="0.00" timeLoss="117.77" rerouteNo="1" devices="tripinfo_carIn80913:1 routing_carIn80913:1 emissions_carIn80913:1" vType="default_016" speedFactor="0.98" vaporized="">
        <emissions CO_abs="20415.364311" CO2_abs="775704.794334" HC_abs="111.225984" PMx_abs="15.146465" NOx_abs="324.489196" fuel_abs="333.447570" electricity_abs="0"/>
    </tripinfo>
    <tripinfo id="carIn90140:1" depart="57783.00" departLane="128361109#1_1" departPos="5.10" departSpeed="0.00" departDelay="6.40" arrival="58002.00" arrivalLane="399835085#1_1" arrivalPos="212.23" arrivalSpeed="7.35" duration="219.00" routeLength="1738.12" waitingTime="56.00" waitingCount="2" stopTime="0.00" timeLoss="101.23" rerouteNo="1" devices="tripinfo_carIn90140:1 routing_carIn90140:1 emissions_carIn90140:1" vType="default_016" speedFactor="0.98" vaporized="">
        <emissions CO_abs="15839.011467" CO2_abs="632450.634585" HC_abs="87.101308" PMx_abs="12.603692" NOx_abs="265.330032" fuel_abs="271.866776" electricity_abs="0"/>
    </tripinfo>
    <tripinfo id="carIn101266:1" depart="57737.00" departLane="272042143_1" departPos="5.10" departSpeed="0.00" departDelay="0.50" arrival="58004.00" arrivalLane="306240162#0_0" arrivalPos="220.43" arrivalSpeed="16.21" duration="267.00" routeLength="2246.89" waitingTime="72.00" waitingCount="3" stopTime="0.00" timeLoss="119.15" rerouteNo="1" devices="tripinfo_carIn101266:1 routing_carIn101266:1 emissions_carIn101266:1" vType="default_016" speedFactor="1.00" vaporized="">
        <emissions CO_abs="18313.671257" CO2_abs="747640.039474" HC_abs="100.968377" PMx_abs="14.536635" NOx_abs="312.027641" fuel_abs="321.382492" electricity_abs="0"/>
    </tripinfo>
    <tripinfo id="carIn13353:1" depart="57838.00" departLane="-447569998#1_1" departPos="5.10" departSpeed="0.00" departDelay="0.30" arrival="58004.00" arrivalLane="-315358244_2" arrivalPos="33.95" arrivalSpeed="15.35" duration="166.00" routeLength="706.49" waitingTime="102.00" waitingCount="1" stopTime="0.00" timeLoss="111.30" rerouteNo="1" devices="tripinfo_carIn13353:1 routing_carIn13353:1 emissions_carIn13353:1" vType="default_016" speedFactor="1.12" vaporized="">
        <emissions CO_abs="18852.500838" CO2_abs="429060.150521" HC_abs="95.929032" PMx_abs="9.499786" NOx_abs="187.905504" fuel_abs="184.442150" electricity_abs="0"/>
    </tripinfo>
    <tripinfo id="h19577c1:1" depart="57695.00" departLane="128361109#1_1" departPos="5.10" departSpeed="0.00" departDelay="3.80" arrival="58007.00" arrivalLane="386687235_2" arrivalPos="80.84" arrivalSpeed="14.71" duration="312.00" routeLength="2088.57" waitingTime="148.00" waitingCount="2" stopTime="0.00" timeLoss="175.55" rerouteNo="1" devices="tripinfo_h19577c1:1 routing_h19577c1:1 emissions_h19577c1:1" vType="default_016" speedFactor="1.11" vaporized="">