<?xml version="1.0" encoding="UTF-8"?>

<!-- generated on 2021-10-26 20:37:35 by Eclipse SUMO sumo Version 1.10.0
<configuration xmlns:xsi="http://www.w3.org/2001/XMLSchema-instance" xsi:noNamespaceSchemaLocation="http://sumo.dlr.de/xsd/sumoConfiguration.xsd">

    <input>
        <net-file value="/Users/behradkoohy/sumo-scratchpad/RESCO/environments/ingolstadt21/ingolstadt21.net.xml"/>
        <route-files value="/Users/behradkoohy/sumo-scratchpad/RESCO/environments/ingolstadt21/ingolstadt21.rou.xml"/>
    </input>

    <output>
        <tripinfo-output value="/Users/behradkoohy/sumo-scratchpad/RESCO/logs/MPLight-tr0-ingolstadt21-21-mplight_full-pressure/tripinfo_4.xml"/>
        <tripinfo-output.write-unfinished value="true"/>
    </output>

    <time>
        <begin value="57600"/>
        <end value="61200"/>
    </time>

    <processing>
        <time-to-teleport value="-1"/>
    </processing>

    <report>
        <no-warnings value="true"/>
        <no-step-log value="true"/>
    </report>

    <emissions>
        <device.emissions.probability value="1"/>
    </emissions>

    <traci_server>
        <remote-port value="64393"/>
    </traci_server>

    <random_number>
        <random value="true"/>
    </random_number>

</configuration>
-->

<tripinfos xmlns:xsi="http://www.w3.org/2001/XMLSchema-instance" xsi:noNamespaceSchemaLocation="http://sumo.dlr.de/xsd/tripinfo_file.xsd">
    <tripinfo id="h15454c2:3" depart="57612.00" departLane="24608844_1" departPos="5.10" departSpeed="0.00" departDelay="0.50" arrival="57654.00" arrivalLane="32978638#0_1" arrivalPos="49.29" arrivalSpeed="13.35" duration="42.00" routeLength="354.79" waitingTime="0.00" waitingCount="0" stopTime="0.00" timeLoss="7.05" rerouteNo="1" devices="tripinfo_h15454c2:3 routing_h15454c2:3 emissions_h15454c2:3" vType="default_016" speedFactor="0.99" vaporized="">
        <emissions CO_abs="2169.939972" CO2_abs="114918.083981" HC_abs="12.562272" PMx_abs="2.016932" NOx_abs="47.302989" fuel_abs="49.398692" electricity_abs="0"/>
    </tripinfo>
    <tripinfo id="carIn60260:1" depart="57606.00" departLane="315358254#0_1" departPos="5.10" departSpeed="0.00" departDelay="0.90" arrival="57680.00" arrivalLane="399835085#1_1" arrivalPos="212.23" arrivalSpeed="6.48" duration="74.00" routeLength="430.98" waitingTime="9.00" waitingCount="1" stopTime="0.00" timeLoss="20.60" rerouteNo="1" devices="tripinfo_carIn60260:1 routing_carIn60260:1 emissions_carIn60260:1" vType="default_016" speedFactor="0.86" vaporized="">
        <emissions CO_abs="3679.408613" CO2_abs="135064.761750" HC_abs="19.877479" PMx_abs="2.426003" NOx_abs="56.246475" fuel_abs="58.059794" electricity_abs="0"/>
    </tripinfo>
    <tripinfo id="carIn53971:1" depart="57640.00" departLane="272042143_1" departPos="5.10" departSpeed="0.00" departDelay="0.80" arrival="57693.00" arrivalLane="24634414#1_1" arrivalPos="162.19" arrivalSpeed="8.67" duration="53.00" routeLength="493.04" waitingTime="0.00" waitingCount="0" stopTime="0.00" timeLoss="9.80" rerouteNo="1" devices="tripinfo_carIn53971:1 routing_carIn53971:1 emissions_carIn53971:1" vType="default_016" speedFactor="1.05" vaporized="">
        <emissions CO_abs="2667.586764" CO2_abs="148462.350984" HC_abs="15.624024" PMx_abs="2.701364" NOx_abs="61.569020" fuel_abs="63.817783" electricity_abs="0"/>
    </tripinfo>
    <tripinfo id="h7800c1:5" depart="57696.00" departLane="-447569998#1_1" departPos="5.10" departSpeed="0.00" departDelay="0.00" arrival="57721.00" arrivalLane="-447569998#1_1" arrivalPos="180.76" arrivalSpeed="7.92" duration="25.00" routeLength="175.66" waitingTime="0.00" waitingCount="0" stopTime="0.00" timeLoss="3.08" rerouteNo="1" devices="tripinfo_h7800c1:5 routing_h7800c1:5 emissions_h7800c1:5" vType="default_016" speedFactor="0.98" vaporized="">
        <emissions CO_abs="1190.941273" CO2_abs="51908.203075" HC_abs="6.613328" PMx_abs="0.849135" NOx_abs="21.127749" fuel_abs="22.313520" electricity_abs="0"/>
    </tripinfo>
    <tripinfo id="h3568c1:3" depart="57656.00" departLane="266565295#5_1" departPos="5.10" departSpeed="0.00" departDelay="0.80" arrival="57729.00" arrivalLane="-24634415_1" arrivalPos="62.03" arrivalSpeed="13.55" duration="73.00" routeLength="807.40" waitingTime="0.00" waitingCount="0" stopTime="0.00" timeLoss="12.50" rerouteNo="1" devices="tripinfo_h3568c1:3 routing_h3568c1:3 emissions_h3568c1:3" vType="default_016" speedFactor="1.07" vaporized="">
        <emissions CO_abs="3156.565192" CO2_abs="205853.604964" HC_abs="19.094442" PMx_abs="3.597141" NOx_abs="83.523787" fuel_abs="88.487730" electricity_abs="0"/>
    </tripinfo>
    <tripinfo id="h3688c1:1" depart="57625.00" departLane="201201950#1_1" departPos="5.10" departSpeed="0.00" departDelay="0.00" arrival="57732.00" arrivalLane="32978638#0_1" arrivalPos="49.29" arrivalSpeed="12.29" duration="107.00" routeLength="1089.75" waitingTime="10.00" waitingCount="1" stopTime="0.00" timeLoss="24.07" rerouteNo="1" devices="tripinfo_h3688c1:1 routing_h3688c1:1 emissions_h3688c1:1" vType="default_016" speedFactor="0.97" vaporized="">
        <emissions CO_abs="4139.915440" CO2_abs="264453.314992" HC_abs="25.020772" PMx_abs="4.438388" NOx_abs="106.051726" fuel_abs="113.677644" electricity_abs="0"/>
    </tripinfo>
    <tripinfo id="carIn22761:1" depart="57616.00" departLane="-306240162#1_0" departPos="5.10" departSpeed="0.00" departDelay="2.10" arrival="57736.00" arrivalLane="399835085#1_1" arrivalPos="212.23" arrivalSpeed="7.64" duration="120.00" routeLength="1093.26" waitingTime="17.00" waitingCount="1" stopTime="0.00" timeLoss="38.12" rerouteNo="1" devices="tripinfo_carIn22761:1 routing_carIn22761:1 emissions_carIn22761:1" vType="default_016" speedFactor="0.96" vaporized="">
        <emissions CO_abs="7550.706136" CO2_abs="358961.055601" HC_abs="42.869896" PMx_abs="6.889852" NOx_abs="149.154399" fuel_abs="154.303020" electricity_abs="0"/>
    </tripinfo>
    <tripinfo id="carIn30817:1" depart="57681.00" departLane="315358244_1" departPos="5.10" departSpeed="0.00" departDelay="0.20" arrival="57750.00" arrivalLane="447569997#1_1" arrivalPos="180.93" arrivalSpeed="9.93" duration="69.00" routeLength="718.04" waitingTime="2.00" waitingCount="2" stopTime="0.00" timeLoss="17.28" rerouteNo="1" devices="tripinfo_carIn30817:1 routing_carIn30817:1 emissions_carIn30817:1" vType="default_016" speedFactor="1.20" vaporized="">
        <emissions CO_abs="3474.818902" CO2_abs="211051.019335" HC_abs="20.684468" PMx_abs="3.837099" NOx_abs="86.530189" fuel_abs="90.721861" electricity_abs="0"/>
    </tripinfo>
    <tripinfo id="h3154c1:1" depart="57658.00" departLane="24634507_1" departPos="5.10" departSpeed="0.00" departDelay="0.00" arrival="57761.00" arrivalLane="-266565295#5_1" arrivalPos="172.76" arrivalSpeed="13.51" duration="103.00" routeLength="1206.22" waitingTime="0.00" waitingCount="0" stopTime="0.00" timeLoss="12.35" rerouteNo="1" devices="tripinfo_h3154c1:1 routing_h3154c1:1 emissions_h3154c1:1" vType="default_016" speedFactor="0.99" vaporized="">
        <emissions CO_abs="3323.228576" CO2_abs="264046.654735" HC_abs="21.299940" PMx_abs="4.344431" NOx_abs="104.983533" fuel_abs="113.502312" electricity_abs="0"/>
    </tripinfo>
    <tripinfo id="h3326c1:2" depart="57656.00" departLane="22716069#0_1" departPos="5.10" departSpeed="0.00" departDelay="0.00" arrival="57769.00" arrivalLane="24634517#13_1" arrivalPos="111.62" arrivalSpeed="12.57" duration="113.00" routeLength="1312.81" waitingTime="0.00" waitingCount="0" stopTime="0.00" timeLoss="14.78" rerouteNo="1" devices="tripinfo_h3326c1:2 routing_h3326c1:2 emissions_h3326c1:2" vType="default_016" speedFactor="0.99" vaporized="">
        <emissions CO_abs="4069.039787" CO2_abs="311023.874617" HC_abs="25.794755" PMx_abs="5.189743" NOx_abs="124.347725" fuel_abs="133.695798" electricity_abs="0"/>
    </tripinfo>
    <tripinfo id="carIn121703:1" depart="57647.00" departLane="386687232#0_1" departPos="5.10" departSpeed="0.00" departDelay="0.30" arrival="57771.00" arrivalLane="-315358244_1" arrivalPos="33.95" arrivalSpeed="11.18" duration="124.00" routeLength="1157.39" waitingTime="12.00" waitingCount="1" stopTime="0.00" timeLoss="28.10" rerouteNo="1" devices="tripinfo_carIn121703:1 routing_carIn121703:1 emissions_carIn121703:1" vType="default_016" speedFactor="0.88" vaporized="">
        <emissions CO_abs="4667.133473" CO2_abs="260270.443289" HC_abs="27.291432" PMx_abs="4.275515" NOx_abs="104.219956" fuel_abs="111.880203" electricity_abs="0"/>
    </tripinfo>
    <tripinfo id="h12244c1:3" depart="57612.00" departLane="315358244_1" departPos="5.10" departSpeed="0.00" departDelay="0.40" arrival="57777.00" arrivalLane="386687235_1" arrivalPos="80.84" arrivalSpeed="13.17" duration="165.00" routeLength="1186.14" waitingTime="61.00" waitingCount="2" stopTime="0.00" timeLoss="79.59" rerouteNo="1" devices="tripinfo_h12244c1:3 routing_h12244c1:3 emissions_h12244c1:3" vType="default_016" speedFactor="1.02" vaporized="">
        <emissions CO_abs="11680.986672" CO2_abs="394489.476076" HC_abs="62.307057" PMx_abs="7.622596" NOx_abs="164.747872" fuel_abs="169.578013" electricity_abs="0"/>
    </tripinfo>
    <tripinfo id="h5979c1:5" depart="57669.00" departLane="399835085#1_1" departPos="5.10" departSpeed="0.00" departDelay="0.00" arrival="57778.00" arrivalLane="-315358254#1_1" arrivalPos="137.16" arrivalSpeed="12.20" duration="109.00" routeLength="659.33" waitingTime="17.00" waitingCount="1" stopTime="0.00" timeLoss="32.47" rerouteNo="1" devices="tripinfo_h5979c1:5 routing_h5979c1:5 emissions_h5979c1:5" vType="default_016" speedFactor="0.96" vaporized="">
        <emissions CO_abs="6435.941621" CO2_abs="223237.190665" HC_abs="34.467274" PMx_abs="4.044387" NOx_abs="92.980518" fuel_abs="95.962425" electricity_abs="0"/>
    </tripinfo>
    <tripinfo id="h9563c2:5" depart="57631.00" departLane="315358244_1" departPos="5.10" departSpeed="0.00" departDelay="0.70" arrival="57779.00" arrivalLane="386687235_1" arrivalPos="80.84" arrivalSpeed="13.50" duration="148.00" routeLength="1186.14" waitingTime="43.00" waitingCount="2" stopTime="0.00" timeLoss="63.30" rerouteNo="1" devices="tripinfo_h9563c2:5 routing_h9563c2:5 emissions_h9563c2:5" vType="default_016" speedFactor="1.03" vaporized="">
        <emissions CO_abs="9697.882694" CO2_abs="377473.654631" HC_abs="52.983691" PMx_abs="7.096049" NOx_abs="156.192125" fuel_abs="162.262544" electricity_abs="0"/>
    </tripinfo>
    <tripinfo id="carIn27009:1" depart="57673.00" departLane="-447569998#1_1" departPos="5.10" departSpeed="0.00" departDelay="0.50" arrival="57781.00" arrivalLane="-26677539_1" arrivalPos="152.75" arrivalSpeed="6.57" duration="108.00" routeLength="699.63" waitingTime="0.00" waitingCount="0" stopTime="0.00" timeLoss="15.25" rerouteNo="1" devices="tripinfo_carIn27009:1 routing_carIn27009:1 emissions_carIn27009:1" vType="default_015" speedFactor="0.91" vaporized="">
        <emissions CO_abs="4426.437306" CO2_abs="186769.022501" HC_abs="24.432373" PMx_abs="3.054720" NOx_abs="76.150391" fuel_abs="80.285575" electricity_abs="0"/>
    </tripinfo>
    <tripinfo id="h4538c1:1" depart="57701.00" departLane="-10427692#1_1" departPos="5.10" departSpeed="0.00" departDelay="0.00" arrival="57796.00" arrivalLane="-128361102#1_1" arrivalPos="274.68" arrivalSpeed="13.54" duration="95.00" routeLength="440.74" waitingTime="53.00" waitingCount="1" stopTime="0.00" timeLoss="63.26" rerouteNo="1" devices="tripinfo_h4538c1:1 routing_h4538c1:1 emissions_h4538c1:1" vType="default_016" speedFactor="0.99" vaporized="">
        <emissions CO_abs="9849.780621" CO2_abs="249800.520321" HC_abs="50.720664" PMx_abs="5.351620" NOx_abs="108.323461" fuel_abs="107.382253" electricity_abs="0"/>
    </tripinfo>
    <tripinfo id="carIn12365:1" depart="57713.00" departLane="315358244_1" departPos="5.10" departSpeed="0.00" departDelay="0.50" arrival="57800.00" arrivalLane="447569997#1_1" arrivalPos="180.93" arrivalSpeed="9.08" duration="87.00" routeLength="718.04" waitingTime="18.00" waitingCount="1" stopTime="0.00" timeLoss="30.77" rerouteNo="1" devices="tripinfo_carIn12365:1 routing_carIn12365:1 emissions_carIn12365:1" vType="default_016" speedFactor="1.10" vaporized="">
        <emissions CO_abs="5205.792805" CO2_abs="219581.371040" HC_abs="28.707107" PMx_abs="4.010171" NOx_abs="90.353106" fuel_abs="94.390007" electricity_abs="0"/>
    </tripinfo>
    <tripinfo id="h7181c1:1" depart="57660.00" departLane="315358254#0_1" departPos="5.10" departSpeed="0.00" departDelay="0.10" arrival="57802.00" arrivalLane="306240162#0_0" arrivalPos="220.43" arrivalSpeed="15.20" duration="142.00" routeLength="932.35" waitingTime="69.00" waitingCount="2" stopTime="0.00" timeLoss="88.84" rerouteNo="1" devices="tripinfo_h7181c1:1 routing_h7181c1:1 emissions_h7181c1:1" vType="default_016" speedFactor="0.97" vaporized="">
        <emissions CO_abs="13943.362076" CO2_abs="424604.291008" HC_abs="73.527971" PMx_abs="9.220188" NOx_abs="183.597032" fuel_abs="182.523042" electricity_abs="0"/>
    </tripinfo>
    <tripinfo id="carIn107282:1" depart="57749.00" departLane="-447569998#1_1" departPos="5.10" departSpeed="0.00" departDelay="0.00" arrival="57805.00" arrivalLane="315358242#0_1" arrivalPos="165.37" arrivalSpeed="13.83" duration="56.00" routeLength="448.50" waitingTime="6.00" waitingCount="1" stopTime="0.00" timeLoss="15.41" rerouteNo="1" devices="tripinfo_carIn107282:1 routing_carIn107282:1 emissions_carIn107282:1" vType="default_016" speedFactor="1.03" vaporized="">
        <emissions CO_abs="2425.405108" CO2_abs="126392.563642" HC_abs="13.952288" PMx_abs="2.151103" NOx_abs="51.321370" fuel_abs="54.331270" electricity_abs="0"/>
    </tripinfo>
    <tripinfo id="carIn80064:1" depart="57603.00" departLane="128361109#1_1" departPos="5.10" departSpeed="0.00" departDelay="0.40" arrival="57809.00" arrivalLane="-315358254#1_1" arrivalPos="137.16" arrivalSpeed="14.15" duration="206.00" routeLength="1587.97" waitingTime="83.00" waitingCount="2" stopTime="0.00" timeLoss="119.19" rerouteNo="1" devices="tripinfo_carIn80064:1 routing_carIn80064:1 emissions_carIn80064:1" vType="default_016" speedFactor="1.03" vaporized="">
        <emissions CO_abs="19270.058588" CO2_abs="660450.415527" HC_abs="103.509458" PMx_abs="14.232149" NOx_abs="284.200309" fuel_abs="283.903509" electricity_abs="0"/>
    </tripinfo>
    <tripinfo id="h645c1:1" depart="57622.00" departLane="266565295#5_1" departPos="5.10" departSpeed="0.00" departDelay="0.40" arrival="57814.00" arrivalLane="-315358244_1" arrivalPos="33.95" arrivalSpeed="13.24" duration="192.00" routeLength="1910.83" waitingTime="21.00" waitingCount="4" stopTime="0.00" timeLoss="54.68" rerouteNo="1" devices="tripinfo_h645c1:1 routing_h645c1:1 emissions_h645c1:1" vType="default_016" speedFactor="1.02" vaporized="">
        <emissions CO_abs="7784.272483" CO2_abs="475670.710216" HC_abs="46.603478" PMx_abs="8.308725" NOx_abs="192.654366" fuel_abs="204.471162" electricity_abs="0"/>
    </tripinfo>
    <tripinfo id="h11737c1:1" depart="57665.00" departLane="272042143_1" departPos="5.10" departSpeed="0.00" departDelay="1.50" arrival="57817.00" arrivalLane="-315358254#1_1" arrivalPos="137.16" arrivalSpeed="13.40" duration="152.00" routeLength="1596.88" waitingTime="17.00" waitingCount="2" stopTime="0.00" timeLoss="36.96" rerouteNo="1" devices="tripinfo_h11737c1:1 routing_h11737c1:1 emissions_h11737c1:1" vType="default_016" speedFactor="1.01" vaporized="">
        <emissions CO_abs="5941.055483" CO2_abs="371517.500216" HC_abs="35.745560" PMx_abs="6.304323" NOx_abs="148.921650" fuel_abs="159.700207" electricity_abs="0"/>
    </tripinfo>
    <tripinfo id="h17600c1:1" depart="57662.00" departLane="272042143_1" departPos="5.10" departSpeed="0.00" departDelay="0.30" arrival="57819.00" arrivalLane="201238729#3_1" arrivalPos="431.02" arrivalSpeed="15.24" duration="157.00" routeLength="2100.26" waitingTime="3.00" waitingCount="1" stopTime="0.00" timeLoss="20.04" rerouteNo="1" devices="tripinfo_h17600c1:1 routing_h17600c1:1 emissions_h17600c1:1" vType="default_016" speedFactor="1.11" vaporized="">
        <emissions CO_abs="4247.869481" CO2_abs="388212.129406" HC_abs="28.356734" PMx_abs="6.355167" NOx_abs="152.128090" fuel_abs="166.875409" electricity_abs="0"/>
    </tripinfo>
    <tripinfo id="carIn126288:1" depart="57674.00" departLane="272042143_1" departPos="5.10" departSpeed="0.00" departDelay="0.00" arrival="57819.00" arrivalLane="-315358254#1_1" arrivalPos="137.16" arrivalSpeed="12.87" duration="145.00" routeLength="1596.88" waitingTime="10.00" waitingCount="2" stopTime="0.00" timeLoss="30.13" rerouteNo="1" devices="tripinfo_carIn126288:1 routing_carIn126288:1 emissions_carIn126288:1" vType="default_016" speedFactor="1.01" vaporized="">
        <emissions CO_abs="4766.272978" CO2_abs="343184.042472" HC_abs="29.705429" PMx_abs="5.843906" NOx_abs="137.697866" fuel_abs="147.520151" electricity_abs="0"/>
    </tripinfo>
    <tripinfo id="carIn28951:1" depart="57606.00" departLane="10425609#0_1" departPos="5.10" departSpeed="0.00" departDelay="0.20" arrival="57823.00" arrivalLane="-128361102#1_1" arrivalPos="274.68" arrivalSpeed="15.28" duration="217.00" routeLength="2113.04" waitingTime="40.00" waitingCount="3" stopTime="0.00" timeLoss="77.64" rerouteNo="1" devices="tripinfo_carIn28951:1 routing_carIn28951:1 emissions_carIn28951:1" vType="default_016" speedFactor="1.11" vaporized="">
        <emissions CO_abs="11825.452574" CO2_abs="597743.632819" HC_abs="67.803617" PMx_abs="11.112038" NOx_abs="245.799835" fuel_abs="256.946024" electricity_abs="0"/>
    </tripinfo>
    <tripinfo id="carIn77943:1" depart="57607.00" departLane="124812856#0_1" departPos="5.10" departSpeed="0.00" departDelay="1.50" arrival="57825.00" arrivalLane="-128361102#1_1" arrivalPos="274.68" arrivalSpeed="14.98" duration="218.00" routeLength="2232.46" waitingTime="34.00" waitingCount="3" stopTime="0.00" timeLoss="76.56" rerouteNo="1" devices="tripinfo_carIn77943:1 routing_carIn77943:1 emissions_carIn77943:1" vType="default_016" speedFactor="1.16" vaporized="">
        <emissions CO_abs="11418.060332" CO2_abs="623757.705499" HC_abs="66.536420" PMx_abs="11.531987" NOx_abs="255.736978" fuel_abs="268.127768" electricity_abs="0"/>
    </tripinfo>
    <tripinfo id="carIn129809:1" depart="57729.00" departLane="-447569998#1_1" departPos="5.10" departSpeed="0.00" departDelay="1.00" arrival="57827.00" arrivalLane="-315358244_1" arrivalPos="33.95" arrivalSpeed="12.97" duration="98.00" routeLength="706.49" waitingTime="25.00" waitingCount="1" stopTime="0.00" timeLoss="34.60" rerouteNo="1" devices="tripinfo_carIn129809:1 routing_carIn129809:1 emissions_carIn129809:1" vType="default_015" speedFactor="0.95" vaporized="">
        <emissions CO_abs="5819.612488" CO2_abs="207514.808888" HC_abs="31.335941" PMx_abs="3.868634" NOx_abs="86.303836" fuel_abs="89.203664" electricity_abs="0"/>
    </tripinfo>
    <tripinfo id="carIn107084:1" depart="57601.00" departLane="124812856#0_1" departPos="5.10" departSpeed="0.00" departDelay="0.70" arrival="57829.00" arrivalLane="-128361102#1_1" arrivalPos="274.68" arrivalSpeed="13.52" duration="228.00" routeLength="2250.49" waitingTime="34.00" waitingCount="3" stopTime="0.00" timeLoss="72.61" rerouteNo="1" devices="tripinfo_carIn107084:1 routing_carIn107084:1 emissions_carIn107084:1" vType="default_016" speedFactor="1.06" vaporized="">
        <emissions CO_abs="10870.849422" CO2_abs="601440.348209" HC_abs="63.471271" PMx_abs="10.648573" NOx_abs="243.823799" fuel_abs="258.535033" electricity_abs="0"/>
    </tripinfo>
    <tripinfo id="carIn86816:1" depart="57617.00" departLane="128361102#0_1" departPos="5.10" departSpeed="0.00" departDelay="0.80" arrival="57832.00" arrivalLane="201956811#0_1" arrivalPos="40.40" arrivalSpeed="14.23" duration="215.00" routeLength="2067.33" waitingTime="38.00" waitingCount="3" stopTime="0.00" timeLoss="73.31" rerouteNo="1" devices="tripinfo_carIn86816:1 routing_carIn86816:1 emissions_carIn86816:1" vType="default_016" speedFactor="1.07" vaporized="">
        <emissions CO_abs="12060.032341" CO2_abs="594446.744704" HC_abs="68.685196" PMx_abs="10.950100" NOx_abs="244.149424" fuel_abs="255.529183" electricity_abs="0"/>
    </tripinfo>
    <tripinfo id="carIn46110:1" depart="57684.00" departLane="315358244_1" departPos="5.10" departSpeed="0.00" departDelay="1.20" arrival="57834.00" arrivalLane="32978638#0_1" arrivalPos="49.29" arrivalSpeed="14.77" duration="150.00" routeLength="1764.04" waitingTime="11.00" waitingCount="2" stopTime="0.00" timeLoss="34.54" rerouteNo="1" devices="tripinfo_carIn46110:1 routing_carIn46110:1 emissions_carIn46110:1" vType="default_016" speedFactor="1.11" vaporized="">
        <emissions CO_abs="5005.906536" CO2_abs="368487.424646" HC_abs="31.253771" PMx_abs="6.340389" NOx_abs="147.566978" fuel_abs="158.396841" electricity_abs="0"/>
    </tripinfo>
    <tripinfo id="carIn8642:1" depart="57774.00" departLane="-447569998#1_1" departPos="5.10" departSpeed="0.00" departDelay="0.90" arrival="57841.00" arrivalLane="-315358244_1" arrivalPos="33.95" arrivalSpeed="14.02" duration="67.00" routeLength="706.49" waitingTime="4.00" waitingCount="1" stopTime="0.00" timeLoss="12.51" rerouteNo="1" devices="tripinfo_carIn8642:1 routing_carIn8642:1 emissions_carIn8642:1" vType="default_016" speedFactor="1.10" vaporized="">
        <emissions CO_abs="2331.789318" CO2_abs="156558.813851" HC_abs="14.202472" PMx_abs="2.615145" NOx_abs="62.475524" fuel_abs="67.298146" electricity_abs="0"/>
    </tripinfo>
    <tripinfo id="h317c2:1" depart="57707.00" departLane="-32978638#0_1" departPos="5.10" departSpeed="0.00" departDelay="0.10" arrival="57845.00" arrivalLane="-266565295#5_1" arrivalPos="172.76" arrivalSpeed="13.73" duration="138.00" routeLength="370.53" waitingTime="100.00" waitingCount="1" stopTime="0.00" timeLoss="111.32" rerouteNo="1" devices="tripinfo_h317c2:1 routing_h317c2:1 emissions_h317c2:1" vType="default_016" speedFactor="1.03" vaporized="">
        <emissions CO_abs="17843.455460" CO2_abs="370342.566087" HC_abs="89.963649" PMx_abs="8.534693" NOx_abs="164.832977" fuel_abs="159.201723" electricity_abs="0"/>
    </tripinfo>
    <tripinfo id="randUni15030:1" depart="57735.00" departLane="386687232#0_1" departPos="5.10" departSpeed="0.00" departDelay="0.10" arrival="57846.00" arrivalLane="26677539_1" arrivalPos="151.98" arrivalSpeed="9.15" duration="111.00" routeLength="919.89" waitingTime="25.00" waitingCount="1" stopTime="0.00" timeLoss="41.79" rerouteNo="1" devices="tripinfo_randUni15030:1 routing_randUni15030:1 emissions_randUni15030:1" vType="random_016" speedFactor="1.20" vaporized="">
        <emissions CO_abs="7005.321573" CO2_abs="299239.843854" HC_abs="38.847555" PMx_abs="5.668905" NOx_abs="124.248386" fuel_abs="128.631922" electricity_abs="0"/>
    </tripinfo>
    <tripinfo id="S5R_frequency1.2" depart="57634.00" departLane="315358250#0_1" departPos="12.10" departSpeed="0.00" departDelay="22.40" arrival="57850.00" arrivalLane="386687235_1" arrivalPos="80.84" arrivalSpeed="13.30" duration="216.00" routeLength="1115.62" waitingTime="102.00" waitingCount="3" stopTime="0.00" timeLoss="134.24" rerouteNo="1" devices="tripinfo_S5R_frequency1.2 routing_S5R_frequency1.2 emissions_S5R_frequency1.2" vType="bus" speedFactor="1.00" vaporized="">
        <emissions CO_abs="4171.043859" CO2_abs="1931149.057577" HC_abs="919.006340" PMx_abs="431.634257" NOx_abs="16835.482742" fuel_abs="823.383720" electricity_abs="0"/>
    </tripinfo>
    <tripinfo id="h330c1:1" depart="57736.00" departLane="-32978638#0_1" departPos="5.10" departSpeed="0.00" departDelay="0.20" arrival="57850.00" arrivalLane="-266565295#5_1" arrivalPos="172.76" arrivalSpeed="11.34" duration="114.00" routeLength="370.53" waitingTime="74.00" waitingCount="1" stopTime="0.00" timeLoss="82.78" rerouteNo="1" devices="tripinfo_h330c1:1 routing_h330c1:1 emissions_h330c1:1" vType="default_016" speedFactor="0.87" vaporized="">
        <emissions CO_abs="13700.236019" CO2_abs="297761.841811" HC_abs="69.367821" PMx_abs="6.657674" NOx_abs="131.362201" fuel_abs="128.000687" electricity_abs="0"/>
    </tripinfo>
    <tripinfo id="carIn82278:1" depart="57702.00" departLane="-306240162#1_0" departPos="5.10" departSpeed="0.00" departDelay="0.70" arrival="57852.00" arrivalLane="399835085#1_1" arrivalPos="212.23" arrivalSpeed="7.85" duration="150.00" routeLength="1093.26" waitingTime="44.00" waitingCount="3" stopTime="0.00" timeLoss="74.67" rerouteNo="1" devices="tripinfo_carIn82278:1 routing_carIn82278:1 emissions_carIn82278:1" vType="default_016" speedFactor="1.04" vaporized="">
        <emissions CO_abs="11153.312054" CO2_abs="432101.743955" HC_abs="61.015568" PMx_abs="8.828384" NOx_abs="183.305805" fuel_abs="185.744194" electricity_abs="0"/>
    </tripinfo>
    <tripinfo id="carIn118591:1" depart="57689.00" departLane="315358244_1" departPos="5.10" departSpeed="0.00" departDelay="0.20" arrival="57856.00" arrivalLane="386687235_1" arrivalPos="80.84" arrivalSpeed="15.51" duration="167.00" routeLength="1186.14" waitingTime="63.00" waitingCount="2" stopTime="0.00" timeLoss="90.48" rerouteNo="1" devices="tripinfo_carIn118591:1 routing_carIn118591:1 emissions_carIn118591:1" vType="default_016" speedFactor="1.14" vaporized="">
        <emissions CO_abs="13544.083297" CO2_abs="439381.746130" HC_abs="71.836104" PMx_abs="8.788479" NOx_abs="184.782750" fuel_abs="188.875779" electricity_abs="0"/>
    </tripinfo>
    <tripinfo id="randUni31145:1" depart="57814.00" departLane="10425609#0_1" departPos="5.10" departSpeed="0.00" departDelay="0.30" arrival="57856.00" arrivalLane="201956810_1" arrivalPos="71.65" arrivalSpeed="11.21" duration="42.00" routeLength="255.78" waitingTime="10.00" waitingCount="1" stopTime="0.00" timeLoss="20.02" rerouteNo="1" devices="tripinfo_randUni31145:1 routing_randUni31145:1 emissions_randUni31145:1" vType="random_016" speedFactor="0.89" vaporized="">
        <emissions CO_abs="3550.595784" CO2_abs="125068.783160" HC_abs="19.111985" PMx_abs="2.523316" NOx_abs="53.662136" fuel_abs="53.762581" electricity_abs="0"/>
    </tripinfo>
    <tripinfo id="carIn12775:1" depart="57676.00" departLane="10425609#0_1" departPos="5.10" departSpeed="0.00" departDelay="0.60" arrival="57858.00" arrivalLane="18809673#0_1" arrivalPos="473.56" arrivalSpeed="15.70" duration="182.00" routeLength="1959.45" waitingTime="25.00" waitingCount="4" stopTime="0.00" timeLoss="54.86" rerouteNo="1" devices="tripinfo_carIn12775:1 routing_carIn12775:1 emissions_carIn12775:1" vType="default_016" speedFactor="1.15" vaporized="">
        <emissions CO_abs="8528.605529" CO2_abs="470983.841312" HC_abs="49.658735" PMx_abs="8.444099" NOx_abs="190.611635" fuel_abs="202.456953" electricity_abs="0"/>
    </tripinfo>
    <tripinfo id="randUni2407:1" depart="57820.00" departLane="10425609#0_1" departPos="5.10" departSpeed="0.00" departDelay="0.80" arrival="57858.00" arrivalLane="201956810_1" arrivalPos="71.65" arrivalSpeed="12.93" duration="38.00" routeLength="255.78" waitingTime="5.00" waitingCount="1" stopTime="0.00" timeLoss="17.71" rerouteNo="1" devices="tripinfo_randUni2407:1 routing_randUni2407:1 emissions_randUni2407:1" vType="random_016" speedFactor="0.99" vaporized="">
        <emissions CO_abs="2333.019501" CO2_abs="108895.009790" HC_abs="13.195295" PMx_abs="2.122975" NOx_abs="46.285127" fuel_abs="46.809516" electricity_abs="0"/>
    </tripinfo>
    <tripinfo id="carIn12858:1" depart="57661.00" departLane="128361109#1_1" departPos="5.10" departSpeed="0.00" departDelay="0.90" arrival="57862.00" arrivalLane="399835085#1_1" arrivalPos="212.23" arrivalSpeed="7.55" duration="201.00" routeLength="1738.12" waitingTime="51.00" waitingCount="3" stopTime="0.00" timeLoss="83.74" rerouteNo="1" devices="tripinfo_carIn12858:1 routing_carIn12858:1 emissions_carIn12858:1" vType="default_016" speedFactor="0.98" vaporized="">
        <emissions CO_abs="14037.227359" CO2_abs="598992.617912" HC_abs="78.118916" PMx_abs="11.897084" NOx_abs="250.849336" fuel_abs="257.483685" electricity_abs="0"/>
    </tripinfo>
    <tripinfo id="carIn126378:1" depart="57746.00" departLane="386687232#0_1" departPos="5.10" departSpeed="0.00" departDelay="1.80" arrival="57865.00" arrivalLane="-315358244_2" arrivalPos="33.95" arrivalSpeed="13.33" duration="119.00" routeLength="1157.39" waitingTime="18.00" waitingCount="1" stopTime="0.00" timeLoss="38.38" rerouteNo="1" devices="tripinfo_carIn126378:1 routing_carIn126378:1 emissions_carIn126378:1" vType="default_016" speedFactor="1.05" vaporized="">
        <emissions CO_abs="5556.528350" CO2_abs="298206.563153" HC_abs="32.181147" PMx_abs="5.164514" NOx_abs="120.088354" fuel_abs="128.187337" electricity_abs="0"/>
    </tripinfo>
    <tripinfo id="carIn73855:1" depart="57743.00" departLane="386687232#0_1" departPos="5.10" departSpeed="0.00" departDelay="0.50" arrival="57866.00" arrivalLane="-315358244_1" arrivalPos="33.95" arrivalSpeed="13.76" duration="123.00" routeLength="1157.39" waitingTime="20.00" waitingCount="1" stopTime="0.00" timeLoss="37.70" rerouteNo="1" devices="tripinfo_carIn73855:1 routing_carIn73855:1 emissions_carIn73855:1" vType="default_016" speedFactor="1.00" vaporized="">
        <emissions CO_abs="6406.785248" CO2_abs="306004.926471" HC_abs="36.380987" PMx_abs="5.701146" NOx_abs="126.573039" fuel_abs="131.539480" electricity_abs="0"/>
    </tripinfo>
    <tripinfo id="h17549c1:1" depart="57680.00" departLane="-447569998#1_1" departPos="5.10" departSpeed="0.00" departDelay="0.00" arrival="57867.00" arrivalLane="-315358254#1_1" arrivalPos="137.16" arrivalSpeed="15.00" duration="187.00" routeLength="1746.60" waitingTime="41.00" waitingCount="2" stopTime="0.00" timeLoss="65.60" rerouteNo="1" devices="tripinfo_h17549c1:1 routing_h17549c1:1 emissions_h17549c1:1" vType="default_016" speedFactor="1.13" vaporized="">
        <emissions CO_abs="10878.051458" CO2_abs="494178.771116" HC_abs="60.990438" PMx_abs="9.049453" NOx_abs="202.123442" fuel_abs="212.428811" electricity_abs="0"/>