<?xml version="1.0" encoding="UTF-8"?>

<!-- generated on 2021-10-26 20:46:38 by Eclipse SUMO sumo Version 1.10.0
<configuration xmlns:xsi="http://www.w3.org/2001/XMLSchema-instance" xsi:noNamespaceSchemaLocation="http://sumo.dlr.de/xsd/sumoConfiguration.xsd">

    <input>
        <net-file value="/Users/behradkoohy/sumo-scratchpad/RESCO/environments/ingolstadt21/ingolstadt21.net.xml"/>
        <route-files value="/Users/behradkoohy/sumo-scratchpad/RESCO/environments/ingolstadt21/ingolstadt21.rou.xml"/>
    </input>

    <output>
        <tripinfo-output value="/Users/behradkoohy/sumo-scratchpad/RESCO/logs/MPLight-tr0-ingolstadt21-21-mplight_full-pressure/tripinfo_13.xml"/>
        <tripinfo-output.write-unfinished value="true"/>
    </output>

    <time>
        <begin value="57600"/>
        <end value="61200"/>
    </time>

    <processing>
        <time-to-teleport value="-1"/>
    </processing>

    <report>
        <no-warnings value="true"/>
        <no-step-log value="true"/>
    </report>

    <emissions>
        <device.emissions.probability value="1"/>
    </emissions>

    <traci_server>
        <remote-port value="64461"/>
    </traci_server>

    <random_number>
        <random value="true"/>
    </random_number>

</configuration>
-->

<tripinfos xmlns:xsi="http://www.w3.org/2001/XMLSchema-instance" xsi:noNamespaceSchemaLocation="http://sumo.dlr.de/xsd/tripinfo_file.xsd">
    <tripinfo id="h15454c2:3" depart="57612.00" departLane="24608844_1" departPos="5.10" departSpeed="0.00" departDelay="0.50" arrival="57658.00" arrivalLane="32978638#0_1" arrivalPos="49.29" arrivalSpeed="13.20" duration="46.00" routeLength="354.79" waitingTime="0.00" waitingCount="0" stopTime="0.00" timeLoss="10.55" rerouteNo="1" devices="tripinfo_h15454c2:3 routing_h15454c2:3 emissions_h15454c2:3" vType="default_016" speedFactor="0.98" vaporized="">
        <emissions CO_abs="2112.462470" CO2_abs="101687.885663" HC_abs="11.995267" PMx_abs="1.839356" NOx_abs="42.291447" fuel_abs="43.711631" electricity_abs="0"/>
    </tripinfo>
    <tripinfo id="carIn53971:1" depart="57640.00" departLane="272042143_1" departPos="5.10" departSpeed="0.00" departDelay="0.80" arrival="57694.00" arrivalLane="24634414#1_1" arrivalPos="162.19" arrivalSpeed="7.99" duration="54.00" routeLength="493.04" waitingTime="0.00" waitingCount="0" stopTime="0.00" timeLoss="8.52" rerouteNo="1" devices="tripinfo_carIn53971:1 routing_carIn53971:1 emissions_carIn53971:1" vType="default_016" speedFactor="1.02" vaporized="">
        <emissions CO_abs="2501.022912" CO2_abs="139603.687317" HC_abs="14.631849" PMx_abs="2.398879" NOx_abs="57.008857" fuel_abs="60.010020" electricity_abs="0"/>
    </tripinfo>
    <tripinfo id="carIn60260:1" depart="57606.00" departLane="315358254#0_1" departPos="5.10" departSpeed="0.00" departDelay="0.90" arrival="57708.00" arrivalLane="399835085#1_1" arrivalPos="212.23" arrivalSpeed="9.45" duration="102.00" routeLength="430.98" waitingTime="50.00" waitingCount="1" stopTime="0.00" timeLoss="61.81" rerouteNo="1" devices="tripinfo_carIn60260:1 routing_carIn60260:1 emissions_carIn60260:1" vType="default_016" speedFactor="1.16" vaporized="">
        <emissions CO_abs="10307.096650" CO2_abs="255939.385341" HC_abs="52.931811" PMx_abs="5.481168" NOx_abs="111.537008" fuel_abs="110.021307" electricity_abs="0"/>
    </tripinfo>
    <tripinfo id="S5R_frequency1.2" depart="57612.00" departLane="315358250#0_1" departPos="12.10" departSpeed="0.00" departDelay="0.40" arrival="57717.00" arrivalLane="386687235_1" arrivalPos="80.84" arrivalSpeed="13.69" duration="105.00" routeLength="1115.62" waitingTime="6.00" waitingCount="1" stopTime="0.00" timeLoss="23.23" rerouteNo="1" devices="tripinfo_S5R_frequency1.2 routing_S5R_frequency1.2 emissions_S5R_frequency1.2" vType="bus" speedFactor="1.00" vaporized="">
        <emissions CO_abs="1914.741446" CO2_abs="1181310.406097" HC_abs="401.196382" PMx_abs="204.614000" NOx_abs="9220.468272" fuel_abs="503.805783" electricity_abs="0"/>
    </tripinfo>
    <tripinfo id="h3688c1:1" depart="57625.00" departLane="201201950#1_1" departPos="5.10" departSpeed="0.00" departDelay="0.00" arrival="57720.00" arrivalLane="32978638#0_1" arrivalPos="49.29" arrivalSpeed="13.95" duration="95.00" routeLength="1089.75" waitingTime="4.00" waitingCount="1" stopTime="0.00" timeLoss="21.00" rerouteNo="1" devices="tripinfo_h3688c1:1 routing_h3688c1:1 emissions_h3688c1:1" vType="default_016" speedFactor="1.09" vaporized="">
        <emissions CO_abs="3706.086399" CO2_abs="267089.056081" HC_abs="22.997339" PMx_abs="4.590893" NOx_abs="107.299301" fuel_abs="114.810094" electricity_abs="0"/>
    </tripinfo>
    <tripinfo id="h7800c1:5" depart="57696.00" departLane="-447569998#1_1" departPos="5.10" departSpeed="0.00" departDelay="0.00" arrival="57720.00" arrivalLane="-447569998#1_1" arrivalPos="180.76" arrivalSpeed="7.63" duration="24.00" routeLength="175.66" waitingTime="0.00" waitingCount="0" stopTime="0.00" timeLoss="3.29" rerouteNo="1" devices="tripinfo_h7800c1:5 routing_h7800c1:5 emissions_h7800c1:5" vType="default_016" speedFactor="1.02" vaporized="">
        <emissions CO_abs="1153.833867" CO2_abs="51736.463663" HC_abs="6.446365" PMx_abs="0.871306" NOx_abs="21.212003" fuel_abs="22.239630" electricity_abs="0"/>
    </tripinfo>
    <tripinfo id="carIn80064:1" depart="57603.00" departLane="128361109#1_1" departPos="5.10" departSpeed="0.00" departDelay="0.40" arrival="57738.00" arrivalLane="-315358254#1_1" arrivalPos="137.16" arrivalSpeed="12.74" duration="135.00" routeLength="1587.97" waitingTime="8.00" waitingCount="2" stopTime="0.00" timeLoss="37.25" rerouteNo="1" devices="tripinfo_carIn80064:1 routing_carIn80064:1 emissions_carIn80064:1" vType="default_016" speedFactor="0.92" vaporized="">
        <emissions CO_abs="6889.711730" CO2_abs="445098.525804" HC_abs="41.939508" PMx_abs="8.441850" NOx_abs="183.521972" fuel_abs="191.328193" electricity_abs="0"/>
    </tripinfo>
    <tripinfo id="carIn121703:1" depart="57647.00" departLane="386687232#0_1" departPos="5.10" departSpeed="0.00" departDelay="0.30" arrival="57744.00" arrivalLane="-315358244_1" arrivalPos="33.95" arrivalSpeed="14.75" duration="97.00" routeLength="1157.39" waitingTime="3.00" waitingCount="1" stopTime="0.00" timeLoss="16.77" rerouteNo="1" devices="tripinfo_carIn121703:1 routing_carIn121703:1 emissions_carIn121703:1" vType="default_016" speedFactor="1.06" vaporized="">
        <emissions CO_abs="3440.052858" CO2_abs="261731.346418" HC_abs="21.734195" PMx_abs="4.451802" NOx_abs="104.623518" fuel_abs="112.506989" electricity_abs="0"/>
    </tripinfo>
    <tripinfo id="h3568c1:3" depart="57656.00" departLane="266565295#5_1" departPos="5.10" departSpeed="0.00" departDelay="0.80" arrival="57745.00" arrivalLane="-24634415_1" arrivalPos="62.03" arrivalSpeed="13.30" duration="89.00" routeLength="807.40" waitingTime="10.00" waitingCount="1" stopTime="0.00" timeLoss="26.71" rerouteNo="1" devices="tripinfo_h3568c1:3 routing_h3568c1:3 emissions_h3568c1:3" vType="default_016" speedFactor="1.04" vaporized="">
        <emissions CO_abs="5139.975012" CO2_abs="263073.260818" HC_abs="29.608675" PMx_abs="5.045486" NOx_abs="110.270416" fuel_abs="113.084251" electricity_abs="0"/>
    </tripinfo>
    <tripinfo id="h4538c1:1" depart="57701.00" departLane="-10427692#1_1" departPos="5.10" departSpeed="0.00" departDelay="0.00" arrival="57745.00" arrivalLane="-128361102#1_1" arrivalPos="274.68" arrivalSpeed="13.30" duration="44.00" routeLength="440.74" waitingTime="4.00" waitingCount="1" stopTime="0.00" timeLoss="13.30" rerouteNo="1" devices="tripinfo_h4538c1:1 routing_h4538c1:1 emissions_h4538c1:1" vType="default_016" speedFactor="1.04" vaporized="">
        <emissions CO_abs="1824.414086" CO2_abs="110959.582111" HC_abs="10.914154" PMx_abs="1.963334" NOx_abs="45.264340" fuel_abs="47.696887" electricity_abs="0"/>
    </tripinfo>
    <tripinfo id="h317c2:1" depart="57707.00" departLane="-32978638#0_1" departPos="5.10" departSpeed="0.00" departDelay="0.10" arrival="57745.00" arrivalLane="-266565295#5_1" arrivalPos="172.76" arrivalSpeed="12.85" duration="38.00" routeLength="370.53" waitingTime="3.00" waitingCount="1" stopTime="0.00" timeLoss="10.35" rerouteNo="1" devices="tripinfo_h317c2:1 routing_h317c2:1 emissions_h317c2:1" vType="default_016" speedFactor="1.01" vaporized="">
        <emissions CO_abs="2089.751307" CO2_abs="124883.809190" HC_abs="12.468434" PMx_abs="2.318870" NOx_abs="51.825748" fuel_abs="53.682176" electricity_abs="0"/>
    </tripinfo>
    <tripinfo id="h7181c1:1" depart="57660.00" departLane="315358254#0_1" departPos="5.10" departSpeed="0.00" departDelay="0.10" arrival="57749.00" arrivalLane="306240162#0_0" arrivalPos="220.43" arrivalSpeed="15.35" duration="89.00" routeLength="932.35" waitingTime="15.00" waitingCount="1" stopTime="0.00" timeLoss="37.02" rerouteNo="1" devices="tripinfo_h7181c1:1 routing_h7181c1:1 emissions_h7181c1:1" vType="default_016" speedFactor="0.99" vaporized="">
        <emissions CO_abs="6172.882541" CO2_abs="327482.402006" HC_abs="35.870101" PMx_abs="6.506178" NOx_abs="137.021610" fuel_abs="140.770695" electricity_abs="0"/>
    </tripinfo>
    <tripinfo id="h5979c1:5" depart="57669.00" departLane="399835085#1_1" departPos="5.10" departSpeed="0.00" departDelay="0.00" arrival="57756.00" arrivalLane="-315358254#1_1" arrivalPos="137.16" arrivalSpeed="14.25" duration="87.00" routeLength="659.33" waitingTime="0.00" waitingCount="0" stopTime="0.00" timeLoss="17.71" rerouteNo="1" devices="tripinfo_h5979c1:5 routing_h5979c1:5 emissions_h5979c1:5" vType="default_016" speedFactor="1.05" vaporized="">
        <emissions CO_abs="4002.982619" CO2_abs="194197.620448" HC_abs="22.709580" PMx_abs="3.311415" NOx_abs="79.613340" fuel_abs="83.478197" electricity_abs="0"/>
    </tripinfo>
    <tripinfo id="carIn30817:1" depart="57681.00" departLane="315358244_1" departPos="5.10" departSpeed="0.00" departDelay="0.20" arrival="57757.00" arrivalLane="447569997#1_1" arrivalPos="180.93" arrivalSpeed="6.90" duration="76.00" routeLength="718.04" waitingTime="0.00" waitingCount="0" stopTime="0.00" timeLoss="12.03" rerouteNo="1" devices="tripinfo_carIn30817:1 routing_carIn30817:1 emissions_carIn30817:1" vType="default_016" speedFactor="0.96" vaporized="">
        <emissions CO_abs="2833.043601" CO2_abs="164824.385686" HC_abs="16.734123" PMx_abs="2.760078" NOx_abs="66.657734" fuel_abs="70.851414" electricity_abs="0"/>
    </tripinfo>
    <tripinfo id="carIn27009:1" depart="57673.00" departLane="-447569998#1_1" departPos="5.10" departSpeed="0.00" departDelay="0.50" arrival="57766.00" arrivalLane="-26677539_1" arrivalPos="152.75" arrivalSpeed="7.27" duration="93.00" routeLength="699.63" waitingTime="0.00" waitingCount="0" stopTime="0.00" timeLoss="10.33" rerouteNo="1" devices="tripinfo_carIn27009:1 routing_carIn27009:1 emissions_carIn27009:1" vType="default_015" speedFactor="1.01" vaporized="">
        <emissions CO_abs="3604.723434" CO2_abs="174135.722695" HC_abs="20.387677" PMx_abs="2.675031" NOx_abs="69.638763" fuel_abs="74.854797" electricity_abs="0"/>
    </tripinfo>
    <tripinfo id="h645c1:1" depart="57622.00" departLane="266565295#5_1" departPos="5.10" departSpeed="0.00" departDelay="0.40" arrival="57767.00" arrivalLane="-315358244_1" arrivalPos="33.95" arrivalSpeed="13.23" duration="145.00" routeLength="1910.83" waitingTime="0.00" waitingCount="0" stopTime="0.00" timeLoss="11.25" rerouteNo="1" devices="tripinfo_h645c1:1 routing_h645c1:1 emissions_h645c1:1" vType="default_016" speedFactor="1.04" vaporized="">
        <emissions CO_abs="3257.055067" CO2_abs="322767.125986" HC_abs="22.345771" PMx_abs="5.033596" NOx_abs="125.081817" fuel_abs="138.743603" electricity_abs="0"/>
    </tripinfo>
    <tripinfo id="h3326c1:2" depart="57656.00" departLane="22716069#0_1" departPos="5.10" departSpeed="0.00" departDelay="0.00" arrival="57771.00" arrivalLane="24634517#13_1" arrivalPos="111.62" arrivalSpeed="12.56" duration="115.00" routeLength="1312.81" waitingTime="0.00" waitingCount="0" stopTime="0.00" timeLoss="14.53" rerouteNo="1" devices="tripinfo_h3326c1:2 routing_h3326c1:2 emissions_h3326c1:2" vType="default_016" speedFactor="0.98" vaporized="">
        <emissions CO_abs="4001.339093" CO2_abs="300928.794157" HC_abs="25.257879" PMx_abs="4.960518" NOx_abs="120.036690" fuel_abs="129.356497" electricity_abs="0"/>
    </tripinfo>
    <tripinfo id="h330c1:1" depart="57736.00" departLane="-32978638#0_1" departPos="5.10" departSpeed="0.00" departDelay="0.20" arrival="57778.00" arrivalLane="-266565295#5_1" arrivalPos="172.76" arrivalSpeed="11.23" duration="42.00" routeLength="370.53" waitingTime="1.00" waitingCount="1" stopTime="0.00" timeLoss="8.99" rerouteNo="1" devices="tripinfo_h330c1:1 routing_h330c1:1 emissions_h330c1:1" vType="default_016" speedFactor="0.82" vaporized="">
        <emissions CO_abs="1869.987932" CO2_abs="105971.020469" HC_abs="10.979840" PMx_abs="1.788459" NOx_abs="43.029976" fuel_abs="45.552717" electricity_abs="0"/>
    </tripinfo>
    <tripinfo id="carIn12365:1" depart="57713.00" departLane="315358244_1" departPos="5.10" departSpeed="0.00" departDelay="0.50" arrival="57791.00" arrivalLane="447569997#1_1" arrivalPos="180.93" arrivalSpeed="7.45" duration="78.00" routeLength="718.04" waitingTime="0.00" waitingCount="0" stopTime="0.00" timeLoss="8.92" rerouteNo="1" devices="tripinfo_carIn12365:1 routing_carIn12365:1 emissions_carIn12365:1" vType="default_016" speedFactor="0.90" vaporized="">
        <emissions CO_abs="2695.388260" CO2_abs="162002.736620" HC_abs="15.994375" PMx_abs="2.446663" NOx_abs="63.709181" fuel_abs="69.638840" electricity_abs="0"/>
    </tripinfo>
    <tripinfo id="h12244c1:3" depart="57612.00" departLane="315358244_1" departPos="5.10" departSpeed="0.00" departDelay="0.40" arrival="57797.00" arrivalLane="386687235_1" arrivalPos="80.84" arrivalSpeed="11.91" duration="185.00" routeLength="1186.14" waitingTime="68.00" waitingCount="3" stopTime="0.00" timeLoss="85.35" rerouteNo="1" devices="tripinfo_h12244c1:3 routing_h12244c1:3 emissions_h12244c1:3" vType="default_016" speedFactor="0.87" vaporized="">
        <emissions CO_abs="13678.817913" CO2_abs="403332.172203" HC_abs="71.667090" PMx_abs="7.787045" NOx_abs="169.387380" fuel_abs="173.380613" electricity_abs="0"/>
    </tripinfo>
    <tripinfo id="carIn50326:1" depart="57651.00" departLane="128361102#0_1" departPos="5.10" departSpeed="0.00" departDelay="0.30" arrival="57797.00" arrivalLane="18809673#0_1" arrivalPos="473.56" arrivalSpeed="13.70" duration="146.00" routeLength="1591.07" waitingTime="2.00" waitingCount="1" stopTime="0.00" timeLoss="21.06" rerouteNo="1" devices="tripinfo_carIn50326:1 routing_carIn50326:1 emissions_carIn50326:1" vType="default_016" speedFactor="1.04" vaporized="">
        <emissions CO_abs="4946.924963" CO2_abs="339633.733549" HC_abs="30.407039" PMx_abs="5.589605" NOx_abs="135.477591" fuel_abs="145.994473" electricity_abs="0"/>
    </tripinfo>
    <tripinfo id="h3154c1:1" depart="57658.00" departLane="24634507_1" departPos="5.10" departSpeed="0.00" departDelay="0.00" arrival="57797.00" arrivalLane="-266565295#5_1" arrivalPos="172.76" arrivalSpeed="13.46" duration="139.00" routeLength="1206.22" waitingTime="28.00" waitingCount="2" stopTime="0.00" timeLoss="52.89" rerouteNo="1" devices="tripinfo_h3154c1:1 routing_h3154c1:1 emissions_h3154c1:1" vType="default_016" speedFactor="1.04" vaporized="">
        <emissions CO_abs="8349.756511" CO2_abs="377815.674191" HC_abs="46.922585" PMx_abs="7.216446" NOx_abs="157.830287" fuel_abs="162.408155" electricity_abs="0"/>
    </tripinfo>
    <tripinfo id="h9563c2:5" depart="57631.00" departLane="315358244_1" departPos="5.10" departSpeed="0.00" departDelay="0.70" arrival="57799.00" arrivalLane="386687235_1" arrivalPos="80.84" arrivalSpeed="12.68" duration="168.00" routeLength="1186.14" waitingTime="44.00" waitingCount="5" stopTime="0.00" timeLoss="74.96" rerouteNo="1" devices="tripinfo_h9563c2:5 routing_h9563c2:5 emissions_h9563c2:5" vType="default_016" speedFactor="0.92" vaporized="">
        <emissions CO_abs="10331.341446" CO2_abs="390617.283419" HC_abs="56.176589" PMx_abs="7.327946" NOx_abs="162.670827" fuel_abs="167.912688" electricity_abs="0"/>
    </tripinfo>
    <tripinfo id="carIn28951:1" depart="57606.00" departLane="10425609#0_1" departPos="5.10" departSpeed="0.00" departDelay="0.20" arrival="57815.00" arrivalLane="-128361102#1_1" arrivalPos="274.68" arrivalSpeed="13.65" duration="209.00" routeLength="2113.04" waitingTime="23.00" waitingCount="2" stopTime="0.00" timeLoss="56.12" rerouteNo="1" devices="tripinfo_carIn28951:1 routing_carIn28951:1 emissions_carIn28951:1" vType="default_016" speedFactor="1.01" vaporized="">
        <emissions CO_abs="9158.401510" CO2_abs="528873.355392" HC_abs="54.101075" PMx_abs="9.459720" NOx_abs="216.010417" fuel_abs="227.340826" electricity_abs="0"/>
    </tripinfo>
    <tripinfo id="carIn86816:1" depart="57617.00" departLane="128361102#0_1" departPos="5.10" departSpeed="0.00" departDelay="0.80" arrival="57821.00" arrivalLane="201956811#0_1" arrivalPos="40.40" arrivalSpeed="12.93" duration="204.00" routeLength="2067.33" waitingTime="13.00" waitingCount="3" stopTime="0.00" timeLoss="42.83" rerouteNo="1" devices="tripinfo_carIn86816:1 routing_carIn86816:1 emissions_carIn86816:1" vType="default_016" speedFactor="0.94" vaporized="">
        <emissions CO_abs="7067.963465" CO2_abs="482474.821352" HC_abs="43.448352" PMx_abs="7.992628" NOx_abs="193.161597" fuel_abs="207.395868" electricity_abs="0"/>
    </tripinfo>
    <tripinfo id="carIn102915:1" depart="57643.00" departLane="128361102#0_1" departPos="5.10" departSpeed="0.00" departDelay="0.40" arrival="57823.00" arrivalLane="201956811#0_1" arrivalPos="40.40" arrivalSpeed="13.72" duration="180.00" routeLength="2067.33" waitingTime="7.00" waitingCount="2" stopTime="0.00" timeLoss="36.82" rerouteNo="1" devices="tripinfo_carIn102915:1 routing_carIn102915:1 emissions_carIn102915:1" vType="default_016" speedFactor="1.06" vaporized="">
        <emissions CO_abs="6494.683607" CO2_abs="489974.461709" HC_abs="40.918614" PMx_abs="8.309173" NOx_abs="196.008128" fuel_abs="210.618886" electricity_abs="0"/>
    </tripinfo>
    <tripinfo id="randUni33724:1" depart="57646.00" departLane="128361102#0_1" departPos="5.10" departSpeed="0.00" departDelay="1.20" arrival="57825.00" arrivalLane="201956811#0_1" arrivalPos="40.40" arrivalSpeed="13.19" duration="179.00" routeLength="2067.33" waitingTime="2.00" waitingCount="1" stopTime="0.00" timeLoss="25.68" rerouteNo="1" devices="tripinfo_randUni33724:1 routing_randUni33724:1 emissions_randUni33724:1" vType="random_016" speedFactor="0.99" vaporized="">
        <emissions CO_abs="5454.628001" CO2_abs="434227.217273" HC_abs="34.981331" PMx_abs="7.076799" NOx_abs="172.104716" fuel_abs="186.655732" electricity_abs="0"/>
    </tripinfo>
    <tripinfo id="h8343c1:5" depart="57679.00" departLane="315358254#0_1" departPos="5.10" departSpeed="0.00" departDelay="0.60" arrival="57827.00" arrivalLane="-24634510#5_1" arrivalPos="236.88" arrivalSpeed="12.70" duration="148.00" routeLength="2056.84" waitingTime="0.00" waitingCount="0" stopTime="0.00" timeLoss="22.12" rerouteNo="1" devices="tripinfo_h8343c1:5 routing_h8343c1:5 emissions_h8343c1:5" vType="default_016" speedFactor="0.99" vaporized="">
        <emissions CO_abs="6972.078926" CO2_abs="521952.399558" HC_abs="44.196258" PMx_abs="9.813485" NOx_abs="213.041560" fuel_abs="224.363633" electricity_abs="0"/>
    </tripinfo>
    <tripinfo id="h11737c1:1" depart="57665.00" departLane="272042143_1" departPos="5.10" departSpeed="0.00" departDelay="1.50" arrival="57828.00" arrivalLane="-315358254#1_1" arrivalPos="137.16" arrivalSpeed="12.28" duration="163.00" routeLength="1596.88" waitingTime="9.00" waitingCount="2" stopTime="0.00" timeLoss="31.80" rerouteNo="1" devices="tripinfo_h11737c1:1 routing_h11737c1:1 emissions_h11737c1:1" vType="default_016" speedFactor="0.89" vaporized="">
        <emissions CO_abs="5224.496282" CO2_abs="338993.681743" HC_abs="31.661936" PMx_abs="5.459154" NOx_abs="134.984651" fuel_abs="145.719723" electricity_abs="0"/>
    </tripinfo>
    <tripinfo id="randUni15030:1" depart="57735.00" departLane="386687232#0_1" departPos="5.10" departSpeed="0.00" departDelay="0.10" arrival="57829.00" arrivalLane="26677539_1" arrivalPos="151.98" arrivalSpeed="8.76" duration="94.00" routeLength="919.89" waitingTime="5.00" waitingCount="1" stopTime="0.00" timeLoss="19.85" rerouteNo="1" devices="tripinfo_randUni15030:1 routing_randUni15030:1 emissions_randUni15030:1" vType="random_016" speedFactor="1.13" vaporized="">
        <emissions CO_abs="3633.887980" CO2_abs="227629.923473" HC_abs="21.826676" PMx_abs="3.888833" NOx_abs="91.979426" fuel_abs="97.848699" electricity_abs="0"/>
    </tripinfo>
    <tripinfo id="carIn126288:1" depart="57674.00" departLane="272042143_1" departPos="5.10" departSpeed="0.00" departDelay="0.00" arrival="57830.00" arrivalLane="-315358254#1_1" arrivalPos="137.16" arrivalSpeed="14.56" duration="156.00" routeLength="1596.88" waitingTime="7.00" waitingCount="2" stopTime="0.00" timeLoss="49.91" rerouteNo="1" devices="tripinfo_carIn126288:1 routing_carIn126288:1 emissions_carIn126288:1" vType="default_016" speedFactor="1.10" vaporized="">
        <emissions CO_abs="6083.444318" CO2_abs="398412.376351" HC_abs="37.070950" PMx_abs="7.006332" NOx_abs="162.186943" fuel_abs="171.260502" electricity_abs="0"/>
    </tripinfo>
    <tripinfo id="carIn73855:1" depart="57743.00" departLane="386687232#0_1" departPos="5.10" departSpeed="0.00" departDelay="0.50" arrival="57830.00" arrivalLane="-315358244_1" arrivalPos="33.95" arrivalSpeed="15.33" duration="87.00" routeLength="1157.39" waitingTime="0.00" waitingCount="0" stopTime="0.00" timeLoss="11.40" rerouteNo="1" devices="tripinfo_carIn73855:1 routing_carIn73855:1 emissions_carIn73855:1" vType="default_016" speedFactor="1.12" vaporized="">
        <emissions CO_abs="2910.634046" CO2_abs="235177.178355" HC_abs="18.616204" PMx_abs="3.952279" NOx_abs="93.038000" fuel_abs="101.092469" electricity_abs="0"/>
    </tripinfo>
    <tripinfo id="carIn126378:1" depart="57746.00" departLane="386687232#0_1" departPos="5.10" departSpeed="0.00" departDelay="1.80" arrival="57837.00" arrivalLane="-315358244_1" arrivalPos="33.95" arrivalSpeed="13.86" duration="91.00" routeLength="1157.39" waitingTime="0.00" waitingCount="0" stopTime="0.00" timeLoss="10.78" rerouteNo="1" devices="tripinfo_carIn126378:1 routing_carIn126378:1 emissions_carIn126378:1" vType="default_016" speedFactor="1.05" vaporized="">
        <emissions CO_abs="2864.366384" CO2_abs="240608.497194" HC_abs="18.611323" PMx_abs="3.932969" NOx_abs="94.838925" fuel_abs="103.427211" electricity_abs="0"/>
    </tripinfo>
    <tripinfo id="carIn118591:1" depart="57689.00" departLane="315358244_1" departPos="5.10" departSpeed="0.00" departDelay="0.20" arrival="57838.00" arrivalLane="386687235_1" arrivalPos="80.84" arrivalSpeed="12.25" duration="149.00" routeLength="1186.14" waitingTime="33.00" waitingCount="2" stopTime="0.00" timeLoss="54.16" rerouteNo="1" devices="tripinfo_carIn118591:1 routing_carIn118591:1 emissions_carIn118591:1" vType="default_016" speedFactor="0.92" vaporized="">
        <emissions CO_abs="8042.771822" CO2_abs="330256.832438" HC_abs="44.340417" PMx_abs="6.047945" NOx_abs="136.355021" fuel_abs="141.965501" electricity_abs="0"/>
    </tripinfo>
    <tripinfo id="h17600c1:1" depart="57662.00" departLane="272042143_1" departPos="5.10" departSpeed="0.00" departDelay="0.30" arrival="57840.00" arrivalLane="201238729#3_1" arrivalPos="431.02" arrivalSpeed="13.63" duration="178.00" routeLength="2100.26" waitingTime="17.00" waitingCount="1" stopTime="0.00" timeLoss="33.95" rerouteNo="1" devices="tripinfo_h17600c1:1 routing_h17600c1:1 emissions_h17600c1:1" vType="default_016" speedFactor="1.05" vaporized="">
        <emissions CO_abs="5917.271684" CO2_abs="403859.698163" HC_abs="36.352365" PMx_abs="6.713789" NOx_abs="159.704229" fuel_abs="173.602672" electricity_abs="0"/>
    </tripinfo>
    <tripinfo id="h3864c1:3" depart="57678.00" departLane="24693977#1_1" departPos="5.10" departSpeed="0.00" departDelay="0.00" arrival="57840.00" arrivalLane="201956820_1" arrivalPos="48.33" arrivalSpeed="14.21" duration="162.00" routeLength="1574.85" waitingTime="15.00" waitingCount="1" stopTime="0.00" timeLoss="41.29" rerouteNo="1" devices="tripinfo_h3864c1:3 routing_h3864c1:3 emissions_h3864c1:3" vType="default_016" speedFactor="1.07" vaporized="">
        <emissions CO_abs="8097.778627" CO2_abs="455061.007971" HC_abs="47.518056" PMx_abs="8.342553" NOx_abs="187.758139" fuel_abs="195.611751" electricity_abs="0"/>
    </tripinfo>
    <tripinfo id="h16072c2:3" depart="57663.00" departLane="315358254#0_1" departPos="5.10" departSpeed="0.00" departDelay="2.50" arrival="57844.00" arrivalLane="386687235_1" arrivalPos="80.84" arrivalSpeed="14.53" duration="181.00" routeLength="1611.92" waitingTime="49.00" waitingCount="2" stopTime="0.00" timeLoss="72.01" rerouteNo="1" devices="tripinfo_h16072c2:3 routing_h16072c2:3 emissions_h16072c2:3" vType="default_016" speedFactor="1.08" vaporized="">
        <emissions CO_abs="10971.774082" CO2_abs="465549.489777" HC_abs="60.816373" PMx_abs="8.850701" NOx_abs="192.726678" fuel_abs="200.122268" electricity_abs="0"/>
    </tripinfo>
    <tripinfo id="h5216c1:1" depart="57664.00" departLane="224892339#0_1" departPos="5.10" departSpeed="0.00" departDelay="0.00" arrival="57845.00" arrivalLane="386687235_2" arrivalPos="80.84" arrivalSpeed="12.35" duration="181.00" routeLength="1823.78" waitingTime="17.00" waitingCount="2" stopTime="0.00" timeLoss="42.04" rerouteNo="1" devices="tripinfo_h5216c1:1 routing_h5216c1:1 emissions_h5216c1:1" vType="default_016" speedFactor="0.92" vaporized="">
        <emissions CO_abs="7634.879174" CO2_abs="451206.688466" HC_abs="45.328040" PMx_abs="7.758275" NOx_abs="182.152056" fuel_abs="193.955475" electricity_abs="0"/>
    </tripinfo>
    <tripinfo id="h11868c1:5" depart="57700.00" departLane="315358254#0_1" departPos="5.10" departSpeed="0.00" departDelay="0.10" arrival="57845.00" arrivalLane="386687235_1" arrivalPos="80.84" arrivalSpeed="14.80" duration="145.00" routeLength="1611.92" waitingTime="9.00" waitingCount="1" stopTime="0.00" timeLoss="38.12" rerouteNo="1" devices="tripinfo_h11868c1:5 routing_h11868c1:5 emissions_h11868c1:5" vType="default_016" speedFactor="1.10" vaporized="">
        <emissions CO_abs="6377.714797" CO2_abs="407559.886578" HC_abs="38.616024" PMx_abs="7.304913" NOx_abs="166.117657" fuel_abs="175.192612" electricity_abs="0"/>
    </tripinfo>
    <tripinfo id="carIn12152:1" depart="57647.00" departLane="24599188#0.94_1" departPos="5.10" departSpeed="0.00" departDelay="0.50" arrival="57846.00" arrivalLane="-315358254#1_1" arrivalPos="137.16" arrivalSpeed="13.01" duration="199.00" routeLength="2034.31" waitingTime="9.00" waitingCount="1" stopTime="0.00" timeLoss="37.22" rerouteNo="1" devices="tripinfo_carIn12152:1 routing_carIn12152:1 emissions_carIn12152:1" vType="default_016" speedFactor="0.98" vaporized="">
        <emissions CO_abs="6690.896993" CO2_abs="446321.632962" HC_abs="40.841095" PMx_abs="7.229628" NOx_abs="177.296887" fuel_abs="191.855528" electricity_abs="0"/>
    </tripinfo>
    <tripinfo id="randUni14624:1" depart="57606.00" departLane="315358244_1" departPos="5.10" departSpeed="0.00" departDelay="0.80" arrival="57849.00" arrivalLane="-25149001#4_1" arrivalPos="105.67" arrivalSpeed="8.76" duration="243.00" routeLength="2803.98" waitingTime="27.00" waitingCount="2" stopTime="0.00" timeLoss="51.22" rerouteNo="1" devices="tripinfo_randUni14624:1 routing_randUni14624:1 emissions_randUni14624:1" vType="random_016" speedFactor="1.10" vaporized="">
        <emissions CO_abs="8744.470795" CO2_abs="560466.825101" HC_abs="52.822652" PMx_abs="9.534196" NOx_abs="222.998728" fuel_abs="240.921747" electricity_abs="0"/>
    </tripinfo>
    <tripinfo id="carIn12858:1" depart="57661.00" departLane="128361109#1_1" departPos="5.10" departSpeed="0.00" departDelay="0.90" arrival="57849.00" arrivalLane="399835085#1_1" arrivalPos="212.23" arrivalSpeed="6.64" duration="188.00" routeLength="1738.12" waitingTime="26.00" waitingCount="3" stopTime="0.00" timeLoss="60.70" rerouteNo="1" devices="tripinfo_carIn12858:1 routing_carIn12858:1 emissions_carIn12858:1" vType="default_016" speedFactor="0.90" vaporized="">
        <emissions CO_abs="10539.750512" CO2_abs="535223.152917" HC_abs="60.677228" PMx_abs="10.289232" NOx_abs="222.488660" fuel_abs="230.070418" electricity_abs="0"/>
    </tripinfo>
    <tripinfo id="h17549c1:1" depart="57680.00" departLane="-447569998#1_1" departPos="5.10" departSpeed="0.00" departDelay="0.00" arrival="57850.00" arrivalLane="-315358254#1_1" arrivalPos="137.16" arrivalSpeed="11.70" duration="170.00" routeLength="1746.60" waitingTime="4.00" waitingCount="1" stopTime="0.00" timeLoss="20.92" rerouteNo="1" devices="tripinfo_h17549c1:1 routing_h17549c1:1 emissions_h17549c1:1" vType="default_016" speedFactor="0.92" vaporized="">
        <emissions CO_abs="4841.382198" CO2_abs="341447.193055" HC_abs="29.964981" PMx_abs="5.366293" NOx_abs="134.891814" fuel_abs="146.774253" electricity_abs="0"/>
    </tripinfo>
    <tripinfo id="carIn22761:1" depart="57616.00" departLane="-306240162#1_0" departPos="5.10" departSpeed="0.00" departDelay="2.10" arrival="57851.00" arrivalLane="399835085#1_1" arrivalPos="212.23" arrivalSpeed="7.64" duration="235.00" routeLength="1093.26" waitingTime="129.00" waitingCount="1" stopTime="0.00" timeLoss="160.34" rerouteNo="1" devices="tripinfo_carIn22761:1 routing_carIn22761:1 emissions_carIn22761:1" vType="default_016" speedFactor="1.05" vaporized="">
        <emissions CO_abs="25678.150252" CO2_abs="649887.948613" HC_abs="132.306812" PMx_abs="14.465695" NOx_abs="284.827767" fuel_abs="279.367908" electricity_abs="0"/>
    </tripinfo>