<?xml version="1.0" encoding="UTF-8"?>

<!-- generated on 2021-10-26 21:10:48 by Eclipse SUMO sumo Version 1.10.0
<configuration xmlns:xsi="http://www.w3.org/2001/XMLSchema-instance" xsi:noNamespaceSchemaLocation="http://sumo.dlr.de/xsd/sumoConfiguration.xsd">

    <input>
        <net-file value="/Users/behradkoohy/sumo-scratchpad/RESCO/environments/ingolstadt21/ingolstadt21.net.xml"/>
        <route-files value="/Users/behradkoohy/sumo-scratchpad/RESCO/environments/ingolstadt21/ingolstadt21.rou.xml"/>
    </input>

    <output>
        <tripinfo-output value="/Users/behradkoohy/sumo-scratchpad/RESCO/logs/MPLight-tr0-ingolstadt21-21-mplight_full-pressure/tripinfo_37.xml"/>
        <tripinfo-output.write-unfinished value="true"/>
    </output>

    <time>
        <begin value="57600"/>
        <end value="61200"/>
    </time>

    <processing>
        <time-to-teleport value="-1"/>
    </processing>

    <report>
        <no-warnings value="true"/>
        <no-step-log value="true"/>
    </report>

    <emissions>
        <device.emissions.probability value="1"/>
    </emissions>

    <traci_server>
        <remote-port value="64812"/>
    </traci_server>

    <random_number>
        <random value="true"/>
    </random_number>

</configuration>
-->

<tripinfos xmlns:xsi="http://www.w3.org/2001/XMLSchema-instance" xsi:noNamespaceSchemaLocation="http://sumo.dlr.de/xsd/tripinfo_file.xsd">
    <tripinfo id="h15454c2:3" depart="57612.00" departLane="24608844_1" departPos="5.10" departSpeed="0.00" departDelay="0.50" arrival="57655.00" arrivalLane="32978638#0_1" arrivalPos="49.29" arrivalSpeed="12.05" duration="43.00" routeLength="354.79" waitingTime="0.00" waitingCount="0" stopTime="0.00" timeLoss="5.11" rerouteNo="1" devices="tripinfo_h15454c2:3 routing_h15454c2:3 emissions_h15454c2:3" vType="default_016" speedFactor="0.90" vaporized="">
        <emissions CO_abs="1768.295996" CO2_abs="89491.389704" HC_abs="10.115356" PMx_abs="1.456587" NOx_abs="36.121070" fuel_abs="38.469011" electricity_abs="0"/>
    </tripinfo>
    <tripinfo id="carIn60260:1" depart="57606.00" departLane="315358254#0_1" departPos="5.10" departSpeed="0.00" departDelay="0.90" arrival="57697.00" arrivalLane="399835085#1_1" arrivalPos="212.23" arrivalSpeed="4.54" duration="91.00" routeLength="430.98" waitingTime="30.00" waitingCount="1" stopTime="0.00" timeLoss="41.95" rerouteNo="1" devices="tripinfo_carIn60260:1 routing_carIn60260:1 emissions_carIn60260:1" vType="default_016" speedFactor="0.93" vaporized="">
        <emissions CO_abs="6696.911666" CO2_abs="184535.227607" HC_abs="34.783888" PMx_abs="3.675787" NOx_abs="78.941540" fuel_abs="79.326384" electricity_abs="0"/>
    </tripinfo>
    <tripinfo id="carIn53971:1" depart="57640.00" departLane="272042143_1" departPos="5.10" departSpeed="0.00" departDelay="0.80" arrival="57699.00" arrivalLane="24634414#1_1" arrivalPos="162.19" arrivalSpeed="7.05" duration="59.00" routeLength="493.04" waitingTime="0.00" waitingCount="0" stopTime="0.00" timeLoss="8.22" rerouteNo="1" devices="tripinfo_carIn53971:1 routing_carIn53971:1 emissions_carIn53971:1" vType="default_016" speedFactor="0.91" vaporized="">
        <emissions CO_abs="2519.069073" CO2_abs="129674.056767" HC_abs="14.485613" PMx_abs="2.234807" NOx_abs="53.153656" fuel_abs="55.741813" electricity_abs="0"/>
    </tripinfo>
    <tripinfo id="h3688c1:1" depart="57625.00" departLane="201201950#1_1" departPos="5.10" departSpeed="0.00" departDelay="0.00" arrival="57724.00" arrivalLane="32978638#0_1" arrivalPos="49.29" arrivalSpeed="14.54" duration="99.00" routeLength="1089.75" waitingTime="7.00" waitingCount="1" stopTime="0.00" timeLoss="23.16" rerouteNo="1" devices="tripinfo_h3688c1:1 routing_h3688c1:1 emissions_h3688c1:1" vType="default_016" speedFactor="1.05" vaporized="">
        <emissions CO_abs="4104.179996" CO2_abs="270081.797270" HC_abs="24.938406" PMx_abs="4.733471" NOx_abs="109.214522" fuel_abs="116.096708" electricity_abs="0"/>
    </tripinfo>
    <tripinfo id="h3568c1:3" depart="57656.00" departLane="266565295#5_1" departPos="5.10" departSpeed="0.00" departDelay="0.80" arrival="57733.00" arrivalLane="-24634415_1" arrivalPos="62.03" arrivalSpeed="13.80" duration="77.00" routeLength="807.40" waitingTime="0.00" waitingCount="0" stopTime="0.00" timeLoss="14.61" rerouteNo="1" devices="tripinfo_h3568c1:3 routing_h3568c1:3 emissions_h3568c1:3" vType="default_016" speedFactor="1.04" vaporized="">
        <emissions CO_abs="3621.645723" CO2_abs="240040.385057" HC_abs="22.139760" PMx_abs="4.282254" NOx_abs="98.250137" fuel_abs="103.182986" electricity_abs="0"/>
    </tripinfo>
    <tripinfo id="carIn30817:1" depart="57681.00" departLane="315358244_1" departPos="5.10" departSpeed="0.00" departDelay="0.20" arrival="57741.00" arrivalLane="447569997#1_1" arrivalPos="180.93" arrivalSpeed="9.22" duration="60.00" routeLength="718.04" waitingTime="0.00" waitingCount="0" stopTime="0.00" timeLoss="10.54" rerouteNo="1" devices="tripinfo_carIn30817:1 routing_carIn30817:1 emissions_carIn30817:1" vType="default_016" speedFactor="1.25" vaporized="">
        <emissions CO_abs="2377.264938" CO2_abs="171090.682855" HC_abs="14.800951" PMx_abs="2.931472" NOx_abs="68.651342" fuel_abs="73.544553" electricity_abs="0"/>
    </tripinfo>
    <tripinfo id="h4538c1:1" depart="57701.00" departLane="-10427692#1_1" departPos="5.10" departSpeed="0.00" departDelay="0.00" arrival="57741.00" arrivalLane="-128361102#1_1" arrivalPos="274.68" arrivalSpeed="12.59" duration="40.00" routeLength="440.74" waitingTime="0.00" waitingCount="0" stopTime="0.00" timeLoss="6.20" rerouteNo="1" devices="tripinfo_h4538c1:1 routing_h4538c1:1 emissions_h4538c1:1" vType="default_016" speedFactor="0.95" vaporized="">
        <emissions CO_abs="1527.765597" CO2_abs="113690.640856" HC_abs="9.598619" PMx_abs="1.789539" NOx_abs="44.811922" fuel_abs="48.870916" electricity_abs="0"/>
    </tripinfo>
    <tripinfo id="h5979c1:5" depart="57669.00" departLane="399835085#1_1" departPos="5.10" departSpeed="0.00" departDelay="0.00" arrival="57754.00" arrivalLane="-315358254#1_1" arrivalPos="137.16" arrivalSpeed="13.28" duration="85.00" routeLength="659.33" waitingTime="0.00" waitingCount="0" stopTime="0.00" timeLoss="14.34" rerouteNo="1" devices="tripinfo_h5979c1:5 routing_h5979c1:5 emissions_h5979c1:5" vType="default_016" speedFactor="1.04" vaporized="">
        <emissions CO_abs="3737.563926" CO2_abs="192147.298282" HC_abs="21.463185" PMx_abs="3.197778" NOx_abs="78.113977" fuel_abs="82.596789" electricity_abs="0"/>
    </tripinfo>
    <tripinfo id="h7800c1:5" depart="57696.00" departLane="-447569998#1_1" departPos="5.10" departSpeed="0.00" departDelay="0.00" arrival="57755.00" arrivalLane="-447569998#1_2" arrivalPos="180.76" arrivalSpeed="3.61" duration="59.00" routeLength="175.66" waitingTime="29.00" waitingCount="1" stopTime="0.00" timeLoss="36.71" rerouteNo="1" devices="tripinfo_h7800c1:5 routing_h7800c1:5 emissions_h7800c1:5" vType="default_016" speedFactor="0.95" vaporized="">
        <emissions CO_abs="5268.471454" CO2_abs="113208.088705" HC_abs="26.627794" PMx_abs="2.470400" NOx_abs="49.804993" fuel_abs="48.665565" electricity_abs="0"/>
    </tripinfo>
    <tripinfo id="h317c2:1" depart="57707.00" departLane="-32978638#0_1" departPos="5.10" departSpeed="0.00" departDelay="0.10" arrival="57755.00" arrivalLane="-266565295#5_1" arrivalPos="172.76" arrivalSpeed="13.22" duration="48.00" routeLength="370.53" waitingTime="12.00" waitingCount="1" stopTime="0.00" timeLoss="21.31" rerouteNo="1" devices="tripinfo_h317c2:1 routing_h317c2:1 emissions_h317c2:1" vType="default_016" speedFactor="1.02" vaporized="">
        <emissions CO_abs="3376.088847" CO2_abs="134410.528849" HC_abs="18.548373" PMx_abs="2.672655" NOx_abs="57.074492" fuel_abs="57.777982" electricity_abs="0"/>
    </tripinfo>
    <tripinfo id="h3326c1:2" depart="57656.00" departLane="22716069#0_1" departPos="5.10" departSpeed="0.00" departDelay="0.00" arrival="57758.00" arrivalLane="24634517#13_1" arrivalPos="111.62" arrivalSpeed="15.82" duration="102.00" routeLength="1312.81" waitingTime="0.00" waitingCount="0" stopTime="0.00" timeLoss="16.56" rerouteNo="1" devices="tripinfo_h3326c1:2 routing_h3326c1:2 emissions_h3326c1:2" vType="default_016" speedFactor="1.14" vaporized="">
        <emissions CO_abs="4212.016405" CO2_abs="336594.333913" HC_abs="26.936454" PMx_abs="5.859608" NOx_abs="135.022674" fuel_abs="144.686988" electricity_abs="0"/>
    </tripinfo>
    <tripinfo id="carIn121703:1" depart="57647.00" departLane="386687232#0_1" departPos="5.10" departSpeed="0.00" departDelay="0.30" arrival="57764.00" arrivalLane="-315358244_1" arrivalPos="33.95" arrivalSpeed="12.22" duration="117.00" routeLength="1157.39" waitingTime="11.00" waitingCount="2" stopTime="0.00" timeLoss="29.78" rerouteNo="1" devices="tripinfo_carIn121703:1 routing_carIn121703:1 emissions_carIn121703:1" vType="default_016" speedFactor="0.97" vaporized="">
        <emissions CO_abs="4175.854807" CO2_abs="258715.722161" HC_abs="25.040237" PMx_abs="4.300159" NOx_abs="103.373305" fuel_abs="111.211471" electricity_abs="0"/>
    </tripinfo>
    <tripinfo id="h3154c1:1" depart="57658.00" departLane="24634507_1" departPos="5.10" departSpeed="0.00" departDelay="0.00" arrival="57776.00" arrivalLane="-266565295#5_1" arrivalPos="172.76" arrivalSpeed="14.50" duration="118.00" routeLength="1206.22" waitingTime="21.00" waitingCount="1" stopTime="0.00" timeLoss="36.50" rerouteNo="1" devices="tripinfo_h3154c1:1 routing_h3154c1:1 emissions_h3154c1:1" vType="default_016" speedFactor="1.10" vaporized="">
        <emissions CO_abs="6489.738201" CO2_abs="335758.811280" HC_abs="37.307564" PMx_abs="6.142048" NOx_abs="137.136797" fuel_abs="144.329290" electricity_abs="0"/>
    </tripinfo>
    <tripinfo id="h645c1:1" depart="57622.00" departLane="266565295#5_1" departPos="5.10" departSpeed="0.00" departDelay="0.40" arrival="57777.00" arrivalLane="-315358244_1" arrivalPos="33.95" arrivalSpeed="13.44" duration="155.00" routeLength="1910.83" waitingTime="2.00" waitingCount="1" stopTime="0.00" timeLoss="20.17" rerouteNo="1" devices="tripinfo_h645c1:1 routing_h645c1:1 emissions_h645c1:1" vType="default_016" speedFactor="1.03" vaporized="">
        <emissions CO_abs="4223.258075" CO2_abs="379045.153514" HC_abs="27.979386" PMx_abs="5.983251" NOx_abs="147.859519" fuel_abs="162.935253" electricity_abs="0"/>
    </tripinfo>
    <tripinfo id="h9563c2:5" depart="57631.00" departLane="315358244_1" departPos="5.10" departSpeed="0.00" departDelay="0.70" arrival="57783.00" arrivalLane="386687235_1" arrivalPos="80.84" arrivalSpeed="15.58" duration="152.00" routeLength="1186.14" waitingTime="52.00" waitingCount="3" stopTime="0.00" timeLoss="80.04" rerouteNo="1" devices="tripinfo_h9563c2:5 routing_h9563c2:5 emissions_h9563c2:5" vType="default_016" speedFactor="1.20" vaporized="">
        <emissions CO_abs="10323.123892" CO2_abs="386986.835784" HC_abs="56.034702" PMx_abs="7.592460" NOx_abs="161.910570" fuel_abs="166.351779" electricity_abs="0"/>
    </tripinfo>
    <tripinfo id="h330c1:1" depart="57736.00" departLane="-32978638#0_1" departPos="5.10" departSpeed="0.00" departDelay="0.20" arrival="57784.00" arrivalLane="-266565295#5_1" arrivalPos="172.76" arrivalSpeed="13.55" duration="48.00" routeLength="370.53" waitingTime="12.00" waitingCount="1" stopTime="0.00" timeLoss="21.49" rerouteNo="1" devices="tripinfo_h330c1:1 routing_h330c1:1 emissions_h330c1:1" vType="default_016" speedFactor="1.03" vaporized="">
        <emissions CO_abs="2923.050291" CO2_abs="131408.757900" HC_abs="16.384251" PMx_abs="2.482832" NOx_abs="54.760502" fuel_abs="56.487527" electricity_abs="0"/>
    </tripinfo>
    <tripinfo id="h12244c1:3" depart="57612.00" departLane="315358244_1" departPos="5.10" departSpeed="0.00" departDelay="0.40" arrival="57786.00" arrivalLane="386687235_1" arrivalPos="80.84" arrivalSpeed="12.69" duration="174.00" routeLength="1186.14" waitingTime="60.00" waitingCount="2" stopTime="0.00" timeLoss="82.84" rerouteNo="1" devices="tripinfo_h12244c1:3 routing_h12244c1:3 emissions_h12244c1:3" vType="default_016" speedFactor="0.95" vaporized="">
        <emissions CO_abs="13024.481962" CO2_abs="419508.533469" HC_abs="69.098486" PMx_abs="8.048380" NOx_abs="175.340454" fuel_abs="180.333456" electricity_abs="0"/>
    </tripinfo>
    <tripinfo id="carIn107282:1" depart="57749.00" departLane="-447569998#1_1" departPos="5.10" departSpeed="0.00" departDelay="0.00" arrival="57792.00" arrivalLane="315358242#0_1" arrivalPos="165.37" arrivalSpeed="13.96" duration="43.00" routeLength="448.50" waitingTime="0.00" waitingCount="0" stopTime="0.00" timeLoss="5.15" rerouteNo="1" devices="tripinfo_carIn107282:1 routing_carIn107282:1 emissions_carIn107282:1" vType="default_016" speedFactor="1.10" vaporized="">
        <emissions CO_abs="1727.364521" CO2_abs="109519.902612" HC_abs="10.409488" PMx_abs="1.832117" NOx_abs="43.975692" fuel_abs="47.078127" electricity_abs="0"/>
    </tripinfo>
    <tripinfo id="carIn22761:1" depart="57616.00" departLane="-306240162#1_0" departPos="5.10" departSpeed="0.00" departDelay="2.10" arrival="57809.00" arrivalLane="399835085#1_1" arrivalPos="212.23" arrivalSpeed="6.42" duration="193.00" routeLength="1093.26" waitingTime="82.00" waitingCount="2" stopTime="0.00" timeLoss="105.52" rerouteNo="1" devices="tripinfo_carIn22761:1 routing_carIn22761:1 emissions_carIn22761:1" vType="default_016" speedFactor="0.89" vaporized="">
        <emissions CO_abs="16876.383711" CO2_abs="487992.334989" HC_abs="88.191415" PMx_abs="10.119646" NOx_abs="208.617104" fuel_abs="209.772795" electricity_abs="0"/>
    </tripinfo>
    <tripinfo id="carIn129809:1" depart="57729.00" departLane="-447569998#1_1" departPos="5.10" departSpeed="0.00" departDelay="1.00" arrival="57813.00" arrivalLane="-315358244_1" arrivalPos="33.95" arrivalSpeed="14.77" duration="84.00" routeLength="706.49" waitingTime="8.00" waitingCount="1" stopTime="0.00" timeLoss="30.52" rerouteNo="1" devices="tripinfo_carIn129809:1 routing_carIn129809:1 emissions_carIn129809:1" vType="default_015" speedFactor="1.13" vaporized="">
        <emissions CO_abs="4422.467060" CO2_abs="221082.540546" HC_abs="25.323454" PMx_abs="4.099616" NOx_abs="91.505588" fuel_abs="95.034517" electricity_abs="0"/>
    </tripinfo>
    <tripinfo id="carIn12858:1" depart="57661.00" departLane="128361109#1_1" departPos="5.10" departSpeed="0.00" departDelay="0.90" arrival="57819.00" arrivalLane="399835085#1_1" arrivalPos="212.23" arrivalSpeed="6.53" duration="158.00" routeLength="1738.12" waitingTime="9.00" waitingCount="1" stopTime="0.00" timeLoss="35.03" rerouteNo="1" devices="tripinfo_carIn12858:1 routing_carIn12858:1 emissions_carIn12858:1" vType="default_016" speedFactor="0.94" vaporized="">
        <emissions CO_abs="7612.181437" CO2_abs="467022.012348" HC_abs="45.755030" PMx_abs="8.743916" NOx_abs="191.861070" fuel_abs="200.752636" electricity_abs="0"/>
    </tripinfo>
    <tripinfo id="h11737c1:1" depart="57665.00" departLane="272042143_1" departPos="5.10" departSpeed="0.00" departDelay="1.50" arrival="57822.00" arrivalLane="-315358254#1_1" arrivalPos="137.16" arrivalSpeed="11.14" duration="157.00" routeLength="1596.88" waitingTime="6.00" waitingCount="1" stopTime="0.00" timeLoss="21.30" rerouteNo="1" devices="tripinfo_h11737c1:1 routing_h11737c1:1 emissions_h11737c1:1" vType="default_016" speedFactor="0.86" vaporized="">
        <emissions CO_abs="4694.587899" CO2_abs="336908.854445" HC_abs="29.159160" PMx_abs="5.118940" NOx_abs="132.007011" fuel_abs="144.823599" electricity_abs="0"/>
    </tripinfo>
    <tripinfo id="carIn12365:1" depart="57713.00" departLane="315358244_1" departPos="5.10" departSpeed="0.00" departDelay="0.50" arrival="57825.00" arrivalLane="447569997#1_1" arrivalPos="180.93" arrivalSpeed="8.00" duration="112.00" routeLength="718.04" waitingTime="33.00" waitingCount="2" stopTime="0.00" timeLoss="52.91" rerouteNo="1" devices="tripinfo_carIn12365:1 routing_carIn12365:1 emissions_carIn12365:1" vType="default_016" speedFactor="1.05" vaporized="">
        <emissions CO_abs="8181.334303" CO2_abs="268427.577991" HC_abs="43.502363" PMx_abs="5.220002" NOx_abs="113.153170" fuel_abs="115.388234" electricity_abs="0"/>
    </tripinfo>
    <tripinfo id="carIn27009:1" depart="57673.00" departLane="-447569998#1_1" departPos="5.10" departSpeed="0.00" departDelay="0.50" arrival="57828.00" arrivalLane="-26677539_1" arrivalPos="152.75" arrivalSpeed="6.61" duration="155.00" routeLength="699.63" waitingTime="51.00" waitingCount="1" stopTime="0.00" timeLoss="65.81" rerouteNo="1" devices="tripinfo_carIn27009:1 routing_carIn27009:1 emissions_carIn27009:1" vType="default_015" speedFactor="0.95" vaporized="">
        <emissions CO_abs="12013.512700" CO2_abs="313694.377353" HC_abs="61.967109" PMx_abs="6.217656" NOx_abs="134.193204" fuel_abs="134.848750" electricity_abs="0"/>
    </tripinfo>
    <tripinfo id="carIn126288:1" depart="57674.00" departLane="272042143_1" departPos="5.10" departSpeed="0.00" departDelay="0.00" arrival="57830.00" arrivalLane="-315358254#1_1" arrivalPos="137.16" arrivalSpeed="11.17" duration="156.00" routeLength="1596.88" waitingTime="0.00" waitingCount="0" stopTime="0.00" timeLoss="15.28" rerouteNo="1" devices="tripinfo_carIn126288:1 routing_carIn126288:1 emissions_carIn126288:1" vType="default_016" speedFactor="0.83" vaporized="">
        <emissions CO_abs="4483.551602" CO2_abs="325884.638048" HC_abs="27.921524" PMx_abs="4.854634" NOx_abs="127.400243" fuel_abs="140.084794" electricity_abs="0"/>
    </tripinfo>
    <tripinfo id="carIn82278:1" depart="57702.00" departLane="-306240162#1_0" departPos="5.10" departSpeed="0.00" departDelay="0.70" arrival="57838.00" arrivalLane="399835085#1_1" arrivalPos="212.23" arrivalSpeed="7.40" duration="136.00" routeLength="1093.26" waitingTime="27.00" waitingCount="2" stopTime="0.00" timeLoss="49.06" rerouteNo="1" devices="tripinfo_carIn82278:1 routing_carIn82278:1 emissions_carIn82278:1" vType="default_016" speedFactor="0.90" vaporized="">
        <emissions CO_abs="8345.291706" CO2_abs="360519.506921" HC_abs="46.486671" PMx_abs="7.021257" NOx_abs="151.148387" fuel_abs="154.973357" electricity_abs="0"/>
    </tripinfo>
    <tripinfo id="randUni15030:1" depart="57735.00" departLane="386687232#0_1" departPos="5.10" departSpeed="0.00" departDelay="0.10" arrival="57839.00" arrivalLane="26677539_1" arrivalPos="151.98" arrivalSpeed="8.31" duration="104.00" routeLength="919.89" waitingTime="8.00" waitingCount="2" stopTime="0.00" timeLoss="26.60" rerouteNo="1" devices="tripinfo_randUni15030:1 routing_randUni15030:1 emissions_randUni15030:1" vType="random_016" speedFactor="1.08" vaporized="">
        <emissions CO_abs="4669.305900" CO2_abs="256214.771128" HC_abs="27.209700" PMx_abs="4.438522" NOx_abs="104.279560" fuel_abs="110.136512" electricity_abs="0"/>
    </tripinfo>
    <tripinfo id="carIn73855:1" depart="57743.00" departLane="386687232#0_1" departPos="5.10" departSpeed="0.00" departDelay="0.50" arrival="57842.00" arrivalLane="-315358244_2" arrivalPos="33.95" arrivalSpeed="14.21" duration="99.00" routeLength="1157.39" waitingTime="0.00" waitingCount="0" stopTime="0.00" timeLoss="19.05" rerouteNo="1" devices="tripinfo_carIn73855:1 routing_carIn73855:1 emissions_carIn73855:1" vType="default_016" speedFactor="1.05" vaporized="">
        <emissions CO_abs="3668.777728" CO2_abs="265029.086356" HC_abs="22.850547" PMx_abs="4.540257" NOx_abs="106.431753" fuel_abs="113.924625" electricity_abs="0"/>
    </tripinfo>
    <tripinfo id="carIn126378:1" depart="57746.00" departLane="386687232#0_1" departPos="5.10" departSpeed="0.00" departDelay="1.80" arrival="57843.00" arrivalLane="-315358244_1" arrivalPos="33.95" arrivalSpeed="16.71" duration="97.00" routeLength="1157.39" waitingTime="6.00" waitingCount="1" stopTime="0.00" timeLoss="28.38" rerouteNo="1" devices="tripinfo_carIn126378:1 routing_carIn126378:1 emissions_carIn126378:1" vType="default_016" speedFactor="1.23" vaporized="">
        <emissions CO_abs="4250.986712" CO2_abs="286242.700111" HC_abs="26.080475" PMx_abs="5.346785" NOx_abs="117.395289" fuel_abs="123.043061" electricity_abs="0"/>
    </tripinfo>
    <tripinfo id="randUni31145:1" depart="57814.00" departLane="10425609#0_1" departPos="5.10" departSpeed="0.00" departDelay="0.30" arrival="57843.00" arrivalLane="201956810_1" arrivalPos="71.65" arrivalSpeed="14.44" duration="29.00" routeLength="255.78" waitingTime="1.00" waitingCount="1" stopTime="0.00" timeLoss="10.46" rerouteNo="1" devices="tripinfo_randUni31145:1 routing_randUni31145:1 emissions_randUni31145:1" vType="random_016" speedFactor="1.05" vaporized="">
        <emissions CO_abs="2107.567405" CO2_abs="114906.831087" HC_abs="12.290739" PMx_abs="2.186481" NOx_abs="48.196503" fuel_abs="49.393558" electricity_abs="0"/>
    </tripinfo>
    <tripinfo id="h17600c1:1" depart="57662.00" departLane="272042143_1" departPos="5.10" departSpeed="0.00" departDelay="0.30" arrival="57845.00" arrivalLane="201238729#3_1" arrivalPos="431.02" arrivalSpeed="12.45" duration="183.00" routeLength="2100.26" waitingTime="1.00" waitingCount="1" stopTime="0.00" timeLoss="19.22" rerouteNo="1" devices="tripinfo_h17600c1:1 routing_h17600c1:1 emissions_h17600c1:1" vType="default_016" speedFactor="0.93" vaporized="">
        <emissions CO_abs="4677.857017" CO2_abs="396540.912982" HC_abs="30.511042" PMx_abs="6.074226" NOx_abs="154.685809" fuel_abs="170.456333" electricity_abs="0"/>
    </tripinfo>
    <tripinfo id="carIn8642:1" depart="57774.00" departLane="-447569998#1_1" departPos="5.10" departSpeed="0.00" departDelay="0.90" arrival="57845.00" arrivalLane="-315358244_1" arrivalPos="33.95" arrivalSpeed="14.61" duration="71.00" routeLength="706.49" waitingTime="5.00" waitingCount="1" stopTime="0.00" timeLoss="16.18" rerouteNo="1" devices="tripinfo_carIn8642:1 routing_carIn8642:1 emissions_carIn8642:1" vType="default_016" speedFactor="1.11" vaporized="">
        <emissions CO_abs="2512.388607" CO2_abs="157666.163617" HC_abs="15.121474" PMx_abs="2.688015" NOx_abs="63.478902" fuel_abs="67.774199" electricity_abs="0"/>
    </tripinfo>
    <tripinfo id="randUni2407:1" depart="57820.00" departLane="10425609#0_1" departPos="5.10" departSpeed="0.00" departDelay="0.80" arrival="57848.00" arrivalLane="201956810_1" arrivalPos="71.65" arrivalSpeed="12.49" duration="28.00" routeLength="255.78" waitingTime="0.00" waitingCount="0" stopTime="0.00" timeLoss="5.98" rerouteNo="1" devices="tripinfo_randUni2407:1 routing_randUni2407:1 emissions_randUni2407:1" vType="random_016" speedFactor="0.93" vaporized="">
        <emissions CO_abs="1614.055588" CO2_abs="90018.032371" HC_abs="9.466273" PMx_abs="1.643821" NOx_abs="37.382147" fuel_abs="38.694992" electricity_abs="0"/>
    </tripinfo>
    <tripinfo id="carIn12152:1" depart="57647.00" departLane="24599188#0.94_1" departPos="5.10" departSpeed="0.00" departDelay="0.50" arrival="57849.00" arrivalLane="-315358254#1_1" arrivalPos="137.16" arrivalSpeed="10.91" duration="202.00" routeLength="2034.31" waitingTime="0.00" waitingCount="0" stopTime="0.00" timeLoss="18.54" rerouteNo="1" devices="tripinfo_carIn12152:1 routing_carIn12152:1 emissions_carIn12152:1" vType="default_016" speedFactor="0.86" vaporized="">
        <emissions CO_abs="5537.210994" CO2_abs="385937.766064" HC_abs="34.102232" PMx_abs="5.773848" NOx_abs="150.906930" fuel_abs="165.899407" electricity_abs="0"/>
    </tripinfo>
    <tripinfo id="h16072c2:3" depart="57663.00" departLane="315358254#0_1" departPos="5.10" departSpeed="0.00" departDelay="2.50" arrival="57854.00" arrivalLane="386687235_1" arrivalPos="80.84" arrivalSpeed="11.57" duration="191.00" routeLength="1611.92" waitingTime="38.00" waitingCount="2" stopTime="0.00" timeLoss="60.27" rerouteNo="1" devices="tripinfo_h16072c2:3 routing_h16072c2:3 emissions_h16072c2:3" vType="default_016" speedFactor="0.90" vaporized="">
        <emissions CO_abs="8999.812001" CO2_abs="414733.512348" HC_abs="50.581070" PMx_abs="6.904121" NOx_abs="166.220716" fuel_abs="178.279150" electricity_abs="0"/>
    </tripinfo>
    <tripinfo id="carIn80064:1" depart="57603.00" departLane="128361109#1_1" departPos="5.10" departSpeed="0.00" departDelay="0.40" arrival="57862.00" arrivalLane="-315358254#1_1" arrivalPos="137.16" arrivalSpeed="14.35" duration="259.00" routeLength="1587.97" waitingTime="135.00" waitingCount="3" stopTime="0.00" timeLoss="172.71" rerouteNo="1" devices="tripinfo_carIn80064:1 routing_carIn80064:1 emissions_carIn80064:1" vType="default_016" speedFactor="1.05" vaporized="">
        <emissions CO_abs="28509.895239" CO2_abs="815992.009695" HC_abs="149.225249" PMx_abs="17.906759" NOx_abs="353.520578" fuel_abs="350.768661" electricity_abs="0"/>
    </tripinfo>
    <tripinfo id="carIn118591:1" depart="57689.00" departLane="315358244_1" departPos="5.10" departSpeed="0.00" departDelay="0.20" arrival="57866.00" arrivalLane="386687235_1" arrivalPos="80.84" arrivalSpeed="13.26" duration="177.00" routeLength="1186.14" waitingTime="74.00" waitingCount="2" stopTime="0.00" timeLoss="92.16" rerouteNo="1" devices="tripinfo_carIn118591:1 routing_carIn118591:1 emissions_carIn118591:1" vType="default_016" speedFactor="1.02" vaporized="">
        <emissions CO_abs="13726.885552" CO2_abs="424358.883893" HC_abs="72.403848" PMx_abs="8.339378" NOx_abs="178.124865" fuel_abs="182.418686" electricity_abs="0"/>
    </tripinfo>
    <tripinfo id="carIn23683:1" depart="57641.00" departLane="-306240162#1_0" departPos="5.10" departSpeed="0.00" departDelay="0.20" arrival="57880.00" arrivalLane="201956820_2" arrivalPos="48.33" arrivalSpeed="13.46" duration="239.00" routeLength="2993.47" waitingTime="16.00" waitingCount="1" stopTime="0.00" timeLoss="47.14" rerouteNo="1" devices="tripinfo_carIn23683:1 routing_carIn23683:1 emissions_carIn23683:1" vType="default_016" speedFactor="1.04" vaporized="">
        <emissions CO_abs="10173.902588" CO2_abs="693278.992738" HC_abs="62.652460" PMx_abs="12.628063" NOx_abs="281.023345" fuel_abs="298.010469" electricity_abs="0"/>
    </tripinfo>
    <tripinfo id="h3864c1:3" depart="57678.00" departLane="24693977#1_1" departPos="5.10" departSpeed="0.00" departDelay="0.00" arrival="57880.00" arrivalLane="201956820_1" arrivalPos="48.33" arrivalSpeed="15.74" duration="202.00" routeLength="1574.85" waitingTime="52.00" waitingCount="2" stopTime="0.00" timeLoss="89.21" rerouteNo="1" devices="tripinfo_h3864c1:3 routing_h3864c1:3 emissions_h3864c1:3" vType="default_016" speedFactor="1.15" vaporized="">
        <emissions CO_abs="15469.564335" CO2_abs="624736.304370" HC_abs="85.179926" PMx_abs="12.421454" NOx_abs="264.282989" fuel_abs="268.550317" electricity_abs="0"/>
    </tripinfo>
    <tripinfo id="carIn107084:1" depart="57601.00" departLane="124812856#0_1" departPos="5.10" departSpeed="0.00" departDelay="0.70" arrival="57883.00" arrivalLane="-128361102#1_1" arrivalPos="274.68" arrivalSpeed="14.92" duration="282.00" routeLength="2250.49" waitingTime="101.00" waitingCount="2" stopTime="0.00" timeLoss="136.20" rerouteNo="1" devices="tripinfo_carIn107084:1 routing_carIn107084:1 emissions_carIn107084:1" vType="default_016" speedFactor="1.13" vaporized="">
        <emissions CO_abs="23060.720664" CO2_abs="803155.718639" HC_abs="123.794642" PMx_abs="16.230469" NOx_abs="339.555891" fuel_abs="345.248506" electricity_abs="0"/>
    </tripinfo>
    <tripinfo id="h13311c1:3" depart="57635.00" departLane="399835085#1_1" departPos="5.10" departSpeed="0.00" departDelay="0.00" arrival="57884.00" arrivalLane="32978638#0_1" arrivalPos="49.29" arrivalSpeed="14.76" duration="249.00" routeLength="2580.65" waitingTime="29.00" waitingCount="2" stopTime="0.00" timeLoss="58.66" rerouteNo="1" devices="tripinfo_h13311c1:3 routing_h13311c1:3 emissions_h13311c1:3" vType="default_016" speedFactor="1.12" vaporized="">
        <emissions CO_abs="9484.889771" CO2_abs="566238.834858" HC_abs="56.250650" PMx_abs="9.438632" NOx_abs="224.910872" fuel_abs="243.403658" electricity_abs="0"/>
    </tripinfo>
    <tripinfo id="h3536c1:1" depart="57767.00" departLane="-24634413#2_1" departPos="5.10" departSpeed="0.00" departDelay="0.00" arrival="57884.00" arrivalLane="32978638#0_2" arrivalPos="49.29" arrivalSpeed="16.70" duration="117.00" routeLength="957.93" waitingTime="17.00" waitingCount="2" stopTime="0.00" timeLoss="44.12" rerouteNo="1" devices="tripinfo_h3536c1:1 routing_h3536c1:1 emissions_h3536c1:1" vType="default_016" speedFactor="1.24" vaporized="">
        <emissions CO_abs="7230.958370" CO2_abs="368908.446301" HC_abs="41.621894" PMx_abs="7.189520" NOx_abs="155.487612" fuel_abs="158.578224" electricity_abs="0"/>
    </tripinfo>
    <tripinfo id="h13377c2:3" depart="57808.00" departLane="315358244_1" departPos="5.10" departSpeed="0.00" departDelay="4.60" arrival="57885.00" arrivalLane="447569997#1_1" arrivalPos="180.93" arrivalSpeed="7.01" duration="77.00" routeLength="718.04" waitingTime="0.00" waitingCount="0" stopTime="0.00" timeLoss="11.44" rerouteNo="1" devices="tripinfo_h13377c2:3 routing_h13377c2:3 emissions_h13377c2:3" vType="default_016" speedFactor="0.95" vaporized="">
        <emissions CO_abs="2619.331119" CO2_abs="160373.859472" HC_abs="15.624103" PMx_abs="2.470642" NOx_abs="63.210650" fuel_abs="68.938549" electricity_abs="0"/>
    </tripinfo>
    <tripinfo id="h6541c1:3" depart="57727.00" departLane="201950247#3_1" departPos="5.10" departSpeed="0.00" departDelay="0.00" arrival="57887.00" arrivalLane="32978638#0_1" arrivalPos="49.29" arrivalSpeed="11.46" duration="160.00" routeLength="1176.17" waitingTime="17.00" waitingCount="3" stopTime="0.00" timeLoss="44.03" rerouteNo="1" devices="tripinfo_h6541c1:3 routing_h6541c1:3 emissions_h6541c1:3" vType="default_016" speedFactor="0.88" vaporized="">
        <emissions CO_abs="7124.801776" CO2_abs="333447.211922" HC_abs="40.156289" PMx_abs="5.616634" NOx_abs="135.479475" fuel_abs="143.336725" electricity_abs="0"/>
    </tripinfo>