<?xml version="1.0" encoding="UTF-8"?>

<!-- generated on 2021-10-26 20:41:36 by Eclipse SUMO sumo Version 1.10.0
<configuration xmlns:xsi="http://www.w3.org/2001/XMLSchema-instance" xsi:noNamespaceSchemaLocation="http://sumo.dlr.de/xsd/sumoConfiguration.xsd">

    <input>
        <net-file value="/Users/behradkoohy/sumo-scratchpad/RESCO/environments/ingolstadt21/ingolstadt21.net.xml"/>
        <route-files value="/Users/behradkoohy/sumo-scratchpad/RESCO/environments/ingolstadt21/ingolstadt21.rou.xml"/>
    </input>

    <output>
        <tripinfo-output value="/Users/behradkoohy/sumo-scratchpad/RESCO/logs/MPLight-tr0-ingolstadt21-21-mplight_full-pressure/tripinfo_8.xml"/>
        <tripinfo-output.write-unfinished value="true"/>
    </output>

    <time>
        <begin value="57600"/>
        <end value="61200"/>
    </time>

    <processing>
        <time-to-teleport value="-1"/>
    </processing>

    <report>
        <no-warnings value="true"/>
        <no-step-log value="true"/>
    </report>

    <emissions>
        <device.emissions.probability value="1"/>
    </emissions>

    <traci_server>
        <remote-port value="64431"/>
    </traci_server>

    <random_number>
        <random value="true"/>
    </random_number>

</configuration>
-->

<tripinfos xmlns:xsi="http://www.w3.org/2001/XMLSchema-instance" xsi:noNamespaceSchemaLocation="http://sumo.dlr.de/xsd/tripinfo_file.xsd">
    <tripinfo id="h15454c2:3" depart="57612.00" departLane="24608844_1" departPos="5.10" departSpeed="0.00" departDelay="0.50" arrival="57651.00" arrivalLane="32978638#0_1" arrivalPos="49.29" arrivalSpeed="13.54" duration="39.00" routeLength="354.79" waitingTime="0.00" waitingCount="0" stopTime="0.00" timeLoss="6.64" rerouteNo="1" devices="tripinfo_h15454c2:3 routing_h15454c2:3 emissions_h15454c2:3" vType="default_016" speedFactor="1.06" vaporized="">
        <emissions CO_abs="2068.453634" CO2_abs="117101.539864" HC_abs="12.161621" PMx_abs="2.073753" NOx_abs="48.150325" fuel_abs="50.337139" electricity_abs="0"/>
    </tripinfo>
    <tripinfo id="carIn53971:1" depart="57640.00" departLane="272042143_1" departPos="5.10" departSpeed="0.00" departDelay="0.80" arrival="57702.00" arrivalLane="24634414#1_1" arrivalPos="162.19" arrivalSpeed="7.02" duration="62.00" routeLength="493.04" waitingTime="0.00" waitingCount="0" stopTime="0.00" timeLoss="9.41" rerouteNo="1" devices="tripinfo_carIn53971:1 routing_carIn53971:1 emissions_carIn53971:1" vType="default_016" speedFactor="0.87" vaporized="">
        <emissions CO_abs="2580.113047" CO2_abs="123636.100130" HC_abs="14.601422" PMx_abs="2.054492" NOx_abs="50.291762" fuel_abs="53.146590" electricity_abs="0"/>
    </tripinfo>
    <tripinfo id="S5R_frequency1.2" depart="57612.00" departLane="315358250#0_1" departPos="12.10" departSpeed="0.00" departDelay="0.40" arrival="57719.00" arrivalLane="386687235_1" arrivalPos="80.84" arrivalSpeed="13.31" duration="107.00" routeLength="1115.62" waitingTime="8.00" waitingCount="1" stopTime="0.00" timeLoss="25.55" rerouteNo="1" devices="tripinfo_S5R_frequency1.2 routing_S5R_frequency1.2 emissions_S5R_frequency1.2" vType="bus" speedFactor="1.00" vaporized="">
        <emissions CO_abs="2067.394166" CO2_abs="1240626.887647" HC_abs="445.966615" PMx_abs="220.826617" NOx_abs="9766.294177" fuel_abs="529.102435" electricity_abs="0"/>
    </tripinfo>
    <tripinfo id="h3688c1:1" depart="57625.00" departLane="201201950#1_1" departPos="5.10" departSpeed="0.00" departDelay="0.00" arrival="57721.00" arrivalLane="32978638#0_1" arrivalPos="49.29" arrivalSpeed="12.63" duration="96.00" routeLength="1089.75" waitingTime="0.00" waitingCount="0" stopTime="0.00" timeLoss="11.35" rerouteNo="1" devices="tripinfo_h3688c1:1 routing_h3688c1:1 emissions_h3688c1:1" vType="default_016" speedFactor="0.95" vaporized="">
        <emissions CO_abs="3288.216372" CO2_abs="250181.960539" HC_abs="20.816083" PMx_abs="4.077521" NOx_abs="99.493234" fuel_abs="107.542629" electricity_abs="0"/>
    </tripinfo>
    <tripinfo id="h7800c1:5" depart="57696.00" departLane="-447569998#1_1" departPos="5.10" departSpeed="0.00" departDelay="0.00" arrival="57721.00" arrivalLane="-447569998#1_1" arrivalPos="180.76" arrivalSpeed="7.79" duration="25.00" routeLength="175.66" waitingTime="0.00" waitingCount="0" stopTime="0.00" timeLoss="2.91" rerouteNo="1" devices="tripinfo_h7800c1:5 routing_h7800c1:5 emissions_h7800c1:5" vType="default_016" speedFactor="0.97" vaporized="">
        <emissions CO_abs="1180.622236" CO2_abs="50851.836021" HC_abs="6.540268" PMx_abs="0.824761" NOx_abs="20.655469" fuel_abs="21.859447" electricity_abs="0"/>
    </tripinfo>
    <tripinfo id="carIn60260:1" depart="57606.00" departLane="315358254#0_1" departPos="5.10" departSpeed="0.00" departDelay="0.90" arrival="57729.00" arrivalLane="399835085#1_1" arrivalPos="212.23" arrivalSpeed="7.23" duration="123.00" routeLength="430.98" waitingTime="58.00" waitingCount="1" stopTime="0.00" timeLoss="70.36" rerouteNo="1" devices="tripinfo_carIn60260:1 routing_carIn60260:1 emissions_carIn60260:1" vType="default_016" speedFactor="0.88" vaporized="">
        <emissions CO_abs="12113.886428" CO2_abs="276446.710167" HC_abs="61.569556" PMx_abs="5.733282" NOx_abs="119.529954" fuel_abs="118.837940" electricity_abs="0"/>
    </tripinfo>
    <tripinfo id="h4538c1:1" depart="57701.00" departLane="-10427692#1_1" departPos="5.10" departSpeed="0.00" departDelay="0.00" arrival="57743.00" arrivalLane="-128361102#1_1" arrivalPos="274.68" arrivalSpeed="14.11" duration="42.00" routeLength="440.74" waitingTime="3.00" waitingCount="1" stopTime="0.00" timeLoss="13.12" rerouteNo="1" devices="tripinfo_h4538c1:1 routing_h4538c1:1 emissions_h4538c1:1" vType="default_016" speedFactor="1.11" vaporized="">
        <emissions CO_abs="1875.892433" CO2_abs="121341.364489" HC_abs="11.279097" PMx_abs="2.123275" NOx_abs="48.989369" fuel_abs="52.159530" electricity_abs="0"/>
    </tripinfo>
    <tripinfo id="h9563c2:5" depart="57631.00" departLane="315358244_1" departPos="5.10" departSpeed="0.00" departDelay="0.70" arrival="57746.00" arrivalLane="386687235_1" arrivalPos="80.84" arrivalSpeed="14.01" duration="115.00" routeLength="1186.14" waitingTime="12.00" waitingCount="2" stopTime="0.00" timeLoss="31.48" rerouteNo="1" devices="tripinfo_h9563c2:5 routing_h9563c2:5 emissions_h9563c2:5" vType="default_016" speedFactor="1.03" vaporized="">
        <emissions CO_abs="4287.169845" CO2_abs="260320.104506" HC_abs="25.526121" PMx_abs="4.475385" NOx_abs="104.833898" fuel_abs="111.900975" electricity_abs="0"/>
    </tripinfo>
    <tripinfo id="h317c2:1" depart="57707.00" departLane="-32978638#0_1" departPos="5.10" departSpeed="0.00" departDelay="0.10" arrival="57746.00" arrivalLane="-266565295#5_1" arrivalPos="172.76" arrivalSpeed="10.23" duration="39.00" routeLength="370.53" waitingTime="0.00" waitingCount="0" stopTime="0.00" timeLoss="5.28" rerouteNo="1" devices="tripinfo_h317c2:1 routing_h317c2:1 emissions_h317c2:1" vType="default_016" speedFactor="0.81" vaporized="">
        <emissions CO_abs="1609.304964" CO2_abs="94803.814682" HC_abs="9.533430" PMx_abs="1.593401" NOx_abs="38.474062" fuel_abs="40.752334" electricity_abs="0"/>
    </tripinfo>
    <tripinfo id="h7181c1:1" depart="57660.00" departLane="315358254#0_1" departPos="5.10" departSpeed="0.00" departDelay="0.10" arrival="57748.00" arrivalLane="306240162#0_0" arrivalPos="220.43" arrivalSpeed="15.49" duration="88.00" routeLength="932.35" waitingTime="14.00" waitingCount="2" stopTime="0.00" timeLoss="36.70" rerouteNo="1" devices="tripinfo_h7181c1:1 routing_h7181c1:1 emissions_h7181c1:1" vType="default_016" speedFactor="1.00" vaporized="">
        <emissions CO_abs="5668.782887" CO2_abs="336465.449650" HC_abs="33.829167" PMx_abs="6.626409" NOx_abs="140.081088" fuel_abs="144.631675" electricity_abs="0"/>
    </tripinfo>
    <tripinfo id="carIn22761:1" depart="57616.00" departLane="-306240162#1_0" departPos="5.10" departSpeed="0.00" departDelay="2.10" arrival="57749.00" arrivalLane="399835085#1_1" arrivalPos="212.23" arrivalSpeed="8.92" duration="133.00" routeLength="1093.26" waitingTime="48.00" waitingCount="1" stopTime="0.00" timeLoss="66.04" rerouteNo="1" devices="tripinfo_carIn22761:1 routing_carIn22761:1 emissions_carIn22761:1" vType="default_016" speedFactor="1.17" vaporized="">
        <emissions CO_abs="12058.902876" CO2_abs="423735.174381" HC_abs="65.026238" PMx_abs="8.905013" NOx_abs="179.293313" fuel_abs="182.148526" electricity_abs="0"/>
    </tripinfo>
    <tripinfo id="carIn27009:1" depart="57673.00" departLane="-447569998#1_1" departPos="5.10" departSpeed="0.00" departDelay="0.50" arrival="57759.00" arrivalLane="-26677539_1" arrivalPos="152.75" arrivalSpeed="8.72" duration="86.00" routeLength="699.63" waitingTime="0.00" waitingCount="0" stopTime="0.00" timeLoss="11.44" rerouteNo="1" devices="tripinfo_carIn27009:1 routing_carIn27009:1 emissions_carIn27009:1" vType="default_015" speedFactor="1.14" vaporized="">
        <emissions CO_abs="3305.505701" CO2_abs="175895.642324" HC_abs="19.079376" PMx_abs="2.702983" NOx_abs="70.111416" fuel_abs="75.611060" electricity_abs="0"/>
    </tripinfo>
    <tripinfo id="h5979c1:5" depart="57669.00" departLane="399835085#1_1" departPos="5.10" departSpeed="0.00" departDelay="0.00" arrival="57762.00" arrivalLane="-315358254#1_1" arrivalPos="137.16" arrivalSpeed="13.82" duration="93.00" routeLength="659.33" waitingTime="8.00" waitingCount="1" stopTime="0.00" timeLoss="21.37" rerouteNo="1" devices="tripinfo_h5979c1:5 routing_h5979c1:5 emissions_h5979c1:5" vType="default_016" speedFactor="1.03" vaporized="">
        <emissions CO_abs="4613.363223" CO2_abs="199530.204426" HC_abs="25.612949" PMx_abs="3.390135" NOx_abs="81.561296" fuel_abs="85.770939" electricity_abs="0"/>
    </tripinfo>
    <tripinfo id="h3568c1:3" depart="57656.00" departLane="266565295#5_1" departPos="5.10" departSpeed="0.00" departDelay="0.80" arrival="57763.00" arrivalLane="-24634415_1" arrivalPos="62.03" arrivalSpeed="15.50" duration="107.00" routeLength="807.40" waitingTime="31.00" waitingCount="1" stopTime="0.00" timeLoss="48.68" rerouteNo="1" devices="tripinfo_h3568c1:3 routing_h3568c1:3 emissions_h3568c1:3" vType="default_016" speedFactor="1.12" vaporized="">
        <emissions CO_abs="8271.235921" CO2_abs="328855.279606" HC_abs="45.348696" PMx_abs="6.489491" NOx_abs="138.638342" fuel_abs="141.362535" electricity_abs="0"/>
    </tripinfo>
    <tripinfo id="h12244c1:3" depart="57612.00" departLane="315358244_1" departPos="5.10" departSpeed="0.00" departDelay="0.40" arrival="57764.00" arrivalLane="386687235_1" arrivalPos="80.84" arrivalSpeed="10.48" duration="152.00" routeLength="1186.14" waitingTime="25.00" waitingCount="3" stopTime="0.00" timeLoss="45.64" rerouteNo="1" devices="tripinfo_h12244c1:3 routing_h12244c1:3 emissions_h12244c1:3" vType="default_016" speedFactor="0.81" vaporized="">
        <emissions CO_abs="7119.327505" CO2_abs="323375.184004" HC_abs="39.906432" PMx_abs="5.497331" NOx_abs="131.397214" fuel_abs="139.007265" electricity_abs="0"/>
    </tripinfo>
    <tripinfo id="carIn80064:1" depart="57603.00" departLane="128361109#1_1" departPos="5.10" departSpeed="0.00" departDelay="0.40" arrival="57767.00" arrivalLane="-315358254#1_1" arrivalPos="137.16" arrivalSpeed="14.17" duration="164.00" routeLength="1587.97" waitingTime="43.00" waitingCount="2" stopTime="0.00" timeLoss="79.54" rerouteNo="1" devices="tripinfo_carIn80064:1 routing_carIn80064:1 emissions_carIn80064:1" vType="default_016" speedFactor="1.06" vaporized="">
        <emissions CO_abs="12798.156805" CO2_abs="589935.424278" HC_abs="72.410001" PMx_abs="12.031239" NOx_abs="247.352372" fuel_abs="253.589176" electricity_abs="0"/>
    </tripinfo>
    <tripinfo id="h330c1:1" depart="57736.00" departLane="-32978638#0_1" departPos="5.10" departSpeed="0.00" departDelay="0.20" arrival="57772.00" arrivalLane="-266565295#5_1" arrivalPos="172.76" arrivalSpeed="12.53" duration="36.00" routeLength="370.53" waitingTime="0.00" waitingCount="0" stopTime="0.00" timeLoss="5.88" rerouteNo="1" devices="tripinfo_h330c1:1 routing_h330c1:1 emissions_h330c1:1" vType="default_016" speedFactor="0.92" vaporized="">
        <emissions CO_abs="1812.380772" CO2_abs="107896.364613" HC_abs="10.793070" PMx_abs="1.959206" NOx_abs="44.620006" fuel_abs="46.380065" electricity_abs="0"/>
    </tripinfo>
    <tripinfo id="carIn30817:1" depart="57681.00" departLane="315358244_1" departPos="5.10" departSpeed="0.00" departDelay="0.20" arrival="57778.00" arrivalLane="447569997#1_1" arrivalPos="180.93" arrivalSpeed="8.78" duration="97.00" routeLength="718.04" waitingTime="25.00" waitingCount="1" stopTime="0.00" timeLoss="42.13" rerouteNo="1" devices="tripinfo_carIn30817:1 routing_carIn30817:1 emissions_carIn30817:1" vType="default_016" speedFactor="1.12" vaporized="">
        <emissions CO_abs="6627.871333" CO2_abs="256903.998927" HC_abs="36.173433" PMx_abs="5.006410" NOx_abs="108.030697" fuel_abs="110.433608" electricity_abs="0"/>
    </tripinfo>
    <tripinfo id="carIn107282:1" depart="57749.00" departLane="-447569998#1_1" departPos="5.10" departSpeed="0.00" departDelay="0.00" arrival="57791.00" arrivalLane="315358242#0_1" arrivalPos="165.37" arrivalSpeed="14.91" duration="42.00" routeLength="448.50" waitingTime="0.00" waitingCount="0" stopTime="0.00" timeLoss="4.68" rerouteNo="1" devices="tripinfo_carIn107282:1 routing_carIn107282:1 emissions_carIn107282:1" vType="default_016" speedFactor="1.14" vaporized="">
        <emissions CO_abs="1678.935173" CO2_abs="112798.769327" HC_abs="10.224774" PMx_abs="1.815186" NOx_abs="44.679793" fuel_abs="48.487612" electricity_abs="0"/>
    </tripinfo>
    <tripinfo id="h3154c1:1" depart="57658.00" departLane="24634507_1" departPos="5.10" departSpeed="0.00" departDelay="0.00" arrival="57797.00" arrivalLane="-266565295#5_1" arrivalPos="172.76" arrivalSpeed="12.84" duration="139.00" routeLength="1206.22" waitingTime="29.00" waitingCount="1" stopTime="0.00" timeLoss="46.76" rerouteNo="1" devices="tripinfo_h3154c1:1 routing_h3154c1:1 emissions_h3154c1:1" vType="default_016" speedFactor="0.96" vaporized="">
        <emissions CO_abs="7934.254605" CO2_abs="359296.916851" HC_abs="44.527628" PMx_abs="6.436531" NOx_abs="147.062594" fuel_abs="154.448344" electricity_abs="0"/>
    </tripinfo>
    <tripinfo id="carIn129809:1" depart="57729.00" departLane="-447569998#1_1" departPos="5.10" departSpeed="0.00" departDelay="1.00" arrival="57806.00" arrivalLane="-315358244_1" arrivalPos="33.95" arrivalSpeed="13.88" duration="77.00" routeLength="706.49" waitingTime="7.00" waitingCount="1" stopTime="0.00" timeLoss="19.32" rerouteNo="1" devices="tripinfo_carIn129809:1 routing_carIn129809:1 emissions_carIn129809:1" vType="default_015" speedFactor="1.05" vaporized="">
        <emissions CO_abs="2663.312054" CO2_abs="165927.247979" HC_abs="15.946454" PMx_abs="2.716527" NOx_abs="66.093654" fuel_abs="71.325479" electricity_abs="0"/>
    </tripinfo>
    <tripinfo id="h3326c1:2" depart="57656.00" departLane="22716069#0_1" departPos="5.10" departSpeed="0.00" departDelay="0.00" arrival="57817.00" arrivalLane="24634517#13_1" arrivalPos="111.62" arrivalSpeed="9.40" duration="161.00" routeLength="1312.81" waitingTime="0.00" waitingCount="0" stopTime="0.00" timeLoss="17.24" rerouteNo="1" devices="tripinfo_h3326c1:2 routing_h3326c1:2 emissions_h3326c1:2" vType="default_016" speedFactor="0.68" vaporized="">
        <emissions CO_abs="5296.481450" CO2_abs="282932.144740" HC_abs="30.584739" PMx_abs="4.284489" NOx_abs="112.362444" fuel_abs="121.622191" electricity_abs="0"/>
    </tripinfo>
    <tripinfo id="h17600c1:1" depart="57662.00" departLane="272042143_1" departPos="5.10" departSpeed="0.00" departDelay="0.30" arrival="57817.00" arrivalLane="201238729#3_1" arrivalPos="431.02" arrivalSpeed="14.40" duration="155.00" routeLength="2100.26" waitingTime="0.00" waitingCount="0" stopTime="0.00" timeLoss="12.03" rerouteNo="1" devices="tripinfo_h17600c1:1 routing_h17600c1:1 emissions_h17600c1:1" vType="default_016" speedFactor="1.06" vaporized="">
        <emissions CO_abs="3652.779976" CO2_abs="391343.567265" HC_abs="25.591661" PMx_abs="5.923639" NOx_abs="149.881347" fuel_abs="168.221702" electricity_abs="0"/>
    </tripinfo>
    <tripinfo id="h11737c1:1" depart="57665.00" departLane="272042143_1" departPos="5.10" departSpeed="0.00" departDelay="1.50" arrival="57817.00" arrivalLane="-315358254#1_1" arrivalPos="137.16" arrivalSpeed="12.89" duration="152.00" routeLength="1596.88" waitingTime="20.00" waitingCount="1" stopTime="0.00" timeLoss="34.40" rerouteNo="1" devices="tripinfo_h11737c1:1 routing_h11737c1:1 emissions_h11737c1:1" vType="default_016" speedFactor="0.99" vaporized="">
        <emissions CO_abs="6548.022533" CO2_abs="370677.692410" HC_abs="38.417598" PMx_abs="6.222123" NOx_abs="147.868692" fuel_abs="159.339863" electricity_abs="0"/>
    </tripinfo>
    <tripinfo id="carIn126288:1" depart="57674.00" departLane="272042143_1" departPos="5.10" departSpeed="0.00" departDelay="0.00" arrival="57819.00" arrivalLane="-315358254#1_1" arrivalPos="137.16" arrivalSpeed="13.64" duration="145.00" routeLength="1596.88" waitingTime="15.00" waitingCount="1" stopTime="0.00" timeLoss="31.08" rerouteNo="1" devices="tripinfo_carIn126288:1 routing_carIn126288:1 emissions_carIn126288:1" vType="default_016" speedFactor="1.02" vaporized="">
        <emissions CO_abs="5400.510518" CO2_abs="348565.496687" HC_abs="32.694593" PMx_abs="5.835667" NOx_abs="138.722360" fuel_abs="149.834091" electricity_abs="0"/>
    </tripinfo>
    <tripinfo id="randUni15030:1" depart="57735.00" departLane="386687232#0_1" departPos="5.10" departSpeed="0.00" departDelay="0.10" arrival="57828.00" arrivalLane="26677539_1" arrivalPos="151.98" arrivalSpeed="8.42" duration="93.00" routeLength="919.89" waitingTime="0.00" waitingCount="0" stopTime="0.00" timeLoss="10.83" rerouteNo="1" devices="tripinfo_randUni15030:1 routing_randUni15030:1 emissions_randUni15030:1" vType="random_016" speedFactor="1.02" vaporized="">
        <emissions CO_abs="3351.367460" CO2_abs="216324.492102" HC_abs="20.268807" PMx_abs="3.568561" NOx_abs="86.766555" fuel_abs="92.989053" electricity_abs="0"/>
    </tripinfo>
    <tripinfo id="carIn48184:1" depart="57613.00" departLane="-306240162#1_0" departPos="5.10" departSpeed="0.00" departDelay="0.70" arrival="57843.00" arrivalLane="386687235_1" arrivalPos="80.84" arrivalSpeed="14.29" duration="230.00" routeLength="2257.41" waitingTime="56.00" waitingCount="4" stopTime="0.00" timeLoss="97.57" rerouteNo="1" devices="tripinfo_carIn48184:1 routing_carIn48184:1 emissions_carIn48184:1" vType="default_016" speedFactor="1.12" vaporized="">
        <emissions CO_abs="14723.511207" CO2_abs="681756.543209" HC_abs="83.185232" PMx_abs="13.368313" NOx_abs="282.199704" fuel_abs="293.060094" electricity_abs="0"/>
    </tripinfo>
    <tripinfo id="carIn12858:1" depart="57661.00" departLane="128361109#1_1" departPos="5.10" departSpeed="0.00" departDelay="0.90" arrival="57843.00" arrivalLane="399835085#1_1" arrivalPos="212.23" arrivalSpeed="6.12" duration="182.00" routeLength="1738.12" waitingTime="14.00" waitingCount="2" stopTime="0.00" timeLoss="42.13" rerouteNo="1" devices="tripinfo_carIn12858:1 routing_carIn12858:1 emissions_carIn12858:1" vType="default_016" speedFactor="0.82" vaporized="">
        <emissions CO_abs="7922.735654" CO2_abs="465273.102161" HC_abs="46.930279" PMx_abs="8.319264" NOx_abs="189.568303" fuel_abs="200.001626" electricity_abs="0"/>
    </tripinfo>
    <tripinfo id="h17549c1:1" depart="57680.00" departLane="-447569998#1_1" departPos="5.10" departSpeed="0.00" departDelay="0.00" arrival="57843.00" arrivalLane="-315358254#1_1" arrivalPos="137.16" arrivalSpeed="12.58" duration="163.00" routeLength="1746.60" waitingTime="5.00" waitingCount="1" stopTime="0.00" timeLoss="21.17" rerouteNo="1" devices="tripinfo_h17549c1:1 routing_h17549c1:1 emissions_h17549c1:1" vType="default_016" speedFactor="0.97" vaporized="">
        <emissions CO_abs="4683.955483" CO2_abs="337160.582122" HC_abs="29.162517" PMx_abs="5.321848" NOx_abs="132.921192" fuel_abs="144.931540" electricity_abs="0"/>
    </tripinfo>
    <tripinfo id="h16072c2:3" depart="57663.00" departLane="315358254#0_1" departPos="5.10" departSpeed="0.00" departDelay="2.50" arrival="57844.00" arrivalLane="386687235_2" arrivalPos="80.84" arrivalSpeed="13.42" duration="181.00" routeLength="1611.92" waitingTime="22.00" waitingCount="4" stopTime="0.00" timeLoss="69.47" rerouteNo="1" devices="tripinfo_h16072c2:3 routing_h16072c2:3 emissions_h16072c2:3" vType="default_016" speedFactor="1.06" vaporized="">
        <emissions CO_abs="7977.757248" CO2_abs="435925.926809" HC_abs="46.548066" PMx_abs="7.847603" NOx_abs="178.977895" fuel_abs="187.386792" electricity_abs="0"/>
    </tripinfo>
    <tripinfo id="carIn82220:1" depart="57619.00" departLane="-306240162#1_0" departPos="5.10" departSpeed="0.00" departDelay="3.50" arrival="57846.00" arrivalLane="386687235_1" arrivalPos="80.84" arrivalSpeed="11.30" duration="227.00" routeLength="2257.41" waitingTime="21.00" waitingCount="3" stopTime="0.00" timeLoss="53.59" rerouteNo="1" devices="tripinfo_carIn82220:1 routing_carIn82220:1 emissions_carIn82220:1" vType="default_016" speedFactor="0.85" vaporized="">
        <emissions CO_abs="7917.419046" CO2_abs="499917.536447" HC_abs="47.647325" PMx_abs="8.331706" NOx_abs="199.803760" fuel_abs="214.894253" electricity_abs="0"/>
    </tripinfo>
    <tripinfo id="carIn7949:1" depart="57676.00" departLane="128361109#1_1" departPos="5.10" departSpeed="0.00" departDelay="2.10" arrival="57846.00" arrivalLane="386687235_2" arrivalPos="80.84" arrivalSpeed="15.79" duration="170.00" routeLength="2088.57" waitingTime="17.00" waitingCount="1" stopTime="0.00" timeLoss="39.88" rerouteNo="1" devices="tripinfo_carIn7949:1 routing_carIn7949:1 emissions_carIn7949:1" vType="default_016" speedFactor="1.16" vaporized="">
        <emissions CO_abs="6581.033961" CO2_abs="441785.075920" HC_abs="40.247717" PMx_abs="7.642218" NOx_abs="175.909017" fuel_abs="189.904929" electricity_abs="0"/>
    </tripinfo>
    <tripinfo id="randUni31145:1" depart="57814.00" departLane="10425609#0_1" departPos="5.10" departSpeed="0.00" departDelay="0.30" arrival="57856.00" arrivalLane="201956810_1" arrivalPos="71.65" arrivalSpeed="11.87" duration="42.00" routeLength="255.78" waitingTime="10.00" waitingCount="1" stopTime="0.00" timeLoss="20.19" rerouteNo="1" devices="tripinfo_randUni31145:1 routing_randUni31145:1 emissions_randUni31145:1" vType="random_016" speedFactor="0.90" vaporized="">
        <emissions CO_abs="3000.635854" CO2_abs="120370.908087" HC_abs="16.505857" PMx_abs="2.409044" NOx_abs="51.538659" fuel_abs="51.742805" electricity_abs="0"/>
    </tripinfo>
    <tripinfo id="carIn12152:1" depart="57647.00" departLane="24599188#0.94_1" departPos="5.10" departSpeed="0.00" departDelay="0.50" arrival="57857.00" arrivalLane="-315358254#1_1" arrivalPos="137.16" arrivalSpeed="11.55" duration="210.00" routeLength="2034.31" waitingTime="12.00" waitingCount="2" stopTime="0.00" timeLoss="38.31" rerouteNo="1" devices="tripinfo_carIn12152:1 routing_carIn12152:1 emissions_carIn12152:1" vType="default_016" speedFactor="0.92" vaporized="">
        <emissions CO_abs="6776.520240" CO2_abs="439386.915117" HC_abs="41.037858" PMx_abs="6.947913" NOx_abs="173.983791" fuel_abs="188.874943" electricity_abs="0"/>
    </tripinfo>
    <tripinfo id="carIn12365:1" depart="57713.00" departLane="315358244_1" departPos="5.10" departSpeed="0.00" departDelay="0.50" arrival="57859.00" arrivalLane="447569997#1_1" arrivalPos="180.93" arrivalSpeed="7.77" duration="146.00" routeLength="718.04" waitingTime="68.00" waitingCount="1" stopTime="0.00" timeLoss="80.97" rerouteNo="1" devices="tripinfo_carIn12365:1 routing_carIn12365:1 emissions_carIn12365:1" vType="default_016" speedFactor="0.95" vaporized="">
        <emissions CO_abs="13893.665856" CO2_abs="350039.462126" HC_abs="71.448571" PMx_abs="7.336277" NOx_abs="151.207561" fuel_abs="150.472446" electricity_abs="0"/>
    </tripinfo>
    <tripinfo id="randUni2407:1" depart="57820.00" departLane="10425609#0_1" departPos="5.10" departSpeed="0.00" departDelay="0.80" arrival="57859.00" arrivalLane="201956810_1" arrivalPos="71.65" arrivalSpeed="11.40" duration="39.00" routeLength="255.78" waitingTime="6.00" waitingCount="1" stopTime="0.00" timeLoss="16.39" rerouteNo="1" devices="tripinfo_randUni2407:1 routing_randUni2407:1 emissions_randUni2407:1" vType="random_016" speedFactor="0.90" vaporized="">
        <emissions CO_abs="2363.890668" CO2_abs="107812.983418" HC_abs="13.304239" PMx_abs="2.075705" NOx_abs="45.614286" fuel_abs="46.344488" electricity_abs="0"/>
    </tripinfo>
    <tripinfo id="carIn118591:1" depart="57689.00" departLane="315358244_1" departPos="5.10" departSpeed="0.00" departDelay="0.20" arrival="57865.00" arrivalLane="386687235_1" arrivalPos="80.84" arrivalSpeed="15.94" duration="176.00" routeLength="1186.14" waitingTime="82.00" waitingCount="2" stopTime="0.00" timeLoss="101.54" rerouteNo="1" devices="tripinfo_carIn118591:1 routing_carIn118591:1 emissions_carIn118591:1" vType="default_016" speedFactor="1.17" vaporized="">
        <emissions CO_abs="15892.683022" CO2_abs="486657.671643" HC_abs="83.696682" PMx_abs="9.986669" NOx_abs="206.270371" fuel_abs="209.198536" electricity_abs="0"/>
    </tripinfo>
    <tripinfo id="h7097c1:1" depart="57670.00" departLane="315358242#0_1" departPos="5.10" departSpeed="0.00" departDelay="0.60" arrival="57866.00" arrivalLane="306240162#0_0" arrivalPos="220.43" arrivalSpeed="18.08" duration="196.00" routeLength="2586.94" waitingTime="16.00" waitingCount="1" stopTime="0.00" timeLoss="40.83" rerouteNo="1" devices="tripinfo_h7097c1:1 routing_h7097c1:1 emissions_h7097c1:1" vType="default_016" speedFactor="1.12" vaporized="">
        <emissions CO_abs="9033.997258" CO2_abs="637266.656487" HC_abs="56.022301" PMx_abs="11.546707" NOx_abs="255.588066" fuel_abs="273.933238" electricity_abs="0"/>
    </tripinfo>
    <tripinfo id="carIn121703:1" depart="57647.00" departLane="386687232#0_1" departPos="5.10" departSpeed="0.00" departDelay="0.30" arrival="57873.00" arrivalLane="-315358244_2" arrivalPos="33.95" arrivalSpeed="15.22" duration="226.00" routeLength="1157.39" waitingTime="126.00" waitingCount="3" stopTime="0.00" timeLoss="151.14" rerouteNo="1" devices="tripinfo_carIn121703:1 routing_carIn121703:1 emissions_carIn121703:1" vType="default_016" speedFactor="1.13" vaporized="">
        <emissions CO_abs="22636.791134" CO2_abs="607464.461889" HC_abs="117.271721" PMx_abs="12.966340" NOx_abs="261.998625" fuel_abs="261.131010" electricity_abs="0"/>
    </tripinfo>
    <tripinfo id="h11868c1:5" depart="57700.00" departLane="315358254#0_1" departPos="5.10" departSpeed="0.00" departDelay="0.10" arrival="57873.00" arrivalLane="386687235_1" arrivalPos="80.84" arrivalSpeed="14.62" duration="173.00" routeLength="1611.92" waitingTime="39.00" waitingCount="2" stopTime="0.00" timeLoss="67.87" rerouteNo="1" devices="tripinfo_h11868c1:5 routing_h11868c1:5 emissions_h11868c1:5" vType="default_016" speedFactor="1.12" vaporized="">
        <emissions CO_abs="10000.309536" CO2_abs="440817.719700" HC_abs="55.791993" PMx_abs="8.024314" NOx_abs="180.095408" fuel_abs="189.491235" electricity_abs="0"/>
    </tripinfo>
    <tripinfo id="carIn8642:1" depart="57774.00" departLane="-447569998#1_1" departPos="5.10" departSpeed="0.00" departDelay="0.90" arrival="57873.00" arrivalLane="-315358244_1" arrivalPos="33.95" arrivalSpeed="14.07" duration="99.00" routeLength="706.49" waitingTime="31.00" waitingCount="1" stopTime="0.00" timeLoss="42.56" rerouteNo="1" devices="tripinfo_carIn8642:1 routing_carIn8642:1 emissions_carIn8642:1" vType="default_016" speedFactor="1.08" vaporized="">
        <emissions CO_abs="7342.331657" CO2_abs="254994.157064" HC_abs="39.376330" PMx_abs="4.932822" NOx_abs="106.877514" fuel_abs="109.613363" electricity_abs="0"/>
    </tripinfo>
    <tripinfo id="carIn28951:1" depart="57606.00" departLane="10425609#0_1" departPos="5.10" departSpeed="0.00" departDelay="0.20" arrival="57874.00" arrivalLane="-128361102#1_1" arrivalPos="274.68" arrivalSpeed="13.97" duration="268.00" routeLength="2113.04" waitingTime="100.00" waitingCount="1" stopTime="0.00" timeLoss="126.15" rerouteNo="1" devices="tripinfo_carIn28951:1 routing_carIn28951:1 emissions_carIn28951:1" vType="default_016" speedFactor="1.10" vaporized="">
        <emissions CO_abs="21264.303100" CO2_abs="739676.948924" HC_abs="113.956459" PMx_abs="14.294393" NOx_abs="307.379566" fuel_abs="317.962332" electricity_abs="0"/>
    </tripinfo>
    <tripinfo id="h5216c1:1" depart="57664.00" departLane="224892339#0_1" departPos="5.10" departSpeed="0.00" departDelay="0.00" arrival="57874.00" arrivalLane="386687235_1" arrivalPos="80.84" arrivalSpeed="15.29" duration="210.00" routeLength="1823.78" waitingTime="64.00" waitingCount="2" stopTime="0.00" timeLoss="95.90" rerouteNo="1" devices="tripinfo_h5216c1:1 routing_h5216c1:1 emissions_h5216c1:1" vType="default_016" speedFactor="1.12" vaporized="">
        <emissions CO_abs="15200.467199" CO2_abs="595727.177764" HC_abs="83.171028" PMx_abs="11.791395" NOx_abs="249.604855" fuel_abs="256.081060" electricity_abs="0"/>
    </tripinfo>
    <tripinfo id="carIn82278:1" depart="57702.00" departLane="-306240162#1_0" departPos="5.10" departSpeed="0.00" departDelay="0.70" arrival="57874.00" arrivalLane="399835085#1_1" arrivalPos="212.23" arrivalSpeed="8.12" duration="172.00" routeLength="1093.26" waitingTime="51.00" waitingCount="4" stopTime="0.00" timeLoss="93.86" rerouteNo="1" devices="tripinfo_carIn82278:1 routing_carIn82278:1 emissions_carIn82278:1" vType="default_016" speedFactor="1.00" vaporized="">
        <emissions CO_abs="12695.936238" CO2_abs="453316.301288" HC_abs="68.484461" PMx_abs="9.273579" NOx_abs="192.637922" fuel_abs="194.864332" electricity_abs="0"/>
    </tripinfo>