<?xml version="1.0" encoding="UTF-8"?>

<!-- generated on 2021-10-26 21:53:13 by Eclipse SUMO sumo Version 1.10.0
<configuration xmlns:xsi="http://www.w3.org/2001/XMLSchema-instance" xsi:noNamespaceSchemaLocation="http://sumo.dlr.de/xsd/sumoConfiguration.xsd">

    <input>
        <net-file value="/Users/behradkoohy/sumo-scratchpad/RESCO/environments/ingolstadt21/ingolstadt21.net.xml"/>
        <route-files value="/Users/behradkoohy/sumo-scratchpad/RESCO/environments/ingolstadt21/ingolstadt21.rou.xml"/>
    </input>

    <output>
        <tripinfo-output value="/Users/behradkoohy/sumo-scratchpad/RESCO/logs/MPLight-tr0-ingolstadt21-21-mplight_full-pressure/tripinfo_74.xml"/>
        <tripinfo-output.write-unfinished value="true"/>
    </output>

    <time>
        <begin value="57600"/>
        <end value="61200"/>
    </time>

    <processing>
        <time-to-teleport value="-1"/>
    </processing>

    <report>
        <no-warnings value="true"/>
        <no-step-log value="true"/>
    </report>

    <emissions>
        <device.emissions.probability value="1"/>
    </emissions>

    <traci_server>
        <remote-port value="65362"/>
    </traci_server>

    <random_number>
        <random value="true"/>
    </random_number>

</configuration>
-->

<tripinfos xmlns:xsi="http://www.w3.org/2001/XMLSchema-instance" xsi:noNamespaceSchemaLocation="http://sumo.dlr.de/xsd/tripinfo_file.xsd">
    <tripinfo id="h15454c2:3" depart="57612.00" departLane="24608844_1" departPos="5.10" departSpeed="0.00" departDelay="0.50" arrival="57652.00" arrivalLane="32978638#0_1" arrivalPos="49.29" arrivalSpeed="13.53" duration="40.00" routeLength="354.79" waitingTime="0.00" waitingCount="0" stopTime="0.00" timeLoss="4.88" rerouteNo="1" devices="tripinfo_h15454c2:3 routing_h15454c2:3 emissions_h15454c2:3" vType="default_016" speedFactor="0.99" vaporized="">
        <emissions CO_abs="1699.478678" CO2_abs="100899.243037" HC_abs="10.078032" PMx_abs="1.640575" NOx_abs="40.428252" fuel_abs="43.372602" electricity_abs="0"/>
    </tripinfo>
    <tripinfo id="carIn60260:1" depart="57606.00" departLane="315358254#0_1" departPos="5.10" departSpeed="0.00" departDelay="0.90" arrival="57701.00" arrivalLane="399835085#1_1" arrivalPos="212.23" arrivalSpeed="8.48" duration="95.00" routeLength="430.98" waitingTime="41.00" waitingCount="1" stopTime="0.00" timeLoss="51.25" rerouteNo="1" devices="tripinfo_carIn60260:1 routing_carIn60260:1 emissions_carIn60260:1" vType="default_016" speedFactor="1.05" vaporized="">
        <emissions CO_abs="8347.696766" CO2_abs="217854.961506" HC_abs="43.093102" PMx_abs="4.484696" NOx_abs="93.912150" fuel_abs="93.649758" electricity_abs="0"/>
    </tripinfo>
    <tripinfo id="carIn53971:1" depart="57640.00" departLane="272042143_1" departPos="5.10" departSpeed="0.00" departDelay="0.80" arrival="57701.00" arrivalLane="24634414#1_1" arrivalPos="162.19" arrivalSpeed="7.07" duration="61.00" routeLength="493.04" waitingTime="0.00" waitingCount="0" stopTime="0.00" timeLoss="8.46" rerouteNo="1" devices="tripinfo_carIn53971:1 routing_carIn53971:1 emissions_carIn53971:1" vType="default_016" speedFactor="0.87" vaporized="">
        <emissions CO_abs="2599.539664" CO2_abs="128608.301423" HC_abs="14.811814" PMx_abs="2.160494" NOx_abs="52.458107" fuel_abs="55.283848" electricity_abs="0"/>
    </tripinfo>
    <tripinfo id="carIn22761:1" depart="57616.00" departLane="-306240162#1_0" departPos="5.10" departSpeed="0.00" departDelay="2.10" arrival="57716.00" arrivalLane="399835085#1_1" arrivalPos="212.23" arrivalSpeed="9.56" duration="100.00" routeLength="1093.26" waitingTime="7.00" waitingCount="1" stopTime="0.00" timeLoss="36.40" rerouteNo="1" devices="tripinfo_carIn22761:1 routing_carIn22761:1 emissions_carIn22761:1" vType="default_016" speedFactor="1.23" vaporized="">
        <emissions CO_abs="6235.157568" CO2_abs="379142.421179" HC_abs="37.483579" PMx_abs="7.520776" NOx_abs="158.379155" fuel_abs="162.976402" electricity_abs="0"/>
    </tripinfo>
    <tripinfo id="h7800c1:5" depart="57696.00" departLane="-447569998#1_1" departPos="5.10" departSpeed="0.00" departDelay="0.00" arrival="57726.00" arrivalLane="-447569998#1_2" arrivalPos="180.76" arrivalSpeed="6.53" duration="30.00" routeLength="175.66" waitingTime="0.00" waitingCount="0" stopTime="0.00" timeLoss="4.15" rerouteNo="1" devices="tripinfo_h7800c1:5 routing_h7800c1:5 emissions_h7800c1:5" vType="default_016" speedFactor="0.83" vaporized="">
        <emissions CO_abs="1589.548023" CO2_abs="58524.061184" HC_abs="8.570057" PMx_abs="0.951584" NOx_abs="23.874461" fuel_abs="25.157657" electricity_abs="0"/>
    </tripinfo>
    <tripinfo id="h5979c1:5" depart="57669.00" departLane="399835085#1_1" departPos="5.10" departSpeed="0.00" departDelay="0.00" arrival="57742.00" arrivalLane="-315358254#1_1" arrivalPos="137.16" arrivalSpeed="16.12" duration="73.00" routeLength="659.33" waitingTime="0.00" waitingCount="0" stopTime="0.00" timeLoss="9.72" rerouteNo="1" devices="tripinfo_h5979c1:5 routing_h5979c1:5 emissions_h5979c1:5" vType="default_016" speedFactor="1.17" vaporized="">
        <emissions CO_abs="3036.810336" CO2_abs="176671.441286" HC_abs="17.927770" PMx_abs="2.912516" NOx_abs="71.211641" fuel_abs="75.944054" electricity_abs="0"/>
    </tripinfo>
    <tripinfo id="h4538c1:1" depart="57701.00" departLane="-10427692#1_1" departPos="5.10" departSpeed="0.00" departDelay="0.00" arrival="57742.00" arrivalLane="-128361102#1_1" arrivalPos="274.68" arrivalSpeed="15.98" duration="41.00" routeLength="440.74" waitingTime="2.00" waitingCount="1" stopTime="0.00" timeLoss="13.82" rerouteNo="1" devices="tripinfo_h4538c1:1 routing_h4538c1:1 emissions_h4538c1:1" vType="default_016" speedFactor="1.15" vaporized="">
        <emissions CO_abs="2062.917558" CO2_abs="127169.724812" HC_abs="12.367622" PMx_abs="2.336372" NOx_abs="52.160141" fuel_abs="54.664816" electricity_abs="0"/>
    </tripinfo>
    <tripinfo id="h3568c1:3" depart="57656.00" departLane="266565295#5_1" departPos="5.10" departSpeed="0.00" departDelay="0.80" arrival="57758.00" arrivalLane="-24634415_1" arrivalPos="62.03" arrivalSpeed="12.11" duration="102.00" routeLength="807.40" waitingTime="16.00" waitingCount="1" stopTime="0.00" timeLoss="31.67" rerouteNo="1" devices="tripinfo_h3568c1:3 routing_h3568c1:3 emissions_h3568c1:3" vType="default_016" speedFactor="0.92" vaporized="">
        <emissions CO_abs="5804.997270" CO2_abs="264160.350954" HC_abs="32.615892" PMx_abs="4.821553" NOx_abs="109.383663" fuel_abs="113.552451" electricity_abs="0"/>
    </tripinfo>
    <tripinfo id="h3326c1:2" depart="57656.00" departLane="22716069#0_1" departPos="5.10" departSpeed="0.00" departDelay="0.00" arrival="57765.00" arrivalLane="24634517#13_1" arrivalPos="111.62" arrivalSpeed="14.07" duration="109.00" routeLength="1312.81" waitingTime="0.00" waitingCount="0" stopTime="0.00" timeLoss="14.07" rerouteNo="1" devices="tripinfo_h3326c1:2 routing_h3326c1:2 emissions_h3326c1:2" vType="default_016" speedFactor="1.03" vaporized="">
        <emissions CO_abs="3820.077908" CO2_abs="306022.595680" HC_abs="24.557832" PMx_abs="5.102774" NOx_abs="121.911473" fuel_abs="131.545855" electricity_abs="0"/>
    </tripinfo>
    <tripinfo id="h11737c1:1" depart="57665.00" departLane="272042143_1" departPos="5.10" departSpeed="0.00" departDelay="1.50" arrival="57792.00" arrivalLane="-315358254#1_1" arrivalPos="137.16" arrivalSpeed="13.79" duration="127.00" routeLength="1596.88" waitingTime="0.00" waitingCount="0" stopTime="0.00" timeLoss="14.69" rerouteNo="1" devices="tripinfo_h11737c1:1 routing_h11737c1:1 emissions_h11737c1:1" vType="default_016" speedFactor="1.04" vaporized="">
        <emissions CO_abs="3937.578658" CO2_abs="346197.974056" HC_abs="25.994576" PMx_abs="5.649602" NOx_abs="136.598868" fuel_abs="148.815417" electricity_abs="0"/>
    </tripinfo>
    <tripinfo id="carIn27009:1" depart="57673.00" departLane="-447569998#1_1" departPos="5.10" departSpeed="0.00" departDelay="0.50" arrival="57801.00" arrivalLane="-26677539_1" arrivalPos="152.75" arrivalSpeed="6.50" duration="128.00" routeLength="699.63" waitingTime="20.00" waitingCount="1" stopTime="0.00" timeLoss="34.99" rerouteNo="1" devices="tripinfo_carIn27009:1 routing_carIn27009:1 emissions_carIn27009:1" vType="default_015" speedFactor="0.91" vaporized="">
        <emissions CO_abs="6701.421528" CO2_abs="222235.577382" HC_abs="35.643669" PMx_abs="4.052953" NOx_abs="93.097228" fuel_abs="95.532037" electricity_abs="0"/>
    </tripinfo>
    <tripinfo id="h7181c1:1" depart="57660.00" departLane="315358254#0_1" departPos="5.10" departSpeed="0.00" departDelay="0.10" arrival="57812.00" arrivalLane="306240162#0_0" arrivalPos="220.43" arrivalSpeed="16.07" duration="152.00" routeLength="932.35" waitingTime="87.00" waitingCount="1" stopTime="0.00" timeLoss="101.32" rerouteNo="1" devices="tripinfo_h7181c1:1 routing_h7181c1:1 emissions_h7181c1:1" vType="default_016" speedFactor="1.03" vaporized="">
        <emissions CO_abs="17400.812929" CO2_abs="486588.676951" HC_abs="90.650513" PMx_abs="10.652939" NOx_abs="209.701175" fuel_abs="209.169237" electricity_abs="0"/>
    </tripinfo>
    <tripinfo id="carIn126288:1" depart="57674.00" departLane="272042143_1" departPos="5.10" departSpeed="0.00" departDelay="0.00" arrival="57815.00" arrivalLane="-315358254#1_1" arrivalPos="137.16" arrivalSpeed="11.82" duration="141.00" routeLength="1596.88" waitingTime="0.00" waitingCount="0" stopTime="0.00" timeLoss="11.71" rerouteNo="1" devices="tripinfo_carIn126288:1 routing_carIn126288:1 emissions_carIn126288:1" vType="default_016" speedFactor="0.90" vaporized="">
        <emissions CO_abs="3724.258544" CO2_abs="309378.810827" HC_abs="24.127538" PMx_abs="4.688396" NOx_abs="120.670300" fuel_abs="132.989104" electricity_abs="0"/>
    </tripinfo>
    <tripinfo id="h3688c1:1" depart="57625.00" departLane="201201950#1_1" departPos="5.10" departSpeed="0.00" departDelay="0.00" arrival="57825.00" arrivalLane="32978638#0_1" arrivalPos="49.29" arrivalSpeed="12.82" duration="200.00" routeLength="1089.75" waitingTime="100.00" waitingCount="2" stopTime="0.00" timeLoss="116.45" rerouteNo="1" devices="tripinfo_h3688c1:1 routing_h3688c1:1 emissions_h3688c1:1" vType="default_016" speedFactor="0.95" vaporized="">
        <emissions CO_abs="18708.276150" CO2_abs="487021.004212" HC_abs="96.580190" PMx_abs="10.191376" NOx_abs="209.500240" fuel_abs="209.356655" electricity_abs="0"/>
    </tripinfo>
    <tripinfo id="h317c2:1" depart="57707.00" departLane="-32978638#0_1" departPos="5.10" departSpeed="0.00" departDelay="0.10" arrival="57832.00" arrivalLane="-266565295#5_1" arrivalPos="172.76" arrivalSpeed="16.65" duration="125.00" routeLength="370.53" waitingTime="91.00" waitingCount="1" stopTime="0.00" timeLoss="102.12" rerouteNo="1" devices="tripinfo_h317c2:1 routing_h317c2:1 emissions_h317c2:1" vType="default_016" speedFactor="1.23" vaporized="">
        <emissions CO_abs="16700.393901" CO2_abs="373609.126700" HC_abs="84.801411" PMx_abs="8.597298" NOx_abs="165.797439" fuel_abs="160.604876" electricity_abs="0"/>
    </tripinfo>
    <tripinfo id="h17600c1:1" depart="57662.00" departLane="272042143_1" departPos="5.10" departSpeed="0.00" departDelay="0.30" arrival="57836.00" arrivalLane="201238729#3_1" arrivalPos="431.02" arrivalSpeed="12.54" duration="174.00" routeLength="2100.26" waitingTime="0.00" waitingCount="0" stopTime="0.00" timeLoss="11.93" rerouteNo="1" devices="tripinfo_h17600c1:1 routing_h17600c1:1 emissions_h17600c1:1" vType="default_016" speedFactor="0.93" vaporized="">
        <emissions CO_abs="3378.742073" CO2_abs="341518.105369" HC_abs="23.259914" PMx_abs="4.772663" NOx_abs="129.528719" fuel_abs="146.804553" electricity_abs="0"/>
    </tripinfo>
    <tripinfo id="h330c1:1" depart="57736.00" departLane="-32978638#0_1" departPos="5.10" departSpeed="0.00" departDelay="0.20" arrival="57839.00" arrivalLane="-266565295#5_1" arrivalPos="172.76" arrivalSpeed="11.18" duration="103.00" routeLength="370.53" waitingTime="63.00" waitingCount="1" stopTime="0.00" timeLoss="72.46" rerouteNo="1" devices="tripinfo_h330c1:1 routing_h330c1:1 emissions_h330c1:1" vType="default_016" speedFactor="0.90" vaporized="">
        <emissions CO_abs="11673.779445" CO2_abs="266707.457395" HC_abs="59.418919" PMx_abs="5.899475" NOx_abs="117.185791" fuel_abs="114.650744" electricity_abs="0"/>
    </tripinfo>
    <tripinfo id="randUni15030:1" depart="57735.00" departLane="386687232#0_1" departPos="5.10" departSpeed="0.00" departDelay="0.10" arrival="57845.00" arrivalLane="26677539_1" arrivalPos="151.98" arrivalSpeed="6.72" duration="110.00" routeLength="919.89" waitingTime="0.00" waitingCount="0" stopTime="0.00" timeLoss="12.41" rerouteNo="1" devices="tripinfo_randUni15030:1 routing_randUni15030:1 emissions_randUni15030:1" vType="random_016" speedFactor="0.86" vaporized="">
        <emissions CO_abs="3656.455750" CO2_abs="197807.706071" HC_abs="21.186954" PMx_abs="3.043498" NOx_abs="78.527151" fuel_abs="85.030228" electricity_abs="0"/>
    </tripinfo>
    <tripinfo id="h3536c1:1" depart="57767.00" departLane="-24634413#2_1" departPos="5.10" departSpeed="0.00" departDelay="0.00" arrival="57862.00" arrivalLane="32978638#0_2" arrivalPos="49.29" arrivalSpeed="15.02" duration="95.00" routeLength="957.93" waitingTime="0.00" waitingCount="0" stopTime="0.00" timeLoss="14.90" rerouteNo="1" devices="tripinfo_h3536c1:1 routing_h3536c1:1 emissions_h3536c1:1" vType="default_016" speedFactor="1.12" vaporized="">
        <emissions CO_abs="4699.476214" CO2_abs="286885.220915" HC_abs="28.145150" PMx_abs="5.136170" NOx_abs="118.041512" fuel_abs="123.319795" electricity_abs="0"/>
    </tripinfo>
    <tripinfo id="h17890c1:3" depart="57792.00" departLane="386687232#0_1" departPos="5.10" departSpeed="0.00" departDelay="0.00" arrival="57864.00" arrivalLane="32978638#0_1" arrivalPos="49.29" arrivalSpeed="15.21" duration="72.00" routeLength="792.72" waitingTime="3.00" waitingCount="1" stopTime="0.00" timeLoss="20.24" rerouteNo="1" devices="tripinfo_h17890c1:3 routing_h17890c1:3 emissions_h17890c1:3" vType="default_016" speedFactor="1.15" vaporized="">
        <emissions CO_abs="4052.377930" CO2_abs="256465.552996" HC_abs="24.509562" PMx_abs="4.863334" NOx_abs="106.548903" fuel_abs="110.243195" electricity_abs="0"/>
    </tripinfo>
    <tripinfo id="h17549c1:1" depart="57680.00" departLane="-447569998#1_1" departPos="5.10" departSpeed="0.00" departDelay="0.00" arrival="57871.00" arrivalLane="-315358254#1_1" arrivalPos="137.16" arrivalSpeed="13.49" duration="191.00" routeLength="1746.60" waitingTime="31.00" waitingCount="3" stopTime="0.00" timeLoss="57.64" rerouteNo="1" devices="tripinfo_h17549c1:1 routing_h17549c1:1 emissions_h17549c1:1" vType="default_016" speedFactor="1.02" vaporized="">
        <emissions CO_abs="9050.025617" CO2_abs="447795.664983" HC_abs="51.650436" PMx_abs="7.997300" NOx_abs="182.766685" fuel_abs="192.490003" electricity_abs="0"/>
    </tripinfo>
    <tripinfo id="carIn24709:1" depart="57753.00" departLane="266565295#5_1" departPos="5.10" departSpeed="0.00" departDelay="2.50" arrival="57875.00" arrivalLane="-24634506#2_1" arrivalPos="71.32" arrivalSpeed="13.93" duration="122.00" routeLength="1450.12" waitingTime="0.00" waitingCount="0" stopTime="0.00" timeLoss="12.03" rerouteNo="1" devices="tripinfo_carIn24709:1 routing_carIn24709:1 emissions_carIn24709:1" vType="default_016" speedFactor="1.08" vaporized="">
        <emissions CO_abs="3443.624708" CO2_abs="286492.146987" HC_abs="22.303045" PMx_abs="4.600594" NOx_abs="112.649495" fuel_abs="123.150742" electricity_abs="0"/>
    </tripinfo>
    <tripinfo id="carIn80064:1" depart="57603.00" departLane="128361109#1_1" departPos="5.10" departSpeed="0.00" departDelay="0.40" arrival="57879.00" arrivalLane="-315358254#1_1" arrivalPos="137.16" arrivalSpeed="14.33" duration="276.00" routeLength="1587.97" waitingTime="149.00" waitingCount="4" stopTime="0.00" timeLoss="190.51" rerouteNo="1" devices="tripinfo_carIn80064:1 routing_carIn80064:1 emissions_carIn80064:1" vType="default_016" speedFactor="1.05" vaporized="">
        <emissions CO_abs="29097.988667" CO2_abs="853557.398315" HC_abs="152.837330" PMx_abs="18.848215" NOx_abs="370.579797" fuel_abs="366.916008" electricity_abs="0"/>
    </tripinfo>
    <tripinfo id="h5239c1:3" depart="57834.00" departLane="315358254#0_1" departPos="5.10" departSpeed="0.00" departDelay="0.80" arrival="57880.00" arrivalLane="224892361#3_1" arrivalPos="220.30" arrivalSpeed="23.79" duration="46.00" routeLength="793.34" waitingTime="0.00" waitingCount="0" stopTime="0.00" timeLoss="9.01" rerouteNo="1" devices="tripinfo_h5239c1:3 routing_h5239c1:3 emissions_h5239c1:3" vType="default_016" speedFactor="1.10" vaporized="">
        <emissions CO_abs="3936.219877" CO2_abs="263085.955100" HC_abs="24.337523" PMx_abs="5.551624" NOx_abs="110.131508" fuel_abs="113.088265" electricity_abs="0"/>
    </tripinfo>
    <tripinfo id="50R_frequency3.17" depart="57674.00" departLane="-18809673#6_1" departPos="12.10" departSpeed="0.00" departDelay="0.70" arrival="57886.00" arrivalLane="201956811#0_1" arrivalPos="40.40" arrivalSpeed="10.63" duration="212.00" routeLength="1954.47" waitingTime="35.00" waitingCount="2" stopTime="0.00" timeLoss="66.96" rerouteNo="1" devices="tripinfo_50R_frequency3.17 routing_50R_frequency3.17 emissions_50R_frequency3.17" vType="bus" speedFactor="1.00" vaporized="">
        <emissions CO_abs="3895.553826" CO2_abs="2216641.689441" HC_abs="845.898227" PMx_abs="413.255335" NOx_abs="17793.430858" fuel_abs="945.309725" electricity_abs="0"/>
    </tripinfo>
    <tripinfo id="h13377c2:3" depart="57804.00" departLane="315358244_1" departPos="5.10" departSpeed="0.00" departDelay="0.60" arrival="57890.00" arrivalLane="447569997#1_1" arrivalPos="180.93" arrivalSpeed="7.50" duration="86.00" routeLength="726.74" waitingTime="2.00" waitingCount="2" stopTime="0.00" timeLoss="15.97" rerouteNo="1" devices="tripinfo_h13377c2:3 routing_h13377c2:3 emissions_h13377c2:3" vType="default_016" speedFactor="0.96" vaporized="">
        <emissions CO_abs="3499.024339" CO2_abs="189173.437805" HC_abs="20.301825" PMx_abs="3.052472" NOx_abs="75.721606" fuel_abs="81.318490" electricity_abs="0"/>
    </tripinfo>
    <tripinfo id="carIn73855:1" depart="57743.00" departLane="386687232#0_1" departPos="5.10" departSpeed="0.00" departDelay="0.50" arrival="57892.00" arrivalLane="-315358244_1" arrivalPos="33.95" arrivalSpeed="15.04" duration="149.00" routeLength="1157.39" waitingTime="55.00" waitingCount="2" stopTime="0.00" timeLoss="74.35" rerouteNo="1" devices="tripinfo_carIn73855:1 routing_carIn73855:1 emissions_carIn73855:1" vType="default_016" speedFactor="1.13" vaporized="">
        <emissions CO_abs="11497.043641" CO2_abs="409501.169598" HC_abs="61.951128" PMx_abs="8.248617" NOx_abs="172.977930" fuel_abs="176.030025" electricity_abs="0"/>
    </tripinfo>
    <tripinfo id="carIn121703:1" depart="57647.00" departLane="386687232#0_1" departPos="5.10" departSpeed="0.00" departDelay="0.30" arrival="57893.00" arrivalLane="-315358244_2" arrivalPos="33.95" arrivalSpeed="12.39" duration="246.00" routeLength="1157.39" waitingTime="132.00" waitingCount="2" stopTime="0.00" timeLoss="153.57" rerouteNo="1" devices="tripinfo_carIn121703:1 routing_carIn121703:1 emissions_carIn121703:1" vType="default_016" speedFactor="0.91" vaporized="">
        <emissions CO_abs="24125.846292" CO2_abs="594956.672164" HC_abs="123.773095" PMx_abs="12.533416" NOx_abs="256.789461" fuel_abs="255.756100" electricity_abs="0"/>
    </tripinfo>
    <tripinfo id="carIn126378:1" depart="57746.00" departLane="386687232#0_1" departPos="5.10" departSpeed="0.00" departDelay="1.80" arrival="57895.00" arrivalLane="-315358244_1" arrivalPos="33.95" arrivalSpeed="13.73" duration="149.00" routeLength="1157.39" waitingTime="45.00" waitingCount="1" stopTime="0.00" timeLoss="63.63" rerouteNo="1" devices="tripinfo_carIn126378:1 routing_carIn126378:1 emissions_carIn126378:1" vType="default_016" speedFactor="0.99" vaporized="">
        <emissions CO_abs="10164.372511" CO2_abs="370698.283616" HC_abs="54.928341" PMx_abs="6.980064" NOx_abs="153.672969" fuel_abs="159.350561" electricity_abs="0"/>
    </tripinfo>
    <tripinfo id="carIn13443:1" depart="57729.00" departLane="272042143_1" departPos="5.10" departSpeed="0.00" departDelay="0.80" arrival="57897.00" arrivalLane="399835085#1_1" arrivalPos="212.23" arrivalSpeed="7.00" duration="168.00" routeLength="1757.45" waitingTime="3.00" waitingCount="1" stopTime="0.00" timeLoss="24.25" rerouteNo="1" devices="tripinfo_carIn13443:1 routing_carIn13443:1 emissions_carIn13443:1" vType="default_016" speedFactor="0.98" vaporized="">
        <emissions CO_abs="4835.250568" CO2_abs="343359.585016" HC_abs="29.951788" PMx_abs="5.238864" NOx_abs="134.173894" fuel_abs="147.596570" electricity_abs="0"/>
    </tripinfo>
    <tripinfo id="carIn7949:1" depart="57676.00" departLane="128361109#1_1" departPos="5.10" departSpeed="0.00" departDelay="2.10" arrival="57898.00" arrivalLane="386687235_1" arrivalPos="80.84" arrivalSpeed="16.18" duration="222.00" routeLength="2088.57" waitingTime="78.00" waitingCount="1" stopTime="0.00" timeLoss="96.43" rerouteNo="1" devices="tripinfo_carIn7949:1 routing_carIn7949:1 emissions_carIn7949:1" vType="default_016" speedFactor="1.20" vaporized="">
        <emissions CO_abs="15983.729599" CO2_abs="546300.070462" HC_abs="85.316124" PMx_abs="10.712004" NOx_abs="226.421021" fuel_abs="234.836230" electricity_abs="0"/>
    </tripinfo>
    <tripinfo id="randUni23028:1" depart="57884.00" departLane="124812856#0_1" departPos="5.10" departSpeed="0.00" departDelay="0.10" arrival="57899.00" arrivalLane="201956810_1" arrivalPos="71.65" arrivalSpeed="13.87" duration="15.00" routeLength="134.91" waitingTime="0.00" waitingCount="0" stopTime="0.00" timeLoss="4.30" rerouteNo="1" devices="tripinfo_randUni23028:1 routing_randUni23028:1 emissions_randUni23028:1" vType="random_016" speedFactor="1.03" vaporized="">
        <emissions CO_abs="1303.060452" CO2_abs="71330.560863" HC_abs="7.627260" PMx_abs="1.392165" NOx_abs="30.202754" fuel_abs="30.661912" electricity_abs="0"/>
    </tripinfo>
    <tripinfo id="carIn81860:1" depart="57712.00" departLane="128361102#0_1" departPos="5.10" departSpeed="0.00" departDelay="0.60" arrival="57902.00" arrivalLane="-24634517#17_1" arrivalPos="6.43" arrivalSpeed="8.01" duration="190.00" routeLength="1229.64" waitingTime="69.00" waitingCount="3" stopTime="0.00" timeLoss="101.09" rerouteNo="1" devices="tripinfo_carIn81860:1 routing_carIn81860:1 emissions_carIn81860:1" vType="default_016" speedFactor="1.02" vaporized="">
        <emissions CO_abs="15115.729573" CO2_abs="455462.086163" HC_abs="79.496300" PMx_abs="9.248347" NOx_abs="193.890178" fuel_abs="195.788777" electricity_abs="0"/>
    </tripinfo>
    <tripinfo id="carIn107282:1" depart="57749.00" departLane="-447569998#1_1" departPos="5.10" departSpeed="0.00" departDelay="0.00" arrival="57908.00" arrivalLane="315358242#0_1" arrivalPos="165.37" arrivalSpeed="12.72" duration="159.00" routeLength="448.50" waitingTime="104.00" waitingCount="1" stopTime="0.00" timeLoss="112.76" rerouteNo="1" devices="tripinfo_carIn107282:1 routing_carIn107282:1 emissions_carIn107282:1" vType="default_016" speedFactor="0.92" vaporized="">
        <emissions CO_abs="18739.239328" CO2_abs="383467.065165" HC_abs="94.283379" PMx_abs="8.547551" NOx_abs="169.073477" fuel_abs="164.844282" electricity_abs="0"/>
    </tripinfo>
    <tripinfo id="h20540c1:1" depart="57634.00" departLane="10425609#0_1" departPos="5.10" departSpeed="0.00" departDelay="0.50" arrival="57911.00" arrivalLane="-128361102#1_1" arrivalPos="274.68" arrivalSpeed="16.55" duration="277.00" routeLength="2095.01" waitingTime="118.00" waitingCount="2" stopTime="0.00" timeLoss="152.24" rerouteNo="1" devices="tripinfo_h20540c1:1 routing_h20540c1:1 emissions_h20540c1:1" vType="default_016" speedFactor="1.24" vaporized="">
        <emissions CO_abs="24933.687733" CO2_abs="821589.628506" HC_abs="132.782991" PMx_abs="16.926674" NOx_abs="348.138350" fuel_abs="353.173387" electricity_abs="0"/>
    </tripinfo>
    <tripinfo id="carIn118538:1" depart="57683.00" departLane="-447569998#1_1" departPos="5.10" departSpeed="0.00" departDelay="1.00" arrival="57914.00" arrivalLane="399835085#1_1" arrivalPos="212.23" arrivalSpeed="8.26" duration="231.00" routeLength="1907.17" waitingTime="35.00" waitingCount="5" stopTime="0.00" timeLoss="70.36" rerouteNo="1" devices="tripinfo_carIn118538:1 routing_carIn118538:1 emissions_carIn118538:1" vType="default_016" speedFactor="1.01" vaporized="">
        <emissions CO_abs="10151.126002" CO2_abs="477627.579944" HC_abs="57.335263" PMx_abs="8.286597" NOx_abs="194.157949" fuel_abs="205.314312" electricity_abs="0"/>
    </tripinfo>
    <tripinfo id="carIn53503:1" depart="57765.00" departLane="-306240162#1_0" departPos="5.10" departSpeed="0.00" departDelay="4.40" arrival="57915.00" arrivalLane="24634510#6_1" arrivalPos="76.64" arrivalSpeed="12.69" duration="150.00" routeLength="1440.47" waitingTime="20.00" waitingCount="3" stopTime="0.00" timeLoss="48.91" rerouteNo="1" devices="tripinfo_carIn53503:1 routing_carIn53503:1 emissions_carIn53503:1" vType="default_016" speedFactor="0.98" vaporized="">
        <emissions CO_abs="7872.109677" CO2_abs="408944.135736" HC_abs="45.470565" PMx_abs="7.587000" NOx_abs="168.666906" fuel_abs="175.788479" electricity_abs="0"/>
    </tripinfo>
    <tripinfo id="carIn99233:1" depart="57691.00" departLane="128361109#1_1" departPos="5.10" departSpeed="0.00" departDelay="1.90" arrival="57923.00" arrivalLane="386687235_2" arrivalPos="80.84" arrivalSpeed="13.89" duration="232.00" routeLength="2088.57" waitingTime="66.00" waitingCount="1" stopTime="0.00" timeLoss="89.73" rerouteNo="1" devices="tripinfo_carIn99233:1 routing_carIn99233:1 emissions_carIn99233:1" vType="default_016" speedFactor="1.06" vaporized="">
        <emissions CO_abs="15174.756687" CO2_abs="597870.359742" HC_abs="82.996135" PMx_abs="11.046658" NOx_abs="244.951417" fuel_abs="257.003523" electricity_abs="0"/>
    </tripinfo>
    <tripinfo id="carIn85747:1" depart="57673.00" departLane="128361109#1_1" departPos="5.10" departSpeed="0.00" departDelay="0.70" arrival="57924.00" arrivalLane="386687235_1" arrivalPos="80.84" arrivalSpeed="12.28" duration="251.00" routeLength="2088.57" waitingTime="78.00" waitingCount="1" stopTime="0.00" timeLoss="94.49" rerouteNo="1" devices="tripinfo_carIn85747:1 routing_carIn85747:1 emissions_carIn85747:1" vType="default_016" speedFactor="0.96" vaporized="">
        <emissions CO_abs="16150.645240" CO2_abs="562991.173386" HC_abs="86.676636" PMx_abs="10.488820" NOx_abs="232.089895" fuel_abs="242.011572" electricity_abs="0"/>
    </tripinfo>
    <tripinfo id="carIn12858:1" depart="57661.00" departLane="128361109#1_1" departPos="5.10" departSpeed="0.00" departDelay="0.90" arrival="57925.00" arrivalLane="399835085#1_1" arrivalPos="212.23" arrivalSpeed="8.18" duration="264.00" routeLength="1738.12" waitingTime="119.00" waitingCount="2" stopTime="0.00" timeLoss="147.88" rerouteNo="1" devices="tripinfo_carIn12858:1 routing_carIn12858:1 emissions_carIn12858:1" vType="default_016" speedFactor="0.99" vaporized="">
        <emissions CO_abs="24912.084776" CO2_abs="764431.793065" HC_abs="131.578670" PMx_abs="16.333304" NOx_abs="328.052546" fuel_abs="328.603750" electricity_abs="0"/>
    </tripinfo>
    <tripinfo id="carIn75660:1" depart="57679.00" departLane="128361109#1_1" departPos="5.10" departSpeed="0.00" departDelay="3.40" arrival="57926.00" arrivalLane="386687235_1" arrivalPos="80.84" arrivalSpeed="14.10" duration="247.00" routeLength="2088.57" waitingTime="75.00" waitingCount="1" stopTime="0.00" timeLoss="98.29" rerouteNo="1" devices="tripinfo_carIn75660:1 routing_carIn75660:1 emissions_carIn75660:1" vType="default_016" speedFactor="1.02" vaporized="">
        <emissions CO_abs="15978.207463" CO2_abs="595869.861196" HC_abs="86.659797" PMx_abs="11.041758" NOx_abs="245.040634" fuel_abs="256.144204" electricity_abs="0"/>
    </tripinfo>
    <tripinfo id="h19413c1:1" depart="57685.00" departLane="128361109#1_1" departPos="5.10" departSpeed="0.00" departDelay="5.90" arrival="57926.00" arrivalLane="386687235_2" arrivalPos="80.84" arrivalSpeed="13.64" duration="241.00" routeLength="2088.57" waitingTime="71.00" waitingCount="1" stopTime="0.00" timeLoss="87.27" rerouteNo="1" devices="tripinfo_h19413c1:1 routing_h19413c1:1 emissions_h19413c1:1" vType="default_016" speedFactor="0.98" vaporized="">
        <emissions CO_abs="15207.995922" CO2_abs="571729.499427" HC_abs="82.571415" PMx_abs="10.403216" NOx_abs="233.598487" fuel_abs="245.767301" electricity_abs="0"/>
    </tripinfo>
    <tripinfo id="carIn50326:1" depart="57651.00" departLane="128361102#0_1" departPos="5.10" departSpeed="0.00" departDelay="0.30" arrival="57929.00" arrivalLane="18809673#0_1" arrivalPos="473.56" arrivalSpeed="14.14" duration="278.00" routeLength="1591.07" waitingTime="128.00" waitingCount="3" stopTime="0.00" timeLoss="160.60" rerouteNo="1" devices="tripinfo_carIn50326:1 routing_carIn50326:1 emissions_carIn50326:1" vType="default_016" speedFactor="1.11" vaporized="">
        <emissions CO_abs="24246.061959" CO2_abs="667445.110799" HC_abs="125.983781" PMx_abs="13.954951" NOx_abs="286.527642" fuel_abs="286.914776" electricity_abs="0"/>
    </tripinfo>
    <tripinfo id="carIn49359:1" depart="57765.00" departLane="128361109#1_1" departPos="5.10" departSpeed="0.00" departDelay="0.50" arrival="57929.00" arrivalLane="386687235_1" arrivalPos="80.84" arrivalSpeed="14.96" duration="164.00" routeLength="2088.57" waitingTime="7.00" waitingCount="1" stopTime="0.00" timeLoss="32.33" rerouteNo="1" devices="tripinfo_carIn49359:1 routing_carIn49359:1 emissions_carIn49359:1" vType="default_016" speedFactor="1.14" vaporized="">