<?xml version="1.0" encoding="UTF-8"?>

<!-- generated on 2021-10-26 22:15:39 by Eclipse SUMO sumo Version 1.10.0
<configuration xmlns:xsi="http://www.w3.org/2001/XMLSchema-instance" xsi:noNamespaceSchemaLocation="http://sumo.dlr.de/xsd/sumoConfiguration.xsd">

    <input>
        <net-file value="/Users/behradkoohy/sumo-scratchpad/RESCO/environments/ingolstadt21/ingolstadt21.net.xml"/>
        <route-files value="/Users/behradkoohy/sumo-scratchpad/RESCO/environments/ingolstadt21/ingolstadt21.rou.xml"/>
    </input>

    <output>
        <tripinfo-output value="/Users/behradkoohy/sumo-scratchpad/RESCO/logs/MPLight-tr0-ingolstadt21-21-mplight_full-pressure/tripinfo_88.xml"/>
        <tripinfo-output.write-unfinished value="true"/>
    </output>

    <time>
        <begin value="57600"/>
        <end value="61200"/>
    </time>

    <processing>
        <time-to-teleport value="-1"/>
    </processing>

    <report>
        <no-warnings value="true"/>
        <no-step-log value="true"/>
    </report>

    <emissions>
        <device.emissions.probability value="1"/>
    </emissions>

    <traci_server>
        <remote-port value="49683"/>
    </traci_server>

    <random_number>
        <random value="true"/>
    </random_number>

</configuration>
-->

<tripinfos xmlns:xsi="http://www.w3.org/2001/XMLSchema-instance" xsi:noNamespaceSchemaLocation="http://sumo.dlr.de/xsd/tripinfo_file.xsd">
    <tripinfo id="h15454c2:3" depart="57612.00" departLane="24608844_1" departPos="5.10" departSpeed="0.00" departDelay="0.50" arrival="57654.00" arrivalLane="32978638#0_1" arrivalPos="49.29" arrivalSpeed="12.80" duration="42.00" routeLength="354.79" waitingTime="0.00" waitingCount="0" stopTime="0.00" timeLoss="7.70" rerouteNo="1" devices="tripinfo_h15454c2:3 routing_h15454c2:3 emissions_h15454c2:3" vType="default_016" speedFactor="1.01" vaporized="">
        <emissions CO_abs="2159.015677" CO2_abs="114358.566392" HC_abs="12.512348" PMx_abs="2.074765" NOx_abs="47.522348" fuel_abs="49.158072" electricity_abs="0"/>
    </tripinfo>
    <tripinfo id="carIn53971:1" depart="57640.00" departLane="272042143_1" departPos="5.10" departSpeed="0.00" departDelay="0.80" arrival="57702.00" arrivalLane="24634414#1_1" arrivalPos="162.19" arrivalSpeed="6.35" duration="62.00" routeLength="493.04" waitingTime="0.00" waitingCount="0" stopTime="0.00" timeLoss="9.45" rerouteNo="1" devices="tripinfo_carIn53971:1 routing_carIn53971:1 emissions_carIn53971:1" vType="default_016" speedFactor="0.87" vaporized="">
        <emissions CO_abs="2543.029418" CO2_abs="125301.609572" HC_abs="14.473106" PMx_abs="2.078492" NOx_abs="50.904131" fuel_abs="53.862479" electricity_abs="0"/>
    </tripinfo>
    <tripinfo id="h3568c1:3" depart="57656.00" departLane="266565295#5_1" departPos="5.10" departSpeed="0.00" departDelay="0.80" arrival="57731.00" arrivalLane="-24634415_1" arrivalPos="62.03" arrivalSpeed="13.87" duration="75.00" routeLength="807.40" waitingTime="0.00" waitingCount="0" stopTime="0.00" timeLoss="12.74" rerouteNo="1" devices="tripinfo_h3568c1:3 routing_h3568c1:3 emissions_h3568c1:3" vType="default_016" speedFactor="1.04" vaporized="">
        <emissions CO_abs="3161.113274" CO2_abs="207026.094080" HC_abs="19.266592" PMx_abs="3.659092" NOx_abs="84.456535" fuel_abs="88.991661" electricity_abs="0"/>
    </tripinfo>
    <tripinfo id="h5979c1:5" depart="57669.00" departLane="399835085#1_1" departPos="5.10" departSpeed="0.00" departDelay="0.00" arrival="57747.00" arrivalLane="-315358254#1_1" arrivalPos="137.16" arrivalSpeed="14.77" duration="78.00" routeLength="659.33" waitingTime="0.00" waitingCount="0" stopTime="0.00" timeLoss="10.52" rerouteNo="1" devices="tripinfo_h5979c1:5 routing_h5979c1:5 emissions_h5979c1:5" vType="default_016" speedFactor="1.08" vaporized="">
        <emissions CO_abs="3137.049597" CO2_abs="175602.701127" HC_abs="18.322087" PMx_abs="2.913757" NOx_abs="71.024209" fuel_abs="75.484698" electricity_abs="0"/>
    </tripinfo>
    <tripinfo id="h3326c1:2" depart="57656.00" departLane="22716069#0_1" departPos="5.10" departSpeed="0.00" departDelay="0.00" arrival="57768.00" arrivalLane="24634517#13_1" arrivalPos="111.62" arrivalSpeed="13.74" duration="112.00" routeLength="1312.81" waitingTime="0.00" waitingCount="0" stopTime="0.00" timeLoss="15.74" rerouteNo="1" devices="tripinfo_h3326c1:2 routing_h3326c1:2 emissions_h3326c1:2" vType="default_016" speedFactor="1.01" vaporized="">
        <emissions CO_abs="4177.460847" CO2_abs="320811.531163" HC_abs="26.477965" PMx_abs="5.457158" NOx_abs="128.857020" fuel_abs="137.902912" electricity_abs="0"/>
    </tripinfo>
    <tripinfo id="h11737c1:1" depart="57665.00" departLane="272042143_1" departPos="5.10" departSpeed="0.00" departDelay="1.50" arrival="57794.00" arrivalLane="-315358254#1_1" arrivalPos="137.16" arrivalSpeed="12.79" duration="129.00" routeLength="1596.88" waitingTime="0.00" waitingCount="0" stopTime="0.00" timeLoss="12.15" rerouteNo="1" devices="tripinfo_h11737c1:1 routing_h11737c1:1 emissions_h11737c1:1" vType="default_016" speedFactor="0.99" vaporized="">
        <emissions CO_abs="3555.284570" CO2_abs="303981.076746" HC_abs="23.290978" PMx_abs="4.916209" NOx_abs="119.938265" fuel_abs="130.668343" electricity_abs="0"/>
    </tripinfo>
    <tripinfo id="carIn126288:1" depart="57674.00" departLane="272042143_1" departPos="5.10" departSpeed="0.00" departDelay="0.00" arrival="57822.00" arrivalLane="-315358254#1_1" arrivalPos="137.16" arrivalSpeed="12.22" duration="148.00" routeLength="1596.88" waitingTime="10.00" waitingCount="1" stopTime="0.00" timeLoss="27.46" rerouteNo="1" devices="tripinfo_carIn126288:1 routing_carIn126288:1 emissions_carIn126288:1" vType="default_016" speedFactor="0.96" vaporized="">
        <emissions CO_abs="5462.016023" CO2_abs="348136.244991" HC_abs="33.008243" PMx_abs="5.853353" NOx_abs="139.511425" fuel_abs="149.649521" electricity_abs="0"/>
    </tripinfo>
    <tripinfo id="h7800c1:5" depart="57696.00" departLane="-447569998#1_1" departPos="5.10" departSpeed="0.00" departDelay="0.00" arrival="57855.00" arrivalLane="-447569998#1_2" arrivalPos="180.76" arrivalSpeed="3.84" duration="159.00" routeLength="175.66" waitingTime="134.00" waitingCount="1" stopTime="0.00" timeLoss="140.12" rerouteNo="1" devices="tripinfo_h7800c1:5 routing_h7800c1:5 emissions_h7800c1:5" vType="default_016" speedFactor="1.13" vaporized="">
        <emissions CO_abs="22790.418270" CO2_abs="398199.078906" HC_abs="113.107415" PMx_abs="9.581791" NOx_abs="180.214567" fuel_abs="171.179022" electricity_abs="0"/>
    </tripinfo>
    <tripinfo id="carIn107282:1" depart="57749.00" departLane="-447569998#1_1" departPos="5.10" departSpeed="0.00" departDelay="0.00" arrival="57879.00" arrivalLane="315358242#0_1" arrivalPos="165.37" arrivalSpeed="13.02" duration="130.00" routeLength="448.50" waitingTime="80.00" waitingCount="1" stopTime="0.00" timeLoss="89.12" rerouteNo="1" devices="tripinfo_carIn107282:1 routing_carIn107282:1 emissions_carIn107282:1" vType="default_016" speedFactor="1.02" vaporized="">
        <emissions CO_abs="14699.955549" CO2_abs="329621.152682" HC_abs="74.653007" PMx_abs="7.207405" NOx_abs="144.178857" fuel_abs="141.696112" electricity_abs="0"/>
    </tripinfo>
    <tripinfo id="carIn24709:1" depart="57753.00" departLane="266565295#5_1" departPos="5.10" departSpeed="0.00" departDelay="2.50" arrival="57886.00" arrivalLane="-24634506#2_1" arrivalPos="71.32" arrivalSpeed="13.11" duration="133.00" routeLength="1450.12" waitingTime="0.00" waitingCount="0" stopTime="0.00" timeLoss="16.94" rerouteNo="1" devices="tripinfo_carIn24709:1 routing_carIn24709:1 emissions_carIn24709:1" vType="default_016" speedFactor="1.02" vaporized="">
        <emissions CO_abs="4506.105161" CO2_abs="317823.227621" HC_abs="27.866612" PMx_abs="5.224191" NOx_abs="126.891403" fuel_abs="136.618923" electricity_abs="0"/>
    </tripinfo>
    <tripinfo id="carIn81860:1" depart="57712.00" departLane="128361102#0_1" departPos="5.10" departSpeed="0.00" departDelay="0.60" arrival="57887.00" arrivalLane="-24634517#17_1" arrivalPos="6.43" arrivalSpeed="6.57" duration="175.00" routeLength="1229.64" waitingTime="63.00" waitingCount="1" stopTime="0.00" timeLoss="87.94" rerouteNo="1" devices="tripinfo_carIn81860:1 routing_carIn81860:1 emissions_carIn81860:1" vType="default_016" speedFactor="1.03" vaporized="">
        <emissions CO_abs="13982.129444" CO2_abs="456759.277511" HC_abs="74.326983" PMx_abs="8.988611" NOx_abs="192.120745" fuel_abs="196.345874" electricity_abs="0"/>
    </tripinfo>
    <tripinfo id="h13377c2:3" depart="57804.00" departLane="315358244_1" departPos="5.10" departSpeed="0.00" departDelay="0.60" arrival="57887.00" arrivalLane="447569997#1_1" arrivalPos="180.93" arrivalSpeed="8.99" duration="83.00" routeLength="726.74" waitingTime="6.00" waitingCount="3" stopTime="0.00" timeLoss="27.76" rerouteNo="1" devices="tripinfo_h13377c2:3 routing_h13377c2:3 emissions_h13377c2:3" vType="default_016" speedFactor="1.23" vaporized="">
        <emissions CO_abs="3589.277851" CO2_abs="192501.867323" HC_abs="20.733659" PMx_abs="3.377894" NOx_abs="78.306778" fuel_abs="82.748896" electricity_abs="0"/>
    </tripinfo>
    <tripinfo id="carIn53503:1" depart="57763.00" departLane="-306240162#1_0" departPos="5.10" departSpeed="0.00" departDelay="2.40" arrival="57897.00" arrivalLane="24634510#6_1" arrivalPos="76.64" arrivalSpeed="12.40" duration="134.00" routeLength="1440.47" waitingTime="12.00" waitingCount="1" stopTime="0.00" timeLoss="31.46" rerouteNo="1" devices="tripinfo_carIn53503:1 routing_carIn53503:1 emissions_carIn53503:1" vType="default_016" speedFactor="0.96" vaporized="">
        <emissions CO_abs="5763.366104" CO2_abs="355340.120712" HC_abs="34.578716" PMx_abs="6.175583" NOx_abs="143.377833" fuel_abs="152.746058" electricity_abs="0"/>
    </tripinfo>
    <tripinfo id="randUni23028:1" depart="57884.00" departLane="124812856#0_1" departPos="5.10" departSpeed="0.00" departDelay="0.10" arrival="57899.00" arrivalLane="201956810_1" arrivalPos="71.65" arrivalSpeed="13.65" duration="15.00" routeLength="134.91" waitingTime="0.00" waitingCount="0" stopTime="0.00" timeLoss="4.37" rerouteNo="1" devices="tripinfo_randUni23028:1 routing_randUni23028:1 emissions_randUni23028:1" vType="random_016" speedFactor="1.06" vaporized="">
        <emissions CO_abs="1290.054541" CO2_abs="69009.964798" HC_abs="7.517105" PMx_abs="1.376290" NOx_abs="29.450347" fuel_abs="29.664365" electricity_abs="0"/>
    </tripinfo>
    <tripinfo id="carIn13443:1" depart="57729.00" departLane="272042143_1" departPos="5.10" departSpeed="0.00" departDelay="0.80" arrival="57907.00" arrivalLane="399835085#1_1" arrivalPos="212.23" arrivalSpeed="6.71" duration="178.00" routeLength="1757.45" waitingTime="0.00" waitingCount="0" stopTime="0.00" timeLoss="23.86" rerouteNo="1" devices="tripinfo_carIn13443:1 routing_carIn13443:1 emissions_carIn13443:1" vType="default_016" speedFactor="0.92" vaporized="">
        <emissions CO_abs="5402.923556" CO2_abs="375919.901404" HC_abs="33.308405" PMx_abs="5.888451" NOx_abs="148.855306" fuel_abs="161.592710" electricity_abs="0"/>
    </tripinfo>
    <tripinfo id="carIn14532:1" depart="57742.00" departLane="272042143_1" departPos="5.10" departSpeed="0.00" departDelay="0.90" arrival="57909.00" arrivalLane="399835085#1_1" arrivalPos="212.23" arrivalSpeed="8.83" duration="167.00" routeLength="1757.45" waitingTime="12.00" waitingCount="1" stopTime="0.00" timeLoss="41.42" rerouteNo="1" devices="tripinfo_carIn14532:1 routing_carIn14532:1 emissions_carIn14532:1" vType="default_016" speedFactor="1.13" vaporized="">
        <emissions CO_abs="7359.888142" CO2_abs="422445.612538" HC_abs="43.249298" PMx_abs="7.541642" NOx_abs="171.632483" fuel_abs="181.592044" electricity_abs="0"/>
    </tripinfo>
    <tripinfo id="carIn27009:1" depart="57673.00" departLane="-447569998#1_1" departPos="5.10" departSpeed="0.00" departDelay="0.50" arrival="57922.00" arrivalLane="-26677539_1" arrivalPos="152.75" arrivalSpeed="8.27" duration="249.00" routeLength="699.63" waitingTime="152.00" waitingCount="1" stopTime="0.00" timeLoss="167.85" rerouteNo="1" devices="tripinfo_carIn27009:1 routing_carIn27009:1 emissions_carIn27009:1" vType="default_015" speedFactor="1.04" vaporized="">
        <emissions CO_abs="27807.164901" CO2_abs="564986.037358" HC_abs="139.801336" PMx_abs="12.610909" NOx_abs="249.796649" fuel_abs="242.875484" electricity_abs="0"/>
    </tripinfo>
    <tripinfo id="carIn129809:1" depart="57729.00" departLane="-447569998#1_1" departPos="5.10" departSpeed="0.00" departDelay="1.00" arrival="57930.00" arrivalLane="-315358244_1" arrivalPos="33.95" arrivalSpeed="15.87" duration="201.00" routeLength="706.49" waitingTime="129.00" waitingCount="2" stopTime="0.00" timeLoss="149.04" rerouteNo="1" devices="tripinfo_carIn129809:1 routing_carIn129809:1 emissions_carIn129809:1" vType="default_015" speedFactor="1.16" vaporized="">
        <emissions CO_abs="23130.251338" CO2_abs="505737.357850" HC_abs="117.158648" PMx_abs="11.343080" NOx_abs="222.567999" fuel_abs="217.404281" electricity_abs="0"/>
    </tripinfo>
    <tripinfo id="h3426c1:1" depart="57864.00" departLane="-160314345#2_1" departPos="5.10" departSpeed="0.00" departDelay="0.00" arrival="57937.00" arrivalLane="386687235_1" arrivalPos="80.84" arrivalSpeed="13.88" duration="73.00" routeLength="726.87" waitingTime="0.00" waitingCount="0" stopTime="0.00" timeLoss="7.98" rerouteNo="1" devices="tripinfo_h3426c1:1 routing_h3426c1:1 emissions_h3426c1:1" vType="default_016" speedFactor="1.04" vaporized="">
        <emissions CO_abs="2709.489051" CO2_abs="170841.920640" HC_abs="16.289035" PMx_abs="2.783751" NOx_abs="68.262420" fuel_abs="73.438066" electricity_abs="0"/>
    </tripinfo>
    <tripinfo id="carIn3969:1" depart="57629.00" departLane="124812856#0_1" departPos="5.10" departSpeed="0.00" departDelay="5.30" arrival="57950.00" arrivalLane="-128361102#1_1" arrivalPos="274.68" arrivalSpeed="10.22" duration="321.00" routeLength="2232.46" waitingTime="78.00" waitingCount="3" stopTime="0.00" timeLoss="120.22" rerouteNo="1" devices="tripinfo_carIn3969:1 routing_carIn3969:1 emissions_carIn3969:1" vType="default_016" speedFactor="0.82" vaporized="">
        <emissions CO_abs="20010.314888" CO2_abs="680541.383471" HC_abs="106.866239" PMx_abs="12.289157" NOx_abs="280.879546" fuel_abs="292.543296" electricity_abs="0"/>
    </tripinfo>
    <tripinfo id="carIn8642:1" depart="57774.00" departLane="-447569998#1_1" departPos="5.10" departSpeed="0.00" departDelay="0.90" arrival="57950.00" arrivalLane="-315358244_1" arrivalPos="33.95" arrivalSpeed="10.37" duration="176.00" routeLength="706.49" waitingTime="86.00" waitingCount="2" stopTime="0.00" timeLoss="101.61" rerouteNo="1" devices="tripinfo_carIn8642:1 routing_carIn8642:1 emissions_carIn8642:1" vType="default_016" speedFactor="0.81" vaporized="">
        <emissions CO_abs="15921.172136" CO2_abs="367132.211915" HC_abs="81.042792" PMx_abs="7.732681" NOx_abs="159.085285" fuel_abs="157.821225" electricity_abs="0"/>
    </tripinfo>
    <tripinfo id="h17600c1:1" depart="57662.00" departLane="272042143_1" departPos="5.10" departSpeed="0.00" departDelay="0.30" arrival="57951.00" arrivalLane="201238729#3_1" arrivalPos="431.02" arrivalSpeed="14.31" duration="289.00" routeLength="2100.26" waitingTime="126.00" waitingCount="1" stopTime="0.00" timeLoss="144.22" rerouteNo="1" devices="tripinfo_h17600c1:1 routing_h17600c1:1 emissions_h17600c1:1" vType="default_016" speedFactor="1.05" vaporized="">
        <emissions CO_abs="23887.310171" CO2_abs="715754.849285" HC_abs="125.377594" PMx_abs="13.940951" NOx_abs="298.206462" fuel_abs="307.681704" electricity_abs="0"/>
    </tripinfo>
    <tripinfo id="carIn132499:1" depart="57740.00" departLane="272042143_1" departPos="5.10" departSpeed="0.00" departDelay="0.70" arrival="57952.00" arrivalLane="201238729#3_2" arrivalPos="431.02" arrivalSpeed="13.15" duration="212.00" routeLength="2100.26" waitingTime="40.00" waitingCount="1" stopTime="0.00" timeLoss="59.10" rerouteNo="1" devices="tripinfo_carIn132499:1 routing_carIn132499:1 emissions_carIn132499:1" vType="default_016" speedFactor="0.99" vaporized="">
        <emissions CO_abs="10000.567645" CO2_abs="489582.781442" HC_abs="56.894720" PMx_abs="8.202800" NOx_abs="195.018252" fuel_abs="210.453724" electricity_abs="0"/>
    </tripinfo>
    <tripinfo id="h8468c1:3" depart="57760.00" departLane="176550249#3_1" departPos="5.10" departSpeed="0.00" departDelay="0.00" arrival="57952.00" arrivalLane="201238729#3_1" arrivalPos="431.02" arrivalSpeed="14.65" duration="192.00" routeLength="1949.14" waitingTime="40.00" waitingCount="2" stopTime="0.00" timeLoss="66.55" rerouteNo="1" devices="tripinfo_h8468c1:3 routing_h8468c1:3 emissions_h8468c1:3" vType="default_016" speedFactor="1.13" vaporized="">
        <emissions CO_abs="10428.395711" CO2_abs="487975.356013" HC_abs="58.912793" PMx_abs="9.000927" NOx_abs="199.374302" fuel_abs="209.761911" electricity_abs="0"/>
    </tripinfo>
    <tripinfo id="carIn50326:1" depart="57651.00" departLane="128361102#0_1" departPos="5.10" departSpeed="0.00" departDelay="0.30" arrival="57953.00" arrivalLane="18809673#0_1" arrivalPos="473.56" arrivalSpeed="12.44" duration="302.00" routeLength="1591.07" waitingTime="141.00" waitingCount="2" stopTime="0.00" timeLoss="169.09" rerouteNo="1" devices="tripinfo_carIn50326:1 routing_carIn50326:1 emissions_carIn50326:1" vType="default_016" speedFactor="0.97" vaporized="">
        <emissions CO_abs="27176.817986" CO2_abs="701845.203258" HC_abs="140.143666" PMx_abs="14.452791" NOx_abs="300.597283" fuel_abs="301.704074" electricity_abs="0"/>
    </tripinfo>
    <tripinfo id="h2859c1:1" depart="57822.00" departLane="201238726#0.117_1" departPos="5.10" departSpeed="0.00" departDelay="0.10" arrival="57957.00" arrivalLane="386687235_1" arrivalPos="80.84" arrivalSpeed="14.45" duration="135.00" routeLength="1631.78" waitingTime="17.00" waitingCount="1" stopTime="0.00" timeLoss="26.96" rerouteNo="1" devices="tripinfo_h2859c1:1 routing_h2859c1:1 emissions_h2859c1:1" vType="default_016" speedFactor="1.09" vaporized="">
        <emissions CO_abs="4822.768868" CO2_abs="311299.513372" HC_abs="29.027529" PMx_abs="5.162304" NOx_abs="122.176374" fuel_abs="133.815151" electricity_abs="0"/>
    </tripinfo>
    <tripinfo id="carIn9695:1" depart="57822.00" departLane="272042143_1" departPos="5.10" departSpeed="0.00" departDelay="0.80" arrival="57961.00" arrivalLane="-315358254#1_1" arrivalPos="137.16" arrivalSpeed="12.54" duration="139.00" routeLength="1596.88" waitingTime="0.00" waitingCount="0" stopTime="0.00" timeLoss="16.31" rerouteNo="1" devices="tripinfo_carIn9695:1 routing_carIn9695:1 emissions_carIn9695:1" vType="default_016" speedFactor="0.95" vaporized="">
        <emissions CO_abs="4173.080905" CO2_abs="329054.190498" HC_abs="26.678112" PMx_abs="5.335491" NOx_abs="130.522844" fuel_abs="141.446387" electricity_abs="0"/>
    </tripinfo>
    <tripinfo id="h7032c2:3" depart="57863.00" departLane="315358244_1" departPos="5.10" departSpeed="0.00" departDelay="0.40" arrival="57963.00" arrivalLane="26677541_1" arrivalPos="152.31" arrivalSpeed="14.17" duration="100.00" routeLength="925.70" waitingTime="0.00" waitingCount="0" stopTime="0.00" timeLoss="13.11" rerouteNo="1" devices="tripinfo_h7032c2:3 routing_h7032c2:3 emissions_h7032c2:3" vType="default_016" speedFactor="1.03" vaporized="">
        <emissions CO_abs="4220.739934" CO2_abs="247363.778095" HC_abs="24.964187" PMx_abs="4.152550" NOx_abs="100.077626" fuel_abs="106.331758" electricity_abs="0"/>
    </tripinfo>
    <tripinfo id="randUni11215:1" depart="57953.00" departLane="124812856#0_1" departPos="5.10" departSpeed="0.00" departDelay="0.30" arrival="57969.00" arrivalLane="201956810_1" arrivalPos="71.65" arrivalSpeed="12.40" duration="16.00" routeLength="134.91" waitingTime="0.00" waitingCount="0" stopTime="0.00" timeLoss="3.85" rerouteNo="1" devices="tripinfo_randUni11215:1 routing_randUni11215:1 emissions_randUni11215:1" vType="random_016" speedFactor="0.90" vaporized="">
        <emissions CO_abs="1174.042688" CO2_abs="63748.673042" HC_abs="6.849932" PMx_abs="1.198627" NOx_abs="26.746353" fuel_abs="27.402860" electricity_abs="0"/>
    </tripinfo>
    <tripinfo id="carIn76994:1" depart="57828.00" departLane="272042143_1" departPos="5.10" departSpeed="0.00" departDelay="2.80" arrival="57988.00" arrivalLane="399835085#1_1" arrivalPos="212.23" arrivalSpeed="8.02" duration="160.00" routeLength="1757.45" waitingTime="0.00" waitingCount="0" stopTime="0.00" timeLoss="22.67" rerouteNo="1" devices="tripinfo_carIn76994:1 routing_carIn76994:1 emissions_carIn76994:1" vType="default_016" speedFactor="1.03" vaporized="">
        <emissions CO_abs="5104.967290" CO2_abs="382454.459663" HC_abs="32.150748" PMx_abs="6.110751" NOx_abs="151.382624" fuel_abs="164.401220" electricity_abs="0"/>
    </tripinfo>
    <tripinfo id="carIn113750:1" depart="57961.00" departLane="24599188#0.94_1" departPos="5.10" departSpeed="0.00" departDelay="0.30" arrival="57988.00" arrivalLane="24599188#0.94_1" arrivalPos="186.59" arrivalSpeed="7.77" duration="27.00" routeLength="181.49" waitingTime="0.00" waitingCount="0" stopTime="0.00" timeLoss="3.25" rerouteNo="1" devices="tripinfo_carIn113750:1 routing_carIn113750:1 emissions_carIn113750:1" vType="default_016" speedFactor="0.93" vaporized="">
        <emissions CO_abs="1332.876080" CO2_abs="57322.871353" HC_abs="7.387466" PMx_abs="0.962217" NOx_abs="23.524387" fuel_abs="24.641071" electricity_abs="0"/>
    </tripinfo>
    <tripinfo id="randUni20153:1" depart="57834.00" departLane="272042143_1" departPos="5.10" departSpeed="0.00" departDelay="5.60" arrival="57991.00" arrivalLane="201238729#3_1" arrivalPos="431.02" arrivalSpeed="15.42" duration="157.00" routeLength="2100.26" waitingTime="0.00" waitingCount="0" stopTime="0.00" timeLoss="20.79" rerouteNo="1" devices="tripinfo_randUni20153:1 routing_randUni20153:1 emissions_randUni20153:1" vType="random_016" speedFactor="1.12" vaporized="">
        <emissions CO_abs="4308.653476" CO2_abs="400256.030950" HC_abs="28.683860" PMx_abs="6.402889" NOx_abs="155.536624" fuel_abs="172.052720" electricity_abs="0"/>
    </tripinfo>
    <tripinfo id="carIn115169:1" depart="57759.00" departLane="24599188#0.94_1" departPos="5.10" departSpeed="0.00" departDelay="0.50" arrival="57994.00" arrivalLane="-10427692#3_1" arrivalPos="28.64" arrivalSpeed="17.37" duration="235.00" routeLength="2183.23" waitingTime="0.00" waitingCount="0" stopTime="0.00" timeLoss="30.71" rerouteNo="1" devices="tripinfo_carIn115169:1 routing_carIn115169:1 emissions_carIn115169:1" vType="default_016" speedFactor="0.83" vaporized="">
        <emissions CO_abs="8686.276589" CO2_abs="528251.932291" HC_abs="51.762387" PMx_abs="8.578808" NOx_abs="211.924223" fuel_abs="227.074451" electricity_abs="0"/>
    </tripinfo>
    <tripinfo id="carIn42952:1" depart="57837.00" departLane="272042143_1" departPos="5.10" departSpeed="0.00" departDelay="7.00" arrival="57994.00" arrivalLane="399835085#1_1" arrivalPos="212.23" arrivalSpeed="7.04" duration="157.00" routeLength="1757.45" waitingTime="0.00" waitingCount="0" stopTime="0.00" timeLoss="15.02" rerouteNo="1" devices="tripinfo_carIn42952:1 routing_carIn42952:1 emissions_carIn42952:1" vType="default_016" speedFactor="1.00" vaporized="">
        <emissions CO_abs="4405.316656" CO2_abs="334672.229988" HC_abs="27.841896" PMx_abs="5.265371" NOx_abs="131.707834" fuel_abs="143.861729" electricity_abs="0"/>
    </tripinfo>
    <tripinfo id="carIn95912:1" depart="57825.00" departLane="272042143_1" departPos="5.10" departSpeed="0.00" departDelay="1.40" arrival="57995.00" arrivalLane="201238729#3_1" arrivalPos="431.02" arrivalSpeed="12.65" duration="170.00" routeLength="2100.26" waitingTime="0.00" waitingCount="0" stopTime="0.00" timeLoss="17.44" rerouteNo="1" devices="tripinfo_carIn95912:1 routing_carIn95912:1 emissions_carIn95912:1" vType="default_016" speedFactor="0.99" vaporized="">
        <emissions CO_abs="4373.308724" CO2_abs="390850.775692" HC_abs="28.946692" PMx_abs="6.003001" NOx_abs="151.782672" fuel_abs="168.010223" electricity_abs="0"/>
    </tripinfo>
    <tripinfo id="carIn68868:1" depart="57783.00" departLane="-306240162#1_0" departPos="5.10" departSpeed="0.00" departDelay="1.80" arrival="57999.00" arrivalLane="386687235_1" arrivalPos="80.84" arrivalSpeed="14.02" duration="216.00" routeLength="2343.48" waitingTime="38.00" waitingCount="2" stopTime="0.00" timeLoss="63.22" rerouteNo="1" devices="tripinfo_carIn68868:1 routing_carIn68868:1 emissions_carIn68868:1" vType="default_016" speedFactor="1.07" vaporized="">
        <emissions CO_abs="10553.886015" CO2_abs="509124.113374" HC_abs="59.910257" PMx_abs="9.258158" NOx_abs="206.933656" fuel_abs="218.852887" electricity_abs="0"/>
    </tripinfo>
    <tripinfo id="h17549c1:1" depart="57680.00" departLane="-447569998#1_1" departPos="5.10" departSpeed="0.00" departDelay="0.00" arrival="58002.00" arrivalLane="-315358254#1_1" arrivalPos="137.16" arrivalSpeed="10.58" duration="322.00" routeLength="1746.60" waitingTime="140.00" waitingCount="1" stopTime="0.00" timeLoss="160.15" rerouteNo="1" devices="tripinfo_h17549c1:1 routing_h17549c1:1 emissions_h17549c1:1" vType="default_016" speedFactor="0.85" vaporized="">
        <emissions CO_abs="26804.270817" CO2_abs="674144.884575" HC_abs="137.725540" PMx_abs="13.648967" NOx_abs="287.771029" fuel_abs="289.797363" electricity_abs="0"/>
    </tripinfo>
    <tripinfo id="randUni31145:1" depart="57971.00" departLane="10425609#0_1" departPos="5.10" departSpeed="0.00" departDelay="157.30" arrival="58002.00" arrivalLane="201956810_1" arrivalPos="71.65" arrivalSpeed="12.48" duration="31.00" routeLength="255.78" waitingTime="2.00" waitingCount="1" stopTime="0.00" timeLoss="10.01" rerouteNo="1" devices="tripinfo_randUni31145:1 routing_randUni31145:1 emissions_randUni31145:1" vType="random_016" speedFactor="0.95" vaporized="">
        <emissions CO_abs="1797.156629" CO2_abs="94708.574809" HC_abs="10.411583" PMx_abs="1.755142" NOx_abs="39.539287" fuel_abs="40.711302" electricity_abs="0"/>
    </tripinfo>
    <tripinfo id="randUni15030:1" depart="57735.00" departLane="386687232#0_1" departPos="5.10" departSpeed="0.00" departDelay="0.10" arrival="58003.00" arrivalLane="26677539_1" arrivalPos="151.98" arrivalSpeed="8.76" duration="268.00" routeLength="919.89" waitingTime="175.00" waitingCount="1" stopTime="0.00" timeLoss="190.95" rerouteNo="1" devices="tripinfo_randUni15030:1 routing_randUni15030:1 emissions_randUni15030:1" vType="random_016" speedFactor="1.09" vaporized="">
        <emissions CO_abs="31968.321071" CO2_abs="684582.013538" HC_abs="161.601234" PMx_abs="15.307021" NOx_abs="301.317601" fuel_abs="294.285890" electricity_abs="0"/>
    </tripinfo>
    <tripinfo id="randUni2407:1" depart="57972.00" departLane="10425609#0_1" departPos="5.10" departSpeed="0.00" departDelay="152.80" arrival="58004.00" arrivalLane="201956810_1" arrivalPos="71.65" arrivalSpeed="15.10" duration="32.00" routeLength="255.78" waitingTime="0.00" waitingCount="0" stopTime="0.00" timeLoss="13.58" rerouteNo="1" devices="tripinfo_randUni2407:1 routing_randUni2407:1 emissions_randUni2407:1" vType="random_016" speedFactor="1.12" vaporized="">
        <emissions CO_abs="2227.415951" CO2_abs="118552.973874" HC_abs="12.913336" PMx_abs="2.190579" NOx_abs="49.213949" fuel_abs="50.961035" electricity_abs="0"/>
    </tripinfo>
    <tripinfo id="carIn86816:1" depart="57617.00" departLane="128361102#0_1" departPos="5.10" departSpeed="0.00" departDelay="0.80" arrival="58007.00" arrivalLane="201956811#0_1" arrivalPos="40.40" arrivalSpeed="13.23" duration="390.00" routeLength="2067.33" waitingTime="196.00" waitingCount="3" stopTime="0.00" timeLoss="235.21" rerouteNo="1" devices="tripinfo_carIn86816:1 routing_carIn86816:1 emissions_carIn86816:1" vType="default_016" speedFactor="0.98" vaporized="">
        <emissions CO_abs="35921.539012" CO2_abs="946594.025869" HC_abs="185.748142" PMx_abs="19.756789" NOx_abs="406.562011" fuel_abs="406.913931" electricity_abs="0"/>
    </tripinfo>
    <tripinfo id="randUni3548:1" depart="57726.00" departLane="-447569998#1_1" departPos="5.10" departSpeed="0.00" departDelay="0.00" arrival="58007.00" arrivalLane="-315358254#1_1" arrivalPos="137.16" arrivalSpeed="11.14" duration="281.00" routeLength="1746.60" waitingTime="99.00" waitingCount="1" stopTime="0.00" timeLoss="126.61" rerouteNo="1" devices="tripinfo_randUni3548:1 routing_randUni3548:1 emissions_randUni3548:1" vType="random_016" speedFactor="0.89" vaporized="">
        <emissions CO_abs="21567.289569" CO2_abs="639814.666246" HC_abs="113.070342" PMx_abs="12.268606" NOx_abs="268.473168" fuel_abs="275.037451" electricity_abs="0"/>
    </tripinfo>
    <tripinfo id="h13496c1:1" depart="57843.00" departLane="272042143_1" departPos="5.10" departSpeed="0.00" departDelay="9.80" arrival="58007.00" arrivalLane="399835085#1_1" arrivalPos="212.23" arrivalSpeed="7.87" duration="164.00" routeLength="1757.45" waitingTime="0.00" waitingCount="0" stopTime="0.00" timeLoss="21.57" rerouteNo="1" devices="tripinfo_h13496c1:1 routing_h13496c1:1 emissions_h13496c1:1" vType="default_016" speedFactor="1.00" vaporized="">
        <emissions CO_abs="5143.522694" CO2_abs="376739.123041" HC_abs="32.168939" PMx_abs="5.925855" NOx_abs="148.696047" fuel_abs="161.944658" electricity_abs="0"/>
    </tripinfo>
    <tripinfo id="randUni33724:1" depart="57646.00" departLane="128361102#0_1" departPos="5.10" departSpeed="0.00" departDelay="1.20" arrival="58009.00" arrivalLane="201956811#0_1" arrivalPos="40.40" arrivalSpeed="10.70" duration="363.00" routeLength="2067.33" waitingTime="145.00" waitingCount="3" stopTime="0.00" timeLoss="181.07" rerouteNo="1" devices="tripinfo_randUni33724:1 routing_randUni33724:1 emissions_randUni33724:1" vType="random_016" speedFactor="0.83" vaporized="">