<?xml version="1.0" encoding="UTF-8"?>

<!-- generated on 2021-10-26 21:24:14 by Eclipse SUMO sumo Version 1.10.0
<configuration xmlns:xsi="http://www.w3.org/2001/XMLSchema-instance" xsi:noNamespaceSchemaLocation="http://sumo.dlr.de/xsd/sumoConfiguration.xsd">

    <input>
        <net-file value="/Users/behradkoohy/sumo-scratchpad/RESCO/environments/ingolstadt21/ingolstadt21.net.xml"/>
        <route-files value="/Users/behradkoohy/sumo-scratchpad/RESCO/environments/ingolstadt21/ingolstadt21.rou.xml"/>
    </input>

    <output>
        <tripinfo-output value="/Users/behradkoohy/sumo-scratchpad/RESCO/logs/MPLight-tr0-ingolstadt21-21-mplight_full-pressure/tripinfo_50.xml"/>
        <tripinfo-output.write-unfinished value="true"/>
    </output>

    <time>
        <begin value="57600"/>
        <end value="61200"/>
    </time>

    <processing>
        <time-to-teleport value="-1"/>
    </processing>

    <report>
        <no-warnings value="true"/>
        <no-step-log value="true"/>
    </report>

    <emissions>
        <device.emissions.probability value="1"/>
    </emissions>

    <traci_server>
        <remote-port value="65087"/>
    </traci_server>

    <random_number>
        <random value="true"/>
    </random_number>

</configuration>
-->

<tripinfos xmlns:xsi="http://www.w3.org/2001/XMLSchema-instance" xsi:noNamespaceSchemaLocation="http://sumo.dlr.de/xsd/tripinfo_file.xsd">
    <tripinfo id="h15454c2:3" depart="57612.00" departLane="24608844_1" departPos="5.10" departSpeed="0.00" departDelay="0.50" arrival="57652.00" arrivalLane="32978638#0_1" arrivalPos="49.29" arrivalSpeed="12.80" duration="40.00" routeLength="354.79" waitingTime="0.00" waitingCount="0" stopTime="0.00" timeLoss="4.37" rerouteNo="1" devices="tripinfo_h15454c2:3 routing_h15454c2:3 emissions_h15454c2:3" vType="default_016" speedFactor="0.96" vaporized="">
        <emissions CO_abs="1616.015978" CO2_abs="90695.997161" HC_abs="9.450481" PMx_abs="1.440942" NOx_abs="36.235783" fuel_abs="38.986745" electricity_abs="0"/>
    </tripinfo>
    <tripinfo id="carIn53971:1" depart="57640.00" departLane="272042143_1" departPos="5.10" departSpeed="0.00" departDelay="0.80" arrival="57691.00" arrivalLane="24634414#1_1" arrivalPos="162.19" arrivalSpeed="8.26" duration="51.00" routeLength="493.04" waitingTime="0.00" waitingCount="0" stopTime="0.00" timeLoss="9.22" rerouteNo="1" devices="tripinfo_carIn53971:1 routing_carIn53971:1 emissions_carIn53971:1" vType="default_016" speedFactor="1.10" vaporized="">
        <emissions CO_abs="2316.843703" CO2_abs="140970.110077" HC_abs="13.787961" PMx_abs="2.450430" NOx_abs="57.503188" fuel_abs="60.597184" electricity_abs="0"/>
    </tripinfo>
    <tripinfo id="h7800c1:5" depart="57696.00" departLane="-447569998#1_1" departPos="5.10" departSpeed="0.00" departDelay="0.00" arrival="57719.00" arrivalLane="-447569998#1_1" arrivalPos="180.76" arrivalSpeed="8.93" duration="23.00" routeLength="175.66" waitingTime="0.00" waitingCount="0" stopTime="0.00" timeLoss="3.34" rerouteNo="1" devices="tripinfo_h7800c1:5 routing_h7800c1:5 emissions_h7800c1:5" vType="default_016" speedFactor="1.11" vaporized="">
        <emissions CO_abs="1062.359112" CO2_abs="48453.915502" HC_abs="5.955600" PMx_abs="0.816600" NOx_abs="19.820318" fuel_abs="20.828570" electricity_abs="0"/>
    </tripinfo>
    <tripinfo id="carIn22761:1" depart="57616.00" departLane="-306240162#1_0" departPos="5.10" departSpeed="0.00" departDelay="2.10" arrival="57734.00" arrivalLane="399835085#1_1" arrivalPos="212.23" arrivalSpeed="7.75" duration="118.00" routeLength="1093.26" waitingTime="15.00" waitingCount="1" stopTime="0.00" timeLoss="40.23" rerouteNo="1" devices="tripinfo_carIn22761:1 routing_carIn22761:1 emissions_carIn22761:1" vType="default_016" speedFactor="1.01" vaporized="">
        <emissions CO_abs="6943.300308" CO2_abs="344578.412207" HC_abs="39.746052" PMx_abs="6.625656" NOx_abs="143.394037" fuel_abs="148.120198" electricity_abs="0"/>
    </tripinfo>
    <tripinfo id="h9563c2:5" depart="57631.00" departLane="315358244_1" departPos="5.10" departSpeed="0.00" departDelay="0.70" arrival="57735.00" arrivalLane="386687235_1" arrivalPos="80.84" arrivalSpeed="15.39" duration="104.00" routeLength="1186.14" waitingTime="8.00" waitingCount="2" stopTime="0.00" timeLoss="29.48" rerouteNo="1" devices="tripinfo_h9563c2:5 routing_h9563c2:5 emissions_h9563c2:5" vType="default_016" speedFactor="1.16" vaporized="">
        <emissions CO_abs="4250.322736" CO2_abs="292982.284008" HC_abs="26.206133" PMx_abs="5.165465" NOx_abs="117.991531" fuel_abs="125.940516" electricity_abs="0"/>
    </tripinfo>
    <tripinfo id="h4538c1:1" depart="57701.00" departLane="-10427692#1_1" departPos="5.10" departSpeed="0.00" departDelay="0.00" arrival="57738.00" arrivalLane="-128361102#1_1" arrivalPos="274.68" arrivalSpeed="14.43" duration="37.00" routeLength="440.74" waitingTime="0.00" waitingCount="0" stopTime="0.00" timeLoss="6.84" rerouteNo="1" devices="tripinfo_h4538c1:1 routing_h4538c1:1 emissions_h4538c1:1" vType="default_016" speedFactor="1.05" vaporized="">
        <emissions CO_abs="1549.049614" CO2_abs="110868.184200" HC_abs="9.612290" PMx_abs="1.887953" NOx_abs="44.451517" fuel_abs="47.657500" electricity_abs="0"/>
    </tripinfo>
    <tripinfo id="h5979c1:5" depart="57669.00" departLane="399835085#1_1" departPos="5.10" departSpeed="0.00" departDelay="0.00" arrival="57753.00" arrivalLane="-315358254#1_1" arrivalPos="137.16" arrivalSpeed="13.55" duration="84.00" routeLength="659.33" waitingTime="0.00" waitingCount="0" stopTime="0.00" timeLoss="9.38" rerouteNo="1" devices="tripinfo_h5979c1:5 routing_h5979c1:5 emissions_h5979c1:5" vType="default_016" speedFactor="0.98" vaporized="">
        <emissions CO_abs="3155.785309" CO2_abs="163174.644176" HC_abs="18.127355" PMx_abs="2.624339" NOx_abs="65.715466" fuel_abs="70.142678" electricity_abs="0"/>
    </tripinfo>
    <tripinfo id="h317c2:1" depart="57707.00" departLane="-32978638#0_1" departPos="5.10" departSpeed="0.00" departDelay="0.10" arrival="57754.00" arrivalLane="-266565295#5_1" arrivalPos="172.76" arrivalSpeed="13.89" duration="47.00" routeLength="370.53" waitingTime="11.00" waitingCount="1" stopTime="0.00" timeLoss="20.28" rerouteNo="1" devices="tripinfo_h317c2:1 routing_h317c2:1 emissions_h317c2:1" vType="default_016" speedFactor="1.02" vaporized="">
        <emissions CO_abs="2856.120162" CO2_abs="130479.331822" HC_abs="16.080661" PMx_abs="2.479466" NOx_abs="54.520207" fuel_abs="56.087939" electricity_abs="0"/>
    </tripinfo>
    <tripinfo id="carIn27009:1" depart="57673.00" departLane="-447569998#1_1" departPos="5.10" departSpeed="0.00" departDelay="0.50" arrival="57766.00" arrivalLane="-26677539_1" arrivalPos="152.75" arrivalSpeed="7.91" duration="93.00" routeLength="699.63" waitingTime="0.00" waitingCount="0" stopTime="0.00" timeLoss="11.31" rerouteNo="1" devices="tripinfo_carIn27009:1 routing_carIn27009:1 emissions_carIn27009:1" vType="default_015" speedFactor="1.03" vaporized="">
        <emissions CO_abs="3674.203231" CO2_abs="180871.854506" HC_abs="20.862993" PMx_abs="2.794443" NOx_abs="72.434596" fuel_abs="77.750338" electricity_abs="0"/>
    </tripinfo>
    <tripinfo id="h3326c1:2" depart="57656.00" departLane="22716069#0_1" departPos="5.10" departSpeed="0.00" departDelay="0.00" arrival="57777.00" arrivalLane="24634517#13_1" arrivalPos="111.62" arrivalSpeed="12.89" duration="121.00" routeLength="1312.81" waitingTime="0.00" waitingCount="0" stopTime="0.00" timeLoss="16.21" rerouteNo="1" devices="tripinfo_h3326c1:2 routing_h3326c1:2 emissions_h3326c1:2" vType="default_016" speedFactor="0.93" vaporized="">
        <emissions CO_abs="4513.185523" CO2_abs="310467.960795" HC_abs="27.810448" PMx_abs="5.214115" NOx_abs="124.995619" fuel_abs="133.457106" electricity_abs="0"/>
    </tripinfo>
    <tripinfo id="carIn60260:1" depart="57606.00" departLane="315358254#0_1" departPos="5.10" departSpeed="0.00" departDelay="0.90" arrival="57785.00" arrivalLane="399835085#1_1" arrivalPos="212.23" arrivalSpeed="9.31" duration="179.00" routeLength="430.98" waitingTime="131.00" waitingCount="1" stopTime="0.00" timeLoss="142.28" rerouteNo="1" devices="tripinfo_carIn60260:1 routing_carIn60260:1 emissions_carIn60260:1" vType="default_016" speedFactor="1.25" vaporized="">
        <emissions CO_abs="23004.003385" CO2_abs="460464.516497" HC_abs="115.562758" PMx_abs="10.655540" NOx_abs="205.446470" fuel_abs="197.943680" electricity_abs="0"/>
    </tripinfo>
    <tripinfo id="h3568c1:3" depart="57656.00" departLane="266565295#5_1" departPos="5.10" departSpeed="0.00" departDelay="0.80" arrival="57788.00" arrivalLane="-24634415_1" arrivalPos="62.03" arrivalSpeed="13.03" duration="132.00" routeLength="807.40" waitingTime="46.00" waitingCount="1" stopTime="0.00" timeLoss="63.65" rerouteNo="1" devices="tripinfo_h3568c1:3 routing_h3568c1:3 emissions_h3568c1:3" vType="default_016" speedFactor="0.95" vaporized="">
        <emissions CO_abs="11069.456416" CO2_abs="352435.155403" HC_abs="58.680087" PMx_abs="7.092706" NOx_abs="150.151468" fuel_abs="151.500261" electricity_abs="0"/>
    </tripinfo>
    <tripinfo id="h3688c1:1" depart="57625.00" departLane="201201950#1_1" departPos="5.10" departSpeed="0.00" departDelay="0.00" arrival="57800.00" arrivalLane="32978638#0_1" arrivalPos="49.29" arrivalSpeed="14.13" duration="175.00" routeLength="1089.75" waitingTime="84.00" waitingCount="1" stopTime="0.00" timeLoss="98.57" rerouteNo="1" devices="tripinfo_h3688c1:1 routing_h3688c1:1 emissions_h3688c1:1" vType="default_016" speedFactor="1.04" vaporized="">
        <emissions CO_abs="16381.440282" CO2_abs="467325.147453" HC_abs="85.565753" PMx_abs="9.670078" NOx_abs="199.615915" fuel_abs="200.888857" electricity_abs="0"/>
    </tripinfo>
    <tripinfo id="carIn30817:1" depart="57681.00" departLane="315358244_1" departPos="5.10" departSpeed="0.00" departDelay="0.20" arrival="57801.00" arrivalLane="447569997#1_1" arrivalPos="180.93" arrivalSpeed="7.65" duration="120.00" routeLength="718.04" waitingTime="42.00" waitingCount="2" stopTime="0.00" timeLoss="58.32" rerouteNo="1" devices="tripinfo_carIn30817:1 routing_carIn30817:1 emissions_carIn30817:1" vType="default_016" speedFactor="1.00" vaporized="">
        <emissions CO_abs="8769.476417" CO2_abs="274228.484702" HC_abs="46.341061" PMx_abs="5.437866" NOx_abs="116.379707" fuel_abs="117.882039" electricity_abs="0"/>
    </tripinfo>
    <tripinfo id="carIn12365:1" depart="57713.00" departLane="315358244_1" departPos="5.10" departSpeed="0.00" departDelay="0.50" arrival="57801.00" arrivalLane="447569997#1_2" arrivalPos="180.93" arrivalSpeed="8.68" duration="88.00" routeLength="718.04" waitingTime="11.00" waitingCount="2" stopTime="0.00" timeLoss="32.14" rerouteNo="1" devices="tripinfo_carIn12365:1 routing_carIn12365:1 emissions_carIn12365:1" vType="default_016" speedFactor="1.11" vaporized="">
        <emissions CO_abs="4767.657227" CO2_abs="217200.402170" HC_abs="26.810105" PMx_abs="4.040329" NOx_abs="90.292681" fuel_abs="93.366055" electricity_abs="0"/>
    </tripinfo>
    <tripinfo id="h330c1:1" depart="57736.00" departLane="-32978638#0_1" departPos="5.10" departSpeed="0.00" departDelay="0.20" arrival="57805.00" arrivalLane="-266565295#5_1" arrivalPos="172.76" arrivalSpeed="12.78" duration="69.00" routeLength="370.53" waitingTime="34.00" waitingCount="1" stopTime="0.00" timeLoss="40.76" rerouteNo="1" devices="tripinfo_h330c1:1 routing_h330c1:1 emissions_h330c1:1" vType="default_016" speedFactor="0.98" vaporized="">
        <emissions CO_abs="6656.612308" CO2_abs="183969.150323" HC_abs="34.647656" PMx_abs="3.930080" NOx_abs="79.846965" fuel_abs="79.082680" electricity_abs="0"/>
    </tripinfo>
    <tripinfo id="h7181c1:1" depart="57660.00" departLane="315358254#0_1" departPos="5.10" departSpeed="0.00" departDelay="0.10" arrival="57810.00" arrivalLane="306240162#0_0" arrivalPos="220.43" arrivalSpeed="16.51" duration="150.00" routeLength="932.35" waitingTime="79.00" waitingCount="1" stopTime="0.00" timeLoss="100.76" rerouteNo="1" devices="tripinfo_h7181c1:1 routing_h7181c1:1 emissions_h7181c1:1" vType="default_016" speedFactor="1.04" vaporized="">
        <emissions CO_abs="17278.917739" CO2_abs="505265.075148" HC_abs="90.718307" PMx_abs="11.155712" NOx_abs="219.243271" fuel_abs="217.196753" electricity_abs="0"/>
    </tripinfo>
    <tripinfo id="carIn80064:1" depart="57603.00" departLane="128361109#1_1" departPos="5.10" departSpeed="0.00" departDelay="0.40" arrival="57818.00" arrivalLane="-315358254#1_1" arrivalPos="137.16" arrivalSpeed="11.28" duration="215.00" routeLength="1587.97" waitingTime="86.00" waitingCount="3" stopTime="0.00" timeLoss="114.58" rerouteNo="1" devices="tripinfo_carIn80064:1 routing_carIn80064:1 emissions_carIn80064:1" vType="default_016" speedFactor="0.88" vaporized="">
        <emissions CO_abs="18103.738142" CO2_abs="615146.605246" HC_abs="96.801586" PMx_abs="12.519168" NOx_abs="259.687544" fuel_abs="264.430309" electricity_abs="0"/>
    </tripinfo>
    <tripinfo id="h11737c1:1" depart="57665.00" departLane="272042143_1" departPos="5.10" departSpeed="0.00" departDelay="1.50" arrival="57827.00" arrivalLane="-315358254#1_1" arrivalPos="137.16" arrivalSpeed="12.98" duration="162.00" routeLength="1596.88" waitingTime="23.00" waitingCount="2" stopTime="0.00" timeLoss="46.86" rerouteNo="1" devices="tripinfo_h11737c1:1 routing_h11737c1:1 emissions_h11737c1:1" vType="default_016" speedFactor="1.02" vaporized="">
        <emissions CO_abs="7599.931468" CO2_abs="407561.884055" HC_abs="44.145080" PMx_abs="7.095274" NOx_abs="164.651906" fuel_abs="175.194856" electricity_abs="0"/>
    </tripinfo>
    <tripinfo id="carIn126288:1" depart="57674.00" departLane="272042143_1" departPos="5.10" departSpeed="0.00" departDelay="0.00" arrival="57828.00" arrivalLane="-315358254#1_1" arrivalPos="137.16" arrivalSpeed="15.68" duration="154.00" routeLength="1596.88" waitingTime="21.00" waitingCount="2" stopTime="0.00" timeLoss="57.46" rerouteNo="1" devices="tripinfo_carIn126288:1 routing_carIn126288:1 emissions_carIn126288:1" vType="default_016" speedFactor="1.21" vaporized="">
        <emissions CO_abs="8029.349173" CO2_abs="430949.488705" HC_abs="46.714785" PMx_abs="8.064264" NOx_abs="177.691995" fuel_abs="185.247401" electricity_abs="0"/>
    </tripinfo>
    <tripinfo id="h17549c1:1" depart="57680.00" departLane="-447569998#1_1" departPos="5.10" departSpeed="0.00" departDelay="0.00" arrival="57833.00" arrivalLane="-315358254#1_1" arrivalPos="137.16" arrivalSpeed="14.14" duration="153.00" routeLength="1746.60" waitingTime="5.00" waitingCount="1" stopTime="0.00" timeLoss="23.29" rerouteNo="1" devices="tripinfo_h17549c1:1 routing_h17549c1:1 emissions_h17549c1:1" vType="default_016" speedFactor="1.06" vaporized="">
        <emissions CO_abs="4390.294982" CO2_abs="337097.652206" HC_abs="27.837730" PMx_abs="5.547583" NOx_abs="133.691142" fuel_abs="144.903952" electricity_abs="0"/>
    </tripinfo>
    <tripinfo id="carIn129809:1" depart="57729.00" departLane="-447569998#1_1" departPos="5.10" departSpeed="0.00" departDelay="1.00" arrival="57834.00" arrivalLane="-315358244_1" arrivalPos="33.95" arrivalSpeed="10.68" duration="105.00" routeLength="706.49" waitingTime="19.00" waitingCount="2" stopTime="0.00" timeLoss="34.02" rerouteNo="1" devices="tripinfo_carIn129809:1 routing_carIn129809:1 emissions_carIn129809:1" vType="default_015" speedFactor="0.85" vaporized="">
        <emissions CO_abs="5593.716732" CO2_abs="221240.101238" HC_abs="30.584031" PMx_abs="3.841210" NOx_abs="90.658267" fuel_abs="95.103568" electricity_abs="0"/>
    </tripinfo>
    <tripinfo id="50R_frequency3.17" depart="57674.00" departLane="-18809673#6_1" departPos="12.10" departSpeed="0.00" departDelay="0.70" arrival="57835.00" arrivalLane="201956811#0_1" arrivalPos="40.40" arrivalSpeed="13.58" duration="161.00" routeLength="1954.47" waitingTime="0.00" waitingCount="0" stopTime="0.00" timeLoss="16.04" rerouteNo="1" devices="tripinfo_50R_frequency3.17 routing_50R_frequency3.17 emissions_50R_frequency3.17" vType="bus" speedFactor="1.00" vaporized="">
        <emissions CO_abs="2940.563278" CO2_abs="1860638.071459" HC_abs="633.166284" PMx_abs="316.559617" NOx_abs="14370.204929" fuel_abs="793.562632" electricity_abs="0"/>
    </tripinfo>
    <tripinfo id="carIn107282:1" depart="57749.00" departLane="-447569998#1_1" departPos="5.10" departSpeed="0.00" departDelay="0.00" arrival="57835.00" arrivalLane="315358242#0_1" arrivalPos="165.37" arrivalSpeed="13.74" duration="86.00" routeLength="448.50" waitingTime="38.00" waitingCount="1" stopTime="0.00" timeLoss="46.54" rerouteNo="1" devices="tripinfo_carIn107282:1 routing_carIn107282:1 emissions_carIn107282:1" vType="default_016" speedFactor="1.05" vaporized="">
        <emissions CO_abs="8005.352482" CO2_abs="210248.545839" HC_abs="41.381964" PMx_abs="4.424377" NOx_abs="90.922252" fuel_abs="90.379816" electricity_abs="0"/>
    </tripinfo>
    <tripinfo id="carIn50326:1" depart="57651.00" departLane="128361102#0_1" departPos="5.10" departSpeed="0.00" departDelay="0.30" arrival="57850.00" arrivalLane="18809673#0_1" arrivalPos="473.56" arrivalSpeed="14.50" duration="199.00" routeLength="1591.07" waitingTime="62.00" waitingCount="1" stopTime="0.00" timeLoss="83.83" rerouteNo="1" devices="tripinfo_carIn50326:1 routing_carIn50326:1 emissions_carIn50326:1" vType="default_016" speedFactor="1.13" vaporized="">
        <emissions CO_abs="14364.907237" CO2_abs="507823.844221" HC_abs="77.251784" PMx_abs="9.730053" NOx_abs="211.226591" fuel_abs="218.296322" electricity_abs="0"/>
    </tripinfo>
    <tripinfo id="randUni15030:1" depart="57735.00" departLane="386687232#0_1" departPos="5.10" departSpeed="0.00" departDelay="0.10" arrival="57850.00" arrivalLane="26677539_1" arrivalPos="151.98" arrivalSpeed="8.91" duration="115.00" routeLength="919.89" waitingTime="25.00" waitingCount="1" stopTime="0.00" timeLoss="40.73" rerouteNo="1" devices="tripinfo_randUni15030:1 routing_randUni15030:1 emissions_randUni15030:1" vType="random_016" speedFactor="1.12" vaporized="">
        <emissions CO_abs="7355.438304" CO2_abs="289145.455120" HC_abs="40.257137" PMx_abs="5.407721" NOx_abs="120.131391" fuel_abs="124.293296" electricity_abs="0"/>
    </tripinfo>
    <tripinfo id="h12244c1:3" depart="57612.00" departLane="315358244_1" departPos="5.10" departSpeed="0.00" departDelay="0.40" arrival="57854.00" arrivalLane="386687235_1" arrivalPos="80.84" arrivalSpeed="12.01" duration="242.00" routeLength="1186.14" waitingTime="116.00" waitingCount="4" stopTime="0.00" timeLoss="143.59" rerouteNo="1" devices="tripinfo_h12244c1:3 routing_h12244c1:3 emissions_h12244c1:3" vType="default_016" speedFactor="0.88" vaporized="">
        <emissions CO_abs="20931.681738" CO2_abs="549474.015402" HC_abs="108.160771" PMx_abs="11.369732" NOx_abs="236.194265" fuel_abs="236.203433" electricity_abs="0"/>
    </tripinfo>
    <tripinfo id="carIn85747:1" depart="57673.00" departLane="128361109#1_1" departPos="5.10" departSpeed="0.00" departDelay="0.70" arrival="57867.00" arrivalLane="386687235_1" arrivalPos="80.84" arrivalSpeed="14.77" duration="194.00" routeLength="2088.57" waitingTime="44.00" waitingCount="1" stopTime="0.00" timeLoss="57.61" rerouteNo="1" devices="tripinfo_carIn85747:1 routing_carIn85747:1 emissions_carIn85747:1" vType="default_016" speedFactor="1.11" vaporized="">
        <emissions CO_abs="9779.330547" CO2_abs="465268.648819" HC_abs="55.178131" PMx_abs="8.129038" NOx_abs="185.792052" fuel_abs="200.001828" electricity_abs="0"/>
    </tripinfo>
    <tripinfo id="carIn118538:1" depart="57683.00" departLane="-447569998#1_1" departPos="5.10" departSpeed="0.00" departDelay="1.00" arrival="57870.00" arrivalLane="399835085#1_1" arrivalPos="212.23" arrivalSpeed="8.03" duration="187.00" routeLength="1907.17" waitingTime="10.00" waitingCount="2" stopTime="0.00" timeLoss="41.91" rerouteNo="1" devices="tripinfo_carIn118538:1 routing_carIn118538:1 emissions_carIn118538:1" vType="default_016" speedFactor="1.12" vaporized="">
        <emissions CO_abs="6728.693794" CO2_abs="433539.907240" HC_abs="40.745526" PMx_abs="7.485360" NOx_abs="175.260324" fuel_abs="186.360658" electricity_abs="0"/>
    </tripinfo>
    <tripinfo id="carIn12775:1" depart="57676.00" departLane="10425609#0_1" departPos="5.10" departSpeed="0.00" departDelay="0.60" arrival="57878.00" arrivalLane="18809673#0_1" arrivalPos="473.56" arrivalSpeed="16.12" duration="202.00" routeLength="1959.45" waitingTime="53.00" waitingCount="2" stopTime="0.00" timeLoss="77.22" rerouteNo="1" devices="tripinfo_carIn12775:1 routing_carIn12775:1 emissions_carIn12775:1" vType="default_016" speedFactor="1.17" vaporized="">
        <emissions CO_abs="12830.588867" CO2_abs="544886.656539" HC_abs="71.130001" PMx_abs="10.341924" NOx_abs="224.325271" fuel_abs="234.226473" electricity_abs="0"/>
    </tripinfo>
    <tripinfo id="h3864c1:3" depart="57678.00" departLane="24693977#1_1" departPos="5.10" departSpeed="0.00" departDelay="0.00" arrival="57880.00" arrivalLane="201956820_1" arrivalPos="48.33" arrivalSpeed="10.82" duration="202.00" routeLength="1574.85" waitingTime="17.00" waitingCount="3" stopTime="0.00" timeLoss="51.21" rerouteNo="1" devices="tripinfo_h3864c1:3 routing_h3864c1:3 emissions_h3864c1:3" vType="default_016" speedFactor="0.86" vaporized="">
        <emissions CO_abs="8549.560100" CO2_abs="424020.071179" HC_abs="48.794733" PMx_abs="7.356498" NOx_abs="173.751826" fuel_abs="182.269902" electricity_abs="0"/>
    </tripinfo>
    <tripinfo id="carIn86816:1" depart="57617.00" departLane="128361102#0_1" departPos="5.10" departSpeed="0.00" departDelay="0.80" arrival="57883.00" arrivalLane="201956811#0_1" arrivalPos="40.40" arrivalSpeed="12.39" duration="266.00" routeLength="2067.33" waitingTime="91.00" waitingCount="1" stopTime="0.00" timeLoss="111.82" rerouteNo="1" devices="tripinfo_carIn86816:1 routing_carIn86816:1 emissions_carIn86816:1" vType="default_016" speedFactor="0.98" vaporized="">
        <emissions CO_abs="18868.411670" CO2_abs="639414.789639" HC_abs="100.844551" PMx_abs="12.145171" NOx_abs="265.680749" fuel_abs="274.863627" electricity_abs="0"/>
    </tripinfo>
    <tripinfo id="h13377c2:3" depart="57808.00" departLane="315358244_1" departPos="5.10" departSpeed="0.00" departDelay="4.60" arrival="57887.00" arrivalLane="447569997#1_1" arrivalPos="180.93" arrivalSpeed="8.13" duration="79.00" routeLength="718.04" waitingTime="3.00" waitingCount="1" stopTime="0.00" timeLoss="18.45" rerouteNo="1" devices="tripinfo_h13377c2:3 routing_h13377c2:3 emissions_h13377c2:3" vType="default_016" speedFactor="1.03" vaporized="">
        <emissions CO_abs="3112.295119" CO2_abs="179374.662111" HC_abs="18.349567" PMx_abs="3.031268" NOx_abs="72.653266" fuel_abs="77.105986" electricity_abs="0"/>
    </tripinfo>
    <tripinfo id="S5R_frequency1.2" depart="57647.00" departLane="315358250#0_1" departPos="12.10" departSpeed="0.00" departDelay="35.40" arrival="57889.00" arrivalLane="386687235_1" arrivalPos="80.84" arrivalSpeed="13.31" duration="242.00" routeLength="1115.62" waitingTime="136.00" waitingCount="2" stopTime="0.00" timeLoss="160.69" rerouteNo="1" devices="tripinfo_S5R_frequency1.2 routing_S5R_frequency1.2 emissions_S5R_frequency1.2" vType="bus" speedFactor="1.00" vaporized="">
        <emissions CO_abs="4700.769146" CO2_abs="2027325.927949" HC_abs="1060.328544" PMx_abs="484.090336" NOx_abs="18201.531110" fuel_abs="864.339523" electricity_abs="0"/>
    </tripinfo>
    <tripinfo id="carIn53503:1" depart="57765.00" departLane="-306240162#1_0" departPos="5.10" departSpeed="0.00" departDelay="4.40" arrival="57893.00" arrivalLane="24634510#6_1" arrivalPos="76.64" arrivalSpeed="12.58" duration="128.00" routeLength="1440.47" waitingTime="0.00" waitingCount="0" stopTime="0.00" timeLoss="27.18" rerouteNo="1" devices="tripinfo_carIn53503:1 routing_carIn53503:1 emissions_carIn53503:1" vType="default_016" speedFactor="0.98" vaporized="">
        <emissions CO_abs="5291.519136" CO2_abs="370909.398035" HC_abs="32.836867" PMx_abs="6.542889" NOx_abs="151.000040" fuel_abs="159.437808" electricity_abs="0"/>
    </tripinfo>
    <tripinfo id="carIn24709:1" depart="57753.00" departLane="266565295#5_1" departPos="5.10" departSpeed="0.00" departDelay="2.50" arrival="57898.00" arrivalLane="-24634506#2_1" arrivalPos="71.32" arrivalSpeed="12.36" duration="145.00" routeLength="1534.27" waitingTime="0.00" waitingCount="0" stopTime="0.00" timeLoss="26.57" rerouteNo="1" devices="tripinfo_carIn24709:1 routing_carIn24709:1 emissions_carIn24709:1" vType="default_016" speedFactor="0.97" vaporized="">
        <emissions CO_abs="5467.049568" CO2_abs="369769.930827" HC_abs="33.569317" PMx_abs="6.378983" NOx_abs="149.882345" fuel_abs="158.948355" electricity_abs="0"/>
    </tripinfo>
    <tripinfo id="randUni23028:1" depart="57884.00" departLane="124812856#0_1" departPos="5.10" departSpeed="0.00" departDelay="0.10" arrival="57900.00" arrivalLane="201956810_1" arrivalPos="71.65" arrivalSpeed="12.22" duration="16.00" routeLength="134.91" waitingTime="0.00" waitingCount="0" stopTime="0.00" timeLoss="4.22" rerouteNo="1" devices="tripinfo_randUni23028:1 routing_randUni23028:1 emissions_randUni23028:1" vType="random_016" speedFactor="0.92" vaporized="">
        <emissions CO_abs="1151.057878" CO2_abs="60698.490077" HC_abs="6.669515" PMx_abs="1.129139" NOx_abs="25.417293" fuel_abs="26.091760" electricity_abs="0"/>
    </tripinfo>
    <tripinfo id="carIn73855:1" depart="57743.00" departLane="386687232#0_1" departPos="5.10" departSpeed="0.00" departDelay="0.50" arrival="57903.00" arrivalLane="-315358244_2" arrivalPos="33.95" arrivalSpeed="15.64" duration="160.00" routeLength="1157.39" waitingTime="61.00" waitingCount="3" stopTime="0.00" timeLoss="85.54" rerouteNo="1" devices="tripinfo_carIn73855:1 routing_carIn73855:1 emissions_carIn73855:1" vType="default_016" speedFactor="1.14" vaporized="">
        <emissions CO_abs="11473.695073" CO2_abs="424036.084357" HC_abs="62.208850" PMx_abs="8.495925" NOx_abs="178.989982" fuel_abs="182.277756" electricity_abs="0"/>
    </tripinfo>
    <tripinfo id="carIn8642:1" depart="57774.00" departLane="-447569998#1_1" departPos="5.10" departSpeed="0.00" departDelay="0.90" arrival="57904.00" arrivalLane="-315358244_1" arrivalPos="33.95" arrivalSpeed="12.56" duration="130.00" routeLength="706.49" waitingTime="52.00" waitingCount="2" stopTime="0.00" timeLoss="69.23" rerouteNo="1" devices="tripinfo_carIn8642:1 routing_carIn8642:1 emissions_carIn8642:1" vType="default_016" speedFactor="1.00" vaporized="">
        <emissions CO_abs="10526.769815" CO2_abs="307151.464371" HC_abs="55.112768" PMx_abs="6.163184" NOx_abs="130.654310" fuel_abs="132.035083" electricity_abs="0"/>
    </tripinfo>
    <tripinfo id="h17600c1:1" depart="57662.00" departLane="272042143_1" departPos="5.10" departSpeed="0.00" departDelay="0.30" arrival="57905.00" arrivalLane="201238729#3_1" arrivalPos="431.02" arrivalSpeed="12.80" duration="243.00" routeLength="2100.26" waitingTime="57.00" waitingCount="2" stopTime="0.00" timeLoss="80.18" rerouteNo="1" devices="tripinfo_h17600c1:1 routing_h17600c1:1 emissions_h17600c1:1" vType="default_016" speedFactor="0.93" vaporized="">
        <emissions CO_abs="12883.370479" CO2_abs="531426.873144" HC_abs="71.028563" PMx_abs="9.360220" NOx_abs="215.996134" fuel_abs="228.441870" electricity_abs="0"/>
    </tripinfo>
    <tripinfo id="h5239c1:3" depart="57834.00" departLane="315358254#0_1" departPos="5.10" departSpeed="0.00" departDelay="0.80" arrival="57905.00" arrivalLane="224892361#3_1" arrivalPos="220.30" arrivalSpeed="22.59" duration="71.00" routeLength="793.34" waitingTime="11.00" waitingCount="2" stopTime="0.00" timeLoss="30.05" rerouteNo="1" devices="tripinfo_h5239c1:3 routing_h5239c1:3 emissions_h5239c1:3" vType="default_016" speedFactor="1.02" vaporized="">
        <emissions CO_abs="5336.261300" CO2_abs="315195.902762" HC_abs="31.912738" PMx_abs="6.514227" NOx_abs="132.706949" fuel_abs="135.488447" electricity_abs="0"/>
    </tripinfo>
    <tripinfo id="carIn121703:1" depart="57647.00" departLane="386687232#0_1" departPos="5.10" departSpeed="0.00" departDelay="0.30" arrival="57906.00" arrivalLane="-315358244_1" arrivalPos="33.95" arrivalSpeed="12.11" duration="259.00" routeLength="1157.39" waitingTime="148.00" waitingCount="3" stopTime="0.00" timeLoss="169.12" rerouteNo="1" devices="tripinfo_carIn121703:1 routing_carIn121703:1 emissions_carIn121703:1" vType="default_016" speedFactor="0.94" vaporized="">
        <emissions CO_abs="26251.484582" CO2_abs="634672.047519" HC_abs="134.400168" PMx_abs="13.541629" NOx_abs="274.927410" fuel_abs="272.828878" electricity_abs="0"/>
    </tripinfo>
    <tripinfo id="carIn126378:1" depart="57746.00" departLane="386687232#0_1" departPos="5.10" departSpeed="0.00" departDelay="1.80" arrival="57906.00" arrivalLane="-315358244_2" arrivalPos="33.95" arrivalSpeed="13.99" duration="160.00" routeLength="1157.39" waitingTime="53.00" waitingCount="3" stopTime="0.00" timeLoss="77.74" rerouteNo="1" devices="tripinfo_carIn126378:1 routing_carIn126378:1 emissions_carIn126378:1" vType="default_016" speedFactor="1.03" vaporized="">
        <emissions CO_abs="10963.567950" CO2_abs="402775.753348" HC_abs="59.365200" PMx_abs="7.822897" NOx_abs="168.844731" fuel_abs="173.139105" electricity_abs="0"/>
    </tripinfo>
    <tripinfo id="carIn118591:1" depart="57689.00" departLane="315358244_1" departPos="5.10" departSpeed="0.00" departDelay="0.20" arrival="57909.00" arrivalLane="386687235_1" arrivalPos="80.84" arrivalSpeed="10.49" duration="220.00" routeLength="1186.14" waitingTime="83.00" waitingCount="3" stopTime="0.00" timeLoss="111.29" rerouteNo="1" devices="tripinfo_carIn118591:1 routing_carIn118591:1 emissions_carIn118591:1" vType="default_016" speedFactor="0.80" vaporized="">