<?xml version="1.0" encoding="UTF-8"?>

<!-- generated on 2021-10-26 20:39:40 by Eclipse SUMO sumo Version 1.10.0
<configuration xmlns:xsi="http://www.w3.org/2001/XMLSchema-instance" xsi:noNamespaceSchemaLocation="http://sumo.dlr.de/xsd/sumoConfiguration.xsd">

    <input>
        <net-file value="/Users/behradkoohy/sumo-scratchpad/RESCO/environments/ingolstadt21/ingolstadt21.net.xml"/>
        <route-files value="/Users/behradkoohy/sumo-scratchpad/RESCO/environments/ingolstadt21/ingolstadt21.rou.xml"/>
    </input>

    <output>
        <tripinfo-output value="/Users/behradkoohy/sumo-scratchpad/RESCO/logs/MPLight-tr0-ingolstadt21-21-mplight_full-pressure/tripinfo_6.xml"/>
        <tripinfo-output.write-unfinished value="true"/>
    </output>

    <time>
        <begin value="57600"/>
        <end value="61200"/>
    </time>

    <processing>
        <time-to-teleport value="-1"/>
    </processing>

    <report>
        <no-warnings value="true"/>
        <no-step-log value="true"/>
    </report>

    <emissions>
        <device.emissions.probability value="1"/>
    </emissions>

    <traci_server>
        <remote-port value="64417"/>
    </traci_server>

    <random_number>
        <random value="true"/>
    </random_number>

</configuration>
-->

<tripinfos xmlns:xsi="http://www.w3.org/2001/XMLSchema-instance" xsi:noNamespaceSchemaLocation="http://sumo.dlr.de/xsd/tripinfo_file.xsd">
    <tripinfo id="carIn60260:1" depart="57606.00" departLane="315358254#0_1" departPos="5.10" departSpeed="0.00" departDelay="0.90" arrival="57677.00" arrivalLane="399835085#1_1" arrivalPos="212.23" arrivalSpeed="5.70" duration="71.00" routeLength="430.98" waitingTime="0.00" waitingCount="0" stopTime="0.00" timeLoss="9.86" rerouteNo="1" devices="tripinfo_carIn60260:1 routing_carIn60260:1 emissions_carIn60260:1" vType="default_016" speedFactor="0.75" vaporized="">
        <emissions CO_abs="3365.655513" CO2_abs="124807.454096" HC_abs="18.170578" PMx_abs="2.043389" NOx_abs="50.945219" fuel_abs="53.650770" electricity_abs="0"/>
    </tripinfo>
    <tripinfo id="h15454c2:3" depart="57612.00" departLane="24608844_1" departPos="5.10" departSpeed="0.00" departDelay="0.50" arrival="57677.00" arrivalLane="32978638#0_1" arrivalPos="49.29" arrivalSpeed="13.15" duration="65.00" routeLength="354.79" waitingTime="21.00" waitingCount="1" stopTime="0.00" timeLoss="31.99" rerouteNo="1" devices="tripinfo_h15454c2:3 routing_h15454c2:3 emissions_h15454c2:3" vType="default_016" speedFactor="1.03" vaporized="">
        <emissions CO_abs="5295.934308" CO2_abs="166696.690105" HC_abs="28.025247" PMx_abs="3.375533" NOx_abs="71.555006" fuel_abs="71.657393" electricity_abs="0"/>
    </tripinfo>
    <tripinfo id="carIn53971:1" depart="57640.00" departLane="272042143_1" departPos="5.10" departSpeed="0.00" departDelay="0.80" arrival="57691.00" arrivalLane="24634414#1_1" arrivalPos="162.19" arrivalSpeed="8.34" duration="51.00" routeLength="493.04" waitingTime="0.00" waitingCount="0" stopTime="0.00" timeLoss="8.57" rerouteNo="1" devices="tripinfo_carIn53971:1 routing_carIn53971:1 emissions_carIn53971:1" vType="default_016" speedFactor="1.08" vaporized="">
        <emissions CO_abs="2401.171834" CO2_abs="139904.646531" HC_abs="14.223106" PMx_abs="2.526577" NOx_abs="57.794997" fuel_abs="60.139128" electricity_abs="0"/>
    </tripinfo>
    <tripinfo id="h7800c1:5" depart="57696.00" departLane="-447569998#1_1" departPos="5.10" departSpeed="0.00" departDelay="0.00" arrival="57720.00" arrivalLane="-447569998#1_2" arrivalPos="180.76" arrivalSpeed="7.70" duration="24.00" routeLength="175.66" waitingTime="0.00" waitingCount="0" stopTime="0.00" timeLoss="4.04" rerouteNo="1" devices="tripinfo_h7800c1:5 routing_h7800c1:5 emissions_h7800c1:5" vType="default_016" speedFactor="1.06" vaporized="">
        <emissions CO_abs="1215.676620" CO2_abs="53499.259823" HC_abs="6.759136" PMx_abs="0.853364" NOx_abs="21.599116" fuel_abs="22.997487" electricity_abs="0"/>
    </tripinfo>
    <tripinfo id="h12244c1:3" depart="57612.00" departLane="315358244_1" departPos="5.10" departSpeed="0.00" departDelay="0.40" arrival="57723.00" arrivalLane="386687235_1" arrivalPos="80.84" arrivalSpeed="13.42" duration="111.00" routeLength="1186.14" waitingTime="8.00" waitingCount="2" stopTime="0.00" timeLoss="28.65" rerouteNo="1" devices="tripinfo_h12244c1:3 routing_h12244c1:3 emissions_h12244c1:3" vType="default_016" speedFactor="1.05" vaporized="">
        <emissions CO_abs="4345.469863" CO2_abs="287685.631858" HC_abs="26.478517" PMx_abs="4.948417" NOx_abs="115.757243" fuel_abs="123.663977" electricity_abs="0"/>
    </tripinfo>
    <tripinfo id="S5R_frequency1.2" depart="57624.00" departLane="315358250#0_1" departPos="12.10" departSpeed="0.00" departDelay="12.40" arrival="57729.00" arrivalLane="386687235_1" arrivalPos="80.84" arrivalSpeed="13.86" duration="105.00" routeLength="1115.62" waitingTime="1.00" waitingCount="1" stopTime="0.00" timeLoss="23.37" rerouteNo="1" devices="tripinfo_S5R_frequency1.2 routing_S5R_frequency1.2 emissions_S5R_frequency1.2" vType="bus" speedFactor="1.00" vaporized="">
        <emissions CO_abs="2023.583717" CO2_abs="1251195.011619" HC_abs="426.698246" PMx_abs="216.490857" NOx_abs="9754.852982" fuel_abs="533.614162" electricity_abs="0"/>
    </tripinfo>
    <tripinfo id="h9563c2:5" depart="57631.00" departLane="315358244_1" departPos="5.10" departSpeed="0.00" departDelay="0.70" arrival="57731.00" arrivalLane="386687235_1" arrivalPos="80.84" arrivalSpeed="13.32" duration="100.00" routeLength="1186.14" waitingTime="0.00" waitingCount="0" stopTime="0.00" timeLoss="16.89" rerouteNo="1" devices="tripinfo_h9563c2:5 routing_h9563c2:5 emissions_h9563c2:5" vType="default_016" speedFactor="1.04" vaporized="">
        <emissions CO_abs="3497.653139" CO2_abs="250001.144189" HC_abs="21.769888" PMx_abs="4.159329" NOx_abs="99.375339" fuel_abs="107.465014" electricity_abs="0"/>
    </tripinfo>
    <tripinfo id="h3568c1:3" depart="57656.00" departLane="266565295#5_1" departPos="5.10" departSpeed="0.00" departDelay="0.80" arrival="57732.00" arrivalLane="-24634415_1" arrivalPos="62.03" arrivalSpeed="13.69" duration="76.00" routeLength="807.40" waitingTime="0.00" waitingCount="0" stopTime="0.00" timeLoss="13.50" rerouteNo="1" devices="tripinfo_h3568c1:3 routing_h3568c1:3 emissions_h3568c1:3" vType="default_016" speedFactor="1.03" vaporized="">
        <emissions CO_abs="3023.473987" CO2_abs="213238.845915" HC_abs="18.715692" PMx_abs="3.500296" NOx_abs="84.921730" fuel_abs="91.662498" electricity_abs="0"/>
    </tripinfo>
    <tripinfo id="h3688c1:1" depart="57625.00" departLane="201201950#1_1" departPos="5.10" departSpeed="0.00" departDelay="0.00" arrival="57734.00" arrivalLane="32978638#0_1" arrivalPos="49.29" arrivalSpeed="16.39" duration="109.00" routeLength="1089.75" waitingTime="22.00" waitingCount="2" stopTime="0.00" timeLoss="45.20" rerouteNo="1" devices="tripinfo_h3688c1:1 routing_h3688c1:1 emissions_h3688c1:1" vType="default_016" speedFactor="1.26" vaporized="">
        <emissions CO_abs="7451.278261" CO2_abs="362447.658420" HC_abs="42.409621" PMx_abs="7.056450" NOx_abs="150.642664" fuel_abs="155.801511" electricity_abs="0"/>
    </tripinfo>
    <tripinfo id="h4538c1:1" depart="57701.00" departLane="-10427692#1_1" departPos="5.10" departSpeed="0.00" departDelay="0.00" arrival="57739.00" arrivalLane="-128361102#1_1" arrivalPos="274.68" arrivalSpeed="12.94" duration="38.00" routeLength="440.74" waitingTime="0.00" waitingCount="0" stopTime="0.00" timeLoss="6.21" rerouteNo="1" devices="tripinfo_h4538c1:1 routing_h4538c1:1 emissions_h4538c1:1" vType="default_016" speedFactor="1.01" vaporized="">
        <emissions CO_abs="1361.971801" CO2_abs="108774.054793" HC_abs="8.708329" PMx_abs="1.685172" NOx_abs="42.435932" fuel_abs="46.757457" electricity_abs="0"/>
    </tripinfo>
    <tripinfo id="h317c2:1" depart="57707.00" departLane="-32978638#0_1" departPos="5.10" departSpeed="0.00" departDelay="0.10" arrival="57745.00" arrivalLane="-266565295#5_1" arrivalPos="172.76" arrivalSpeed="13.00" duration="38.00" routeLength="370.53" waitingTime="1.00" waitingCount="1" stopTime="0.00" timeLoss="10.75" rerouteNo="1" devices="tripinfo_h317c2:1 routing_h317c2:1 emissions_h317c2:1" vType="default_016" speedFactor="1.00" vaporized="">
        <emissions CO_abs="1869.088211" CO2_abs="113445.340540" HC_abs="11.167670" PMx_abs="1.986824" NOx_abs="46.240753" fuel_abs="48.765435" electricity_abs="0"/>
    </tripinfo>
    <tripinfo id="carIn22761:1" depart="57616.00" departLane="-306240162#1_0" departPos="5.10" departSpeed="0.00" departDelay="2.10" arrival="57746.00" arrivalLane="399835085#1_1" arrivalPos="212.23" arrivalSpeed="7.51" duration="130.00" routeLength="1093.26" waitingTime="28.00" waitingCount="2" stopTime="0.00" timeLoss="46.69" rerouteNo="1" devices="tripinfo_carIn22761:1 routing_carIn22761:1 emissions_carIn22761:1" vType="default_016" speedFactor="0.93" vaporized="">
        <emissions CO_abs="7133.008122" CO2_abs="326745.762921" HC_abs="40.103590" PMx_abs="6.150433" NOx_abs="134.695735" fuel_abs="140.455376" electricity_abs="0"/>
    </tripinfo>
    <tripinfo id="h5979c1:5" depart="57669.00" departLane="399835085#1_1" departPos="5.10" departSpeed="0.00" departDelay="0.00" arrival="57757.00" arrivalLane="-315358254#1_1" arrivalPos="137.16" arrivalSpeed="14.27" duration="88.00" routeLength="659.33" waitingTime="5.00" waitingCount="1" stopTime="0.00" timeLoss="18.02" rerouteNo="1" devices="tripinfo_h5979c1:5 routing_h5979c1:5 emissions_h5979c1:5" vType="default_016" speedFactor="1.05" vaporized="">
        <emissions CO_abs="3642.388724" CO2_abs="186228.134085" HC_abs="20.889112" PMx_abs="3.088224" NOx_abs="75.595017" fuel_abs="80.052404" electricity_abs="0"/>
    </tripinfo>
    <tripinfo id="carIn27009:1" depart="57673.00" departLane="-447569998#1_1" departPos="5.10" departSpeed="0.00" departDelay="0.50" arrival="57760.00" arrivalLane="-26677539_1" arrivalPos="152.75" arrivalSpeed="8.07" duration="87.00" routeLength="699.63" waitingTime="0.00" waitingCount="0" stopTime="0.00" timeLoss="10.72" rerouteNo="1" devices="tripinfo_carIn27009:1 routing_carIn27009:1 emissions_carIn27009:1" vType="default_015" speedFactor="1.09" vaporized="">
        <emissions CO_abs="3485.070182" CO2_abs="181592.777284" HC_abs="20.066286" PMx_abs="3.012335" NOx_abs="73.932566" fuel_abs="78.059760" electricity_abs="0"/>
    </tripinfo>
    <tripinfo id="carIn30817:1" depart="57681.00" departLane="315358244_1" departPos="5.10" departSpeed="0.00" departDelay="0.20" arrival="57760.00" arrivalLane="447569997#1_1" arrivalPos="180.93" arrivalSpeed="8.08" duration="79.00" routeLength="718.04" waitingTime="2.00" waitingCount="1" stopTime="0.00" timeLoss="19.37" rerouteNo="1" devices="tripinfo_carIn30817:1 routing_carIn30817:1 emissions_carIn30817:1" vType="default_016" speedFactor="1.04" vaporized="">
        <emissions CO_abs="3534.192289" CO2_abs="208341.852486" HC_abs="20.950444" PMx_abs="3.567969" NOx_abs="84.515115" fuel_abs="89.557697" electricity_abs="0"/>
    </tripinfo>
    <tripinfo id="h3326c1:2" depart="57656.00" departLane="22716069#0_1" departPos="5.10" departSpeed="0.00" departDelay="0.00" arrival="57761.00" arrivalLane="24634517#13_1" arrivalPos="111.62" arrivalSpeed="14.06" duration="105.00" routeLength="1312.81" waitingTime="0.00" waitingCount="0" stopTime="0.00" timeLoss="14.50" rerouteNo="1" devices="tripinfo_h3326c1:2 routing_h3326c1:2 emissions_h3326c1:2" vType="default_016" speedFactor="1.08" vaporized="">
        <emissions CO_abs="4258.662578" CO2_abs="323364.063530" HC_abs="26.975451" PMx_abs="5.694062" NOx_abs="130.807301" fuel_abs="138.999919" electricity_abs="0"/>
    </tripinfo>
    <tripinfo id="h330c1:1" depart="57736.00" departLane="-32978638#0_1" departPos="5.10" departSpeed="0.00" departDelay="0.20" arrival="57773.00" arrivalLane="-266565295#5_1" arrivalPos="172.76" arrivalSpeed="15.62" duration="37.00" routeLength="370.53" waitingTime="2.00" waitingCount="1" stopTime="0.00" timeLoss="13.30" rerouteNo="1" devices="tripinfo_h330c1:1 routing_h330c1:1 emissions_h330c1:1" vType="default_016" speedFactor="1.15" vaporized="">
        <emissions CO_abs="2330.160344" CO2_abs="136583.366736" HC_abs="13.826996" PMx_abs="2.597883" NOx_abs="56.877911" fuel_abs="58.711273" electricity_abs="0"/>
    </tripinfo>
    <tripinfo id="carIn121703:1" depart="57647.00" departLane="386687232#0_1" departPos="5.10" departSpeed="0.00" departDelay="0.30" arrival="57782.00" arrivalLane="-315358244_1" arrivalPos="33.95" arrivalSpeed="13.02" duration="135.00" routeLength="1157.39" waitingTime="33.00" waitingCount="1" stopTime="0.00" timeLoss="46.42" rerouteNo="1" devices="tripinfo_carIn121703:1 routing_carIn121703:1 emissions_carIn121703:1" vType="default_016" speedFactor="0.96" vaporized="">
        <emissions CO_abs="7718.449247" CO2_abs="306719.260308" HC_abs="42.297492" PMx_abs="5.531135" NOx_abs="125.547745" fuel_abs="131.847948" electricity_abs="0"/>
    </tripinfo>
    <tripinfo id="h7181c1:1" depart="57660.00" departLane="315358254#0_1" departPos="5.10" departSpeed="0.00" departDelay="0.10" arrival="57790.00" arrivalLane="306240162#0_0" arrivalPos="220.43" arrivalSpeed="16.99" duration="130.00" routeLength="932.35" waitingTime="57.00" waitingCount="2" stopTime="0.00" timeLoss="81.71" rerouteNo="1" devices="tripinfo_h7181c1:1 routing_h7181c1:1 emissions_h7181c1:1" vType="default_016" speedFactor="1.06" vaporized="">
        <emissions CO_abs="13757.786629" CO2_abs="476904.067569" HC_abs="74.011122" PMx_abs="10.425137" NOx_abs="206.360043" fuel_abs="205.003250" electricity_abs="0"/>
    </tripinfo>
    <tripinfo id="h11737c1:1" depart="57665.00" departLane="272042143_1" departPos="5.10" departSpeed="0.00" departDelay="1.50" arrival="57806.00" arrivalLane="-315358254#1_1" arrivalPos="137.16" arrivalSpeed="12.00" duration="141.00" routeLength="1596.88" waitingTime="0.00" waitingCount="0" stopTime="0.00" timeLoss="17.71" rerouteNo="1" devices="tripinfo_h11737c1:1 routing_h11737c1:1 emissions_h11737c1:1" vType="default_016" speedFactor="0.95" vaporized="">
        <emissions CO_abs="4154.436291" CO2_abs="334936.632393" HC_abs="26.682494" PMx_abs="5.093992" NOx_abs="130.484457" fuel_abs="143.975455" electricity_abs="0"/>
    </tripinfo>
    <tripinfo id="carIn126288:1" depart="57674.00" departLane="272042143_1" departPos="5.10" departSpeed="0.00" departDelay="0.00" arrival="57808.00" arrivalLane="-315358254#1_1" arrivalPos="137.16" arrivalSpeed="13.19" duration="134.00" routeLength="1596.88" waitingTime="0.00" waitingCount="0" stopTime="0.00" timeLoss="14.01" rerouteNo="1" devices="tripinfo_carIn126288:1 routing_carIn126288:1 emissions_carIn126288:1" vType="default_016" speedFactor="0.97" vaporized="">
        <emissions CO_abs="3868.260325" CO2_abs="327610.475388" HC_abs="25.238075" PMx_abs="5.120668" NOx_abs="128.338085" fuel_abs="140.825882" electricity_abs="0"/>
    </tripinfo>
    <tripinfo id="carIn118591:1" depart="57689.00" departLane="315358244_1" departPos="5.10" departSpeed="0.00" departDelay="0.20" arrival="57808.00" arrivalLane="386687235_1" arrivalPos="80.84" arrivalSpeed="11.81" duration="119.00" routeLength="1186.14" waitingTime="11.00" waitingCount="1" stopTime="0.00" timeLoss="23.44" rerouteNo="1" devices="tripinfo_carIn118591:1 routing_carIn118591:1 emissions_carIn118591:1" vType="default_016" speedFactor="0.91" vaporized="">
        <emissions CO_abs="4060.646707" CO2_abs="250408.909989" HC_abs="24.282107" PMx_abs="3.911908" NOx_abs="98.511361" fuel_abs="107.641100" electricity_abs="0"/>
    </tripinfo>
    <tripinfo id="carIn12365:1" depart="57713.00" departLane="315358244_1" departPos="5.10" departSpeed="0.00" departDelay="0.50" arrival="57809.00" arrivalLane="447569997#1_1" arrivalPos="180.93" arrivalSpeed="7.26" duration="96.00" routeLength="718.04" waitingTime="17.00" waitingCount="1" stopTime="0.00" timeLoss="30.58" rerouteNo="1" devices="tripinfo_carIn12365:1 routing_carIn12365:1 emissions_carIn12365:1" vType="default_016" speedFactor="0.95" vaporized="">
        <emissions CO_abs="5141.924093" CO2_abs="207553.280402" HC_abs="28.243741" PMx_abs="3.734150" NOx_abs="85.573518" fuel_abs="89.219814" electricity_abs="0"/>
    </tripinfo>
    <tripinfo id="h3154c1:1" depart="57658.00" departLane="24634507_1" departPos="5.10" departSpeed="0.00" departDelay="0.00" arrival="57818.00" arrivalLane="-266565295#5_1" arrivalPos="172.76" arrivalSpeed="13.05" duration="160.00" routeLength="1206.22" waitingTime="47.00" waitingCount="2" stopTime="0.00" timeLoss="66.21" rerouteNo="1" devices="tripinfo_h3154c1:1 routing_h3154c1:1 emissions_h3154c1:1" vType="default_016" speedFactor="0.95" vaporized="">
        <emissions CO_abs="10442.261837" CO2_abs="390641.849724" HC_abs="56.702497" PMx_abs="7.440069" NOx_abs="163.264372" fuel_abs="167.923186" electricity_abs="0"/>
    </tripinfo>
    <tripinfo id="carIn28951:1" depart="57606.00" departLane="10425609#0_1" departPos="5.10" departSpeed="0.00" departDelay="0.20" arrival="57823.00" arrivalLane="-128361102#1_1" arrivalPos="274.68" arrivalSpeed="15.19" duration="217.00" routeLength="2113.04" waitingTime="45.00" waitingCount="3" stopTime="0.00" timeLoss="77.21" rerouteNo="1" devices="tripinfo_carIn28951:1 routing_carIn28951:1 emissions_carIn28951:1" vType="default_016" speedFactor="1.11" vaporized="">
        <emissions CO_abs="11581.203472" CO2_abs="588936.246561" HC_abs="66.469665" PMx_abs="10.847890" NOx_abs="240.884226" fuel_abs="253.160241" electricity_abs="0"/>
    </tripinfo>
    <tripinfo id="carIn12152:1" depart="57647.00" departLane="24599188#0.94_1" departPos="5.10" departSpeed="0.00" departDelay="0.50" arrival="57827.00" arrivalLane="-315358254#1_1" arrivalPos="137.16" arrivalSpeed="12.19" duration="180.00" routeLength="2034.31" waitingTime="0.00" waitingCount="0" stopTime="0.00" timeLoss="15.95" rerouteNo="1" devices="tripinfo_carIn12152:1 routing_carIn12152:1 emissions_carIn12152:1" vType="default_016" speedFactor="0.97" vaporized="">
        <emissions CO_abs="5223.581158" CO2_abs="415788.614169" HC_abs="33.437873" PMx_abs="6.443913" NOx_abs="162.781601" fuel_abs="178.730259" electricity_abs="0"/>
    </tripinfo>
    <tripinfo id="carIn107282:1" depart="57749.00" departLane="-447569998#1_1" departPos="5.10" departSpeed="0.00" departDelay="0.00" arrival="57827.00" arrivalLane="315358242#0_1" arrivalPos="165.37" arrivalSpeed="13.00" duration="78.00" routeLength="448.50" waitingTime="25.00" waitingCount="1" stopTime="0.00" timeLoss="34.71" rerouteNo="1" devices="tripinfo_carIn107282:1 routing_carIn107282:1 emissions_carIn107282:1" vType="default_016" speedFactor="0.98" vaporized="">
        <emissions CO_abs="5941.512520" CO2_abs="182757.722018" HC_abs="31.305075" PMx_abs="3.505401" NOx_abs="76.837697" fuel_abs="78.561949" electricity_abs="0"/>
    </tripinfo>
    <tripinfo id="h20540c1:1" depart="57634.00" departLane="10425609#0_1" departPos="5.10" departSpeed="0.00" departDelay="0.50" arrival="57830.00" arrivalLane="-128361102#1_1" arrivalPos="274.68" arrivalSpeed="12.76" duration="196.00" routeLength="2113.04" waitingTime="14.00" waitingCount="2" stopTime="0.00" timeLoss="40.49" rerouteNo="1" devices="tripinfo_h20540c1:1 routing_h20540c1:1 emissions_h20540c1:1" vType="default_016" speedFactor="1.00" vaporized="">
        <emissions CO_abs="6855.384543" CO2_abs="469883.120576" HC_abs="42.151659" PMx_abs="7.645358" NOx_abs="186.044766" fuel_abs="201.983525" electricity_abs="0"/>
    </tripinfo>
    <tripinfo id="randUni15030:1" depart="57735.00" departLane="386687232#0_1" departPos="5.10" departSpeed="0.00" departDelay="0.10" arrival="57830.00" arrivalLane="26677539_1" arrivalPos="151.98" arrivalSpeed="7.19" duration="95.00" routeLength="919.89" waitingTime="0.00" waitingCount="0" stopTime="0.00" timeLoss="11.17" rerouteNo="1" devices="tripinfo_randUni15030:1 routing_randUni15030:1 emissions_randUni15030:1" vType="random_016" speedFactor="1.00" vaporized="">
        <emissions CO_abs="3360.541222" CO2_abs="205528.827820" HC_abs="20.071752" PMx_abs="3.345813" NOx_abs="82.360325" fuel_abs="88.348641" electricity_abs="0"/>
    </tripinfo>
    <tripinfo id="carIn129809:1" depart="57729.00" departLane="-447569998#1_1" departPos="5.10" departSpeed="0.00" departDelay="1.00" arrival="57833.00" arrivalLane="-315358244_1" arrivalPos="33.95" arrivalSpeed="12.66" duration="104.00" routeLength="706.49" waitingTime="24.00" waitingCount="2" stopTime="0.00" timeLoss="39.09" rerouteNo="1" devices="tripinfo_carIn129809:1 routing_carIn129809:1 emissions_carIn129809:1" vType="default_015" speedFactor="0.93" vaporized="">
        <emissions CO_abs="5243.352839" CO2_abs="218467.638629" HC_abs="28.962342" PMx_abs="3.948184" NOx_abs="90.194422" fuel_abs="93.911337" electricity_abs="0"/>
    </tripinfo>
    <tripinfo id="50R_frequency3.17" depart="57674.00" departLane="-18809673#6_1" departPos="12.10" departSpeed="0.00" departDelay="0.70" arrival="57835.00" arrivalLane="201956811#0_1" arrivalPos="40.40" arrivalSpeed="13.40" duration="161.00" routeLength="1954.47" waitingTime="0.00" waitingCount="0" stopTime="0.00" timeLoss="15.93" rerouteNo="1" devices="tripinfo_50R_frequency3.17 routing_50R_frequency3.17 emissions_50R_frequency3.17" vType="bus" speedFactor="1.00" vaporized="">
        <emissions CO_abs="3048.661388" CO2_abs="1938307.956131" HC_abs="655.571010" PMx_abs="328.385933" NOx_abs="14945.663531" fuel_abs="826.691525" electricity_abs="0"/>
    </tripinfo>
    <tripinfo id="carIn8642:1" depart="57774.00" departLane="-447569998#1_1" departPos="5.10" departSpeed="0.00" departDelay="0.90" arrival="57844.00" arrivalLane="-315358244_1" arrivalPos="33.95" arrivalSpeed="13.89" duration="70.00" routeLength="706.49" waitingTime="5.00" waitingCount="1" stopTime="0.00" timeLoss="14.66" rerouteNo="1" devices="tripinfo_carIn8642:1 routing_carIn8642:1 emissions_carIn8642:1" vType="default_016" speedFactor="1.09" vaporized="">
        <emissions CO_abs="2606.262095" CO2_abs="164006.609890" HC_abs="15.716717" PMx_abs="2.844611" NOx_abs="66.378802" fuel_abs="70.499614" electricity_abs="0"/>
    </tripinfo>
    <tripinfo id="h17549c1:1" depart="57680.00" departLane="-447569998#1_1" departPos="5.10" departSpeed="0.00" departDelay="0.00" arrival="57854.00" arrivalLane="-315358254#1_1" arrivalPos="137.16" arrivalSpeed="15.73" duration="174.00" routeLength="1746.60" waitingTime="36.00" waitingCount="2" stopTime="0.00" timeLoss="59.64" rerouteNo="1" devices="tripinfo_h17549c1:1 routing_h17549c1:1 emissions_h17549c1:1" vType="default_016" speedFactor="1.20" vaporized="">
        <emissions CO_abs="10282.787843" CO2_abs="492655.631969" HC_abs="58.155485" PMx_abs="9.325646" NOx_abs="202.876934" fuel_abs="211.773154" electricity_abs="0"/>
    </tripinfo>
    <tripinfo id="h17600c1:1" depart="57662.00" departLane="272042143_1" departPos="5.10" departSpeed="0.00" departDelay="0.30" arrival="57856.00" arrivalLane="201238729#3_1" arrivalPos="431.02" arrivalSpeed="11.31" duration="194.00" routeLength="2100.26" waitingTime="2.00" waitingCount="1" stopTime="0.00" timeLoss="25.89" rerouteNo="1" devices="tripinfo_h17600c1:1 routing_h17600c1:1 emissions_h17600c1:1" vType="default_016" speedFactor="0.90" vaporized="">
        <emissions CO_abs="5158.936792" CO2_abs="404747.596233" HC_abs="32.842712" PMx_abs="6.039813" NOx_abs="157.308770" fuel_abs="173.984568" electricity_abs="0"/>
    </tripinfo>
    <tripinfo id="randUni31145:1" depart="57814.00" departLane="10425609#0_1" departPos="5.10" departSpeed="0.00" departDelay="0.30" arrival="57857.00" arrivalLane="201956810_1" arrivalPos="71.65" arrivalSpeed="11.51" duration="43.00" routeLength="255.78" waitingTime="9.00" waitingCount="1" stopTime="0.00" timeLoss="19.49" rerouteNo="1" devices="tripinfo_randUni31145:1 routing_randUni31145:1 emissions_randUni31145:1" vType="random_016" speedFactor="0.85" vaporized="">
        <emissions CO_abs="3057.929895" CO2_abs="116262.099308" HC_abs="16.654007" PMx_abs="2.270702" NOx_abs="49.416836" fuel_abs="49.976809" electricity_abs="0"/>
    </tripinfo>
    <tripinfo id="randUni2407:1" depart="57820.00" departLane="10425609#0_1" departPos="5.10" departSpeed="0.00" departDelay="0.80" arrival="57858.00" arrivalLane="201956810_1" arrivalPos="71.65" arrivalSpeed="12.93" duration="38.00" routeLength="255.78" waitingTime="5.00" waitingCount="1" stopTime="0.00" timeLoss="22.08" rerouteNo="1" devices="tripinfo_randUni2407:1 routing_randUni2407:1 emissions_randUni2407:1" vType="random_016" speedFactor="1.25" vaporized="">
        <emissions CO_abs="2606.211131" CO2_abs="115951.634674" HC_abs="14.604440" PMx_abs="2.273250" NOx_abs="49.380776" fuel_abs="49.842955" electricity_abs="0"/>
    </tripinfo>
    <tripinfo id="carIn12858:1" depart="57661.00" departLane="128361109#1_1" departPos="5.10" departSpeed="0.00" departDelay="0.90" arrival="57861.00" arrivalLane="399835085#1_1" arrivalPos="212.23" arrivalSpeed="8.20" duration="200.00" routeLength="1738.12" waitingTime="55.00" waitingCount="3" stopTime="0.00" timeLoss="91.95" rerouteNo="1" devices="tripinfo_carIn12858:1 routing_carIn12858:1 emissions_carIn12858:1" vType="default_016" speedFactor="1.06" vaporized="">
        <emissions CO_abs="13703.535894" CO2_abs="591074.463890" HC_abs="76.411396" PMx_abs="11.828400" NOx_abs="246.849620" fuel_abs="254.079839" electricity_abs="0"/>
    </tripinfo>
    <tripinfo id="h3864c1:3" depart="57678.00" departLane="24693977#1_1" departPos="5.10" departSpeed="0.00" departDelay="0.00" arrival="57861.00" arrivalLane="201956820_1" arrivalPos="48.33" arrivalSpeed="13.59" duration="183.00" routeLength="1574.85" waitingTime="21.00" waitingCount="2" stopTime="0.00" timeLoss="52.47" rerouteNo="1" devices="tripinfo_h3864c1:3 routing_h3864c1:3 emissions_h3864c1:3" vType="default_016" speedFactor="1.00" vaporized="">
        <emissions CO_abs="8325.845114" CO2_abs="432286.585313" HC_abs="48.010996" PMx_abs="7.752383" NOx_abs="177.680838" fuel_abs="185.822745" electricity_abs="0"/>
    </tripinfo>
    <tripinfo id="carIn46110:1" depart="57684.00" departLane="315358244_1" departPos="5.10" departSpeed="0.00" departDelay="1.20" arrival="57861.00" arrivalLane="32978638#0_1" arrivalPos="49.29" arrivalSpeed="13.14" duration="177.00" routeLength="1764.04" waitingTime="21.00" waitingCount="3" stopTime="0.00" timeLoss="48.28" rerouteNo="1" devices="tripinfo_carIn46110:1 routing_carIn46110:1 emissions_carIn46110:1" vType="default_016" speedFactor="1.00" vaporized="">
        <emissions CO_abs="6766.338043" CO2_abs="413176.220473" HC_abs="40.428591" PMx_abs="7.059392" NOx_abs="166.219391" fuel_abs="177.607613" electricity_abs="0"/>
    </tripinfo>
    <tripinfo id="carIn12775:1" depart="57676.00" departLane="10425609#0_1" departPos="5.10" departSpeed="0.00" departDelay="0.60" arrival="57862.00" arrivalLane="18809673#0_1" arrivalPos="473.56" arrivalSpeed="15.28" duration="186.00" routeLength="1959.45" waitingTime="27.00" waitingCount="1" stopTime="0.00" timeLoss="60.33" rerouteNo="1" devices="tripinfo_carIn12775:1 routing_carIn12775:1 emissions_carIn12775:1" vType="default_016" speedFactor="1.16" vaporized="">
        <emissions CO_abs="9017.275328" CO2_abs="477971.372226" HC_abs="52.032803" PMx_abs="8.511182" NOx_abs="193.178245" fuel_abs="205.461000" electricity_abs="0"/>
    </tripinfo>
    <tripinfo id="carIn82278:1" depart="57702.00" departLane="-306240162#1_0" departPos="5.10" departSpeed="0.00" departDelay="0.70" arrival="57863.00" arrivalLane="399835085#1_1" arrivalPos="212.23" arrivalSpeed="7.81" duration="161.00" routeLength="1093.26" waitingTime="53.00" waitingCount="3" stopTime="0.00" timeLoss="90.00" rerouteNo="1" devices="tripinfo_carIn82278:1 routing_carIn82278:1 emissions_carIn82278:1" vType="default_016" speedFactor="1.09" vaporized="">
        <emissions CO_abs="13285.667090" CO2_abs="488419.215374" HC_abs="72.109780" PMx_abs="10.132768" NOx_abs="208.470271" fuel_abs="209.953270" electricity_abs="0"/>
    </tripinfo>
    <tripinfo id="h7097c1:1" depart="57672.00" departLane="315358242#0_1" departPos="5.10" departSpeed="0.00" departDelay="2.60" arrival="57865.00" arrivalLane="306240162#0_0" arrivalPos="220.43" arrivalSpeed="16.66" duration="193.00" routeLength="2586.94" waitingTime="0.00" waitingCount="0" stopTime="0.00" timeLoss="21.30" rerouteNo="1" devices="tripinfo_h7097c1:1 routing_h7097c1:1 emissions_h7097c1:1" vType="default_016" speedFactor="1.00" vaporized="">
        <emissions CO_abs="6160.228367" CO2_abs="527956.449988" HC_abs="40.355605" PMx_abs="8.960802" NOx_abs="209.146479" fuel_abs="226.945200" electricity_abs="0"/>
    </tripinfo>
    <tripinfo id="h6541c1:3" depart="57727.00" departLane="201950247#3_1" departPos="5.10" departSpeed="0.00" departDelay="0.00" arrival="57867.00" arrivalLane="32978638#0_1" arrivalPos="49.29" arrivalSpeed="11.18" duration="140.00" routeLength="1176.17" waitingTime="0.00" waitingCount="0" stopTime="0.00" timeLoss="21.51" rerouteNo="1" devices="tripinfo_h6541c1:3 routing_h6541c1:3 emissions_h6541c1:3" vType="default_016" speedFactor="0.86" vaporized="">
        <emissions CO_abs="5737.852839" CO2_abs="306542.548969" HC_abs="33.213362" PMx_abs="5.017944" NOx_abs="123.730543" fuel_abs="131.770912" electricity_abs="0"/>
    </tripinfo>
    <tripinfo id="h8343c1:5" depart="57679.00" departLane="315358254#0_1" departPos="5.10" departSpeed="0.00" departDelay="0.60" arrival="57868.00" arrivalLane="-24634510#5_1" arrivalPos="236.88" arrivalSpeed="12.14" duration="189.00" routeLength="2056.84" waitingTime="24.00" waitingCount="2" stopTime="0.00" timeLoss="54.08" rerouteNo="1" devices="tripinfo_h8343c1:5 routing_h8343c1:5 emissions_h8343c1:5" vType="default_016" speedFactor="0.93" vaporized="">
        <emissions CO_abs="9835.373960" CO2_abs="553695.203444" HC_abs="57.855459" PMx_abs="10.360251" NOx_abs="226.972279" fuel_abs="238.010445" electricity_abs="0"/>
    </tripinfo>