<?xml version="1.0" encoding="UTF-8"?>

<!-- generated on 2021-10-26 22:20:28 by Eclipse SUMO sumo Version 1.10.0
<configuration xmlns:xsi="http://www.w3.org/2001/XMLSchema-instance" xsi:noNamespaceSchemaLocation="http://sumo.dlr.de/xsd/sumoConfiguration.xsd">

    <input>
        <net-file value="/Users/behradkoohy/sumo-scratchpad/RESCO/environments/ingolstadt21/ingolstadt21.net.xml"/>
        <route-files value="/Users/behradkoohy/sumo-scratchpad/RESCO/environments/ingolstadt21/ingolstadt21.rou.xml"/>
    </input>

    <output>
        <tripinfo-output value="/Users/behradkoohy/sumo-scratchpad/RESCO/logs/MPLight-tr0-ingolstadt21-21-mplight_full-pressure/tripinfo_91.xml"/>
        <tripinfo-output.write-unfinished value="true"/>
    </output>

    <time>
        <begin value="57600"/>
        <end value="61200"/>
    </time>

    <processing>
        <time-to-teleport value="-1"/>
    </processing>

    <report>
        <no-warnings value="true"/>
        <no-step-log value="true"/>
    </report>

    <emissions>
        <device.emissions.probability value="1"/>
    </emissions>

    <traci_server>
        <remote-port value="49849"/>
    </traci_server>

    <random_number>
        <random value="true"/>
    </random_number>

</configuration>
-->

<tripinfos xmlns:xsi="http://www.w3.org/2001/XMLSchema-instance" xsi:noNamespaceSchemaLocation="http://sumo.dlr.de/xsd/tripinfo_file.xsd">
    <tripinfo id="h15454c2:3" depart="57612.00" departLane="24608844_1" departPos="5.10" departSpeed="0.00" departDelay="0.50" arrival="57649.00" arrivalLane="32978638#0_1" arrivalPos="49.29" arrivalSpeed="14.84" duration="37.00" routeLength="354.79" waitingTime="0.00" waitingCount="0" stopTime="0.00" timeLoss="6.60" rerouteNo="1" devices="tripinfo_h15454c2:3 routing_h15454c2:3 emissions_h15454c2:3" vType="default_016" speedFactor="1.13" vaporized="">
        <emissions CO_abs="2187.421976" CO2_abs="124442.706976" HC_abs="12.893110" PMx_abs="2.294191" NOx_abs="51.750803" fuel_abs="53.492658" electricity_abs="0"/>
    </tripinfo>
    <tripinfo id="carIn53971:1" depart="57640.00" departLane="272042143_1" departPos="5.10" departSpeed="0.00" departDelay="0.80" arrival="57694.00" arrivalLane="24634414#1_1" arrivalPos="162.19" arrivalSpeed="8.12" duration="54.00" routeLength="493.04" waitingTime="0.00" waitingCount="0" stopTime="0.00" timeLoss="8.35" rerouteNo="1" devices="tripinfo_carIn53971:1 routing_carIn53971:1 emissions_carIn53971:1" vType="default_016" speedFactor="1.00" vaporized="">
        <emissions CO_abs="2335.309689" CO2_abs="134747.503562" HC_abs="13.773550" PMx_abs="2.292136" NOx_abs="54.780944" fuel_abs="57.922521" electricity_abs="0"/>
    </tripinfo>
    <tripinfo id="h5979c1:5" depart="57669.00" departLane="399835085#1_1" departPos="5.10" departSpeed="0.00" departDelay="0.00" arrival="57760.00" arrivalLane="-315358254#1_1" arrivalPos="137.16" arrivalSpeed="11.57" duration="91.00" routeLength="659.33" waitingTime="0.00" waitingCount="0" stopTime="0.00" timeLoss="11.76" rerouteNo="1" devices="tripinfo_h5979c1:5 routing_h5979c1:5 emissions_h5979c1:5" vType="default_016" speedFactor="0.93" vaporized="">
        <emissions CO_abs="3803.966392" CO2_abs="169084.337166" HC_abs="21.205835" PMx_abs="2.779927" NOx_abs="68.780849" fuel_abs="72.683368" electricity_abs="0"/>
    </tripinfo>
    <tripinfo id="h3326c1:2" depart="57656.00" departLane="22716069#0_1" departPos="5.10" departSpeed="0.00" departDelay="0.00" arrival="57761.00" arrivalLane="24634517#13_1" arrivalPos="111.62" arrivalSpeed="14.96" duration="105.00" routeLength="1312.81" waitingTime="0.00" waitingCount="0" stopTime="0.00" timeLoss="16.24" rerouteNo="1" devices="tripinfo_h3326c1:2 routing_h3326c1:2 emissions_h3326c1:2" vType="default_016" speedFactor="1.10" vaporized="">
        <emissions CO_abs="4240.243230" CO2_abs="322205.524276" HC_abs="26.930378" PMx_abs="5.708219" NOx_abs="130.485411" fuel_abs="138.501878" electricity_abs="0"/>
    </tripinfo>
    <tripinfo id="h11737c1:1" depart="57665.00" departLane="272042143_1" departPos="5.10" departSpeed="0.00" departDelay="1.50" arrival="57817.00" arrivalLane="-315358254#1_1" arrivalPos="137.16" arrivalSpeed="10.54" duration="152.00" routeLength="1596.88" waitingTime="0.00" waitingCount="0" stopTime="0.00" timeLoss="14.27" rerouteNo="1" devices="tripinfo_h11737c1:1 routing_h11737c1:1 emissions_h11737c1:1" vType="default_016" speedFactor="0.85" vaporized="">
        <emissions CO_abs="4215.152715" CO2_abs="324819.560501" HC_abs="26.686162" PMx_abs="4.836202" NOx_abs="126.698928" fuel_abs="139.626775" electricity_abs="0"/>
    </tripinfo>
    <tripinfo id="carIn126288:1" depart="57674.00" departLane="272042143_1" departPos="5.10" departSpeed="0.00" departDelay="0.00" arrival="57819.00" arrivalLane="-315358254#1_1" arrivalPos="137.16" arrivalSpeed="13.65" duration="145.00" routeLength="1596.88" waitingTime="0.00" waitingCount="0" stopTime="0.00" timeLoss="28.09" rerouteNo="1" devices="tripinfo_carIn126288:1 routing_carIn126288:1 emissions_carIn126288:1" vType="default_016" speedFactor="1.00" vaporized="">
        <emissions CO_abs="4854.808742" CO2_abs="369845.657902" HC_abs="30.729670" PMx_abs="6.022815" NOx_abs="147.393853" fuel_abs="158.980949" electricity_abs="0"/>
    </tripinfo>
    <tripinfo id="h17600c1:1" depart="57662.00" departLane="272042143_1" departPos="5.10" departSpeed="0.00" departDelay="0.30" arrival="57833.00" arrivalLane="201238729#3_1" arrivalPos="431.02" arrivalSpeed="12.37" duration="171.00" routeLength="2100.26" waitingTime="0.00" waitingCount="0" stopTime="0.00" timeLoss="13.95" rerouteNo="1" devices="tripinfo_h17600c1:1 routing_h17600c1:1 emissions_h17600c1:1" vType="default_016" speedFactor="0.97" vaporized="">
        <emissions CO_abs="3660.303688" CO2_abs="362282.737343" HC_abs="25.017682" PMx_abs="5.181542" NOx_abs="137.924611" fuel_abs="155.730316" electricity_abs="0"/>
    </tripinfo>
    <tripinfo id="h3688c1:1" depart="57625.00" departLane="201201950#1_1" departPos="5.10" departSpeed="0.00" departDelay="0.00" arrival="57838.00" arrivalLane="32978638#0_1" arrivalPos="49.29" arrivalSpeed="14.95" duration="213.00" routeLength="1089.75" waitingTime="125.00" waitingCount="1" stopTime="0.00" timeLoss="140.80" rerouteNo="1" devices="tripinfo_h3688c1:1 routing_h3688c1:1 emissions_h3688c1:1" vType="default_016" speedFactor="1.10" vaporized="">
        <emissions CO_abs="23410.123759" CO2_abs="593476.148383" HC_abs="120.411922" PMx_abs="12.698439" NOx_abs="256.046437" fuel_abs="255.118917" electricity_abs="0"/>
    </tripinfo>
    <tripinfo id="h7800c1:5" depart="57696.00" departLane="-447569998#1_1" departPos="5.10" departSpeed="0.00" departDelay="0.00" arrival="57865.00" arrivalLane="-447569998#1_2" arrivalPos="180.76" arrivalSpeed="4.33" duration="169.00" routeLength="175.66" waitingTime="138.00" waitingCount="1" stopTime="0.00" timeLoss="144.69" rerouteNo="1" devices="tripinfo_h7800c1:5 routing_h7800c1:5 emissions_h7800c1:5" vType="default_016" speedFactor="0.88" vaporized="">
        <emissions CO_abs="23755.076414" CO2_abs="410759.371114" HC_abs="117.782064" PMx_abs="9.865962" NOx_abs="185.865040" fuel_abs="176.578708" electricity_abs="0"/>
    </tripinfo>
    <tripinfo id="carIn81860:1" depart="57712.00" departLane="128361102#0_1" departPos="5.10" departSpeed="0.00" departDelay="0.60" arrival="57873.00" arrivalLane="-24634517#17_1" arrivalPos="6.43" arrivalSpeed="7.52" duration="161.00" routeLength="1229.64" waitingTime="42.00" waitingCount="1" stopTime="0.00" timeLoss="63.52" rerouteNo="1" devices="tripinfo_carIn81860:1 routing_carIn81860:1 emissions_carIn81860:1" vType="default_016" speedFactor="0.93" vaporized="">
        <emissions CO_abs="10845.851939" CO2_abs="397672.815735" HC_abs="58.675937" PMx_abs="7.451532" NOx_abs="165.334733" fuel_abs="170.945931" electricity_abs="0"/>
    </tripinfo>
    <tripinfo id="h3864c1:3" depart="57678.00" departLane="24693977#1_1" departPos="5.10" departSpeed="0.00" departDelay="0.00" arrival="57876.00" arrivalLane="201956820_1" arrivalPos="48.33" arrivalSpeed="9.96" duration="198.00" routeLength="1574.85" waitingTime="0.00" waitingCount="0" stopTime="0.00" timeLoss="22.66" rerouteNo="1" devices="tripinfo_h3864c1:3 routing_h3864c1:3 emissions_h3864c1:3" vType="default_016" speedFactor="0.74" vaporized="">
        <emissions CO_abs="6832.072733" CO2_abs="352993.185260" HC_abs="39.202073" PMx_abs="5.498791" NOx_abs="141.121272" fuel_abs="151.738836" electricity_abs="0"/>
    </tripinfo>
    <tripinfo id="carIn121703:1" depart="57647.00" departLane="386687232#0_1" departPos="5.10" departSpeed="0.00" departDelay="0.30" arrival="57878.00" arrivalLane="-315358244_1" arrivalPos="33.95" arrivalSpeed="17.65" duration="231.00" routeLength="1157.39" waitingTime="145.00" waitingCount="2" stopTime="0.00" timeLoss="164.74" rerouteNo="1" devices="tripinfo_carIn121703:1 routing_carIn121703:1 emissions_carIn121703:1" vType="default_016" speedFactor="1.27" vaporized="">
        <emissions CO_abs="26523.336340" CO2_abs="647920.803050" HC_abs="135.846729" PMx_abs="14.228305" NOx_abs="280.854120" fuel_abs="278.523527" electricity_abs="0"/>
    </tripinfo>
    <tripinfo id="carIn73855:1" depart="57743.00" departLane="386687232#0_1" departPos="5.10" departSpeed="0.00" departDelay="0.50" arrival="57880.00" arrivalLane="-315358244_2" arrivalPos="33.95" arrivalSpeed="15.47" duration="137.00" routeLength="1157.39" waitingTime="51.00" waitingCount="1" stopTime="0.00" timeLoss="64.52" rerouteNo="1" devices="tripinfo_carIn73855:1 routing_carIn73855:1 emissions_carIn73855:1" vType="default_016" speedFactor="1.16" vaporized="">
        <emissions CO_abs="10476.540445" CO2_abs="363421.185364" HC_abs="56.166454" PMx_abs="7.153278" NOx_abs="151.392121" fuel_abs="156.222466" electricity_abs="0"/>
    </tripinfo>
    <tripinfo id="h13377c2:3" depart="57804.00" departLane="315358244_1" departPos="5.10" departSpeed="0.00" departDelay="0.60" arrival="57882.00" arrivalLane="447569997#1_1" arrivalPos="180.93" arrivalSpeed="8.54" duration="78.00" routeLength="726.74" waitingTime="1.00" waitingCount="1" stopTime="0.00" timeLoss="15.23" rerouteNo="1" devices="tripinfo_h13377c2:3 routing_h13377c2:3 emissions_h13377c2:3" vType="default_016" speedFactor="1.07" vaporized="">
        <emissions CO_abs="2911.413049" CO2_abs="164612.054609" HC_abs="17.086454" PMx_abs="2.757236" NOx_abs="66.211070" fuel_abs="70.760248" electricity_abs="0"/>
    </tripinfo>
    <tripinfo id="carIn107084:1" depart="57601.00" departLane="124812856#0_1" departPos="5.10" departSpeed="0.00" departDelay="0.70" arrival="57890.00" arrivalLane="-128361102#1_1" arrivalPos="274.68" arrivalSpeed="11.79" duration="289.00" routeLength="2250.49" waitingTime="89.00" waitingCount="1" stopTime="0.00" timeLoss="113.85" rerouteNo="1" devices="tripinfo_carIn107084:1 routing_carIn107084:1 emissions_carIn107084:1" vType="default_016" speedFactor="0.94" vaporized="">
        <emissions CO_abs="19639.200213" CO2_abs="688802.247173" HC_abs="105.483529" PMx_abs="12.822784" NOx_abs="284.835065" fuel_abs="296.093469" electricity_abs="0"/>
    </tripinfo>
    <tripinfo id="carIn13443:1" depart="57729.00" departLane="272042143_1" departPos="5.10" departSpeed="0.00" departDelay="0.80" arrival="57890.00" arrivalLane="399835085#1_1" arrivalPos="212.23" arrivalSpeed="6.96" duration="161.00" routeLength="1757.45" waitingTime="0.00" waitingCount="0" stopTime="0.00" timeLoss="14.96" rerouteNo="1" devices="tripinfo_carIn13443:1 routing_carIn13443:1 emissions_carIn13443:1" vType="default_016" speedFactor="0.97" vaporized="">
        <emissions CO_abs="4552.953192" CO2_abs="357327.404412" HC_abs="28.991327" PMx_abs="5.375178" NOx_abs="138.904600" fuel_abs="153.600509" electricity_abs="0"/>
    </tripinfo>
    <tripinfo id="carIn77943:1" depart="57608.00" departLane="124812856#0_1" departPos="5.10" departSpeed="0.00" departDelay="2.50" arrival="57891.00" arrivalLane="-128361102#1_1" arrivalPos="274.68" arrivalSpeed="13.75" duration="283.00" routeLength="2250.49" waitingTime="87.00" waitingCount="1" stopTime="0.00" timeLoss="118.88" rerouteNo="1" devices="tripinfo_carIn77943:1 routing_carIn77943:1 emissions_carIn77943:1" vType="default_016" speedFactor="1.00" vaporized="">
        <emissions CO_abs="20465.839633" CO2_abs="749268.554288" HC_abs="110.742549" PMx_abs="14.371600" NOx_abs="312.567860" fuel_abs="322.084530" electricity_abs="0"/>
    </tripinfo>
    <tripinfo id="carIn107282:1" depart="57749.00" departLane="-447569998#1_1" departPos="5.10" departSpeed="0.00" departDelay="0.00" arrival="57893.00" arrivalLane="315358242#0_1" arrivalPos="165.37" arrivalSpeed="11.99" duration="144.00" routeLength="448.50" waitingTime="87.00" waitingCount="1" stopTime="0.00" timeLoss="95.81" rerouteNo="1" devices="tripinfo_carIn107282:1 routing_carIn107282:1 emissions_carIn107282:1" vType="default_016" speedFactor="0.87" vaporized="">
        <emissions CO_abs="15834.592892" CO2_abs="336115.361153" HC_abs="79.945512" PMx_abs="7.374001" NOx_abs="147.509022" fuel_abs="144.488465" electricity_abs="0"/>
    </tripinfo>
    <tripinfo id="carIn7949:1" depart="57676.00" departLane="128361109#1_1" departPos="5.10" departSpeed="0.00" departDelay="2.10" arrival="57894.00" arrivalLane="386687235_1" arrivalPos="80.84" arrivalSpeed="13.75" duration="218.00" routeLength="2088.57" waitingTime="58.00" waitingCount="1" stopTime="0.00" timeLoss="72.95" rerouteNo="1" devices="tripinfo_carIn7949:1 routing_carIn7949:1 emissions_carIn7949:1" vType="default_016" speedFactor="1.04" vaporized="">
        <emissions CO_abs="12477.518662" CO2_abs="504885.214005" HC_abs="68.477704" PMx_abs="8.985702" NOx_abs="203.876673" fuel_abs="217.032776" electricity_abs="0"/>
    </tripinfo>
    <tripinfo id="h3568c1:3" depart="57656.00" departLane="266565295#5_1" departPos="5.10" departSpeed="0.00" departDelay="0.80" arrival="57895.00" arrivalLane="-24634415_1" arrivalPos="62.03" arrivalSpeed="14.52" duration="239.00" routeLength="807.40" waitingTime="159.00" waitingCount="1" stopTime="0.00" timeLoss="177.45" rerouteNo="1" devices="tripinfo_h3568c1:3 routing_h3568c1:3 emissions_h3568c1:3" vType="default_016" speedFactor="1.06" vaporized="">
        <emissions CO_abs="29210.515854" CO2_abs="646410.049370" HC_abs="148.215302" PMx_abs="14.582376" NOx_abs="285.376225" fuel_abs="277.875618" electricity_abs="0"/>
    </tripinfo>
    <tripinfo id="carIn88905:1" depart="57688.00" departLane="128361109#1_1" departPos="5.10" departSpeed="0.00" departDelay="5.80" arrival="57896.00" arrivalLane="386687235_1" arrivalPos="80.84" arrivalSpeed="14.44" duration="208.00" routeLength="2088.57" waitingTime="46.00" waitingCount="1" stopTime="0.00" timeLoss="65.30" rerouteNo="1" devices="tripinfo_carIn88905:1 routing_carIn88905:1 emissions_carIn88905:1" vType="default_016" speedFactor="1.06" vaporized="">
        <emissions CO_abs="11174.516249" CO2_abs="505306.790764" HC_abs="62.603153" PMx_abs="8.998662" NOx_abs="204.251179" fuel_abs="217.212849" electricity_abs="0"/>
    </tripinfo>
    <tripinfo id="carIn50326:1" depart="57651.00" departLane="128361102#0_1" departPos="5.10" departSpeed="0.00" departDelay="0.30" arrival="57898.00" arrivalLane="18809673#0_1" arrivalPos="473.56" arrivalSpeed="15.51" duration="247.00" routeLength="1591.07" waitingTime="105.00" waitingCount="2" stopTime="0.00" timeLoss="131.57" rerouteNo="1" devices="tripinfo_carIn50326:1 routing_carIn50326:1 emissions_carIn50326:1" vType="default_016" speedFactor="1.13" vaporized="">
        <emissions CO_abs="21046.804985" CO2_abs="627182.487033" HC_abs="110.520434" PMx_abs="12.716226" NOx_abs="266.111790" fuel_abs="269.606264" electricity_abs="0"/>
    </tripinfo>
    <tripinfo id="carIn81681:1" depart="57726.00" departLane="272042143_1" departPos="5.10" departSpeed="0.00" departDelay="0.30" arrival="57898.00" arrivalLane="306240162#0_0" arrivalPos="220.43" arrivalSpeed="16.45" duration="172.00" routeLength="2246.89" waitingTime="0.00" waitingCount="0" stopTime="0.00" timeLoss="26.66" rerouteNo="1" devices="tripinfo_carIn81681:1 routing_carIn81681:1 emissions_carIn81681:1" vType="default_016" speedFactor="1.02" vaporized="">
        <emissions CO_abs="6903.340250" CO2_abs="550094.535879" HC_abs="44.421930" PMx_abs="9.802750" NOx_abs="221.562616" fuel_abs="236.461042" electricity_abs="0"/>
    </tripinfo>
    <tripinfo id="carIn14532:1" depart="57743.00" departLane="272042143_1" departPos="5.10" departSpeed="0.00" departDelay="1.90" arrival="57899.00" arrivalLane="399835085#1_1" arrivalPos="212.23" arrivalSpeed="8.27" duration="156.00" routeLength="1757.45" waitingTime="0.00" waitingCount="0" stopTime="0.00" timeLoss="13.41" rerouteNo="1" devices="tripinfo_carIn14532:1 routing_carIn14532:1 emissions_carIn14532:1" vType="default_016" speedFactor="0.99" vaporized="">
        <emissions CO_abs="4539.663511" CO2_abs="359511.394515" HC_abs="29.003314" PMx_abs="5.528523" NOx_abs="140.439059" fuel_abs="154.539108" electricity_abs="0"/>
    </tripinfo>
    <tripinfo id="carIn85747:1" depart="57673.00" departLane="128361109#1_1" departPos="5.10" departSpeed="0.00" departDelay="0.70" arrival="57900.00" arrivalLane="386687235_1" arrivalPos="80.84" arrivalSpeed="13.39" duration="227.00" routeLength="2088.57" waitingTime="60.00" waitingCount="1" stopTime="0.00" timeLoss="75.98" rerouteNo="1" devices="tripinfo_carIn85747:1 routing_carIn85747:1 emissions_carIn85747:1" vType="default_016" speedFactor="1.00" vaporized="">
        <emissions CO_abs="12661.309443" CO2_abs="512154.050843" HC_abs="69.550639" PMx_abs="8.954232" NOx_abs="206.375967" fuel_abs="220.157605" electricity_abs="0"/>
    </tripinfo>
    <tripinfo id="carIn80913:1" depart="57732.00" departLane="272042143_1" departPos="5.10" departSpeed="0.00" departDelay="0.40" arrival="57900.00" arrivalLane="306240162#0_0" arrivalPos="220.43" arrivalSpeed="17.01" duration="168.00" routeLength="2246.89" waitingTime="0.00" waitingCount="0" stopTime="0.00" timeLoss="26.66" rerouteNo="1" devices="tripinfo_carIn80913:1 routing_carIn80913:1 emissions_carIn80913:1" vType="default_016" speedFactor="1.05" vaporized="">
        <emissions CO_abs="6838.723663" CO2_abs="544947.292741" HC_abs="43.985619" PMx_abs="9.673052" NOx_abs="219.338588" fuel_abs="234.248519" electricity_abs="0"/>
    </tripinfo>
    <tripinfo id="randUni15030:1" depart="57735.00" departLane="386687232#0_1" departPos="5.10" departSpeed="0.00" departDelay="0.10" arrival="57900.00" arrivalLane="26677539_1" arrivalPos="151.98" arrivalSpeed="7.56" duration="165.00" routeLength="919.89" waitingTime="57.00" waitingCount="1" stopTime="0.00" timeLoss="72.30" rerouteNo="1" devices="tripinfo_randUni15030:1 routing_randUni15030:1 emissions_randUni15030:1" vType="random_016" speedFactor="0.91" vaporized="">
        <emissions CO_abs="12797.206940" CO2_abs="362681.888900" HC_abs="66.702928" PMx_abs="7.110347" NOx_abs="153.674008" fuel_abs="155.906446" electricity_abs="0"/>
    </tripinfo>
    <tripinfo id="randUni23028:1" depart="57884.00" departLane="124812856#0_1" departPos="5.10" departSpeed="0.00" departDelay="0.10" arrival="57900.00" arrivalLane="201956810_1" arrivalPos="71.65" arrivalSpeed="15.16" duration="16.00" routeLength="134.91" waitingTime="0.00" waitingCount="0" stopTime="0.00" timeLoss="6.09" rerouteNo="1" devices="tripinfo_randUni23028:1 routing_randUni23028:1 emissions_randUni23028:1" vType="random_016" speedFactor="1.13" vaporized="">
        <emissions CO_abs="1504.199606" CO2_abs="78749.572607" HC_abs="8.722255" PMx_abs="1.564629" NOx_abs="33.548745" fuel_abs="33.851035" electricity_abs="0"/>
    </tripinfo>
    <tripinfo id="carIn101266:1" depart="57737.00" departLane="272042143_1" departPos="5.10" departSpeed="0.00" departDelay="0.50" arrival="57903.00" arrivalLane="306240162#0_0" arrivalPos="220.43" arrivalSpeed="15.74" duration="166.00" routeLength="2246.89" waitingTime="0.00" waitingCount="0" stopTime="0.00" timeLoss="19.04" rerouteNo="1" devices="tripinfo_carIn101266:1 routing_carIn101266:1 emissions_carIn101266:1" vType="default_016" speedFactor="1.01" vaporized="">
        <emissions CO_abs="5942.844211" CO2_abs="504057.096655" HC_abs="38.841415" PMx_abs="8.654033" NOx_abs="200.465459" fuel_abs="216.671811" electricity_abs="0"/>
    </tripinfo>
    <tripinfo id="carIn75660:1" depart="57679.00" departLane="128361109#1_1" departPos="5.10" departSpeed="0.00" departDelay="3.40" arrival="57905.00" arrivalLane="386687235_1" arrivalPos="80.84" arrivalSpeed="12.80" duration="226.00" routeLength="2088.57" waitingTime="55.00" waitingCount="1" stopTime="0.00" timeLoss="70.93" rerouteNo="1" devices="tripinfo_carIn75660:1 routing_carIn75660:1 emissions_carIn75660:1" vType="default_016" speedFactor="0.98" vaporized="">
        <emissions CO_abs="12242.777308" CO2_abs="519878.450299" HC_abs="67.807252" PMx_abs="8.912333" NOx_abs="208.385914" fuel_abs="223.477806" electricity_abs="0"/>
    </tripinfo>
    <tripinfo id="h317c2:1" depart="57707.00" departLane="-32978638#0_1" departPos="5.10" departSpeed="0.00" departDelay="0.10" arrival="57906.00" arrivalLane="-266565295#5_1" arrivalPos="172.76" arrivalSpeed="13.45" duration="199.00" routeLength="370.53" waitingTime="160.00" waitingCount="1" stopTime="0.00" timeLoss="171.22" rerouteNo="1" devices="tripinfo_h317c2:1 routing_h317c2:1 emissions_h317c2:1" vType="default_016" speedFactor="1.01" vaporized="">
        <emissions CO_abs="27768.025781" CO2_abs="528232.500709" HC_abs="138.856521" PMx_abs="12.475581" NOx_abs="237.122045" fuel_abs="227.076476" electricity_abs="0"/>
    </tripinfo>
    <tripinfo id="h330c1:1" depart="57736.00" departLane="-32978638#0_1" departPos="5.10" departSpeed="0.00" departDelay="0.20" arrival="57908.00" arrivalLane="-266565295#5_1" arrivalPos="172.76" arrivalSpeed="13.29" duration="172.00" routeLength="370.53" waitingTime="133.00" waitingCount="1" stopTime="0.00" timeLoss="144.48" rerouteNo="1" devices="tripinfo_h330c1:1 routing_h330c1:1 emissions_h330c1:1" vType="default_016" speedFactor="1.02" vaporized="">
        <emissions CO_abs="23426.821722" CO2_abs="463972.482181" HC_abs="117.560586" PMx_abs="10.825029" NOx_abs="207.334106" fuel_abs="199.451776" electricity_abs="0"/>
    </tripinfo>
    <tripinfo id="carIn132499:1" depart="57740.00" departLane="272042143_1" departPos="5.10" departSpeed="0.00" departDelay="0.70" arrival="57911.00" arrivalLane="201238729#3_1" arrivalPos="431.02" arrivalSpeed="13.68" duration="171.00" routeLength="2100.26" waitingTime="4.00" waitingCount="1" stopTime="0.00" timeLoss="22.15" rerouteNo="1" devices="tripinfo_carIn132499:1 routing_carIn132499:1 emissions_carIn132499:1" vType="default_016" speedFactor="1.02" vaporized="">
        <emissions CO_abs="4072.891393" CO2_abs="388129.103264" HC_abs="27.517529" PMx_abs="5.847439" NOx_abs="149.331960" fuel_abs="166.840303" electricity_abs="0"/>
    </tripinfo>
    <tripinfo id="h19413c1:1" depart="57685.00" departLane="128361109#1_1" departPos="5.10" departSpeed="0.00" departDelay="5.90" arrival="57919.00" arrivalLane="386687235_1" arrivalPos="80.84" arrivalSpeed="12.08" duration="234.00" routeLength="2088.57" waitingTime="48.00" waitingCount="1" stopTime="0.00" timeLoss="64.60" rerouteNo="1" devices="tripinfo_h19413c1:1 routing_h19413c1:1 emissions_h19413c1:1" vType="default_016" speedFactor="0.89" vaporized="">
        <emissions CO_abs="11053.757502" CO2_abs="469800.640574" HC_abs="61.181429" PMx_abs="7.782544" NOx_abs="187.602315" fuel_abs="201.951385" electricity_abs="0"/>
    </tripinfo>
    <tripinfo id="carIn86816:1" depart="57617.00" departLane="128361102#0_1" departPos="5.10" departSpeed="0.00" departDelay="0.80" arrival="57922.00" arrivalLane="201956811#0_1" arrivalPos="40.40" arrivalSpeed="14.49" duration="305.00" routeLength="2067.33" waitingTime="137.00" waitingCount="2" stopTime="0.00" timeLoss="164.15" rerouteNo="1" devices="tripinfo_carIn86816:1 routing_carIn86816:1 emissions_carIn86816:1" vType="default_016" speedFactor="1.07" vaporized="">
        <emissions CO_abs="26877.311155" CO2_abs="805465.636212" HC_abs="141.130894" PMx_abs="16.187893" NOx_abs="339.869939" fuel_abs="346.244819" electricity_abs="0"/>
    </tripinfo>
    <tripinfo id="carIn99233:1" depart="57691.00" departLane="128361109#1_1" departPos="5.10" departSpeed="0.00" departDelay="1.90" arrival="57922.00" arrivalLane="386687235_1" arrivalPos="80.84" arrivalSpeed="12.76" duration="231.00" routeLength="2088.57" waitingTime="55.00" waitingCount="2" stopTime="0.00" timeLoss="76.83" rerouteNo="1" devices="tripinfo_carIn99233:1 routing_carIn99233:1 emissions_carIn99233:1" vType="default_016" speedFactor="0.98" vaporized="">
        <emissions CO_abs="11307.748270" CO2_abs="481539.682196" HC_abs="62.654046" PMx_abs="8.240649" NOx_abs="193.121024" fuel_abs="206.997267" electricity_abs="0"/>
    </tripinfo>
    <tripinfo id="carIn102915:1" depart="57643.00" departLane="128361102#0_1" departPos="5.10" departSpeed="0.00" departDelay="0.40" arrival="57924.00" arrivalLane="201956811#0_1" arrivalPos="40.40" arrivalSpeed="14.50" duration="281.00" routeLength="2067.33" waitingTime="111.00" waitingCount="2" stopTime="0.00" timeLoss="141.30" rerouteNo="1" devices="tripinfo_carIn102915:1 routing_carIn102915:1 emissions_carIn102915:1" vType="default_016" speedFactor="1.09" vaporized="">
        <emissions CO_abs="22875.849284" CO2_abs="743828.368016" HC_abs="121.566852" PMx_abs="14.799535" NOx_abs="312.757374" fuel_abs="319.747450" electricity_abs="0"/>
    </tripinfo>
    <tripinfo id="randUni33724:1" depart="57646.00" departLane="128361102#0_1" departPos="5.10" departSpeed="0.00" departDelay="1.20" arrival="57926.00" arrivalLane="201956811#0_1" arrivalPos="40.40" arrivalSpeed="15.58" duration="280.00" routeLength="2067.33" waitingTime="108.00" waitingCount="2" stopTime="0.00" timeLoss="145.19" rerouteNo="1" devices="tripinfo_randUni33724:1 routing_randUni33724:1 emissions_randUni33724:1" vType="random_016" speedFactor="1.12" vaporized="">
        <emissions CO_abs="23309.700964" CO2_abs="773417.823716" HC_abs="124.268497" PMx_abs="15.590907" NOx_abs="326.848417" fuel_abs="332.466232" electricity_abs="0"/>
    </tripinfo>
    <tripinfo id="carIn129809:1" depart="57729.00" departLane="-447569998#1_1" departPos="5.10" departSpeed="0.00" departDelay="1.00" arrival="57937.00" arrivalLane="-315358244_1" arrivalPos="33.95" arrivalSpeed="13.26" duration="208.00" routeLength="706.49" waitingTime="130.00" waitingCount="2" stopTime="0.00" timeLoss="144.88" rerouteNo="1" devices="tripinfo_carIn129809:1 routing_carIn129809:1 emissions_carIn129809:1" vType="default_015" speedFactor="0.96" vaporized="">
        <emissions CO_abs="23495.705926" CO2_abs="506849.339136" HC_abs="118.838495" PMx_abs="11.136106" NOx_abs="221.918202" fuel_abs="217.882891" electricity_abs="0"/>
    </tripinfo>
    <tripinfo id="carIn27009:1" depart="57673.00" departLane="-447569998#1_1" departPos="5.10" departSpeed="0.00" departDelay="0.50" arrival="57938.00" arrivalLane="-26677539_1" arrivalPos="152.75" arrivalSpeed="6.59" duration="265.00" routeLength="699.63" waitingTime="160.00" waitingCount="1" stopTime="0.00" timeLoss="175.36" rerouteNo="1" devices="tripinfo_carIn27009:1 routing_carIn27009:1 emissions_carIn27009:1" vType="default_015" speedFactor="0.94" vaporized="">
        <emissions CO_abs="29565.296001" CO2_abs="588027.969961" HC_abs="148.337471" PMx_abs="13.196528" NOx_abs="260.561379" fuel_abs="252.781134" electricity_abs="0"/>
    </tripinfo>
    <tripinfo id="carIn17767:1" depart="57638.00" departLane="124812856#0_1" departPos="5.10" departSpeed="0.00" departDelay="10.80" arrival="57939.00" arrivalLane="-128361102#1_1" arrivalPos="274.68" arrivalSpeed="16.45" duration="301.00" routeLength="2232.46" waitingTime="100.00" waitingCount="6" stopTime="0.00" timeLoss="166.87" rerouteNo="1" devices="tripinfo_carIn17767:1 routing_carIn17767:1 emissions_carIn17767:1" vType="default_016" speedFactor="1.22" vaporized="">
        <emissions CO_abs="22735.095009" CO2_abs="774755.920523" HC_abs="121.575048" PMx_abs="15.456595" NOx_abs="326.871871" fuel_abs="333.041086" electricity_abs="0"/>
    </tripinfo>
    <tripinfo id="h3426c1:1" depart="57864.00" departLane="-160314345#2_1" departPos="5.10" departSpeed="0.00" departDelay="0.00" arrival="57944.00" arrivalLane="386687235_1" arrivalPos="80.84" arrivalSpeed="13.22" duration="80.00" routeLength="726.87" waitingTime="0.00" waitingCount="0" stopTime="0.00" timeLoss="8.48" rerouteNo="1" devices="tripinfo_h3426c1:1 routing_h3426c1:1 emissions_h3426c1:1" vType="default_016" speedFactor="0.96" vaporized="">
        <emissions CO_abs="2895.530029" CO2_abs="170278.965262" HC_abs="17.112448" PMx_abs="2.671988" NOx_abs="67.665860" fuel_abs="73.196371" electricity_abs="0"/>
    </tripinfo>
    <tripinfo id="carIn49359:1" depart="57765.00" departLane="128361109#1_1" departPos="5.10" departSpeed="0.00" departDelay="0.50" arrival="57945.00" arrivalLane="386687235_1" arrivalPos="80.84" arrivalSpeed="12.73" duration="180.00" routeLength="2088.57" waitingTime="9.00" waitingCount="1" stopTime="0.00" timeLoss="27.12" rerouteNo="1" devices="tripinfo_carIn49359:1 routing_carIn49359:1 emissions_carIn49359:1" vType="default_016" speedFactor="0.98" vaporized="">
        <emissions CO_abs="4815.409383" CO2_abs="402452.114212" HC_abs="31.268519" PMx_abs="6.124109" NOx_abs="155.869295" fuel_abs="172.997519" electricity_abs="0"/>
    </tripinfo>
    <tripinfo id="randUni31145:1" depart="57910.00" departLane="10425609#0_1" departPos="5.10" departSpeed="0.00" departDelay="96.30" arrival="57945.00" arrivalLane="201956810_1" arrivalPos="71.65" arrivalSpeed="13.15" duration="35.00" routeLength="255.78" waitingTime="2.00" waitingCount="1" stopTime="0.00" timeLoss="14.97" rerouteNo="1" devices="tripinfo_randUni31145:1 routing_randUni31145:1 emissions_randUni31145:1" vType="random_016" speedFactor="1.01" vaporized="">