<?xml version="1.0" encoding="UTF-8"?>

<!-- generated on 2021-10-26 21:00:50 by Eclipse SUMO sumo Version 1.10.0
<configuration xmlns:xsi="http://www.w3.org/2001/XMLSchema-instance" xsi:noNamespaceSchemaLocation="http://sumo.dlr.de/xsd/sumoConfiguration.xsd">

    <input>
        <net-file value="/Users/behradkoohy/sumo-scratchpad/RESCO/environments/ingolstadt21/ingolstadt21.net.xml"/>
        <route-files value="/Users/behradkoohy/sumo-scratchpad/RESCO/environments/ingolstadt21/ingolstadt21.rou.xml"/>
    </input>

    <output>
        <tripinfo-output value="/Users/behradkoohy/sumo-scratchpad/RESCO/logs/MPLight-tr0-ingolstadt21-21-mplight_full-pressure/tripinfo_27.xml"/>
        <tripinfo-output.write-unfinished value="true"/>
    </output>

    <time>
        <begin value="57600"/>
        <end value="61200"/>
    </time>

    <processing>
        <time-to-teleport value="-1"/>
    </processing>

    <report>
        <no-warnings value="true"/>
        <no-step-log value="true"/>
    </report>

    <emissions>
        <device.emissions.probability value="1"/>
    </emissions>

    <traci_server>
        <remote-port value="64735"/>
    </traci_server>

    <random_number>
        <random value="true"/>
    </random_number>

</configuration>
-->

<tripinfos xmlns:xsi="http://www.w3.org/2001/XMLSchema-instance" xsi:noNamespaceSchemaLocation="http://sumo.dlr.de/xsd/tripinfo_file.xsd">
    <tripinfo id="h15454c2:3" depart="57612.00" departLane="24608844_1" departPos="5.10" departSpeed="0.00" departDelay="0.50" arrival="57656.00" arrivalLane="32978638#0_1" arrivalPos="49.29" arrivalSpeed="14.17" duration="44.00" routeLength="354.79" waitingTime="2.00" waitingCount="1" stopTime="0.00" timeLoss="11.05" rerouteNo="1" devices="tripinfo_h15454c2:3 routing_h15454c2:3 emissions_h15454c2:3" vType="default_016" speedFactor="1.03" vaporized="">
        <emissions CO_abs="2597.447963" CO2_abs="136044.418889" HC_abs="15.018195" PMx_abs="2.534985" NOx_abs="56.906507" fuel_abs="58.479860" electricity_abs="0"/>
    </tripinfo>
    <tripinfo id="carIn60260:1" depart="57606.00" departLane="315358254#0_1" departPos="5.10" departSpeed="0.00" departDelay="0.90" arrival="57674.00" arrivalLane="399835085#1_1" arrivalPos="212.23" arrivalSpeed="7.92" duration="68.00" routeLength="430.98" waitingTime="11.00" waitingCount="1" stopTime="0.00" timeLoss="20.70" rerouteNo="1" devices="tripinfo_carIn60260:1 routing_carIn60260:1 emissions_carIn60260:1" vType="default_016" speedFactor="0.98" vaporized="">
        <emissions CO_abs="3405.131500" CO2_abs="138679.324928" HC_abs="18.713952" PMx_abs="2.424705" NOx_abs="57.113169" fuel_abs="59.613377" electricity_abs="0"/>
    </tripinfo>
    <tripinfo id="carIn53971:1" depart="57640.00" departLane="272042143_1" departPos="5.10" departSpeed="0.00" departDelay="0.80" arrival="57700.00" arrivalLane="24634414#1_1" arrivalPos="162.19" arrivalSpeed="6.20" duration="60.00" routeLength="493.04" waitingTime="0.00" waitingCount="0" stopTime="0.00" timeLoss="8.78" rerouteNo="1" devices="tripinfo_carIn53971:1 routing_carIn53971:1 emissions_carIn53971:1" vType="default_016" speedFactor="0.89" vaporized="">
        <emissions CO_abs="2507.669205" CO2_abs="129547.073770" HC_abs="14.416365" PMx_abs="2.156190" NOx_abs="52.602062" fuel_abs="55.687338" electricity_abs="0"/>
    </tripinfo>
    <tripinfo id="S5R_frequency1.2" depart="57615.00" departLane="315358250#0_1" departPos="12.10" departSpeed="0.00" departDelay="3.40" arrival="57724.00" arrivalLane="386687235_1" arrivalPos="80.84" arrivalSpeed="13.79" duration="109.00" routeLength="1115.62" waitingTime="5.00" waitingCount="1" stopTime="0.00" timeLoss="27.15" rerouteNo="1" devices="tripinfo_S5R_frequency1.2 routing_S5R_frequency1.2 emissions_S5R_frequency1.2" vType="bus" speedFactor="1.00" vaporized="">
        <emissions CO_abs="2332.833567" CO2_abs="1461872.066168" HC_abs="483.054842" PMx_abs="249.521333" NOx_abs="11353.425588" fuel_abs="623.462972" electricity_abs="0"/>
    </tripinfo>
    <tripinfo id="h7181c1:1" depart="57660.00" departLane="315358254#0_1" departPos="5.10" departSpeed="0.00" departDelay="0.10" arrival="57732.00" arrivalLane="306240162#0_0" arrivalPos="220.43" arrivalSpeed="14.57" duration="72.00" routeLength="932.35" waitingTime="6.00" waitingCount="1" stopTime="0.00" timeLoss="17.71" rerouteNo="1" devices="tripinfo_h7181c1:1 routing_h7181c1:1 emissions_h7181c1:1" vType="default_016" speedFactor="0.94" vaporized="">
        <emissions CO_abs="3463.936282" CO2_abs="225484.336009" HC_abs="21.104631" PMx_abs="4.256571" NOx_abs="92.180306" fuel_abs="96.925826" electricity_abs="0"/>
    </tripinfo>
    <tripinfo id="h3568c1:3" depart="57656.00" departLane="266565295#5_1" departPos="5.10" departSpeed="0.00" departDelay="0.80" arrival="57736.00" arrivalLane="-24634415_1" arrivalPos="62.03" arrivalSpeed="14.02" duration="80.00" routeLength="807.40" waitingTime="3.00" waitingCount="1" stopTime="0.00" timeLoss="21.57" rerouteNo="1" devices="tripinfo_h3568c1:3 routing_h3568c1:3 emissions_h3568c1:3" vType="default_016" speedFactor="1.10" vaporized="">
        <emissions CO_abs="4047.427892" CO2_abs="252575.906090" HC_abs="24.319220" PMx_abs="4.622975" NOx_abs="104.145143" fuel_abs="108.571474" electricity_abs="0"/>
    </tripinfo>
    <tripinfo id="h317c2:1" depart="57707.00" departLane="-32978638#0_1" departPos="5.10" departSpeed="0.00" departDelay="0.10" arrival="57743.00" arrivalLane="-266565295#5_1" arrivalPos="172.76" arrivalSpeed="12.37" duration="36.00" routeLength="370.53" waitingTime="0.00" waitingCount="0" stopTime="0.00" timeLoss="5.73" rerouteNo="1" devices="tripinfo_h317c2:1 routing_h317c2:1 emissions_h317c2:1" vType="default_016" speedFactor="0.91" vaporized="">
        <emissions CO_abs="1708.736232" CO2_abs="111337.831078" HC_abs="10.391816" PMx_abs="1.930816" NOx_abs="45.306606" fuel_abs="47.859421" electricity_abs="0"/>
    </tripinfo>
    <tripinfo id="carIn30817:1" depart="57681.00" departLane="315358244_1" departPos="5.10" departSpeed="0.00" departDelay="0.20" arrival="57754.00" arrivalLane="447569997#1_1" arrivalPos="180.93" arrivalSpeed="8.23" duration="73.00" routeLength="718.04" waitingTime="1.00" waitingCount="1" stopTime="0.00" timeLoss="12.75" rerouteNo="1" devices="tripinfo_carIn30817:1 routing_carIn30817:1 emissions_carIn30817:1" vType="default_016" speedFactor="1.03" vaporized="">
        <emissions CO_abs="2916.164453" CO2_abs="186055.982758" HC_abs="17.575201" PMx_abs="3.047752" NOx_abs="74.356294" fuel_abs="79.977932" electricity_abs="0"/>
    </tripinfo>
    <tripinfo id="h7800c1:5" depart="57696.00" departLane="-447569998#1_1" departPos="5.10" departSpeed="0.00" departDelay="0.00" arrival="57755.00" arrivalLane="-447569998#1_2" arrivalPos="180.76" arrivalSpeed="3.18" duration="59.00" routeLength="175.66" waitingTime="33.00" waitingCount="1" stopTime="0.00" timeLoss="40.17" rerouteNo="1" devices="tripinfo_h7800c1:5 routing_h7800c1:5 emissions_h7800c1:5" vType="default_016" speedFactor="1.13" vaporized="">
        <emissions CO_abs="6010.817038" CO2_abs="126545.105518" HC_abs="30.320860" PMx_abs="2.783031" NOx_abs="55.706740" fuel_abs="54.398925" electricity_abs="0"/>
    </tripinfo>
    <tripinfo id="h9563c2:5" depart="57631.00" departLane="315358244_1" departPos="5.10" departSpeed="0.00" departDelay="0.70" arrival="57756.00" arrivalLane="386687235_1" arrivalPos="80.84" arrivalSpeed="12.89" duration="125.00" routeLength="1186.14" waitingTime="20.00" waitingCount="1" stopTime="0.00" timeLoss="37.88" rerouteNo="1" devices="tripinfo_h9563c2:5 routing_h9563c2:5 emissions_h9563c2:5" vType="default_016" speedFactor="0.99" vaporized="">
        <emissions CO_abs="6484.200084" CO2_abs="312001.703130" HC_abs="36.834425" PMx_abs="5.629906" NOx_abs="127.802689" fuel_abs="134.117502" electricity_abs="0"/>
    </tripinfo>
    <tripinfo id="h12244c1:3" depart="57612.00" departLane="315358244_1" departPos="5.10" departSpeed="0.00" departDelay="0.40" arrival="57760.00" arrivalLane="386687235_1" arrivalPos="80.84" arrivalSpeed="12.49" duration="148.00" routeLength="1186.14" waitingTime="37.00" waitingCount="1" stopTime="0.00" timeLoss="54.27" rerouteNo="1" devices="tripinfo_h12244c1:3 routing_h12244c1:3 emissions_h12244c1:3" vType="default_016" speedFactor="0.92" vaporized="">
        <emissions CO_abs="8914.412219" CO2_abs="352617.064483" HC_abs="48.828385" PMx_abs="6.477783" NOx_abs="145.552766" fuel_abs="151.577625" electricity_abs="0"/>
    </tripinfo>
    <tripinfo id="carIn80064:1" depart="57603.00" departLane="128361109#1_1" departPos="5.10" departSpeed="0.00" departDelay="0.40" arrival="57769.00" arrivalLane="-315358254#1_1" arrivalPos="137.16" arrivalSpeed="14.42" duration="166.00" routeLength="1587.97" waitingTime="39.00" waitingCount="4" stopTime="0.00" timeLoss="81.55" rerouteNo="1" devices="tripinfo_carIn80064:1 routing_carIn80064:1 emissions_carIn80064:1" vType="default_016" speedFactor="1.06" vaporized="">
        <emissions CO_abs="11848.699916" CO2_abs="587465.916945" HC_abs="68.044104" PMx_abs="11.951759" NOx_abs="246.101213" fuel_abs="252.526916" electricity_abs="0"/>
    </tripinfo>
    <tripinfo id="h330c1:1" depart="57736.00" departLane="-32978638#0_1" departPos="5.10" departSpeed="0.00" departDelay="0.20" arrival="57773.00" arrivalLane="-266565295#5_1" arrivalPos="172.76" arrivalSpeed="15.17" duration="37.00" routeLength="370.53" waitingTime="0.00" waitingCount="0" stopTime="0.00" timeLoss="12.11" rerouteNo="1" devices="tripinfo_h330c1:1 routing_h330c1:1 emissions_h330c1:1" vType="default_016" speedFactor="1.11" vaporized="">
        <emissions CO_abs="2184.177082" CO2_abs="131405.810889" HC_abs="13.031897" PMx_abs="2.449386" NOx_abs="54.387223" fuel_abs="56.485694" electricity_abs="0"/>
    </tripinfo>
    <tripinfo id="carIn118591:1" depart="57689.00" departLane="315358244_1" departPos="5.10" departSpeed="0.00" departDelay="0.20" arrival="57777.00" arrivalLane="386687235_1" arrivalPos="80.84" arrivalSpeed="13.81" duration="88.00" routeLength="1186.14" waitingTime="0.00" waitingCount="0" stopTime="0.00" timeLoss="7.57" rerouteNo="1" devices="tripinfo_carIn118591:1 routing_carIn118591:1 emissions_carIn118591:1" vType="default_016" speedFactor="1.08" vaporized="">
        <emissions CO_abs="2308.156713" CO2_abs="230284.846393" HC_abs="15.775608" PMx_abs="3.576665" NOx_abs="88.922221" fuel_abs="98.989492" electricity_abs="0"/>
    </tripinfo>
    <tripinfo id="h5979c1:5" depart="57669.00" departLane="399835085#1_1" departPos="5.10" departSpeed="0.00" departDelay="0.00" arrival="57778.00" arrivalLane="-315358254#1_1" arrivalPos="137.16" arrivalSpeed="13.55" duration="109.00" routeLength="659.33" waitingTime="25.00" waitingCount="1" stopTime="0.00" timeLoss="39.58" rerouteNo="1" devices="tripinfo_h5979c1:5 routing_h5979c1:5 emissions_h5979c1:5" vType="default_016" speedFactor="1.06" vaporized="">
        <emissions CO_abs="6654.225640" CO2_abs="228056.809861" HC_abs="35.584051" PMx_abs="4.181368" NOx_abs="95.028339" fuel_abs="98.034244" electricity_abs="0"/>
    </tripinfo>
    <tripinfo id="h645c1:1" depart="57622.00" departLane="266565295#5_1" departPos="5.10" departSpeed="0.00" departDelay="0.40" arrival="57782.00" arrivalLane="-315358244_1" arrivalPos="33.95" arrivalSpeed="14.07" duration="160.00" routeLength="1910.83" waitingTime="16.00" waitingCount="1" stopTime="0.00" timeLoss="33.22" rerouteNo="1" devices="tripinfo_h645c1:1 routing_h645c1:1 emissions_h645c1:1" vType="default_016" speedFactor="1.10" vaporized="">
        <emissions CO_abs="6043.780957" CO2_abs="423107.648978" HC_abs="37.186525" PMx_abs="7.213728" NOx_abs="168.243771" fuel_abs="181.876146" electricity_abs="0"/>
    </tripinfo>
    <tripinfo id="h4538c1:1" depart="57701.00" departLane="-10427692#1_1" departPos="5.10" departSpeed="0.00" departDelay="0.00" arrival="57786.00" arrivalLane="-128361102#1_1" arrivalPos="274.68" arrivalSpeed="13.53" duration="85.00" routeLength="440.74" waitingTime="42.00" waitingCount="1" stopTime="0.00" timeLoss="53.16" rerouteNo="1" devices="tripinfo_h4538c1:1 routing_h4538c1:1 emissions_h4538c1:1" vType="default_016" speedFactor="1.01" vaporized="">
        <emissions CO_abs="7758.863630" CO2_abs="209297.198430" HC_abs="40.250608" PMx_abs="4.416317" NOx_abs="90.283871" fuel_abs="89.970693" electricity_abs="0"/>
    </tripinfo>
    <tripinfo id="h3688c1:1" depart="57625.00" departLane="201201950#1_1" departPos="5.10" departSpeed="0.00" departDelay="0.00" arrival="57787.00" arrivalLane="32978638#0_1" arrivalPos="49.29" arrivalSpeed="15.67" duration="162.00" routeLength="1089.75" waitingTime="79.00" waitingCount="1" stopTime="0.00" timeLoss="94.54" rerouteNo="1" devices="tripinfo_h3688c1:1 routing_h3688c1:1 emissions_h3688c1:1" vType="default_016" speedFactor="1.19" vaporized="">
        <emissions CO_abs="16254.292529" CO2_abs="500903.228350" HC_abs="85.689264" PMx_abs="10.487759" NOx_abs="213.790149" fuel_abs="215.321817" electricity_abs="0"/>
    </tripinfo>
    <tripinfo id="h11737c1:1" depart="57665.00" departLane="272042143_1" departPos="5.10" departSpeed="0.00" departDelay="1.50" arrival="57787.00" arrivalLane="-315358254#1_1" arrivalPos="137.16" arrivalSpeed="14.36" duration="122.00" routeLength="1596.88" waitingTime="0.00" waitingCount="0" stopTime="0.00" timeLoss="12.78" rerouteNo="1" devices="tripinfo_h11737c1:1 routing_h11737c1:1 emissions_h11737c1:1" vType="default_016" speedFactor="1.07" vaporized="">
        <emissions CO_abs="3437.040555" CO2_abs="312821.474792" HC_abs="22.899650" PMx_abs="5.081672" NOx_abs="122.937074" fuel_abs="134.468275" electricity_abs="0"/>
    </tripinfo>
    <tripinfo id="carIn22761:1" depart="57616.00" departLane="-306240162#1_0" departPos="5.10" departSpeed="0.00" departDelay="2.10" arrival="57789.00" arrivalLane="399835085#1_1" arrivalPos="212.23" arrivalSpeed="7.14" duration="173.00" routeLength="1093.26" waitingTime="64.00" waitingCount="2" stopTime="0.00" timeLoss="86.30" rerouteNo="1" devices="tripinfo_carIn22761:1 routing_carIn22761:1 emissions_carIn22761:1" vType="default_016" speedFactor="0.90" vaporized="">
        <emissions CO_abs="14109.999332" CO2_abs="453088.513575" HC_abs="74.828357" PMx_abs="9.091845" NOx_abs="191.833971" fuel_abs="194.767853" electricity_abs="0"/>
    </tripinfo>
    <tripinfo id="carIn48184:1" depart="57613.00" departLane="-306240162#1_0" departPos="5.10" departSpeed="0.00" departDelay="0.70" arrival="57794.00" arrivalLane="386687235_1" arrivalPos="80.84" arrivalSpeed="14.78" duration="181.00" routeLength="2257.41" waitingTime="14.00" waitingCount="3" stopTime="0.00" timeLoss="47.11" rerouteNo="1" devices="tripinfo_carIn48184:1 routing_carIn48184:1 emissions_carIn48184:1" vType="default_016" speedFactor="1.11" vaporized="">
        <emissions CO_abs="7715.466577" CO2_abs="554675.636552" HC_abs="48.064899" PMx_abs="10.112498" NOx_abs="223.408474" fuel_abs="238.430664" electricity_abs="0"/>
    </tripinfo>
    <tripinfo id="h3326c1:2" depart="57656.00" departLane="22716069#0_1" departPos="5.10" departSpeed="0.00" departDelay="0.00" arrival="57795.00" arrivalLane="24634517#13_1" arrivalPos="111.62" arrivalSpeed="11.19" duration="139.00" routeLength="1312.81" waitingTime="0.00" waitingCount="0" stopTime="0.00" timeLoss="17.25" rerouteNo="1" devices="tripinfo_h3326c1:2 routing_h3326c1:2 emissions_h3326c1:2" vType="default_016" speedFactor="0.81" vaporized="">
        <emissions CO_abs="4325.516034" CO2_abs="289328.705537" HC_abs="26.358030" PMx_abs="4.380690" NOx_abs="113.897038" fuel_abs="124.371011" electricity_abs="0"/>
    </tripinfo>
    <tripinfo id="carIn86816:1" depart="57617.00" departLane="128361102#0_1" departPos="5.10" departSpeed="0.00" departDelay="0.80" arrival="57800.00" arrivalLane="201956811#0_1" arrivalPos="40.40" arrivalSpeed="13.08" duration="183.00" routeLength="2067.33" waitingTime="6.00" waitingCount="1" stopTime="0.00" timeLoss="33.42" rerouteNo="1" devices="tripinfo_carIn86816:1 routing_carIn86816:1 emissions_carIn86816:1" vType="default_016" speedFactor="1.01" vaporized="">
        <emissions CO_abs="6331.318277" CO2_abs="467774.055824" HC_abs="39.762679" PMx_abs="7.838765" NOx_abs="186.846934" fuel_abs="201.076135" electricity_abs="0"/>
    </tripinfo>
    <tripinfo id="carIn129809:1" depart="57729.00" departLane="-447569998#1_1" departPos="5.10" departSpeed="0.00" departDelay="1.00" arrival="57804.00" arrivalLane="-315358244_1" arrivalPos="33.95" arrivalSpeed="12.23" duration="75.00" routeLength="706.49" waitingTime="0.00" waitingCount="0" stopTime="0.00" timeLoss="12.42" rerouteNo="1" devices="tripinfo_carIn129809:1 routing_carIn129809:1 emissions_carIn129809:1" vType="default_015" speedFactor="0.97" vaporized="">
        <emissions CO_abs="2637.838864" CO2_abs="155330.671786" HC_abs="15.575345" PMx_abs="2.448371" NOx_abs="61.498584" fuel_abs="66.770682" electricity_abs="0"/>
    </tripinfo>
    <tripinfo id="h3154c1:1" depart="57658.00" departLane="24634507_1" departPos="5.10" departSpeed="0.00" departDelay="0.00" arrival="57812.00" arrivalLane="-266565295#5_1" arrivalPos="172.76" arrivalSpeed="13.15" duration="154.00" routeLength="1206.22" waitingTime="40.00" waitingCount="2" stopTime="0.00" timeLoss="60.39" rerouteNo="1" devices="tripinfo_h3154c1:1 routing_h3154c1:1 emissions_h3154c1:1" vType="default_016" speedFactor="0.95" vaporized="">
        <emissions CO_abs="9848.251540" CO2_abs="389509.391429" HC_abs="53.957024" PMx_abs="7.247603" NOx_abs="161.471855" fuel_abs="167.436183" electricity_abs="0"/>
    </tripinfo>
    <tripinfo id="h16072c2:3" depart="57663.00" departLane="315358254#0_1" departPos="5.10" departSpeed="0.00" departDelay="2.50" arrival="57814.00" arrivalLane="386687235_1" arrivalPos="80.84" arrivalSpeed="13.28" duration="151.00" routeLength="1611.92" waitingTime="7.00" waitingCount="1" stopTime="0.00" timeLoss="28.66" rerouteNo="1" devices="tripinfo_h16072c2:3 routing_h16072c2:3 emissions_h16072c2:3" vType="default_016" speedFactor="0.96" vaporized="">
        <emissions CO_abs="4760.816940" CO2_abs="335350.026906" HC_abs="29.446104" PMx_abs="5.344227" NOx_abs="132.488901" fuel_abs="144.153264" electricity_abs="0"/>
    </tripinfo>
    <tripinfo id="carIn107282:1" depart="57749.00" departLane="-447569998#1_1" departPos="5.10" departSpeed="0.00" departDelay="0.00" arrival="57818.00" arrivalLane="315358242#0_1" arrivalPos="165.37" arrivalSpeed="11.62" duration="69.00" routeLength="448.50" waitingTime="15.00" waitingCount="1" stopTime="0.00" timeLoss="22.48" rerouteNo="1" devices="tripinfo_carIn107282:1 routing_carIn107282:1 emissions_carIn107282:1" vType="default_016" speedFactor="0.91" vaporized="">
        <emissions CO_abs="4036.910196" CO2_abs="144053.466909" HC_abs="21.727058" PMx_abs="2.652821" NOx_abs="60.102872" fuel_abs="61.923764" electricity_abs="0"/>
    </tripinfo>
    <tripinfo id="h2831c1:1" depart="57600.00" departLane="201089423#0_1" departPos="5.10" departSpeed="0.00" departDelay="0.00" arrival="57821.00" arrivalLane="-315358244_2" arrivalPos="33.95" arrivalSpeed="14.73" duration="221.00" routeLength="2672.18" waitingTime="7.00" waitingCount="1" stopTime="0.00" timeLoss="39.15" rerouteNo="1" devices="tripinfo_h2831c1:1 routing_h2831c1:1 emissions_h2831c1:1" vType="default_016" speedFactor="1.07" vaporized="">
        <emissions CO_abs="6718.423118" CO2_abs="551757.682607" HC_abs="43.231817" PMx_abs="8.908908" NOx_abs="216.786818" fuel_abs="237.177096" electricity_abs="0"/>
    </tripinfo>
    <tripinfo id="carIn121703:1" depart="57647.00" departLane="386687232#0_1" departPos="5.10" departSpeed="0.00" departDelay="0.30" arrival="57821.00" arrivalLane="-315358244_1" arrivalPos="33.95" arrivalSpeed="15.01" duration="174.00" routeLength="1157.39" waitingTime="79.00" waitingCount="2" stopTime="0.00" timeLoss="99.82" rerouteNo="1" devices="tripinfo_carIn121703:1 routing_carIn121703:1 emissions_carIn121703:1" vType="default_016" speedFactor="1.13" vaporized="">
        <emissions CO_abs="15387.829049" CO2_abs="465707.267942" HC_abs="80.765660" PMx_abs="9.568013" NOx_abs="197.796063" fuel_abs="200.192704" electricity_abs="0"/>
    </tripinfo>
    <tripinfo id="carIn28951:1" depart="57606.00" departLane="10425609#0_1" departPos="5.10" departSpeed="0.00" departDelay="0.20" arrival="57825.00" arrivalLane="-128361102#1_1" arrivalPos="274.68" arrivalSpeed="14.09" duration="219.00" routeLength="2113.04" waitingTime="34.00" waitingCount="2" stopTime="0.00" timeLoss="67.76" rerouteNo="1" devices="tripinfo_carIn28951:1 routing_carIn28951:1 emissions_carIn28951:1" vType="default_016" speedFactor="1.03" vaporized="">
        <emissions CO_abs="10451.536356" CO2_abs="567347.909402" HC_abs="60.832014" PMx_abs="10.119768" NOx_abs="231.485855" fuel_abs="243.880027" electricity_abs="0"/>
    </tripinfo>
    <tripinfo id="carIn27009:1" depart="57673.00" departLane="-447569998#1_1" departPos="5.10" departSpeed="0.00" departDelay="0.50" arrival="57831.00" arrivalLane="-26677539_1" arrivalPos="152.75" arrivalSpeed="6.18" duration="158.00" routeLength="699.63" waitingTime="49.00" waitingCount="1" stopTime="0.00" timeLoss="64.16" rerouteNo="1" devices="tripinfo_carIn27009:1 routing_carIn27009:1 emissions_carIn27009:1" vType="default_015" speedFactor="0.89" vaporized="">
        <emissions CO_abs="11721.435810" CO2_abs="299016.637918" HC_abs="60.284325" PMx_abs="5.906335" NOx_abs="127.832346" fuel_abs="128.539443" electricity_abs="0"/>
    </tripinfo>
    <tripinfo id="carIn8642:1" depart="57774.00" departLane="-447569998#1_1" departPos="5.10" departSpeed="0.00" departDelay="0.90" arrival="57833.00" arrivalLane="-315358244_1" arrivalPos="33.95" arrivalSpeed="15.67" duration="59.00" routeLength="706.49" waitingTime="0.00" waitingCount="0" stopTime="0.00" timeLoss="5.95" rerouteNo="1" devices="tripinfo_carIn8642:1 routing_carIn8642:1 emissions_carIn8642:1" vType="default_016" speedFactor="1.15" vaporized="">
        <emissions CO_abs="2010.116909" CO2_abs="153809.068928" HC_abs="12.567787" PMx_abs="2.469288" NOx_abs="60.399439" fuel_abs="66.116073" electricity_abs="0"/>
    </tripinfo>
    <tripinfo id="carIn50326:1" depart="57651.00" departLane="128361102#0_1" departPos="5.10" departSpeed="0.00" departDelay="0.30" arrival="57840.00" arrivalLane="18809673#0_1" arrivalPos="473.56" arrivalSpeed="14.92" duration="189.00" routeLength="1591.07" waitingTime="42.00" waitingCount="2" stopTime="0.00" timeLoss="70.07" rerouteNo="1" devices="tripinfo_carIn50326:1 routing_carIn50326:1 emissions_carIn50326:1" vType="default_016" speedFactor="1.10" vaporized="">
        <emissions CO_abs="10385.391328" CO2_abs="466465.762277" HC_abs="57.950270" PMx_abs="8.348122" NOx_abs="189.968454" fuel_abs="200.516365" electricity_abs="0"/>
    </tripinfo>
    <tripinfo id="randUni31145:1" depart="57814.00" departLane="10425609#0_1" departPos="5.10" departSpeed="0.00" departDelay="0.30" arrival="57842.00" arrivalLane="201956810_1" arrivalPos="71.65" arrivalSpeed="16.83" duration="28.00" routeLength="255.78" waitingTime="0.00" waitingCount="0" stopTime="0.00" timeLoss="11.73" rerouteNo="1" devices="tripinfo_randUni31145:1 routing_randUni31145:1 emissions_randUni31145:1" vType="random_016" speedFactor="1.26" vaporized="">
        <emissions CO_abs="2412.426906" CO2_abs="134549.744475" HC_abs="14.138947" PMx_abs="2.680096" NOx_abs="57.021759" fuel_abs="57.836994" electricity_abs="0"/>
    </tripinfo>
    <tripinfo id="carIn12775:1" depart="57676.00" departLane="10425609#0_1" departPos="5.10" departSpeed="0.00" departDelay="0.60" arrival="57847.00" arrivalLane="18809673#0_1" arrivalPos="473.56" arrivalSpeed="14.12" duration="171.00" routeLength="1959.45" waitingTime="7.00" waitingCount="1" stopTime="0.00" timeLoss="37.00" rerouteNo="1" devices="tripinfo_carIn12775:1 routing_carIn12775:1 emissions_carIn12775:1" vType="default_016" speedFactor="1.09" vaporized="">
        <emissions CO_abs="6380.808556" CO2_abs="440017.457895" HC_abs="39.386553" PMx_abs="7.724852" NOx_abs="178.000397" fuel_abs="189.144585" electricity_abs="0"/>
    </tripinfo>
    <tripinfo id="randUni15030:1" depart="57735.00" departLane="386687232#0_1" departPos="5.10" departSpeed="0.00" departDelay="0.10" arrival="57848.00" arrivalLane="26677539_1" arrivalPos="151.98" arrivalSpeed="6.86" duration="113.00" routeLength="919.89" waitingTime="5.00" waitingCount="1" stopTime="0.00" timeLoss="22.33" rerouteNo="1" devices="tripinfo_randUni15030:1 routing_randUni15030:1 emissions_randUni15030:1" vType="random_016" speedFactor="0.92" vaporized="">
        <emissions CO_abs="4418.968528" CO2_abs="237380.025950" HC_abs="25.619796" PMx_abs="3.926836" NOx_abs="95.942205" fuel_abs="102.040521" electricity_abs="0"/>
    </tripinfo>
    <tripinfo id="randUni2407:1" depart="57820.00" departLane="10425609#0_1" departPos="5.10" departSpeed="0.00" departDelay="0.80" arrival="57848.00" arrivalLane="201956810_1" arrivalPos="71.65" arrivalSpeed="12.01" duration="28.00" routeLength="255.78" waitingTime="0.00" waitingCount="0" stopTime="0.00" timeLoss="5.82" rerouteNo="1" devices="tripinfo_randUni2407:1 routing_randUni2407:1 emissions_randUni2407:1" vType="random_016" speedFactor="0.91" vaporized="">
        <emissions CO_abs="1645.896657" CO2_abs="92143.926855" HC_abs="9.656502" PMx_abs="1.658878" NOx_abs="38.134862" fuel_abs="39.608854" electricity_abs="0"/>
    </tripinfo>
    <tripinfo id="carIn102915:1" depart="57643.00" departLane="128361102#0_1" departPos="5.10" departSpeed="0.00" departDelay="0.40" arrival="57851.00" arrivalLane="201956811#0_1" arrivalPos="40.40" arrivalSpeed="12.32" duration="208.00" routeLength="2067.33" waitingTime="18.00" waitingCount="3" stopTime="0.00" timeLoss="49.06" rerouteNo="1" devices="tripinfo_carIn102915:1 routing_carIn102915:1 emissions_carIn102915:1" vType="default_016" speedFactor="0.95" vaporized="">
        <emissions CO_abs="7457.078589" CO2_abs="472467.787443" HC_abs="44.964854" PMx_abs="7.773284" NOx_abs="188.476337" fuel_abs="203.094835" electricity_abs="0"/>
    </tripinfo>
    <tripinfo id="carIn12365:1" depart="57713.00" departLane="315358244_1" departPos="5.10" departSpeed="0.00" departDelay="0.50" arrival="57851.00" arrivalLane="447569997#1_1" arrivalPos="180.93" arrivalSpeed="7.20" duration="138.00" routeLength="718.04" waitingTime="58.00" waitingCount="2" stopTime="0.00" timeLoss="76.95" rerouteNo="1" devices="tripinfo_carIn12365:1 routing_carIn12365:1 emissions_carIn12365:1" vType="default_016" speedFactor="1.01" vaporized="">
        <emissions CO_abs="11987.021393" CO2_abs="332932.014444" HC_abs="62.364053" PMx_abs="6.893323" NOx_abs="143.224114" fuel_abs="143.117499" electricity_abs="0"/>
    </tripinfo>
    <tripinfo id="carIn12858:1" depart="57661.00" departLane="128361109#1_1" departPos="5.10" departSpeed="0.00" departDelay="0.90" arrival="57853.00" arrivalLane="399835085#1_1" arrivalPos="212.23" arrivalSpeed="7.79" duration="192.00" routeLength="1738.12" waitingTime="42.00" waitingCount="3" stopTime="0.00" timeLoss="80.42" rerouteNo="1" devices="tripinfo_carIn12858:1 routing_carIn12858:1 emissions_carIn12858:1" vType="default_016" speedFactor="1.03" vaporized="">
        <emissions CO_abs="13639.741799" CO2_abs="621164.359583" HC_abs="76.911373" PMx_abs="12.433568" NOx_abs="260.289910" fuel_abs="267.013578" electricity_abs="0"/>
    </tripinfo>
    <tripinfo id="carIn126288:1" depart="57674.00" departLane="272042143_1" departPos="5.10" departSpeed="0.00" departDelay="0.00" arrival="57858.00" arrivalLane="-315358254#1_1" arrivalPos="137.16" arrivalSpeed="13.29" duration="184.00" routeLength="1596.88" waitingTime="49.00" waitingCount="1" stopTime="0.00" timeLoss="65.48" rerouteNo="1" devices="tripinfo_carIn126288:1 routing_carIn126288:1 emissions_carIn126288:1" vType="default_016" speedFactor="0.98" vaporized="">
        <emissions CO_abs="11244.549293" CO2_abs="443023.930456" HC_abs="61.522612" PMx_abs="8.027817" NOx_abs="181.205378" fuel_abs="190.440646" electricity_abs="0"/>
    </tripinfo>
    <tripinfo id="carIn12152:1" depart="57647.00" departLane="24599188#0.94_1" departPos="5.10" departSpeed="0.00" departDelay="0.50" arrival="57859.00" arrivalLane="-315358254#1_1" arrivalPos="137.16" arrivalSpeed="14.40" duration="212.00" routeLength="2034.31" waitingTime="37.00" waitingCount="2" stopTime="0.00" timeLoss="62.16" rerouteNo="1" devices="tripinfo_carIn12152:1 routing_carIn12152:1 emissions_carIn12152:1" vType="default_016" speedFactor="1.05" vaporized="">
        <emissions CO_abs="11101.708016" CO2_abs="527221.293372" HC_abs="62.741411" PMx_abs="9.301790" NOx_abs="213.792940" fuel_abs="226.632612" electricity_abs="0"/>
    </tripinfo>
    <tripinfo id="h3864c1:3" depart="57678.00" departLane="24693977#1_1" departPos="5.10" departSpeed="0.00" departDelay="0.00" arrival="57860.00" arrivalLane="201956820_1" arrivalPos="48.33" arrivalSpeed="11.80" duration="182.00" routeLength="1574.85" waitingTime="9.00" waitingCount="2" stopTime="0.00" timeLoss="37.28" rerouteNo="1" devices="tripinfo_h3864c1:3 routing_h3864c1:3 emissions_h3864c1:3" vType="default_016" speedFactor="0.89" vaporized="">
        <emissions CO_abs="7188.527253" CO2_abs="410896.309234" HC_abs="42.270741" PMx_abs="6.810838" NOx_abs="165.883691" fuel_abs="176.628095" electricity_abs="0"/>
    </tripinfo>
    <tripinfo id="carIn82220:1" depart="57619.00" departLane="-306240162#1_0" departPos="5.10" departSpeed="0.00" departDelay="3.50" arrival="57866.00" arrivalLane="386687235_2" arrivalPos="80.84" arrivalSpeed="11.60" duration="247.00" routeLength="2257.41" waitingTime="49.00" waitingCount="2" stopTime="0.00" timeLoss="81.69" rerouteNo="1" devices="tripinfo_carIn82220:1 routing_carIn82220:1 emissions_carIn82220:1" vType="default_016" speedFactor="0.90" vaporized="">
        <emissions CO_abs="13510.619214" CO2_abs="626023.748756" HC_abs="76.138376" PMx_abs="11.270788" NOx_abs="255.554174" fuel_abs="269.104006" electricity_abs="0"/>
    </tripinfo>