<?xml version="1.0" encoding="UTF-8"?>

<!-- generated on 2021-10-26 20:59:54 by Eclipse SUMO sumo Version 1.10.0
<configuration xmlns:xsi="http://www.w3.org/2001/XMLSchema-instance" xsi:noNamespaceSchemaLocation="http://sumo.dlr.de/xsd/sumoConfiguration.xsd">

    <input>
        <net-file value="/Users/behradkoohy/sumo-scratchpad/RESCO/environments/ingolstadt21/ingolstadt21.net.xml"/>
        <route-files value="/Users/behradkoohy/sumo-scratchpad/RESCO/environments/ingolstadt21/ingolstadt21.rou.xml"/>
    </input>

    <output>
        <tripinfo-output value="/Users/behradkoohy/sumo-scratchpad/RESCO/logs/MPLight-tr0-ingolstadt21-21-mplight_full-pressure/tripinfo_26.xml"/>
        <tripinfo-output.write-unfinished value="true"/>
    </output>

    <time>
        <begin value="57600"/>
        <end value="61200"/>
    </time>

    <processing>
        <time-to-teleport value="-1"/>
    </processing>

    <report>
        <no-warnings value="true"/>
        <no-step-log value="true"/>
    </report>

    <emissions>
        <device.emissions.probability value="1"/>
    </emissions>

    <traci_server>
        <remote-port value="64724"/>
    </traci_server>

    <random_number>
        <random value="true"/>
    </random_number>

</configuration>
-->

<tripinfos xmlns:xsi="http://www.w3.org/2001/XMLSchema-instance" xsi:noNamespaceSchemaLocation="http://sumo.dlr.de/xsd/tripinfo_file.xsd">
    <tripinfo id="h15454c2:3" depart="57612.00" departLane="24608844_1" departPos="5.10" departSpeed="0.00" departDelay="0.50" arrival="57650.00" arrivalLane="32978638#0_1" arrivalPos="49.29" arrivalSpeed="13.54" duration="38.00" routeLength="354.79" waitingTime="0.00" waitingCount="0" stopTime="0.00" timeLoss="4.51" rerouteNo="1" devices="tripinfo_h15454c2:3 routing_h15454c2:3 emissions_h15454c2:3" vType="default_016" speedFactor="1.01" vaporized="">
        <emissions CO_abs="1720.128088" CO2_abs="100239.703933" HC_abs="10.155033" PMx_abs="1.630875" NOx_abs="40.234156" fuel_abs="43.089112" electricity_abs="0"/>
    </tripinfo>
    <tripinfo id="carIn60260:1" depart="57606.00" departLane="315358254#0_1" departPos="5.10" departSpeed="0.00" departDelay="0.90" arrival="57660.00" arrivalLane="399835085#1_1" arrivalPos="212.23" arrivalSpeed="8.74" duration="54.00" routeLength="430.98" waitingTime="0.00" waitingCount="0" stopTime="0.00" timeLoss="11.63" rerouteNo="1" devices="tripinfo_carIn60260:1 routing_carIn60260:1 emissions_carIn60260:1" vType="default_016" speedFactor="1.09" vaporized="">
        <emissions CO_abs="2569.463351" CO2_abs="131793.814859" HC_abs="14.768810" PMx_abs="2.293662" NOx_abs="54.139307" fuel_abs="56.652991" electricity_abs="0"/>
    </tripinfo>
    <tripinfo id="carIn53971:1" depart="57640.00" departLane="272042143_1" departPos="5.10" departSpeed="0.00" departDelay="0.80" arrival="57697.00" arrivalLane="24634414#1_1" arrivalPos="162.19" arrivalSpeed="6.72" duration="57.00" routeLength="493.04" waitingTime="0.00" waitingCount="0" stopTime="0.00" timeLoss="7.44" rerouteNo="1" devices="tripinfo_carIn53971:1 routing_carIn53971:1 emissions_carIn53971:1" vType="default_016" speedFactor="0.93" vaporized="">
        <emissions CO_abs="2386.656364" CO2_abs="136727.932728" HC_abs="14.022542" PMx_abs="2.166258" NOx_abs="54.532092" fuel_abs="58.774089" electricity_abs="0"/>
    </tripinfo>
    <tripinfo id="S5R_frequency1.2" depart="57615.00" departLane="315358250#0_1" departPos="12.10" departSpeed="0.00" departDelay="3.40" arrival="57707.00" arrivalLane="386687235_1" arrivalPos="80.84" arrivalSpeed="13.67" duration="92.00" routeLength="1115.62" waitingTime="0.00" waitingCount="0" stopTime="0.00" timeLoss="10.42" rerouteNo="1" devices="tripinfo_S5R_frequency1.2 routing_S5R_frequency1.2 emissions_S5R_frequency1.2" vType="bus" speedFactor="1.00" vaporized="">
        <emissions CO_abs="1741.661871" CO2_abs="1100030.949530" HC_abs="373.702555" PMx_abs="187.357083" NOx_abs="8502.972158" fuel_abs="469.161328" electricity_abs="0"/>
    </tripinfo>
    <tripinfo id="h7800c1:5" depart="57696.00" departLane="-447569998#1_1" departPos="5.10" departSpeed="0.00" departDelay="0.00" arrival="57719.00" arrivalLane="-447569998#1_1" arrivalPos="180.76" arrivalSpeed="8.69" duration="23.00" routeLength="175.66" waitingTime="0.00" waitingCount="0" stopTime="0.00" timeLoss="3.48" rerouteNo="1" devices="tripinfo_h7800c1:5 routing_h7800c1:5 emissions_h7800c1:5" vType="default_016" speedFactor="1.08" vaporized="">
        <emissions CO_abs="1081.382359" CO2_abs="49363.567345" HC_abs="6.057310" PMx_abs="0.803122" NOx_abs="20.031016" fuel_abs="21.219637" electricity_abs="0"/>
    </tripinfo>
    <tripinfo id="carIn80064:1" depart="57603.00" departLane="128361109#1_1" departPos="5.10" departSpeed="0.00" departDelay="0.40" arrival="57729.00" arrivalLane="-315358254#1_1" arrivalPos="137.16" arrivalSpeed="14.37" duration="126.00" routeLength="1587.97" waitingTime="16.00" waitingCount="2" stopTime="0.00" timeLoss="42.83" rerouteNo="1" devices="tripinfo_carIn80064:1 routing_carIn80064:1 emissions_carIn80064:1" vType="default_016" speedFactor="1.08" vaporized="">
        <emissions CO_abs="8193.205268" CO2_abs="509558.935160" HC_abs="49.550964" PMx_abs="10.293508" NOx_abs="212.453148" fuel_abs="219.036355" electricity_abs="0"/>
    </tripinfo>
    <tripinfo id="h4538c1:1" depart="57701.00" departLane="-10427692#1_1" departPos="5.10" departSpeed="0.00" departDelay="0.00" arrival="57745.00" arrivalLane="-128361102#1_1" arrivalPos="274.68" arrivalSpeed="13.85" duration="44.00" routeLength="440.74" waitingTime="3.00" waitingCount="1" stopTime="0.00" timeLoss="13.99" rerouteNo="1" devices="tripinfo_h4538c1:1 routing_h4538c1:1 emissions_h4538c1:1" vType="default_016" speedFactor="1.06" vaporized="">
        <emissions CO_abs="1816.594861" CO2_abs="114837.726491" HC_abs="10.917503" PMx_abs="1.936057" NOx_abs="46.022561" fuel_abs="49.364038" electricity_abs="0"/>
    </tripinfo>
    <tripinfo id="h317c2:1" depart="57707.00" departLane="-32978638#0_1" departPos="5.10" departSpeed="0.00" departDelay="0.10" arrival="57756.00" arrivalLane="-266565295#5_1" arrivalPos="172.76" arrivalSpeed="13.00" duration="49.00" routeLength="370.53" waitingTime="10.00" waitingCount="1" stopTime="0.00" timeLoss="20.26" rerouteNo="1" devices="tripinfo_h317c2:1 routing_h317c2:1 emissions_h317c2:1" vType="default_016" speedFactor="0.97" vaporized="">
        <emissions CO_abs="2474.549746" CO2_abs="132758.478358" HC_abs="14.377257" PMx_abs="2.343210" NOx_abs="54.192907" fuel_abs="57.067572" electricity_abs="0"/>
    </tripinfo>
    <tripinfo id="h3326c1:2" depart="57656.00" departLane="22716069#0_1" departPos="5.10" departSpeed="0.00" departDelay="0.00" arrival="57764.00" arrivalLane="24634517#13_1" arrivalPos="111.62" arrivalSpeed="14.47" duration="108.00" routeLength="1312.81" waitingTime="0.00" waitingCount="0" stopTime="0.00" timeLoss="15.35" rerouteNo="1" devices="tripinfo_h3326c1:2 routing_h3326c1:2 emissions_h3326c1:2" vType="default_016" speedFactor="1.06" vaporized="">
        <emissions CO_abs="4080.455249" CO2_abs="319665.658651" HC_abs="26.048536" PMx_abs="5.420602" NOx_abs="127.946563" fuel_abs="137.410349" electricity_abs="0"/>
    </tripinfo>
    <tripinfo id="h3568c1:3" depart="57656.00" departLane="266565295#5_1" departPos="5.10" departSpeed="0.00" departDelay="0.80" arrival="57767.00" arrivalLane="-24634415_1" arrivalPos="62.03" arrivalSpeed="13.09" duration="111.00" routeLength="807.40" waitingTime="26.00" waitingCount="1" stopTime="0.00" timeLoss="43.73" rerouteNo="1" devices="tripinfo_h3568c1:3 routing_h3568c1:3 emissions_h3568c1:3" vType="default_016" speedFactor="0.96" vaporized="">
        <emissions CO_abs="7277.485395" CO2_abs="283772.756107" HC_abs="39.792373" PMx_abs="5.405957" NOx_abs="118.925284" fuel_abs="121.983625" electricity_abs="0"/>
    </tripinfo>
    <tripinfo id="h3154c1:1" depart="57658.00" departLane="24634507_1" departPos="5.10" departSpeed="0.00" departDelay="0.00" arrival="57774.00" arrivalLane="-266565295#5_1" arrivalPos="172.76" arrivalSpeed="11.62" duration="116.00" routeLength="1206.22" waitingTime="0.00" waitingCount="0" stopTime="0.00" timeLoss="11.86" rerouteNo="1" devices="tripinfo_h3154c1:1 routing_h3154c1:1 emissions_h3154c1:1" vType="default_016" speedFactor="0.86" vaporized="">
        <emissions CO_abs="3467.733512" CO2_abs="260865.027043" HC_abs="21.801158" PMx_abs="3.861157" NOx_abs="101.571638" fuel_abs="112.135420" electricity_abs="0"/>
    </tripinfo>
    <tripinfo id="h330c1:1" depart="57736.00" departLane="-32978638#0_1" departPos="5.10" departSpeed="0.00" departDelay="0.20" arrival="57776.00" arrivalLane="-266565295#5_1" arrivalPos="172.76" arrivalSpeed="12.08" duration="40.00" routeLength="370.53" waitingTime="2.00" waitingCount="1" stopTime="0.00" timeLoss="10.48" rerouteNo="1" devices="tripinfo_h330c1:1 routing_h330c1:1 emissions_h330c1:1" vType="default_016" speedFactor="0.94" vaporized="">
        <emissions CO_abs="1923.782669" CO2_abs="111433.673560" HC_abs="11.376630" PMx_abs="1.992644" NOx_abs="45.848329" fuel_abs="47.900699" electricity_abs="0"/>
    </tripinfo>
    <tripinfo id="h7181c1:1" depart="57660.00" departLane="315358254#0_1" departPos="5.10" departSpeed="0.00" departDelay="0.10" arrival="57780.00" arrivalLane="306240162#0_0" arrivalPos="220.43" arrivalSpeed="16.84" duration="120.00" routeLength="932.35" waitingTime="53.00" waitingCount="2" stopTime="0.00" timeLoss="71.61" rerouteNo="1" devices="tripinfo_h7181c1:1 routing_h7181c1:1 emissions_h7181c1:1" vType="default_016" speedFactor="1.07" vaporized="">
        <emissions CO_abs="11846.979564" CO2_abs="405651.319827" HC_abs="63.626407" PMx_abs="8.656030" NOx_abs="173.280473" fuel_abs="174.374902" electricity_abs="0"/>
    </tripinfo>
    <tripinfo id="carIn121703:1" depart="57647.00" departLane="386687232#0_1" departPos="5.10" departSpeed="0.00" departDelay="0.30" arrival="57784.00" arrivalLane="-315358244_1" arrivalPos="33.95" arrivalSpeed="11.85" duration="137.00" routeLength="1157.39" waitingTime="23.00" waitingCount="2" stopTime="0.00" timeLoss="44.40" rerouteNo="1" devices="tripinfo_carIn121703:1 routing_carIn121703:1 emissions_carIn121703:1" vType="default_016" speedFactor="0.91" vaporized="">
        <emissions CO_abs="6574.045099" CO2_abs="312146.069939" HC_abs="37.209781" PMx_abs="5.456702" NOx_abs="127.261314" fuel_abs="134.179848" electricity_abs="0"/>
    </tripinfo>
    <tripinfo id="carIn27009:1" depart="57673.00" departLane="-447569998#1_1" departPos="5.10" departSpeed="0.00" departDelay="0.50" arrival="57785.00" arrivalLane="-26677539_1" arrivalPos="152.75" arrivalSpeed="5.87" duration="112.00" routeLength="699.63" waitingTime="0.00" waitingCount="0" stopTime="0.00" timeLoss="13.33" rerouteNo="1" devices="tripinfo_carIn27009:1 routing_carIn27009:1 emissions_carIn27009:1" vType="default_015" speedFactor="0.85" vaporized="">
        <emissions CO_abs="4410.910046" CO2_abs="176511.821884" HC_abs="24.102965" PMx_abs="2.805556" NOx_abs="71.519742" fuel_abs="75.876668" electricity_abs="0"/>
    </tripinfo>
    <tripinfo id="h5979c1:5" depart="57669.00" departLane="399835085#1_1" departPos="5.10" departSpeed="0.00" departDelay="0.00" arrival="57786.00" arrivalLane="-315358254#1_1" arrivalPos="137.16" arrivalSpeed="13.97" duration="117.00" routeLength="659.33" waitingTime="32.00" waitingCount="1" stopTime="0.00" timeLoss="46.58" rerouteNo="1" devices="tripinfo_h5979c1:5 routing_h5979c1:5 emissions_h5979c1:5" vType="default_016" speedFactor="1.03" vaporized="">
        <emissions CO_abs="8001.095296" CO2_abs="258964.979168" HC_abs="42.417276" PMx_abs="4.839819" NOx_abs="108.547032" fuel_abs="111.320898" electricity_abs="0"/>
    </tripinfo>
    <tripinfo id="carIn22761:1" depart="57616.00" departLane="-306240162#1_0" departPos="5.10" departSpeed="0.00" departDelay="2.10" arrival="57789.00" arrivalLane="399835085#1_1" arrivalPos="212.23" arrivalSpeed="7.51" duration="173.00" routeLength="1093.26" waitingTime="68.00" waitingCount="1" stopTime="0.00" timeLoss="88.23" rerouteNo="1" devices="tripinfo_carIn22761:1 routing_carIn22761:1 emissions_carIn22761:1" vType="default_016" speedFactor="0.91" vaporized="">
        <emissions CO_abs="15053.422550" CO2_abs="454049.190406" HC_abs="79.226841" PMx_abs="9.359132" NOx_abs="193.906274" fuel_abs="195.181224" electricity_abs="0"/>
    </tripinfo>
    <tripinfo id="h3688c1:1" depart="57625.00" departLane="201201950#1_1" departPos="5.10" departSpeed="0.00" departDelay="0.00" arrival="57796.00" arrivalLane="32978638#0_1" arrivalPos="49.29" arrivalSpeed="11.57" duration="171.00" routeLength="1089.75" waitingTime="62.00" waitingCount="1" stopTime="0.00" timeLoss="77.71" rerouteNo="1" devices="tripinfo_h3688c1:1 routing_h3688c1:1 emissions_h3688c1:1" vType="default_016" speedFactor="0.86" vaporized="">
        <emissions CO_abs="13045.981585" CO2_abs="389106.435160" HC_abs="68.471370" PMx_abs="7.592196" NOx_abs="164.143082" fuel_abs="167.265115" electricity_abs="0"/>
    </tripinfo>
    <tripinfo id="carIn30817:1" depart="57681.00" departLane="315358244_1" departPos="5.10" departSpeed="0.00" departDelay="0.20" arrival="57797.00" arrivalLane="447569997#1_1" arrivalPos="180.93" arrivalSpeed="6.01" duration="116.00" routeLength="718.04" waitingTime="26.00" waitingCount="2" stopTime="0.00" timeLoss="45.01" rerouteNo="1" devices="tripinfo_carIn30817:1 routing_carIn30817:1 emissions_carIn30817:1" vType="default_016" speedFactor="0.86" vaporized="">
        <emissions CO_abs="6874.944224" CO2_abs="235285.743953" HC_abs="36.771095" PMx_abs="4.392257" NOx_abs="98.567200" fuel_abs="101.141616" electricity_abs="0"/>
    </tripinfo>
    <tripinfo id="carIn12365:1" depart="57713.00" departLane="315358244_1" departPos="5.10" departSpeed="0.00" departDelay="0.50" arrival="57800.00" arrivalLane="447569997#1_1" arrivalPos="180.93" arrivalSpeed="6.10" duration="87.00" routeLength="718.04" waitingTime="0.00" waitingCount="0" stopTime="0.00" timeLoss="17.23" rerouteNo="1" devices="tripinfo_carIn12365:1 routing_carIn12365:1 emissions_carIn12365:1" vType="default_016" speedFactor="0.88" vaporized="">
        <emissions CO_abs="3224.137852" CO2_abs="162915.516816" HC_abs="18.426358" PMx_abs="2.577727" NOx_abs="65.061466" fuel_abs="70.031445" electricity_abs="0"/>
    </tripinfo>
    <tripinfo id="carIn107282:1" depart="57749.00" departLane="-447569998#1_1" departPos="5.10" departSpeed="0.00" departDelay="0.00" arrival="57805.00" arrivalLane="315358242#0_1" arrivalPos="165.37" arrivalSpeed="13.26" duration="56.00" routeLength="448.50" waitingTime="6.00" waitingCount="1" stopTime="0.00" timeLoss="15.51" rerouteNo="1" devices="tripinfo_carIn107282:1 routing_carIn107282:1 emissions_carIn107282:1" vType="default_016" speedFactor="1.03" vaporized="">
        <emissions CO_abs="2399.178075" CO2_abs="129474.286570" HC_abs="13.935673" PMx_abs="2.246220" NOx_abs="52.774557" fuel_abs="55.655857" electricity_abs="0"/>
    </tripinfo>
    <tripinfo id="h645c1:1" depart="57622.00" departLane="266565295#5_1" departPos="5.10" departSpeed="0.00" departDelay="0.40" arrival="57813.00" arrivalLane="-315358244_2" arrivalPos="33.95" arrivalSpeed="14.35" duration="191.00" routeLength="1910.83" waitingTime="27.00" waitingCount="2" stopTime="0.00" timeLoss="59.94" rerouteNo="1" devices="tripinfo_h645c1:1 routing_h645c1:1 emissions_h645c1:1" vType="default_016" speedFactor="1.06" vaporized="">
        <emissions CO_abs="9099.553464" CO2_abs="494717.197165" HC_abs="52.896861" PMx_abs="8.746083" NOx_abs="200.318701" fuel_abs="212.659206" electricity_abs="0"/>
    </tripinfo>
    <tripinfo id="carIn50326:1" depart="57651.00" departLane="128361102#0_1" departPos="5.10" departSpeed="0.00" departDelay="0.30" arrival="57813.00" arrivalLane="18809673#0_1" arrivalPos="473.56" arrivalSpeed="13.15" duration="162.00" routeLength="1591.07" waitingTime="4.00" waitingCount="1" stopTime="0.00" timeLoss="28.82" rerouteNo="1" devices="tripinfo_carIn50326:1 routing_carIn50326:1 emissions_carIn50326:1" vType="default_016" speedFactor="0.97" vaporized="">
        <emissions CO_abs="5585.027379" CO2_abs="356169.253449" HC_abs="33.705230" PMx_abs="5.768461" NOx_abs="142.076156" fuel_abs="153.102836" electricity_abs="0"/>
    </tripinfo>
    <tripinfo id="carIn129809:1" depart="57729.00" departLane="-447569998#1_1" departPos="5.10" departSpeed="0.00" departDelay="1.00" arrival="57813.00" arrivalLane="-315358244_1" arrivalPos="33.95" arrivalSpeed="14.29" duration="84.00" routeLength="706.49" waitingTime="9.00" waitingCount="1" stopTime="0.00" timeLoss="26.27" rerouteNo="1" devices="tripinfo_carIn129809:1 routing_carIn129809:1 emissions_carIn129809:1" vType="default_015" speedFactor="1.05" vaporized="">
        <emissions CO_abs="4086.248347" CO2_abs="209229.333486" HC_abs="23.452466" PMx_abs="3.678121" NOx_abs="85.439699" fuel_abs="89.939502" electricity_abs="0"/>
    </tripinfo>
    <tripinfo id="carIn86816:1" depart="57617.00" departLane="128361102#0_1" departPos="5.10" departSpeed="0.00" departDelay="0.80" arrival="57826.00" arrivalLane="201956811#0_1" arrivalPos="40.40" arrivalSpeed="10.77" duration="209.00" routeLength="2067.33" waitingTime="5.00" waitingCount="1" stopTime="0.00" timeLoss="29.09" rerouteNo="1" devices="tripinfo_carIn86816:1 routing_carIn86816:1 emissions_carIn86816:1" vType="default_016" speedFactor="0.84" vaporized="">
        <emissions CO_abs="6234.930019" CO2_abs="436091.057879" HC_abs="38.465396" PMx_abs="6.699773" NOx_abs="171.885902" fuel_abs="187.458015" electricity_abs="0"/>
    </tripinfo>
    <tripinfo id="h9563c2:5" depart="57631.00" departLane="315358244_1" departPos="5.10" departSpeed="0.00" departDelay="0.70" arrival="57840.00" arrivalLane="386687235_1" arrivalPos="80.84" arrivalSpeed="14.64" duration="209.00" routeLength="1186.14" waitingTime="104.00" waitingCount="2" stopTime="0.00" timeLoss="127.53" rerouteNo="1" devices="tripinfo_h9563c2:5 routing_h9563c2:5 emissions_h9563c2:5" vType="default_016" speedFactor="1.07" vaporized="">
        <emissions CO_abs="19608.352608" CO2_abs="529171.514193" HC_abs="101.711663" PMx_abs="11.122578" NOx_abs="227.308509" fuel_abs="227.475353" electricity_abs="0"/>
    </tripinfo>
    <tripinfo id="h3864c1:3" depart="57678.00" departLane="24693977#1_1" departPos="5.10" departSpeed="0.00" departDelay="0.00" arrival="57841.00" arrivalLane="201956820_1" arrivalPos="48.33" arrivalSpeed="14.85" duration="163.00" routeLength="1574.85" waitingTime="18.00" waitingCount="2" stopTime="0.00" timeLoss="46.14" rerouteNo="1" devices="tripinfo_h3864c1:3 routing_h3864c1:3 emissions_h3864c1:3" vType="default_016" speedFactor="1.10" vaporized="">
        <emissions CO_abs="8355.231627" CO2_abs="478318.347698" HC_abs="49.167487" PMx_abs="8.578932" NOx_abs="195.672608" fuel_abs="205.609307" electricity_abs="0"/>
    </tripinfo>
    <tripinfo id="h9953c2:3" depart="57682.00" departLane="-54169231#2_1" departPos="5.10" departSpeed="0.00" departDelay="0.00" arrival="57843.00" arrivalLane="386687235_2" arrivalPos="80.84" arrivalSpeed="13.74" duration="161.00" routeLength="1535.60" waitingTime="21.00" waitingCount="1" stopTime="0.00" timeLoss="45.11" rerouteNo="1" devices="tripinfo_h9953c2:3 routing_h9953c2:3 emissions_h9953c2:3" vType="default_016" speedFactor="1.08" vaporized="">
        <emissions CO_abs="8814.708022" CO2_abs="458727.629564" HC_abs="50.820399" PMx_abs="8.353233" NOx_abs="188.543110" fuel_abs="197.188556" electricity_abs="0"/>
    </tripinfo>
    <tripinfo id="h16072c2:3" depart="57663.00" departLane="315358254#0_1" departPos="5.10" departSpeed="0.00" departDelay="2.50" arrival="57844.00" arrivalLane="386687235_1" arrivalPos="80.84" arrivalSpeed="12.06" duration="181.00" routeLength="1611.92" waitingTime="30.00" waitingCount="2" stopTime="0.00" timeLoss="52.43" rerouteNo="1" devices="tripinfo_h16072c2:3 routing_h16072c2:3 emissions_h16072c2:3" vType="default_016" speedFactor="0.91" vaporized="">
        <emissions CO_abs="8197.680220" CO2_abs="406051.327913" HC_abs="46.769287" PMx_abs="6.884777" NOx_abs="163.631132" fuel_abs="174.546264" electricity_abs="0"/>
    </tripinfo>
    <tripinfo id="50R_frequency3.17" depart="57674.00" departLane="-18809673#6_1" departPos="12.10" departSpeed="0.00" departDelay="0.70" arrival="57847.00" arrivalLane="201956811#0_1" arrivalPos="40.40" arrivalSpeed="12.45" duration="173.00" routeLength="1954.47" waitingTime="7.00" waitingCount="1" stopTime="0.00" timeLoss="28.78" rerouteNo="1" devices="tripinfo_50R_frequency3.17 routing_50R_frequency3.17 emissions_50R_frequency3.17" vType="bus" speedFactor="1.00" vaporized="">
        <emissions CO_abs="3369.768725" CO2_abs="2110841.079510" HC_abs="719.545876" PMx_abs="361.810950" NOx_abs="16368.847272" fuel_abs="900.259631" electricity_abs="0"/>
    </tripinfo>
    <tripinfo id="randUni15030:1" depart="57735.00" departLane="386687232#0_1" departPos="5.10" departSpeed="0.00" departDelay="0.10" arrival="57854.00" arrivalLane="26677539_1" arrivalPos="151.98" arrivalSpeed="8.22" duration="119.00" routeLength="919.89" waitingTime="25.00" waitingCount="1" stopTime="0.00" timeLoss="41.77" rerouteNo="1" devices="tripinfo_randUni15030:1 routing_randUni15030:1 emissions_randUni15030:1" vType="random_016" speedFactor="1.08" vaporized="">
        <emissions CO_abs="7153.524716" CO2_abs="283112.188951" HC_abs="39.155130" PMx_abs="5.255657" NOx_abs="117.456267" fuel_abs="121.699814" electricity_abs="0"/>
    </tripinfo>
    <tripinfo id="carIn118591:1" depart="57689.00" departLane="315358244_1" departPos="5.10" departSpeed="0.00" departDelay="0.20" arrival="57863.00" arrivalLane="386687235_1" arrivalPos="80.84" arrivalSpeed="14.17" duration="174.00" routeLength="1186.14" waitingTime="66.00" waitingCount="3" stopTime="0.00" timeLoss="92.36" rerouteNo="1" devices="tripinfo_carIn118591:1 routing_carIn118591:1 emissions_carIn118591:1" vType="default_016" speedFactor="1.06" vaporized="">
        <emissions CO_abs="12962.224790" CO2_abs="425191.359730" HC_abs="68.911855" PMx_abs="8.379962" NOx_abs="178.590444" fuel_abs="182.775820" electricity_abs="0"/>
    </tripinfo>
    <tripinfo id="h825c2:3" depart="57690.00" departLane="315358254#0_1" departPos="5.10" departSpeed="0.00" departDelay="0.50" arrival="57864.00" arrivalLane="32978638#0_1" arrivalPos="49.29" arrivalSpeed="14.25" duration="174.00" routeLength="2207.01" waitingTime="8.00" waitingCount="1" stopTime="0.00" timeLoss="29.85" rerouteNo="1" devices="tripinfo_h825c2:3 routing_h825c2:3 emissions_h825c2:3" vType="default_016" speedFactor="1.12" vaporized="">
        <emissions CO_abs="4990.541268" CO2_abs="432120.819717" HC_abs="32.655153" PMx_abs="7.029651" NOx_abs="169.295368" fuel_abs="185.750085" electricity_abs="0"/>
    </tripinfo>
    <tripinfo id="h17890c1:3" depart="57792.00" departLane="386687232#0_1" departPos="5.10" departSpeed="0.00" departDelay="0.00" arrival="57866.00" arrivalLane="32978638#0_2" arrivalPos="49.29" arrivalSpeed="12.54" duration="74.00" routeLength="797.04" waitingTime="0.00" waitingCount="0" stopTime="0.00" timeLoss="9.13" rerouteNo="1" devices="tripinfo_h17890c1:3 routing_h17890c1:3 emissions_h17890c1:3" vType="default_016" speedFactor="0.92" vaporized="">
        <emissions CO_abs="2836.636848" CO2_abs="201785.920623" HC_abs="17.615953" PMx_abs="3.271992" NOx_abs="80.446977" fuel_abs="86.739372" electricity_abs="0"/>
    </tripinfo>
    <tripinfo id="h12244c1:3" depart="57612.00" departLane="315358244_1" departPos="5.10" departSpeed="0.00" departDelay="0.40" arrival="57867.00" arrivalLane="386687235_1" arrivalPos="80.84" arrivalSpeed="10.47" duration="255.00" routeLength="1186.14" waitingTime="112.00" waitingCount="4" stopTime="0.00" timeLoss="144.38" rerouteNo="1" devices="tripinfo_h12244c1:3 routing_h12244c1:3 emissions_h12244c1:3" vType="default_016" speedFactor="0.78" vaporized="">
        <emissions CO_abs="21084.176913" CO2_abs="548258.260579" HC_abs="108.774628" PMx_abs="11.149879" NOx_abs="234.973322" fuel_abs="235.681223" electricity_abs="0"/>
    </tripinfo>
    <tripinfo id="h11737c1:1" depart="57665.00" departLane="272042143_1" departPos="5.10" departSpeed="0.00" departDelay="1.50" arrival="57867.00" arrivalLane="-315358254#1_1" arrivalPos="137.16" arrivalSpeed="14.04" duration="202.00" routeLength="1596.88" waitingTime="68.00" waitingCount="2" stopTime="0.00" timeLoss="87.43" rerouteNo="1" devices="tripinfo_h11737c1:1 routing_h11737c1:1 emissions_h11737c1:1" vType="default_016" speedFactor="1.02" vaporized="">
        <emissions CO_abs="14480.910244" CO2_abs="497536.102059" HC_abs="77.582022" PMx_abs="9.723499" NOx_abs="208.566515" fuel_abs="213.873990" electricity_abs="0"/>
    </tripinfo>
    <tripinfo id="carIn126288:1" depart="57674.00" departLane="272042143_1" departPos="5.10" departSpeed="0.00" departDelay="0.00" arrival="57870.00" arrivalLane="-315358254#1_1" arrivalPos="137.16" arrivalSpeed="11.61" duration="196.00" routeLength="1596.88" waitingTime="51.00" waitingCount="2" stopTime="0.00" timeLoss="68.86" rerouteNo="1" devices="tripinfo_carIn126288:1 routing_carIn126288:1 emissions_carIn126288:1" vType="default_016" speedFactor="0.91" vaporized="">
        <emissions CO_abs="11260.213575" CO2_abs="438471.903802" HC_abs="61.473214" PMx_abs="7.841870" NOx_abs="179.332515" fuel_abs="188.484093" electricity_abs="0"/>
    </tripinfo>
    <tripinfo id="carIn82278:1" depart="57702.00" departLane="-306240162#1_0" departPos="5.10" departSpeed="0.00" departDelay="0.70" arrival="57871.00" arrivalLane="399835085#1_1" arrivalPos="212.23" arrivalSpeed="8.54" duration="169.00" routeLength="1093.26" waitingTime="66.00" waitingCount="2" stopTime="0.00" timeLoss="97.14" rerouteNo="1" devices="tripinfo_carIn82278:1 routing_carIn82278:1 emissions_carIn82278:1" vType="default_016" speedFactor="1.09" vaporized="">
        <emissions CO_abs="15250.701431" CO2_abs="486185.396454" HC_abs="80.852990" PMx_abs="10.070999" NOx_abs="206.901377" fuel_abs="208.994827" electricity_abs="0"/>
    </tripinfo>
    <tripinfo id="carIn12152:1" depart="57647.00" departLane="24599188#0.94_1" departPos="5.10" departSpeed="0.00" departDelay="0.50" arrival="57872.00" arrivalLane="-315358254#1_1" arrivalPos="137.16" arrivalSpeed="13.03" duration="225.00" routeLength="2034.31" waitingTime="44.00" waitingCount="2" stopTime="0.00" timeLoss="70.85" rerouteNo="1" devices="tripinfo_carIn12152:1 routing_carIn12152:1 emissions_carIn12152:1" vType="default_016" speedFactor="1.03" vaporized="">
        <emissions CO_abs="10756.646230" CO2_abs="499517.122082" HC_abs="60.614981" PMx_abs="8.849036" NOx_abs="203.018815" fuel_abs="214.723773" electricity_abs="0"/>
    </tripinfo>
    <tripinfo id="carIn99509:1" depart="57720.00" departLane="-32978638#0_1" departPos="5.10" departSpeed="0.00" departDelay="0.20" arrival="57873.00" arrivalLane="-315358244_2" arrivalPos="33.95" arrivalSpeed="15.43" duration="153.00" routeLength="1785.24" waitingTime="9.00" waitingCount="2" stopTime="0.00" timeLoss="35.67" rerouteNo="1" devices="tripinfo_carIn99509:1 routing_carIn99509:1 emissions_carIn99509:1" vType="default_015" speedFactor="1.11" vaporized="">
        <emissions CO_abs="5648.229989" CO2_abs="436525.300199" HC_abs="35.899369" PMx_abs="7.543428" NOx_abs="174.759577" fuel_abs="187.643151" electricity_abs="0"/>
    </tripinfo>
    <tripinfo id="carIn126378:1" depart="57746.00" departLane="386687232#0_1" departPos="5.10" departSpeed="0.00" departDelay="1.80" arrival="57873.00" arrivalLane="-315358244_1" arrivalPos="33.95" arrivalSpeed="13.83" duration="127.00" routeLength="1157.39" waitingTime="29.00" waitingCount="2" stopTime="0.00" timeLoss="47.12" rerouteNo="1" devices="tripinfo_carIn126378:1 routing_carIn126378:1 emissions_carIn126378:1" vType="default_016" speedFactor="1.06" vaporized="">
        <emissions CO_abs="7536.797112" CO2_abs="324303.398702" HC_abs="41.860205" PMx_abs="6.093035" NOx_abs="134.093200" fuel_abs="139.405857" electricity_abs="0"/>
    </tripinfo>
    <tripinfo id="h17549c1:1" depart="57680.00" departLane="-447569998#1_1" departPos="5.10" departSpeed="0.00" departDelay="0.00" arrival="57874.00" arrivalLane="-315358254#1_1" arrivalPos="137.16" arrivalSpeed="13.07" duration="194.00" routeLength="1746.60" waitingTime="37.00" waitingCount="1" stopTime="0.00" timeLoss="57.66" rerouteNo="1" devices="tripinfo_h17549c1:1 routing_h17549c1:1 emissions_h17549c1:1" vType="default_016" speedFactor="1.01" vaporized="">
        <emissions CO_abs="9819.955501" CO2_abs="426104.634940" HC_abs="54.626288" PMx_abs="7.539395" NOx_abs="173.301827" fuel_abs="183.167032" electricity_abs="0"/>
    </tripinfo>
    <tripinfo id="carIn73855:1" depart="57743.00" departLane="386687232#0_1" departPos="5.10" departSpeed="0.00" departDelay="0.50" arrival="57876.00" arrivalLane="-315358244_1" arrivalPos="33.95" arrivalSpeed="12.76" duration="133.00" routeLength="1157.39" waitingTime="21.00" waitingCount="2" stopTime="0.00" timeLoss="40.98" rerouteNo="1" devices="tripinfo_carIn73855:1 routing_carIn73855:1 emissions_carIn73855:1" vType="default_016" speedFactor="0.92" vaporized="">
        <emissions CO_abs="6291.970864" CO2_abs="291949.840069" HC_abs="35.456011" PMx_abs="5.116850" NOx_abs="118.901931" fuel_abs="125.498374" electricity_abs="0"/>
    </tripinfo>
    <tripinfo id="h13377c2:3" depart="57808.00" departLane="315358244_1" departPos="5.10" departSpeed="0.00" departDelay="4.60" arrival="57876.00" arrivalLane="447569997#1_1" arrivalPos="180.93" arrivalSpeed="7.32" duration="68.00" routeLength="718.04" waitingTime="0.00" waitingCount="0" stopTime="0.00" timeLoss="7.08" rerouteNo="1" devices="tripinfo_h13377c2:3 routing_h13377c2:3 emissions_h13377c2:3" vType="default_016" speedFactor="1.02" vaporized="">
        <emissions CO_abs="2202.351204" CO2_abs="147980.572393" HC_abs="13.435302" PMx_abs="2.322215" NOx_abs="58.330372" fuel_abs="63.610927" electricity_abs="0"/>
    </tripinfo>