<?xml version="1.0" encoding="UTF-8"?>

<!-- generated on 2021-10-26 22:03:53 by Eclipse SUMO sumo Version 1.10.0
<configuration xmlns:xsi="http://www.w3.org/2001/XMLSchema-instance" xsi:noNamespaceSchemaLocation="http://sumo.dlr.de/xsd/sumoConfiguration.xsd">

    <input>
        <net-file value="/Users/behradkoohy/sumo-scratchpad/RESCO/environments/ingolstadt21/ingolstadt21.net.xml"/>
        <route-files value="/Users/behradkoohy/sumo-scratchpad/RESCO/environments/ingolstadt21/ingolstadt21.rou.xml"/>
    </input>

    <output>
        <tripinfo-output value="/Users/behradkoohy/sumo-scratchpad/RESCO/logs/MPLight-tr0-ingolstadt21-21-mplight_full-pressure/tripinfo_81.xml"/>
        <tripinfo-output.write-unfinished value="true"/>
    </output>

    <time>
        <begin value="57600"/>
        <end value="61200"/>
    </time>

    <processing>
        <time-to-teleport value="-1"/>
    </processing>

    <report>
        <no-warnings value="true"/>
        <no-step-log value="true"/>
    </report>

    <emissions>
        <device.emissions.probability value="1"/>
    </emissions>

    <traci_server>
        <remote-port value="49272"/>
    </traci_server>

    <random_number>
        <random value="true"/>
    </random_number>

</configuration>
-->

<tripinfos xmlns:xsi="http://www.w3.org/2001/XMLSchema-instance" xsi:noNamespaceSchemaLocation="http://sumo.dlr.de/xsd/tripinfo_file.xsd">
    <tripinfo id="h15454c2:3" depart="57612.00" departLane="24608844_1" departPos="5.10" departSpeed="0.00" departDelay="0.50" arrival="57653.00" arrivalLane="32978638#0_1" arrivalPos="49.29" arrivalSpeed="13.42" duration="41.00" routeLength="354.79" waitingTime="0.00" waitingCount="0" stopTime="0.00" timeLoss="7.06" rerouteNo="1" devices="tripinfo_h15454c2:3 routing_h15454c2:3 emissions_h15454c2:3" vType="default_016" speedFactor="1.00" vaporized="">
        <emissions CO_abs="2099.535077" CO2_abs="113982.563836" HC_abs="12.231806" PMx_abs="2.051297" NOx_abs="47.210345" fuel_abs="48.996430" electricity_abs="0"/>
    </tripinfo>
    <tripinfo id="carIn53971:1" depart="57640.00" departLane="272042143_1" departPos="5.10" departSpeed="0.00" departDelay="0.80" arrival="57689.00" arrivalLane="24634414#1_1" arrivalPos="162.19" arrivalSpeed="8.39" duration="49.00" routeLength="493.04" waitingTime="0.00" waitingCount="0" stopTime="0.00" timeLoss="8.27" rerouteNo="1" devices="tripinfo_carIn53971:1 routing_carIn53971:1 emissions_carIn53971:1" vType="default_016" speedFactor="1.14" vaporized="">
        <emissions CO_abs="2173.115243" CO2_abs="134355.350182" HC_abs="13.039970" PMx_abs="2.389649" NOx_abs="55.063515" fuel_abs="57.753679" electricity_abs="0"/>
    </tripinfo>
    <tripinfo id="h5979c1:5" depart="57669.00" departLane="399835085#1_1" departPos="5.10" departSpeed="0.00" departDelay="0.00" arrival="57738.00" arrivalLane="-315358254#1_1" arrivalPos="137.16" arrivalSpeed="16.55" duration="69.00" routeLength="659.33" waitingTime="0.00" waitingCount="0" stopTime="0.00" timeLoss="9.77" rerouteNo="1" devices="tripinfo_h5979c1:5 routing_h5979c1:5 emissions_h5979c1:5" vType="default_016" speedFactor="1.23" vaporized="">
        <emissions CO_abs="3045.394744" CO2_abs="179344.268287" HC_abs="18.053727" PMx_abs="3.078746" NOx_abs="73.069675" fuel_abs="77.092779" electricity_abs="0"/>
    </tripinfo>
    <tripinfo id="carIn121703:1" depart="57647.00" departLane="386687232#0_1" departPos="5.10" departSpeed="0.00" departDelay="0.30" arrival="57775.00" arrivalLane="-315358244_1" arrivalPos="33.95" arrivalSpeed="11.69" duration="128.00" routeLength="1157.39" waitingTime="11.00" waitingCount="2" stopTime="0.00" timeLoss="34.31" rerouteNo="1" devices="tripinfo_carIn121703:1 routing_carIn121703:1 emissions_carIn121703:1" vType="default_016" speedFactor="0.90" vaporized="">
        <emissions CO_abs="4949.762612" CO2_abs="288190.273628" HC_abs="29.258752" PMx_abs="4.882796" NOx_abs="116.549998" fuel_abs="123.881426" electricity_abs="0"/>
    </tripinfo>
    <tripinfo id="h3326c1:2" depart="57656.00" departLane="22716069#0_1" departPos="5.10" departSpeed="0.00" departDelay="0.00" arrival="57782.00" arrivalLane="24634517#13_1" arrivalPos="111.62" arrivalSpeed="11.34" duration="126.00" routeLength="1312.81" waitingTime="0.00" waitingCount="0" stopTime="0.00" timeLoss="15.32" rerouteNo="1" devices="tripinfo_h3326c1:2 routing_h3326c1:2 emissions_h3326c1:2" vType="default_016" speedFactor="0.89" vaporized="">
        <emissions CO_abs="3984.326220" CO2_abs="276838.031860" HC_abs="24.594612" PMx_abs="4.547473" NOx_abs="110.988664" fuel_abs="119.001117" electricity_abs="0"/>
    </tripinfo>
    <tripinfo id="h11737c1:1" depart="57665.00" departLane="272042143_1" departPos="5.10" departSpeed="0.00" departDelay="1.50" arrival="57810.00" arrivalLane="-315358254#1_1" arrivalPos="137.16" arrivalSpeed="11.44" duration="145.00" routeLength="1596.88" waitingTime="0.00" waitingCount="0" stopTime="0.00" timeLoss="13.93" rerouteNo="1" devices="tripinfo_h11737c1:1 routing_h11737c1:1 emissions_h11737c1:1" vType="default_016" speedFactor="0.89" vaporized="">
        <emissions CO_abs="4110.120003" CO2_abs="322190.181576" HC_abs="26.182903" PMx_abs="4.946042" NOx_abs="126.322053" fuel_abs="138.496256" electricity_abs="0"/>
    </tripinfo>
    <tripinfo id="carIn126288:1" depart="57674.00" departLane="272042143_1" departPos="5.10" departSpeed="0.00" departDelay="0.00" arrival="57811.00" arrivalLane="-315358254#1_1" arrivalPos="137.16" arrivalSpeed="14.57" duration="137.00" routeLength="1596.88" waitingTime="0.00" waitingCount="0" stopTime="0.00" timeLoss="26.25" rerouteNo="1" devices="tripinfo_carIn126288:1 routing_carIn126288:1 emissions_carIn126288:1" vType="default_016" speedFactor="1.05" vaporized="">
        <emissions CO_abs="4865.645723" CO2_abs="378359.102836" HC_abs="31.023258" PMx_abs="6.323252" NOx_abs="151.471660" fuel_abs="162.640223" electricity_abs="0"/>
    </tripinfo>
    <tripinfo id="h17600c1:1" depart="57662.00" departLane="272042143_1" departPos="5.10" departSpeed="0.00" departDelay="0.30" arrival="57843.00" arrivalLane="201238729#3_1" arrivalPos="431.02" arrivalSpeed="12.88" duration="181.00" routeLength="2100.26" waitingTime="7.00" waitingCount="1" stopTime="0.00" timeLoss="24.35" rerouteNo="1" devices="tripinfo_h17600c1:1 routing_h17600c1:1 emissions_h17600c1:1" vType="default_016" speedFactor="0.97" vaporized="">
        <emissions CO_abs="4769.556914" CO2_abs="371010.110878" HC_abs="30.382736" PMx_abs="6.022406" NOx_abs="146.784122" fuel_abs="159.481540" electricity_abs="0"/>
    </tripinfo>
    <tripinfo id="randUni15030:1" depart="57735.00" departLane="386687232#0_1" departPos="5.10" departSpeed="0.00" departDelay="0.10" arrival="57849.00" arrivalLane="26677539_1" arrivalPos="151.98" arrivalSpeed="6.02" duration="114.00" routeLength="919.89" waitingTime="0.00" waitingCount="0" stopTime="0.00" timeLoss="11.76" rerouteNo="1" devices="tripinfo_randUni15030:1 routing_randUni15030:1 emissions_randUni15030:1" vType="random_016" speedFactor="0.82" vaporized="">
        <emissions CO_abs="4015.815735" CO2_abs="209630.290594" HC_abs="23.110271" PMx_abs="3.345158" NOx_abs="84.193658" fuel_abs="90.112237" electricity_abs="0"/>
    </tripinfo>
    <tripinfo id="carIn126378:1" depart="57746.00" departLane="386687232#0_1" departPos="5.10" departSpeed="0.00" departDelay="1.80" arrival="57853.00" arrivalLane="-315358244_1" arrivalPos="33.95" arrivalSpeed="14.56" duration="107.00" routeLength="1157.39" waitingTime="5.00" waitingCount="2" stopTime="0.00" timeLoss="27.25" rerouteNo="1" devices="tripinfo_carIn126378:1 routing_carIn126378:1 emissions_carIn126378:1" vType="default_016" speedFactor="1.07" vaporized="">
        <emissions CO_abs="4451.160951" CO2_abs="294505.608760" HC_abs="27.184547" PMx_abs="5.257393" NOx_abs="119.984225" fuel_abs="126.595289" electricity_abs="0"/>
    </tripinfo>
    <tripinfo id="h7800c1:5" depart="57696.00" departLane="-447569998#1_1" departPos="5.10" departSpeed="0.00" departDelay="0.00" arrival="57875.00" arrivalLane="-447569998#1_2" arrivalPos="180.76" arrivalSpeed="4.96" duration="179.00" routeLength="175.66" waitingTime="150.00" waitingCount="1" stopTime="0.00" timeLoss="157.86" rerouteNo="1" devices="tripinfo_h7800c1:5 routing_h7800c1:5 emissions_h7800c1:5" vType="default_016" speedFactor="1.02" vaporized="">
        <emissions CO_abs="25011.232047" CO2_abs="436862.125561" HC_abs="124.118914" PMx_abs="10.479674" NOx_abs="197.534854" fuel_abs="187.799662" electricity_abs="0"/>
    </tripinfo>
    <tripinfo id="h13377c2:3" depart="57804.00" departLane="315358244_1" departPos="5.10" departSpeed="0.00" departDelay="0.60" arrival="57880.00" arrivalLane="447569997#1_1" arrivalPos="180.93" arrivalSpeed="8.23" duration="76.00" routeLength="726.74" waitingTime="1.00" waitingCount="1" stopTime="0.00" timeLoss="15.38" rerouteNo="1" devices="tripinfo_h13377c2:3 routing_h13377c2:3 emissions_h13377c2:3" vType="default_016" speedFactor="1.12" vaporized="">
        <emissions CO_abs="3212.139902" CO2_abs="180594.898397" HC_abs="18.842144" PMx_abs="3.095260" NOx_abs="73.192582" fuel_abs="77.630543" electricity_abs="0"/>
    </tripinfo>
    <tripinfo id="carIn13443:1" depart="57729.00" departLane="272042143_1" departPos="5.10" departSpeed="0.00" departDelay="0.80" arrival="57881.00" arrivalLane="399835085#1_1" arrivalPos="212.23" arrivalSpeed="8.62" duration="152.00" routeLength="1757.45" waitingTime="0.00" waitingCount="0" stopTime="0.00" timeLoss="24.48" rerouteNo="1" devices="tripinfo_carIn13443:1 routing_carIn13443:1 emissions_carIn13443:1" vType="default_016" speedFactor="1.11" vaporized="">
        <emissions CO_abs="4857.661517" CO2_abs="381751.897076" HC_abs="30.941682" PMx_abs="6.111659" NOx_abs="150.630760" fuel_abs="164.099037" electricity_abs="0"/>
    </tripinfo>
    <tripinfo id="carIn81860:1" depart="57712.00" departLane="128361102#0_1" departPos="5.10" departSpeed="0.00" departDelay="0.60" arrival="57882.00" arrivalLane="-24634517#17_1" arrivalPos="6.43" arrivalSpeed="7.27" duration="170.00" routeLength="1229.64" waitingTime="52.00" waitingCount="1" stopTime="0.00" timeLoss="74.21" rerouteNo="1" devices="tripinfo_carIn81860:1 routing_carIn81860:1 emissions_carIn81860:1" vType="default_016" speedFactor="0.94" vaporized="">
        <emissions CO_abs="12346.752425" CO2_abs="410822.384518" HC_abs="65.821660" PMx_abs="7.913334" NOx_abs="172.176772" fuel_abs="176.599130" electricity_abs="0"/>
    </tripinfo>
    <tripinfo id="carIn80064:1" depart="57603.00" departLane="128361109#1_1" departPos="5.10" departSpeed="0.00" departDelay="0.40" arrival="57884.00" arrivalLane="-315358254#1_1" arrivalPos="137.16" arrivalSpeed="11.60" duration="281.00" routeLength="1587.97" waitingTime="156.00" waitingCount="1" stopTime="0.00" timeLoss="181.36" rerouteNo="1" devices="tripinfo_carIn80064:1 routing_carIn80064:1 emissions_carIn80064:1" vType="default_016" speedFactor="0.89" vaporized="">
        <emissions CO_abs="30646.267467" CO2_abs="804099.913839" HC_abs="158.489910" PMx_abs="17.474857" NOx_abs="347.858371" fuel_abs="345.659003" electricity_abs="0"/>
    </tripinfo>
    <tripinfo id="carIn107282:1" depart="57749.00" departLane="-447569998#1_1" departPos="5.10" departSpeed="0.00" departDelay="0.00" arrival="57897.00" arrivalLane="315358242#0_1" arrivalPos="165.37" arrivalSpeed="15.50" duration="148.00" routeLength="448.50" waitingTime="103.00" waitingCount="1" stopTime="0.00" timeLoss="111.51" rerouteNo="1" devices="tripinfo_carIn107282:1 routing_carIn107282:1 emissions_carIn107282:1" vType="default_016" speedFactor="1.14" vaporized="">
        <emissions CO_abs="18219.663825" CO2_abs="382514.716903" HC_abs="91.931292" PMx_abs="8.642578" NOx_abs="169.020998" fuel_abs="164.434344" electricity_abs="0"/>
    </tripinfo>
    <tripinfo id="carIn53503:1" depart="57764.00" departLane="-306240162#1_0" departPos="5.10" departSpeed="0.00" departDelay="3.40" arrival="57900.00" arrivalLane="24634510#6_1" arrivalPos="76.64" arrivalSpeed="12.81" duration="136.00" routeLength="1440.47" waitingTime="18.00" waitingCount="1" stopTime="0.00" timeLoss="37.67" rerouteNo="1" devices="tripinfo_carIn53503:1 routing_carIn53503:1 emissions_carIn53503:1" vType="default_016" speedFactor="1.01" vaporized="">
        <emissions CO_abs="6272.092263" CO2_abs="358351.381267" HC_abs="36.969216" PMx_abs="6.569970" NOx_abs="146.764163" fuel_abs="154.040340" electricity_abs="0"/>
    </tripinfo>
    <tripinfo id="randUni23028:1" depart="57884.00" departLane="124812856#0_1" departPos="5.10" departSpeed="0.00" departDelay="0.10" arrival="57900.00" arrivalLane="201956810_1" arrivalPos="71.65" arrivalSpeed="13.44" duration="16.00" routeLength="134.91" waitingTime="0.00" waitingCount="0" stopTime="0.00" timeLoss="4.69" rerouteNo="1" devices="tripinfo_randUni23028:1 routing_randUni23028:1 emissions_randUni23028:1" vType="random_016" speedFactor="0.99" vaporized="">
        <emissions CO_abs="1246.775439" CO2_abs="64528.474315" HC_abs="7.195440" PMx_abs="1.200272" NOx_abs="26.974858" fuel_abs="27.738135" electricity_abs="0"/>
    </tripinfo>
    <tripinfo id="carIn132499:1" depart="57740.00" departLane="272042143_1" departPos="5.10" departSpeed="0.00" departDelay="0.70" arrival="57905.00" arrivalLane="201238729#3_1" arrivalPos="431.02" arrivalSpeed="13.68" duration="165.00" routeLength="2100.26" waitingTime="0.00" waitingCount="0" stopTime="0.00" timeLoss="13.11" rerouteNo="1" devices="tripinfo_carIn132499:1 routing_carIn132499:1 emissions_carIn132499:1" vType="default_016" speedFactor="1.00" vaporized="">
        <emissions CO_abs="3647.837276" CO2_abs="363996.299588" HC_abs="25.073638" PMx_abs="5.479283" NOx_abs="140.086976" fuel_abs="156.466492" electricity_abs="0"/>
    </tripinfo>
    <tripinfo id="carIn50326:1" depart="57651.00" departLane="128361102#0_1" departPos="5.10" departSpeed="0.00" departDelay="0.30" arrival="57909.00" arrivalLane="18809673#0_1" arrivalPos="473.56" arrivalSpeed="14.61" duration="258.00" routeLength="1591.07" waitingTime="110.00" waitingCount="2" stopTime="0.00" timeLoss="137.99" rerouteNo="1" devices="tripinfo_carIn50326:1 routing_carIn50326:1 emissions_carIn50326:1" vType="default_016" speedFactor="1.08" vaporized="">
        <emissions CO_abs="22571.189298" CO2_abs="635057.540680" HC_abs="117.625775" PMx_abs="13.056053" NOx_abs="271.153335" fuel_abs="272.992251" electricity_abs="0"/>
    </tripinfo>
    <tripinfo id="carIn60260:1" depart="57606.00" departLane="315358254#0_1" departPos="5.10" departSpeed="0.00" departDelay="0.90" arrival="57910.00" arrivalLane="399835085#1_1" arrivalPos="212.23" arrivalSpeed="5.82" duration="304.00" routeLength="430.98" waitingTime="240.00" waitingCount="1" stopTime="0.00" timeLoss="250.03" rerouteNo="1" devices="tripinfo_carIn60260:1 routing_carIn60260:1 emissions_carIn60260:1" vType="default_016" speedFactor="0.85" vaporized="">
        <emissions CO_abs="41082.298827" CO2_abs="725414.079415" HC_abs="204.047998" PMx_abs="17.291377" NOx_abs="327.308959" fuel_abs="311.843065" electricity_abs="0"/>
    </tripinfo>
    <tripinfo id="carIn81681:1" depart="57726.00" departLane="272042143_1" departPos="5.10" departSpeed="0.00" departDelay="0.30" arrival="57910.00" arrivalLane="306240162#0_0" arrivalPos="220.43" arrivalSpeed="15.18" duration="184.00" routeLength="2246.89" waitingTime="4.00" waitingCount="1" stopTime="0.00" timeLoss="30.99" rerouteNo="1" devices="tripinfo_carIn81681:1 routing_carIn81681:1 emissions_carIn81681:1" vType="default_016" speedFactor="0.97" vaporized="">
        <emissions CO_abs="6571.302054" CO2_abs="520946.713260" HC_abs="42.058442" PMx_abs="8.963764" NOx_abs="208.387145" fuel_abs="223.932131" electricity_abs="0"/>
    </tripinfo>
    <tripinfo id="carIn14532:1" depart="57743.00" departLane="272042143_1" departPos="5.10" departSpeed="0.00" departDelay="1.90" arrival="57914.00" arrivalLane="399835085#1_1" arrivalPos="212.23" arrivalSpeed="7.92" duration="171.00" routeLength="1757.45" waitingTime="0.00" waitingCount="0" stopTime="0.00" timeLoss="34.44" rerouteNo="1" devices="tripinfo_carIn14532:1 routing_carIn14532:1 emissions_carIn14532:1" vType="default_016" speedFactor="1.04" vaporized="">
        <emissions CO_abs="6336.177728" CO2_abs="412871.318656" HC_abs="38.533289" PMx_abs="7.167232" NOx_abs="168.135528" fuel_abs="177.475886" electricity_abs="0"/>
    </tripinfo>
    <tripinfo id="carIn12858:1" depart="57661.00" departLane="128361109#1_1" departPos="5.10" departSpeed="0.00" departDelay="0.90" arrival="57922.00" arrivalLane="399835085#1_1" arrivalPos="212.23" arrivalSpeed="7.80" duration="261.00" routeLength="1738.12" waitingTime="112.00" waitingCount="2" stopTime="0.00" timeLoss="151.45" rerouteNo="1" devices="tripinfo_carIn12858:1 routing_carIn12858:1 emissions_carIn12858:1" vType="default_016" speedFactor="1.06" vaporized="">
        <emissions CO_abs="24961.165031" CO2_abs="777172.185669" HC_abs="132.014341" PMx_abs="16.442576" NOx_abs="333.794293" fuel_abs="334.080208" electricity_abs="0"/>
    </tripinfo>
    <tripinfo id="carIn85747:1" depart="57673.00" departLane="128361109#1_1" departPos="5.10" departSpeed="0.00" departDelay="0.70" arrival="57927.00" arrivalLane="386687235_1" arrivalPos="80.84" arrivalSpeed="14.04" duration="254.00" routeLength="2088.57" waitingTime="91.00" waitingCount="1" stopTime="0.00" timeLoss="106.33" rerouteNo="1" devices="tripinfo_carIn85747:1 routing_carIn85747:1 emissions_carIn85747:1" vType="default_016" speedFactor="1.02" vaporized="">
        <emissions CO_abs="17969.629014" CO2_abs="603040.541822" HC_abs="95.861588" PMx_abs="11.469772" NOx_abs="249.503293" fuel_abs="259.227757" electricity_abs="0"/>
    </tripinfo>
    <tripinfo id="carIn7949:1" depart="57676.00" departLane="128361109#1_1" departPos="5.10" departSpeed="0.00" departDelay="2.10" arrival="57928.00" arrivalLane="386687235_2" arrivalPos="80.84" arrivalSpeed="13.03" duration="252.00" routeLength="2088.57" waitingTime="87.00" waitingCount="1" stopTime="0.00" timeLoss="103.54" rerouteNo="1" devices="tripinfo_carIn7949:1 routing_carIn7949:1 emissions_carIn7949:1" vType="default_016" speedFactor="1.01" vaporized="">
        <emissions CO_abs="17433.803815" CO2_abs="585558.807889" HC_abs="93.031925" PMx_abs="11.197993" NOx_abs="242.908815" fuel_abs="251.712792" electricity_abs="0"/>
    </tripinfo>
    <tripinfo id="carIn75660:1" depart="57679.00" departLane="128361109#1_1" departPos="5.10" departSpeed="0.00" departDelay="3.40" arrival="57929.00" arrivalLane="386687235_1" arrivalPos="80.84" arrivalSpeed="15.50" duration="250.00" routeLength="2088.57" waitingTime="87.00" waitingCount="1" stopTime="0.00" timeLoss="115.55" rerouteNo="1" devices="tripinfo_carIn75660:1 routing_carIn75660:1 emissions_carIn75660:1" vType="default_016" speedFactor="1.12" vaporized="">
        <emissions CO_abs="18439.416999" CO2_abs="640967.884276" HC_abs="98.916577" PMx_abs="12.516025" NOx_abs="267.591745" fuel_abs="275.530402" electricity_abs="0"/>
    </tripinfo>
    <tripinfo id="carIn88905:1" depart="57688.00" departLane="128361109#1_1" departPos="5.10" departSpeed="0.00" departDelay="5.80" arrival="57930.00" arrivalLane="386687235_2" arrivalPos="80.84" arrivalSpeed="14.88" duration="242.00" routeLength="2088.57" waitingTime="76.00" waitingCount="1" stopTime="0.00" timeLoss="104.39" rerouteNo="1" devices="tripinfo_carIn88905:1 routing_carIn88905:1 emissions_carIn88905:1" vType="default_016" speedFactor="1.10" vaporized="">
        <emissions CO_abs="17556.679939" CO2_abs="672311.549070" HC_abs="95.789415" PMx_abs="13.140918" NOx_abs="281.068243" fuel_abs="289.002425" electricity_abs="0"/>
    </tripinfo>
    <tripinfo id="h19413c1:1" depart="57685.00" departLane="128361109#1_1" departPos="5.10" departSpeed="0.00" departDelay="5.90" arrival="57943.00" arrivalLane="386687235_1" arrivalPos="80.84" arrivalSpeed="12.57" duration="258.00" routeLength="2088.57" waitingTime="80.00" waitingCount="1" stopTime="0.00" timeLoss="96.23" rerouteNo="1" devices="tripinfo_h19413c1:1 routing_h19413c1:1 emissions_h19413c1:1" vType="default_016" speedFactor="0.93" vaporized="">
        <emissions CO_abs="16875.783825" CO2_abs="577887.775563" HC_abs="90.283610" PMx_abs="10.596124" NOx_abs="237.461781" fuel_abs="248.415617" electricity_abs="0"/>
    </tripinfo>
    <tripinfo id="carIn115169:1" depart="57759.00" departLane="24599188#0.94_1" departPos="5.10" departSpeed="0.00" departDelay="0.50" arrival="57943.00" arrivalLane="-10427692#3_1" arrivalPos="28.64" arrivalSpeed="23.06" duration="184.00" routeLength="2183.23" waitingTime="0.00" waitingCount="0" stopTime="0.00" timeLoss="27.70" rerouteNo="1" devices="tripinfo_carIn115169:1 routing_carIn115169:1 emissions_carIn115169:1" vType="default_016" speedFactor="1.08" vaporized="">
        <emissions CO_abs="8176.912031" CO2_abs="570931.893230" HC_abs="50.538860" PMx_abs="10.287484" NOx_abs="233.142932" fuel_abs="245.418503" electricity_abs="0"/>
    </tripinfo>
    <tripinfo id="carIn9695:1" depart="57822.00" departLane="272042143_1" departPos="5.10" departSpeed="0.00" departDelay="0.80" arrival="57943.00" arrivalLane="-315358254#1_1" arrivalPos="137.16" arrivalSpeed="14.20" duration="121.00" routeLength="1596.88" waitingTime="0.00" waitingCount="0" stopTime="0.00" timeLoss="12.16" rerouteNo="1" devices="tripinfo_carIn9695:1 routing_carIn9695:1 emissions_carIn9695:1" vType="default_016" speedFactor="1.07" vaporized="">
        <emissions CO_abs="3591.157673" CO2_abs="329686.103565" HC_abs="23.940859" PMx_abs="5.293952" NOx_abs="129.041834" fuel_abs="141.717714" electricity_abs="0"/>
    </tripinfo>
    <tripinfo id="h3426c1:1" depart="57864.00" departLane="-160314345#2_1" departPos="5.10" departSpeed="0.00" departDelay="0.00" arrival="57947.00" arrivalLane="386687235_1" arrivalPos="80.84" arrivalSpeed="12.52" duration="83.00" routeLength="726.87" waitingTime="0.00" waitingCount="0" stopTime="0.00" timeLoss="10.50" rerouteNo="1" devices="tripinfo_h3426c1:1 routing_h3426c1:1 emissions_h3426c1:1" vType="default_016" speedFactor="0.94" vaporized="">
        <emissions CO_abs="3244.411217" CO2_abs="181409.590528" HC_abs="18.933086" PMx_abs="2.745642" NOx_abs="71.460149" fuel_abs="77.981287" electricity_abs="0"/>
    </tripinfo>
    <tripinfo id="carIn27009:1" depart="57673.00" departLane="-447569998#1_1" departPos="5.10" departSpeed="0.00" departDelay="0.50" arrival="57948.00" arrivalLane="-26677539_1" arrivalPos="152.75" arrivalSpeed="7.37" duration="275.00" routeLength="699.63" waitingTime="171.00" waitingCount="1" stopTime="0.00" timeLoss="185.59" rerouteNo="1" devices="tripinfo_carIn27009:1 routing_carIn27009:1 emissions_carIn27009:1" vType="default_015" speedFactor="0.94" vaporized="">
        <emissions CO_abs="31265.132498" CO2_abs="609103.942088" HC_abs="156.562292" PMx_abs="13.731578" NOx_abs="270.250566" fuel_abs="261.841719" electricity_abs="0"/>
    </tripinfo>
    <tripinfo id="h3688c1:1" depart="57625.00" departLane="201201950#1_1" departPos="5.10" departSpeed="0.00" departDelay="0.00" arrival="57954.00" arrivalLane="32978638#0_1" arrivalPos="49.29" arrivalSpeed="13.90" duration="329.00" routeLength="1089.75" waitingTime="236.00" waitingCount="1" stopTime="0.00" timeLoss="255.75" rerouteNo="1" devices="tripinfo_h3688c1:1 routing_h3688c1:1 emissions_h3688c1:1" vType="default_016" speedFactor="1.09" vaporized="">
        <emissions CO_abs="41621.762308" CO2_abs="866615.690407" HC_abs="209.766385" PMx_abs="19.790032" NOx_abs="383.420726" fuel_abs="372.538341" electricity_abs="0"/>
    </tripinfo>
    <tripinfo id="carIn129809:1" depart="57729.00" departLane="-447569998#1_1" departPos="5.10" departSpeed="0.00" departDelay="1.00" arrival="57954.00" arrivalLane="-315358244_1" arrivalPos="33.95" arrivalSpeed="13.14" duration="225.00" routeLength="706.49" waitingTime="140.00" waitingCount="3" stopTime="0.00" timeLoss="161.08" rerouteNo="1" devices="tripinfo_carIn129809:1 routing_carIn129809:1 emissions_carIn129809:1" vType="default_015" speedFactor="0.95" vaporized="">
        <emissions CO_abs="25350.065494" CO2_abs="543794.780299" HC_abs="128.179214" PMx_abs="12.205935" NOx_abs="240.116141" fuel_abs="233.764576" electricity_abs="0"/>
    </tripinfo>
    <tripinfo id="carIn86816:1" depart="57617.00" departLane="128361102#0_1" departPos="5.10" departSpeed="0.00" departDelay="0.80" arrival="57955.00" arrivalLane="201956811#0_1" arrivalPos="40.40" arrivalSpeed="11.94" duration="338.00" routeLength="2067.33" waitingTime="151.00" waitingCount="2" stopTime="0.00" timeLoss="178.77" rerouteNo="1" devices="tripinfo_carIn86816:1 routing_carIn86816:1 emissions_carIn86816:1" vType="default_016" speedFactor="0.95" vaporized="">
        <emissions CO_abs="29456.922079" CO2_abs="836322.688815" HC_abs="153.695413" PMx_abs="16.837141" NOx_abs="354.858463" fuel_abs="359.510442" electricity_abs="0"/>
    </tripinfo>
    <tripinfo id="h3536c1:1" depart="57767.00" departLane="-24634413#2_1" departPos="5.10" departSpeed="0.00" departDelay="0.00" arrival="57955.00" arrivalLane="32978638#0_2" arrivalPos="49.29" arrivalSpeed="13.85" duration="188.00" routeLength="957.93" waitingTime="81.00" waitingCount="1" stopTime="0.00" timeLoss="103.11" rerouteNo="1" devices="tripinfo_h3536c1:1 routing_h3536c1:1 emissions_h3536c1:1" vType="default_016" speedFactor="1.08" vaporized="">
        <emissions CO_abs="17610.924473" CO2_abs="479825.816505" HC_abs="91.446503" PMx_abs="10.041534" NOx_abs="207.437916" fuel_abs="206.262839" electricity_abs="0"/>
    </tripinfo>
    <tripinfo id="carIn102915:1" depart="57643.00" departLane="128361102#0_1" departPos="5.10" departSpeed="0.00" departDelay="0.40" arrival="57958.00" arrivalLane="201956811#0_1" arrivalPos="40.40" arrivalSpeed="14.25" duration="315.00" routeLength="2067.33" waitingTime="128.00" waitingCount="2" stopTime="0.00" timeLoss="170.30" rerouteNo="1" devices="tripinfo_carIn102915:1 routing_carIn102915:1 emissions_carIn102915:1" vType="default_016" speedFactor="1.05" vaporized="">
        <emissions CO_abs="26706.794296" CO2_abs="835511.505670" HC_abs="141.159561" PMx_abs="16.655752" NOx_abs="353.287108" fuel_abs="359.159670" electricity_abs="0"/>
    </tripinfo>
    <tripinfo id="carIn8642:1" depart="57774.00" departLane="-447569998#1_1" departPos="5.10" departSpeed="0.00" departDelay="0.90" arrival="57959.00" arrivalLane="-315358244_1" arrivalPos="33.95" arrivalSpeed="10.44" duration="185.00" routeLength="706.49" waitingTime="96.00" waitingCount="2" stopTime="0.00" timeLoss="110.70" rerouteNo="1" devices="tripinfo_carIn8642:1 routing_carIn8642:1 emissions_carIn8642:1" vType="default_016" speedFactor="0.81" vaporized="">
        <emissions CO_abs="17241.910848" CO2_abs="397385.738321" HC_abs="87.775431" PMx_abs="8.446934" NOx_abs="172.702571" fuel_abs="170.826370" electricity_abs="0"/>
    </tripinfo>
    <tripinfo id="carIn29531:1" depart="57667.00" departLane="128361102#0_1" departPos="5.10" departSpeed="0.00" departDelay="1.60" arrival="57961.00" arrivalLane="201956811#0_1" arrivalPos="40.40" arrivalSpeed="12.77" duration="294.00" routeLength="2067.33" waitingTime="103.00" waitingCount="2" stopTime="0.00" timeLoss="140.87" rerouteNo="1" devices="tripinfo_carIn29531:1 routing_carIn29531:1 emissions_carIn29531:1" vType="default_016" speedFactor="0.99" vaporized="">
        <emissions CO_abs="22464.280095" CO2_abs="739531.745881" HC_abs="119.587349" PMx_abs="14.422411" NOx_abs="310.601984" fuel_abs="317.900532" electricity_abs="0"/>
    </tripinfo>
    <tripinfo id="carIn77438:1" depart="57614.00" departLane="124812856#0_1" departPos="5.10" departSpeed="0.00" departDelay="1.10" arrival="57962.00" arrivalLane="-128361102#1_1" arrivalPos="274.68" arrivalSpeed="14.92" duration="348.00" routeLength="2232.46" waitingTime="157.00" waitingCount="4" stopTime="0.00" timeLoss="205.85" rerouteNo="1" devices="tripinfo_carIn77438:1 routing_carIn77438:1 emissions_carIn77438:1" vType="default_016" speedFactor="1.15" vaporized="">
        <emissions CO_abs="30784.991579" CO2_abs="907205.757592" HC_abs="161.416429" PMx_abs="18.731401" NOx_abs="386.284461" fuel_abs="389.979416" electricity_abs="0"/>
    </tripinfo>
    <tripinfo id="h7032c2:3" depart="57863.00" departLane="315358244_1" departPos="5.10" departSpeed="0.00" departDelay="0.40" arrival="57963.00" arrivalLane="26677541_1" arrivalPos="152.31" arrivalSpeed="13.76" duration="100.00" routeLength="925.70" waitingTime="0.00" waitingCount="0" stopTime="0.00" timeLoss="13.85" rerouteNo="1" devices="tripinfo_h7032c2:3 routing_h7032c2:3 emissions_h7032c2:3" vType="default_016" speedFactor="1.04" vaporized="">
        <emissions CO_abs="4058.842138" CO2_abs="245654.392099" HC_abs="24.169422" PMx_abs="4.075116" NOx_abs="98.904989" fuel_abs="105.596937" electricity_abs="0"/>
    </tripinfo>
    <tripinfo id="randUni11215:1" depart="57953.00" departLane="124812856#0_1" departPos="5.10" departSpeed="0.00" departDelay="0.30" arrival="57968.00" arrivalLane="201956810_1" arrivalPos="71.65" arrivalSpeed="14.73" duration="15.00" routeLength="134.91" waitingTime="0.00" waitingCount="0" stopTime="0.00" timeLoss="4.62" rerouteNo="1" devices="tripinfo_randUni11215:1 routing_randUni11215:1 emissions_randUni11215:1" vType="random_016" speedFactor="1.10" vaporized="">
        <emissions CO_abs="1239.162867" CO2_abs="67414.851329" HC_abs="7.234546" PMx_abs="1.331556" NOx_abs="28.599153" fuel_abs="28.978704" electricity_abs="0"/>
    </tripinfo>
    <tripinfo id="carIn49437:1" depart="57673.00" departLane="128361102#0_1" departPos="5.10" departSpeed="0.00" departDelay="4.50" arrival="57969.00" arrivalLane="201956811#0_1" arrivalPos="40.40" arrivalSpeed="14.75" duration="296.00" routeLength="2067.33" waitingTime="101.00" waitingCount="3" stopTime="0.00" timeLoss="153.91" rerouteNo="1" devices="tripinfo_carIn49437:1 routing_carIn49437:1 emissions_carIn49437:1" vType="default_016" speedFactor="1.06" vaporized="">