<?xml version="1.0" encoding="UTF-8"?>

<!-- generated on 2021-10-26 22:09:02 by Eclipse SUMO sumo Version 1.10.0
<configuration xmlns:xsi="http://www.w3.org/2001/XMLSchema-instance" xsi:noNamespaceSchemaLocation="http://sumo.dlr.de/xsd/sumoConfiguration.xsd">

    <input>
        <net-file value="/Users/behradkoohy/sumo-scratchpad/RESCO/environments/ingolstadt21/ingolstadt21.net.xml"/>
        <route-files value="/Users/behradkoohy/sumo-scratchpad/RESCO/environments/ingolstadt21/ingolstadt21.rou.xml"/>
    </input>

    <output>
        <tripinfo-output value="/Users/behradkoohy/sumo-scratchpad/RESCO/logs/MPLight-tr0-ingolstadt21-21-mplight_full-pressure/tripinfo_84.xml"/>
        <tripinfo-output.write-unfinished value="true"/>
    </output>

    <time>
        <begin value="57600"/>
        <end value="61200"/>
    </time>

    <processing>
        <time-to-teleport value="-1"/>
    </processing>

    <report>
        <no-warnings value="true"/>
        <no-step-log value="true"/>
    </report>

    <emissions>
        <device.emissions.probability value="1"/>
    </emissions>

    <traci_server>
        <remote-port value="49421"/>
    </traci_server>

    <random_number>
        <random value="true"/>
    </random_number>

</configuration>
-->

<tripinfos xmlns:xsi="http://www.w3.org/2001/XMLSchema-instance" xsi:noNamespaceSchemaLocation="http://sumo.dlr.de/xsd/tripinfo_file.xsd">
    <tripinfo id="h15454c2:3" depart="57612.00" departLane="24608844_1" departPos="5.10" departSpeed="0.00" departDelay="0.50" arrival="57664.00" arrivalLane="32978638#0_1" arrivalPos="49.29" arrivalSpeed="11.34" duration="52.00" routeLength="354.79" waitingTime="2.00" waitingCount="1" stopTime="0.00" timeLoss="11.04" rerouteNo="1" devices="tripinfo_h15454c2:3 routing_h15454c2:3 emissions_h15454c2:3" vType="default_016" speedFactor="0.84" vaporized="">
        <emissions CO_abs="2257.835040" CO2_abs="102478.785753" HC_abs="12.663493" PMx_abs="1.820838" NOx_abs="42.536138" fuel_abs="44.051755" electricity_abs="0"/>
    </tripinfo>
    <tripinfo id="carIn53971:1" depart="57640.00" departLane="272042143_1" departPos="5.10" departSpeed="0.00" departDelay="0.80" arrival="57697.00" arrivalLane="24634414#1_1" arrivalPos="162.19" arrivalSpeed="6.75" duration="57.00" routeLength="493.04" waitingTime="0.00" waitingCount="0" stopTime="0.00" timeLoss="7.95" rerouteNo="1" devices="tripinfo_carIn53971:1 routing_carIn53971:1 emissions_carIn53971:1" vType="default_016" speedFactor="0.93" vaporized="">
        <emissions CO_abs="2460.651389" CO2_abs="128838.603810" HC_abs="14.198170" PMx_abs="2.201434" NOx_abs="52.664968" fuel_abs="55.382680" electricity_abs="0"/>
    </tripinfo>
    <tripinfo id="h3568c1:3" depart="57656.00" departLane="266565295#5_1" departPos="5.10" departSpeed="0.00" departDelay="0.80" arrival="57729.00" arrivalLane="-24634415_1" arrivalPos="62.03" arrivalSpeed="13.71" duration="73.00" routeLength="807.40" waitingTime="0.00" waitingCount="0" stopTime="0.00" timeLoss="12.46" rerouteNo="1" devices="tripinfo_h3568c1:3 routing_h3568c1:3 emissions_h3568c1:3" vType="default_016" speedFactor="1.06" vaporized="">
        <emissions CO_abs="3125.526988" CO2_abs="207101.087598" HC_abs="19.081677" PMx_abs="3.652975" NOx_abs="84.319978" fuel_abs="89.023885" electricity_abs="0"/>
    </tripinfo>
    <tripinfo id="h3326c1:2" depart="57656.00" departLane="22716069#0_1" departPos="5.10" departSpeed="0.00" departDelay="0.00" arrival="57769.00" arrivalLane="24634517#13_1" arrivalPos="111.62" arrivalSpeed="12.56" duration="113.00" routeLength="1312.81" waitingTime="0.00" waitingCount="0" stopTime="0.00" timeLoss="15.47" rerouteNo="1" devices="tripinfo_h3326c1:2 routing_h3326c1:2 emissions_h3326c1:2" vType="default_016" speedFactor="0.99" vaporized="">
        <emissions CO_abs="3906.829368" CO2_abs="282723.859948" HC_abs="24.414099" PMx_abs="4.811336" NOx_abs="113.859786" fuel_abs="121.530852" electricity_abs="0"/>
    </tripinfo>
    <tripinfo id="h5979c1:5" depart="57669.00" departLane="399835085#1_1" departPos="5.10" departSpeed="0.00" departDelay="0.00" arrival="57771.00" arrivalLane="-315358254#1_1" arrivalPos="137.16" arrivalSpeed="10.63" duration="102.00" routeLength="659.33" waitingTime="0.00" waitingCount="0" stopTime="0.00" timeLoss="12.14" rerouteNo="1" devices="tripinfo_h5979c1:5 routing_h5979c1:5 emissions_h5979c1:5" vType="default_016" speedFactor="0.82" vaporized="">
        <emissions CO_abs="4188.046469" CO2_abs="169063.455395" HC_abs="22.945371" PMx_abs="2.812516" NOx_abs="69.215619" fuel_abs="72.674646" electricity_abs="0"/>
    </tripinfo>
    <tripinfo id="h11737c1:1" depart="57665.00" departLane="272042143_1" departPos="5.10" departSpeed="0.00" departDelay="1.50" arrival="57777.00" arrivalLane="-315358254#1_1" arrivalPos="137.16" arrivalSpeed="16.22" duration="112.00" routeLength="1596.88" waitingTime="0.00" waitingCount="0" stopTime="0.00" timeLoss="15.27" rerouteNo="1" devices="tripinfo_h11737c1:1 routing_h11737c1:1 emissions_h11737c1:1" vType="default_016" speedFactor="1.20" vaporized="">
        <emissions CO_abs="3892.086233" CO2_abs="331750.229770" HC_abs="25.435015" PMx_abs="5.811683" NOx_abs="132.431331" fuel_abs="142.604544" electricity_abs="0"/>
    </tripinfo>
    <tripinfo id="carIn107084:1" depart="57601.00" departLane="124812856#0_1" departPos="5.10" departSpeed="0.00" departDelay="0.70" arrival="57820.00" arrivalLane="-128361102#1_1" arrivalPos="274.68" arrivalSpeed="10.46" duration="219.00" routeLength="2232.46" waitingTime="0.00" waitingCount="0" stopTime="0.00" timeLoss="20.06" rerouteNo="1" devices="tripinfo_carIn107084:1 routing_carIn107084:1 emissions_carIn107084:1" vType="default_016" speedFactor="0.82" vaporized="">
        <emissions CO_abs="5788.889922" CO2_abs="426013.297252" HC_abs="36.162339" PMx_abs="6.290643" NOx_abs="166.228743" fuel_abs="183.126126" electricity_abs="0"/>
    </tripinfo>
    <tripinfo id="carIn126288:1" depart="57674.00" departLane="272042143_1" departPos="5.10" departSpeed="0.00" departDelay="0.00" arrival="57826.00" arrivalLane="-315358254#1_1" arrivalPos="137.16" arrivalSpeed="12.14" duration="152.00" routeLength="1596.88" waitingTime="10.00" waitingCount="1" stopTime="0.00" timeLoss="26.18" rerouteNo="1" devices="tripinfo_carIn126288:1 routing_carIn126288:1 emissions_carIn126288:1" vType="default_016" speedFactor="0.93" vaporized="">
        <emissions CO_abs="5311.210353" CO2_abs="339680.518382" HC_abs="32.095131" PMx_abs="5.556731" NOx_abs="135.285706" fuel_abs="146.014954" electricity_abs="0"/>
    </tripinfo>
    <tripinfo id="carIn81046:1" depart="57611.00" departLane="124812856#0_1" departPos="5.10" departSpeed="0.00" departDelay="2.50" arrival="57848.00" arrivalLane="-128361102#1_1" arrivalPos="274.68" arrivalSpeed="10.07" duration="237.00" routeLength="2232.46" waitingTime="0.00" waitingCount="0" stopTime="0.00" timeLoss="20.63" rerouteNo="1" devices="tripinfo_carIn81046:1 routing_carIn81046:1 emissions_carIn81046:1" vType="default_016" speedFactor="0.75" vaporized="">
        <emissions CO_abs="5836.933006" CO2_abs="391824.969965" HC_abs="35.550535" PMx_abs="5.693657" NOx_abs="152.983389" fuel_abs="168.430435" electricity_abs="0"/>
    </tripinfo>
    <tripinfo id="h17600c1:1" depart="57662.00" departLane="272042143_1" departPos="5.10" departSpeed="0.00" departDelay="0.30" arrival="57848.00" arrivalLane="201238729#3_1" arrivalPos="431.02" arrivalSpeed="14.73" duration="186.00" routeLength="2100.26" waitingTime="31.00" waitingCount="1" stopTime="0.00" timeLoss="49.94" rerouteNo="1" devices="tripinfo_h17600c1:1 routing_h17600c1:1 emissions_h17600c1:1" vType="default_016" speedFactor="1.11" vaporized="">
        <emissions CO_abs="8904.858239" CO2_abs="486247.028584" HC_abs="51.780571" PMx_abs="8.608020" NOx_abs="195.442879" fuel_abs="209.018314" electricity_abs="0"/>
    </tripinfo>
    <tripinfo id="carIn77438:1" depart="57614.00" departLane="124812856#0_1" departPos="5.10" departSpeed="0.00" departDelay="1.10" arrival="57850.00" arrivalLane="-128361102#1_1" arrivalPos="274.68" arrivalSpeed="14.14" duration="236.00" routeLength="2232.46" waitingTime="0.00" waitingCount="0" stopTime="0.00" timeLoss="94.05" rerouteNo="1" devices="tripinfo_carIn77438:1 routing_carIn77438:1 emissions_carIn77438:1" vType="default_016" speedFactor="1.15" vaporized="">
        <emissions CO_abs="7785.054708" CO2_abs="498553.354662" HC_abs="47.000905" PMx_abs="8.023393" NOx_abs="199.924605" fuel_abs="214.307941" electricity_abs="0"/>
    </tripinfo>
    <tripinfo id="h3864c1:3" depart="57678.00" departLane="24693977#1_1" departPos="5.10" departSpeed="0.00" departDelay="0.00" arrival="57852.00" arrivalLane="201956820_1" arrivalPos="48.33" arrivalSpeed="11.99" duration="174.00" routeLength="1574.85" waitingTime="2.00" waitingCount="1" stopTime="0.00" timeLoss="27.20" rerouteNo="1" devices="tripinfo_h3864c1:3 routing_h3864c1:3 emissions_h3864c1:3" vType="default_016" speedFactor="0.88" vaporized="">
        <emissions CO_abs="6618.040737" CO2_abs="387869.797506" HC_abs="39.154825" PMx_abs="6.497380" NOx_abs="157.160938" fuel_abs="166.729645" electricity_abs="0"/>
    </tripinfo>
    <tripinfo id="h7800c1:5" depart="57696.00" departLane="-447569998#1_1" departPos="5.10" departSpeed="0.00" departDelay="0.00" arrival="57855.00" arrivalLane="-447569998#1_2" arrivalPos="180.76" arrivalSpeed="4.51" duration="159.00" routeLength="175.66" waitingTime="132.00" waitingCount="1" stopTime="0.00" timeLoss="137.35" rerouteNo="1" devices="tripinfo_h7800c1:5 routing_h7800c1:5 emissions_h7800c1:5" vType="default_016" speedFactor="0.99" vaporized="">
        <emissions CO_abs="22250.060224" CO2_abs="390604.798262" HC_abs="110.458940" PMx_abs="9.336451" NOx_abs="176.449225" fuel_abs="167.914367" electricity_abs="0"/>
    </tripinfo>
    <tripinfo id="carIn24709:1" depart="57753.00" departLane="266565295#5_1" departPos="5.10" departSpeed="0.00" departDelay="2.50" arrival="57869.00" arrivalLane="-24634506#2_1" arrivalPos="71.32" arrivalSpeed="14.99" duration="116.00" routeLength="1450.12" waitingTime="0.00" waitingCount="0" stopTime="0.00" timeLoss="13.64" rerouteNo="1" devices="tripinfo_carIn24709:1 routing_carIn24709:1 emissions_carIn24709:1" vType="default_016" speedFactor="1.17" vaporized="">
        <emissions CO_abs="3855.350800" CO2_abs="317310.786894" HC_abs="24.955245" PMx_abs="5.268866" NOx_abs="125.342833" fuel_abs="136.398192" electricity_abs="0"/>
    </tripinfo>
    <tripinfo id="carIn81860:1" depart="57712.00" departLane="128361102#0_1" departPos="5.10" departSpeed="0.00" departDelay="0.60" arrival="57873.00" arrivalLane="-24634517#17_1" arrivalPos="6.43" arrivalSpeed="7.95" duration="161.00" routeLength="1229.64" waitingTime="42.00" waitingCount="1" stopTime="0.00" timeLoss="62.31" rerouteNo="1" devices="tripinfo_carIn81860:1 routing_carIn81860:1 emissions_carIn81860:1" vType="default_016" speedFactor="0.91" vaporized="">
        <emissions CO_abs="10319.294734" CO2_abs="374062.351763" HC_abs="55.731950" PMx_abs="7.064881" NOx_abs="156.008053" fuel_abs="160.796602" electricity_abs="0"/>
    </tripinfo>
    <tripinfo id="carIn107282:1" depart="57749.00" departLane="-447569998#1_1" departPos="5.10" departSpeed="0.00" departDelay="0.00" arrival="57878.00" arrivalLane="315358242#0_2" arrivalPos="165.37" arrivalSpeed="13.79" duration="129.00" routeLength="448.50" waitingTime="82.00" waitingCount="1" stopTime="0.00" timeLoss="90.03" rerouteNo="1" devices="tripinfo_carIn107282:1 routing_carIn107282:1 emissions_carIn107282:1" vType="default_016" speedFactor="1.06" vaporized="">
        <emissions CO_abs="14765.439750" CO2_abs="315653.058269" HC_abs="74.623678" PMx_abs="7.051559" NOx_abs="139.081415" fuel_abs="135.691922" electricity_abs="0"/>
    </tripinfo>
    <tripinfo id="randUni15030:1" depart="57735.00" departLane="386687232#0_1" departPos="5.10" departSpeed="0.00" departDelay="0.10" arrival="57885.00" arrivalLane="26677539_1" arrivalPos="151.98" arrivalSpeed="8.70" duration="150.00" routeLength="919.89" waitingTime="55.00" waitingCount="1" stopTime="0.00" timeLoss="71.63" rerouteNo="1" devices="tripinfo_randUni15030:1 routing_randUni15030:1 emissions_randUni15030:1" vType="random_016" speedFactor="1.06" vaporized="">
        <emissions CO_abs="12669.419006" CO2_abs="393377.886918" HC_abs="66.868843" PMx_abs="7.682905" NOx_abs="165.784257" fuel_abs="169.100848" electricity_abs="0"/>
    </tripinfo>
    <tripinfo id="h13377c2:3" depart="57804.00" departLane="315358244_1" departPos="5.10" departSpeed="0.00" departDelay="0.60" arrival="57887.00" arrivalLane="447569997#1_1" arrivalPos="180.93" arrivalSpeed="9.36" duration="83.00" routeLength="726.74" waitingTime="5.00" waitingCount="2" stopTime="0.00" timeLoss="25.10" rerouteNo="1" devices="tripinfo_h13377c2:3 routing_h13377c2:3 emissions_h13377c2:3" vType="default_016" speedFactor="1.16" vaporized="">
        <emissions CO_abs="3601.540562" CO2_abs="194550.567431" HC_abs="20.966521" PMx_abs="3.529140" NOx_abs="80.152659" fuel_abs="83.629345" electricity_abs="0"/>
    </tripinfo>
    <tripinfo id="carIn13443:1" depart="57729.00" departLane="272042143_1" departPos="5.10" departSpeed="0.00" departDelay="0.80" arrival="57894.00" arrivalLane="399835085#1_1" arrivalPos="212.23" arrivalSpeed="7.74" duration="165.00" routeLength="1757.45" waitingTime="0.00" waitingCount="0" stopTime="0.00" timeLoss="15.97" rerouteNo="1" devices="tripinfo_carIn13443:1 routing_carIn13443:1 emissions_carIn13443:1" vType="default_016" speedFactor="0.95" vaporized="">
        <emissions CO_abs="4575.265594" CO2_abs="353218.269064" HC_abs="28.981884" PMx_abs="5.216386" NOx_abs="136.914314" fuel_abs="151.834349" electricity_abs="0"/>
    </tripinfo>
    <tripinfo id="carIn14532:1" depart="57743.00" departLane="272042143_1" departPos="5.10" departSpeed="0.00" departDelay="1.90" arrival="57896.00" arrivalLane="399835085#1_1" arrivalPos="212.23" arrivalSpeed="8.31" duration="153.00" routeLength="1757.45" waitingTime="0.00" waitingCount="0" stopTime="0.00" timeLoss="25.50" rerouteNo="1" devices="tripinfo_carIn14532:1 routing_carIn14532:1 emissions_carIn14532:1" vType="default_016" speedFactor="1.11" vaporized="">
        <emissions CO_abs="4985.158116" CO2_abs="372568.377407" HC_abs="31.392623" PMx_abs="6.216555" NOx_abs="148.730536" fuel_abs="160.151252" electricity_abs="0"/>
    </tripinfo>
    <tripinfo id="randUni23028:1" depart="57884.00" departLane="124812856#0_1" departPos="5.10" departSpeed="0.00" departDelay="0.10" arrival="57899.00" arrivalLane="201956810_1" arrivalPos="71.65" arrivalSpeed="14.02" duration="15.00" routeLength="134.91" waitingTime="0.00" waitingCount="0" stopTime="0.00" timeLoss="4.40" rerouteNo="1" devices="tripinfo_randUni23028:1 routing_randUni23028:1 emissions_randUni23028:1" vType="random_016" speedFactor="1.06" vaporized="">
        <emissions CO_abs="1236.987033" CO2_abs="67038.303356" HC_abs="7.216627" PMx_abs="1.285088" NOx_abs="28.247434" fuel_abs="28.816901" electricity_abs="0"/>
    </tripinfo>
    <tripinfo id="carIn86816:1" depart="57617.00" departLane="128361102#0_1" departPos="5.10" departSpeed="0.00" departDelay="0.80" arrival="57905.00" arrivalLane="201956811#0_1" arrivalPos="40.40" arrivalSpeed="13.85" duration="288.00" routeLength="2067.33" waitingTime="122.00" waitingCount="1" stopTime="0.00" timeLoss="143.60" rerouteNo="1" devices="tripinfo_carIn86816:1 routing_carIn86816:1 emissions_carIn86816:1" vType="default_016" speedFactor="1.04" vaporized="">
        <emissions CO_abs="24409.352458" CO2_abs="730702.693610" HC_abs="128.272555" PMx_abs="14.892846" NOx_abs="310.226916" fuel_abs="314.106202" electricity_abs="0"/>
    </tripinfo>
    <tripinfo id="carIn132499:1" depart="57740.00" departLane="272042143_1" departPos="5.10" departSpeed="0.00" departDelay="0.70" arrival="57919.00" arrivalLane="201238729#3_1" arrivalPos="431.02" arrivalSpeed="12.55" duration="179.00" routeLength="2100.26" waitingTime="0.00" waitingCount="0" stopTime="0.00" timeLoss="13.23" rerouteNo="1" devices="tripinfo_carIn132499:1 routing_carIn132499:1 emissions_carIn132499:1" vType="default_016" speedFactor="0.91" vaporized="">
        <emissions CO_abs="3966.599597" CO2_abs="373553.833122" HC_abs="26.675316" PMx_abs="5.296875" NOx_abs="142.608256" fuel_abs="160.575461" electricity_abs="0"/>
    </tripinfo>
    <tripinfo id="carIn50326:1" depart="57651.00" departLane="128361102#0_1" departPos="5.10" departSpeed="0.00" departDelay="0.30" arrival="57922.00" arrivalLane="18809673#0_1" arrivalPos="473.56" arrivalSpeed="13.90" duration="271.00" routeLength="1591.07" waitingTime="117.00" waitingCount="2" stopTime="0.00" timeLoss="142.81" rerouteNo="1" devices="tripinfo_carIn50326:1 routing_carIn50326:1 emissions_carIn50326:1" vType="default_016" speedFactor="1.01" vaporized="">
        <emissions CO_abs="23319.800600" CO2_abs="656927.833230" HC_abs="121.568585" PMx_abs="13.415950" NOx_abs="280.408802" fuel_abs="282.393705" electricity_abs="0"/>
    </tripinfo>
    <tripinfo id="carIn27009:1" depart="57673.00" departLane="-447569998#1_1" departPos="5.10" departSpeed="0.00" departDelay="0.50" arrival="57930.00" arrivalLane="-26677539_1" arrivalPos="152.75" arrivalSpeed="7.31" duration="257.00" routeLength="699.63" waitingTime="150.00" waitingCount="1" stopTime="0.00" timeLoss="165.99" rerouteNo="1" devices="tripinfo_carIn27009:1 routing_carIn27009:1 emissions_carIn27009:1" vType="default_015" speedFactor="0.93" vaporized="">
        <emissions CO_abs="27929.031497" CO2_abs="558884.642680" HC_abs="140.199808" PMx_abs="12.481477" NOx_abs="247.307263" fuel_abs="240.252958" electricity_abs="0"/>
    </tripinfo>
    <tripinfo id="carIn88905:1" depart="57688.00" departLane="128361109#1_1" departPos="5.10" departSpeed="0.00" departDelay="5.80" arrival="57931.00" arrivalLane="386687235_2" arrivalPos="80.84" arrivalSpeed="15.90" duration="243.00" routeLength="2088.57" waitingTime="89.00" waitingCount="1" stopTime="0.00" timeLoss="112.49" rerouteNo="1" devices="tripinfo_carIn88905:1 routing_carIn88905:1 emissions_carIn88905:1" vType="default_016" speedFactor="1.16" vaporized="">
        <emissions CO_abs="18303.323446" CO2_abs="644443.696418" HC_abs="98.319498" PMx_abs="12.615443" NOx_abs="268.280388" fuel_abs="277.024370" electricity_abs="0"/>
    </tripinfo>
    <tripinfo id="carIn81681:1" depart="57726.00" departLane="272042143_1" departPos="5.10" departSpeed="0.00" departDelay="0.30" arrival="57931.00" arrivalLane="306240162#0_0" arrivalPos="220.43" arrivalSpeed="14.21" duration="205.00" routeLength="2246.89" waitingTime="20.00" waitingCount="1" stopTime="0.00" timeLoss="45.45" rerouteNo="1" devices="tripinfo_carIn81681:1 routing_carIn81681:1 emissions_carIn81681:1" vType="default_016" speedFactor="0.93" vaporized="">
        <emissions CO_abs="8985.688273" CO2_abs="552166.303546" HC_abs="53.878421" PMx_abs="9.791380" NOx_abs="223.583351" fuel_abs="237.353284" electricity_abs="0"/>
    </tripinfo>
    <tripinfo id="carIn102915:1" depart="57643.00" departLane="128361102#0_1" departPos="5.10" departSpeed="0.00" departDelay="0.40" arrival="57932.00" arrivalLane="201956811#0_1" arrivalPos="40.40" arrivalSpeed="11.80" duration="289.00" routeLength="2067.33" waitingTime="95.00" waitingCount="2" stopTime="0.00" timeLoss="122.55" rerouteNo="1" devices="tripinfo_carIn102915:1 routing_carIn102915:1 emissions_carIn102915:1" vType="default_016" speedFactor="0.91" vaporized="">
        <emissions CO_abs="20403.058025" CO2_abs="654474.229284" HC_abs="108.200910" PMx_abs="12.713756" NOx_abs="275.092234" fuel_abs="281.337556" electricity_abs="0"/>
    </tripinfo>
    <tripinfo id="carIn129809:1" depart="57729.00" departLane="-447569998#1_1" departPos="5.10" departSpeed="0.00" departDelay="1.00" arrival="57933.00" arrivalLane="-315358244_1" arrivalPos="33.95" arrivalSpeed="13.98" duration="204.00" routeLength="706.49" waitingTime="131.00" waitingCount="2" stopTime="0.00" timeLoss="146.79" rerouteNo="1" devices="tripinfo_carIn129809:1 routing_carIn129809:1 emissions_carIn129809:1" vType="default_015" speedFactor="1.05" vaporized="">
        <emissions CO_abs="22147.568209" CO2_abs="473071.181736" HC_abs="111.875510" PMx_abs="10.495067" NOx_abs="207.469917" fuel_abs="203.362491" electricity_abs="0"/>
    </tripinfo>
    <tripinfo id="carIn80913:1" depart="57732.00" departLane="272042143_1" departPos="5.10" departSpeed="0.00" departDelay="0.40" arrival="57933.00" arrivalLane="306240162#0_0" arrivalPos="220.43" arrivalSpeed="15.58" duration="201.00" routeLength="2246.89" waitingTime="19.00" waitingCount="1" stopTime="0.00" timeLoss="48.80" rerouteNo="1" devices="tripinfo_carIn80913:1 routing_carIn80913:1 emissions_carIn80913:1" vType="default_016" speedFactor="0.97" vaporized="">
        <emissions CO_abs="8905.395732" CO2_abs="573085.843989" HC_abs="53.926990" PMx_abs="9.959495" NOx_abs="230.155547" fuel_abs="246.345722" electricity_abs="0"/>
    </tripinfo>
    <tripinfo id="carIn7949:1" depart="57676.00" departLane="128361109#1_1" departPos="5.10" departSpeed="0.00" departDelay="2.10" arrival="57934.00" arrivalLane="386687235_1" arrivalPos="80.84" arrivalSpeed="14.47" duration="258.00" routeLength="2088.57" waitingTime="97.00" waitingCount="1" stopTime="0.00" timeLoss="113.84" rerouteNo="1" devices="tripinfo_carIn7949:1 routing_carIn7949:1 emissions_carIn7949:1" vType="default_016" speedFactor="1.05" vaporized="">
        <emissions CO_abs="18716.168180" CO2_abs="592940.496176" HC_abs="99.045160" PMx_abs="11.493638" NOx_abs="246.570473" fuel_abs="254.886655" electricity_abs="0"/>
    </tripinfo>
    <tripinfo id="randUni33724:1" depart="57646.00" departLane="128361102#0_1" departPos="5.10" departSpeed="0.00" departDelay="1.20" arrival="57935.00" arrivalLane="201956811#0_1" arrivalPos="40.40" arrivalSpeed="14.99" duration="289.00" routeLength="2067.33" waitingTime="92.00" waitingCount="1" stopTime="0.00" timeLoss="159.03" rerouteNo="1" devices="tripinfo_randUni33724:1 routing_randUni33724:1 emissions_randUni33724:1" vType="random_016" speedFactor="1.17" vaporized="">
        <emissions CO_abs="22236.486054" CO2_abs="751505.496660" HC_abs="118.912508" PMx_abs="14.927060" NOx_abs="318.291703" fuel_abs="323.046646" electricity_abs="0"/>
    </tripinfo>
    <tripinfo id="carIn101266:1" depart="57737.00" departLane="272042143_1" departPos="5.10" departSpeed="0.00" departDelay="0.50" arrival="57935.00" arrivalLane="306240162#0_0" arrivalPos="220.43" arrivalSpeed="14.91" duration="198.00" routeLength="2246.89" waitingTime="18.00" waitingCount="1" stopTime="0.00" timeLoss="45.10" rerouteNo="1" devices="tripinfo_carIn101266:1 routing_carIn101266:1 emissions_carIn101266:1" vType="default_016" speedFactor="0.97" vaporized="">
        <emissions CO_abs="8093.898514" CO2_abs="533203.628494" HC_abs="49.271918" PMx_abs="9.401349" NOx_abs="215.121347" fuel_abs="229.201627" electricity_abs="0"/>
    </tripinfo>
    <tripinfo id="carIn100288:1" depart="57664.00" departLane="128361102#0_1" departPos="5.10" departSpeed="0.00" departDelay="0.60" arrival="57937.00" arrivalLane="201956811#0_1" arrivalPos="40.40" arrivalSpeed="13.42" duration="273.00" routeLength="2067.33" waitingTime="81.00" waitingCount="1" stopTime="0.00" timeLoss="128.90" rerouteNo="1" devices="tripinfo_carIn100288:1 routing_carIn100288:1 emissions_carIn100288:1" vType="default_016" speedFactor="1.05" vaporized="">
        <emissions CO_abs="20961.368592" CO2_abs="749490.508330" HC_abs="113.014533" PMx_abs="14.816530" NOx_abs="316.331077" fuel_abs="322.179592" electricity_abs="0"/>
    </tripinfo>
    <tripinfo id="carIn85747:1" depart="57673.00" departLane="128361109#1_1" departPos="5.10" departSpeed="0.00" departDelay="0.70" arrival="57945.00" arrivalLane="386687235_1" arrivalPos="80.84" arrivalSpeed="12.45" duration="272.00" routeLength="2088.57" waitingTime="100.00" waitingCount="1" stopTime="0.00" timeLoss="114.72" rerouteNo="1" devices="tripinfo_carIn85747:1 routing_carIn85747:1 emissions_carIn85747:1" vType="default_016" speedFactor="0.96" vaporized="">
        <emissions CO_abs="19178.900374" CO2_abs="609648.399595" HC_abs="101.517847" PMx_abs="11.404564" NOx_abs="251.522176" fuel_abs="262.069380" electricity_abs="0"/>
    </tripinfo>
    <tripinfo id="carIn75660:1" depart="57679.00" departLane="128361109#1_1" departPos="5.10" departSpeed="0.00" departDelay="3.40" arrival="57945.00" arrivalLane="386687235_2" arrivalPos="80.84" arrivalSpeed="13.08" duration="266.00" routeLength="2088.57" waitingTime="95.00" waitingCount="1" stopTime="0.00" timeLoss="111.51" rerouteNo="1" devices="tripinfo_carIn75660:1 routing_carIn75660:1 emissions_carIn75660:1" vType="default_016" speedFactor="0.98" vaporized="">
        <emissions CO_abs="19053.102658" CO2_abs="611395.430492" HC_abs="101.022980" PMx_abs="11.614636" NOx_abs="253.551776" fuel_abs="262.819933" electricity_abs="0"/>
    </tripinfo>
    <tripinfo id="h19577c1:1" depart="57694.00" departLane="128361109#1_1" departPos="5.10" departSpeed="0.00" departDelay="2.80" arrival="57947.00" arrivalLane="386687235_2" arrivalPos="80.84" arrivalSpeed="12.83" duration="253.00" routeLength="2088.57" waitingTime="83.00" waitingCount="1" stopTime="0.00" timeLoss="101.37" rerouteNo="1" devices="tripinfo_h19577c1:1 routing_h19577c1:1 emissions_h19577c1:1" vType="default_016" speedFactor="1.00" vaporized="">
        <emissions CO_abs="16879.152790" CO2_abs="567959.661141" HC_abs="90.086796" PMx_abs="10.705501" NOx_abs="234.726224" fuel_abs="244.147691" electricity_abs="0"/>
    </tripinfo>
    <tripinfo id="h19413c1:1" depart="57685.00" departLane="128361109#1_1" departPos="5.10" departSpeed="0.00" departDelay="5.90" arrival="57948.00" arrivalLane="386687235_1" arrivalPos="80.84" arrivalSpeed="12.18" duration="263.00" routeLength="2088.57" waitingTime="91.00" waitingCount="1" stopTime="0.00" timeLoss="106.45" rerouteNo="1" devices="tripinfo_h19413c1:1 routing_h19413c1:1 emissions_h19413c1:1" vType="default_016" speedFactor="0.96" vaporized="">
        <emissions CO_abs="17892.300533" CO2_abs="582796.441394" HC_abs="95.017237" PMx_abs="10.835012" NOx_abs="239.997330" fuel_abs="250.526259" electricity_abs="0"/>
    </tripinfo>
    <tripinfo id="carIn5824:1" depart="57700.00" departLane="128361109#1_1" departPos="5.10" departSpeed="0.00" departDelay="5.60" arrival="57949.00" arrivalLane="386687235_2" arrivalPos="80.84" arrivalSpeed="12.73" duration="249.00" routeLength="2088.57" waitingTime="76.00" waitingCount="1" stopTime="0.00" timeLoss="96.88" rerouteNo="1" devices="tripinfo_carIn5824:1 routing_carIn5824:1 emissions_carIn5824:1" vType="default_016" speedFactor="0.99" vaporized="">
        <emissions CO_abs="16269.842590" CO2_abs="587652.366358" HC_abs="87.779800" PMx_abs="10.955024" NOx_abs="242.228396" fuel_abs="252.612103" electricity_abs="0"/>
    </tripinfo>
    <tripinfo id="carIn99233:1" depart="57691.00" departLane="128361109#1_1" departPos="5.10" departSpeed="0.00" departDelay="1.90" arrival="57950.00" arrivalLane="386687235_1" arrivalPos="80.84" arrivalSpeed="14.13" duration="259.00" routeLength="2088.57" waitingTime="88.00" waitingCount="1" stopTime="0.00" timeLoss="112.37" rerouteNo="1" devices="tripinfo_carIn99233:1 routing_carIn99233:1 emissions_carIn99233:1" vType="default_016" speedFactor="1.03" vaporized="">
        <emissions CO_abs="18895.350263" CO2_abs="651653.389310" HC_abs="101.289849" PMx_abs="12.524238" NOx_abs="271.386888" fuel_abs="280.124126" electricity_abs="0"/>
    </tripinfo>
    <tripinfo id="carIn115169:1" depart="57759.00" departLane="24599188#0.94_1" departPos="5.10" departSpeed="0.00" departDelay="0.50" arrival="57951.00" arrivalLane="-10427692#3_1" arrivalPos="28.64" arrivalSpeed="22.58" duration="192.00" routeLength="2183.23" waitingTime="1.00" waitingCount="1" stopTime="0.00" timeLoss="31.48" rerouteNo="1" devices="tripinfo_carIn115169:1 routing_carIn115169:1 emissions_carIn115169:1" vType="default_016" speedFactor="1.05" vaporized="">
        <emissions CO_abs="7800.366059" CO2_abs="544322.070015" HC_abs="48.305754" PMx_abs="9.752378" NOx_abs="221.843811" fuel_abs="233.980229" electricity_abs="0"/>
    </tripinfo>
    <tripinfo id="h3426c1:1" depart="57864.00" departLane="-160314345#2_1" departPos="5.10" departSpeed="0.00" departDelay="0.00" arrival="57951.00" arrivalLane="386687235_1" arrivalPos="80.84" arrivalSpeed="14.01" duration="87.00" routeLength="726.87" waitingTime="13.00" waitingCount="1" stopTime="0.00" timeLoss="25.72" rerouteNo="1" devices="tripinfo_h3426c1:1 routing_h3426c1:1 emissions_h3426c1:1" vType="default_016" speedFactor="1.10" vaporized="">
        <emissions CO_abs="4617.672145" CO2_abs="202968.836600" HC_abs="25.779421" PMx_abs="3.739505" NOx_abs="84.248587" fuel_abs="87.248638" electricity_abs="0"/>
    </tripinfo>
    <tripinfo id="carIn29531:1" depart="57667.00" departLane="128361102#0_1" departPos="5.10" departSpeed="0.00" departDelay="1.60" arrival="57952.00" arrivalLane="201956811#0_1" arrivalPos="40.40" arrivalSpeed="12.17" duration="285.00" routeLength="2067.33" waitingTime="87.00" waitingCount="2" stopTime="0.00" timeLoss="126.28" rerouteNo="1" devices="tripinfo_carIn29531:1 routing_carIn29531:1 emissions_carIn29531:1" vType="default_016" speedFactor="0.95" vaporized="">
        <emissions CO_abs="19814.497369" CO2_abs="681375.385127" HC_abs="106.163937" PMx_abs="13.059170" NOx_abs="284.933405" fuel_abs="292.900587" electricity_abs="0"/>
    </tripinfo>
    <tripinfo id="carIn8642:1" depart="57774.00" departLane="-447569998#1_1" departPos="5.10" departSpeed="0.00" departDelay="0.90" arrival="57953.00" arrivalLane="-315358244_1" arrivalPos="33.95" arrivalSpeed="13.17" duration="179.00" routeLength="706.49" waitingTime="97.00" waitingCount="3" stopTime="0.00" timeLoss="118.99" rerouteNo="1" devices="tripinfo_carIn8642:1 routing_carIn8642:1 emissions_carIn8642:1" vType="default_016" speedFactor="1.00" vaporized="">