<?xml version="1.0" encoding="UTF-8"?>

<!-- generated on 2021-10-26 21:09:49 by Eclipse SUMO sumo Version 1.10.0
<configuration xmlns:xsi="http://www.w3.org/2001/XMLSchema-instance" xsi:noNamespaceSchemaLocation="http://sumo.dlr.de/xsd/sumoConfiguration.xsd">

    <input>
        <net-file value="/Users/behradkoohy/sumo-scratchpad/RESCO/environments/ingolstadt21/ingolstadt21.net.xml"/>
        <route-files value="/Users/behradkoohy/sumo-scratchpad/RESCO/environments/ingolstadt21/ingolstadt21.rou.xml"/>
    </input>

    <output>
        <tripinfo-output value="/Users/behradkoohy/sumo-scratchpad/RESCO/logs/MPLight-tr0-ingolstadt21-21-mplight_full-pressure/tripinfo_36.xml"/>
        <tripinfo-output.write-unfinished value="true"/>
    </output>

    <time>
        <begin value="57600"/>
        <end value="61200"/>
    </time>

    <processing>
        <time-to-teleport value="-1"/>
    </processing>

    <report>
        <no-warnings value="true"/>
        <no-step-log value="true"/>
    </report>

    <emissions>
        <device.emissions.probability value="1"/>
    </emissions>

    <traci_server>
        <remote-port value="64804"/>
    </traci_server>

    <random_number>
        <random value="true"/>
    </random_number>

</configuration>
-->

<tripinfos xmlns:xsi="http://www.w3.org/2001/XMLSchema-instance" xsi:noNamespaceSchemaLocation="http://sumo.dlr.de/xsd/tripinfo_file.xsd">
    <tripinfo id="h15454c2:3" depart="57612.00" departLane="24608844_1" departPos="5.10" departSpeed="0.00" departDelay="0.50" arrival="57657.00" arrivalLane="32978638#0_1" arrivalPos="49.29" arrivalSpeed="14.25" duration="45.00" routeLength="354.79" waitingTime="3.00" waitingCount="1" stopTime="0.00" timeLoss="13.90" rerouteNo="1" devices="tripinfo_h15454c2:3 routing_h15454c2:3 emissions_h15454c2:3" vType="default_016" speedFactor="1.11" vaporized="">
        <emissions CO_abs="2563.037178" CO2_abs="133847.366690" HC_abs="14.783114" PMx_abs="2.443707" NOx_abs="55.640422" fuel_abs="57.535521" electricity_abs="0"/>
    </tripinfo>
    <tripinfo id="carIn60260:1" depart="57606.00" departLane="315358254#0_1" departPos="5.10" departSpeed="0.00" departDelay="0.90" arrival="57684.00" arrivalLane="399835085#1_1" arrivalPos="212.23" arrivalSpeed="7.85" duration="78.00" routeLength="430.98" waitingTime="22.00" waitingCount="1" stopTime="0.00" timeLoss="31.45" rerouteNo="1" devices="tripinfo_carIn60260:1 routing_carIn60260:1 emissions_carIn60260:1" vType="default_016" speedFactor="1.00" vaporized="">
        <emissions CO_abs="5269.670734" CO2_abs="166320.338217" HC_abs="27.858718" PMx_abs="3.174600" NOx_abs="70.227122" fuel_abs="71.495886" electricity_abs="0"/>
    </tripinfo>
    <tripinfo id="carIn53971:1" depart="57640.00" departLane="272042143_1" departPos="5.10" departSpeed="0.00" departDelay="0.80" arrival="57700.00" arrivalLane="24634414#1_1" arrivalPos="162.19" arrivalSpeed="7.11" duration="60.00" routeLength="493.04" waitingTime="0.00" waitingCount="0" stopTime="0.00" timeLoss="8.64" rerouteNo="1" devices="tripinfo_carIn53971:1 routing_carIn53971:1 emissions_carIn53971:1" vType="default_016" speedFactor="0.89" vaporized="">
        <emissions CO_abs="2583.321676" CO2_abs="133224.988896" HC_abs="14.852047" PMx_abs="2.251802" NOx_abs="54.344678" fuel_abs="57.268282" electricity_abs="0"/>
    </tripinfo>
    <tripinfo id="h7800c1:5" depart="57696.00" departLane="-447569998#1_1" departPos="5.10" departSpeed="0.00" departDelay="0.00" arrival="57719.00" arrivalLane="-447569998#1_1" arrivalPos="180.76" arrivalSpeed="8.07" duration="23.00" routeLength="175.66" waitingTime="0.00" waitingCount="0" stopTime="0.00" timeLoss="2.98" rerouteNo="1" devices="tripinfo_h7800c1:5 routing_h7800c1:5 emissions_h7800c1:5" vType="default_016" speedFactor="1.09" vaporized="">
        <emissions CO_abs="1058.775407" CO2_abs="50297.218955" HC_abs="5.976956" PMx_abs="0.815869" NOx_abs="20.373790" fuel_abs="21.620949" electricity_abs="0"/>
    </tripinfo>
    <tripinfo id="h3688c1:1" depart="57625.00" departLane="201201950#1_1" departPos="5.10" departSpeed="0.00" departDelay="0.00" arrival="57738.00" arrivalLane="32978638#0_1" arrivalPos="49.29" arrivalSpeed="14.63" duration="113.00" routeLength="1089.75" waitingTime="27.00" waitingCount="1" stopTime="0.00" timeLoss="42.32" rerouteNo="1" devices="tripinfo_h3688c1:1 routing_h3688c1:1 emissions_h3688c1:1" vType="default_016" speedFactor="1.13" vaporized="">
        <emissions CO_abs="7782.957661" CO2_abs="356801.501895" HC_abs="43.712856" PMx_abs="6.874152" NOx_abs="148.274235" fuel_abs="153.374898" electricity_abs="0"/>
    </tripinfo>
    <tripinfo id="carIn121703:1" depart="57647.00" departLane="386687232#0_1" departPos="5.10" departSpeed="0.00" departDelay="0.30" arrival="57743.00" arrivalLane="-315358244_1" arrivalPos="33.95" arrivalSpeed="14.11" duration="96.00" routeLength="1157.39" waitingTime="5.00" waitingCount="1" stopTime="0.00" timeLoss="18.58" rerouteNo="1" devices="tripinfo_carIn121703:1 routing_carIn121703:1 emissions_carIn121703:1" vType="default_016" speedFactor="1.09" vaporized="">
        <emissions CO_abs="3221.450365" CO2_abs="255188.103430" HC_abs="20.604449" PMx_abs="4.335067" NOx_abs="101.748172" fuel_abs="109.694252" electricity_abs="0"/>
    </tripinfo>
    <tripinfo id="h317c2:1" depart="57707.00" departLane="-32978638#0_1" departPos="5.10" departSpeed="0.00" departDelay="0.10" arrival="57745.00" arrivalLane="-266565295#5_1" arrivalPos="172.76" arrivalSpeed="12.72" duration="38.00" routeLength="370.53" waitingTime="2.00" waitingCount="1" stopTime="0.00" timeLoss="9.91" rerouteNo="1" devices="tripinfo_h317c2:1 routing_h317c2:1 emissions_h317c2:1" vType="default_016" speedFactor="0.97" vaporized="">
        <emissions CO_abs="1988.987342" CO2_abs="119527.671040" HC_abs="11.865851" PMx_abs="2.143585" NOx_abs="49.111138" fuel_abs="51.379909" electricity_abs="0"/>
    </tripinfo>
    <tripinfo id="h12244c1:3" depart="57612.00" departLane="315358244_1" departPos="5.10" departSpeed="0.00" departDelay="0.40" arrival="57748.00" arrivalLane="386687235_1" arrivalPos="80.84" arrivalSpeed="15.04" duration="136.00" routeLength="1186.14" waitingTime="37.00" waitingCount="1" stopTime="0.00" timeLoss="57.38" rerouteNo="1" devices="tripinfo_h12244c1:3 routing_h12244c1:3 emissions_h12244c1:3" vType="default_016" speedFactor="1.10" vaporized="">
        <emissions CO_abs="9706.725649" CO2_abs="399281.805022" HC_abs="53.398957" PMx_abs="7.585741" NOx_abs="165.281585" fuel_abs="171.636516" electricity_abs="0"/>
    </tripinfo>
    <tripinfo id="carIn30817:1" depart="57681.00" departLane="315358244_1" departPos="5.10" departSpeed="0.00" departDelay="0.20" arrival="57757.00" arrivalLane="447569997#1_1" arrivalPos="180.93" arrivalSpeed="7.38" duration="76.00" routeLength="718.04" waitingTime="0.00" waitingCount="0" stopTime="0.00" timeLoss="8.10" rerouteNo="1" devices="tripinfo_carIn30817:1 routing_carIn30817:1 emissions_carIn30817:1" vType="default_016" speedFactor="0.91" vaporized="">
        <emissions CO_abs="2595.887271" CO2_abs="158195.802409" HC_abs="15.452975" PMx_abs="2.377124" NOx_abs="62.112097" fuel_abs="68.002373" electricity_abs="0"/>
    </tripinfo>
    <tripinfo id="carIn22761:1" depart="57616.00" departLane="-306240162#1_0" departPos="5.10" departSpeed="0.00" departDelay="2.10" arrival="57764.00" arrivalLane="399835085#1_1" arrivalPos="212.23" arrivalSpeed="8.06" duration="148.00" routeLength="1093.26" waitingTime="45.00" waitingCount="2" stopTime="0.00" timeLoss="70.48" rerouteNo="1" devices="tripinfo_carIn22761:1 routing_carIn22761:1 emissions_carIn22761:1" vType="default_016" speedFactor="1.01" vaporized="">
        <emissions CO_abs="11782.105652" CO2_abs="425942.001182" HC_abs="63.745196" PMx_abs="8.725156" NOx_abs="181.417668" fuel_abs="183.096940" electricity_abs="0"/>
    </tripinfo>
    <tripinfo id="h3326c1:2" depart="57656.00" departLane="22716069#0_1" departPos="5.10" departSpeed="0.00" departDelay="0.00" arrival="57767.00" arrivalLane="24634517#13_1" arrivalPos="111.62" arrivalSpeed="13.53" duration="111.00" routeLength="1312.81" waitingTime="0.00" waitingCount="0" stopTime="0.00" timeLoss="14.70" rerouteNo="1" devices="tripinfo_h3326c1:2 routing_h3326c1:2 emissions_h3326c1:2" vType="default_016" speedFactor="1.02" vaporized="">
        <emissions CO_abs="4265.433061" CO2_abs="318878.805251" HC_abs="26.908894" PMx_abs="5.516197" NOx_abs="128.799246" fuel_abs="137.072073" electricity_abs="0"/>
    </tripinfo>
    <tripinfo id="h5979c1:5" depart="57669.00" departLane="399835085#1_1" departPos="5.10" departSpeed="0.00" departDelay="0.00" arrival="57769.00" arrivalLane="-315358254#1_1" arrivalPos="137.16" arrivalSpeed="11.20" duration="100.00" routeLength="659.33" waitingTime="0.00" waitingCount="0" stopTime="0.00" timeLoss="13.64" rerouteNo="1" devices="tripinfo_h5979c1:5 routing_h5979c1:5 emissions_h5979c1:5" vType="default_016" speedFactor="0.85" vaporized="">
        <emissions CO_abs="4017.702885" CO2_abs="170397.710524" HC_abs="22.194118" PMx_abs="2.758039" NOx_abs="69.107921" fuel_abs="73.248157" electricity_abs="0"/>
    </tripinfo>
    <tripinfo id="carIn27009:1" depart="57673.00" departLane="-447569998#1_1" departPos="5.10" departSpeed="0.00" departDelay="0.50" arrival="57775.00" arrivalLane="-26677539_1" arrivalPos="152.75" arrivalSpeed="9.07" duration="102.00" routeLength="699.63" waitingTime="14.00" waitingCount="1" stopTime="0.00" timeLoss="29.31" rerouteNo="1" devices="tripinfo_carIn27009:1 routing_carIn27009:1 emissions_carIn27009:1" vType="default_015" speedFactor="1.15" vaporized="">
        <emissions CO_abs="5420.638106" CO2_abs="222622.449605" HC_abs="29.844458" PMx_abs="3.947861" NOx_abs="92.137227" fuel_abs="95.697448" electricity_abs="0"/>
    </tripinfo>
    <tripinfo id="h3568c1:3" depart="57656.00" departLane="266565295#5_1" departPos="5.10" departSpeed="0.00" departDelay="0.80" arrival="57786.00" arrivalLane="-24634415_1" arrivalPos="62.03" arrivalSpeed="12.98" duration="130.00" routeLength="807.40" waitingTime="46.00" waitingCount="1" stopTime="0.00" timeLoss="66.20" rerouteNo="1" devices="tripinfo_h3568c1:3 routing_h3568c1:3 emissions_h3568c1:3" vType="default_016" speedFactor="1.01" vaporized="">
        <emissions CO_abs="10901.189905" CO2_abs="358356.372813" HC_abs="58.023099" PMx_abs="7.204600" NOx_abs="152.403214" fuel_abs="154.045320" electricity_abs="0"/>
    </tripinfo>
    <tripinfo id="h7181c1:1" depart="57660.00" departLane="315358254#0_1" departPos="5.10" departSpeed="0.00" departDelay="0.10" arrival="57791.00" arrivalLane="306240162#0_0" arrivalPos="220.43" arrivalSpeed="15.02" duration="131.00" routeLength="932.35" waitingTime="62.00" waitingCount="2" stopTime="0.00" timeLoss="78.50" rerouteNo="1" devices="tripinfo_h7181c1:1 routing_h7181c1:1 emissions_h7181c1:1" vType="default_016" speedFactor="0.98" vaporized="">
        <emissions CO_abs="12347.458347" CO2_abs="400160.944462" HC_abs="65.633699" PMx_abs="8.488126" NOx_abs="171.014298" fuel_abs="172.015368" electricity_abs="0"/>
    </tripinfo>
    <tripinfo id="carIn12365:1" depart="57713.00" departLane="315358244_1" departPos="5.10" departSpeed="0.00" departDelay="0.50" arrival="57793.00" arrivalLane="447569997#1_1" arrivalPos="180.93" arrivalSpeed="7.68" duration="80.00" routeLength="718.04" waitingTime="7.00" waitingCount="1" stopTime="0.00" timeLoss="20.75" rerouteNo="1" devices="tripinfo_carIn12365:1 routing_carIn12365:1 emissions_carIn12365:1" vType="default_016" speedFactor="1.04" vaporized="">
        <emissions CO_abs="2952.879794" CO2_abs="175079.543526" HC_abs="17.534120" PMx_abs="2.979823" NOx_abs="70.790837" fuel_abs="75.259609" electricity_abs="0"/>
    </tripinfo>
    <tripinfo id="carIn107282:1" depart="57749.00" departLane="-447569998#1_1" departPos="5.10" departSpeed="0.00" departDelay="0.00" arrival="57802.00" arrivalLane="315358242#0_1" arrivalPos="165.37" arrivalSpeed="11.93" duration="53.00" routeLength="448.50" waitingTime="0.00" waitingCount="0" stopTime="0.00" timeLoss="5.35" rerouteNo="1" devices="tripinfo_carIn107282:1 routing_carIn107282:1 emissions_carIn107282:1" vType="default_016" speedFactor="0.88" vaporized="">
        <emissions CO_abs="2084.576677" CO2_abs="114427.022049" HC_abs="12.119472" PMx_abs="1.767029" NOx_abs="45.436969" fuel_abs="49.187918" electricity_abs="0"/>
    </tripinfo>
    <tripinfo id="h4538c1:1" depart="57701.00" departLane="-10427692#1_1" departPos="5.10" departSpeed="0.00" departDelay="0.00" arrival="57805.00" arrivalLane="-128361102#1_1" arrivalPos="274.68" arrivalSpeed="13.84" duration="104.00" routeLength="440.74" waitingTime="62.00" waitingCount="1" stopTime="0.00" timeLoss="73.71" rerouteNo="1" devices="tripinfo_h4538c1:1 routing_h4538c1:1 emissions_h4538c1:1" vType="default_016" speedFactor="1.04" vaporized="">
        <emissions CO_abs="11050.944048" CO2_abs="263022.826313" HC_abs="56.451491" PMx_abs="5.654695" NOx_abs="114.046342" fuel_abs="113.066711" electricity_abs="0"/>
    </tripinfo>
    <tripinfo id="S5R_frequency1.2" depart="57624.00" departLane="315358250#0_1" departPos="12.10" departSpeed="0.00" departDelay="12.40" arrival="57809.00" arrivalLane="386687235_1" arrivalPos="80.84" arrivalSpeed="13.60" duration="185.00" routeLength="1115.62" waitingTime="76.00" waitingCount="2" stopTime="0.00" timeLoss="103.74" rerouteNo="1" devices="tripinfo_S5R_frequency1.2 routing_S5R_frequency1.2 emissions_S5R_frequency1.2" vType="bus" speedFactor="1.00" vaporized="">
        <emissions CO_abs="3768.894268" CO2_abs="1849304.208582" HC_abs="828.892796" PMx_abs="392.682102" NOx_abs="15733.194031" fuel_abs="788.539930" electricity_abs="0"/>
    </tripinfo>
    <tripinfo id="h11737c1:1" depart="57665.00" departLane="272042143_1" departPos="5.10" departSpeed="0.00" departDelay="1.50" arrival="57812.00" arrivalLane="-315358254#1_1" arrivalPos="137.16" arrivalSpeed="14.82" duration="147.00" routeLength="1596.88" waitingTime="24.00" waitingCount="1" stopTime="0.00" timeLoss="45.78" rerouteNo="1" devices="tripinfo_h11737c1:1 routing_h11737c1:1 emissions_h11737c1:1" vType="default_016" speedFactor="1.15" vaporized="">
        <emissions CO_abs="6993.578513" CO2_abs="410482.021171" HC_abs="41.287458" PMx_abs="7.234856" NOx_abs="164.954335" fuel_abs="176.449516" electricity_abs="0"/>
    </tripinfo>
    <tripinfo id="carIn118591:1" depart="57689.00" departLane="315358244_1" departPos="5.10" departSpeed="0.00" departDelay="0.20" arrival="57812.00" arrivalLane="386687235_1" arrivalPos="80.84" arrivalSpeed="15.41" duration="123.00" routeLength="1186.14" waitingTime="27.00" waitingCount="1" stopTime="0.00" timeLoss="45.25" rerouteNo="1" devices="tripinfo_carIn118591:1 routing_carIn118591:1 emissions_carIn118591:1" vType="default_016" speedFactor="1.12" vaporized="">
        <emissions CO_abs="7144.100988" CO2_abs="312757.134801" HC_abs="39.640006" PMx_abs="5.689297" NOx_abs="127.325147" fuel_abs="134.442785" electricity_abs="0"/>
    </tripinfo>
    <tripinfo id="carIn12858:1" depart="57661.00" departLane="128361109#1_1" departPos="5.10" departSpeed="0.00" departDelay="0.90" arrival="57813.00" arrivalLane="399835085#1_1" arrivalPos="212.23" arrivalSpeed="7.72" duration="152.00" routeLength="1738.12" waitingTime="9.00" waitingCount="2" stopTime="0.00" timeLoss="39.02" rerouteNo="1" devices="tripinfo_carIn12858:1 routing_carIn12858:1 emissions_carIn12858:1" vType="default_016" speedFactor="1.02" vaporized="">
        <emissions CO_abs="8092.054809" CO2_abs="498786.524188" HC_abs="48.764852" PMx_abs="9.618956" NOx_abs="205.601825" fuel_abs="214.406487" electricity_abs="0"/>
    </tripinfo>
    <tripinfo id="carIn80064:1" depart="57603.00" departLane="128361109#1_1" departPos="5.10" departSpeed="0.00" departDelay="0.40" arrival="57818.00" arrivalLane="-315358254#1_1" arrivalPos="137.16" arrivalSpeed="11.40" duration="215.00" routeLength="1587.97" waitingTime="79.00" waitingCount="4" stopTime="0.00" timeLoss="114.91" rerouteNo="1" devices="tripinfo_carIn80064:1 routing_carIn80064:1 emissions_carIn80064:1" vType="default_016" speedFactor="0.89" vaporized="">
        <emissions CO_abs="16781.820092" CO2_abs="609721.965365" HC_abs="90.767339" PMx_abs="12.556341" NOx_abs="259.433644" fuel_abs="262.097123" electricity_abs="0"/>
    </tripinfo>
    <tripinfo id="h9563c2:5" depart="57631.00" departLane="315358244_1" departPos="5.10" departSpeed="0.00" departDelay="0.70" arrival="57824.00" arrivalLane="386687235_1" arrivalPos="80.84" arrivalSpeed="10.66" duration="193.00" routeLength="1186.14" waitingTime="55.00" waitingCount="4" stopTime="0.00" timeLoss="83.64" rerouteNo="1" devices="tripinfo_h9563c2:5 routing_h9563c2:5 emissions_h9563c2:5" vType="default_016" speedFactor="0.79" vaporized="">
        <emissions CO_abs="11563.647073" CO2_abs="399437.991157" HC_abs="61.912540" PMx_abs="7.295428" NOx_abs="165.913460" fuel_abs="171.705470" electricity_abs="0"/>
    </tripinfo>
    <tripinfo id="carIn86816:1" depart="57617.00" departLane="128361102#0_1" departPos="5.10" departSpeed="0.00" departDelay="0.80" arrival="57826.00" arrivalLane="201956811#0_1" arrivalPos="40.40" arrivalSpeed="13.28" duration="209.00" routeLength="2067.33" waitingTime="31.00" waitingCount="1" stopTime="0.00" timeLoss="53.30" rerouteNo="1" devices="tripinfo_carIn86816:1 routing_carIn86816:1 emissions_carIn86816:1" vType="default_016" speedFactor="0.98" vaporized="">
        <emissions CO_abs="10249.006501" CO2_abs="520551.994462" HC_abs="58.838679" PMx_abs="9.155635" NOx_abs="211.355680" fuel_abs="223.765142" electricity_abs="0"/>
    </tripinfo>
    <tripinfo id="carIn102915:1" depart="57643.00" departLane="128361102#0_1" departPos="5.10" departSpeed="0.00" departDelay="0.40" arrival="57828.00" arrivalLane="201956811#0_1" arrivalPos="40.40" arrivalSpeed="13.68" duration="185.00" routeLength="2067.33" waitingTime="6.00" waitingCount="1" stopTime="0.00" timeLoss="35.72" rerouteNo="1" devices="tripinfo_carIn102915:1 routing_carIn102915:1 emissions_carIn102915:1" vType="default_016" speedFactor="1.01" vaporized="">
        <emissions CO_abs="6462.697108" CO2_abs="476289.707403" HC_abs="40.605866" PMx_abs="8.110157" NOx_abs="191.493933" fuel_abs="204.736430" electricity_abs="0"/>
    </tripinfo>
    <tripinfo id="h16072c2:3" depart="57663.00" departLane="315358254#0_1" departPos="5.10" departSpeed="0.00" departDelay="2.50" arrival="57833.00" arrivalLane="386687235_1" arrivalPos="80.84" arrivalSpeed="14.22" duration="170.00" routeLength="1611.92" waitingTime="31.00" waitingCount="3" stopTime="0.00" timeLoss="56.72" rerouteNo="1" devices="tripinfo_h16072c2:3 routing_h16072c2:3 emissions_h16072c2:3" vType="default_016" speedFactor="1.04" vaporized="">
        <emissions CO_abs="7696.665373" CO2_abs="414999.484307" HC_abs="44.632114" PMx_abs="7.205321" NOx_abs="167.262271" fuel_abs="178.391986" electricity_abs="0"/>
    </tripinfo>
    <tripinfo id="h5216c1:1" depart="57664.00" departLane="224892339#0_1" departPos="5.10" departSpeed="0.00" departDelay="0.00" arrival="57833.00" arrivalLane="386687235_2" arrivalPos="80.84" arrivalSpeed="14.25" duration="169.00" routeLength="1823.78" waitingTime="16.00" waitingCount="2" stopTime="0.00" timeLoss="47.49" rerouteNo="1" devices="tripinfo_h5216c1:1 routing_h5216c1:1 emissions_h5216c1:1" vType="default_016" speedFactor="1.05" vaporized="">
        <emissions CO_abs="7195.441672" CO2_abs="485559.462646" HC_abs="44.090361" PMx_abs="8.627797" NOx_abs="196.408698" fuel_abs="208.721161" electricity_abs="0"/>
    </tripinfo>
    <tripinfo id="carIn126288:1" depart="57674.00" departLane="272042143_1" departPos="5.10" departSpeed="0.00" departDelay="0.00" arrival="57833.00" arrivalLane="-315358254#1_1" arrivalPos="137.16" arrivalSpeed="10.95" duration="159.00" routeLength="1596.88" waitingTime="10.00" waitingCount="1" stopTime="0.00" timeLoss="27.16" rerouteNo="1" devices="tripinfo_carIn126288:1 routing_carIn126288:1 emissions_carIn126288:1" vType="default_016" speedFactor="0.88" vaporized="">
        <emissions CO_abs="5045.056867" CO2_abs="348015.357295" HC_abs="31.007629" PMx_abs="5.277859" NOx_abs="136.034379" fuel_abs="149.598049" electricity_abs="0"/>
    </tripinfo>
    <tripinfo id="randUni15030:1" depart="57735.00" departLane="386687232#0_1" departPos="5.10" departSpeed="0.00" departDelay="0.10" arrival="57833.00" arrivalLane="26677539_1" arrivalPos="151.98" arrivalSpeed="7.44" duration="98.00" routeLength="919.89" waitingTime="0.00" waitingCount="0" stopTime="0.00" timeLoss="12.25" rerouteNo="1" devices="tripinfo_randUni15030:1 routing_randUni15030:1 emissions_randUni15030:1" vType="random_016" speedFactor="0.98" vaporized="">
        <emissions CO_abs="3404.173734" CO2_abs="199620.853332" HC_abs="20.131676" PMx_abs="3.271524" NOx_abs="80.239435" fuel_abs="85.809114" electricity_abs="0"/>
    </tripinfo>
    <tripinfo id="carIn28951:1" depart="57606.00" departLane="10425609#0_1" departPos="5.10" departSpeed="0.00" departDelay="0.20" arrival="57835.00" arrivalLane="-128361102#1_1" arrivalPos="274.68" arrivalSpeed="13.70" duration="229.00" routeLength="2113.04" waitingTime="51.00" waitingCount="3" stopTime="0.00" timeLoss="79.53" rerouteNo="1" devices="tripinfo_carIn28951:1 routing_carIn28951:1 emissions_carIn28951:1" vType="default_016" speedFactor="1.04" vaporized="">
        <emissions CO_abs="13463.393271" CO2_abs="587393.321700" HC_abs="75.032153" PMx_abs="11.005226" NOx_abs="242.750909" fuel_abs="252.498230" electricity_abs="0"/>
    </tripinfo>
    <tripinfo id="50R_frequency3.17" depart="57674.00" departLane="-18809673#6_1" departPos="12.10" departSpeed="0.00" departDelay="0.70" arrival="57835.00" arrivalLane="201956811#0_1" arrivalPos="40.40" arrivalSpeed="13.42" duration="161.00" routeLength="1954.47" waitingTime="0.00" waitingCount="0" stopTime="0.00" timeLoss="15.70" rerouteNo="1" devices="tripinfo_50R_frequency3.17 routing_50R_frequency3.17 emissions_50R_frequency3.17" vType="bus" speedFactor="1.00" vaporized="">
        <emissions CO_abs="2980.637262" CO2_abs="1911290.972602" HC_abs="635.593197" PMx_abs="321.144125" NOx_abs="14699.561703" fuel_abs="815.169340" electricity_abs="0"/>
    </tripinfo>
    <tripinfo id="h20540c1:1" depart="57634.00" departLane="10425609#0_1" departPos="5.10" departSpeed="0.00" departDelay="0.50" arrival="57836.00" arrivalLane="-128361102#1_1" arrivalPos="274.68" arrivalSpeed="15.89" duration="202.00" routeLength="2095.01" waitingTime="42.00" waitingCount="2" stopTime="0.00" timeLoss="73.53" rerouteNo="1" devices="tripinfo_h20540c1:1 routing_h20540c1:1 emissions_h20540c1:1" vType="default_016" speedFactor="1.19" vaporized="">
        <emissions CO_abs="12437.921654" CO2_abs="620069.262730" HC_abs="71.105300" PMx_abs="11.743082" NOx_abs="255.568999" fuel_abs="266.542807" electricity_abs="0"/>
    </tripinfo>
    <tripinfo id="h9953c2:3" depart="57682.00" departLane="-54169231#2_1" departPos="5.10" departSpeed="0.00" departDelay="0.00" arrival="57838.00" arrivalLane="386687235_1" arrivalPos="80.84" arrivalSpeed="13.19" duration="156.00" routeLength="1535.60" waitingTime="6.00" waitingCount="1" stopTime="0.00" timeLoss="29.34" rerouteNo="1" devices="tripinfo_h9953c2:3 routing_h9953c2:3 emissions_h9953c2:3" vType="default_016" speedFactor="0.99" vaporized="">
        <emissions CO_abs="6259.369433" CO2_abs="384282.348389" HC_abs="37.489103" PMx_abs="6.613368" NOx_abs="155.809558" fuel_abs="165.187128" electricity_abs="0"/>
    </tripinfo>
    <tripinfo id="h19804c1:3" depart="57616.00" departLane="124812856#0_1" departPos="5.10" departSpeed="0.00" departDelay="0.50" arrival="57840.00" arrivalLane="-128361102#1_1" arrivalPos="274.68" arrivalSpeed="13.44" duration="224.00" routeLength="2250.49" waitingTime="19.00" waitingCount="3" stopTime="0.00" timeLoss="58.44" rerouteNo="1" devices="tripinfo_h19804c1:3 routing_h19804c1:3 emissions_h19804c1:3" vType="default_016" speedFactor="0.99" vaporized="">
        <emissions CO_abs="8812.338978" CO2_abs="562575.775388" HC_abs="53.283675" PMx_abs="9.577817" NOx_abs="226.449134" fuel_abs="241.828076" electricity_abs="0"/>
    </tripinfo>
    <tripinfo id="h3864c1:3" depart="57678.00" departLane="24693977#1_1" departPos="5.10" departSpeed="0.00" departDelay="0.00" arrival="57840.00" arrivalLane="201956820_1" arrivalPos="48.33" arrivalSpeed="13.57" duration="162.00" routeLength="1574.85" waitingTime="5.00" waitingCount="2" stopTime="0.00" timeLoss="34.49" rerouteNo="1" devices="tripinfo_h3864c1:3 routing_h3864c1:3 emissions_h3864c1:3" vType="default_016" speedFactor="1.01" vaporized="">
        <emissions CO_abs="7064.559054" CO2_abs="434674.689971" HC_abs="42.369240" PMx_abs="7.786315" NOx_abs="178.640391" fuel_abs="186.848189" electricity_abs="0"/>
    </tripinfo>
    <tripinfo id="carIn129809:1" depart="57729.00" departLane="-447569998#1_1" departPos="5.10" departSpeed="0.00" departDelay="1.00" arrival="57842.00" arrivalLane="-315358244_1" arrivalPos="33.95" arrivalSpeed="15.54" duration="113.00" routeLength="706.49" waitingTime="48.00" waitingCount="1" stopTime="0.00" timeLoss="60.84" rerouteNo="1" devices="tripinfo_carIn129809:1 routing_carIn129809:1 emissions_carIn129809:1" vType="default_015" speedFactor="1.15" vaporized="">
        <emissions CO_abs="9486.132884" CO2_abs="291269.946232" HC_abs="49.931189" PMx_abs="5.947571" NOx_abs="123.951880" fuel_abs="125.207560" electricity_abs="0"/>
    </tripinfo>
    <tripinfo id="carIn12775:1" depart="57676.00" departLane="10425609#0_1" departPos="5.10" departSpeed="0.00" departDelay="0.60" arrival="57843.00" arrivalLane="18809673#0_1" arrivalPos="473.56" arrivalSpeed="13.25" duration="167.00" routeLength="1959.45" waitingTime="1.00" waitingCount="1" stopTime="0.00" timeLoss="20.12" rerouteNo="1" devices="tripinfo_carIn12775:1 routing_carIn12775:1 emissions_carIn12775:1" vType="default_016" speedFactor="0.99" vaporized="">
        <emissions CO_abs="4857.742286" CO2_abs="398615.183164" HC_abs="31.332425" PMx_abs="6.180295" NOx_abs="155.628459" fuel_abs="171.348019" electricity_abs="0"/>
    </tripinfo>
    <tripinfo id="carIn73855:1" depart="57743.00" departLane="386687232#0_1" departPos="5.10" departSpeed="0.00" departDelay="0.50" arrival="57843.00" arrivalLane="-315358244_2" arrivalPos="33.95" arrivalSpeed="17.34" duration="100.00" routeLength="1157.39" waitingTime="11.00" waitingCount="2" stopTime="0.00" timeLoss="32.35" rerouteNo="1" devices="tripinfo_carIn73855:1 routing_carIn73855:1 emissions_carIn73855:1" vType="default_016" speedFactor="1.25" vaporized="">
        <emissions CO_abs="4809.280870" CO2_abs="330157.899795" HC_abs="29.549907" PMx_abs="6.099440" NOx_abs="134.436066" fuel_abs="141.920320" electricity_abs="0"/>
    </tripinfo>
    <tripinfo id="carIn126378:1" depart="57746.00" departLane="386687232#0_1" departPos="5.10" departSpeed="0.00" departDelay="1.80" arrival="57845.00" arrivalLane="-315358244_2" arrivalPos="33.95" arrivalSpeed="12.95" duration="99.00" routeLength="1157.39" waitingTime="3.00" waitingCount="1" stopTime="0.00" timeLoss="17.12" rerouteNo="1" devices="tripinfo_carIn126378:1 routing_carIn126378:1 emissions_carIn126378:1" vType="default_016" speedFactor="1.03" vaporized="">
        <emissions CO_abs="3324.759405" CO2_abs="262790.564460" HC_abs="21.205241" PMx_abs="4.254514" NOx_abs="103.728145" fuel_abs="112.962514" electricity_abs="0"/>
    </tripinfo>
    <tripinfo id="h645c1:1" depart="57622.00" departLane="266565295#5_1" departPos="5.10" departSpeed="0.00" departDelay="0.40" arrival="57846.00" arrivalLane="-315358244_1" arrivalPos="33.95" arrivalSpeed="11.02" duration="224.00" routeLength="1910.83" waitingTime="38.00" waitingCount="2" stopTime="0.00" timeLoss="65.86" rerouteNo="1" devices="tripinfo_h645c1:1 routing_h645c1:1 emissions_h645c1:1" vType="default_016" speedFactor="0.88" vaporized="">
        <emissions CO_abs="11067.143247" CO2_abs="507778.029304" HC_abs="62.180193" PMx_abs="8.666063" NOx_abs="205.413051" fuel_abs="218.275332" electricity_abs="0"/>
    </tripinfo>
    <tripinfo id="carIn12152:1" depart="57647.00" departLane="24599188#0.94_1" departPos="5.10" departSpeed="0.00" departDelay="0.50" arrival="57847.00" arrivalLane="-315358254#1_1" arrivalPos="137.16" arrivalSpeed="12.54" duration="200.00" routeLength="2034.31" waitingTime="14.00" waitingCount="2" stopTime="0.00" timeLoss="39.59" rerouteNo="1" devices="tripinfo_carIn12152:1 routing_carIn12152:1 emissions_carIn12152:1" vType="default_016" speedFactor="0.99" vaporized="">
        <emissions CO_abs="6501.463760" CO2_abs="440980.473554" HC_abs="39.857255" PMx_abs="7.141036" NOx_abs="175.057852" fuel_abs="189.559501" electricity_abs="0"/>
    </tripinfo>
    <tripinfo id="h3154c1:1" depart="57658.00" departLane="24634507_1" departPos="5.10" departSpeed="0.00" departDelay="0.00" arrival="57848.00" arrivalLane="-266565295#5_1" arrivalPos="172.76" arrivalSpeed="14.53" duration="190.00" routeLength="1206.22" waitingTime="90.00" waitingCount="1" stopTime="0.00" timeLoss="105.98" rerouteNo="1" devices="tripinfo_h3154c1:1 routing_h3154c1:1 emissions_h3154c1:1" vType="default_016" speedFactor="1.06" vaporized="">
        <emissions CO_abs="18052.232510" CO2_abs="526343.290933" HC_abs="94.495054" PMx_abs="10.795362" NOx_abs="223.898439" fuel_abs="226.258786" electricity_abs="0"/>
    </tripinfo>
    <tripinfo id="h17549c1:1" depart="57680.00" departLane="-447569998#1_1" departPos="5.10" departSpeed="0.00" departDelay="0.00" arrival="57849.00" arrivalLane="-315358254#1_1" arrivalPos="137.16" arrivalSpeed="12.79" duration="169.00" routeLength="1746.60" waitingTime="9.00" waitingCount="2" stopTime="0.00" timeLoss="31.17" rerouteNo="1" devices="tripinfo_h17549c1:1 routing_h17549c1:1 emissions_h17549c1:1" vType="default_016" speedFactor="1.00" vaporized="">
        <emissions CO_abs="5325.666977" CO2_abs="382116.807657" HC_abs="33.111532" PMx_abs="6.035106" NOx_abs="150.489264" fuel_abs="164.256405" electricity_abs="0"/>
    </tripinfo>