<?xml version="1.0" encoding="UTF-8"?>

<!-- generated on 2021-10-26 21:36:46 by Eclipse SUMO sumo Version 1.10.0
<configuration xmlns:xsi="http://www.w3.org/2001/XMLSchema-instance" xsi:noNamespaceSchemaLocation="http://sumo.dlr.de/xsd/sumoConfiguration.xsd">

    <input>
        <net-file value="/Users/behradkoohy/sumo-scratchpad/RESCO/environments/ingolstadt21/ingolstadt21.net.xml"/>
        <route-files value="/Users/behradkoohy/sumo-scratchpad/RESCO/environments/ingolstadt21/ingolstadt21.rou.xml"/>
    </input>

    <output>
        <tripinfo-output value="/Users/behradkoohy/sumo-scratchpad/RESCO/logs/MPLight-tr0-ingolstadt21-21-mplight_full-pressure/tripinfo_61.xml"/>
        <tripinfo-output.write-unfinished value="true"/>
    </output>

    <time>
        <begin value="57600"/>
        <end value="61200"/>
    </time>

    <processing>
        <time-to-teleport value="-1"/>
    </processing>

    <report>
        <no-warnings value="true"/>
        <no-step-log value="true"/>
    </report>

    <emissions>
        <device.emissions.probability value="1"/>
    </emissions>

    <traci_server>
        <remote-port value="65176"/>
    </traci_server>

    <random_number>
        <random value="true"/>
    </random_number>

</configuration>
-->

<tripinfos xmlns:xsi="http://www.w3.org/2001/XMLSchema-instance" xsi:noNamespaceSchemaLocation="http://sumo.dlr.de/xsd/tripinfo_file.xsd">
    <tripinfo id="h15454c2:3" depart="57612.00" departLane="24608844_1" departPos="5.10" departSpeed="0.00" departDelay="0.50" arrival="57649.00" arrivalLane="32978638#0_1" arrivalPos="49.29" arrivalSpeed="14.08" duration="37.00" routeLength="354.79" waitingTime="0.00" waitingCount="0" stopTime="0.00" timeLoss="4.66" rerouteNo="1" devices="tripinfo_h15454c2:3 routing_h15454c2:3 emissions_h15454c2:3" vType="default_016" speedFactor="1.07" vaporized="">
        <emissions CO_abs="1645.433097" CO2_abs="101383.670920" HC_abs="9.822861" PMx_abs="1.636594" NOx_abs="40.449960" fuel_abs="43.580810" electricity_abs="0"/>
    </tripinfo>
    <tripinfo id="carIn53971:1" depart="57640.00" departLane="272042143_1" departPos="5.10" departSpeed="0.00" departDelay="0.80" arrival="57698.00" arrivalLane="24634414#1_1" arrivalPos="162.19" arrivalSpeed="6.80" duration="58.00" routeLength="493.04" waitingTime="0.00" waitingCount="0" stopTime="0.00" timeLoss="9.32" rerouteNo="1" devices="tripinfo_carIn53971:1 routing_carIn53971:1 emissions_carIn53971:1" vType="default_016" speedFactor="0.93" vaporized="">
        <emissions CO_abs="2613.930379" CO2_abs="138174.268338" HC_abs="15.121643" PMx_abs="2.399775" NOx_abs="56.709110" fuel_abs="59.395639" electricity_abs="0"/>
    </tripinfo>
    <tripinfo id="h7800c1:5" depart="57696.00" departLane="-447569998#1_1" departPos="5.10" departSpeed="0.00" departDelay="0.00" arrival="57720.00" arrivalLane="-447569998#1_2" arrivalPos="180.76" arrivalSpeed="7.78" duration="24.00" routeLength="175.66" waitingTime="0.00" waitingCount="0" stopTime="0.00" timeLoss="3.14" rerouteNo="1" devices="tripinfo_h7800c1:5 routing_h7800c1:5 emissions_h7800c1:5" vType="default_016" speedFactor="1.05" vaporized="">
        <emissions CO_abs="1053.150258" CO2_abs="46122.859004" HC_abs="5.869900" PMx_abs="0.838593" NOx_abs="19.296846" fuel_abs="19.826472" electricity_abs="0"/>
    </tripinfo>
    <tripinfo id="carIn60260:1" depart="57606.00" departLane="315358254#0_1" departPos="5.10" departSpeed="0.00" departDelay="0.90" arrival="57738.00" arrivalLane="399835085#1_1" arrivalPos="212.23" arrivalSpeed="7.15" duration="132.00" routeLength="430.98" waitingTime="69.00" waitingCount="1" stopTime="0.00" timeLoss="79.73" rerouteNo="1" devices="tripinfo_carIn60260:1 routing_carIn60260:1 emissions_carIn60260:1" vType="default_016" speedFactor="0.88" vaporized="">
        <emissions CO_abs="13105.073152" CO2_abs="290777.028574" HC_abs="66.438885" PMx_abs="6.210001" NOx_abs="126.872050" fuel_abs="124.998245" electricity_abs="0"/>
    </tripinfo>
    <tripinfo id="h3568c1:3" depart="57656.00" departLane="266565295#5_1" departPos="5.10" departSpeed="0.00" departDelay="0.80" arrival="57738.00" arrivalLane="-24634415_1" arrivalPos="62.03" arrivalSpeed="12.50" duration="82.00" routeLength="807.40" waitingTime="0.00" waitingCount="0" stopTime="0.00" timeLoss="11.23" rerouteNo="1" devices="tripinfo_h3568c1:3 routing_h3568c1:3 emissions_h3568c1:3" vType="default_016" speedFactor="0.91" vaporized="">
        <emissions CO_abs="3354.669230" CO2_abs="201014.483176" HC_abs="19.980283" PMx_abs="3.501932" NOx_abs="82.180006" fuel_abs="86.407796" electricity_abs="0"/>
    </tripinfo>
    <tripinfo id="h317c2:1" depart="57707.00" departLane="-32978638#0_1" departPos="5.10" departSpeed="0.00" departDelay="0.10" arrival="57754.00" arrivalLane="-266565295#5_1" arrivalPos="172.76" arrivalSpeed="14.22" duration="47.00" routeLength="370.53" waitingTime="12.00" waitingCount="1" stopTime="0.00" timeLoss="20.08" rerouteNo="1" devices="tripinfo_h317c2:1 routing_h317c2:1 emissions_h317c2:1" vType="default_016" speedFactor="1.04" vaporized="">
        <emissions CO_abs="3208.529477" CO2_abs="138720.930896" HC_abs="17.896310" PMx_abs="2.751339" NOx_abs="58.726702" fuel_abs="59.630648" electricity_abs="0"/>
    </tripinfo>
    <tripinfo id="h4538c1:1" depart="57701.00" departLane="-10427692#1_1" departPos="5.10" departSpeed="0.00" departDelay="0.00" arrival="57755.00" arrivalLane="-128361102#1_1" arrivalPos="274.68" arrivalSpeed="13.50" duration="54.00" routeLength="440.74" waitingTime="12.00" waitingCount="1" stopTime="0.00" timeLoss="23.03" rerouteNo="1" devices="tripinfo_h4538c1:1 routing_h4538c1:1 emissions_h4538c1:1" vType="default_016" speedFactor="1.02" vaporized="">
        <emissions CO_abs="3044.828347" CO2_abs="141347.822380" HC_abs="17.101710" PMx_abs="2.480082" NOx_abs="57.241290" fuel_abs="60.760188" electricity_abs="0"/>
    </tripinfo>
    <tripinfo id="h5979c1:5" depart="57669.00" departLane="399835085#1_1" departPos="5.10" departSpeed="0.00" departDelay="0.00" arrival="57757.00" arrivalLane="-315358254#1_1" arrivalPos="137.16" arrivalSpeed="14.39" duration="88.00" routeLength="659.33" waitingTime="9.00" waitingCount="1" stopTime="0.00" timeLoss="21.69" rerouteNo="1" devices="tripinfo_h5979c1:5 routing_h5979c1:5 emissions_h5979c1:5" vType="default_016" speedFactor="1.11" vaporized="">
        <emissions CO_abs="4029.815934" CO2_abs="184770.909782" HC_abs="22.645851" PMx_abs="3.251213" NOx_abs="76.131820" fuel_abs="79.426077" electricity_abs="0"/>
    </tripinfo>
    <tripinfo id="h3326c1:2" depart="57656.00" departLane="22716069#0_1" departPos="5.10" departSpeed="0.00" departDelay="0.00" arrival="57761.00" arrivalLane="24634517#13_1" arrivalPos="111.62" arrivalSpeed="14.51" duration="105.00" routeLength="1312.81" waitingTime="0.00" waitingCount="0" stopTime="0.00" timeLoss="14.15" rerouteNo="1" devices="tripinfo_h3326c1:2 routing_h3326c1:2 emissions_h3326c1:2" vType="default_016" speedFactor="1.07" vaporized="">
        <emissions CO_abs="4172.049207" CO2_abs="328049.442632" HC_abs="26.576406" PMx_abs="5.656661" NOx_abs="131.708819" fuel_abs="141.014017" electricity_abs="0"/>
    </tripinfo>
    <tripinfo id="h7181c1:1" depart="57660.00" departLane="315358254#0_1" departPos="5.10" departSpeed="0.00" departDelay="0.10" arrival="57761.00" arrivalLane="306240162#0_0" arrivalPos="220.43" arrivalSpeed="15.33" duration="101.00" routeLength="932.35" waitingTime="31.00" waitingCount="2" stopTime="0.00" timeLoss="48.86" rerouteNo="1" devices="tripinfo_h7181c1:1 routing_h7181c1:1 emissions_h7181c1:1" vType="default_016" speedFactor="1.00" vaporized="">
        <emissions CO_abs="7676.024574" CO2_abs="339879.512723" HC_abs="43.019846" PMx_abs="6.908019" NOx_abs="142.583499" fuel_abs="146.100599" electricity_abs="0"/>
    </tripinfo>
    <tripinfo id="carIn27009:1" depart="57673.00" departLane="-447569998#1_1" departPos="5.10" departSpeed="0.00" departDelay="0.50" arrival="57768.00" arrivalLane="-26677539_1" arrivalPos="152.75" arrivalSpeed="8.08" duration="95.00" routeLength="699.63" waitingTime="0.00" waitingCount="0" stopTime="0.00" timeLoss="9.67" rerouteNo="1" devices="tripinfo_carIn27009:1 routing_carIn27009:1 emissions_carIn27009:1" vType="default_015" speedFactor="0.99" vaporized="">
        <emissions CO_abs="3424.011599" CO2_abs="161855.116277" HC_abs="19.294515" PMx_abs="2.554460" NOx_abs="65.230303" fuel_abs="69.575750" electricity_abs="0"/>
    </tripinfo>
    <tripinfo id="h12244c1:3" depart="57612.00" departLane="315358244_1" departPos="5.10" departSpeed="0.00" departDelay="0.40" arrival="57782.00" arrivalLane="386687235_1" arrivalPos="80.84" arrivalSpeed="13.97" duration="170.00" routeLength="1186.14" waitingTime="65.00" waitingCount="3" stopTime="0.00" timeLoss="91.19" rerouteNo="1" devices="tripinfo_h12244c1:3 routing_h12244c1:3 emissions_h12244c1:3" vType="default_016" speedFactor="1.10" vaporized="">
        <emissions CO_abs="13163.570302" CO2_abs="446038.619493" HC_abs="70.222755" PMx_abs="8.885745" NOx_abs="188.139526" fuel_abs="191.736815" electricity_abs="0"/>
    </tripinfo>
    <tripinfo id="h3154c1:1" depart="57658.00" departLane="24634507_1" departPos="5.10" departSpeed="0.00" departDelay="0.00" arrival="57785.00" arrivalLane="-266565295#5_1" arrivalPos="172.76" arrivalSpeed="14.09" duration="127.00" routeLength="1206.22" waitingTime="22.00" waitingCount="2" stopTime="0.00" timeLoss="41.70" rerouteNo="1" devices="tripinfo_h3154c1:1 routing_h3154c1:1 emissions_h3154c1:1" vType="default_016" speedFactor="1.05" vaporized="">
        <emissions CO_abs="7071.039863" CO2_abs="359975.729867" HC_abs="40.634400" PMx_abs="6.741536" NOx_abs="149.042606" fuel_abs="154.738949" electricity_abs="0"/>
    </tripinfo>
    <tripinfo id="S5R_frequency1.2" depart="57624.00" departLane="315358250#0_1" departPos="12.10" departSpeed="0.00" departDelay="12.40" arrival="57788.00" arrivalLane="386687235_1" arrivalPos="80.84" arrivalSpeed="13.48" duration="164.00" routeLength="1115.62" waitingTime="50.00" waitingCount="3" stopTime="0.00" timeLoss="82.79" rerouteNo="1" devices="tripinfo_S5R_frequency1.2 routing_S5R_frequency1.2 emissions_S5R_frequency1.2" vType="bus" speedFactor="1.00" vaporized="">
        <emissions CO_abs="3221.796896" CO2_abs="1733237.368954" HC_abs="689.043249" PMx_abs="338.455707" NOx_abs="14231.523871" fuel_abs="739.103117" electricity_abs="0"/>
    </tripinfo>
    <tripinfo id="carIn22761:1" depart="57616.00" departLane="-306240162#1_0" departPos="5.10" departSpeed="0.00" departDelay="2.10" arrival="57801.00" arrivalLane="399835085#1_1" arrivalPos="212.23" arrivalSpeed="8.50" duration="185.00" routeLength="1093.26" waitingTime="87.00" waitingCount="1" stopTime="0.00" timeLoss="112.73" rerouteNo="1" devices="tripinfo_carIn22761:1 routing_carIn22761:1 emissions_carIn22761:1" vType="default_016" speedFactor="1.07" vaporized="">
        <emissions CO_abs="18630.271340" CO2_abs="547755.194625" HC_abs="97.773651" PMx_abs="11.729059" NOx_abs="236.356933" fuel_abs="235.462209" electricity_abs="0"/>
    </tripinfo>
    <tripinfo id="h11737c1:1" depart="57665.00" departLane="272042143_1" departPos="5.10" departSpeed="0.00" departDelay="1.50" arrival="57801.00" arrivalLane="-315358254#1_1" arrivalPos="137.16" arrivalSpeed="12.58" duration="136.00" routeLength="1596.88" waitingTime="0.00" waitingCount="0" stopTime="0.00" timeLoss="11.73" rerouteNo="1" devices="tripinfo_h11737c1:1 routing_h11737c1:1 emissions_h11737c1:1" vType="default_016" speedFactor="0.94" vaporized="">
        <emissions CO_abs="3476.128978" CO2_abs="297571.184676" HC_abs="22.757513" PMx_abs="4.641140" NOx_abs="116.598127" fuel_abs="127.913237" electricity_abs="0"/>
    </tripinfo>
    <tripinfo id="carIn107282:1" depart="57749.00" departLane="-447569998#1_1" departPos="5.10" departSpeed="0.00" departDelay="0.00" arrival="57814.00" arrivalLane="315358242#0_1" arrivalPos="165.37" arrivalSpeed="15.26" duration="65.00" routeLength="448.50" waitingTime="18.00" waitingCount="1" stopTime="0.00" timeLoss="26.96" rerouteNo="1" devices="tripinfo_carIn107282:1 routing_carIn107282:1 emissions_carIn107282:1" vType="default_016" speedFactor="1.10" vaporized="">
        <emissions CO_abs="4814.776237" CO2_abs="173348.033402" HC_abs="25.996321" PMx_abs="3.387637" NOx_abs="73.057251" fuel_abs="74.516238" electricity_abs="0"/>
    </tripinfo>
    <tripinfo id="carIn86816:1" depart="57617.00" departLane="128361102#0_1" departPos="5.10" departSpeed="0.00" departDelay="0.80" arrival="57816.00" arrivalLane="201956811#0_1" arrivalPos="40.40" arrivalSpeed="14.11" duration="199.00" routeLength="2067.33" waitingTime="31.00" waitingCount="4" stopTime="0.00" timeLoss="68.60" rerouteNo="1" devices="tripinfo_carIn86816:1 routing_carIn86816:1 emissions_carIn86816:1" vType="default_016" speedFactor="1.16" vaporized="">
        <emissions CO_abs="10289.832257" CO2_abs="569631.198514" HC_abs="59.925856" PMx_abs="10.528753" NOx_abs="233.087859" fuel_abs="244.860900" electricity_abs="0"/>
    </tripinfo>
    <tripinfo id="carIn126288:1" depart="57674.00" departLane="272042143_1" departPos="5.10" departSpeed="0.00" departDelay="0.00" arrival="57817.00" arrivalLane="-315358254#1_1" arrivalPos="137.16" arrivalSpeed="13.28" duration="143.00" routeLength="1596.88" waitingTime="9.00" waitingCount="2" stopTime="0.00" timeLoss="25.99" rerouteNo="1" devices="tripinfo_carIn126288:1 routing_carIn126288:1 emissions_carIn126288:1" vType="default_016" speedFactor="1.00" vaporized="">
        <emissions CO_abs="4449.611365" CO2_abs="348541.291456" HC_abs="28.356033" PMx_abs="5.685924" NOx_abs="137.992509" fuel_abs="149.823075" electricity_abs="0"/>
    </tripinfo>
    <tripinfo id="carIn102915:1" depart="57643.00" departLane="128361102#0_1" departPos="5.10" departSpeed="0.00" departDelay="0.40" arrival="57823.00" arrivalLane="201956811#0_1" arrivalPos="40.40" arrivalSpeed="7.52" duration="180.00" routeLength="2067.33" waitingTime="0.00" waitingCount="0" stopTime="0.00" timeLoss="17.00" rerouteNo="1" devices="tripinfo_carIn102915:1 routing_carIn102915:1 emissions_carIn102915:1" vType="default_016" speedFactor="0.93" vaporized="">
        <emissions CO_abs="4718.297465" CO2_abs="384859.933186" HC_abs="30.427084" PMx_abs="6.014792" NOx_abs="151.267421" fuel_abs="165.435099" electricity_abs="0"/>
    </tripinfo>
    <tripinfo id="h16072c2:3" depart="57663.00" departLane="315358254#0_1" departPos="5.10" departSpeed="0.00" departDelay="2.50" arrival="57824.00" arrivalLane="386687235_1" arrivalPos="80.84" arrivalSpeed="14.75" duration="161.00" routeLength="1611.92" waitingTime="32.00" waitingCount="2" stopTime="0.00" timeLoss="51.41" rerouteNo="1" devices="tripinfo_h16072c2:3 routing_h16072c2:3 emissions_h16072c2:3" vType="default_016" speedFactor="1.08" vaporized="">
        <emissions CO_abs="8115.458244" CO2_abs="399609.509360" HC_abs="46.109083" PMx_abs="7.142059" NOx_abs="161.807694" fuel_abs="171.776771" electricity_abs="0"/>
    </tripinfo>
    <tripinfo id="randUni33724:1" depart="57646.00" departLane="128361102#0_1" departPos="5.10" departSpeed="0.00" departDelay="1.20" arrival="57825.00" arrivalLane="201956811#0_1" arrivalPos="40.40" arrivalSpeed="14.91" duration="179.00" routeLength="2067.33" waitingTime="0.00" waitingCount="0" stopTime="0.00" timeLoss="40.41" rerouteNo="1" devices="tripinfo_randUni33724:1 routing_randUni33724:1 emissions_randUni33724:1" vType="random_016" speedFactor="1.10" vaporized="">
        <emissions CO_abs="5950.577855" CO2_abs="446102.050676" HC_abs="37.512445" PMx_abs="7.578505" NOx_abs="179.614578" fuel_abs="191.759949" electricity_abs="0"/>
    </tripinfo>
    <tripinfo id="h5216c1:1" depart="57664.00" departLane="224892339#0_1" departPos="5.10" departSpeed="0.00" departDelay="0.00" arrival="57828.00" arrivalLane="386687235_1" arrivalPos="80.84" arrivalSpeed="13.64" duration="164.00" routeLength="1823.78" waitingTime="16.00" waitingCount="1" stopTime="0.00" timeLoss="38.75" rerouteNo="1" devices="tripinfo_h5216c1:1 routing_h5216c1:1 emissions_h5216c1:1" vType="default_016" speedFactor="1.02" vaporized="">
        <emissions CO_abs="6862.345968" CO2_abs="438402.831166" HC_abs="41.551352" PMx_abs="7.818595" NOx_abs="177.654777" fuel_abs="188.450821" electricity_abs="0"/>
    </tripinfo>
    <tripinfo id="carIn30817:1" depart="57681.00" departLane="315358244_1" departPos="5.10" departSpeed="0.00" departDelay="0.20" arrival="57829.00" arrivalLane="447569997#1_1" arrivalPos="180.93" arrivalSpeed="8.65" duration="148.00" routeLength="718.04" waitingTime="75.00" waitingCount="2" stopTime="0.00" timeLoss="91.43" rerouteNo="1" devices="tripinfo_carIn30817:1 routing_carIn30817:1 emissions_carIn30817:1" vType="default_016" speedFactor="1.09" vaporized="">
        <emissions CO_abs="14129.575123" CO2_abs="373735.726057" HC_abs="73.106275" PMx_abs="7.833489" NOx_abs="160.930123" fuel_abs="160.658276" electricity_abs="0"/>
    </tripinfo>
    <tripinfo id="carIn12858:1" depart="57661.00" departLane="128361109#1_1" departPos="5.10" departSpeed="0.00" departDelay="0.90" arrival="57836.00" arrivalLane="399835085#1_1" arrivalPos="212.23" arrivalSpeed="6.85" duration="175.00" routeLength="1738.12" waitingTime="20.00" waitingCount="3" stopTime="0.00" timeLoss="55.35" rerouteNo="1" devices="tripinfo_carIn12858:1 routing_carIn12858:1 emissions_carIn12858:1" vType="default_016" speedFactor="0.97" vaporized="">
        <emissions CO_abs="9845.755549" CO2_abs="529501.554889" HC_abs="57.373870" PMx_abs="10.092022" NOx_abs="218.129035" fuel_abs="227.610716" electricity_abs="0"/>
    </tripinfo>
    <tripinfo id="carIn12365:1" depart="57713.00" departLane="315358244_1" departPos="5.10" departSpeed="0.00" departDelay="0.50" arrival="57840.00" arrivalLane="447569997#1_1" arrivalPos="180.93" arrivalSpeed="6.85" duration="127.00" routeLength="718.04" waitingTime="42.00" waitingCount="1" stopTime="0.00" timeLoss="53.10" rerouteNo="1" devices="tripinfo_carIn12365:1 routing_carIn12365:1 emissions_carIn12365:1" vType="default_016" speedFactor="0.84" vaporized="">
        <emissions CO_abs="9568.697141" CO2_abs="271620.953234" HC_abs="49.854956" PMx_abs="5.175041" NOx_abs="114.231864" fuel_abs="116.762190" electricity_abs="0"/>
    </tripinfo>
    <tripinfo id="carIn81046:1" depart="57610.00" departLane="124812856#0_1" departPos="5.10" departSpeed="0.00" departDelay="1.50" arrival="57842.00" arrivalLane="-128361102#1_1" arrivalPos="274.68" arrivalSpeed="15.68" duration="232.00" routeLength="2232.46" waitingTime="57.00" waitingCount="1" stopTime="0.00" timeLoss="92.24" rerouteNo="1" devices="tripinfo_carIn81046:1 routing_carIn81046:1 emissions_carIn81046:1" vType="default_016" speedFactor="1.17" vaporized="">
        <emissions CO_abs="15686.291407" CO2_abs="695668.122862" HC_abs="87.635603" PMx_abs="13.428754" NOx_abs="289.154969" fuel_abs="299.040723" electricity_abs="0"/>
    </tripinfo>
    <tripinfo id="h9953c2:3" depart="57682.00" departLane="-54169231#2_1" departPos="5.10" departSpeed="0.00" departDelay="0.00" arrival="57843.00" arrivalLane="386687235_1" arrivalPos="80.84" arrivalSpeed="13.23" duration="161.00" routeLength="1535.60" waitingTime="10.00" waitingCount="2" stopTime="0.00" timeLoss="39.81" rerouteNo="1" devices="tripinfo_h9953c2:3 routing_h9953c2:3 emissions_h9953c2:3" vType="default_016" speedFactor="1.03" vaporized="">
        <emissions CO_abs="6743.539713" CO2_abs="400402.338604" HC_abs="40.089878" PMx_abs="7.181819" NOx_abs="164.510297" fuel_abs="172.116157" electricity_abs="0"/>
    </tripinfo>
    <tripinfo id="carIn50326:1" depart="57651.00" departLane="128361102#0_1" departPos="5.10" departSpeed="0.00" departDelay="0.30" arrival="57850.00" arrivalLane="18809673#0_1" arrivalPos="473.56" arrivalSpeed="14.27" duration="199.00" routeLength="1591.07" waitingTime="54.00" waitingCount="2" stopTime="0.00" timeLoss="77.76" rerouteNo="1" devices="tripinfo_carIn50326:1 routing_carIn50326:1 emissions_carIn50326:1" vType="default_016" speedFactor="1.07" vaporized="">
        <emissions CO_abs="12923.730436" CO2_abs="493820.620220" HC_abs="70.319221" PMx_abs="9.249449" NOx_abs="204.448746" fuel_abs="212.276190" electricity_abs="0"/>
    </tripinfo>
    <tripinfo id="carIn75660:1" depart="57679.00" departLane="128361109#1_1" departPos="5.10" departSpeed="0.00" departDelay="3.40" arrival="57851.00" arrivalLane="386687235_2" arrivalPos="80.84" arrivalSpeed="14.81" duration="172.00" routeLength="2088.57" waitingTime="11.00" waitingCount="2" stopTime="0.00" timeLoss="31.91" rerouteNo="1" devices="tripinfo_carIn75660:1 routing_carIn75660:1 emissions_carIn75660:1" vType="default_016" speedFactor="1.08" vaporized="">
        <emissions CO_abs="4550.321139" CO2_abs="387925.363376" HC_abs="29.633288" PMx_abs="6.305681" NOx_abs="152.236516" fuel_abs="166.752405" electricity_abs="0"/>
    </tripinfo>
    <tripinfo id="carIn85747:1" depart="57673.00" departLane="128361109#1_1" departPos="5.10" departSpeed="0.00" departDelay="0.70" arrival="57853.00" arrivalLane="386687235_1" arrivalPos="80.84" arrivalSpeed="13.33" duration="180.00" routeLength="2088.57" waitingTime="15.00" waitingCount="1" stopTime="0.00" timeLoss="32.10" rerouteNo="1" devices="tripinfo_carIn85747:1 routing_carIn85747:1 emissions_carIn85747:1" vType="default_016" speedFactor="1.02" vaporized="">
        <emissions CO_abs="5477.701680" CO2_abs="397211.389343" HC_abs="34.074813" PMx_abs="6.229401" NOx_abs="154.495086" fuel_abs="170.745121" electricity_abs="0"/>
    </tripinfo>
    <tripinfo id="carIn88905:1" depart="57688.00" departLane="128361109#1_1" departPos="5.10" departSpeed="0.00" departDelay="5.80" arrival="57855.00" arrivalLane="386687235_2" arrivalPos="80.84" arrivalSpeed="14.33" duration="167.00" routeLength="2088.57" waitingTime="2.00" waitingCount="1" stopTime="0.00" timeLoss="22.24" rerouteNo="1" devices="tripinfo_carIn88905:1 routing_carIn88905:1 emissions_carIn88905:1" vType="default_016" speedFactor="1.04" vaporized="">
        <emissions CO_abs="4718.190567" CO2_abs="422643.454364" HC_abs="31.189796" PMx_abs="6.662091" NOx_abs="164.719715" fuel_abs="181.676315" electricity_abs="0"/>
    </tripinfo>
    <tripinfo id="carIn7949:1" depart="57676.00" departLane="128361109#1_1" departPos="5.10" departSpeed="0.00" departDelay="2.10" arrival="57858.00" arrivalLane="386687235_1" arrivalPos="80.84" arrivalSpeed="12.95" duration="182.00" routeLength="2088.57" waitingTime="7.00" waitingCount="2" stopTime="0.00" timeLoss="30.21" rerouteNo="1" devices="tripinfo_carIn7949:1 routing_carIn7949:1 emissions_carIn7949:1" vType="default_016" speedFactor="0.99" vaporized="">
        <emissions CO_abs="5075.512081" CO2_abs="389350.904436" HC_abs="32.145525" PMx_abs="6.107071" NOx_abs="152.148549" fuel_abs="167.365906" electricity_abs="0"/>
    </tripinfo>
    <tripinfo id="h17549c1:1" depart="57680.00" departLane="-447569998#1_1" departPos="5.10" departSpeed="0.00" departDelay="0.00" arrival="57858.00" arrivalLane="-315358254#1_1" arrivalPos="137.16" arrivalSpeed="11.43" duration="178.00" routeLength="1746.60" waitingTime="8.00" waitingCount="1" stopTime="0.00" timeLoss="23.72" rerouteNo="1" devices="tripinfo_h17549c1:1 routing_h17549c1:1 emissions_h17549c1:1" vType="default_016" speedFactor="0.89" vaporized="">
        <emissions CO_abs="5473.114697" CO2_abs="349228.670538" HC_abs="33.000446" PMx_abs="5.482997" NOx_abs="138.233423" fuel_abs="150.119616" electricity_abs="0"/>
    </tripinfo>
    <tripinfo id="h19413c1:1" depart="57685.00" departLane="128361109#1_1" departPos="5.10" departSpeed="0.00" departDelay="5.90" arrival="57860.00" arrivalLane="386687235_2" arrivalPos="80.84" arrivalSpeed="12.41" duration="175.00" routeLength="2088.57" waitingTime="1.00" waitingCount="1" stopTime="0.00" timeLoss="17.80" rerouteNo="1" devices="tripinfo_h19413c1:1 routing_h19413c1:1 emissions_h19413c1:1" vType="default_016" speedFactor="0.96" vaporized="">
        <emissions CO_abs="4257.135064" CO2_abs="383977.400936" HC_abs="28.253876" PMx_abs="5.609366" NOx_abs="147.320088" fuel_abs="165.056058" electricity_abs="0"/>
    </tripinfo>
    <tripinfo id="h4388c1:3" depart="57693.00" departLane="315358254#0_1" departPos="5.10" departSpeed="0.00" departDelay="1.80" arrival="57872.00" arrivalLane="32978638#0_2" arrivalPos="49.29" arrivalSpeed="14.08" duration="179.00" routeLength="2211.33" waitingTime="6.00" waitingCount="1" stopTime="0.00" timeLoss="30.53" rerouteNo="1" devices="tripinfo_h4388c1:3 routing_h4388c1:3 emissions_h4388c1:3" vType="default_016" speedFactor="1.09" vaporized="">
        <emissions CO_abs="5967.146330" CO2_abs="472713.244679" HC_abs="38.209572" PMx_abs="8.218050" NOx_abs="190.002133" fuel_abs="203.198519" electricity_abs="0"/>
    </tripinfo>
    <tripinfo id="randUni15030:1" depart="57735.00" departLane="386687232#0_1" departPos="5.10" departSpeed="0.00" departDelay="0.10" arrival="57873.00" arrivalLane="26677539_1" arrivalPos="151.98" arrivalSpeed="7.95" duration="138.00" routeLength="919.89" waitingTime="36.00" waitingCount="1" stopTime="0.00" timeLoss="55.22" rerouteNo="1" devices="tripinfo_randUni15030:1 routing_randUni15030:1 emissions_randUni15030:1" vType="random_016" speedFactor="1.01" vaporized="">
        <emissions CO_abs="9117.645154" CO2_abs="310803.232698" HC_abs="48.703575" PMx_abs="5.770725" NOx_abs="129.336368" fuel_abs="133.604245" electricity_abs="0"/>
    </tripinfo>
    <tripinfo id="randUni31145:1" depart="57814.00" departLane="10425609#0_1" departPos="5.10" departSpeed="0.00" departDelay="0.30" arrival="57874.00" arrivalLane="201956810_1" arrivalPos="71.65" arrivalSpeed="13.97" duration="60.00" routeLength="255.78" waitingTime="30.00" waitingCount="1" stopTime="0.00" timeLoss="40.05" rerouteNo="1" devices="tripinfo_randUni31145:1 routing_randUni31145:1 emissions_randUni31145:1" vType="random_016" speedFactor="1.02" vaporized="">
        <emissions CO_abs="6144.155386" CO2_abs="180400.453259" HC_abs="32.230054" PMx_abs="3.806698" NOx_abs="78.167897" fuel_abs="77.548333" electricity_abs="0"/>
    </tripinfo>
    <tripinfo id="randUni2407:1" depart="57820.00" departLane="10425609#0_1" departPos="5.10" departSpeed="0.00" departDelay="0.80" arrival="57876.00" arrivalLane="201956810_1" arrivalPos="71.65" arrivalSpeed="15.23" duration="56.00" routeLength="255.78" waitingTime="26.00" waitingCount="1" stopTime="0.00" timeLoss="38.36" rerouteNo="1" devices="tripinfo_randUni2407:1 routing_randUni2407:1 emissions_randUni2407:1" vType="random_016" speedFactor="1.15" vaporized="">
        <emissions CO_abs="5154.051023" CO2_abs="165980.381036" HC_abs="27.372608" PMx_abs="3.478648" NOx_abs="71.612698" fuel_abs="71.349230" electricity_abs="0"/>
    </tripinfo>
    <tripinfo id="h3688c1:1" depart="57625.00" departLane="201201950#1_1" departPos="5.10" departSpeed="0.00" departDelay="0.00" arrival="57877.00" arrivalLane="32978638#0_1" arrivalPos="49.29" arrivalSpeed="10.63" duration="252.00" routeLength="1089.75" waitingTime="134.00" waitingCount="2" stopTime="0.00" timeLoss="152.94" rerouteNo="1" devices="tripinfo_h3688c1:1 routing_h3688c1:1 emissions_h3688c1:1" vType="default_016" speedFactor="0.81" vaporized="">
        <emissions CO_abs="24466.181631" CO2_abs="588804.258931" HC_abs="125.101563" PMx_abs="12.129579" NOx_abs="252.784998" fuel_abs="253.112221" electricity_abs="0"/>
    </tripinfo>
    <tripinfo id="h825c2:3" depart="57690.00" departLane="315358254#0_1" departPos="5.10" departSpeed="0.00" departDelay="0.50" arrival="57877.00" arrivalLane="32978638#0_2" arrivalPos="49.29" arrivalSpeed="14.29" duration="187.00" routeLength="2211.33" waitingTime="7.00" waitingCount="2" stopTime="0.00" timeLoss="32.47" rerouteNo="1" devices="tripinfo_h825c2:3 routing_h825c2:3 emissions_h825c2:3" vType="default_016" speedFactor="1.05" vaporized="">
        <emissions CO_abs="5801.632102" CO2_abs="456695.276788" HC_abs="36.856804" PMx_abs="7.520295" NOx_abs="180.417404" fuel_abs="196.313793" electricity_abs="0"/>
    </tripinfo>
    <tripinfo id="h8343c1:5" depart="57679.00" departLane="315358254#0_1" departPos="5.10" departSpeed="0.00" departDelay="0.60" arrival="57879.00" arrivalLane="-24634510#5_1" arrivalPos="236.88" arrivalSpeed="14.01" duration="200.00" routeLength="2056.84" waitingTime="49.00" waitingCount="2" stopTime="0.00" timeLoss="82.08" rerouteNo="1" devices="tripinfo_h8343c1:5 routing_h8343c1:5 emissions_h8343c1:5" vType="default_016" speedFactor="1.07" vaporized="">
        <emissions CO_abs="14872.944600" CO2_abs="667341.520358" HC_abs="83.624352" PMx_abs="13.512026" NOx_abs="280.116998" fuel_abs="286.863282" electricity_abs="0"/>
    </tripinfo>
    <tripinfo id="h9563c2:5" depart="57631.00" departLane="315358244_1" departPos="5.10" departSpeed="0.00" departDelay="0.70" arrival="57880.00" arrivalLane="386687235_1" arrivalPos="80.84" arrivalSpeed="14.75" duration="249.00" routeLength="1186.14" waitingTime="145.00" waitingCount="4" stopTime="0.00" timeLoss="173.42" rerouteNo="1" devices="tripinfo_h9563c2:5 routing_h9563c2:5 emissions_h9563c2:5" vType="default_016" speedFactor="1.15" vaporized="">
        <emissions CO_abs="26653.171822" CO2_abs="681721.715799" HC_abs="137.349601" PMx_abs="14.836901" NOx_abs="296.022932" fuel_abs="293.052632" electricity_abs="0"/>
    </tripinfo>
    <tripinfo id="50R_frequency3.17" depart="57674.00" departLane="-18809673#6_1" departPos="12.10" departSpeed="0.00" departDelay="0.70" arrival="57880.00" arrivalLane="201956811#0_1" arrivalPos="40.40" arrivalSpeed="12.33" duration="206.00" routeLength="1954.47" waitingTime="35.00" waitingCount="1" stopTime="0.00" timeLoss="61.18" rerouteNo="1" devices="tripinfo_50R_frequency3.17 routing_50R_frequency3.17 emissions_50R_frequency3.17" vType="bus" speedFactor="1.00" vaporized="">
        <emissions CO_abs="4090.017103" CO2_abs="2366074.139415" HC_abs="873.706983" PMx_abs="433.983564" NOx_abs="18892.445615" fuel_abs="1009.038049" electricity_abs="0"/>
    </tripinfo>