<?xml version="1.0" encoding="UTF-8"?>

<!-- generated on 2021-10-26 21:35:39 by Eclipse SUMO sumo Version 1.10.0
<configuration xmlns:xsi="http://www.w3.org/2001/XMLSchema-instance" xsi:noNamespaceSchemaLocation="http://sumo.dlr.de/xsd/sumoConfiguration.xsd">

    <input>
        <net-file value="/Users/behradkoohy/sumo-scratchpad/RESCO/environments/ingolstadt21/ingolstadt21.net.xml"/>
        <route-files value="/Users/behradkoohy/sumo-scratchpad/RESCO/environments/ingolstadt21/ingolstadt21.rou.xml"/>
    </input>

    <output>
        <tripinfo-output value="/Users/behradkoohy/sumo-scratchpad/RESCO/logs/MPLight-tr0-ingolstadt21-21-mplight_full-pressure/tripinfo_60.xml"/>
        <tripinfo-output.write-unfinished value="true"/>
    </output>

    <time>
        <begin value="57600"/>
        <end value="61200"/>
    </time>

    <processing>
        <time-to-teleport value="-1"/>
    </processing>

    <report>
        <no-warnings value="true"/>
        <no-step-log value="true"/>
    </report>

    <emissions>
        <device.emissions.probability value="1"/>
    </emissions>

    <traci_server>
        <remote-port value="65169"/>
    </traci_server>

    <random_number>
        <random value="true"/>
    </random_number>

</configuration>
-->

<tripinfos xmlns:xsi="http://www.w3.org/2001/XMLSchema-instance" xsi:noNamespaceSchemaLocation="http://sumo.dlr.de/xsd/tripinfo_file.xsd">
    <tripinfo id="h15454c2:3" depart="57612.00" departLane="24608844_1" departPos="5.10" departSpeed="0.00" departDelay="0.50" arrival="57651.00" arrivalLane="32978638#0_1" arrivalPos="49.29" arrivalSpeed="13.94" duration="39.00" routeLength="354.79" waitingTime="0.00" waitingCount="0" stopTime="0.00" timeLoss="5.93" rerouteNo="1" devices="tripinfo_h15454c2:3 routing_h15454c2:3 emissions_h15454c2:3" vType="default_016" speedFactor="1.04" vaporized="">
        <emissions CO_abs="1922.200210" CO2_abs="109670.007773" HC_abs="11.319396" PMx_abs="1.950747" NOx_abs="45.193592" fuel_abs="47.142598" electricity_abs="0"/>
    </tripinfo>
    <tripinfo id="carIn53971:1" depart="57640.00" departLane="272042143_1" departPos="5.10" departSpeed="0.00" departDelay="0.80" arrival="57696.00" arrivalLane="24634414#1_1" arrivalPos="162.19" arrivalSpeed="7.02" duration="56.00" routeLength="493.04" waitingTime="0.00" waitingCount="0" stopTime="0.00" timeLoss="8.45" rerouteNo="1" devices="tripinfo_carIn53971:1 routing_carIn53971:1 emissions_carIn53971:1" vType="default_016" speedFactor="0.97" vaporized="">
        <emissions CO_abs="2335.109456" CO2_abs="129977.612015" HC_abs="13.651230" PMx_abs="2.229121" NOx_abs="53.017811" fuel_abs="55.872172" electricity_abs="0"/>
    </tripinfo>
    <tripinfo id="carIn60260:1" depart="57606.00" departLane="315358254#0_1" departPos="5.10" departSpeed="0.00" departDelay="0.90" arrival="57715.00" arrivalLane="399835085#1_1" arrivalPos="212.23" arrivalSpeed="7.83" duration="109.00" routeLength="430.98" waitingTime="52.00" waitingCount="1" stopTime="0.00" timeLoss="60.45" rerouteNo="1" devices="tripinfo_carIn60260:1 routing_carIn60260:1 emissions_carIn60260:1" vType="default_016" speedFactor="0.96" vaporized="">
        <emissions CO_abs="10210.878193" CO2_abs="241998.728717" HC_abs="52.131035" PMx_abs="5.089761" NOx_abs="105.074607" fuel_abs="104.029120" electricity_abs="0"/>
    </tripinfo>
    <tripinfo id="h7800c1:5" depart="57696.00" departLane="-447569998#1_1" departPos="5.10" departSpeed="0.00" departDelay="0.00" arrival="57720.00" arrivalLane="-447569998#1_2" arrivalPos="180.76" arrivalSpeed="8.15" duration="24.00" routeLength="175.66" waitingTime="0.00" waitingCount="0" stopTime="0.00" timeLoss="2.98" rerouteNo="1" devices="tripinfo_h7800c1:5 routing_h7800c1:5 emissions_h7800c1:5" vType="default_016" speedFactor="1.01" vaporized="">
        <emissions CO_abs="1280.508286" CO2_abs="59512.032596" HC_abs="7.201998" PMx_abs="0.992318" NOx_abs="24.328934" fuel_abs="25.582041" electricity_abs="0"/>
    </tripinfo>
    <tripinfo id="h4538c1:1" depart="57701.00" departLane="-10427692#1_1" departPos="5.10" departSpeed="0.00" departDelay="0.00" arrival="57738.00" arrivalLane="-128361102#1_1" arrivalPos="274.68" arrivalSpeed="13.19" duration="37.00" routeLength="440.74" waitingTime="0.00" waitingCount="0" stopTime="0.00" timeLoss="6.29" rerouteNo="1" devices="tripinfo_h4538c1:1 routing_h4538c1:1 emissions_h4538c1:1" vType="default_016" speedFactor="1.03" vaporized="">
        <emissions CO_abs="1593.116486" CO2_abs="106349.727938" HC_abs="9.764854" PMx_abs="1.910867" NOx_abs="43.544148" fuel_abs="45.715129" electricity_abs="0"/>
    </tripinfo>
    <tripinfo id="h3154c1:1" depart="57658.00" departLane="24634507_1" departPos="5.10" departSpeed="0.00" departDelay="0.00" arrival="57768.00" arrivalLane="-266565295#5_1" arrivalPos="172.76" arrivalSpeed="12.89" duration="110.00" routeLength="1206.22" waitingTime="0.00" waitingCount="0" stopTime="0.00" timeLoss="16.93" rerouteNo="1" devices="tripinfo_h3154c1:1 routing_h3154c1:1 emissions_h3154c1:1" vType="default_016" speedFactor="0.96" vaporized="">
        <emissions CO_abs="4350.720625" CO2_abs="293061.425388" HC_abs="26.689864" PMx_abs="5.103418" NOx_abs="119.154263" fuel_abs="125.974569" electricity_abs="0"/>
    </tripinfo>
    <tripinfo id="carIn27009:1" depart="57673.00" departLane="-447569998#1_1" departPos="5.10" departSpeed="0.00" departDelay="0.50" arrival="57768.00" arrivalLane="-26677539_1" arrivalPos="152.75" arrivalSpeed="7.95" duration="95.00" routeLength="699.63" waitingTime="0.00" waitingCount="0" stopTime="0.00" timeLoss="10.69" rerouteNo="1" devices="tripinfo_carIn27009:1 routing_carIn27009:1 emissions_carIn27009:1" vType="default_015" speedFactor="0.99" vaporized="">
        <emissions CO_abs="3507.723562" CO2_abs="167225.671492" HC_abs="19.836376" PMx_abs="2.832008" NOx_abs="68.661074" fuel_abs="71.884038" electricity_abs="0"/>
    </tripinfo>
    <tripinfo id="h5979c1:5" depart="57669.00" departLane="399835085#1_1" departPos="5.10" departSpeed="0.00" departDelay="0.00" arrival="57769.00" arrivalLane="-315358254#1_1" arrivalPos="137.16" arrivalSpeed="12.03" duration="100.00" routeLength="659.33" waitingTime="4.00" waitingCount="1" stopTime="0.00" timeLoss="18.14" rerouteNo="1" devices="tripinfo_h5979c1:5 routing_h5979c1:5 emissions_h5979c1:5" vType="default_016" speedFactor="0.89" vaporized="">
        <emissions CO_abs="4190.131121" CO2_abs="187483.927863" HC_abs="23.374512" PMx_abs="3.010807" NOx_abs="75.766827" fuel_abs="80.592789" electricity_abs="0"/>
    </tripinfo>
    <tripinfo id="h3326c1:2" depart="57656.00" departLane="22716069#0_1" departPos="5.10" departSpeed="0.00" departDelay="0.00" arrival="57774.00" arrivalLane="24634517#13_1" arrivalPos="111.62" arrivalSpeed="12.21" duration="118.00" routeLength="1312.81" waitingTime="0.00" waitingCount="0" stopTime="0.00" timeLoss="14.41" rerouteNo="1" devices="tripinfo_h3326c1:2 routing_h3326c1:2 emissions_h3326c1:2" vType="default_016" speedFactor="0.94" vaporized="">
        <emissions CO_abs="3868.961444" CO2_abs="287987.739426" HC_abs="24.349647" PMx_abs="4.757241" NOx_abs="115.172792" fuel_abs="123.793682" electricity_abs="0"/>
    </tripinfo>
    <tripinfo id="h3568c1:3" depart="57656.00" departLane="266565295#5_1" departPos="5.10" departSpeed="0.00" departDelay="0.80" arrival="57780.00" arrivalLane="-24634415_1" arrivalPos="62.03" arrivalSpeed="12.48" duration="124.00" routeLength="807.40" waitingTime="31.00" waitingCount="2" stopTime="0.00" timeLoss="52.12" rerouteNo="1" devices="tripinfo_h3568c1:3 routing_h3568c1:3 emissions_h3568c1:3" vType="default_016" speedFactor="0.91" vaporized="">
        <emissions CO_abs="9183.224188" CO2_abs="335387.757944" HC_abs="49.689899" PMx_abs="6.565638" NOx_abs="142.148407" fuel_abs="144.171225" electricity_abs="0"/>
    </tripinfo>
    <tripinfo id="h7181c1:1" depart="57660.00" departLane="315358254#0_1" departPos="5.10" departSpeed="0.00" departDelay="0.10" arrival="57790.00" arrivalLane="306240162#0_0" arrivalPos="220.43" arrivalSpeed="17.72" duration="130.00" routeLength="932.35" waitingTime="57.00" waitingCount="2" stopTime="0.00" timeLoss="82.16" rerouteNo="1" devices="tripinfo_h7181c1:1 routing_h7181c1:1 emissions_h7181c1:1" vType="default_016" speedFactor="1.08" vaporized="">
        <emissions CO_abs="13492.393331" CO2_abs="483128.271423" HC_abs="73.019720" PMx_abs="10.539021" NOx_abs="209.176406" fuel_abs="207.678440" electricity_abs="0"/>
    </tripinfo>
    <tripinfo id="h11737c1:1" depart="57665.00" departLane="272042143_1" departPos="5.10" departSpeed="0.00" departDelay="1.50" arrival="57793.00" arrivalLane="-315358254#1_1" arrivalPos="137.16" arrivalSpeed="14.06" duration="128.00" routeLength="1596.88" waitingTime="0.00" waitingCount="0" stopTime="0.00" timeLoss="14.78" rerouteNo="1" devices="tripinfo_h11737c1:1 routing_h11737c1:1 emissions_h11737c1:1" vType="default_016" speedFactor="1.04" vaporized="">
        <emissions CO_abs="4093.757631" CO2_abs="343717.177753" HC_abs="26.680205" PMx_abs="5.674324" NOx_abs="136.281836" fuel_abs="147.749070" electricity_abs="0"/>
    </tripinfo>
    <tripinfo id="h317c2:1" depart="57707.00" departLane="-32978638#0_1" departPos="5.10" departSpeed="0.00" departDelay="0.10" arrival="57795.00" arrivalLane="-266565295#5_1" arrivalPos="172.76" arrivalSpeed="13.14" duration="88.00" routeLength="370.53" waitingTime="51.00" waitingCount="1" stopTime="0.00" timeLoss="60.72" rerouteNo="1" devices="tripinfo_h317c2:1 routing_h317c2:1 emissions_h317c2:1" vType="default_016" speedFactor="1.02" vaporized="">
        <emissions CO_abs="9460.108287" CO2_abs="232964.060986" HC_abs="48.560979" PMx_abs="5.105086" NOx_abs="101.943110" fuel_abs="100.144771" electricity_abs="0"/>
    </tripinfo>
    <tripinfo id="h330c1:1" depart="57736.00" departLane="-32978638#0_1" departPos="5.10" departSpeed="0.00" departDelay="0.20" arrival="57798.00" arrivalLane="-266565295#5_1" arrivalPos="172.76" arrivalSpeed="11.93" duration="62.00" routeLength="370.53" waitingTime="25.00" waitingCount="1" stopTime="0.00" timeLoss="33.02" rerouteNo="1" devices="tripinfo_h330c1:1 routing_h330c1:1 emissions_h330c1:1" vType="default_016" speedFactor="0.95" vaporized="">
        <emissions CO_abs="5110.095306" CO2_abs="159707.901492" HC_abs="27.018169" PMx_abs="3.229143" NOx_abs="68.184480" fuel_abs="68.653217" electricity_abs="0"/>
    </tripinfo>
    <tripinfo id="carIn107282:1" depart="57749.00" departLane="-447569998#1_1" departPos="5.10" departSpeed="0.00" departDelay="0.00" arrival="57799.00" arrivalLane="315358242#0_1" arrivalPos="165.37" arrivalSpeed="12.31" duration="50.00" routeLength="448.50" waitingTime="0.00" waitingCount="0" stopTime="0.00" timeLoss="5.55" rerouteNo="1" devices="tripinfo_carIn107282:1 routing_carIn107282:1 emissions_carIn107282:1" vType="default_016" speedFactor="0.95" vaporized="">
        <emissions CO_abs="2065.732418" CO2_abs="118797.032811" HC_abs="12.147132" PMx_abs="1.891272" NOx_abs="47.401545" fuel_abs="51.066266" electricity_abs="0"/>
    </tripinfo>
    <tripinfo id="carIn126288:1" depart="57674.00" departLane="272042143_1" departPos="5.10" departSpeed="0.00" departDelay="0.00" arrival="57805.00" arrivalLane="-315358254#1_1" arrivalPos="137.16" arrivalSpeed="14.70" duration="131.00" routeLength="1596.88" waitingTime="5.00" waitingCount="1" stopTime="0.00" timeLoss="21.89" rerouteNo="1" devices="tripinfo_carIn126288:1 routing_carIn126288:1 emissions_carIn126288:1" vType="default_016" speedFactor="1.07" vaporized="">
        <emissions CO_abs="3841.560740" CO2_abs="320501.976592" HC_abs="24.742454" PMx_abs="5.238031" NOx_abs="126.202698" fuel_abs="137.769975" electricity_abs="0"/>
    </tripinfo>
    <tripinfo id="carIn48184:1" depart="57613.00" departLane="-306240162#1_0" departPos="5.10" departSpeed="0.00" departDelay="0.70" arrival="57827.00" arrivalLane="386687235_1" arrivalPos="80.84" arrivalSpeed="13.20" duration="214.00" routeLength="2257.41" waitingTime="43.00" waitingCount="2" stopTime="0.00" timeLoss="68.59" rerouteNo="1" devices="tripinfo_carIn48184:1 routing_carIn48184:1 emissions_carIn48184:1" vType="default_016" speedFactor="1.02" vaporized="">
        <emissions CO_abs="12033.436767" CO2_abs="591808.059771" HC_abs="68.748685" PMx_abs="10.994008" NOx_abs="241.338562" fuel_abs="254.395077" electricity_abs="0"/>
    </tripinfo>
    <tripinfo id="carIn129809:1" depart="57729.00" departLane="-447569998#1_1" departPos="5.10" departSpeed="0.00" departDelay="1.00" arrival="57833.00" arrivalLane="-315358244_1" arrivalPos="33.95" arrivalSpeed="15.01" duration="104.00" routeLength="706.49" waitingTime="26.00" waitingCount="2" stopTime="0.00" timeLoss="49.95" rerouteNo="1" devices="tripinfo_carIn129809:1 routing_carIn129809:1 emissions_carIn129809:1" vType="default_015" speedFactor="1.12" vaporized="">
        <emissions CO_abs="6265.148188" CO2_abs="247473.882946" HC_abs="34.217076" PMx_abs="4.708791" NOx_abs="103.160429" fuel_abs="106.380024" electricity_abs="0"/>
    </tripinfo>
    <tripinfo id="carIn121703:1" depart="57647.00" departLane="386687232#0_1" departPos="5.10" departSpeed="0.00" departDelay="0.30" arrival="57835.00" arrivalLane="-315358244_1" arrivalPos="33.95" arrivalSpeed="13.62" duration="188.00" routeLength="1157.39" waitingTime="90.00" waitingCount="2" stopTime="0.00" timeLoss="107.66" rerouteNo="1" devices="tripinfo_carIn121703:1 routing_carIn121703:1 emissions_carIn121703:1" vType="default_016" speedFactor="1.05" vaporized="">
        <emissions CO_abs="16964.286605" CO2_abs="495978.343497" HC_abs="88.920809" PMx_abs="10.246838" NOx_abs="211.732768" fuel_abs="213.205663" electricity_abs="0"/>
    </tripinfo>
    <tripinfo id="h17600c1:1" depart="57662.00" departLane="272042143_1" departPos="5.10" departSpeed="0.00" departDelay="0.30" arrival="57836.00" arrivalLane="201238729#3_1" arrivalPos="431.02" arrivalSpeed="12.33" duration="174.00" routeLength="2100.26" waitingTime="0.00" waitingCount="0" stopTime="0.00" timeLoss="11.70" rerouteNo="1" devices="tripinfo_h17600c1:1 routing_h17600c1:1 emissions_h17600c1:1" vType="default_016" speedFactor="0.94" vaporized="">
        <emissions CO_abs="3522.708965" CO2_abs="350362.596207" HC_abs="24.136007" PMx_abs="4.995173" NOx_abs="133.572210" fuel_abs="150.606326" electricity_abs="0"/>
    </tripinfo>
    <tripinfo id="carIn107084:1" depart="57601.00" departLane="124812856#0_1" departPos="5.10" departSpeed="0.00" departDelay="0.70" arrival="57838.00" arrivalLane="-128361102#1_1" arrivalPos="274.68" arrivalSpeed="12.08" duration="237.00" routeLength="2250.49" waitingTime="44.00" waitingCount="1" stopTime="0.00" timeLoss="64.99" rerouteNo="1" devices="tripinfo_carIn107084:1 routing_carIn107084:1 emissions_carIn107084:1" vType="default_016" speedFactor="0.96" vaporized="">
        <emissions CO_abs="12384.804496" CO2_abs="565152.247911" HC_abs="69.601777" PMx_abs="10.118158" NOx_abs="230.687590" fuel_abs="242.937860" electricity_abs="0"/>
    </tripinfo>
    <tripinfo id="carIn12775:1" depart="57676.00" departLane="10425609#0_1" departPos="5.10" departSpeed="0.00" departDelay="0.60" arrival="57838.00" arrivalLane="18809673#0_1" arrivalPos="473.56" arrivalSpeed="14.59" duration="162.00" routeLength="1959.45" waitingTime="0.00" waitingCount="0" stopTime="0.00" timeLoss="26.39" rerouteNo="1" devices="tripinfo_carIn12775:1 routing_carIn12775:1 emissions_carIn12775:1" vType="default_016" speedFactor="1.07" vaporized="">
        <emissions CO_abs="5457.865226" CO2_abs="438095.992224" HC_abs="35.046858" PMx_abs="7.179499" NOx_abs="173.227598" fuel_abs="188.318712" electricity_abs="0"/>
    </tripinfo>
    <tripinfo id="randUni31145:1" depart="57814.00" departLane="10425609#0_1" departPos="5.10" departSpeed="0.00" departDelay="0.30" arrival="57839.00" arrivalLane="201956810_1" arrivalPos="71.65" arrivalSpeed="14.10" duration="25.00" routeLength="255.78" waitingTime="0.00" waitingCount="0" stopTime="0.00" timeLoss="5.98" rerouteNo="1" devices="tripinfo_randUni31145:1 routing_randUni31145:1 emissions_randUni31145:1" vType="random_016" speedFactor="1.03" vaporized="">
        <emissions CO_abs="1612.634933" CO2_abs="97788.722791" HC_abs="9.653815" PMx_abs="1.807513" NOx_abs="40.565829" fuel_abs="42.035153" electricity_abs="0"/>
    </tripinfo>
    <tripinfo id="h12244c1:3" depart="57612.00" departLane="315358244_1" departPos="5.10" departSpeed="0.00" departDelay="0.40" arrival="57843.00" arrivalLane="386687235_1" arrivalPos="80.84" arrivalSpeed="11.65" duration="231.00" routeLength="1186.14" waitingTime="112.00" waitingCount="3" stopTime="0.00" timeLoss="136.50" rerouteNo="1" devices="tripinfo_h12244c1:3 routing_h12244c1:3 emissions_h12244c1:3" vType="default_016" speedFactor="0.91" vaporized="">
        <emissions CO_abs="20946.542021" CO2_abs="543254.154163" HC_abs="108.084333" PMx_abs="11.261744" NOx_abs="233.320753" fuel_abs="233.529908" electricity_abs="0"/>
    </tripinfo>
    <tripinfo id="h3688c1:1" depart="57625.00" departLane="201201950#1_1" departPos="5.10" departSpeed="0.00" departDelay="0.00" arrival="57845.00" arrivalLane="32978638#0_1" arrivalPos="49.29" arrivalSpeed="12.96" duration="220.00" routeLength="1089.75" waitingTime="120.00" waitingCount="2" stopTime="0.00" timeLoss="136.89" rerouteNo="1" devices="tripinfo_h3688c1:1 routing_h3688c1:1 emissions_h3688c1:1" vType="default_016" speedFactor="0.96" vaporized="">
        <emissions CO_abs="22742.793543" CO2_abs="576314.744146" HC_abs="117.049698" PMx_abs="12.125038" NOx_abs="248.142099" fuel_abs="247.741967" electricity_abs="0"/>
    </tripinfo>
    <tripinfo id="carIn12152:1" depart="57647.00" departLane="24599188#0.94_1" departPos="5.10" departSpeed="0.00" departDelay="0.50" arrival="57846.00" arrivalLane="-315358254#1_1" arrivalPos="137.16" arrivalSpeed="14.46" duration="199.00" routeLength="2034.31" waitingTime="31.00" waitingCount="2" stopTime="0.00" timeLoss="55.07" rerouteNo="1" devices="tripinfo_carIn12152:1 routing_carIn12152:1 emissions_carIn12152:1" vType="default_016" speedFactor="1.10" vaporized="">
        <emissions CO_abs="9791.086449" CO2_abs="508999.335909" HC_abs="56.385459" PMx_abs="9.143768" NOx_abs="206.818926" fuel_abs="218.798695" electricity_abs="0"/>
    </tripinfo>
    <tripinfo id="randUni2407:1" depart="57820.00" departLane="10425609#0_1" departPos="5.10" departSpeed="0.00" departDelay="0.80" arrival="57846.00" arrivalLane="201956810_1" arrivalPos="71.65" arrivalSpeed="13.68" duration="26.00" routeLength="255.78" waitingTime="0.00" waitingCount="0" stopTime="0.00" timeLoss="6.19" rerouteNo="1" devices="tripinfo_randUni2407:1 routing_randUni2407:1 emissions_randUni2407:1" vType="random_016" speedFactor="1.02" vaporized="">
        <emissions CO_abs="1642.379425" CO2_abs="95602.477081" HC_abs="9.741606" PMx_abs="1.805123" NOx_abs="39.991476" fuel_abs="41.095369" electricity_abs="0"/>
    </tripinfo>
    <tripinfo id="carIn86816:1" depart="57617.00" departLane="128361102#0_1" departPos="5.10" departSpeed="0.00" departDelay="0.80" arrival="57847.00" arrivalLane="201956811#0_1" arrivalPos="40.40" arrivalSpeed="13.37" duration="230.00" routeLength="2067.33" waitingTime="46.00" waitingCount="3" stopTime="0.00" timeLoss="78.19" rerouteNo="1" devices="tripinfo_carIn86816:1 routing_carIn86816:1 emissions_carIn86816:1" vType="default_016" speedFactor="1.00" vaporized="">
        <emissions CO_abs="13029.479966" CO2_abs="592515.210877" HC_abs="73.194051" PMx_abs="10.723111" NOx_abs="242.585715" fuel_abs="254.700040" electricity_abs="0"/>
    </tripinfo>
    <tripinfo id="h9563c2:5" depart="57631.00" departLane="315358244_1" departPos="5.10" departSpeed="0.00" departDelay="0.70" arrival="57847.00" arrivalLane="386687235_1" arrivalPos="80.84" arrivalSpeed="11.24" duration="216.00" routeLength="1186.14" waitingTime="88.00" waitingCount="3" stopTime="0.00" timeLoss="111.42" rerouteNo="1" devices="tripinfo_h9563c2:5 routing_h9563c2:5 emissions_h9563c2:5" vType="default_016" speedFactor="0.83" vaporized="">
        <emissions CO_abs="17466.562844" CO2_abs="495111.442354" HC_abs="91.052811" PMx_abs="9.711113" NOx_abs="209.248771" fuel_abs="212.834127" electricity_abs="0"/>
    </tripinfo>
    <tripinfo id="carIn102915:1" depart="57643.00" departLane="128361102#0_1" departPos="5.10" departSpeed="0.00" departDelay="0.40" arrival="57849.00" arrivalLane="201956811#0_1" arrivalPos="40.40" arrivalSpeed="13.62" duration="206.00" routeLength="2067.33" waitingTime="22.00" waitingCount="2" stopTime="0.00" timeLoss="58.90" rerouteNo="1" devices="tripinfo_carIn102915:1 routing_carIn102915:1 emissions_carIn102915:1" vType="default_016" speedFactor="1.03" vaporized="">
        <emissions CO_abs="9956.883570" CO2_abs="551674.717256" HC_abs="58.306129" PMx_abs="9.951868" NOx_abs="225.724560" fuel_abs="237.142427" electricity_abs="0"/>
    </tripinfo>
    <tripinfo id="carIn22761:1" depart="57616.00" departLane="-306240162#1_0" departPos="5.10" departSpeed="0.00" departDelay="2.10" arrival="57851.00" arrivalLane="399835085#1_1" arrivalPos="212.23" arrivalSpeed="5.05" duration="235.00" routeLength="1093.26" waitingTime="120.00" waitingCount="3" stopTime="0.00" timeLoss="150.73" rerouteNo="1" devices="tripinfo_carIn22761:1 routing_carIn22761:1 emissions_carIn22761:1" vType="default_016" speedFactor="0.92" vaporized="">
        <emissions CO_abs="23024.121962" CO2_abs="609371.688520" HC_abs="119.159758" PMx_abs="13.133158" NOx_abs="264.374419" fuel_abs="261.950886" electricity_abs="0"/>
    </tripinfo>
    <tripinfo id="randUni33724:1" depart="57646.00" departLane="128361102#0_1" departPos="5.10" departSpeed="0.00" departDelay="1.20" arrival="57851.00" arrivalLane="201956811#0_1" arrivalPos="40.40" arrivalSpeed="12.76" duration="205.00" routeLength="2067.33" waitingTime="14.00" waitingCount="2" stopTime="0.00" timeLoss="52.75" rerouteNo="1" devices="tripinfo_randUni33724:1 routing_randUni33724:1 emissions_randUni33724:1" vType="random_016" speedFactor="1.00" vaporized="">
        <emissions CO_abs="7676.305558" CO2_abs="505614.059385" HC_abs="46.782306" PMx_abs="8.520690" NOx_abs="202.826675" fuel_abs="217.342529" electricity_abs="0"/>
    </tripinfo>
    <tripinfo id="carIn12858:1" depart="57661.00" departLane="128361109#1_1" departPos="5.10" departSpeed="0.00" departDelay="0.90" arrival="57853.00" arrivalLane="399835085#1_1" arrivalPos="212.23" arrivalSpeed="6.68" duration="192.00" routeLength="1738.12" waitingTime="33.00" waitingCount="3" stopTime="0.00" timeLoss="80.36" rerouteNo="1" devices="tripinfo_carIn12858:1 routing_carIn12858:1 emissions_carIn12858:1" vType="default_016" speedFactor="1.03" vaporized="">
        <emissions CO_abs="11954.027179" CO2_abs="581248.740696" HC_abs="68.269910" PMx_abs="11.536956" NOx_abs="243.192441" fuel_abs="249.854885" electricity_abs="0"/>
    </tripinfo>
    <tripinfo id="50R_frequency3.17" depart="57674.00" departLane="-18809673#6_1" departPos="12.10" departSpeed="0.00" departDelay="0.70" arrival="57872.00" arrivalLane="201956811#0_1" arrivalPos="40.40" arrivalSpeed="11.33" duration="198.00" routeLength="1954.47" waitingTime="24.00" waitingCount="1" stopTime="0.00" timeLoss="53.29" rerouteNo="1" devices="tripinfo_50R_frequency3.17 routing_50R_frequency3.17 emissions_50R_frequency3.17" vType="bus" speedFactor="1.00" vaporized="">
        <emissions CO_abs="3930.738852" CO2_abs="2347613.284300" HC_abs="833.755019" PMx_abs="418.651099" NOx_abs="18530.566081" fuel_abs="1001.190362" electricity_abs="0"/>
    </tripinfo>
    <tripinfo id="h3864c1:3" depart="57678.00" departLane="24693977#1_1" departPos="5.10" departSpeed="0.00" departDelay="0.00" arrival="57880.00" arrivalLane="201956820_1" arrivalPos="48.33" arrivalSpeed="12.78" duration="202.00" routeLength="1574.85" waitingTime="43.00" waitingCount="2" stopTime="0.00" timeLoss="73.04" rerouteNo="1" devices="tripinfo_h3864c1:3 routing_h3864c1:3 emissions_h3864c1:3" vType="default_016" speedFactor="1.00" vaporized="">
        <emissions CO_abs="12259.897424" CO2_abs="522520.988613" HC_abs="68.037636" PMx_abs="9.706137" NOx_abs="216.846435" fuel_abs="224.612290" electricity_abs="0"/>
    </tripinfo>
    <tripinfo id="h825c2:3" depart="57690.00" departLane="315358254#0_1" departPos="5.10" departSpeed="0.00" departDelay="0.50" arrival="57885.00" arrivalLane="32978638#0_1" arrivalPos="49.29" arrivalSpeed="13.54" duration="195.00" routeLength="2207.01" waitingTime="8.00" waitingCount="2" stopTime="0.00" timeLoss="30.75" rerouteNo="1" devices="tripinfo_h825c2:3 routing_h825c2:3 emissions_h825c2:3" vType="default_016" speedFactor="0.98" vaporized="">
        <emissions CO_abs="5277.305971" CO2_abs="434492.097809" HC_abs="34.164725" PMx_abs="6.930888" NOx_abs="170.967020" fuel_abs="186.769696" electricity_abs="0"/>
    </tripinfo>
    <tripinfo id="h4388c1:3" depart="57693.00" departLane="315358254#0_1" departPos="5.10" departSpeed="0.00" departDelay="1.80" arrival="57889.00" arrivalLane="32978638#0_1" arrivalPos="49.29" arrivalSpeed="13.41" duration="196.00" routeLength="2207.01" waitingTime="11.00" waitingCount="2" stopTime="0.00" timeLoss="42.22" rerouteNo="1" devices="tripinfo_h4388c1:3 routing_h4388c1:3 emissions_h4388c1:3" vType="default_016" speedFactor="1.05" vaporized="">
        <emissions CO_abs="6934.147521" CO2_abs="488074.319963" HC_abs="42.925930" PMx_abs="8.357944" NOx_abs="196.051285" fuel_abs="209.802352" electricity_abs="0"/>
    </tripinfo>
    <tripinfo id="h13377c2:3" depart="57804.00" departLane="315358244_1" departPos="5.10" departSpeed="0.00" departDelay="0.60" arrival="57889.00" arrivalLane="447569997#1_1" arrivalPos="180.93" arrivalSpeed="8.84" duration="85.00" routeLength="726.74" waitingTime="6.00" waitingCount="2" stopTime="0.00" timeLoss="24.29" rerouteNo="1" devices="tripinfo_h13377c2:3 routing_h13377c2:3 emissions_h13377c2:3" vType="default_016" speedFactor="1.12" vaporized="">
        <emissions CO_abs="3664.911698" CO2_abs="185888.999370" HC_abs="20.977976" PMx_abs="3.263758" NOx_abs="75.792717" fuel_abs="79.906448" electricity_abs="0"/>
    </tripinfo>
    <tripinfo id="randUni23028:1" depart="57884.00" departLane="124812856#0_1" departPos="5.10" departSpeed="0.00" departDelay="0.10" arrival="57900.00" arrivalLane="201956810_1" arrivalPos="71.65" arrivalSpeed="13.48" duration="16.00" routeLength="134.91" waitingTime="0.00" waitingCount="0" stopTime="0.00" timeLoss="5.42" rerouteNo="1" devices="tripinfo_randUni23028:1 routing_randUni23028:1 emissions_randUni23028:1" vType="random_016" speedFactor="1.00" vaporized="">
        <emissions CO_abs="1478.154515" CO2_abs="74320.797465" HC_abs="8.493064" PMx_abs="1.464530" NOx_abs="31.659177" fuel_abs="31.947357" electricity_abs="0"/>
    </tripinfo>
    <tripinfo id="carIn13443:1" depart="57729.00" departLane="272042143_1" departPos="5.10" departSpeed="0.00" departDelay="0.80" arrival="57906.00" arrivalLane="399835085#1_1" arrivalPos="212.23" arrivalSpeed="7.41" duration="177.00" routeLength="1757.45" waitingTime="6.00" waitingCount="1" stopTime="0.00" timeLoss="26.51" rerouteNo="1" devices="tripinfo_carIn13443:1 routing_carIn13443:1 emissions_carIn13443:1" vType="default_016" speedFactor="0.94" vaporized="">
        <emissions CO_abs="5240.472829" CO2_abs="355210.296262" HC_abs="32.104134" PMx_abs="5.646994" NOx_abs="140.978210" fuel_abs="152.690502" electricity_abs="0"/>
    </tripinfo>
    <tripinfo id="randUni15030:1" depart="57735.00" departLane="386687232#0_1" departPos="5.10" departSpeed="0.00" departDelay="0.10" arrival="57912.00" arrivalLane="26677539_1" arrivalPos="151.98" arrivalSpeed="6.08" duration="177.00" routeLength="919.89" waitingTime="62.00" waitingCount="2" stopTime="0.00" timeLoss="79.52" rerouteNo="1" devices="tripinfo_randUni15030:1 routing_randUni15030:1 emissions_randUni15030:1" vType="random_016" speedFactor="0.85" vaporized="">
        <emissions CO_abs="13485.338534" CO2_abs="369618.761022" HC_abs="69.997015" PMx_abs="7.335904" NOx_abs="157.475842" fuel_abs="158.888619" electricity_abs="0"/>
    </tripinfo>
    <tripinfo id="carIn81681:1" depart="57726.00" departLane="272042143_1" departPos="5.10" departSpeed="0.00" departDelay="0.30" arrival="57916.00" arrivalLane="306240162#0_0" arrivalPos="220.43" arrivalSpeed="14.63" duration="190.00" routeLength="2246.89" waitingTime="8.00" waitingCount="1" stopTime="0.00" timeLoss="28.58" rerouteNo="1" devices="tripinfo_carIn81681:1 routing_carIn81681:1 emissions_carIn81681:1" vType="default_016" speedFactor="0.91" vaporized="">
        <emissions CO_abs="6336.344122" CO2_abs="475455.598300" HC_abs="40.022168" PMx_abs="8.194740" NOx_abs="191.003296" fuel_abs="204.377712" electricity_abs="0"/>
    </tripinfo>
    <tripinfo id="carIn53503:1" depart="57765.00" departLane="-306240162#1_0" departPos="5.10" departSpeed="0.00" departDelay="4.40" arrival="57919.00" arrivalLane="24634510#6_1" arrivalPos="76.64" arrivalSpeed="13.54" duration="154.00" routeLength="1440.47" waitingTime="30.00" waitingCount="1" stopTime="0.00" timeLoss="54.54" rerouteNo="1" devices="tripinfo_carIn53503:1 routing_carIn53503:1 emissions_carIn53503:1" vType="default_016" speedFactor="1.00" vaporized="">
        <emissions CO_abs="9341.047368" CO2_abs="453144.535455" HC_abs="53.086244" PMx_abs="8.361488" NOx_abs="186.007374" fuel_abs="194.789078" electricity_abs="0"/>
    </tripinfo>
    <tripinfo id="carIn7949:1" depart="57676.00" departLane="128361109#1_1" departPos="5.10" departSpeed="0.00" departDelay="2.10" arrival="57921.00" arrivalLane="386687235_1" arrivalPos="80.84" arrivalSpeed="13.36" duration="245.00" routeLength="2088.57" waitingTime="76.00" waitingCount="1" stopTime="0.00" timeLoss="92.60" rerouteNo="1" devices="tripinfo_carIn7949:1 routing_carIn7949:1 emissions_carIn7949:1" vType="default_016" speedFactor="0.99" vaporized="">
        <emissions CO_abs="15654.742295" CO2_abs="554133.055352" HC_abs="84.162037" PMx_abs="10.111412" NOx_abs="226.404271" fuel_abs="238.203937" electricity_abs="0"/>
    </tripinfo>