<?xml version="1.0" encoding="UTF-8"?>

<!-- generated on 2021-10-26 21:16:47 by Eclipse SUMO sumo Version 1.10.0
<configuration xmlns:xsi="http://www.w3.org/2001/XMLSchema-instance" xsi:noNamespaceSchemaLocation="http://sumo.dlr.de/xsd/sumoConfiguration.xsd">

    <input>
        <net-file value="/Users/behradkoohy/sumo-scratchpad/RESCO/environments/ingolstadt21/ingolstadt21.net.xml"/>
        <route-files value="/Users/behradkoohy/sumo-scratchpad/RESCO/environments/ingolstadt21/ingolstadt21.rou.xml"/>
    </input>

    <output>
        <tripinfo-output value="/Users/behradkoohy/sumo-scratchpad/RESCO/logs/MPLight-tr0-ingolstadt21-21-mplight_full-pressure/tripinfo_43.xml"/>
        <tripinfo-output.write-unfinished value="true"/>
    </output>

    <time>
        <begin value="57600"/>
        <end value="61200"/>
    </time>

    <processing>
        <time-to-teleport value="-1"/>
    </processing>

    <report>
        <no-warnings value="true"/>
        <no-step-log value="true"/>
    </report>

    <emissions>
        <device.emissions.probability value="1"/>
    </emissions>

    <traci_server>
        <remote-port value="64879"/>
    </traci_server>

    <random_number>
        <random value="true"/>
    </random_number>

</configuration>
-->

<tripinfos xmlns:xsi="http://www.w3.org/2001/XMLSchema-instance" xsi:noNamespaceSchemaLocation="http://sumo.dlr.de/xsd/tripinfo_file.xsd">
    <tripinfo id="h15454c2:3" depart="57612.00" departLane="24608844_1" departPos="5.10" departSpeed="0.00" departDelay="0.50" arrival="57647.00" arrivalLane="32978638#0_1" arrivalPos="49.29" arrivalSpeed="14.65" duration="35.00" routeLength="354.79" waitingTime="0.00" waitingCount="0" stopTime="0.00" timeLoss="4.62" rerouteNo="1" devices="tripinfo_h15454c2:3 routing_h15454c2:3 emissions_h15454c2:3" vType="default_016" speedFactor="1.15" vaporized="">
        <emissions CO_abs="1579.832943" CO2_abs="96466.270051" HC_abs="9.465610" PMx_abs="1.737004" NOx_abs="39.656082" fuel_abs="41.466755" electricity_abs="0"/>
    </tripinfo>
    <tripinfo id="carIn60260:1" depart="57606.00" departLane="315358254#0_1" departPos="5.10" departSpeed="0.00" departDelay="0.90" arrival="57661.00" arrivalLane="399835085#1_1" arrivalPos="212.23" arrivalSpeed="7.40" duration="55.00" routeLength="430.98" waitingTime="0.00" waitingCount="0" stopTime="0.00" timeLoss="7.46" rerouteNo="1" devices="tripinfo_carIn60260:1 routing_carIn60260:1 emissions_carIn60260:1" vType="default_016" speedFactor="0.97" vaporized="">
        <emissions CO_abs="2284.175114" CO2_abs="114378.794515" HC_abs="13.020457" PMx_abs="1.780482" NOx_abs="45.733597" fuel_abs="49.167313" electricity_abs="0"/>
    </tripinfo>
    <tripinfo id="carIn53971:1" depart="57640.00" departLane="272042143_1" departPos="5.10" departSpeed="0.00" departDelay="0.80" arrival="57703.00" arrivalLane="24634414#1_1" arrivalPos="162.19" arrivalSpeed="6.48" duration="63.00" routeLength="493.04" waitingTime="0.00" waitingCount="0" stopTime="0.00" timeLoss="8.22" rerouteNo="1" devices="tripinfo_carIn53971:1 routing_carIn53971:1 emissions_carIn53971:1" vType="default_016" speedFactor="0.84" vaporized="">
        <emissions CO_abs="2623.549379" CO2_abs="129373.807372" HC_abs="14.932786" PMx_abs="2.145501" NOx_abs="52.618695" fuel_abs="55.612957" electricity_abs="0"/>
    </tripinfo>
    <tripinfo id="h7800c1:5" depart="57696.00" departLane="-447569998#1_1" departPos="5.10" departSpeed="0.00" departDelay="0.00" arrival="57725.00" arrivalLane="-447569998#1_2" arrivalPos="180.76" arrivalSpeed="3.31" duration="29.00" routeLength="175.66" waitingTime="1.00" waitingCount="1" stopTime="0.00" timeLoss="9.23" rerouteNo="1" devices="tripinfo_h7800c1:5 routing_h7800c1:5 emissions_h7800c1:5" vType="default_016" speedFactor="1.08" vaporized="">
        <emissions CO_abs="1429.522963" CO2_abs="58719.366887" HC_abs="7.858745" PMx_abs="0.985499" NOx_abs="24.025161" fuel_abs="25.241437" electricity_abs="0"/>
    </tripinfo>
    <tripinfo id="h3688c1:1" depart="57625.00" departLane="201201950#1_1" departPos="5.10" departSpeed="0.00" departDelay="0.00" arrival="57735.00" arrivalLane="32978638#0_1" arrivalPos="49.29" arrivalSpeed="11.07" duration="110.00" routeLength="1089.75" waitingTime="1.00" waitingCount="1" stopTime="0.00" timeLoss="16.39" rerouteNo="1" devices="tripinfo_h3688c1:1 routing_h3688c1:1 emissions_h3688c1:1" vType="default_016" speedFactor="0.85" vaporized="">
        <emissions CO_abs="3669.923418" CO2_abs="244879.888143" HC_abs="22.390163" PMx_abs="3.909859" NOx_abs="97.568142" fuel_abs="105.263929" electricity_abs="0"/>
    </tripinfo>
    <tripinfo id="h4538c1:1" depart="57701.00" departLane="-10427692#1_1" departPos="5.10" departSpeed="0.00" departDelay="0.00" arrival="57738.00" arrivalLane="-128361102#1_1" arrivalPos="274.68" arrivalSpeed="13.69" duration="37.00" routeLength="440.74" waitingTime="0.00" waitingCount="0" stopTime="0.00" timeLoss="6.80" rerouteNo="1" devices="tripinfo_h4538c1:1 routing_h4538c1:1 emissions_h4538c1:1" vType="default_016" speedFactor="1.04" vaporized="">
        <emissions CO_abs="1476.357209" CO2_abs="102820.882072" HC_abs="9.119231" PMx_abs="1.772963" NOx_abs="41.451595" fuel_abs="44.198304" electricity_abs="0"/>
    </tripinfo>
    <tripinfo id="h5979c1:5" depart="57669.00" departLane="399835085#1_1" departPos="5.10" departSpeed="0.00" departDelay="0.00" arrival="57746.00" arrivalLane="-315358254#1_1" arrivalPos="137.16" arrivalSpeed="15.97" duration="77.00" routeLength="659.33" waitingTime="0.00" waitingCount="0" stopTime="0.00" timeLoss="15.23" rerouteNo="1" devices="tripinfo_h5979c1:5 routing_h5979c1:5 emissions_h5979c1:5" vType="default_016" speedFactor="1.18" vaporized="">
        <emissions CO_abs="3399.035948" CO2_abs="184618.665640" HC_abs="19.782805" PMx_abs="3.208349" NOx_abs="75.722916" fuel_abs="79.360167" electricity_abs="0"/>
    </tripinfo>
    <tripinfo id="carIn121703:1" depart="57647.00" departLane="386687232#0_1" departPos="5.10" departSpeed="0.00" departDelay="0.30" arrival="57764.00" arrivalLane="-315358244_1" arrivalPos="33.95" arrivalSpeed="12.14" duration="117.00" routeLength="1157.39" waitingTime="8.00" waitingCount="1" stopTime="0.00" timeLoss="23.39" rerouteNo="1" devices="tripinfo_carIn121703:1 routing_carIn121703:1 emissions_carIn121703:1" vType="default_016" speedFactor="0.90" vaporized="">
        <emissions CO_abs="3507.268629" CO2_abs="243403.146193" HC_abs="21.630971" PMx_abs="3.918033" NOx_abs="96.835523" fuel_abs="104.629005" electricity_abs="0"/>
    </tripinfo>
    <tripinfo id="h3154c1:1" depart="57658.00" departLane="24634507_1" departPos="5.10" departSpeed="0.00" departDelay="0.00" arrival="57764.00" arrivalLane="-266565295#5_1" arrivalPos="172.76" arrivalSpeed="12.01" duration="106.00" routeLength="1206.22" waitingTime="0.00" waitingCount="0" stopTime="0.00" timeLoss="12.61" rerouteNo="1" devices="tripinfo_h3154c1:1 routing_h3154c1:1 emissions_h3154c1:1" vType="default_016" speedFactor="0.95" vaporized="">
        <emissions CO_abs="3508.985709" CO2_abs="260300.323044" HC_abs="22.065167" PMx_abs="4.307210" NOx_abs="104.089468" fuel_abs="111.892044" electricity_abs="0"/>
    </tripinfo>
    <tripinfo id="h3326c1:2" depart="57656.00" departLane="22716069#0_1" departPos="5.10" departSpeed="0.00" departDelay="0.00" arrival="57770.00" arrivalLane="24634517#13_1" arrivalPos="111.62" arrivalSpeed="13.19" duration="114.00" routeLength="1312.81" waitingTime="0.00" waitingCount="0" stopTime="0.00" timeLoss="15.54" rerouteNo="1" devices="tripinfo_h3326c1:2 routing_h3326c1:2 emissions_h3326c1:2" vType="default_016" speedFactor="0.99" vaporized="">
        <emissions CO_abs="4079.612699" CO2_abs="304475.052012" HC_abs="25.653324" PMx_abs="5.090392" NOx_abs="121.874054" fuel_abs="130.880793" electricity_abs="0"/>
    </tripinfo>
    <tripinfo id="h3568c1:3" depart="57656.00" departLane="266565295#5_1" departPos="5.10" departSpeed="0.00" departDelay="0.80" arrival="57772.00" arrivalLane="-24634415_1" arrivalPos="62.03" arrivalSpeed="10.88" duration="116.00" routeLength="807.40" waitingTime="22.00" waitingCount="1" stopTime="0.00" timeLoss="39.92" rerouteNo="1" devices="tripinfo_h3568c1:3 routing_h3568c1:3 emissions_h3568c1:3" vType="default_016" speedFactor="0.85" vaporized="">
        <emissions CO_abs="6743.906422" CO2_abs="262738.257291" HC_abs="36.839100" PMx_abs="4.878400" NOx_abs="109.669014" fuel_abs="112.941815" electricity_abs="0"/>
    </tripinfo>
    <tripinfo id="carIn27009:1" depart="57673.00" departLane="-447569998#1_1" departPos="5.10" departSpeed="0.00" departDelay="0.50" arrival="57791.00" arrivalLane="-26677539_1" arrivalPos="152.75" arrivalSpeed="7.72" duration="118.00" routeLength="699.63" waitingTime="24.00" waitingCount="1" stopTime="0.00" timeLoss="38.22" rerouteNo="1" devices="tripinfo_carIn27009:1 routing_carIn27009:1 emissions_carIn27009:1" vType="default_015" speedFactor="1.05" vaporized="">
        <emissions CO_abs="7222.323951" CO2_abs="246555.261878" HC_abs="38.579684" PMx_abs="4.453274" NOx_abs="102.696608" fuel_abs="105.986216" electricity_abs="0"/>
    </tripinfo>
    <tripinfo id="carIn107282:1" depart="57749.00" departLane="-447569998#1_1" departPos="5.10" departSpeed="0.00" departDelay="0.00" arrival="57794.00" arrivalLane="315358242#0_1" arrivalPos="165.37" arrivalSpeed="13.63" duration="45.00" routeLength="448.50" waitingTime="0.00" waitingCount="0" stopTime="0.00" timeLoss="5.18" rerouteNo="1" devices="tripinfo_carIn107282:1 routing_carIn107282:1 emissions_carIn107282:1" vType="default_016" speedFactor="1.06" vaporized="">
        <emissions CO_abs="1908.838507" CO2_abs="116463.127778" HC_abs="11.406776" PMx_abs="1.950613" NOx_abs="46.903377" fuel_abs="50.062783" electricity_abs="0"/>
    </tripinfo>
    <tripinfo id="h11737c1:1" depart="57665.00" departLane="272042143_1" departPos="5.10" departSpeed="0.00" departDelay="1.50" arrival="57807.00" arrivalLane="-315358254#1_1" arrivalPos="137.16" arrivalSpeed="12.44" duration="142.00" routeLength="1596.88" waitingTime="1.00" waitingCount="1" stopTime="0.00" timeLoss="22.15" rerouteNo="1" devices="tripinfo_h11737c1:1 routing_h11737c1:1 emissions_h11737c1:1" vType="default_016" speedFactor="0.97" vaporized="">
        <emissions CO_abs="4549.498330" CO2_abs="342753.907536" HC_abs="28.680029" PMx_abs="5.444676" NOx_abs="135.000103" fuel_abs="147.335680" electricity_abs="0"/>
    </tripinfo>
    <tripinfo id="carIn126288:1" depart="57674.00" departLane="272042143_1" departPos="5.10" departSpeed="0.00" departDelay="0.00" arrival="57808.00" arrivalLane="-315358254#1_1" arrivalPos="137.16" arrivalSpeed="14.80" duration="134.00" routeLength="1596.88" waitingTime="0.00" waitingCount="0" stopTime="0.00" timeLoss="30.69" rerouteNo="1" devices="tripinfo_carIn126288:1 routing_carIn126288:1 emissions_carIn126288:1" vType="default_016" speedFactor="1.12" vaporized="">
        <emissions CO_abs="5299.413551" CO2_abs="388705.654812" HC_abs="33.264698" PMx_abs="6.652083" NOx_abs="155.995847" fuel_abs="167.087841" electricity_abs="0"/>
    </tripinfo>
    <tripinfo id="carIn30817:1" depart="57681.00" departLane="315358244_1" departPos="5.10" departSpeed="0.00" departDelay="0.20" arrival="57809.00" arrivalLane="447569997#1_1" arrivalPos="180.93" arrivalSpeed="9.87" duration="128.00" routeLength="718.04" waitingTime="54.00" waitingCount="2" stopTime="0.00" timeLoss="77.96" rerouteNo="1" devices="tripinfo_carIn30817:1 routing_carIn30817:1 emissions_carIn30817:1" vType="default_016" speedFactor="1.25" vaporized="">
        <emissions CO_abs="10697.917940" CO2_abs="326487.083920" HC_abs="56.403568" PMx_abs="6.754825" NOx_abs="140.118223" fuel_abs="140.346155" electricity_abs="0"/>
    </tripinfo>
    <tripinfo id="h3864c1:3" depart="57678.00" departLane="24693977#1_1" departPos="5.10" departSpeed="0.00" departDelay="0.00" arrival="57819.00" arrivalLane="201956820_1" arrivalPos="48.33" arrivalSpeed="14.19" duration="141.00" routeLength="1574.85" waitingTime="1.00" waitingCount="1" stopTime="0.00" timeLoss="25.21" rerouteNo="1" devices="tripinfo_h3864c1:3 routing_h3864c1:3 emissions_h3864c1:3" vType="default_016" speedFactor="1.11" vaporized="">
        <emissions CO_abs="6252.618493" CO2_abs="418497.015994" HC_abs="38.305194" PMx_abs="7.430412" NOx_abs="170.735935" fuel_abs="179.893811" electricity_abs="0"/>
    </tripinfo>
    <tripinfo id="h15382c1:3" depart="57626.00" departLane="124812856#0_1" departPos="5.10" departSpeed="0.00" departDelay="3.80" arrival="57820.00" arrivalLane="-128361102#1_1" arrivalPos="274.68" arrivalSpeed="15.60" duration="194.00" routeLength="2232.46" waitingTime="13.00" waitingCount="1" stopTime="0.00" timeLoss="53.29" rerouteNo="1" devices="tripinfo_h15382c1:3 routing_h15382c1:3 emissions_h15382c1:3" vType="default_016" speedFactor="1.16" vaporized="">
        <emissions CO_abs="8680.156478" CO2_abs="585716.222126" HC_abs="53.281709" PMx_abs="10.608246" NOx_abs="238.398049" fuel_abs="251.773937" electricity_abs="0"/>
    </tripinfo>
    <tripinfo id="carIn86816:1" depart="57617.00" departLane="128361102#0_1" departPos="5.10" departSpeed="0.00" departDelay="0.80" arrival="57831.00" arrivalLane="201956811#0_1" arrivalPos="40.40" arrivalSpeed="14.28" duration="214.00" routeLength="2067.33" waitingTime="45.00" waitingCount="2" stopTime="0.00" timeLoss="71.58" rerouteNo="1" devices="tripinfo_carIn86816:1 routing_carIn86816:1 emissions_carIn86816:1" vType="default_016" speedFactor="1.06" vaporized="">
        <emissions CO_abs="12463.396942" CO2_abs="561419.627844" HC_abs="69.913248" PMx_abs="10.583937" NOx_abs="232.299635" fuel_abs="241.332690" electricity_abs="0"/>
    </tripinfo>
    <tripinfo id="h317c2:1" depart="57707.00" departLane="-32978638#0_1" departPos="5.10" departSpeed="0.00" departDelay="0.10" arrival="57835.00" arrivalLane="-266565295#5_1" arrivalPos="172.76" arrivalSpeed="13.85" duration="128.00" routeLength="370.53" waitingTime="91.00" waitingCount="1" stopTime="0.00" timeLoss="100.33" rerouteNo="1" devices="tripinfo_h317c2:1 routing_h317c2:1 emissions_h317c2:1" vType="default_016" speedFactor="1.00" vaporized="">
        <emissions CO_abs="16161.906477" CO2_abs="344572.296332" HC_abs="81.691472" PMx_abs="7.875616" NOx_abs="152.888285" fuel_abs="148.123405" electricity_abs="0"/>
    </tripinfo>
    <tripinfo id="h330c1:1" depart="57736.00" departLane="-32978638#0_1" departPos="5.10" departSpeed="0.00" departDelay="0.20" arrival="57837.00" arrivalLane="-266565295#5_1" arrivalPos="172.76" arrivalSpeed="14.36" duration="101.00" routeLength="370.53" waitingTime="63.00" waitingCount="1" stopTime="0.00" timeLoss="75.75" rerouteNo="1" devices="tripinfo_h330c1:1 routing_h330c1:1 emissions_h330c1:1" vType="default_016" speedFactor="1.11" vaporized="">
        <emissions CO_abs="12276.011220" CO2_abs="288163.993376" HC_abs="62.663744" PMx_abs="6.513100" NOx_abs="127.456650" fuel_abs="123.873860" electricity_abs="0"/>
    </tripinfo>
    <tripinfo id="h645c1:1" depart="57622.00" departLane="266565295#5_1" departPos="5.10" departSpeed="0.00" departDelay="0.40" arrival="57843.00" arrivalLane="-315358244_2" arrivalPos="33.95" arrivalSpeed="13.43" duration="221.00" routeLength="1910.83" waitingTime="46.00" waitingCount="3" stopTime="0.00" timeLoss="82.02" rerouteNo="1" devices="tripinfo_h645c1:1 routing_h645c1:1 emissions_h645c1:1" vType="default_016" speedFactor="0.99" vaporized="">
        <emissions CO_abs="11565.236776" CO2_abs="536126.031015" HC_abs="65.195385" PMx_abs="9.604389" NOx_abs="219.002661" fuel_abs="230.460394" electricity_abs="0"/>
    </tripinfo>
    <tripinfo id="carIn129809:1" depart="57729.00" departLane="-447569998#1_1" departPos="5.10" departSpeed="0.00" departDelay="1.00" arrival="57843.00" arrivalLane="-315358244_1" arrivalPos="33.95" arrivalSpeed="15.16" duration="114.00" routeLength="706.49" waitingTime="41.00" waitingCount="2" stopTime="0.00" timeLoss="58.63" rerouteNo="1" devices="tripinfo_carIn129809:1 routing_carIn129809:1 emissions_carIn129809:1" vType="default_015" speedFactor="1.10" vaporized="">
        <emissions CO_abs="8710.609634" CO2_abs="277328.287094" HC_abs="46.157546" PMx_abs="5.637153" NOx_abs="118.333884" fuel_abs="119.214220" electricity_abs="0"/>
    </tripinfo>
    <tripinfo id="carIn118538:1" depart="57683.00" departLane="-447569998#1_1" departPos="5.10" departSpeed="0.00" departDelay="1.00" arrival="57846.00" arrivalLane="399835085#1_1" arrivalPos="212.23" arrivalSpeed="10.74" duration="163.00" routeLength="1907.17" waitingTime="7.00" waitingCount="1" stopTime="0.00" timeLoss="37.72" rerouteNo="1" devices="tripinfo_carIn118538:1 routing_carIn118538:1 emissions_carIn118538:1" vType="default_016" speedFactor="1.30" vaporized="">
        <emissions CO_abs="5678.637695" CO2_abs="398081.121037" HC_abs="35.036308" PMx_abs="6.822456" NOx_abs="158.316900" fuel_abs="171.118271" electricity_abs="0"/>
    </tripinfo>
    <tripinfo id="carIn12152:1" depart="57647.00" departLane="24599188#0.94_1" departPos="5.10" departSpeed="0.00" departDelay="0.50" arrival="57856.00" arrivalLane="-315358254#1_1" arrivalPos="137.16" arrivalSpeed="13.34" duration="209.00" routeLength="2034.31" waitingTime="28.00" waitingCount="2" stopTime="0.00" timeLoss="57.04" rerouteNo="1" devices="tripinfo_carIn12152:1 routing_carIn12152:1 emissions_carIn12152:1" vType="default_016" speedFactor="1.04" vaporized="">
        <emissions CO_abs="8669.196759" CO2_abs="468588.140959" HC_abs="50.451263" PMx_abs="8.386366" NOx_abs="191.219743" fuel_abs="201.427189" electricity_abs="0"/>
    </tripinfo>
    <tripinfo id="carIn22761:1" depart="57616.00" departLane="-306240162#1_0" departPos="5.10" departSpeed="0.00" departDelay="2.10" arrival="57858.00" arrivalLane="399835085#1_1" arrivalPos="212.23" arrivalSpeed="9.52" duration="242.00" routeLength="1093.26" waitingTime="138.00" waitingCount="3" stopTime="0.00" timeLoss="176.10" rerouteNo="1" devices="tripinfo_carIn22761:1 routing_carIn22761:1 emissions_carIn22761:1" vType="default_016" speedFactor="1.19" vaporized="">
        <emissions CO_abs="26503.766451" CO2_abs="700365.157459" HC_abs="137.284801" PMx_abs="15.473318" NOx_abs="305.508005" fuel_abs="301.065840" electricity_abs="0"/>
    </tripinfo>
    <tripinfo id="randUni15030:1" depart="57735.00" departLane="386687232#0_1" departPos="5.10" departSpeed="0.00" departDelay="0.10" arrival="57860.00" arrivalLane="26677539_1" arrivalPos="151.98" arrivalSpeed="7.11" duration="125.00" routeLength="919.89" waitingTime="25.00" waitingCount="1" stopTime="0.00" timeLoss="40.55" rerouteNo="1" devices="tripinfo_randUni15030:1 routing_randUni15030:1 emissions_randUni15030:1" vType="random_016" speedFactor="0.99" vaporized="">
        <emissions CO_abs="7291.617025" CO2_abs="281678.635982" HC_abs="39.741122" PMx_abs="5.114026" NOx_abs="116.360167" fuel_abs="121.083884" electricity_abs="0"/>
    </tripinfo>
    <tripinfo id="h7181c1:1" depart="57660.00" departLane="315358254#0_1" departPos="5.10" departSpeed="0.00" departDelay="0.10" arrival="57861.00" arrivalLane="306240162#0_0" arrivalPos="220.43" arrivalSpeed="16.47" duration="201.00" routeLength="932.35" waitingTime="124.00" waitingCount="3" stopTime="0.00" timeLoss="151.46" rerouteNo="1" devices="tripinfo_h7181c1:1 routing_h7181c1:1 emissions_h7181c1:1" vType="default_016" speedFactor="1.05" vaporized="">
        <emissions CO_abs="23924.527219" CO2_abs="642074.270700" HC_abs="124.130203" PMx_abs="14.368109" NOx_abs="280.761858" fuel_abs="276.007785" electricity_abs="0"/>
    </tripinfo>
    <tripinfo id="carIn81860:1" depart="57712.00" departLane="128361102#0_1" departPos="5.10" departSpeed="0.00" departDelay="0.60" arrival="57862.00" arrivalLane="-24634517#17_1" arrivalPos="6.43" arrivalSpeed="7.52" duration="150.00" routeLength="1229.64" waitingTime="39.00" waitingCount="2" stopTime="0.00" timeLoss="64.30" rerouteNo="1" devices="tripinfo_carIn81860:1 routing_carIn81860:1 emissions_carIn81860:1" vType="default_016" speedFactor="1.06" vaporized="">
        <emissions CO_abs="9804.481301" CO2_abs="400864.549698" HC_abs="53.995797" PMx_abs="7.559578" NOx_abs="166.172492" fuel_abs="172.316979" electricity_abs="0"/>
    </tripinfo>
    <tripinfo id="h17600c1:1" depart="57662.00" departLane="272042143_1" departPos="5.10" departSpeed="0.00" departDelay="0.30" arrival="57863.00" arrivalLane="201238729#3_1" arrivalPos="431.02" arrivalSpeed="12.87" duration="201.00" routeLength="2100.26" waitingTime="22.00" waitingCount="2" stopTime="0.00" timeLoss="46.59" rerouteNo="1" devices="tripinfo_h17600c1:1 routing_h17600c1:1 emissions_h17600c1:1" vType="default_016" speedFactor="0.98" vaporized="">
        <emissions CO_abs="7302.044617" CO2_abs="445125.218556" HC_abs="43.606528" PMx_abs="7.312972" NOx_abs="176.631125" fuel_abs="191.341708" electricity_abs="0"/>
    </tripinfo>
    <tripinfo id="h12244c1:3" depart="57612.00" departLane="315358244_1" departPos="5.10" departSpeed="0.00" departDelay="0.40" arrival="57869.00" arrivalLane="386687235_1" arrivalPos="80.84" arrivalSpeed="12.74" duration="257.00" routeLength="1186.14" waitingTime="144.00" waitingCount="3" stopTime="0.00" timeLoss="169.11" rerouteNo="1" devices="tripinfo_h12244c1:3 routing_h12244c1:3 emissions_h12244c1:3" vType="default_016" speedFactor="0.98" vaporized="">
        <emissions CO_abs="26026.724467" CO2_abs="659690.450577" HC_abs="133.941122" PMx_abs="13.886579" NOx_abs="284.121290" fuel_abs="283.582882" electricity_abs="0"/>
    </tripinfo>
    <tripinfo id="h9563c2:5" depart="57631.00" departLane="315358244_1" departPos="5.10" departSpeed="0.00" departDelay="0.70" arrival="57871.00" arrivalLane="386687235_1" arrivalPos="80.84" arrivalSpeed="13.03" duration="240.00" routeLength="1186.14" waitingTime="122.00" waitingCount="3" stopTime="0.00" timeLoss="154.75" rerouteNo="1" devices="tripinfo_h9563c2:5 routing_h9563c2:5 emissions_h9563c2:5" vType="default_016" speedFactor="1.01" vaporized="">
        <emissions CO_abs="23488.515995" CO2_abs="631175.384612" HC_abs="121.773016" PMx_abs="13.259404" NOx_abs="272.140381" fuel_abs="271.323823" electricity_abs="0"/>
    </tripinfo>
    <tripinfo id="randUni31145:1" depart="57821.00" departLane="10425609#0_1" departPos="5.10" departSpeed="0.00" departDelay="7.30" arrival="57871.00" arrivalLane="201956810_1" arrivalPos="71.65" arrivalSpeed="13.50" duration="50.00" routeLength="255.78" waitingTime="16.00" waitingCount="2" stopTime="0.00" timeLoss="30.94" rerouteNo="1" devices="tripinfo_randUni31145:1 routing_randUni31145:1 emissions_randUni31145:1" vType="random_016" speedFactor="1.02" vaporized="">
        <emissions CO_abs="4031.777532" CO2_abs="148380.843441" HC_abs="21.873551" PMx_abs="3.068284" NOx_abs="64.029576" fuel_abs="63.783343" electricity_abs="0"/>
    </tripinfo>
    <tripinfo id="carIn53503:1" depart="57765.00" departLane="-306240162#1_0" departPos="5.10" departSpeed="0.00" departDelay="4.40" arrival="57872.00" arrivalLane="24634510#6_1" arrivalPos="76.64" arrivalSpeed="15.71" duration="107.00" routeLength="1440.47" waitingTime="0.00" waitingCount="0" stopTime="0.00" timeLoss="20.74" rerouteNo="1" devices="tripinfo_carIn53503:1 routing_carIn53503:1 emissions_carIn53503:1" vType="default_016" speedFactor="1.15" vaporized="">
        <emissions CO_abs="5024.461480" CO2_abs="362375.421016" HC_abs="31.490011" PMx_abs="6.808588" NOx_abs="149.018509" fuel_abs="155.768781" electricity_abs="0"/>
    </tripinfo>
    <tripinfo id="carIn50326:1" depart="57651.00" departLane="128361102#0_1" departPos="5.10" departSpeed="0.00" departDelay="0.30" arrival="57873.00" arrivalLane="18809673#0_1" arrivalPos="473.56" arrivalSpeed="13.22" duration="222.00" routeLength="1591.07" waitingTime="68.00" waitingCount="2" stopTime="0.00" timeLoss="95.51" rerouteNo="1" devices="tripinfo_carIn50326:1 routing_carIn50326:1 emissions_carIn50326:1" vType="default_016" speedFactor="1.03" vaporized="">
        <emissions CO_abs="14646.310728" CO2_abs="511345.071997" HC_abs="78.553522" PMx_abs="9.597765" NOx_abs="212.225549" fuel_abs="219.810353" electricity_abs="0"/>
    </tripinfo>
    <tripinfo id="carIn82278:1" depart="57702.00" departLane="-306240162#1_0" departPos="5.10" departSpeed="0.00" departDelay="0.70" arrival="57873.00" arrivalLane="399835085#1_1" arrivalPos="212.23" arrivalSpeed="6.53" duration="171.00" routeLength="1093.26" waitingTime="50.00" waitingCount="2" stopTime="0.00" timeLoss="79.56" rerouteNo="1" devices="tripinfo_carIn82278:1 routing_carIn82278:1 emissions_carIn82278:1" vType="default_016" speedFactor="0.86" vaporized="">
        <emissions CO_abs="12696.485268" CO2_abs="433185.286866" HC_abs="67.994178" PMx_abs="8.579377" NOx_abs="183.113257" fuel_abs="186.211572" electricity_abs="0"/>
    </tripinfo>
    <tripinfo id="randUni2407:1" depart="57822.00" departLane="10425609#0_1" departPos="5.10" departSpeed="0.00" departDelay="2.80" arrival="57874.00" arrivalLane="201956810_1" arrivalPos="71.65" arrivalSpeed="13.18" duration="52.00" routeLength="255.78" waitingTime="15.00" waitingCount="2" stopTime="0.00" timeLoss="31.76" rerouteNo="1" devices="tripinfo_randUni2407:1 routing_randUni2407:1 emissions_randUni2407:1" vType="random_016" speedFactor="0.99" vaporized="">
        <emissions CO_abs="3995.072339" CO2_abs="144214.705087" HC_abs="21.595203" PMx_abs="2.934356" NOx_abs="61.986898" fuel_abs="61.992608" electricity_abs="0"/>
    </tripinfo>
    <tripinfo id="carIn12858:1" depart="57661.00" departLane="128361109#1_1" departPos="5.10" departSpeed="0.00" departDelay="0.90" arrival="57875.00" arrivalLane="399835085#1_1" arrivalPos="212.23" arrivalSpeed="7.46" duration="214.00" routeLength="1738.12" waitingTime="48.00" waitingCount="4" stopTime="0.00" timeLoss="96.80" rerouteNo="1" devices="tripinfo_carIn12858:1 routing_carIn12858:1 emissions_carIn12858:1" vType="default_016" speedFactor="0.98" vaporized="">
        <emissions CO_abs="14272.862216" CO2_abs="603452.753971" HC_abs="79.306357" PMx_abs="12.111401" NOx_abs="254.032711" fuel_abs="259.400791" electricity_abs="0"/>
    </tripinfo>
    <tripinfo id="carIn118591:1" depart="57689.00" departLane="315358244_1" departPos="5.10" departSpeed="0.00" departDelay="0.20" arrival="57883.00" arrivalLane="386687235_1" arrivalPos="80.84" arrivalSpeed="10.06" duration="194.00" routeLength="1186.14" waitingTime="49.00" waitingCount="4" stopTime="0.00" timeLoss="78.45" rerouteNo="1" devices="tripinfo_carIn118591:1 routing_carIn118591:1 emissions_carIn118591:1" vType="default_016" speedFactor="0.75" vaporized="">
        <emissions CO_abs="11532.290162" CO2_abs="396715.845765" HC_abs="61.704184" PMx_abs="7.258376" NOx_abs="165.094662" fuel_abs="170.535305" electricity_abs="0"/>
    </tripinfo>
    <tripinfo id="carIn7949:1" depart="57676.00" departLane="128361109#1_1" departPos="5.10" departSpeed="0.00" departDelay="2.10" arrival="57884.00" arrivalLane="386687235_2" arrivalPos="80.84" arrivalSpeed="12.94" duration="208.00" routeLength="2088.57" waitingTime="34.00" waitingCount="2" stopTime="0.00" timeLoss="59.45" rerouteNo="1" devices="tripinfo_carIn7949:1 routing_carIn7949:1 emissions_carIn7949:1" vType="default_016" speedFactor="1.02" vaporized="">
        <emissions CO_abs="9341.848671" CO2_abs="492228.388601" HC_abs="53.904303" PMx_abs="8.313159" NOx_abs="196.388205" fuel_abs="211.590258" electricity_abs="0"/>
    </tripinfo>
    <tripinfo id="h9953c2:3" depart="57682.00" departLane="-54169231#2_1" departPos="5.10" departSpeed="0.00" departDelay="0.00" arrival="57885.00" arrivalLane="386687235_1" arrivalPos="80.84" arrivalSpeed="14.38" duration="203.00" routeLength="1535.60" waitingTime="56.00" waitingCount="2" stopTime="0.00" timeLoss="86.32" rerouteNo="1" devices="tripinfo_h9953c2:3 routing_h9953c2:3 emissions_h9953c2:3" vType="default_016" speedFactor="1.08" vaporized="">
        <emissions CO_abs="15531.664425" CO2_abs="576020.616824" HC_abs="84.205979" PMx_abs="11.304332" NOx_abs="242.700796" fuel_abs="247.610606" electricity_abs="0"/>
    </tripinfo>
    <tripinfo id="carIn24709:1" depart="57753.00" departLane="266565295#5_1" departPos="5.10" departSpeed="0.00" departDelay="2.50" arrival="57888.00" arrivalLane="-24634506#2_1" arrivalPos="71.32" arrivalSpeed="15.40" duration="135.00" routeLength="1534.27" waitingTime="2.00" waitingCount="1" stopTime="0.00" timeLoss="31.63" rerouteNo="1" devices="tripinfo_carIn24709:1 routing_carIn24709:1 emissions_carIn24709:1" vType="default_016" speedFactor="1.11" vaporized="">
        <emissions CO_abs="5757.564679" CO2_abs="405135.533475" HC_abs="35.641540" PMx_abs="7.268499" NOx_abs="165.491521" fuel_abs="174.149924" electricity_abs="0"/>
    </tripinfo>
    <tripinfo id="carIn12775:1" depart="57676.00" departLane="10425609#0_1" departPos="5.10" departSpeed="0.00" departDelay="0.60" arrival="57890.00" arrivalLane="18809673#0_1" arrivalPos="473.56" arrivalSpeed="13.72" duration="214.00" routeLength="1959.45" waitingTime="23.00" waitingCount="4" stopTime="0.00" timeLoss="72.84" rerouteNo="1" devices="tripinfo_carIn12775:1 routing_carIn12775:1 emissions_carIn12775:1" vType="default_016" speedFactor="1.04" vaporized="">
        <emissions CO_abs="9285.110297" CO2_abs="520749.719221" HC_abs="54.477460" PMx_abs="9.298283" NOx_abs="212.530758" fuel_abs="223.849069" electricity_abs="0"/>
    </tripinfo>
    <tripinfo id="h13377c2:3" depart="57804.00" departLane="315358244_1" departPos="5.10" departSpeed="0.00" departDelay="0.60" arrival="57890.00" arrivalLane="447569997#1_1" arrivalPos="180.93" arrivalSpeed="7.12" duration="86.00" routeLength="726.74" waitingTime="3.00" waitingCount="2" stopTime="0.00" timeLoss="18.12" rerouteNo="1" devices="tripinfo_h13377c2:3 routing_h13377c2:3 emissions_h13377c2:3" vType="default_016" speedFactor="1.00" vaporized="">
        <emissions CO_abs="3402.684825" CO2_abs="180875.810888" HC_abs="19.676207" PMx_abs="2.967151" NOx_abs="72.656480" fuel_abs="77.751635" electricity_abs="0"/>
    </tripinfo>