<?xml version="1.0" encoding="UTF-8"?>

<!-- generated on 2021-10-26 21:22:14 by Eclipse SUMO sumo Version 1.10.0
<configuration xmlns:xsi="http://www.w3.org/2001/XMLSchema-instance" xsi:noNamespaceSchemaLocation="http://sumo.dlr.de/xsd/sumoConfiguration.xsd">

    <input>
        <net-file value="/Users/behradkoohy/sumo-scratchpad/RESCO/environments/ingolstadt21/ingolstadt21.net.xml"/>
        <route-files value="/Users/behradkoohy/sumo-scratchpad/RESCO/environments/ingolstadt21/ingolstadt21.rou.xml"/>
    </input>

    <output>
        <tripinfo-output value="/Users/behradkoohy/sumo-scratchpad/RESCO/logs/MPLight-tr0-ingolstadt21-21-mplight_full-pressure/tripinfo_48.xml"/>
        <tripinfo-output.write-unfinished value="true"/>
    </output>

    <time>
        <begin value="57600"/>
        <end value="61200"/>
    </time>

    <processing>
        <time-to-teleport value="-1"/>
    </processing>

    <report>
        <no-warnings value="true"/>
        <no-step-log value="true"/>
    </report>

    <emissions>
        <device.emissions.probability value="1"/>
    </emissions>

    <traci_server>
        <remote-port value="65068"/>
    </traci_server>

    <random_number>
        <random value="true"/>
    </random_number>

</configuration>
-->

<tripinfos xmlns:xsi="http://www.w3.org/2001/XMLSchema-instance" xsi:noNamespaceSchemaLocation="http://sumo.dlr.de/xsd/tripinfo_file.xsd">
    <tripinfo id="h15454c2:3" depart="57612.00" departLane="24608844_1" departPos="5.10" departSpeed="0.00" departDelay="0.50" arrival="57651.00" arrivalLane="32978638#0_1" arrivalPos="49.29" arrivalSpeed="13.90" duration="39.00" routeLength="354.79" waitingTime="0.00" waitingCount="0" stopTime="0.00" timeLoss="5.10" rerouteNo="1" devices="tripinfo_h15454c2:3 routing_h15454c2:3 emissions_h15454c2:3" vType="default_016" speedFactor="1.01" vaporized="">
        <emissions CO_abs="1850.040771" CO2_abs="103456.991787" HC_abs="10.828903" PMx_abs="1.804006" NOx_abs="42.378704" fuel_abs="44.471967" electricity_abs="0"/>
    </tripinfo>
    <tripinfo id="carIn53971:1" depart="57640.00" departLane="272042143_1" departPos="5.10" departSpeed="0.00" departDelay="0.80" arrival="57688.00" arrivalLane="24634414#1_1" arrivalPos="162.19" arrivalSpeed="9.58" duration="48.00" routeLength="493.04" waitingTime="0.00" waitingCount="0" stopTime="0.00" timeLoss="9.92" rerouteNo="1" devices="tripinfo_carIn53971:1 routing_carIn53971:1 emissions_carIn53971:1" vType="default_016" speedFactor="1.22" vaporized="">
        <emissions CO_abs="2618.364900" CO2_abs="161757.502711" HC_abs="15.744094" PMx_abs="2.970585" NOx_abs="66.886454" fuel_abs="69.532569" electricity_abs="0"/>
    </tripinfo>
    <tripinfo id="carIn60260:1" depart="57606.00" departLane="315358254#0_1" departPos="5.10" departSpeed="0.00" departDelay="0.90" arrival="57691.00" arrivalLane="399835085#1_1" arrivalPos="212.23" arrivalSpeed="6.99" duration="85.00" routeLength="430.98" waitingTime="19.00" waitingCount="1" stopTime="0.00" timeLoss="30.04" rerouteNo="1" devices="tripinfo_carIn60260:1 routing_carIn60260:1 emissions_carIn60260:1" vType="default_016" speedFactor="0.84" vaporized="">
        <emissions CO_abs="4923.532384" CO2_abs="153875.600935" HC_abs="25.951294" PMx_abs="2.740370" NOx_abs="63.886523" fuel_abs="66.146607" electricity_abs="0"/>
    </tripinfo>
    <tripinfo id="h3568c1:3" depart="57656.00" departLane="266565295#5_1" departPos="5.10" departSpeed="0.00" departDelay="0.80" arrival="57739.00" arrivalLane="-24634415_1" arrivalPos="62.03" arrivalSpeed="12.47" duration="83.00" routeLength="807.40" waitingTime="0.00" waitingCount="0" stopTime="0.00" timeLoss="12.43" rerouteNo="1" devices="tripinfo_h3568c1:3 routing_h3568c1:3 emissions_h3568c1:3" vType="default_016" speedFactor="0.92" vaporized="">
        <emissions CO_abs="3336.315207" CO2_abs="205144.051217" HC_abs="19.986947" PMx_abs="3.513707" NOx_abs="83.312457" fuel_abs="88.182961" electricity_abs="0"/>
    </tripinfo>
    <tripinfo id="h317c2:1" depart="57707.00" departLane="-32978638#0_1" departPos="5.10" departSpeed="0.00" departDelay="0.10" arrival="57742.00" arrivalLane="-266565295#5_1" arrivalPos="172.76" arrivalSpeed="12.13" duration="35.00" routeLength="370.53" waitingTime="0.00" waitingCount="0" stopTime="0.00" timeLoss="5.85" rerouteNo="1" devices="tripinfo_h317c2:1 routing_h317c2:1 emissions_h317c2:1" vType="default_016" speedFactor="0.95" vaporized="">
        <emissions CO_abs="1697.848697" CO2_abs="106999.691956" HC_abs="10.242988" PMx_abs="1.876476" NOx_abs="43.665728" fuel_abs="45.994656" electricity_abs="0"/>
    </tripinfo>
    <tripinfo id="h5979c1:5" depart="57669.00" departLane="399835085#1_1" departPos="5.10" departSpeed="0.00" departDelay="0.00" arrival="57746.00" arrivalLane="-315358254#1_1" arrivalPos="137.16" arrivalSpeed="16.10" duration="77.00" routeLength="659.33" waitingTime="0.00" waitingCount="0" stopTime="0.00" timeLoss="14.16" rerouteNo="1" devices="tripinfo_h5979c1:5 routing_h5979c1:5 emissions_h5979c1:5" vType="default_016" speedFactor="1.16" vaporized="">
        <emissions CO_abs="3459.649937" CO2_abs="187125.112299" HC_abs="20.102512" PMx_abs="3.171100" NOx_abs="76.143830" fuel_abs="80.437733" electricity_abs="0"/>
    </tripinfo>
    <tripinfo id="h4538c1:1" depart="57701.00" departLane="-10427692#1_1" departPos="5.10" departSpeed="0.00" departDelay="0.00" arrival="57746.00" arrivalLane="-128361102#1_1" arrivalPos="274.68" arrivalSpeed="13.87" duration="45.00" routeLength="440.74" waitingTime="2.00" waitingCount="1" stopTime="0.00" timeLoss="13.13" rerouteNo="1" devices="tripinfo_h4538c1:1 routing_h4538c1:1 emissions_h4538c1:1" vType="default_016" speedFactor="1.00" vaporized="">
        <emissions CO_abs="2074.490008" CO2_abs="123264.325733" HC_abs="12.347299" PMx_abs="2.212949" NOx_abs="50.554738" fuel_abs="52.986168" electricity_abs="0"/>
    </tripinfo>
    <tripinfo id="h3326c1:2" depart="57656.00" departLane="22716069#0_1" departPos="5.10" departSpeed="0.00" departDelay="0.00" arrival="57757.00" arrivalLane="24634517#13_1" arrivalPos="111.62" arrivalSpeed="14.38" duration="101.00" routeLength="1312.81" waitingTime="0.00" waitingCount="0" stopTime="0.00" timeLoss="14.37" rerouteNo="1" devices="tripinfo_h3326c1:2 routing_h3326c1:2 emissions_h3326c1:2" vType="default_016" speedFactor="1.12" vaporized="">
        <emissions CO_abs="4162.313691" CO2_abs="320046.529912" HC_abs="26.408660" PMx_abs="5.747724" NOx_abs="129.947746" fuel_abs="137.573652" electricity_abs="0"/>
    </tripinfo>
    <tripinfo id="carIn30817:1" depart="57681.00" departLane="315358244_1" departPos="5.10" departSpeed="0.00" departDelay="0.20" arrival="57758.00" arrivalLane="447569997#1_1" arrivalPos="180.93" arrivalSpeed="6.69" duration="77.00" routeLength="718.04" waitingTime="0.00" waitingCount="0" stopTime="0.00" timeLoss="8.20" rerouteNo="1" devices="tripinfo_carIn30817:1 routing_carIn30817:1 emissions_carIn30817:1" vType="default_016" speedFactor="0.90" vaporized="">
        <emissions CO_abs="2510.451039" CO2_abs="151408.906305" HC_abs="14.929421" PMx_abs="2.394108" NOx_abs="60.271339" fuel_abs="65.084778" electricity_abs="0"/>
    </tripinfo>
    <tripinfo id="h7181c1:1" depart="57660.00" departLane="315358254#0_1" departPos="5.10" departSpeed="0.00" departDelay="0.10" arrival="57766.00" arrivalLane="306240162#0_0" arrivalPos="220.43" arrivalSpeed="15.76" duration="106.00" routeLength="932.35" waitingTime="38.00" waitingCount="1" stopTime="0.00" timeLoss="51.95" rerouteNo="1" devices="tripinfo_h7181c1:1 routing_h7181c1:1 emissions_h7181c1:1" vType="default_016" speedFactor="0.95" vaporized="">
        <emissions CO_abs="9412.913799" CO2_abs="370224.044517" HC_abs="51.631257" PMx_abs="7.558290" NOx_abs="156.040302" fuel_abs="159.145298" electricity_abs="0"/>
    </tripinfo>
    <tripinfo id="h12244c1:3" depart="57612.00" departLane="315358244_1" departPos="5.10" departSpeed="0.00" departDelay="0.40" arrival="57767.00" arrivalLane="386687235_1" arrivalPos="80.84" arrivalSpeed="12.68" duration="155.00" routeLength="1186.14" waitingTime="47.00" waitingCount="2" stopTime="0.00" timeLoss="66.63" rerouteNo="1" devices="tripinfo_h12244c1:3 routing_h12244c1:3 emissions_h12244c1:3" vType="default_016" speedFactor="0.98" vaporized="">
        <emissions CO_abs="10650.438519" CO2_abs="394979.528307" HC_abs="57.736840" PMx_abs="7.493825" NOx_abs="164.551161" fuel_abs="169.787958" electricity_abs="0"/>
    </tripinfo>
    <tripinfo id="h9563c2:5" depart="57631.00" departLane="315358244_1" departPos="5.10" departSpeed="0.00" departDelay="0.70" arrival="57769.00" arrivalLane="386687235_1" arrivalPos="80.84" arrivalSpeed="14.06" duration="138.00" routeLength="1186.14" waitingTime="27.00" waitingCount="2" stopTime="0.00" timeLoss="58.42" rerouteNo="1" devices="tripinfo_h9563c2:5 routing_h9563c2:5 emissions_h9563c2:5" vType="default_016" speedFactor="1.09" vaporized="">
        <emissions CO_abs="8122.637046" CO2_abs="371364.598887" HC_abs="45.702101" PMx_abs="6.952666" NOx_abs="154.003936" fuel_abs="159.635254" electricity_abs="0"/>
    </tripinfo>
    <tripinfo id="h330c1:1" depart="57736.00" departLane="-32978638#0_1" departPos="5.10" departSpeed="0.00" departDelay="0.20" arrival="57772.00" arrivalLane="-266565295#5_1" arrivalPos="172.76" arrivalSpeed="12.20" duration="36.00" routeLength="370.53" waitingTime="0.00" waitingCount="0" stopTime="0.00" timeLoss="5.12" rerouteNo="1" devices="tripinfo_h330c1:1 routing_h330c1:1 emissions_h330c1:1" vType="default_016" speedFactor="0.90" vaporized="">
        <emissions CO_abs="1673.743966" CO2_abs="104953.929942" HC_abs="10.080803" PMx_abs="1.824853" NOx_abs="42.802356" fuel_abs="45.115293" electricity_abs="0"/>
    </tripinfo>
    <tripinfo id="carIn121703:1" depart="57647.00" departLane="386687232#0_1" departPos="5.10" departSpeed="0.00" departDelay="0.30" arrival="57773.00" arrivalLane="-315358244_1" arrivalPos="33.95" arrivalSpeed="12.42" duration="126.00" routeLength="1157.39" waitingTime="20.00" waitingCount="2" stopTime="0.00" timeLoss="35.77" rerouteNo="1" devices="tripinfo_carIn121703:1 routing_carIn121703:1 emissions_carIn121703:1" vType="default_016" speedFactor="0.93" vaporized="">
        <emissions CO_abs="5720.168809" CO2_abs="292353.426396" HC_abs="32.877361" PMx_abs="5.104019" NOx_abs="118.823569" fuel_abs="125.671406" electricity_abs="0"/>
    </tripinfo>
    <tripinfo id="carIn12365:1" depart="57713.00" departLane="315358244_1" departPos="5.10" departSpeed="0.00" departDelay="0.50" arrival="57786.00" arrivalLane="447569997#1_1" arrivalPos="180.93" arrivalSpeed="7.90" duration="73.00" routeLength="718.04" waitingTime="0.00" waitingCount="0" stopTime="0.00" timeLoss="9.34" rerouteNo="1" devices="tripinfo_carIn12365:1 routing_carIn12365:1 emissions_carIn12365:1" vType="default_016" speedFactor="0.98" vaporized="">
        <emissions CO_abs="2688.283657" CO2_abs="172283.038168" HC_abs="16.220695" PMx_abs="2.700846" NOx_abs="68.084221" fuel_abs="74.057679" electricity_abs="0"/>
    </tripinfo>
    <tripinfo id="h11737c1:1" depart="57665.00" departLane="272042143_1" departPos="5.10" departSpeed="0.00" departDelay="1.50" arrival="57789.00" arrivalLane="-315358254#1_1" arrivalPos="137.16" arrivalSpeed="13.74" duration="124.00" routeLength="1596.88" waitingTime="0.00" waitingCount="0" stopTime="0.00" timeLoss="13.94" rerouteNo="1" devices="tripinfo_h11737c1:1 routing_h11737c1:1 emissions_h11737c1:1" vType="default_016" speedFactor="1.06" vaporized="">
        <emissions CO_abs="3938.848371" CO2_abs="354768.638917" HC_abs="26.195680" PMx_abs="5.765133" NOx_abs="139.499811" fuel_abs="152.499560" electricity_abs="0"/>
    </tripinfo>
    <tripinfo id="carIn86816:1" depart="57617.00" departLane="128361102#0_1" departPos="5.10" departSpeed="0.00" departDelay="0.80" arrival="57790.00" arrivalLane="201956811#0_1" arrivalPos="40.40" arrivalSpeed="13.71" duration="173.00" routeLength="2067.33" waitingTime="12.00" waitingCount="1" stopTime="0.00" timeLoss="33.03" rerouteNo="1" devices="tripinfo_carIn86816:1 routing_carIn86816:1 emissions_carIn86816:1" vType="default_016" speedFactor="1.08" vaporized="">
        <emissions CO_abs="6677.410563" CO2_abs="485435.076825" HC_abs="41.621095" PMx_abs="8.271817" NOx_abs="193.454520" fuel_abs="208.667844" electricity_abs="0"/>
    </tripinfo>
    <tripinfo id="carIn22761:1" depart="57616.00" departLane="-306240162#1_0" departPos="5.10" departSpeed="0.00" departDelay="2.10" arrival="57791.00" arrivalLane="399835085#1_1" arrivalPos="212.23" arrivalSpeed="6.19" duration="175.00" routeLength="1093.26" waitingTime="63.00" waitingCount="1" stopTime="0.00" timeLoss="85.47" rerouteNo="1" devices="tripinfo_carIn22761:1 routing_carIn22761:1 emissions_carIn22761:1" vType="default_016" speedFactor="0.87" vaporized="">
        <emissions CO_abs="14665.057132" CO2_abs="444963.412708" HC_abs="77.239810" PMx_abs="9.127241" NOx_abs="189.839351" fuel_abs="191.275523" electricity_abs="0"/>
    </tripinfo>
    <tripinfo id="h3688c1:1" depart="57625.00" departLane="201201950#1_1" departPos="5.10" departSpeed="0.00" departDelay="0.00" arrival="57804.00" arrivalLane="32978638#0_1" arrivalPos="49.29" arrivalSpeed="11.50" duration="179.00" routeLength="1089.75" waitingTime="78.00" waitingCount="1" stopTime="0.00" timeLoss="92.31" rerouteNo="1" devices="tripinfo_h3688c1:1 routing_h3688c1:1 emissions_h3688c1:1" vType="default_016" speedFactor="0.92" vaporized="">
        <emissions CO_abs="15550.904117" CO2_abs="443479.663496" HC_abs="81.172821" PMx_abs="8.876256" NOx_abs="188.114415" fuel_abs="190.638810" electricity_abs="0"/>
    </tripinfo>
    <tripinfo id="carIn126288:1" depart="57674.00" departLane="272042143_1" departPos="5.10" departSpeed="0.00" departDelay="0.00" arrival="57810.00" arrivalLane="-315358254#1_1" arrivalPos="137.16" arrivalSpeed="13.78" duration="136.00" routeLength="1596.88" waitingTime="3.00" waitingCount="1" stopTime="0.00" timeLoss="19.01" rerouteNo="1" devices="tripinfo_carIn126288:1 routing_carIn126288:1 emissions_carIn126288:1" vType="default_016" speedFactor="0.99" vaporized="">
        <emissions CO_abs="3938.180197" CO2_abs="327224.359030" HC_abs="25.535152" PMx_abs="5.177694" NOx_abs="128.363046" fuel_abs="140.659894" electricity_abs="0"/>
    </tripinfo>
    <tripinfo id="h3154c1:1" depart="57658.00" departLane="24634507_1" departPos="5.10" departSpeed="0.00" departDelay="0.00" arrival="57820.00" arrivalLane="-266565295#5_1" arrivalPos="172.76" arrivalSpeed="11.11" duration="162.00" routeLength="1206.22" waitingTime="44.00" waitingCount="1" stopTime="0.00" timeLoss="60.68" rerouteNo="1" devices="tripinfo_h3154c1:1 routing_h3154c1:1 emissions_h3154c1:1" vType="default_016" speedFactor="0.89" vaporized="">
        <emissions CO_abs="11063.362492" CO2_abs="398717.783415" HC_abs="59.678322" PMx_abs="7.455393" NOx_abs="165.908801" fuel_abs="171.395287" electricity_abs="0"/>
    </tripinfo>
    <tripinfo id="h645c1:1" depart="57622.00" departLane="266565295#5_1" departPos="5.10" departSpeed="0.00" departDelay="0.40" arrival="57823.00" arrivalLane="-315358244_1" arrivalPos="33.95" arrivalSpeed="12.56" duration="201.00" routeLength="1910.83" waitingTime="35.00" waitingCount="1" stopTime="0.00" timeLoss="54.35" rerouteNo="1" devices="tripinfo_h645c1:1 routing_h645c1:1 emissions_h645c1:1" vType="default_016" speedFactor="0.94" vaporized="">
        <emissions CO_abs="9642.120941" CO2_abs="451222.386812" HC_abs="54.406717" PMx_abs="7.747204" NOx_abs="181.918647" fuel_abs="193.963975" electricity_abs="0"/>
    </tripinfo>
    <tripinfo id="h7800c1:5" depart="57696.00" departLane="-447569998#1_1" departPos="5.10" departSpeed="0.00" departDelay="0.00" arrival="57825.00" arrivalLane="-447569998#1_2" arrivalPos="180.76" arrivalSpeed="3.57" duration="129.00" routeLength="175.66" waitingTime="101.00" waitingCount="1" stopTime="0.00" timeLoss="108.65" rerouteNo="1" devices="tripinfo_h7800c1:5 routing_h7800c1:5 emissions_h7800c1:5" vType="default_016" speedFactor="1.04" vaporized="">
        <emissions CO_abs="17073.276213" CO2_abs="305928.389393" HC_abs="84.901335" PMx_abs="7.242289" NOx_abs="137.763214" fuel_abs="131.513220" electricity_abs="0"/>
    </tripinfo>
    <tripinfo id="carIn48184:1" depart="57613.00" departLane="-306240162#1_0" departPos="5.10" departSpeed="0.00" departDelay="0.70" arrival="57833.00" arrivalLane="386687235_1" arrivalPos="80.84" arrivalSpeed="13.54" duration="220.00" routeLength="2257.41" waitingTime="43.00" waitingCount="3" stopTime="0.00" timeLoss="77.53" rerouteNo="1" devices="tripinfo_carIn48184:1 routing_carIn48184:1 emissions_carIn48184:1" vType="default_016" speedFactor="1.04" vaporized="">
        <emissions CO_abs="12628.451058" CO2_abs="641607.426766" HC_abs="72.596520" PMx_abs="12.080583" NOx_abs="263.638857" fuel_abs="275.801157" electricity_abs="0"/>
    </tripinfo>
    <tripinfo id="carIn82220:1" depart="57619.00" departLane="-306240162#1_0" departPos="5.10" departSpeed="0.00" departDelay="3.50" arrival="57833.00" arrivalLane="386687235_2" arrivalPos="80.84" arrivalSpeed="14.10" duration="214.00" routeLength="2257.41" waitingTime="35.00" waitingCount="2" stopTime="0.00" timeLoss="74.03" rerouteNo="1" devices="tripinfo_carIn82220:1 routing_carIn82220:1 emissions_carIn82220:1" vType="default_016" speedFactor="1.06" vaporized="">
        <emissions CO_abs="11789.283082" CO2_abs="596705.928731" HC_abs="67.695788" PMx_abs="11.166017" NOx_abs="245.622706" fuel_abs="256.499867" electricity_abs="0"/>
    </tripinfo>
    <tripinfo id="randUni15030:1" depart="57735.00" departLane="386687232#0_1" departPos="5.10" departSpeed="0.00" departDelay="0.10" arrival="57840.00" arrivalLane="26677539_1" arrivalPos="151.98" arrivalSpeed="8.98" duration="105.00" routeLength="919.89" waitingTime="14.00" waitingCount="1" stopTime="0.00" timeLoss="30.05" rerouteNo="1" devices="tripinfo_randUni15030:1 routing_randUni15030:1 emissions_randUni15030:1" vType="random_016" speedFactor="1.11" vaporized="">
        <emissions CO_abs="5082.230384" CO2_abs="252261.996628" HC_abs="29.032101" PMx_abs="4.420049" NOx_abs="102.784636" fuel_abs="108.437739" electricity_abs="0"/>
    </tripinfo>
    <tripinfo id="carIn107282:1" depart="57749.00" departLane="-447569998#1_1" departPos="5.10" departSpeed="0.00" departDelay="0.00" arrival="57849.00" arrivalLane="315358242#0_1" arrivalPos="165.37" arrivalSpeed="13.27" duration="100.00" routeLength="448.50" waitingTime="50.00" waitingCount="1" stopTime="0.00" timeLoss="58.65" rerouteNo="1" devices="tripinfo_carIn107282:1 routing_carIn107282:1 emissions_carIn107282:1" vType="default_016" speedFactor="1.01" vaporized="">
        <emissions CO_abs="9551.558156" CO2_abs="238281.779177" HC_abs="49.042716" PMx_abs="4.981442" NOx_abs="102.779678" fuel_abs="102.430961" electricity_abs="0"/>
    </tripinfo>
    <tripinfo id="carIn73855:1" depart="57743.00" departLane="386687232#0_1" departPos="5.10" departSpeed="0.00" departDelay="0.50" arrival="57854.00" arrivalLane="-315358244_1" arrivalPos="33.95" arrivalSpeed="13.84" duration="111.00" routeLength="1157.39" waitingTime="14.00" waitingCount="2" stopTime="0.00" timeLoss="31.61" rerouteNo="1" devices="tripinfo_carIn73855:1 routing_carIn73855:1 emissions_carIn73855:1" vType="default_016" speedFactor="1.07" vaporized="">
        <emissions CO_abs="4922.540639" CO2_abs="289324.997488" HC_abs="29.131399" PMx_abs="5.054123" NOx_abs="116.676332" fuel_abs="124.369048" electricity_abs="0"/>
    </tripinfo>
    <tripinfo id="carIn126378:1" depart="57746.00" departLane="386687232#0_1" departPos="5.10" departSpeed="0.00" departDelay="1.80" arrival="57859.00" arrivalLane="-315358244_1" arrivalPos="33.95" arrivalSpeed="12.58" duration="113.00" routeLength="1157.39" waitingTime="7.00" waitingCount="1" stopTime="0.00" timeLoss="21.85" rerouteNo="1" devices="tripinfo_carIn126378:1 routing_carIn126378:1 emissions_carIn126378:1" vType="default_016" speedFactor="0.93" vaporized="">
        <emissions CO_abs="3638.407890" CO2_abs="247084.238720" HC_abs="22.297365" PMx_abs="3.868479" NOx_abs="97.131862" fuel_abs="106.211637" electricity_abs="0"/>
    </tripinfo>
    <tripinfo id="S5R_frequency1.2" depart="57624.00" departLane="315358250#0_1" departPos="12.10" departSpeed="0.00" departDelay="12.40" arrival="57860.00" arrivalLane="386687235_1" arrivalPos="80.84" arrivalSpeed="13.76" duration="236.00" routeLength="1115.62" waitingTime="120.00" waitingCount="3" stopTime="0.00" timeLoss="154.12" rerouteNo="1" devices="tripinfo_S5R_frequency1.2 routing_S5R_frequency1.2 emissions_S5R_frequency1.2" vType="bus" speedFactor="1.00" vaporized="">
        <emissions CO_abs="4497.290195" CO2_abs="2035688.279308" HC_abs="999.026893" PMx_abs="464.688251" NOx_abs="17910.863727" fuel_abs="867.940633" electricity_abs="0"/>
    </tripinfo>
    <tripinfo id="carIn129809:1" depart="57729.00" departLane="-447569998#1_1" departPos="5.10" departSpeed="0.00" departDelay="1.00" arrival="57875.00" arrivalLane="-315358244_1" arrivalPos="33.95" arrivalSpeed="11.89" duration="146.00" routeLength="706.49" waitingTime="70.00" waitingCount="1" stopTime="0.00" timeLoss="81.72" rerouteNo="1" devices="tripinfo_carIn129809:1 routing_carIn129809:1 emissions_carIn129809:1" vType="default_015" speedFactor="0.94" vaporized="">
        <emissions CO_abs="13841.174295" CO2_abs="337630.878507" HC_abs="70.908175" PMx_abs="7.077009" NOx_abs="145.672081" fuel_abs="145.138728" electricity_abs="0"/>
    </tripinfo>
    <tripinfo id="h13377c2:3" depart="57808.00" departLane="315358244_1" departPos="5.10" departSpeed="0.00" departDelay="4.60" arrival="57876.00" arrivalLane="447569997#1_1" arrivalPos="180.93" arrivalSpeed="7.73" duration="68.00" routeLength="718.04" waitingTime="0.00" waitingCount="0" stopTime="0.00" timeLoss="10.32" rerouteNo="1" devices="tripinfo_h13377c2:3 routing_h13377c2:3 emissions_h13377c2:3" vType="default_016" speedFactor="1.08" vaporized="">
        <emissions CO_abs="2434.975629" CO2_abs="164625.941367" HC_abs="14.901664" PMx_abs="2.655419" NOx_abs="65.430887" fuel_abs="70.765977" electricity_abs="0"/>
    </tripinfo>
    <tripinfo id="carIn99385:1" depart="57665.00" departLane="124812856#0_1" departPos="5.10" departSpeed="0.00" departDelay="27.90" arrival="57880.00" arrivalLane="-128361102#1_1" arrivalPos="274.68" arrivalSpeed="16.34" duration="215.00" routeLength="2232.46" waitingTime="9.00" waitingCount="1" stopTime="0.00" timeLoss="77.01" rerouteNo="1" devices="tripinfo_carIn99385:1 routing_carIn99385:1 emissions_carIn99385:1" vType="default_016" speedFactor="1.18" vaporized="">
        <emissions CO_abs="9715.456241" CO2_abs="572015.633399" HC_abs="57.406292" PMx_abs="10.186808" NOx_abs="231.732151" fuel_abs="245.885934" electricity_abs="0"/>
    </tripinfo>
    <tripinfo id="h17600c1:1" depart="57662.00" departLane="272042143_1" departPos="5.10" departSpeed="0.00" departDelay="0.30" arrival="57882.00" arrivalLane="201238729#3_1" arrivalPos="431.02" arrivalSpeed="13.41" duration="220.00" routeLength="2100.26" waitingTime="51.00" waitingCount="1" stopTime="0.00" timeLoss="68.98" rerouteNo="1" devices="tripinfo_h17600c1:1 routing_h17600c1:1 emissions_h17600c1:1" vType="default_016" speedFactor="1.00" vaporized="">
        <emissions CO_abs="12271.587463" CO2_abs="525816.809971" HC_abs="68.103446" PMx_abs="9.357157" NOx_abs="213.250784" fuel_abs="226.029848" electricity_abs="0"/>
    </tripinfo>
    <tripinfo id="carIn13443:1" depart="57729.00" departLane="272042143_1" departPos="5.10" departSpeed="0.00" departDelay="0.80" arrival="57883.00" arrivalLane="399835085#1_1" arrivalPos="212.23" arrivalSpeed="7.78" duration="154.00" routeLength="1757.45" waitingTime="2.00" waitingCount="1" stopTime="0.00" timeLoss="21.00" rerouteNo="1" devices="tripinfo_carIn13443:1 routing_carIn13443:1 emissions_carIn13443:1" vType="default_016" speedFactor="1.06" vaporized="">
        <emissions CO_abs="4942.320362" CO2_abs="372616.502140" HC_abs="31.175730" PMx_abs="6.139111" NOx_abs="148.041357" fuel_abs="160.172040" electricity_abs="0"/>
    </tripinfo>
    <tripinfo id="carIn53503:1" depart="57765.00" departLane="-306240162#1_0" departPos="5.10" departSpeed="0.00" departDelay="4.40" arrival="57885.00" arrivalLane="24634510#6_1" arrivalPos="76.64" arrivalSpeed="12.65" duration="120.00" routeLength="1440.47" waitingTime="0.00" waitingCount="0" stopTime="0.00" timeLoss="20.17" rerouteNo="1" devices="tripinfo_carIn53503:1 routing_carIn53503:1 emissions_carIn53503:1" vType="default_016" speedFactor="0.99" vaporized="">
        <emissions CO_abs="4555.921090" CO2_abs="339441.349467" HC_abs="28.684126" PMx_abs="5.917972" NOx_abs="137.206064" fuel_abs="145.910968" electricity_abs="0"/>
    </tripinfo>
    <tripinfo id="carIn27009:1" depart="57673.00" departLane="-447569998#1_1" departPos="5.10" departSpeed="0.00" departDelay="0.50" arrival="57887.00" arrivalLane="-26677539_1" arrivalPos="152.75" arrivalSpeed="9.17" duration="214.00" routeLength="699.63" waitingTime="126.00" waitingCount="1" stopTime="0.00" timeLoss="138.71" rerouteNo="1" devices="tripinfo_carIn27009:1 routing_carIn27009:1 emissions_carIn27009:1" vType="default_015" speedFactor="1.12" vaporized="">
        <emissions CO_abs="23460.815160" CO2_abs="507819.495786" HC_abs="118.673140" PMx_abs="11.069930" NOx_abs="222.752418" fuel_abs="218.299902" electricity_abs="0"/>
    </tripinfo>
    <tripinfo id="h16072c2:3" depart="57663.00" departLane="315358254#0_1" departPos="5.10" departSpeed="0.00" departDelay="2.50" arrival="57893.00" arrivalLane="386687235_2" arrivalPos="80.84" arrivalSpeed="16.96" duration="230.00" routeLength="1611.92" waitingTime="98.00" waitingCount="4" stopTime="0.00" timeLoss="134.88" rerouteNo="1" devices="tripinfo_h16072c2:3 routing_h16072c2:3 emissions_h16072c2:3" vType="default_016" speedFactor="1.23" vaporized="">
        <emissions CO_abs="20115.909546" CO2_abs="661745.770091" HC_abs="107.137975" PMx_abs="13.676703" NOx_abs="281.656340" fuel_abs="284.461828" electricity_abs="0"/>
    </tripinfo>
    <tripinfo id="h5216c1:1" depart="57664.00" departLane="224892339#0_1" departPos="5.10" departSpeed="0.00" departDelay="0.00" arrival="57893.00" arrivalLane="386687235_1" arrivalPos="80.84" arrivalSpeed="14.56" duration="229.00" routeLength="1823.78" waitingTime="79.00" waitingCount="3" stopTime="0.00" timeLoss="115.17" rerouteNo="1" devices="tripinfo_h5216c1:1 routing_h5216c1:1 emissions_h5216c1:1" vType="default_016" speedFactor="1.12" vaporized="">
        <emissions CO_abs="17505.806705" CO2_abs="654331.406770" HC_abs="95.089532" PMx_abs="13.213989" NOx_abs="276.581559" fuel_abs="281.273071" electricity_abs="0"/>
    </tripinfo>
    <tripinfo id="carIn81860:1" depart="57712.00" departLane="128361102#0_1" departPos="5.10" departSpeed="0.00" departDelay="0.60" arrival="57893.00" arrivalLane="-24634517#17_1" arrivalPos="6.43" arrivalSpeed="8.19" duration="181.00" routeLength="1229.64" waitingTime="55.00" waitingCount="3" stopTime="0.00" timeLoss="87.51" rerouteNo="1" devices="tripinfo_carIn81860:1 routing_carIn81860:1 emissions_carIn81860:1" vType="default_016" speedFactor="0.96" vaporized="">
        <emissions CO_abs="11098.496800" CO2_abs="405382.601291" HC_abs="60.002490" PMx_abs="7.649950" NOx_abs="168.794167" fuel_abs="174.260065" electricity_abs="0"/>
    </tripinfo>
    <tripinfo id="50R_frequency3.17" depart="57674.00" departLane="-18809673#6_1" departPos="12.10" departSpeed="0.00" departDelay="0.70" arrival="57896.00" arrivalLane="201956811#0_1" arrivalPos="40.40" arrivalSpeed="10.21" duration="222.00" routeLength="1954.47" waitingTime="45.00" waitingCount="2" stopTime="0.00" timeLoss="76.84" rerouteNo="1" devices="tripinfo_50R_frequency3.17 routing_50R_frequency3.17 emissions_50R_frequency3.17" vType="bus" speedFactor="1.00" vaporized="">
        <emissions CO_abs="4311.401627" CO2_abs="2411933.038960" HC_abs="925.583527" PMx_abs="455.593982" NOx_abs="19500.438528" fuel_abs="1028.564876" electricity_abs="0"/>
    </tripinfo>
    <tripinfo id="carIn7949:1" depart="57676.00" departLane="128361109#1_1" departPos="5.10" departSpeed="0.00" departDelay="2.10" arrival="57896.00" arrivalLane="386687235_2" arrivalPos="80.84" arrivalSpeed="14.54" duration="220.00" routeLength="2088.57" waitingTime="55.00" waitingCount="3" stopTime="0.00" timeLoss="84.88" rerouteNo="1" devices="tripinfo_carIn7949:1 routing_carIn7949:1 emissions_carIn7949:1" vType="default_016" speedFactor="1.12" vaporized="">
        <emissions CO_abs="12645.410405" CO2_abs="562061.408759" HC_abs="70.594438" PMx_abs="10.309116" NOx_abs="229.037531" fuel_abs="241.609299" electricity_abs="0"/>
    </tripinfo>
    <tripinfo id="h9953c2:3" depart="57682.00" departLane="-54169231#2_1" departPos="5.10" departSpeed="0.00" departDelay="0.00" arrival="57896.00" arrivalLane="386687235_1" arrivalPos="80.84" arrivalSpeed="12.45" duration="214.00" routeLength="1535.60" waitingTime="46.00" waitingCount="3" stopTime="0.00" timeLoss="79.91" rerouteNo="1" devices="tripinfo_h9953c2:3 routing_h9953c2:3 emissions_h9953c2:3" vType="default_016" speedFactor="0.94" vaporized="">
        <emissions CO_abs="13215.512889" CO2_abs="512828.861413" HC_abs="72.169356" PMx_abs="9.623827" NOx_abs="214.178035" fuel_abs="220.446800" electricity_abs="0"/>
    </tripinfo>
    <tripinfo id="carIn88905:1" depart="57688.00" departLane="128361109#1_1" departPos="5.10" departSpeed="0.00" departDelay="5.80" arrival="57897.00" arrivalLane="386687235_1" arrivalPos="80.84" arrivalSpeed="13.89" duration="209.00" routeLength="2088.57" waitingTime="34.00" waitingCount="2" stopTime="0.00" timeLoss="59.42" rerouteNo="1" devices="tripinfo_carIn88905:1 routing_carIn88905:1 emissions_carIn88905:1" vType="default_016" speedFactor="1.01" vaporized="">
        <emissions CO_abs="9282.925123" CO2_abs="510787.635309" HC_abs="54.114778" PMx_abs="8.728688" NOx_abs="204.979646" fuel_abs="219.567614" electricity_abs="0"/>
    </tripinfo>