<?xml version="1.0" encoding="UTF-8"?>

<!-- generated on 2021-10-26 21:04:53 by Eclipse SUMO sumo Version 1.10.0
<configuration xmlns:xsi="http://www.w3.org/2001/XMLSchema-instance" xsi:noNamespaceSchemaLocation="http://sumo.dlr.de/xsd/sumoConfiguration.xsd">

    <input>
        <net-file value="/Users/behradkoohy/sumo-scratchpad/RESCO/environments/ingolstadt21/ingolstadt21.net.xml"/>
        <route-files value="/Users/behradkoohy/sumo-scratchpad/RESCO/environments/ingolstadt21/ingolstadt21.rou.xml"/>
    </input>

    <output>
        <tripinfo-output value="/Users/behradkoohy/sumo-scratchpad/RESCO/logs/MPLight-tr0-ingolstadt21-21-mplight_full-pressure/tripinfo_31.xml"/>
        <tripinfo-output.write-unfinished value="true"/>
    </output>

    <time>
        <begin value="57600"/>
        <end value="61200"/>
    </time>

    <processing>
        <time-to-teleport value="-1"/>
    </processing>

    <report>
        <no-warnings value="true"/>
        <no-step-log value="true"/>
    </report>

    <emissions>
        <device.emissions.probability value="1"/>
    </emissions>

    <traci_server>
        <remote-port value="64769"/>
    </traci_server>

    <random_number>
        <random value="true"/>
    </random_number>

</configuration>
-->

<tripinfos xmlns:xsi="http://www.w3.org/2001/XMLSchema-instance" xsi:noNamespaceSchemaLocation="http://sumo.dlr.de/xsd/tripinfo_file.xsd">
    <tripinfo id="h15454c2:3" depart="57612.00" departLane="24608844_1" departPos="5.10" departSpeed="0.00" departDelay="0.50" arrival="57651.00" arrivalLane="32978638#0_1" arrivalPos="49.29" arrivalSpeed="12.91" duration="39.00" routeLength="354.79" waitingTime="0.00" waitingCount="0" stopTime="0.00" timeLoss="4.61" rerouteNo="1" devices="tripinfo_h15454c2:3 routing_h15454c2:3 emissions_h15454c2:3" vType="default_016" speedFactor="0.99" vaporized="">
        <emissions CO_abs="1765.456399" CO2_abs="95981.391621" HC_abs="10.269467" PMx_abs="1.625779" NOx_abs="39.076674" fuel_abs="41.258619" electricity_abs="0"/>
    </tripinfo>
    <tripinfo id="carIn60260:1" depart="57606.00" departLane="315358254#0_1" departPos="5.10" departSpeed="0.00" departDelay="0.90" arrival="57660.00" arrivalLane="399835085#1_1" arrivalPos="212.23" arrivalSpeed="7.21" duration="54.00" routeLength="430.98" waitingTime="0.00" waitingCount="0" stopTime="0.00" timeLoss="6.77" rerouteNo="1" devices="tripinfo_carIn60260:1 routing_carIn60260:1 emissions_carIn60260:1" vType="default_016" speedFactor="0.97" vaporized="">
        <emissions CO_abs="2214.640557" CO2_abs="114420.843077" HC_abs="12.725356" PMx_abs="1.872081" NOx_abs="46.280970" fuel_abs="49.185195" electricity_abs="0"/>
    </tripinfo>
    <tripinfo id="carIn53971:1" depart="57640.00" departLane="272042143_1" departPos="5.10" departSpeed="0.00" departDelay="0.80" arrival="57705.00" arrivalLane="24634414#1_1" arrivalPos="162.19" arrivalSpeed="5.42" duration="65.00" routeLength="493.04" waitingTime="0.00" waitingCount="0" stopTime="0.00" timeLoss="7.41" rerouteNo="1" devices="tripinfo_carIn53971:1 routing_carIn53971:1 emissions_carIn53971:1" vType="default_016" speedFactor="0.80" vaporized="">
        <emissions CO_abs="2490.797829" CO2_abs="119361.496469" HC_abs="14.087626" PMx_abs="1.941086" NOx_abs="48.298436" fuel_abs="51.309158" electricity_abs="0"/>
    </tripinfo>
    <tripinfo id="h7800c1:5" depart="57696.00" departLane="-447569998#1_1" departPos="5.10" departSpeed="0.00" departDelay="0.00" arrival="57721.00" arrivalLane="-447569998#1_1" arrivalPos="180.76" arrivalSpeed="7.61" duration="25.00" routeLength="175.66" waitingTime="0.00" waitingCount="0" stopTime="0.00" timeLoss="2.95" rerouteNo="1" devices="tripinfo_h7800c1:5 routing_h7800c1:5 emissions_h7800c1:5" vType="default_016" speedFactor="1.00" vaporized="">
        <emissions CO_abs="1103.085034" CO2_abs="48690.638844" HC_abs="6.132661" PMx_abs="0.758576" NOx_abs="19.569096" fuel_abs="20.930448" electricity_abs="0"/>
    </tripinfo>
    <tripinfo id="h12244c1:3" depart="57612.00" departLane="315358244_1" departPos="5.10" departSpeed="0.00" departDelay="0.40" arrival="57737.00" arrivalLane="386687235_1" arrivalPos="80.84" arrivalSpeed="12.47" duration="125.00" routeLength="1186.14" waitingTime="16.00" waitingCount="2" stopTime="0.00" timeLoss="34.34" rerouteNo="1" devices="tripinfo_h12244c1:3 routing_h12244c1:3 emissions_h12244c1:3" vType="default_016" speedFactor="0.95" vaporized="">
        <emissions CO_abs="4896.322429" CO2_abs="281320.471007" HC_abs="28.859375" PMx_abs="4.751391" NOx_abs="113.077435" fuel_abs="120.928514" electricity_abs="0"/>
    </tripinfo>
    <tripinfo id="h317c2:1" depart="57707.00" departLane="-32978638#0_1" departPos="5.10" departSpeed="0.00" departDelay="0.10" arrival="57738.00" arrivalLane="-266565295#5_1" arrivalPos="172.76" arrivalSpeed="14.22" duration="31.00" routeLength="370.53" waitingTime="0.00" waitingCount="0" stopTime="0.00" timeLoss="5.71" rerouteNo="1" devices="tripinfo_h317c2:1 routing_h317c2:1 emissions_h317c2:1" vType="default_016" speedFactor="1.10" vaporized="">
        <emissions CO_abs="1665.063155" CO2_abs="104456.625699" HC_abs="10.040886" PMx_abs="1.962912" NOx_abs="43.390454" fuel_abs="44.901310" electricity_abs="0"/>
    </tripinfo>
    <tripinfo id="h7181c1:1" depart="57660.00" departLane="315358254#0_1" departPos="5.10" departSpeed="0.00" departDelay="0.10" arrival="57745.00" arrivalLane="306240162#0_0" arrivalPos="220.43" arrivalSpeed="12.11" duration="85.00" routeLength="932.35" waitingTime="6.00" waitingCount="1" stopTime="0.00" timeLoss="18.30" rerouteNo="1" devices="tripinfo_h7181c1:1 routing_h7181c1:1 emissions_h7181c1:1" vType="default_016" speedFactor="0.77" vaporized="">
        <emissions CO_abs="2876.953790" CO2_abs="205924.630945" HC_abs="17.875128" PMx_abs="3.471339" NOx_abs="82.092128" fuel_abs="88.518293" electricity_abs="0"/>
    </tripinfo>
    <tripinfo id="h4538c1:1" depart="57701.00" departLane="-10427692#1_1" departPos="5.10" departSpeed="0.00" departDelay="0.00" arrival="57747.00" arrivalLane="-128361102#1_1" arrivalPos="274.68" arrivalSpeed="12.92" duration="46.00" routeLength="440.74" waitingTime="2.00" waitingCount="1" stopTime="0.00" timeLoss="13.03" rerouteNo="1" devices="tripinfo_h4538c1:1 routing_h4538c1:1 emissions_h4538c1:1" vType="default_016" speedFactor="0.97" vaporized="">
        <emissions CO_abs="1999.480543" CO2_abs="120422.376258" HC_abs="11.932880" PMx_abs="2.130710" NOx_abs="49.239355" fuel_abs="51.764552" electricity_abs="0"/>
    </tripinfo>
    <tripinfo id="h9563c2:5" depart="57631.00" departLane="315358244_1" departPos="5.10" departSpeed="0.00" departDelay="0.70" arrival="57748.00" arrivalLane="386687235_1" arrivalPos="80.84" arrivalSpeed="13.73" duration="117.00" routeLength="1186.14" waitingTime="20.00" waitingCount="1" stopTime="0.00" timeLoss="32.66" rerouteNo="1" devices="tripinfo_h9563c2:5 routing_h9563c2:5 emissions_h9563c2:5" vType="default_016" speedFactor="1.03" vaporized="">
        <emissions CO_abs="5535.677034" CO2_abs="289614.480682" HC_abs="31.962815" PMx_abs="5.060805" NOx_abs="116.910088" fuel_abs="124.494002" electricity_abs="0"/>
    </tripinfo>
    <tripinfo id="carIn30817:1" depart="57681.00" departLane="315358244_1" departPos="5.10" departSpeed="0.00" departDelay="0.20" arrival="57749.00" arrivalLane="447569997#1_1" arrivalPos="180.93" arrivalSpeed="8.35" duration="68.00" routeLength="718.04" waitingTime="0.00" waitingCount="0" stopTime="0.00" timeLoss="12.23" rerouteNo="1" devices="tripinfo_carIn30817:1 routing_carIn30817:1 emissions_carIn30817:1" vType="default_016" speedFactor="1.10" vaporized="">
        <emissions CO_abs="2825.851579" CO2_abs="177988.837693" HC_abs="17.034487" PMx_abs="3.046065" NOx_abs="71.852067" fuel_abs="76.510043" electricity_abs="0"/>
    </tripinfo>
    <tripinfo id="h5979c1:5" depart="57669.00" departLane="399835085#1_1" departPos="5.10" departSpeed="0.00" departDelay="0.00" arrival="57757.00" arrivalLane="-315358254#1_1" arrivalPos="137.16" arrivalSpeed="12.59" duration="88.00" routeLength="659.33" waitingTime="0.00" waitingCount="0" stopTime="0.00" timeLoss="13.38" rerouteNo="1" devices="tripinfo_h5979c1:5 routing_h5979c1:5 emissions_h5979c1:5" vType="default_016" speedFactor="0.99" vaporized="">
        <emissions CO_abs="3571.177813" CO2_abs="175149.987901" HC_abs="20.292200" PMx_abs="2.840441" NOx_abs="70.777329" fuel_abs="75.290543" electricity_abs="0"/>
    </tripinfo>
    <tripinfo id="h3326c1:2" depart="57656.00" departLane="22716069#0_1" departPos="5.10" departSpeed="0.00" departDelay="0.00" arrival="57766.00" arrivalLane="24634517#13_1" arrivalPos="111.62" arrivalSpeed="14.06" duration="110.00" routeLength="1312.81" waitingTime="0.00" waitingCount="0" stopTime="0.00" timeLoss="14.01" rerouteNo="1" devices="tripinfo_h3326c1:2 routing_h3326c1:2 emissions_h3326c1:2" vType="default_016" speedFactor="1.02" vaporized="">
        <emissions CO_abs="3987.800261" CO2_abs="309588.510021" HC_abs="25.404186" PMx_abs="5.216884" NOx_abs="123.903848" fuel_abs="133.078686" electricity_abs="0"/>
    </tripinfo>
    <tripinfo id="h3688c1:1" depart="57625.00" departLane="201201950#1_1" departPos="5.10" departSpeed="0.00" departDelay="0.00" arrival="57775.00" arrivalLane="32978638#0_1" arrivalPos="49.29" arrivalSpeed="11.55" duration="150.00" routeLength="1089.75" waitingTime="41.00" waitingCount="1" stopTime="0.00" timeLoss="55.51" rerouteNo="1" devices="tripinfo_h3688c1:1 routing_h3688c1:1 emissions_h3688c1:1" vType="default_016" speedFactor="0.84" vaporized="">
        <emissions CO_abs="9799.827414" CO2_abs="351231.529479" HC_abs="52.788433" PMx_abs="6.437798" NOx_abs="145.440430" fuel_abs="150.982784" electricity_abs="0"/>
    </tripinfo>
    <tripinfo id="h3568c1:3" depart="57656.00" departLane="266565295#5_1" departPos="5.10" departSpeed="0.00" departDelay="0.80" arrival="57777.00" arrivalLane="-24634415_1" arrivalPos="62.03" arrivalSpeed="12.26" duration="121.00" routeLength="807.40" waitingTime="32.00" waitingCount="2" stopTime="0.00" timeLoss="54.53" rerouteNo="1" devices="tripinfo_h3568c1:3 routing_h3568c1:3 emissions_h3568c1:3" vType="default_016" speedFactor="0.97" vaporized="">
        <emissions CO_abs="9371.360136" CO2_abs="337178.247640" HC_abs="50.611929" PMx_abs="6.735256" NOx_abs="143.670187" fuel_abs="144.940817" electricity_abs="0"/>
    </tripinfo>
    <tripinfo id="S5R_frequency1.2" depart="57634.00" departLane="315358250#0_1" departPos="12.10" departSpeed="0.00" departDelay="22.40" arrival="57782.00" arrivalLane="386687235_1" arrivalPos="80.84" arrivalSpeed="13.68" duration="148.00" routeLength="1115.62" waitingTime="33.00" waitingCount="3" stopTime="0.00" timeLoss="65.98" rerouteNo="1" devices="tripinfo_S5R_frequency1.2 routing_S5R_frequency1.2 emissions_S5R_frequency1.2" vType="bus" speedFactor="1.00" vaporized="">
        <emissions CO_abs="2865.121526" CO2_abs="1635394.354712" HC_abs="605.504257" PMx_abs="303.007580" NOx_abs="13132.754272" fuel_abs="697.415384" electricity_abs="0"/>
    </tripinfo>
    <tripinfo id="carIn27009:1" depart="57673.00" departLane="-447569998#1_1" departPos="5.10" departSpeed="0.00" departDelay="0.50" arrival="57788.00" arrivalLane="-26677539_1" arrivalPos="152.75" arrivalSpeed="7.10" duration="115.00" routeLength="699.63" waitingTime="9.00" waitingCount="1" stopTime="0.00" timeLoss="26.13" rerouteNo="1" devices="tripinfo_carIn27009:1 routing_carIn27009:1 emissions_carIn27009:1" vType="default_015" speedFactor="0.94" vaporized="">
        <emissions CO_abs="4954.081824" CO2_abs="201952.516952" HC_abs="27.192770" PMx_abs="3.374387" NOx_abs="82.704675" fuel_abs="86.812481" electricity_abs="0"/>
    </tripinfo>
    <tripinfo id="carIn12365:1" depart="57713.00" departLane="315358244_1" departPos="5.10" departSpeed="0.00" departDelay="0.50" arrival="57793.00" arrivalLane="447569997#1_1" arrivalPos="180.93" arrivalSpeed="8.44" duration="80.00" routeLength="718.04" waitingTime="9.00" waitingCount="1" stopTime="0.00" timeLoss="22.04" rerouteNo="1" devices="tripinfo_carIn12365:1 routing_carIn12365:1 emissions_carIn12365:1" vType="default_016" speedFactor="1.07" vaporized="">
        <emissions CO_abs="3840.182288" CO2_abs="198592.524531" HC_abs="22.105157" PMx_abs="3.537344" NOx_abs="81.340961" fuel_abs="85.367058" electricity_abs="0"/>
    </tripinfo>
    <tripinfo id="carIn107282:1" depart="57749.00" departLane="-447569998#1_1" departPos="5.10" departSpeed="0.00" departDelay="0.00" arrival="57798.00" arrivalLane="315358242#0_1" arrivalPos="165.37" arrivalSpeed="11.86" duration="49.00" routeLength="448.50" waitingTime="0.00" waitingCount="0" stopTime="0.00" timeLoss="4.57" rerouteNo="1" devices="tripinfo_carIn107282:1 routing_carIn107282:1 emissions_carIn107282:1" vType="default_016" speedFactor="0.94" vaporized="">
        <emissions CO_abs="1828.097613" CO2_abs="101677.623911" HC_abs="10.661020" PMx_abs="1.580114" NOx_abs="40.402300" fuel_abs="43.707394" electricity_abs="0"/>
    </tripinfo>
    <tripinfo id="carIn129809:1" depart="57729.00" departLane="-447569998#1_1" departPos="5.10" departSpeed="0.00" departDelay="1.00" arrival="57802.00" arrivalLane="-315358244_1" arrivalPos="33.95" arrivalSpeed="12.01" duration="73.00" routeLength="706.49" waitingTime="0.00" waitingCount="0" stopTime="0.00" timeLoss="7.70" rerouteNo="1" devices="tripinfo_carIn129809:1 routing_carIn129809:1 emissions_carIn129809:1" vType="default_015" speedFactor="0.93" vaporized="">
        <emissions CO_abs="2537.327620" CO2_abs="162092.215025" HC_abs="15.316724" PMx_abs="2.623254" NOx_abs="64.788550" fuel_abs="69.676908" electricity_abs="0"/>
    </tripinfo>
    <tripinfo id="h645c1:1" depart="57622.00" departLane="266565295#5_1" departPos="5.10" departSpeed="0.00" departDelay="0.40" arrival="57808.00" arrivalLane="-315358244_1" arrivalPos="33.95" arrivalSpeed="12.51" duration="186.00" routeLength="1910.83" waitingTime="20.00" waitingCount="1" stopTime="0.00" timeLoss="38.36" rerouteNo="1" devices="tripinfo_h645c1:1 routing_h645c1:1 emissions_h645c1:1" vType="default_016" speedFactor="0.94" vaporized="">
        <emissions CO_abs="6974.307522" CO2_abs="415422.880320" HC_abs="41.400219" PMx_abs="6.669327" NOx_abs="164.150273" fuel_abs="178.574194" electricity_abs="0"/>
    </tripinfo>
    <tripinfo id="carIn86816:1" depart="57617.00" departLane="128361102#0_1" departPos="5.10" departSpeed="0.00" departDelay="0.80" arrival="57813.00" arrivalLane="201956811#0_1" arrivalPos="40.40" arrivalSpeed="14.10" duration="196.00" routeLength="2067.33" waitingTime="24.00" waitingCount="2" stopTime="0.00" timeLoss="49.73" rerouteNo="1" devices="tripinfo_carIn86816:1 routing_carIn86816:1 emissions_carIn86816:1" vType="default_016" speedFactor="1.03" vaporized="">
        <emissions CO_abs="8893.151350" CO2_abs="504972.641591" HC_abs="52.279910" PMx_abs="8.857733" NOx_abs="204.154601" fuel_abs="217.067384" electricity_abs="0"/>
    </tripinfo>
    <tripinfo id="carIn102915:1" depart="57643.00" departLane="128361102#0_1" departPos="5.10" departSpeed="0.00" departDelay="0.40" arrival="57817.00" arrivalLane="201956811#0_1" arrivalPos="40.40" arrivalSpeed="10.04" duration="174.00" routeLength="2067.33" waitingTime="0.00" waitingCount="0" stopTime="0.00" timeLoss="19.46" rerouteNo="1" devices="tripinfo_carIn102915:1 routing_carIn102915:1 emissions_carIn102915:1" vType="default_016" speedFactor="0.98" vaporized="">
        <emissions CO_abs="4627.490094" CO2_abs="391320.541025" HC_abs="30.198522" PMx_abs="6.178664" NOx_abs="153.652743" fuel_abs="168.212061" electricity_abs="0"/>
    </tripinfo>
    <tripinfo id="h11737c1:1" depart="57665.00" departLane="272042143_1" departPos="5.10" departSpeed="0.00" departDelay="1.50" arrival="57817.00" arrivalLane="-315358254#1_1" arrivalPos="137.16" arrivalSpeed="14.82" duration="152.00" routeLength="1596.88" waitingTime="26.00" waitingCount="1" stopTime="0.00" timeLoss="43.29" rerouteNo="1" devices="tripinfo_h11737c1:1 routing_h11737c1:1 emissions_h11737c1:1" vType="default_016" speedFactor="1.08" vaporized="">
        <emissions CO_abs="7782.041299" CO2_abs="406696.558415" HC_abs="44.900626" PMx_abs="7.435649" NOx_abs="166.094027" fuel_abs="174.822542" electricity_abs="0"/>
    </tripinfo>
    <tripinfo id="carIn126288:1" depart="57674.00" departLane="272042143_1" departPos="5.10" departSpeed="0.00" departDelay="0.00" arrival="57818.00" arrivalLane="-315358254#1_1" arrivalPos="137.16" arrivalSpeed="14.70" duration="144.00" routeLength="1596.88" waitingTime="19.00" waitingCount="1" stopTime="0.00" timeLoss="38.10" rerouteNo="1" devices="tripinfo_carIn126288:1 routing_carIn126288:1 emissions_carIn126288:1" vType="default_016" speedFactor="1.10" vaporized="">
        <emissions CO_abs="6540.685247" CO2_abs="361374.311043" HC_abs="38.196044" PMx_abs="6.611288" NOx_abs="147.595503" fuel_abs="155.339999" electricity_abs="0"/>
    </tripinfo>
    <tripinfo id="randUni33724:1" depart="57646.00" departLane="128361102#0_1" departPos="5.10" departSpeed="0.00" departDelay="1.20" arrival="57819.00" arrivalLane="201956811#0_1" arrivalPos="40.40" arrivalSpeed="12.95" duration="173.00" routeLength="2067.33" waitingTime="0.00" waitingCount="0" stopTime="0.00" timeLoss="22.99" rerouteNo="1" devices="tripinfo_randUni33724:1 routing_randUni33724:1 emissions_randUni33724:1" vType="random_016" speedFactor="1.01" vaporized="">
        <emissions CO_abs="5453.999603" CO2_abs="449067.600331" HC_abs="35.277964" PMx_abs="7.380023" NOx_abs="178.263904" fuel_abs="193.034724" electricity_abs="0"/>
    </tripinfo>
    <tripinfo id="carIn50326:1" depart="57651.00" departLane="128361102#0_1" departPos="5.10" departSpeed="0.00" departDelay="0.30" arrival="57821.00" arrivalLane="18809673#0_1" arrivalPos="473.56" arrivalSpeed="13.84" duration="170.00" routeLength="1591.07" waitingTime="25.00" waitingCount="2" stopTime="0.00" timeLoss="47.15" rerouteNo="1" devices="tripinfo_carIn50326:1 routing_carIn50326:1 emissions_carIn50326:1" vType="default_016" speedFactor="1.06" vaporized="">
        <emissions CO_abs="7111.355456" CO2_abs="388720.102726" HC_abs="41.398349" PMx_abs="6.734118" NOx_abs="157.012712" fuel_abs="167.095413" electricity_abs="0"/>
    </tripinfo>
    <tripinfo id="randUni15030:1" depart="57735.00" departLane="386687232#0_1" departPos="5.10" departSpeed="0.00" departDelay="0.10" arrival="57829.00" arrivalLane="26677539_1" arrivalPos="151.98" arrivalSpeed="7.84" duration="94.00" routeLength="919.89" waitingTime="0.00" waitingCount="0" stopTime="0.00" timeLoss="12.32" rerouteNo="1" devices="tripinfo_randUni15030:1 routing_randUni15030:1 emissions_randUni15030:1" vType="random_016" speedFactor="1.02" vaporized="">
        <emissions CO_abs="3336.934998" CO2_abs="216834.249564" HC_abs="20.198368" PMx_abs="3.469753" NOx_abs="86.168759" fuel_abs="93.208333" electricity_abs="0"/>
    </tripinfo>
    <tripinfo id="carIn100288:1" depart="57664.00" departLane="128361102#0_1" departPos="5.10" departSpeed="0.00" departDelay="0.60" arrival="57833.00" arrivalLane="201956811#0_1" arrivalPos="40.40" arrivalSpeed="13.89" duration="169.00" routeLength="2067.33" waitingTime="2.00" waitingCount="1" stopTime="0.00" timeLoss="23.73" rerouteNo="1" devices="tripinfo_carIn100288:1 routing_carIn100288:1 emissions_carIn100288:1" vType="default_016" speedFactor="1.05" vaporized="">
        <emissions CO_abs="5426.520682" CO2_abs="454584.050313" HC_abs="35.287997" PMx_abs="7.473997" NOx_abs="179.813123" fuel_abs="195.405989" electricity_abs="0"/>
    </tripinfo>
    <tripinfo id="carIn12152:1" depart="57647.00" departLane="24599188#0.94_1" departPos="5.10" departSpeed="0.00" departDelay="0.50" arrival="57836.00" arrivalLane="-315358254#1_1" arrivalPos="137.16" arrivalSpeed="13.48" duration="189.00" routeLength="2034.31" waitingTime="9.00" waitingCount="1" stopTime="0.00" timeLoss="26.18" rerouteNo="1" devices="tripinfo_carIn12152:1 routing_carIn12152:1 emissions_carIn12152:1" vType="default_016" speedFactor="0.97" vaporized="">
        <emissions CO_abs="5134.656695" CO2_abs="392759.334159" HC_abs="32.410668" PMx_abs="5.741775" NOx_abs="151.171806" fuel_abs="168.831661" electricity_abs="0"/>
    </tripinfo>
    <tripinfo id="carIn77943:1" depart="57608.00" departLane="124812856#0_1" departPos="5.10" departSpeed="0.00" departDelay="2.50" arrival="57842.00" arrivalLane="-128361102#1_1" arrivalPos="274.68" arrivalSpeed="15.15" duration="234.00" routeLength="2232.46" waitingTime="60.00" waitingCount="2" stopTime="0.00" timeLoss="95.75" rerouteNo="1" devices="tripinfo_carIn77943:1 routing_carIn77943:1 emissions_carIn77943:1" vType="default_016" speedFactor="1.18" vaporized="">
        <emissions CO_abs="15423.513090" CO2_abs="684508.028620" HC_abs="86.239759" PMx_abs="13.150171" NOx_abs="283.515847" fuel_abs="294.243592" electricity_abs="0"/>
    </tripinfo>
    <tripinfo id="carIn121703:1" depart="57647.00" departLane="386687232#0_1" departPos="5.10" departSpeed="0.00" departDelay="0.30" arrival="57842.00" arrivalLane="-315358244_1" arrivalPos="33.95" arrivalSpeed="11.65" duration="195.00" routeLength="1157.39" waitingTime="83.00" waitingCount="1" stopTime="0.00" timeLoss="96.04" rerouteNo="1" devices="tripinfo_carIn121703:1 routing_carIn121703:1 emissions_carIn121703:1" vType="default_016" speedFactor="0.85" vaporized="">
        <emissions CO_abs="16357.771842" CO2_abs="445124.734744" HC_abs="84.841748" PMx_abs="8.816228" NOx_abs="188.392110" fuel_abs="191.346742" electricity_abs="0"/>
    </tripinfo>
    <tripinfo id="carIn8642:1" depart="57774.00" departLane="-447569998#1_1" departPos="5.10" departSpeed="0.00" departDelay="0.90" arrival="57844.00" arrivalLane="-315358244_1" arrivalPos="33.95" arrivalSpeed="13.81" duration="70.00" routeLength="706.49" waitingTime="1.00" waitingCount="1" stopTime="0.00" timeLoss="11.49" rerouteNo="1" devices="tripinfo_carIn8642:1 routing_carIn8642:1 emissions_carIn8642:1" vType="default_016" speedFactor="1.03" vaporized="">
        <emissions CO_abs="2600.669957" CO2_abs="164620.018613" HC_abs="15.659614" PMx_abs="2.704170" NOx_abs="65.762798" fuel_abs="70.763496" electricity_abs="0"/>
    </tripinfo>
    <tripinfo id="carIn118591:1" depart="57689.00" departLane="315358244_1" departPos="5.10" departSpeed="0.00" departDelay="0.20" arrival="57847.00" arrivalLane="386687235_1" arrivalPos="80.84" arrivalSpeed="13.38" duration="158.00" routeLength="1186.14" waitingTime="52.00" waitingCount="2" stopTime="0.00" timeLoss="70.36" rerouteNo="1" devices="tripinfo_carIn118591:1 routing_carIn118591:1 emissions_carIn118591:1" vType="default_016" speedFactor="0.99" vaporized="">
        <emissions CO_abs="10755.906067" CO2_abs="383038.451685" HC_abs="57.917493" PMx_abs="7.223073" NOx_abs="158.960214" fuel_abs="164.655372" electricity_abs="0"/>
    </tripinfo>
    <tripinfo id="carIn107084:1" depart="57601.00" departLane="124812856#0_1" departPos="5.10" departSpeed="0.00" departDelay="0.70" arrival="57851.00" arrivalLane="-128361102#1_1" arrivalPos="274.68" arrivalSpeed="12.04" duration="250.00" routeLength="2250.49" waitingTime="40.00" waitingCount="3" stopTime="0.00" timeLoss="71.30" rerouteNo="1" devices="tripinfo_carIn107084:1 routing_carIn107084:1 emissions_carIn107084:1" vType="default_016" speedFactor="0.92" vaporized="">
        <emissions CO_abs="11063.514780" CO2_abs="565607.147766" HC_abs="63.589475" PMx_abs="9.878611" NOx_abs="230.175680" fuel_abs="243.132553" electricity_abs="0"/>
    </tripinfo>
    <tripinfo id="carIn77438:1" depart="57614.00" departLane="124812856#0_1" departPos="5.10" departSpeed="0.00" departDelay="1.10" arrival="57853.00" arrivalLane="-128361102#1_1" arrivalPos="274.68" arrivalSpeed="12.93" duration="239.00" routeLength="2250.49" waitingTime="20.00" waitingCount="4" stopTime="0.00" timeLoss="65.34" rerouteNo="1" devices="tripinfo_carIn77438:1 routing_carIn77438:1 emissions_carIn77438:1" vType="default_016" speedFactor="0.95" vaporized="">
        <emissions CO_abs="9098.479026" CO2_abs="535069.369996" HC_abs="53.934111" PMx_abs="9.172610" NOx_abs="216.817399" fuel_abs="230.004622" electricity_abs="0"/>
    </tripinfo>
    <tripinfo id="h3154c1:1" depart="57658.00" departLane="24634507_1" departPos="5.10" departSpeed="0.00" departDelay="0.00" arrival="57855.00" arrivalLane="-266565295#5_1" arrivalPos="172.76" arrivalSpeed="13.06" duration="197.00" routeLength="1206.22" waitingTime="87.00" waitingCount="1" stopTime="0.00" timeLoss="101.89" rerouteNo="1" devices="tripinfo_h3154c1:1 routing_h3154c1:1 emissions_h3154c1:1" vType="default_016" speedFactor="0.95" vaporized="">
        <emissions CO_abs="17040.478668" CO2_abs="491915.741212" HC_abs="89.116117" PMx_abs="9.947469" NOx_abs="209.132313" fuel_abs="211.459735" electricity_abs="0"/>
    </tripinfo>
    <tripinfo id="carIn73855:1" depart="57743.00" departLane="386687232#0_1" departPos="5.10" departSpeed="0.00" departDelay="0.50" arrival="57855.00" arrivalLane="-315358244_1" arrivalPos="33.95" arrivalSpeed="13.78" duration="112.00" routeLength="1157.39" waitingTime="11.00" waitingCount="2" stopTime="0.00" timeLoss="29.23" rerouteNo="1" devices="tripinfo_carIn73855:1 routing_carIn73855:1 emissions_carIn73855:1" vType="default_016" speedFactor="1.02" vaporized="">
        <emissions CO_abs="3736.645391" CO2_abs="262202.553463" HC_abs="23.133621" PMx_abs="4.396600" NOx_abs="104.708391" fuel_abs="112.709866" electricity_abs="0"/>
    </tripinfo>
    <tripinfo id="carIn126378:1" depart="57746.00" departLane="386687232#0_1" departPos="5.10" departSpeed="0.00" departDelay="1.80" arrival="57856.00" arrivalLane="-315358244_2" arrivalPos="33.95" arrivalSpeed="13.64" duration="110.00" routeLength="1157.39" waitingTime="9.00" waitingCount="2" stopTime="0.00" timeLoss="26.00" rerouteNo="1" devices="tripinfo_carIn126378:1 routing_carIn126378:1 emissions_carIn126378:1" vType="default_016" speedFactor="1.00" vaporized="">
        <emissions CO_abs="3933.086668" CO2_abs="259361.848540" HC_abs="23.973504" PMx_abs="4.423328" NOx_abs="104.333725" fuel_abs="111.488828" electricity_abs="0"/>
    </tripinfo>
    <tripinfo id="h17549c1:1" depart="57680.00" departLane="-447569998#1_1" departPos="5.10" departSpeed="0.00" departDelay="0.00" arrival="57858.00" arrivalLane="-315358254#1_1" arrivalPos="137.16" arrivalSpeed="13.10" duration="178.00" routeLength="1746.60" waitingTime="19.00" waitingCount="2" stopTime="0.00" timeLoss="41.31" rerouteNo="1" devices="tripinfo_h17549c1:1 routing_h17549c1:1 emissions_h17549c1:1" vType="default_016" speedFactor="1.00" vaporized="">
        <emissions CO_abs="6912.440015" CO2_abs="407511.870008" HC_abs="40.959582" PMx_abs="6.805003" NOx_abs="162.996207" fuel_abs="175.173184" electricity_abs="0"/>
    </tripinfo>
    <tripinfo id="h330c1:1" depart="57736.00" departLane="-32978638#0_1" departPos="5.10" departSpeed="0.00" departDelay="0.20" arrival="57864.00" arrivalLane="-266565295#5_1" arrivalPos="172.76" arrivalSpeed="14.46" duration="128.00" routeLength="370.53" waitingTime="91.00" waitingCount="1" stopTime="0.00" timeLoss="101.79" rerouteNo="1" devices="tripinfo_h330c1:1 routing_h330c1:1 emissions_h330c1:1" vType="default_016" speedFactor="1.04" vaporized="">
        <emissions CO_abs="16303.141254" CO2_abs="351982.445987" HC_abs="82.525730" PMx_abs="8.036153" NOx_abs="156.016844" fuel_abs="151.308701" electricity_abs="0"/>
    </tripinfo>
    <tripinfo id="50R_frequency3.17" depart="57674.00" departLane="-18809673#6_1" departPos="12.10" departSpeed="0.00" departDelay="0.70" arrival="57869.00" arrivalLane="201956811#0_1" arrivalPos="40.40" arrivalSpeed="10.33" duration="195.00" routeLength="1954.47" waitingTime="17.00" waitingCount="2" stopTime="0.00" timeLoss="50.00" rerouteNo="1" devices="tripinfo_50R_frequency3.17 routing_50R_frequency3.17 emissions_50R_frequency3.17" vType="bus" speedFactor="1.00" vaporized="">
        <emissions CO_abs="3714.286191" CO2_abs="2260295.224227" HC_abs="780.991830" PMx_abs="396.266866" NOx_abs="17727.348286" fuel_abs="963.961885" electricity_abs="0"/>
    </tripinfo>
    <tripinfo id="carIn48184:1" depart="57613.00" departLane="-306240162#1_0" departPos="5.10" departSpeed="0.00" departDelay="0.70" arrival="57884.00" arrivalLane="386687235_2" arrivalPos="80.84" arrivalSpeed="11.87" duration="271.00" routeLength="2257.41" waitingTime="63.00" waitingCount="4" stopTime="0.00" timeLoss="107.94" rerouteNo="1" devices="tripinfo_carIn48184:1 routing_carIn48184:1 emissions_carIn48184:1" vType="default_016" speedFactor="0.90" vaporized="">
        <emissions CO_abs="13890.703719" CO2_abs="636449.413194" HC_abs="78.120172" PMx_abs="11.716830" NOx_abs="262.086495" fuel_abs="273.585275" electricity_abs="0"/>
    </tripinfo>
    <tripinfo id="h5170c2:1" depart="57631.00" departLane="201201953#4_1" departPos="5.10" departSpeed="0.00" departDelay="0.00" arrival="57885.00" arrivalLane="-266565295#5_1" arrivalPos="172.76" arrivalSpeed="15.21" duration="254.00" routeLength="3097.92" waitingTime="21.00" waitingCount="2" stopTime="0.00" timeLoss="52.86" rerouteNo="1" devices="tripinfo_h5170c2:1 routing_h5170c2:1 emissions_h5170c2:1" vType="default_016" speedFactor="1.14" vaporized="">
        <emissions CO_abs="9897.378548" CO2_abs="661323.565920" HC_abs="60.495903" PMx_abs="11.732694" NOx_abs="266.174935" fuel_abs="284.274837" electricity_abs="0"/>
    </tripinfo>
    <tripinfo id="h16072c2:3" depart="57663.00" departLane="315358254#0_1" departPos="5.10" departSpeed="0.00" departDelay="2.50" arrival="57885.00" arrivalLane="386687235_1" arrivalPos="80.84" arrivalSpeed="10.68" duration="222.00" routeLength="1611.92" waitingTime="55.00" waitingCount="2" stopTime="0.00" timeLoss="76.28" rerouteNo="1" devices="tripinfo_h16072c2:3 routing_h16072c2:3 emissions_h16072c2:3" vType="default_016" speedFactor="0.81" vaporized="">
        <emissions CO_abs="13029.177184" CO2_abs="470845.426563" HC_abs="70.224757" PMx_abs="8.365340" NOx_abs="193.347371" fuel_abs="202.401134" electricity_abs="0"/>