<?xml version="1.0" encoding="UTF-8"?>

<!-- generated on 2021-10-26 20:35:41 by Eclipse SUMO sumo Version 1.10.0
<configuration xmlns:xsi="http://www.w3.org/2001/XMLSchema-instance" xsi:noNamespaceSchemaLocation="http://sumo.dlr.de/xsd/sumoConfiguration.xsd">

    <input>
        <net-file value="/Users/behradkoohy/sumo-scratchpad/RESCO/environments/ingolstadt21/ingolstadt21.net.xml"/>
        <route-files value="/Users/behradkoohy/sumo-scratchpad/RESCO/environments/ingolstadt21/ingolstadt21.rou.xml"/>
    </input>

    <output>
        <tripinfo-output value="/Users/behradkoohy/sumo-scratchpad/RESCO/logs/MPLight-tr0-ingolstadt21-21-mplight_full-pressure/tripinfo_2.xml"/>
        <tripinfo-output.write-unfinished value="true"/>
    </output>

    <time>
        <begin value="57600"/>
        <end value="61200"/>
    </time>

    <processing>
        <time-to-teleport value="-1"/>
    </processing>

    <report>
        <no-warnings value="true"/>
        <no-step-log value="true"/>
    </report>

    <emissions>
        <device.emissions.probability value="1"/>
    </emissions>

    <traci_server>
        <remote-port value="64380"/>
    </traci_server>

    <random_number>
        <random value="true"/>
    </random_number>

</configuration>
-->

<tripinfos xmlns:xsi="http://www.w3.org/2001/XMLSchema-instance" xsi:noNamespaceSchemaLocation="http://sumo.dlr.de/xsd/tripinfo_file.xsd">
    <tripinfo id="h15454c2:3" depart="57612.00" departLane="24608844_1" departPos="5.10" departSpeed="0.00" departDelay="0.50" arrival="57650.00" arrivalLane="32978638#0_1" arrivalPos="49.29" arrivalSpeed="14.04" duration="38.00" routeLength="354.79" waitingTime="0.00" waitingCount="0" stopTime="0.00" timeLoss="5.79" rerouteNo="1" devices="tripinfo_h15454c2:3 routing_h15454c2:3 emissions_h15454c2:3" vType="default_016" speedFactor="1.07" vaporized="">
        <emissions CO_abs="1679.930334" CO2_abs="94072.163373" HC_abs="9.847703" PMx_abs="1.639044" NOx_abs="38.481192" fuel_abs="40.437816" electricity_abs="0"/>
    </tripinfo>
    <tripinfo id="carIn53971:1" depart="57640.00" departLane="272042143_1" departPos="5.10" departSpeed="0.00" departDelay="0.80" arrival="57695.00" arrivalLane="24634414#1_1" arrivalPos="162.19" arrivalSpeed="7.36" duration="55.00" routeLength="493.04" waitingTime="0.00" waitingCount="0" stopTime="0.00" timeLoss="9.29" rerouteNo="1" devices="tripinfo_carIn53971:1 routing_carIn53971:1 emissions_carIn53971:1" vType="default_016" speedFactor="1.00" vaporized="">
        <emissions CO_abs="2565.585367" CO2_abs="138311.208797" HC_abs="14.911964" PMx_abs="2.426939" NOx_abs="56.863969" fuel_abs="59.454429" electricity_abs="0"/>
    </tripinfo>
    <tripinfo id="h7800c1:5" depart="57696.00" departLane="-447569998#1_1" departPos="5.10" departSpeed="0.00" departDelay="0.00" arrival="57722.00" arrivalLane="-447569998#1_2" arrivalPos="180.76" arrivalSpeed="7.15" duration="26.00" routeLength="175.66" waitingTime="0.00" waitingCount="0" stopTime="0.00" timeLoss="3.18" rerouteNo="1" devices="tripinfo_h7800c1:5 routing_h7800c1:5 emissions_h7800c1:5" vType="default_016" speedFactor="0.95" vaporized="">
        <emissions CO_abs="1213.701913" CO2_abs="52236.012887" HC_abs="6.725221" PMx_abs="0.861910" NOx_abs="21.324218" fuel_abs="22.454434" electricity_abs="0"/>
    </tripinfo>
    <tripinfo id="carIn22761:1" depart="57616.00" departLane="-306240162#1_0" departPos="5.10" departSpeed="0.00" departDelay="2.10" arrival="57728.00" arrivalLane="399835085#1_1" arrivalPos="212.23" arrivalSpeed="7.61" duration="112.00" routeLength="1093.26" waitingTime="7.00" waitingCount="1" stopTime="0.00" timeLoss="27.47" rerouteNo="1" devices="tripinfo_carIn22761:1 routing_carIn22761:1 emissions_carIn22761:1" vType="default_016" speedFactor="0.92" vaporized="">
        <emissions CO_abs="5143.575448" CO2_abs="301030.314891" HC_abs="30.402067" PMx_abs="5.494760" NOx_abs="123.102917" fuel_abs="129.400317" electricity_abs="0"/>
    </tripinfo>
    <tripinfo id="h3688c1:1" depart="57625.00" departLane="201201950#1_1" departPos="5.10" departSpeed="0.00" departDelay="0.00" arrival="57730.00" arrivalLane="32978638#0_1" arrivalPos="49.29" arrivalSpeed="14.54" duration="105.00" routeLength="1089.75" waitingTime="14.00" waitingCount="1" stopTime="0.00" timeLoss="29.57" rerouteNo="1" devices="tripinfo_h3688c1:1 routing_h3688c1:1 emissions_h3688c1:1" vType="default_016" speedFactor="1.07" vaporized="">
        <emissions CO_abs="5406.554847" CO2_abs="290328.500015" HC_abs="31.396288" PMx_abs="5.348905" NOx_abs="119.293594" fuel_abs="124.800346" electricity_abs="0"/>
    </tripinfo>
    <tripinfo id="h317c2:1" depart="57707.00" departLane="-32978638#0_1" departPos="5.10" departSpeed="0.00" departDelay="0.10" arrival="57736.00" arrivalLane="-266565295#5_1" arrivalPos="172.76" arrivalSpeed="16.04" duration="29.00" routeLength="370.53" waitingTime="0.00" waitingCount="0" stopTime="0.00" timeLoss="6.50" rerouteNo="1" devices="tripinfo_h317c2:1 routing_h317c2:1 emissions_h317c2:1" vType="default_016" speedFactor="1.24" vaporized="">
        <emissions CO_abs="1980.992136" CO2_abs="134144.352687" HC_abs="12.176352" PMx_abs="2.569142" NOx_abs="55.534957" fuel_abs="57.662598" electricity_abs="0"/>
    </tripinfo>
    <tripinfo id="S5R_frequency1.2" depart="57612.00" departLane="315358250#0_1" departPos="12.10" departSpeed="0.00" departDelay="0.40" arrival="57746.00" arrivalLane="386687235_1" arrivalPos="80.84" arrivalSpeed="13.65" duration="134.00" routeLength="1115.62" waitingTime="25.00" waitingCount="3" stopTime="0.00" timeLoss="52.97" rerouteNo="1" devices="tripinfo_S5R_frequency1.2 routing_S5R_frequency1.2 emissions_S5R_frequency1.2" vType="bus" speedFactor="1.00" vaporized="">
        <emissions CO_abs="2420.523460" CO2_abs="1388960.868764" HC_abs="519.424254" PMx_abs="256.688999" NOx_abs="11121.602111" fuel_abs="592.335134" electricity_abs="0"/>
    </tripinfo>
    <tripinfo id="carIn121703:1" depart="57647.00" departLane="386687232#0_1" departPos="5.10" departSpeed="0.00" departDelay="0.30" arrival="57757.00" arrivalLane="-315358244_1" arrivalPos="33.95" arrivalSpeed="12.09" duration="110.00" routeLength="1157.39" waitingTime="2.00" waitingCount="1" stopTime="0.00" timeLoss="15.40" rerouteNo="1" devices="tripinfo_carIn121703:1 routing_carIn121703:1 emissions_carIn121703:1" vType="default_016" speedFactor="0.90" vaporized="">
        <emissions CO_abs="3269.030739" CO2_abs="239766.543059" HC_abs="20.441743" PMx_abs="3.709126" NOx_abs="94.186239" fuel_abs="103.065874" electricity_abs="0"/>
    </tripinfo>
    <tripinfo id="h5979c1:5" depart="57669.00" departLane="399835085#1_1" departPos="5.10" departSpeed="0.00" departDelay="0.00" arrival="57757.00" arrivalLane="-315358254#1_1" arrivalPos="137.16" arrivalSpeed="13.07" duration="88.00" routeLength="659.33" waitingTime="0.00" waitingCount="0" stopTime="0.00" timeLoss="12.62" rerouteNo="1" devices="tripinfo_h5979c1:5 routing_h5979c1:5 emissions_h5979c1:5" vType="default_016" speedFactor="0.97" vaporized="">
        <emissions CO_abs="3588.769953" CO2_abs="176122.887613" HC_abs="20.368313" PMx_abs="2.756038" NOx_abs="70.508770" fuel_abs="75.708908" electricity_abs="0"/>
    </tripinfo>
    <tripinfo id="carIn60260:1" depart="57606.00" departLane="315358254#0_1" departPos="5.10" departSpeed="0.00" departDelay="0.90" arrival="57759.00" arrivalLane="399835085#1_1" arrivalPos="212.23" arrivalSpeed="8.14" duration="153.00" routeLength="430.98" waitingTime="100.00" waitingCount="1" stopTime="0.00" timeLoss="112.00" rerouteNo="1" devices="tripinfo_carIn60260:1 routing_carIn60260:1 emissions_carIn60260:1" vType="default_016" speedFactor="1.12" vaporized="">
        <emissions CO_abs="18245.563752" CO2_abs="379157.062571" HC_abs="91.956224" PMx_abs="8.526666" NOx_abs="167.773325" fuel_abs="162.991135" electricity_abs="0"/>
    </tripinfo>
    <tripinfo id="carIn27009:1" depart="57673.00" departLane="-447569998#1_1" departPos="5.10" departSpeed="0.00" departDelay="0.50" arrival="57768.00" arrivalLane="-26677539_1" arrivalPos="152.75" arrivalSpeed="7.38" duration="95.00" routeLength="699.63" waitingTime="0.00" waitingCount="0" stopTime="0.00" timeLoss="11.35" rerouteNo="1" devices="tripinfo_carIn27009:1 routing_carIn27009:1 emissions_carIn27009:1" vType="default_015" speedFactor="1.00" vaporized="">
        <emissions CO_abs="4057.552503" CO2_abs="194163.049864" HC_abs="22.927703" PMx_abs="3.101129" NOx_abs="78.453776" fuel_abs="83.463685" electricity_abs="0"/>
    </tripinfo>
    <tripinfo id="h3326c1:2" depart="57656.00" departLane="22716069#0_1" departPos="5.10" departSpeed="0.00" departDelay="0.00" arrival="57769.00" arrivalLane="24634517#13_1" arrivalPos="111.62" arrivalSpeed="13.66" duration="113.00" routeLength="1312.81" waitingTime="0.00" waitingCount="0" stopTime="0.00" timeLoss="15.61" rerouteNo="1" devices="tripinfo_h3326c1:2 routing_h3326c1:2 emissions_h3326c1:2" vType="default_016" speedFactor="1.00" vaporized="">
        <emissions CO_abs="4257.683946" CO2_abs="310275.365635" HC_abs="26.642332" PMx_abs="5.297134" NOx_abs="124.977847" fuel_abs="133.374015" electricity_abs="0"/>
    </tripinfo>
    <tripinfo id="h645c1:1" depart="57622.00" departLane="266565295#5_1" departPos="5.10" departSpeed="0.00" departDelay="0.40" arrival="57781.00" arrivalLane="-315358244_1" arrivalPos="33.95" arrivalSpeed="15.31" duration="159.00" routeLength="1910.83" waitingTime="17.00" waitingCount="1" stopTime="0.00" timeLoss="34.51" rerouteNo="1" devices="tripinfo_h645c1:1 routing_h645c1:1 emissions_h645c1:1" vType="default_016" speedFactor="1.11" vaporized="">
        <emissions CO_abs="6237.400164" CO2_abs="397187.403439" HC_abs="37.554941" PMx_abs="6.926714" NOx_abs="158.930719" fuel_abs="170.734384" electricity_abs="0"/>
    </tripinfo>
    <tripinfo id="h330c1:1" depart="57736.00" departLane="-32978638#0_1" departPos="5.10" departSpeed="0.00" departDelay="0.20" arrival="57784.00" arrivalLane="-266565295#5_1" arrivalPos="172.76" arrivalSpeed="13.48" duration="48.00" routeLength="370.53" waitingTime="12.00" waitingCount="1" stopTime="0.00" timeLoss="21.18" rerouteNo="1" devices="tripinfo_h330c1:1 routing_h330c1:1 emissions_h330c1:1" vType="default_016" speedFactor="1.02" vaporized="">
        <emissions CO_abs="3253.345301" CO2_abs="139645.479305" HC_abs="18.110163" PMx_abs="2.746758" NOx_abs="58.965897" fuel_abs="60.028129" electricity_abs="0"/>
    </tripinfo>
    <tripinfo id="h12244c1:3" depart="57612.00" departLane="315358244_1" departPos="5.10" departSpeed="0.00" departDelay="0.40" arrival="57788.00" arrivalLane="386687235_1" arrivalPos="80.84" arrivalSpeed="11.63" duration="176.00" routeLength="1186.14" waitingTime="51.00" waitingCount="1" stopTime="0.00" timeLoss="76.05" rerouteNo="1" devices="tripinfo_h12244c1:3 routing_h12244c1:3 emissions_h12244c1:3" vType="default_016" speedFactor="0.86" vaporized="">
        <emissions CO_abs="12538.289234" CO2_abs="409300.366215" HC_abs="66.619415" PMx_abs="7.740547" NOx_abs="171.045290" fuel_abs="175.945242" electricity_abs="0"/>
    </tripinfo>
    <tripinfo id="h9563c2:5" depart="57631.00" departLane="315358244_1" departPos="5.10" departSpeed="0.00" departDelay="0.70" arrival="57790.00" arrivalLane="386687235_1" arrivalPos="80.84" arrivalSpeed="12.44" duration="159.00" routeLength="1186.14" waitingTime="40.00" waitingCount="3" stopTime="0.00" timeLoss="65.43" rerouteNo="1" devices="tripinfo_h9563c2:5 routing_h9563c2:5 emissions_h9563c2:5" vType="default_016" speedFactor="0.93" vaporized="">
        <emissions CO_abs="8415.096501" CO2_abs="361586.044257" HC_abs="46.762657" PMx_abs="6.537397" NOx_abs="148.808617" fuel_abs="155.432587" electricity_abs="0"/>
    </tripinfo>
    <tripinfo id="carIn28951:1" depart="57606.00" departLane="10425609#0_1" departPos="5.10" departSpeed="0.00" departDelay="0.20" arrival="57803.00" arrivalLane="-128361102#1_1" arrivalPos="274.68" arrivalSpeed="13.34" duration="197.00" routeLength="2113.04" waitingTime="20.00" waitingCount="2" stopTime="0.00" timeLoss="46.16" rerouteNo="1" devices="tripinfo_carIn28951:1 routing_carIn28951:1 emissions_carIn28951:1" vType="default_016" speedFactor="1.03" vaporized="">
        <emissions CO_abs="7169.740263" CO2_abs="481378.700798" HC_abs="43.859434" PMx_abs="8.090213" NOx_abs="192.032916" fuel_abs="206.924753" electricity_abs="0"/>
    </tripinfo>
    <tripinfo id="carIn86816:1" depart="57617.00" departLane="128361102#0_1" departPos="5.10" departSpeed="0.00" departDelay="0.80" arrival="57804.00" arrivalLane="201956811#0_1" arrivalPos="40.40" arrivalSpeed="13.25" duration="187.00" routeLength="2067.33" waitingTime="7.00" waitingCount="2" stopTime="0.00" timeLoss="34.29" rerouteNo="1" devices="tripinfo_carIn86816:1 routing_carIn86816:1 emissions_carIn86816:1" vType="default_016" speedFactor="0.99" vaporized="">
        <emissions CO_abs="6124.304625" CO2_abs="465296.048297" HC_abs="38.701228" PMx_abs="7.507810" NOx_abs="183.962162" fuel_abs="200.011240" electricity_abs="0"/>
    </tripinfo>
    <tripinfo id="carIn129809:1" depart="57729.00" departLane="-447569998#1_1" departPos="5.10" departSpeed="0.00" departDelay="1.00" arrival="57804.00" arrivalLane="-315358244_1" arrivalPos="33.95" arrivalSpeed="12.16" duration="75.00" routeLength="706.49" waitingTime="0.00" waitingCount="0" stopTime="0.00" timeLoss="7.23" rerouteNo="1" devices="tripinfo_carIn129809:1 routing_carIn129809:1 emissions_carIn129809:1" vType="default_015" speedFactor="0.89" vaporized="">
        <emissions CO_abs="2545.700420" CO2_abs="163773.984028" HC_abs="15.361461" PMx_abs="2.478287" NOx_abs="64.332253" fuel_abs="70.400082" electricity_abs="0"/>
    </tripinfo>
    <tripinfo id="carIn30817:1" depart="57681.00" departLane="315358244_1" departPos="5.10" departSpeed="0.00" departDelay="0.20" arrival="57805.00" arrivalLane="447569997#1_1" arrivalPos="180.93" arrivalSpeed="6.29" duration="124.00" routeLength="718.04" waitingTime="38.00" waitingCount="2" stopTime="0.00" timeLoss="54.61" rerouteNo="1" devices="tripinfo_carIn30817:1 routing_carIn30817:1 emissions_carIn30817:1" vType="default_016" speedFactor="0.89" vaporized="">
        <emissions CO_abs="7679.496550" CO2_abs="256144.654770" HC_abs="40.903377" PMx_abs="4.702969" NOx_abs="106.445241" fuel_abs="110.108500" electricity_abs="0"/>
    </tripinfo>
    <tripinfo id="carIn107084:1" depart="57601.00" departLane="124812856#0_1" departPos="5.10" departSpeed="0.00" departDelay="0.70" arrival="57809.00" arrivalLane="-128361102#1_1" arrivalPos="274.68" arrivalSpeed="15.69" duration="208.00" routeLength="2232.46" waitingTime="12.00" waitingCount="4" stopTime="0.00" timeLoss="67.19" rerouteNo="1" devices="tripinfo_carIn107084:1 routing_carIn107084:1 emissions_carIn107084:1" vType="default_016" speedFactor="1.16" vaporized="">
        <emissions CO_abs="8334.890221" CO2_abs="574097.390891" HC_abs="51.366823" PMx_abs="10.130408" NOx_abs="232.606355" fuel_abs="246.779695" electricity_abs="0"/>
    </tripinfo>
    <tripinfo id="carIn102915:1" depart="57643.00" departLane="128361102#0_1" departPos="5.10" departSpeed="0.00" departDelay="0.40" arrival="57809.00" arrivalLane="201956811#0_1" arrivalPos="40.40" arrivalSpeed="13.70" duration="166.00" routeLength="2067.33" waitingTime="0.00" waitingCount="0" stopTime="0.00" timeLoss="16.31" rerouteNo="1" devices="tripinfo_carIn102915:1 routing_carIn102915:1 emissions_carIn102915:1" vType="default_016" speedFactor="1.01" vaporized="">
        <emissions CO_abs="4359.775952" CO2_abs="407934.097343" HC_abs="29.208572" PMx_abs="6.176308" NOx_abs="157.493966" fuel_abs="175.353605" electricity_abs="0"/>
    </tripinfo>
    <tripinfo id="carIn50326:1" depart="57651.00" departLane="128361102#0_1" departPos="5.10" departSpeed="0.00" departDelay="0.30" arrival="57812.00" arrivalLane="18809673#0_1" arrivalPos="473.56" arrivalSpeed="12.04" duration="161.00" routeLength="1591.07" waitingTime="0.00" waitingCount="0" stopTime="0.00" timeLoss="15.61" rerouteNo="1" devices="tripinfo_carIn50326:1 routing_carIn50326:1 emissions_carIn50326:1" vType="default_016" speedFactor="0.90" vaporized="">
        <emissions CO_abs="5004.450640" CO2_abs="330675.856231" HC_abs="30.429455" PMx_abs="5.139876" NOx_abs="130.766157" fuel_abs="142.144399" electricity_abs="0"/>
    </tripinfo>
    <tripinfo id="carIn80064:1" depart="57603.00" departLane="128361109#1_1" departPos="5.10" departSpeed="0.00" departDelay="0.40" arrival="57813.00" arrivalLane="-315358254#1_1" arrivalPos="137.16" arrivalSpeed="11.28" duration="210.00" routeLength="1587.97" waitingTime="58.00" waitingCount="4" stopTime="0.00" timeLoss="108.03" rerouteNo="1" devices="tripinfo_carIn80064:1 routing_carIn80064:1 emissions_carIn80064:1" vType="default_016" speedFactor="0.88" vaporized="">
        <emissions CO_abs="13969.878832" CO2_abs="546953.272786" HC_abs="76.507654" PMx_abs="10.956925" NOx_abs="230.552006" fuel_abs="235.114732" electricity_abs="0"/>
    </tripinfo>
    <tripinfo id="h16072c2:3" depart="57663.00" departLane="315358254#0_1" departPos="5.10" departSpeed="0.00" departDelay="2.50" arrival="57814.00" arrivalLane="386687235_1" arrivalPos="80.84" arrivalSpeed="12.55" duration="151.00" routeLength="1611.92" waitingTime="7.00" waitingCount="2" stopTime="0.00" timeLoss="26.39" rerouteNo="1" devices="tripinfo_h16072c2:3 routing_h16072c2:3 emissions_h16072c2:3" vType="default_016" speedFactor="0.94" vaporized="">
        <emissions CO_abs="4668.320460" CO2_abs="357217.288052" HC_abs="29.557224" PMx_abs="5.583802" NOx_abs="140.382066" fuel_abs="153.552938" electricity_abs="0"/>
    </tripinfo>
    <tripinfo id="carIn12365:1" depart="57713.00" departLane="315358244_1" departPos="5.10" departSpeed="0.00" departDelay="0.50" arrival="57815.00" arrivalLane="447569997#1_1" arrivalPos="180.93" arrivalSpeed="6.83" duration="102.00" routeLength="718.04" waitingTime="18.00" waitingCount="1" stopTime="0.00" timeLoss="30.82" rerouteNo="1" devices="tripinfo_carIn12365:1 routing_carIn12365:1 emissions_carIn12365:1" vType="default_016" speedFactor="0.87" vaporized="">
        <emissions CO_abs="5324.443099" CO2_abs="211166.582981" HC_abs="29.128737" PMx_abs="3.672199" NOx_abs="86.431530" fuel_abs="90.773299" electricity_abs="0"/>
    </tripinfo>
    <tripinfo id="carIn82278:1" depart="57702.00" departLane="-306240162#1_0" departPos="5.10" departSpeed="0.00" departDelay="0.70" arrival="57824.00" arrivalLane="399835085#1_1" arrivalPos="212.23" arrivalSpeed="9.72" duration="122.00" routeLength="1093.26" waitingTime="25.00" waitingCount="2" stopTime="0.00" timeLoss="55.56" rerouteNo="1" devices="tripinfo_carIn82278:1 routing_carIn82278:1 emissions_carIn82278:1" vType="default_016" speedFactor="1.18" vaporized="">
        <emissions CO_abs="8302.824635" CO2_abs="381468.561631" HC_abs="46.897591" PMx_abs="7.625348" NOx_abs="160.130597" fuel_abs="163.977911" electricity_abs="0"/>
    </tripinfo>
    <tripinfo id="h4538c1:1" depart="57701.00" departLane="-10427692#1_1" departPos="5.10" departSpeed="0.00" departDelay="0.00" arrival="57826.00" arrivalLane="-128361102#1_1" arrivalPos="274.68" arrivalSpeed="13.27" duration="125.00" routeLength="440.74" waitingTime="83.00" waitingCount="1" stopTime="0.00" timeLoss="92.88" rerouteNo="1" devices="tripinfo_h4538c1:1 routing_h4538c1:1 emissions_h4538c1:1" vType="default_016" speedFactor="0.98" vaporized="">
        <emissions CO_abs="14859.612083" CO2_abs="326586.119684" HC_abs="75.318678" PMx_abs="7.240108" NOx_abs="143.239052" fuel_abs="140.391551" electricity_abs="0"/>
    </tripinfo>
    <tripinfo id="carIn107282:1" depart="57749.00" departLane="-447569998#1_1" departPos="5.10" departSpeed="0.00" departDelay="0.00" arrival="57827.00" arrivalLane="315358242#0_1" arrivalPos="165.37" arrivalSpeed="12.64" duration="78.00" routeLength="448.50" waitingTime="26.00" waitingCount="1" stopTime="0.00" timeLoss="34.12" rerouteNo="1" devices="tripinfo_carIn107282:1 routing_carIn107282:1 emissions_carIn107282:1" vType="default_016" speedFactor="0.95" vaporized="">
        <emissions CO_abs="5744.383208" CO2_abs="176805.531636" HC_abs="30.267123" PMx_abs="3.392831" NOx_abs="74.498562" fuel_abs="76.003264" electricity_abs="0"/>
    </tripinfo>
    <tripinfo id="randUni15030:1" depart="57735.00" departLane="386687232#0_1" departPos="5.10" departSpeed="0.00" departDelay="0.10" arrival="57828.00" arrivalLane="26677539_1" arrivalPos="151.98" arrivalSpeed="8.16" duration="93.00" routeLength="919.89" waitingTime="0.00" waitingCount="0" stopTime="0.00" timeLoss="11.21" rerouteNo="1" devices="tripinfo_randUni15030:1 routing_randUni15030:1 emissions_randUni15030:1" vType="random_016" speedFactor="1.02" vaporized="">
        <emissions CO_abs="3587.788299" CO2_abs="221587.652959" HC_abs="21.409680" PMx_abs="3.483618" NOx_abs="87.925462" fuel_abs="95.251846" electricity_abs="0"/>
    </tripinfo>
    <tripinfo id="h7181c1:1" depart="57660.00" departLane="315358254#0_1" departPos="5.10" departSpeed="0.00" departDelay="0.10" arrival="57830.00" arrivalLane="306240162#0_0" arrivalPos="220.43" arrivalSpeed="17.21" duration="170.00" routeLength="932.35" waitingTime="96.00" waitingCount="3" stopTime="0.00" timeLoss="122.75" rerouteNo="1" devices="tripinfo_h7181c1:1 routing_h7181c1:1 emissions_h7181c1:1" vType="default_016" speedFactor="1.10" vaporized="">
        <emissions CO_abs="18730.281146" CO2_abs="571947.629487" HC_abs="98.767246" PMx_abs="12.572289" NOx_abs="247.930066" fuel_abs="245.860713" electricity_abs="0"/>
    </tripinfo>
    <tripinfo id="carIn118591:1" depart="57689.00" departLane="315358244_1" departPos="5.10" departSpeed="0.00" departDelay="0.20" arrival="57830.00" arrivalLane="386687235_1" arrivalPos="80.84" arrivalSpeed="12.92" duration="141.00" routeLength="1186.14" waitingTime="32.00" waitingCount="2" stopTime="0.00" timeLoss="52.03" rerouteNo="1" devices="tripinfo_carIn118591:1 routing_carIn118591:1 emissions_carIn118591:1" vType="default_016" speedFactor="0.98" vaporized="">
        <emissions CO_abs="7930.396199" CO2_abs="344139.150832" HC_abs="44.177465" PMx_abs="6.340600" NOx_abs="142.126921" fuel_abs="147.932587" electricity_abs="0"/>
    </tripinfo>
    <tripinfo id="h9953c2:3" depart="57682.00" departLane="-54169231#2_1" departPos="5.10" departSpeed="0.00" departDelay="0.00" arrival="57834.00" arrivalLane="386687235_1" arrivalPos="80.84" arrivalSpeed="14.91" duration="152.00" routeLength="1535.60" waitingTime="8.00" waitingCount="2" stopTime="0.00" timeLoss="34.73" rerouteNo="1" devices="tripinfo_h9953c2:3 routing_h9953c2:3 emissions_h9953c2:3" vType="default_016" speedFactor="1.08" vaporized="">
        <emissions CO_abs="6903.615118" CO2_abs="431741.378558" HC_abs="41.592914" PMx_abs="7.846908" NOx_abs="177.588541" fuel_abs="185.587071" electricity_abs="0"/>
    </tripinfo>
    <tripinfo id="carIn73855:1" depart="57743.00" departLane="386687232#0_1" departPos="5.10" departSpeed="0.00" departDelay="0.50" arrival="57838.00" arrivalLane="-315358244_1" arrivalPos="33.95" arrivalSpeed="12.96" duration="95.00" routeLength="1157.39" waitingTime="0.00" waitingCount="0" stopTime="0.00" timeLoss="8.30" rerouteNo="1" devices="tripinfo_carIn73855:1 routing_carIn73855:1 emissions_carIn73855:1" vType="default_016" speedFactor="0.98" vaporized="">
        <emissions CO_abs="2617.018602" CO2_abs="230162.694838" HC_abs="17.271344" PMx_abs="3.529794" NOx_abs="89.481079" fuel_abs="98.937248" electricity_abs="0"/>
    </tripinfo>
    <tripinfo id="h11737c1:1" depart="57665.00" departLane="272042143_1" departPos="5.10" departSpeed="0.00" departDelay="1.50" arrival="57840.00" arrivalLane="-315358254#1_1" arrivalPos="137.16" arrivalSpeed="10.12" duration="175.00" routeLength="1596.88" waitingTime="7.00" waitingCount="2" stopTime="0.00" timeLoss="26.92" rerouteNo="1" devices="tripinfo_h11737c1:1 routing_h11737c1:1 emissions_h11737c1:1" vType="default_016" speedFactor="0.79" vaporized="">
        <emissions CO_abs="5179.394204" CO2_abs="338523.118301" HC_abs="31.340511" PMx_abs="4.941574" NOx_abs="132.023807" fuel_abs="145.518139" electricity_abs="0"/>
    </tripinfo>
    <tripinfo id="h3568c1:3" depart="57656.00" departLane="266565295#5_1" departPos="5.10" departSpeed="0.00" departDelay="0.80" arrival="57841.00" arrivalLane="-24634415_1" arrivalPos="62.03" arrivalSpeed="10.76" duration="185.00" routeLength="807.40" waitingTime="87.00" waitingCount="2" stopTime="0.00" timeLoss="108.04" rerouteNo="1" devices="tripinfo_h3568c1:3 routing_h3568c1:3 emissions_h3568c1:3" vType="default_016" speedFactor="0.84" vaporized="">
        <emissions CO_abs="17254.651070" CO2_abs="439886.762220" HC_abs="88.876003" PMx_abs="9.339049" NOx_abs="191.241333" fuel_abs="189.094952" electricity_abs="0"/>
    </tripinfo>
    <tripinfo id="carIn126288:1" depart="57674.00" departLane="272042143_1" departPos="5.10" departSpeed="0.00" departDelay="0.00" arrival="57842.00" arrivalLane="-315358254#1_1" arrivalPos="137.16" arrivalSpeed="12.46" duration="168.00" routeLength="1596.88" waitingTime="6.00" waitingCount="2" stopTime="0.00" timeLoss="40.13" rerouteNo="1" devices="tripinfo_carIn126288:1 routing_carIn126288:1 emissions_carIn126288:1" vType="default_016" speedFactor="0.92" vaporized="">
        <emissions CO_abs="6228.645610" CO2_abs="390218.014281" HC_abs="37.445806" PMx_abs="6.482522" NOx_abs="157.311967" fuel_abs="167.738812" electricity_abs="0"/>
    </tripinfo>
    <tripinfo id="randUni33724:1" depart="57646.00" departLane="128361102#0_1" departPos="5.10" departSpeed="0.00" departDelay="1.20" arrival="57845.00" arrivalLane="201956811#0_1" arrivalPos="40.40" arrivalSpeed="13.24" duration="199.00" routeLength="2067.33" waitingTime="22.00" waitingCount="2" stopTime="0.00" timeLoss="52.13" rerouteNo="1" devices="tripinfo_randUni33724:1 routing_randUni33724:1 emissions_randUni33724:1" vType="random_016" speedFactor="1.03" vaporized="">
        <emissions CO_abs="7690.446563" CO2_abs="490465.797887" HC_abs="46.374587" PMx_abs="8.316053" NOx_abs="196.181963" fuel_abs="210.831119" electricity_abs="0"/>
    </tripinfo>
    <tripinfo id="carIn8642:1" depart="57774.00" departLane="-447569998#1_1" departPos="5.10" departSpeed="0.00" departDelay="0.90" arrival="57849.00" arrivalLane="-315358244_1" arrivalPos="33.95" arrivalSpeed="13.28" duration="75.00" routeLength="706.49" waitingTime="2.00" waitingCount="1" stopTime="0.00" timeLoss="13.23" rerouteNo="1" devices="tripinfo_carIn8642:1 routing_carIn8642:1 emissions_carIn8642:1" vType="default_016" speedFactor="0.97" vaporized="">
        <emissions CO_abs="2801.944361" CO2_abs="167931.969129" HC_abs="16.650149" PMx_abs="2.717793" NOx_abs="66.959324" fuel_abs="72.187347" electricity_abs="0"/>
    </tripinfo>
    <tripinfo id="50R_frequency3.17" depart="57674.00" departLane="-18809673#6_1" departPos="12.10" departSpeed="0.00" departDelay="0.70" arrival="57850.00" arrivalLane="201956811#0_1" arrivalPos="40.40" arrivalSpeed="12.86" duration="176.00" routeLength="1954.47" waitingTime="3.00" waitingCount="1" stopTime="0.00" timeLoss="30.61" rerouteNo="1" devices="tripinfo_50R_frequency3.17 routing_50R_frequency3.17 emissions_50R_frequency3.17" vType="bus" speedFactor="1.00" vaporized="">
        <emissions CO_abs="3425.220255" CO2_abs="2178555.536980" HC_abs="716.122135" PMx_abs="367.655701" NOx_abs="16821.186284" fuel_abs="929.136250" electricity_abs="0"/>
    </tripinfo>
    <tripinfo id="randUni31145:1" depart="57814.00" departLane="10425609#0_1" departPos="5.10" departSpeed="0.00" departDelay="0.30" arrival="57852.00" arrivalLane="201956810_1" arrivalPos="71.65" arrivalSpeed="13.01" duration="38.00" routeLength="255.78" waitingTime="8.00" waitingCount="1" stopTime="0.00" timeLoss="17.62" rerouteNo="1" devices="tripinfo_randUni31145:1 routing_randUni31145:1 emissions_randUni31145:1" vType="random_016" speedFactor="0.99" vaporized="">
        <emissions CO_abs="2206.661998" CO2_abs="103555.857145" HC_abs="12.490001" PMx_abs="1.984328" NOx_abs="43.628494" fuel_abs="44.514492" electricity_abs="0"/>
    </tripinfo>
    <tripinfo id="carIn81860:1" depart="57712.00" departLane="128361102#0_1" departPos="5.10" departSpeed="0.00" departDelay="0.60" arrival="57854.00" arrivalLane="-24634517#17_1" arrivalPos="6.43" arrivalSpeed="6.76" duration="142.00" routeLength="1229.64" waitingTime="13.00" waitingCount="3" stopTime="0.00" timeLoss="44.78" rerouteNo="1" devices="tripinfo_carIn81860:1 routing_carIn81860:1 emissions_carIn81860:1" vType="default_016" speedFactor="0.93" vaporized="">
        <emissions CO_abs="5480.611415" CO2_abs="301513.953941" HC_abs="31.982886" PMx_abs="5.132139" NOx_abs="122.030023" fuel_abs="129.608970" electricity_abs="0"/>
    </tripinfo>
    <tripinfo id="randUni2407:1" depart="57820.00" departLane="10425609#0_1" departPos="5.10" departSpeed="0.00" departDelay="0.80" arrival="57854.00" arrivalLane="201956810_1" arrivalPos="71.65" arrivalSpeed="12.25" duration="34.00" routeLength="255.78" waitingTime="3.00" waitingCount="1" stopTime="0.00" timeLoss="13.59" rerouteNo="1" devices="tripinfo_randUni2407:1 routing_randUni2407:1 emissions_randUni2407:1" vType="random_016" speedFactor="0.97" vaporized="">
        <emissions CO_abs="1996.553425" CO2_abs="98523.544448" HC_abs="11.429765" PMx_abs="1.960414" NOx_abs="42.107791" fuel_abs="42.351091" electricity_abs="0"/>
    </tripinfo>
    <tripinfo id="h3154c1:1" depart="57658.00" departLane="24634507_1" departPos="5.10" departSpeed="0.00" departDelay="0.00" arrival="57859.00" arrivalLane="-266565295#5_1" arrivalPos="172.76" arrivalSpeed="12.08" duration="201.00" routeLength="1206.22" waitingTime="80.00" waitingCount="2" stopTime="0.00" timeLoss="101.58" rerouteNo="1" devices="tripinfo_h3154c1:1 routing_h3154c1:1 emissions_h3154c1:1" vType="default_016" speedFactor="0.90" vaporized="">
        <emissions CO_abs="16352.066120" CO2_abs="500336.366799" HC_abs="86.155490" PMx_abs="9.888445" NOx_abs="211.821278" fuel_abs="215.078958" electricity_abs="0"/>