<?xml version="1.0" encoding="UTF-8"?>

<!-- generated on 2021-10-26 22:00:39 by Eclipse SUMO sumo Version 1.10.0
<configuration xmlns:xsi="http://www.w3.org/2001/XMLSchema-instance" xsi:noNamespaceSchemaLocation="http://sumo.dlr.de/xsd/sumoConfiguration.xsd">

    <input>
        <net-file value="/Users/behradkoohy/sumo-scratchpad/RESCO/environments/ingolstadt21/ingolstadt21.net.xml"/>
        <route-files value="/Users/behradkoohy/sumo-scratchpad/RESCO/environments/ingolstadt21/ingolstadt21.rou.xml"/>
    </input>

    <output>
        <tripinfo-output value="/Users/behradkoohy/sumo-scratchpad/RESCO/logs/MPLight-tr0-ingolstadt21-21-mplight_full-pressure/tripinfo_79.xml"/>
        <tripinfo-output.write-unfinished value="true"/>
    </output>

    <time>
        <begin value="57600"/>
        <end value="61200"/>
    </time>

    <processing>
        <time-to-teleport value="-1"/>
    </processing>

    <report>
        <no-warnings value="true"/>
        <no-step-log value="true"/>
    </report>

    <emissions>
        <device.emissions.probability value="1"/>
    </emissions>

    <traci_server>
        <remote-port value="49228"/>
    </traci_server>

    <random_number>
        <random value="true"/>
    </random_number>

</configuration>
-->

<tripinfos xmlns:xsi="http://www.w3.org/2001/XMLSchema-instance" xsi:noNamespaceSchemaLocation="http://sumo.dlr.de/xsd/tripinfo_file.xsd">
    <tripinfo id="h15454c2:3" depart="57612.00" departLane="24608844_1" departPos="5.10" departSpeed="0.00" departDelay="0.50" arrival="57663.00" arrivalLane="32978638#0_1" arrivalPos="49.29" arrivalSpeed="11.55" duration="51.00" routeLength="354.79" waitingTime="1.00" waitingCount="1" stopTime="0.00" timeLoss="9.94" rerouteNo="1" devices="tripinfo_h15454c2:3 routing_h15454c2:3 emissions_h15454c2:3" vType="default_016" speedFactor="0.84" vaporized="">
        <emissions CO_abs="2361.976993" CO2_abs="106428.825206" HC_abs="13.223651" PMx_abs="1.860027" NOx_abs="43.934354" fuel_abs="45.749794" electricity_abs="0"/>
    </tripinfo>
    <tripinfo id="carIn53971:1" depart="57640.00" departLane="272042143_1" departPos="5.10" departSpeed="0.00" departDelay="0.80" arrival="57694.00" arrivalLane="24634414#1_1" arrivalPos="162.19" arrivalSpeed="7.33" duration="54.00" routeLength="493.04" waitingTime="0.00" waitingCount="0" stopTime="0.00" timeLoss="8.08" rerouteNo="1" devices="tripinfo_carIn53971:1 routing_carIn53971:1 emissions_carIn53971:1" vType="default_016" speedFactor="0.99" vaporized="">
        <emissions CO_abs="2381.941980" CO2_abs="138367.360624" HC_abs="14.063497" PMx_abs="2.344964" NOx_abs="56.130857" fuel_abs="59.478557" electricity_abs="0"/>
    </tripinfo>
    <tripinfo id="carIn60260:1" depart="57606.00" departLane="315358254#0_1" departPos="5.10" departSpeed="0.00" departDelay="0.90" arrival="57718.00" arrivalLane="399835085#1_1" arrivalPos="212.23" arrivalSpeed="6.19" duration="112.00" routeLength="430.98" waitingTime="50.00" waitingCount="1" stopTime="0.00" timeLoss="59.87" rerouteNo="1" devices="tripinfo_carIn60260:1 routing_carIn60260:1 emissions_carIn60260:1" vType="default_016" speedFactor="0.89" vaporized="">
        <emissions CO_abs="10191.229776" CO2_abs="239066.691396" HC_abs="51.968467" PMx_abs="5.022146" NOx_abs="103.831511" fuel_abs="102.768802" electricity_abs="0"/>
    </tripinfo>
    <tripinfo id="h3568c1:3" depart="57656.00" departLane="266565295#5_1" departPos="5.10" departSpeed="0.00" departDelay="0.80" arrival="57730.00" arrivalLane="-24634415_1" arrivalPos="62.03" arrivalSpeed="14.31" duration="74.00" routeLength="807.40" waitingTime="0.00" waitingCount="0" stopTime="0.00" timeLoss="12.25" rerouteNo="1" devices="tripinfo_h3568c1:3 routing_h3568c1:3 emissions_h3568c1:3" vType="default_016" speedFactor="1.05" vaporized="">
        <emissions CO_abs="3252.257717" CO2_abs="215159.734854" HC_abs="19.845039" PMx_abs="3.853243" NOx_abs="87.993171" fuel_abs="92.487864" electricity_abs="0"/>
    </tripinfo>
    <tripinfo id="h4538c1:1" depart="57701.00" departLane="-10427692#1_1" departPos="5.10" departSpeed="0.00" departDelay="0.00" arrival="57746.00" arrivalLane="-128361102#1_1" arrivalPos="274.68" arrivalSpeed="13.63" duration="45.00" routeLength="440.74" waitingTime="3.00" waitingCount="1" stopTime="0.00" timeLoss="12.76" rerouteNo="1" devices="tripinfo_h4538c1:1 routing_h4538c1:1 emissions_h4538c1:1" vType="default_016" speedFactor="0.98" vaporized="">
        <emissions CO_abs="1843.143942" CO2_abs="117503.119447" HC_abs="11.147656" PMx_abs="2.028878" NOx_abs="47.615685" fuel_abs="50.509680" electricity_abs="0"/>
    </tripinfo>
    <tripinfo id="h5979c1:5" depart="57669.00" departLane="399835085#1_1" departPos="5.10" departSpeed="0.00" departDelay="0.00" arrival="57770.00" arrivalLane="-315358254#1_1" arrivalPos="137.16" arrivalSpeed="10.28" duration="101.00" routeLength="659.33" waitingTime="0.00" waitingCount="0" stopTime="0.00" timeLoss="12.73" rerouteNo="1" devices="tripinfo_h5979c1:5 routing_h5979c1:5 emissions_h5979c1:5" vType="default_016" speedFactor="0.83" vaporized="">
        <emissions CO_abs="4078.384705" CO2_abs="168233.467829" HC_abs="22.417249" PMx_abs="2.729128" NOx_abs="68.363649" fuel_abs="72.317899" electricity_abs="0"/>
    </tripinfo>
    <tripinfo id="h3326c1:2" depart="57656.00" departLane="22716069#0_1" departPos="5.10" departSpeed="0.00" departDelay="0.00" arrival="57771.00" arrivalLane="24634517#13_1" arrivalPos="111.62" arrivalSpeed="13.28" duration="115.00" routeLength="1312.81" waitingTime="0.00" waitingCount="0" stopTime="0.00" timeLoss="13.45" rerouteNo="1" devices="tripinfo_h3326c1:2 routing_h3326c1:2 emissions_h3326c1:2" vType="default_016" speedFactor="0.96" vaporized="">
        <emissions CO_abs="4216.555966" CO2_abs="315325.391320" HC_abs="26.586913" PMx_abs="5.278099" NOx_abs="126.389691" fuel_abs="135.544870" electricity_abs="0"/>
    </tripinfo>
    <tripinfo id="h317c2:1" depart="57707.00" departLane="-32978638#0_1" departPos="5.10" departSpeed="0.00" departDelay="0.10" arrival="57785.00" arrivalLane="-266565295#5_1" arrivalPos="172.76" arrivalSpeed="13.19" duration="78.00" routeLength="370.53" waitingTime="43.00" waitingCount="1" stopTime="0.00" timeLoss="51.05" rerouteNo="1" devices="tripinfo_h317c2:1 routing_h317c2:1 emissions_h317c2:1" vType="default_016" speedFactor="1.03" vaporized="">
        <emissions CO_abs="8676.134000" CO2_abs="223877.988948" HC_abs="44.782883" PMx_abs="4.906151" NOx_abs="97.927472" fuel_abs="96.238569" electricity_abs="0"/>
    </tripinfo>
    <tripinfo id="h330c1:1" depart="57736.00" departLane="-32978638#0_1" departPos="5.10" departSpeed="0.00" departDelay="0.20" arrival="57791.00" arrivalLane="-266565295#5_1" arrivalPos="172.76" arrivalSpeed="11.89" duration="55.00" routeLength="370.53" waitingTime="14.00" waitingCount="1" stopTime="0.00" timeLoss="23.48" rerouteNo="1" devices="tripinfo_h330c1:1 routing_h330c1:1 emissions_h330c1:1" vType="default_016" speedFactor="0.89" vaporized="">
        <emissions CO_abs="3470.688780" CO2_abs="137207.651952" HC_abs="19.013499" PMx_abs="2.572801" NOx_abs="57.322070" fuel_abs="58.980610" electricity_abs="0"/>
    </tripinfo>
    <tripinfo id="h11737c1:1" depart="57665.00" departLane="272042143_1" departPos="5.10" departSpeed="0.00" departDelay="1.50" arrival="57794.00" arrivalLane="-315358254#1_1" arrivalPos="137.16" arrivalSpeed="13.39" duration="129.00" routeLength="1596.88" waitingTime="0.00" waitingCount="0" stopTime="0.00" timeLoss="12.03" rerouteNo="1" devices="tripinfo_h11737c1:1 routing_h11737c1:1 emissions_h11737c1:1" vType="default_016" speedFactor="1.00" vaporized="">
        <emissions CO_abs="3528.536905" CO2_abs="310580.043546" HC_abs="23.277687" PMx_abs="4.939036" NOx_abs="121.812191" fuel_abs="133.505006" electricity_abs="0"/>
    </tripinfo>
    <tripinfo id="carIn126288:1" depart="57674.00" departLane="272042143_1" departPos="5.10" departSpeed="0.00" departDelay="0.00" arrival="57795.00" arrivalLane="-315358254#1_1" arrivalPos="137.16" arrivalSpeed="14.68" duration="121.00" routeLength="1596.88" waitingTime="0.00" waitingCount="0" stopTime="0.00" timeLoss="14.41" rerouteNo="1" devices="tripinfo_carIn126288:1 routing_carIn126288:1 emissions_carIn126288:1" vType="default_016" speedFactor="1.09" vaporized="">
        <emissions CO_abs="3765.439844" CO2_abs="324790.303868" HC_abs="24.689366" PMx_abs="5.456914" NOx_abs="128.923437" fuel_abs="139.613030" electricity_abs="0"/>
    </tripinfo>
    <tripinfo id="h7181c1:1" depart="57660.00" departLane="315358254#0_1" departPos="5.10" departSpeed="0.00" departDelay="0.10" arrival="57800.00" arrivalLane="306240162#0_0" arrivalPos="220.43" arrivalSpeed="15.01" duration="140.00" routeLength="932.35" waitingTime="66.00" waitingCount="1" stopTime="0.00" timeLoss="86.32" rerouteNo="1" devices="tripinfo_h7181c1:1 routing_h7181c1:1 emissions_h7181c1:1" vType="default_016" speedFactor="0.96" vaporized="">
        <emissions CO_abs="14610.849439" CO2_abs="464497.153441" HC_abs="77.504142" PMx_abs="9.970072" NOx_abs="200.286864" fuel_abs="199.671244" electricity_abs="0"/>
    </tripinfo>
    <tripinfo id="carIn121703:1" depart="57647.00" departLane="386687232#0_1" departPos="5.10" departSpeed="0.00" departDelay="0.30" arrival="57813.00" arrivalLane="-315358244_1" arrivalPos="33.95" arrivalSpeed="15.14" duration="166.00" routeLength="1157.39" waitingTime="68.00" waitingCount="2" stopTime="0.00" timeLoss="89.09" rerouteNo="1" devices="tripinfo_carIn121703:1 routing_carIn121703:1 emissions_carIn121703:1" vType="default_016" speedFactor="1.10" vaporized="">
        <emissions CO_abs="14273.328413" CO2_abs="449306.310685" HC_abs="75.457486" PMx_abs="9.221930" NOx_abs="191.152376" fuel_abs="193.141965" electricity_abs="0"/>
    </tripinfo>
    <tripinfo id="randUni15030:1" depart="57735.00" departLane="386687232#0_1" departPos="5.10" departSpeed="0.00" departDelay="0.10" arrival="57830.00" arrivalLane="26677539_1" arrivalPos="151.98" arrivalSpeed="8.22" duration="95.00" routeLength="919.89" waitingTime="0.00" waitingCount="0" stopTime="0.00" timeLoss="11.25" rerouteNo="1" devices="tripinfo_randUni15030:1 routing_randUni15030:1 emissions_randUni15030:1" vType="random_016" speedFactor="1.00" vaporized="">
        <emissions CO_abs="3483.355610" CO2_abs="212946.788309" HC_abs="20.809122" PMx_abs="3.496860" NOx_abs="85.515690" fuel_abs="91.537282" electricity_abs="0"/>
    </tripinfo>
    <tripinfo id="h7800c1:5" depart="57696.00" departLane="-447569998#1_1" departPos="5.10" departSpeed="0.00" departDelay="0.00" arrival="57855.00" arrivalLane="-447569998#1_2" arrivalPos="180.76" arrivalSpeed="3.93" duration="159.00" routeLength="175.66" waitingTime="133.00" waitingCount="1" stopTime="0.00" timeLoss="139.42" rerouteNo="1" devices="tripinfo_h7800c1:5 routing_h7800c1:5 emissions_h7800c1:5" vType="default_016" speedFactor="1.09" vaporized="">
        <emissions CO_abs="22986.819026" CO2_abs="403233.514140" HC_abs="114.108950" PMx_abs="9.632841" NOx_abs="182.042411" fuel_abs="173.343269" electricity_abs="0"/>
    </tripinfo>
    <tripinfo id="h3864c1:3" depart="57678.00" departLane="24693977#1_1" departPos="5.10" departSpeed="0.00" departDelay="0.00" arrival="57862.00" arrivalLane="201956820_1" arrivalPos="48.33" arrivalSpeed="11.06" duration="184.00" routeLength="1574.85" waitingTime="9.00" waitingCount="1" stopTime="0.00" timeLoss="38.41" rerouteNo="1" devices="tripinfo_h3864c1:3 routing_h3864c1:3 emissions_h3864c1:3" vType="default_016" speedFactor="0.89" vaporized="">
        <emissions CO_abs="7353.300759" CO2_abs="410092.610474" HC_abs="43.014703" PMx_abs="6.907692" NOx_abs="166.500469" fuel_abs="176.282577" electricity_abs="0"/>
    </tripinfo>
    <tripinfo id="carIn24709:1" depart="57753.00" departLane="266565295#5_1" departPos="5.10" departSpeed="0.00" departDelay="2.50" arrival="57869.00" arrivalLane="-24634506#2_1" arrivalPos="71.32" arrivalSpeed="15.59" duration="116.00" routeLength="1450.12" waitingTime="0.00" waitingCount="0" stopTime="0.00" timeLoss="13.47" rerouteNo="1" devices="tripinfo_carIn24709:1 routing_carIn24709:1 emissions_carIn24709:1" vType="default_016" speedFactor="1.16" vaporized="">
        <emissions CO_abs="4070.727294" CO2_abs="323252.225265" HC_abs="25.968047" PMx_abs="5.431606" NOx_abs="128.521838" fuel_abs="138.952120" electricity_abs="0"/>
    </tripinfo>
    <tripinfo id="carIn53503:1" depart="57763.00" departLane="-306240162#1_0" departPos="5.10" departSpeed="0.00" departDelay="2.40" arrival="57875.00" arrivalLane="24634510#6_1" arrivalPos="76.64" arrivalSpeed="13.33" duration="112.00" routeLength="1440.47" waitingTime="0.00" waitingCount="0" stopTime="0.00" timeLoss="13.58" rerouteNo="1" devices="tripinfo_carIn53503:1 routing_carIn53503:1 emissions_carIn53503:1" vType="default_016" speedFactor="1.00" vaporized="">
        <emissions CO_abs="3585.119699" CO2_abs="298513.732862" HC_abs="23.256446" PMx_abs="4.903720" NOx_abs="117.727917" fuel_abs="128.318176" electricity_abs="0"/>
    </tripinfo>
    <tripinfo id="carIn107282:1" depart="57749.00" departLane="-447569998#1_1" departPos="5.10" departSpeed="0.00" departDelay="0.00" arrival="57882.00" arrivalLane="315358242#0_1" arrivalPos="165.37" arrivalSpeed="12.37" duration="133.00" routeLength="448.50" waitingTime="78.00" waitingCount="1" stopTime="0.00" timeLoss="87.64" rerouteNo="1" devices="tripinfo_carIn107282:1 routing_carIn107282:1 emissions_carIn107282:1" vType="default_016" speedFactor="0.93" vaporized="">
        <emissions CO_abs="14043.628409" CO2_abs="314430.660223" HC_abs="71.279527" PMx_abs="6.735592" NOx_abs="136.743037" fuel_abs="135.166308" electricity_abs="0"/>
    </tripinfo>
    <tripinfo id="carIn81681:1" depart="57726.00" departLane="272042143_1" departPos="5.10" departSpeed="0.00" departDelay="0.30" arrival="57885.00" arrivalLane="306240162#0_0" arrivalPos="220.43" arrivalSpeed="19.91" duration="159.00" routeLength="2246.89" waitingTime="8.00" waitingCount="1" stopTime="0.00" timeLoss="38.08" rerouteNo="1" devices="tripinfo_carIn81681:1 routing_carIn81681:1 emissions_carIn81681:1" vType="default_016" speedFactor="1.22" vaporized="">
        <emissions CO_abs="8952.890829" CO2_abs="633015.827015" HC_abs="55.829059" PMx_abs="12.392535" NOx_abs="260.673105" fuel_abs="272.104498" electricity_abs="0"/>
    </tripinfo>
    <tripinfo id="h17600c1:1" depart="57662.00" departLane="272042143_1" departPos="5.10" departSpeed="0.00" departDelay="0.30" arrival="57892.00" arrivalLane="201238729#3_1" arrivalPos="431.02" arrivalSpeed="13.40" duration="230.00" routeLength="2100.26" waitingTime="58.00" waitingCount="1" stopTime="0.00" timeLoss="75.85" rerouteNo="1" devices="tripinfo_h17600c1:1 routing_h17600c1:1 emissions_h17600c1:1" vType="default_016" speedFactor="0.98" vaporized="">
        <emissions CO_abs="12693.802962" CO2_abs="516815.577182" HC_abs="69.832930" PMx_abs="9.151594" NOx_abs="209.443714" fuel_abs="222.161145" electricity_abs="0"/>
    </tripinfo>
    <tripinfo id="carIn13443:1" depart="57729.00" departLane="272042143_1" departPos="5.10" departSpeed="0.00" departDelay="0.80" arrival="57895.00" arrivalLane="399835085#1_1" arrivalPos="212.23" arrivalSpeed="7.42" duration="166.00" routeLength="1757.45" waitingTime="2.00" waitingCount="1" stopTime="0.00" timeLoss="20.05" rerouteNo="1" devices="tripinfo_carIn13443:1 routing_carIn13443:1 emissions_carIn13443:1" vType="default_016" speedFactor="0.97" vaporized="">
        <emissions CO_abs="4809.531083" CO2_abs="347758.730281" HC_abs="29.948907" PMx_abs="5.320757" NOx_abs="136.001417" fuel_abs="149.487490" electricity_abs="0"/>
    </tripinfo>
    <tripinfo id="h13377c2:3" depart="57804.00" departLane="315358244_1" departPos="5.10" departSpeed="0.00" departDelay="0.60" arrival="57895.00" arrivalLane="447569997#1_1" arrivalPos="180.93" arrivalSpeed="7.96" duration="91.00" routeLength="726.74" waitingTime="2.00" waitingCount="2" stopTime="0.00" timeLoss="23.03" rerouteNo="1" devices="tripinfo_h13377c2:3 routing_h13377c2:3 emissions_h13377c2:3" vType="default_016" speedFactor="1.00" vaporized="">
        <emissions CO_abs="3728.809924" CO2_abs="183173.315928" HC_abs="21.228028" PMx_abs="3.104715" NOx_abs="74.400678" fuel_abs="78.739317" electricity_abs="0"/>
    </tripinfo>
    <tripinfo id="h5239c1:3" depart="57834.00" departLane="315358254#0_1" departPos="5.10" departSpeed="0.00" departDelay="0.80" arrival="57896.00" arrivalLane="224892361#3_1" arrivalPos="220.30" arrivalSpeed="21.79" duration="62.00" routeLength="793.34" waitingTime="3.00" waitingCount="1" stopTime="0.00" timeLoss="22.67" rerouteNo="1" devices="tripinfo_h5239c1:3 routing_h5239c1:3 emissions_h5239c1:3" vType="default_016" speedFactor="1.04" vaporized="">
        <emissions CO_abs="4534.084382" CO2_abs="287096.091023" HC_abs="27.584070" PMx_abs="5.860209" NOx_abs="119.939868" fuel_abs="123.409491" electricity_abs="0"/>
    </tripinfo>
    <tripinfo id="randUni23028:1" depart="57884.00" departLane="124812856#0_1" departPos="5.10" departSpeed="0.00" departDelay="0.10" arrival="57900.00" arrivalLane="201956810_1" arrivalPos="71.65" arrivalSpeed="12.38" duration="16.00" routeLength="134.91" waitingTime="0.00" waitingCount="0" stopTime="0.00" timeLoss="3.79" rerouteNo="1" devices="tripinfo_randUni23028:1 routing_randUni23028:1 emissions_randUni23028:1" vType="random_016" speedFactor="0.90" vaporized="">
        <emissions CO_abs="1189.174195" CO2_abs="63866.415412" HC_abs="6.915266" PMx_abs="1.169405" NOx_abs="26.584893" fuel_abs="27.453533" electricity_abs="0"/>
    </tripinfo>
    <tripinfo id="carIn80913:1" depart="57733.00" departLane="272042143_1" departPos="5.10" departSpeed="0.00" departDelay="1.40" arrival="57905.00" arrivalLane="306240162#0_0" arrivalPos="220.43" arrivalSpeed="16.99" duration="172.00" routeLength="2246.89" waitingTime="1.00" waitingCount="1" stopTime="0.00" timeLoss="29.03" rerouteNo="1" devices="tripinfo_carIn80913:1 routing_carIn80913:1 emissions_carIn80913:1" vType="default_016" speedFactor="1.03" vaporized="">
        <emissions CO_abs="7182.885814" CO2_abs="554211.427217" HC_abs="45.864034" PMx_abs="10.062143" NOx_abs="224.965968" fuel_abs="238.230574" electricity_abs="0"/>
    </tripinfo>
    <tripinfo id="carIn14532:1" depart="57743.00" departLane="272042143_1" departPos="5.10" departSpeed="0.00" departDelay="1.90" arrival="57911.00" arrivalLane="399835085#1_1" arrivalPos="212.23" arrivalSpeed="9.50" duration="168.00" routeLength="1757.45" waitingTime="0.00" waitingCount="0" stopTime="0.00" timeLoss="44.63" rerouteNo="1" devices="tripinfo_carIn14532:1 routing_carIn14532:1 emissions_carIn14532:1" vType="default_016" speedFactor="1.15" vaporized="">
        <emissions CO_abs="6089.476180" CO2_abs="424445.186317" HC_abs="37.633074" PMx_abs="7.038880" NOx_abs="170.659745" fuel_abs="182.451148" electricity_abs="0"/>
    </tripinfo>
    <tripinfo id="carIn73855:1" depart="57743.00" departLane="386687232#0_1" departPos="5.10" departSpeed="0.00" departDelay="0.50" arrival="57913.00" arrivalLane="-315358244_1" arrivalPos="33.95" arrivalSpeed="14.44" duration="170.00" routeLength="1157.39" waitingTime="70.00" waitingCount="2" stopTime="0.00" timeLoss="91.31" rerouteNo="1" devices="tripinfo_carIn73855:1 routing_carIn73855:1 emissions_carIn73855:1" vType="default_016" speedFactor="1.08" vaporized="">
        <emissions CO_abs="14775.251389" CO2_abs="462240.649025" HC_abs="78.098792" PMx_abs="9.450270" NOx_abs="196.598327" fuel_abs="198.702139" electricity_abs="0"/>
    </tripinfo>
    <tripinfo id="carIn126378:1" depart="57746.00" departLane="386687232#0_1" departPos="5.10" departSpeed="0.00" departDelay="1.80" arrival="57913.00" arrivalLane="-315358244_2" arrivalPos="33.95" arrivalSpeed="13.79" duration="167.00" routeLength="1157.39" waitingTime="67.00" waitingCount="2" stopTime="0.00" timeLoss="88.46" rerouteNo="1" devices="tripinfo_carIn126378:1 routing_carIn126378:1 emissions_carIn126378:1" vType="default_016" speedFactor="1.08" vaporized="">
        <emissions CO_abs="13629.823559" CO2_abs="425526.340507" HC_abs="72.017197" PMx_abs="8.718611" NOx_abs="181.258314" fuel_abs="182.919836" electricity_abs="0"/>
    </tripinfo>
    <tripinfo id="carIn23683:1" depart="57641.00" departLane="-306240162#1_0" departPos="5.10" departSpeed="0.00" departDelay="0.20" arrival="57919.00" arrivalLane="201956820_2" arrivalPos="48.33" arrivalSpeed="15.05" duration="278.00" routeLength="2993.47" waitingTime="63.00" waitingCount="1" stopTime="0.00" timeLoss="94.67" rerouteNo="1" devices="tripinfo_carIn23683:1 routing_carIn23683:1 emissions_carIn23683:1" vType="default_016" speedFactor="1.08" vaporized="">
        <emissions CO_abs="18091.144427" CO2_abs="829743.541537" HC_abs="101.652107" PMx_abs="16.151563" NOx_abs="343.826193" fuel_abs="356.673982" electricity_abs="0"/>
    </tripinfo>
    <tripinfo id="carIn27009:1" depart="57673.00" departLane="-447569998#1_1" departPos="5.10" departSpeed="0.00" departDelay="0.50" arrival="57931.00" arrivalLane="-26677539_1" arrivalPos="152.75" arrivalSpeed="6.46" duration="258.00" routeLength="699.63" waitingTime="150.00" waitingCount="1" stopTime="0.00" timeLoss="166.89" rerouteNo="1" devices="tripinfo_carIn27009:1 routing_carIn27009:1 emissions_carIn27009:1" vType="default_015" speedFactor="0.92" vaporized="">
        <emissions CO_abs="28359.456969" CO2_abs="572176.746805" HC_abs="142.472939" PMx_abs="12.765476" NOx_abs="253.189498" fuel_abs="245.966769" electricity_abs="0"/>
    </tripinfo>
    <tripinfo id="carIn129809:1" depart="57729.00" departLane="-447569998#1_1" departPos="5.10" departSpeed="0.00" departDelay="1.00" arrival="57933.00" arrivalLane="-315358244_1" arrivalPos="33.95" arrivalSpeed="14.91" duration="204.00" routeLength="706.49" waitingTime="127.00" waitingCount="3" stopTime="0.00" timeLoss="147.86" rerouteNo="1" devices="tripinfo_carIn129809:1 routing_carIn129809:1 emissions_carIn129809:1" vType="default_015" speedFactor="1.09" vaporized="">
        <emissions CO_abs="22563.983809" CO2_abs="510999.068586" HC_abs="114.752534" PMx_abs="11.375100" NOx_abs="224.762446" fuel_abs="219.665568" electricity_abs="0"/>
    </tripinfo>
    <tripinfo id="carIn8642:1" depart="57774.00" departLane="-447569998#1_1" departPos="5.10" departSpeed="0.00" departDelay="0.90" arrival="57934.00" arrivalLane="-315358244_2" arrivalPos="33.95" arrivalSpeed="13.89" duration="160.00" routeLength="706.49" waitingTime="80.00" waitingCount="2" stopTime="0.00" timeLoss="101.04" rerouteNo="1" devices="tripinfo_carIn8642:1 routing_carIn8642:1 emissions_carIn8642:1" vType="default_016" speedFactor="1.03" vaporized="">
        <emissions CO_abs="14864.548781" CO2_abs="379394.536959" HC_abs="76.558399" PMx_abs="7.975155" NOx_abs="163.771766" fuel_abs="163.091218" electricity_abs="0"/>
    </tripinfo>
    <tripinfo id="carIn96510:1" depart="57645.00" departLane="-306240162#1_0" departPos="5.10" departSpeed="0.00" departDelay="0.20" arrival="57943.00" arrivalLane="201956820_2" arrivalPos="48.33" arrivalSpeed="13.35" duration="298.00" routeLength="2993.47" waitingTime="54.00" waitingCount="3" stopTime="0.00" timeLoss="97.62" rerouteNo="1" devices="tripinfo_carIn96510:1 routing_carIn96510:1 emissions_carIn96510:1" vType="default_016" speedFactor="0.99" vaporized="">
        <emissions CO_abs="16269.370037" CO2_abs="842570.104969" HC_abs="93.872503" PMx_abs="15.638543" NOx_abs="345.951710" fuel_abs="362.186863" electricity_abs="0"/>
    </tripinfo>
    <tripinfo id="carIn81046:1" depart="57611.00" departLane="124812856#0_1" departPos="5.10" departSpeed="0.00" departDelay="2.50" arrival="57945.00" arrivalLane="-128361102#1_1" arrivalPos="274.68" arrivalSpeed="10.27" duration="334.00" routeLength="2232.46" waitingTime="99.00" waitingCount="1" stopTime="0.00" timeLoss="124.45" rerouteNo="1" devices="tripinfo_carIn81046:1 routing_carIn81046:1 emissions_carIn81046:1" vType="default_016" speedFactor="0.78" vaporized="">
        <emissions CO_abs="21880.608975" CO2_abs="691804.425165" HC_abs="115.634789" PMx_abs="12.706095" NOx_abs="287.080089" fuel_abs="297.385895" electricity_abs="0"/>
    </tripinfo>
    <tripinfo id="carIn107842:1" depart="57623.00" departLane="124812856#0_1" departPos="5.10" departSpeed="0.00" departDelay="1.90" arrival="57947.00" arrivalLane="-128361102#1_1" arrivalPos="274.68" arrivalSpeed="13.46" duration="324.00" routeLength="2232.46" waitingTime="98.00" waitingCount="1" stopTime="0.00" timeLoss="187.91" rerouteNo="1" devices="tripinfo_carIn107842:1 routing_carIn107842:1 emissions_carIn107842:1" vType="default_016" speedFactor="1.20" vaporized="">
        <emissions CO_abs="24061.524536" CO2_abs="822893.442142" HC_abs="128.829206" PMx_abs="16.162062" NOx_abs="348.020844" fuel_abs="353.733852" electricity_abs="0"/>
    </tripinfo>
    <tripinfo id="carIn32621:1" depart="57674.00" departLane="124812856#0_1" departPos="5.10" departSpeed="0.00" departDelay="31.00" arrival="57950.00" arrivalLane="-128361102#1_1" arrivalPos="274.68" arrivalSpeed="15.21" duration="276.00" routeLength="2232.46" waitingTime="104.00" waitingCount="2" stopTime="0.00" timeLoss="136.00" rerouteNo="1" devices="tripinfo_carIn32621:1 routing_carIn32621:1 emissions_carIn32621:1" vType="default_016" speedFactor="1.17" vaporized="">
        <emissions CO_abs="22279.901838" CO2_abs="769746.379308" HC_abs="119.407839" PMx_abs="15.401492" NOx_abs="323.158504" fuel_abs="330.887516" electricity_abs="0"/>
    </tripinfo>
    <tripinfo id="h3426c1:1" depart="57864.00" departLane="-160314345#2_1" departPos="5.10" departSpeed="0.00" departDelay="0.00" arrival="57950.00" arrivalLane="386687235_1" arrivalPos="80.84" arrivalSpeed="11.71" duration="86.00" routeLength="726.87" waitingTime="0.00" waitingCount="0" stopTime="0.00" timeLoss="8.71" rerouteNo="1" devices="tripinfo_h3426c1:1 routing_h3426c1:1 emissions_h3426c1:1" vType="default_016" speedFactor="0.88" vaporized="">
        <emissions CO_abs="3078.186489" CO2_abs="169035.925490" HC_abs="17.892584" PMx_abs="2.583401" NOx_abs="66.947580" fuel_abs="72.662293" electricity_abs="0"/>
    </tripinfo>
    <tripinfo id="carIn13353:1" depart="57838.00" departLane="-447569998#1_1" departPos="5.10" departSpeed="0.00" departDelay="0.30" arrival="57951.00" arrivalLane="-315358244_2" arrivalPos="33.95" arrivalSpeed="12.70" duration="113.00" routeLength="706.49" waitingTime="28.00" waitingCount="3" stopTime="0.00" timeLoss="52.41" rerouteNo="1" devices="tripinfo_carIn13353:1 routing_carIn13353:1 emissions_carIn13353:1" vType="default_016" speedFactor="1.00" vaporized="">
        <emissions CO_abs="6040.251855" CO2_abs="227556.338501" HC_abs="32.815180" PMx_abs="4.262798" NOx_abs="94.885170" fuel_abs="97.818510" electricity_abs="0"/>
    </tripinfo>
    <tripinfo id="carIn70533:1" depart="57812.00" departLane="-447569998#1_1" departPos="5.10" departSpeed="0.00" departDelay="0.10" arrival="57952.00" arrivalLane="-315358244_1" arrivalPos="33.95" arrivalSpeed="12.25" duration="140.00" routeLength="706.49" waitingTime="51.00" waitingCount="3" stopTime="0.00" timeLoss="74.08" rerouteNo="1" devices="tripinfo_carIn70533:1 routing_carIn70533:1 emissions_carIn70533:1" vType="default_016" speedFactor="0.92" vaporized="">
        <emissions CO_abs="9530.848939" CO2_abs="281401.815441" HC_abs="49.968067" PMx_abs="5.588993" NOx_abs="119.580106" fuel_abs="120.966056" electricity_abs="0"/>
    </tripinfo>
    <tripinfo id="carIn99578:1" depart="57681.00" departLane="-306240162#1_0" departPos="5.10" departSpeed="0.00" departDelay="2.00" arrival="57953.00" arrivalLane="201956820_2" arrivalPos="48.33" arrivalSpeed="12.37" duration="272.00" routeLength="2993.47" waitingTime="32.00" waitingCount="2" stopTime="0.00" timeLoss="67.63" rerouteNo="1" devices="tripinfo_carIn99578:1 routing_carIn99578:1 emissions_carIn99578:1" vType="default_016" speedFactor="0.97" vaporized="">
        <emissions CO_abs="12397.472299" CO2_abs="737132.712291" HC_abs="73.728864" PMx_abs="13.295375" NOx_abs="299.526934" fuel_abs="316.862666" electricity_abs="0"/>
    </tripinfo>
    <tripinfo id="carIn101266:1" depart="57737.00" departLane="272042143_1" departPos="5.10" departSpeed="0.00" departDelay="0.50" arrival="57954.00" arrivalLane="306240162#0_0" arrivalPos="220.43" arrivalSpeed="12.66" duration="217.00" routeLength="2246.89" waitingTime="13.00" waitingCount="2" stopTime="0.00" timeLoss="39.04" rerouteNo="1" devices="tripinfo_carIn101266:1 routing_carIn101266:1 emissions_carIn101266:1" vType="default_016" speedFactor="0.83" vaporized="">
        <emissions CO_abs="7378.527899" CO2_abs="488940.964249" HC_abs="44.939353" PMx_abs="7.945801" NOx_abs="194.173812" fuel_abs="210.175866" electricity_abs="0"/>
    </tripinfo>
    <tripinfo id="carIn9695:1" depart="57822.00" departLane="272042143_1" departPos="5.10" departSpeed="0.00" departDelay="0.80" arrival="57955.00" arrivalLane="-315358254#1_1" arrivalPos="137.16" arrivalSpeed="13.41" duration="133.00" routeLength="1596.88" waitingTime="0.00" waitingCount="0" stopTime="0.00" timeLoss="12.26" rerouteNo="1" devices="tripinfo_carIn9695:1 routing_carIn9695:1 emissions_carIn9695:1" vType="default_016" speedFactor="0.97" vaporized="">
        <emissions CO_abs="3829.898148" CO2_abs="326817.985240" HC_abs="25.049999" PMx_abs="5.168360" NOx_abs="128.338792" fuel_abs="140.485114" electricity_abs="0"/>
    </tripinfo>
    <tripinfo id="carIn132499:1" depart="57740.00" departLane="272042143_1" departPos="5.10" departSpeed="0.00" departDelay="0.70" arrival="57956.00" arrivalLane="201238729#3_1" arrivalPos="431.02" arrivalSpeed="12.50" duration="216.00" routeLength="2100.26" waitingTime="30.00" waitingCount="1" stopTime="0.00" timeLoss="48.02" rerouteNo="1" devices="tripinfo_carIn132499:1 routing_carIn132499:1 emissions_carIn132499:1" vType="default_016" speedFactor="0.91" vaporized="">