<?xml version="1.0" encoding="UTF-8"?>

<!-- generated on 2021-10-26 20:47:45 by Eclipse SUMO sumo Version 1.10.0
<configuration xmlns:xsi="http://www.w3.org/2001/XMLSchema-instance" xsi:noNamespaceSchemaLocation="http://sumo.dlr.de/xsd/sumoConfiguration.xsd">

    <input>
        <net-file value="/Users/behradkoohy/sumo-scratchpad/RESCO/environments/ingolstadt21/ingolstadt21.net.xml"/>
        <route-files value="/Users/behradkoohy/sumo-scratchpad/RESCO/environments/ingolstadt21/ingolstadt21.rou.xml"/>
    </input>

    <output>
        <tripinfo-output value="/Users/behradkoohy/sumo-scratchpad/RESCO/logs/MPLight-tr0-ingolstadt21-21-mplight_full-pressure/tripinfo_14.xml"/>
        <tripinfo-output.write-unfinished value="true"/>
    </output>

    <time>
        <begin value="57600"/>
        <end value="61200"/>
    </time>

    <processing>
        <time-to-teleport value="-1"/>
    </processing>

    <report>
        <no-warnings value="true"/>
        <no-step-log value="true"/>
    </report>

    <emissions>
        <device.emissions.probability value="1"/>
    </emissions>

    <traci_server>
        <remote-port value="64466"/>
    </traci_server>

    <random_number>
        <random value="true"/>
    </random_number>

</configuration>
-->

<tripinfos xmlns:xsi="http://www.w3.org/2001/XMLSchema-instance" xsi:noNamespaceSchemaLocation="http://sumo.dlr.de/xsd/tripinfo_file.xsd">
    <tripinfo id="h15454c2:3" depart="57612.00" departLane="24608844_1" departPos="5.10" departSpeed="0.00" departDelay="0.50" arrival="57656.00" arrivalLane="32978638#0_1" arrivalPos="49.29" arrivalSpeed="12.15" duration="44.00" routeLength="354.79" waitingTime="0.00" waitingCount="0" stopTime="0.00" timeLoss="5.74" rerouteNo="1" devices="tripinfo_h15454c2:3 routing_h15454c2:3 emissions_h15454c2:3" vType="default_016" speedFactor="0.89" vaporized="">
        <emissions CO_abs="2045.335753" CO2_abs="106834.519357" HC_abs="11.786019" PMx_abs="1.778411" NOx_abs="43.400473" fuel_abs="45.924057" electricity_abs="0"/>
    </tripinfo>
    <tripinfo id="carIn60260:1" depart="57606.00" departLane="315358254#0_1" departPos="5.10" departSpeed="0.00" departDelay="0.90" arrival="57662.00" arrivalLane="399835085#1_1" arrivalPos="212.23" arrivalSpeed="6.64" duration="56.00" routeLength="430.98" waitingTime="0.00" waitingCount="0" stopTime="0.00" timeLoss="6.66" rerouteNo="1" devices="tripinfo_carIn60260:1 routing_carIn60260:1 emissions_carIn60260:1" vType="default_016" speedFactor="0.94" vaporized="">
        <emissions CO_abs="2296.261533" CO2_abs="112629.211620" HC_abs="13.039202" PMx_abs="1.783660" NOx_abs="45.273670" fuel_abs="48.415220" electricity_abs="0"/>
    </tripinfo>
    <tripinfo id="carIn53971:1" depart="57640.00" departLane="272042143_1" departPos="5.10" departSpeed="0.00" departDelay="0.80" arrival="57692.00" arrivalLane="24634414#1_1" arrivalPos="162.19" arrivalSpeed="7.65" duration="52.00" routeLength="493.04" waitingTime="0.00" waitingCount="0" stopTime="0.00" timeLoss="8.14" rerouteNo="1" devices="tripinfo_carIn53971:1 routing_carIn53971:1 emissions_carIn53971:1" vType="default_016" speedFactor="1.05" vaporized="">
        <emissions CO_abs="2287.850598" CO2_abs="134210.480321" HC_abs="13.577689" PMx_abs="2.448401" NOx_abs="55.652686" fuel_abs="57.691389" electricity_abs="0"/>
    </tripinfo>
    <tripinfo id="h7800c1:5" depart="57696.00" departLane="-447569998#1_1" departPos="5.10" departSpeed="0.00" departDelay="0.00" arrival="57720.00" arrivalLane="-447569998#1_1" arrivalPos="180.76" arrivalSpeed="8.60" duration="24.00" routeLength="175.66" waitingTime="0.00" waitingCount="0" stopTime="0.00" timeLoss="3.18" rerouteNo="1" devices="tripinfo_h7800c1:5 routing_h7800c1:5 emissions_h7800c1:5" vType="default_016" speedFactor="1.05" vaporized="">
        <emissions CO_abs="1056.450011" CO2_abs="48023.635580" HC_abs="5.917191" PMx_abs="0.804699" NOx_abs="19.651826" fuel_abs="20.643614" electricity_abs="0"/>
    </tripinfo>
    <tripinfo id="h12244c1:3" depart="57612.00" departLane="315358244_1" departPos="5.10" departSpeed="0.00" departDelay="0.40" arrival="57723.00" arrivalLane="386687235_1" arrivalPos="80.84" arrivalSpeed="12.29" duration="111.00" routeLength="1186.14" waitingTime="8.00" waitingCount="1" stopTime="0.00" timeLoss="22.31" rerouteNo="1" devices="tripinfo_h12244c1:3 routing_h12244c1:3 emissions_h12244c1:3" vType="default_016" speedFactor="0.97" vaporized="">
        <emissions CO_abs="3994.793368" CO2_abs="273068.807772" HC_abs="24.563268" PMx_abs="4.543189" NOx_abs="109.012722" fuel_abs="117.380937" electricity_abs="0"/>
    </tripinfo>
    <tripinfo id="h3568c1:3" depart="57656.00" departLane="266565295#5_1" departPos="5.10" departSpeed="0.00" departDelay="0.80" arrival="57734.00" arrivalLane="-24634415_1" arrivalPos="62.03" arrivalSpeed="13.96" duration="78.00" routeLength="807.40" waitingTime="0.00" waitingCount="0" stopTime="0.00" timeLoss="16.63" rerouteNo="1" devices="tripinfo_h3568c1:3 routing_h3568c1:3 emissions_h3568c1:3" vType="default_016" speedFactor="1.06" vaporized="">
        <emissions CO_abs="3891.168176" CO2_abs="252851.405583" HC_abs="23.667388" PMx_abs="4.516519" NOx_abs="103.460655" fuel_abs="108.689953" electricity_abs="0"/>
    </tripinfo>
    <tripinfo id="h317c2:1" depart="57707.00" departLane="-32978638#0_1" departPos="5.10" departSpeed="0.00" departDelay="0.10" arrival="57735.00" arrivalLane="-266565295#5_1" arrivalPos="172.76" arrivalSpeed="16.96" duration="28.00" routeLength="370.53" waitingTime="0.00" waitingCount="0" stopTime="0.00" timeLoss="5.74" rerouteNo="1" devices="tripinfo_h317c2:1 routing_h317c2:1 emissions_h317c2:1" vType="default_016" speedFactor="1.23" vaporized="">
        <emissions CO_abs="1975.836493" CO2_abs="132414.847315" HC_abs="12.170899" PMx_abs="2.603702" NOx_abs="55.371884" fuel_abs="56.919073" electricity_abs="0"/>
    </tripinfo>
    <tripinfo id="S5R_frequency1.2" depart="57624.00" departLane="315358250#0_1" departPos="12.10" departSpeed="0.00" departDelay="12.40" arrival="57748.00" arrivalLane="386687235_1" arrivalPos="80.84" arrivalSpeed="13.32" duration="124.00" routeLength="1115.62" waitingTime="18.00" waitingCount="2" stopTime="0.00" timeLoss="42.48" rerouteNo="1" devices="tripinfo_S5R_frequency1.2 routing_S5R_frequency1.2 emissions_S5R_frequency1.2" vType="bus" speedFactor="1.00" vaporized="">
        <emissions CO_abs="2448.022630" CO2_abs="1425344.791198" HC_abs="524.042719" PMx_abs="260.067839" NOx_abs="11352.031090" fuel_abs="607.858854" electricity_abs="0"/>
    </tripinfo>
    <tripinfo id="h5979c1:5" depart="57669.00" departLane="399835085#1_1" departPos="5.10" departSpeed="0.00" departDelay="0.00" arrival="57750.00" arrivalLane="-315358254#1_1" arrivalPos="137.16" arrivalSpeed="13.52" duration="81.00" routeLength="659.33" waitingTime="0.00" waitingCount="0" stopTime="0.00" timeLoss="10.40" rerouteNo="1" devices="tripinfo_h5979c1:5 routing_h5979c1:5 emissions_h5979c1:5" vType="default_016" speedFactor="1.05" vaporized="">
        <emissions CO_abs="3423.984121" CO2_abs="177681.782958" HC_abs="19.696113" PMx_abs="2.924225" NOx_abs="71.972749" fuel_abs="76.378644" electricity_abs="0"/>
    </tripinfo>
    <tripinfo id="carIn30817:1" depart="57681.00" departLane="315358244_1" departPos="5.10" departSpeed="0.00" departDelay="0.20" arrival="57754.00" arrivalLane="447569997#1_1" arrivalPos="180.93" arrivalSpeed="7.97" duration="73.00" routeLength="718.04" waitingTime="0.00" waitingCount="0" stopTime="0.00" timeLoss="9.85" rerouteNo="1" devices="tripinfo_carIn30817:1 routing_carIn30817:1 emissions_carIn30817:1" vType="default_016" speedFactor="0.97" vaporized="">
        <emissions CO_abs="2466.265707" CO2_abs="150563.530790" HC_abs="14.718272" PMx_abs="2.408783" NOx_abs="59.901102" fuel_abs="64.721338" electricity_abs="0"/>
    </tripinfo>
    <tripinfo id="h3688c1:1" depart="57625.00" departLane="201201950#1_1" departPos="5.10" departSpeed="0.00" departDelay="0.00" arrival="57755.00" arrivalLane="32978638#0_1" arrivalPos="49.29" arrivalSpeed="12.76" duration="130.00" routeLength="1089.75" waitingTime="33.00" waitingCount="2" stopTime="0.00" timeLoss="50.27" rerouteNo="1" devices="tripinfo_h3688c1:1 routing_h3688c1:1 emissions_h3688c1:1" vType="default_016" speedFactor="1.00" vaporized="">
        <emissions CO_abs="8479.185553" CO2_abs="346137.781274" HC_abs="46.750385" PMx_abs="6.590616" NOx_abs="144.112391" fuel_abs="148.791850" electricity_abs="0"/>
    </tripinfo>
    <tripinfo id="h4538c1:1" depart="57701.00" departLane="-10427692#1_1" departPos="5.10" departSpeed="0.00" departDelay="0.00" arrival="57759.00" arrivalLane="-128361102#1_1" arrivalPos="274.68" arrivalSpeed="12.54" duration="58.00" routeLength="440.74" waitingTime="13.00" waitingCount="1" stopTime="0.00" timeLoss="23.05" rerouteNo="1" devices="tripinfo_h4538c1:1 routing_h4538c1:1 emissions_h4538c1:1" vType="default_016" speedFactor="0.91" vaporized="">
        <emissions CO_abs="3243.639365" CO2_abs="142634.360005" HC_abs="18.102664" PMx_abs="2.584219" NOx_abs="58.848648" fuel_abs="61.313198" electricity_abs="0"/>
    </tripinfo>
    <tripinfo id="carIn121703:1" depart="57647.00" departLane="386687232#0_1" departPos="5.10" departSpeed="0.00" departDelay="0.30" arrival="57766.00" arrivalLane="-315358244_1" arrivalPos="33.95" arrivalSpeed="13.05" duration="119.00" routeLength="1157.39" waitingTime="18.00" waitingCount="2" stopTime="0.00" timeLoss="34.67" rerouteNo="1" devices="tripinfo_carIn121703:1 routing_carIn121703:1 emissions_carIn121703:1" vType="default_016" speedFactor="1.00" vaporized="">
        <emissions CO_abs="5505.077806" CO2_abs="289974.563897" HC_abs="31.852840" PMx_abs="5.116913" NOx_abs="117.778927" fuel_abs="124.648640" electricity_abs="0"/>
    </tripinfo>
    <tripinfo id="h330c1:1" depart="57736.00" departLane="-32978638#0_1" departPos="5.10" departSpeed="0.00" departDelay="0.20" arrival="57766.00" arrivalLane="-266565295#5_1" arrivalPos="172.76" arrivalSpeed="16.35" duration="30.00" routeLength="370.53" waitingTime="0.00" waitingCount="0" stopTime="0.00" timeLoss="6.24" rerouteNo="1" devices="tripinfo_h330c1:1 routing_h330c1:1 emissions_h330c1:1" vType="default_016" speedFactor="1.19" vaporized="">
        <emissions CO_abs="1992.789367" CO2_abs="126882.233068" HC_abs="12.102605" PMx_abs="2.454165" NOx_abs="52.925304" fuel_abs="54.540989" electricity_abs="0"/>
    </tripinfo>
    <tripinfo id="h3326c1:2" depart="57656.00" departLane="22716069#0_1" departPos="5.10" departSpeed="0.00" departDelay="0.00" arrival="57769.00" arrivalLane="24634517#13_1" arrivalPos="111.62" arrivalSpeed="13.36" duration="113.00" routeLength="1312.81" waitingTime="0.00" waitingCount="0" stopTime="0.00" timeLoss="14.02" rerouteNo="1" devices="tripinfo_h3326c1:2 routing_h3326c1:2 emissions_h3326c1:2" vType="default_016" speedFactor="0.98" vaporized="">
        <emissions CO_abs="3981.541803" CO2_abs="308698.778587" HC_abs="25.328790" PMx_abs="5.115738" NOx_abs="123.187013" fuel_abs="132.696343" electricity_abs="0"/>
    </tripinfo>
    <tripinfo id="carIn27009:1" depart="57673.00" departLane="-447569998#1_1" departPos="5.10" departSpeed="0.00" departDelay="0.50" arrival="57769.00" arrivalLane="-26677539_1" arrivalPos="152.75" arrivalSpeed="8.10" duration="96.00" routeLength="699.63" waitingTime="4.00" waitingCount="1" stopTime="0.00" timeLoss="18.17" rerouteNo="1" devices="tripinfo_carIn27009:1 routing_carIn27009:1 emissions_carIn27009:1" vType="default_015" speedFactor="1.08" vaporized="">
        <emissions CO_abs="3746.499252" CO2_abs="183637.936831" HC_abs="21.311146" PMx_abs="3.127309" NOx_abs="75.399154" fuel_abs="78.938950" electricity_abs="0"/>
    </tripinfo>
    <tripinfo id="carIn80064:1" depart="57603.00" departLane="128361109#1_1" departPos="5.10" departSpeed="0.00" departDelay="0.40" arrival="57772.00" arrivalLane="-315358254#1_1" arrivalPos="137.16" arrivalSpeed="13.30" duration="169.00" routeLength="1587.97" waitingTime="41.00" waitingCount="3" stopTime="0.00" timeLoss="76.36" rerouteNo="1" devices="tripinfo_carIn80064:1 routing_carIn80064:1 emissions_carIn80064:1" vType="default_016" speedFactor="0.97" vaporized="">
        <emissions CO_abs="12003.548123" CO2_abs="564582.841591" HC_abs="68.127608" PMx_abs="11.265359" NOx_abs="236.188332" fuel_abs="242.691194" electricity_abs="0"/>
    </tripinfo>
    <tripinfo id="carIn86816:1" depart="57617.00" departLane="128361102#0_1" departPos="5.10" departSpeed="0.00" departDelay="0.80" arrival="57795.00" arrivalLane="201956811#0_1" arrivalPos="40.40" arrivalSpeed="13.49" duration="178.00" routeLength="2067.33" waitingTime="3.00" waitingCount="2" stopTime="0.00" timeLoss="30.23" rerouteNo="1" devices="tripinfo_carIn86816:1 routing_carIn86816:1 emissions_carIn86816:1" vType="default_016" speedFactor="1.02" vaporized="">
        <emissions CO_abs="6033.655277" CO2_abs="468373.996468" HC_abs="38.405625" PMx_abs="7.776409" NOx_abs="186.225105" fuel_abs="201.333911" electricity_abs="0"/>
    </tripinfo>
    <tripinfo id="h11737c1:1" depart="57665.00" departLane="272042143_1" departPos="5.10" departSpeed="0.00" departDelay="1.50" arrival="57797.00" arrivalLane="-315358254#1_1" arrivalPos="137.16" arrivalSpeed="13.50" duration="132.00" routeLength="1596.88" waitingTime="1.00" waitingCount="1" stopTime="0.00" timeLoss="16.36" rerouteNo="1" devices="tripinfo_h11737c1:1 routing_h11737c1:1 emissions_h11737c1:1" vType="default_016" speedFactor="1.01" vaporized="">
        <emissions CO_abs="3834.346081" CO2_abs="323472.182325" HC_abs="24.938695" PMx_abs="5.112363" NOx_abs="126.632664" fuel_abs="139.046966" electricity_abs="0"/>
    </tripinfo>
    <tripinfo id="carIn126288:1" depart="57674.00" departLane="272042143_1" departPos="5.10" departSpeed="0.00" departDelay="0.00" arrival="57798.00" arrivalLane="-315358254#1_1" arrivalPos="137.16" arrivalSpeed="15.05" duration="124.00" routeLength="1596.88" waitingTime="0.00" waitingCount="0" stopTime="0.00" timeLoss="27.10" rerouteNo="1" devices="tripinfo_carIn126288:1 routing_carIn126288:1 emissions_carIn126288:1" vType="default_016" speedFactor="1.20" vaporized="">
        <emissions CO_abs="4680.161869" CO2_abs="369564.678787" HC_abs="29.942102" PMx_abs="6.424116" NOx_abs="148.282352" fuel_abs="158.859553" electricity_abs="0"/>
    </tripinfo>
    <tripinfo id="h7181c1:1" depart="57660.00" departLane="315358254#0_1" departPos="5.10" departSpeed="0.00" departDelay="0.10" arrival="57799.00" arrivalLane="306240162#0_0" arrivalPos="220.43" arrivalSpeed="19.37" duration="139.00" routeLength="932.35" waitingTime="74.00" waitingCount="2" stopTime="0.00" timeLoss="95.87" rerouteNo="1" devices="tripinfo_h7181c1:1 routing_h7181c1:1 emissions_h7181c1:1" vType="default_016" speedFactor="1.19" vaporized="">
        <emissions CO_abs="16140.652619" CO2_abs="494349.952975" HC_abs="85.343310" PMx_abs="11.054280" NOx_abs="214.791535" fuel_abs="212.503901" electricity_abs="0"/>
    </tripinfo>
    <tripinfo id="carIn107282:1" depart="57749.00" departLane="-447569998#1_1" departPos="5.10" departSpeed="0.00" departDelay="0.00" arrival="57799.00" arrivalLane="315358242#0_1" arrivalPos="165.37" arrivalSpeed="12.36" duration="50.00" routeLength="448.50" waitingTime="0.00" waitingCount="0" stopTime="0.00" timeLoss="5.48" rerouteNo="1" devices="tripinfo_carIn107282:1 routing_carIn107282:1 emissions_carIn107282:1" vType="default_016" speedFactor="0.94" vaporized="">
        <emissions CO_abs="1885.114563" CO2_abs="109683.288072" HC_abs="11.100621" PMx_abs="1.654467" NOx_abs="43.137413" fuel_abs="47.148744" electricity_abs="0"/>
    </tripinfo>
    <tripinfo id="carIn12152:1" depart="57647.00" departLane="24599188#0.94_1" departPos="5.10" departSpeed="0.00" departDelay="0.50" arrival="57800.00" arrivalLane="-315358254#1_1" arrivalPos="137.16" arrivalSpeed="16.22" duration="153.00" routeLength="2034.31" waitingTime="0.00" waitingCount="0" stopTime="0.00" timeLoss="18.53" rerouteNo="1" devices="tripinfo_carIn12152:1 routing_carIn12152:1 emissions_carIn12152:1" vType="default_016" speedFactor="1.18" vaporized="">
        <emissions CO_abs="5151.277430" CO2_abs="443964.632998" HC_abs="33.617316" PMx_abs="7.433732" NOx_abs="175.083789" fuel_abs="190.840933" electricity_abs="0"/>
    </tripinfo>
    <tripinfo id="carIn129809:1" depart="57729.00" departLane="-447569998#1_1" departPos="5.10" departSpeed="0.00" departDelay="1.00" arrival="57803.00" arrivalLane="-315358244_1" arrivalPos="33.95" arrivalSpeed="14.03" duration="74.00" routeLength="706.49" waitingTime="2.00" waitingCount="1" stopTime="0.00" timeLoss="17.92" rerouteNo="1" devices="tripinfo_carIn129809:1 routing_carIn129809:1 emissions_carIn129809:1" vType="default_015" speedFactor="1.08" vaporized="">
        <emissions CO_abs="3375.574976" CO2_abs="187664.383130" HC_abs="19.779069" PMx_abs="3.386480" NOx_abs="77.418500" fuel_abs="80.669177" electricity_abs="0"/>
    </tripinfo>
    <tripinfo id="carIn102915:1" depart="57643.00" departLane="128361102#0_1" departPos="5.10" departSpeed="0.00" departDelay="0.40" arrival="57806.00" arrivalLane="201956811#0_1" arrivalPos="40.40" arrivalSpeed="13.84" duration="163.00" routeLength="2067.33" waitingTime="0.00" waitingCount="0" stopTime="0.00" timeLoss="15.20" rerouteNo="1" devices="tripinfo_carIn102915:1 routing_carIn102915:1 emissions_carIn102915:1" vType="default_016" speedFactor="1.03" vaporized="">
        <emissions CO_abs="4518.697873" CO2_abs="398327.023278" HC_abs="29.893112" PMx_abs="6.459632" NOx_abs="156.851547" fuel_abs="171.223489" electricity_abs="0"/>
    </tripinfo>
    <tripinfo id="h9563c2:5" depart="57631.00" departLane="315358244_1" departPos="5.10" departSpeed="0.00" departDelay="0.70" arrival="57807.00" arrivalLane="386687235_1" arrivalPos="80.84" arrivalSpeed="12.46" duration="176.00" routeLength="1186.14" waitingTime="64.00" waitingCount="2" stopTime="0.00" timeLoss="80.94" rerouteNo="1" devices="tripinfo_h9563c2:5 routing_h9563c2:5 emissions_h9563c2:5" vType="default_016" speedFactor="0.91" vaporized="">
        <emissions CO_abs="14043.840955" CO2_abs="444404.505310" HC_abs="74.329792" PMx_abs="8.630178" NOx_abs="186.683047" fuel_abs="191.035471" electricity_abs="0"/>
    </tripinfo>
    <tripinfo id="carIn12365:1" depart="57713.00" departLane="315358244_1" departPos="5.10" departSpeed="0.00" departDelay="0.50" arrival="57811.00" arrivalLane="447569997#1_1" arrivalPos="180.93" arrivalSpeed="7.00" duration="98.00" routeLength="718.04" waitingTime="24.00" waitingCount="1" stopTime="0.00" timeLoss="35.48" rerouteNo="1" devices="tripinfo_carIn12365:1 routing_carIn12365:1 emissions_carIn12365:1" vType="default_016" speedFactor="0.98" vaporized="">
        <emissions CO_abs="5408.672641" CO2_abs="200696.998159" HC_abs="29.302576" PMx_abs="3.683534" NOx_abs="83.013329" fuel_abs="86.272824" electricity_abs="0"/>
    </tripinfo>
    <tripinfo id="h17600c1:1" depart="57662.00" departLane="272042143_1" departPos="5.10" departSpeed="0.00" departDelay="0.30" arrival="57831.00" arrivalLane="201238729#3_1" arrivalPos="431.02" arrivalSpeed="13.46" duration="169.00" routeLength="2100.26" waitingTime="5.00" waitingCount="1" stopTime="0.00" timeLoss="22.25" rerouteNo="1" devices="tripinfo_h17600c1:1 routing_h17600c1:1 emissions_h17600c1:1" vType="default_016" speedFactor="1.03" vaporized="">
        <emissions CO_abs="4285.084056" CO2_abs="383567.782957" HC_abs="28.415697" PMx_abs="5.996383" NOx_abs="149.067403" fuel_abs="164.879466" electricity_abs="0"/>
    </tripinfo>
    <tripinfo id="carIn22761:1" depart="57616.00" departLane="-306240162#1_0" departPos="5.10" departSpeed="0.00" departDelay="2.10" arrival="57832.00" arrivalLane="399835085#1_1" arrivalPos="212.23" arrivalSpeed="7.65" duration="216.00" routeLength="1093.26" waitingTime="111.00" waitingCount="3" stopTime="0.00" timeLoss="142.79" rerouteNo="1" devices="tripinfo_carIn22761:1 routing_carIn22761:1 emissions_carIn22761:1" vType="default_016" speedFactor="1.06" vaporized="">
        <emissions CO_abs="21819.727060" CO2_abs="613374.408354" HC_abs="113.901833" PMx_abs="13.362304" NOx_abs="266.237838" fuel_abs="263.670251" electricity_abs="0"/>
    </tripinfo>
    <tripinfo id="h17549c1:1" depart="57680.00" departLane="-447569998#1_1" departPos="5.10" departSpeed="0.00" departDelay="0.00" arrival="57837.00" arrivalLane="-315358254#1_1" arrivalPos="137.16" arrivalSpeed="12.96" duration="157.00" routeLength="1746.60" waitingTime="5.00" waitingCount="1" stopTime="0.00" timeLoss="22.32" rerouteNo="1" devices="tripinfo_h17549c1:1 routing_h17549c1:1 emissions_h17549c1:1" vType="default_016" speedFactor="1.02" vaporized="">
        <emissions CO_abs="4439.723358" CO2_abs="347329.129455" HC_abs="28.244339" PMx_abs="5.403256" NOx_abs="135.831858" fuel_abs="149.302425" electricity_abs="0"/>
    </tripinfo>
    <tripinfo id="carIn12858:1" depart="57661.00" departLane="128361109#1_1" departPos="5.10" departSpeed="0.00" departDelay="0.90" arrival="57838.00" arrivalLane="399835085#1_1" arrivalPos="212.23" arrivalSpeed="7.36" duration="177.00" routeLength="1738.12" waitingTime="24.00" waitingCount="3" stopTime="0.00" timeLoss="57.57" rerouteNo="1" devices="tripinfo_carIn12858:1 routing_carIn12858:1 emissions_carIn12858:1" vType="default_016" speedFactor="0.96" vaporized="">
        <emissions CO_abs="9559.247322" CO2_abs="519778.380544" HC_abs="55.897263" PMx_abs="10.001199" NOx_abs="215.418777" fuel_abs="223.430830" electricity_abs="0"/>
    </tripinfo>
    <tripinfo id="carIn12775:1" depart="57676.00" departLane="10425609#0_1" departPos="5.10" departSpeed="0.00" departDelay="0.60" arrival="57845.00" arrivalLane="18809673#0_1" arrivalPos="473.56" arrivalSpeed="17.78" duration="169.00" routeLength="1959.45" waitingTime="37.00" waitingCount="1" stopTime="0.00" timeLoss="55.84" rerouteNo="1" devices="tripinfo_carIn12775:1 routing_carIn12775:1 emissions_carIn12775:1" vType="default_016" speedFactor="1.28" vaporized="">
        <emissions CO_abs="10460.906346" CO2_abs="517013.570995" HC_abs="59.724096" PMx_abs="9.759260" NOx_abs="210.463519" fuel_abs="222.243693" electricity_abs="0"/>
    </tripinfo>
    <tripinfo id="randUni15030:1" depart="57735.00" departLane="386687232#0_1" departPos="5.10" departSpeed="0.00" departDelay="0.10" arrival="57845.00" arrivalLane="26677539_1" arrivalPos="151.98" arrivalSpeed="8.36" duration="110.00" routeLength="919.89" waitingTime="16.00" waitingCount="1" stopTime="0.00" timeLoss="31.52" rerouteNo="1" devices="tripinfo_randUni15030:1 routing_randUni15030:1 emissions_randUni15030:1" vType="random_016" speedFactor="1.07" vaporized="">
        <emissions CO_abs="5509.727134" CO2_abs="258384.741921" HC_abs="31.063396" PMx_abs="4.554205" NOx_abs="105.589304" fuel_abs="111.069867" electricity_abs="0"/>
    </tripinfo>
    <tripinfo id="h3154c1:1" depart="57658.00" departLane="24634507_1" departPos="5.10" departSpeed="0.00" departDelay="0.00" arrival="57846.00" arrivalLane="-266565295#5_1" arrivalPos="172.76" arrivalSpeed="14.48" duration="188.00" routeLength="1206.22" waitingTime="78.00" waitingCount="3" stopTime="0.00" timeLoss="105.96" rerouteNo="1" devices="tripinfo_h3154c1:1 routing_h3154c1:1 emissions_h3154c1:1" vType="default_016" speedFactor="1.08" vaporized="">
        <emissions CO_abs="16477.057159" CO2_abs="549907.618187" HC_abs="87.818564" PMx_abs="11.005346" NOx_abs="232.440039" fuel_abs="236.386701" electricity_abs="0"/>
    </tripinfo>
    <tripinfo id="carIn118591:1" depart="57689.00" departLane="315358244_1" departPos="5.10" departSpeed="0.00" departDelay="0.20" arrival="57849.00" arrivalLane="386687235_1" arrivalPos="80.84" arrivalSpeed="13.09" duration="160.00" routeLength="1186.14" waitingTime="53.00" waitingCount="2" stopTime="0.00" timeLoss="73.68" rerouteNo="1" devices="tripinfo_carIn118591:1 routing_carIn118591:1 emissions_carIn118591:1" vType="default_016" speedFactor="1.00" vaporized="">
        <emissions CO_abs="12275.474783" CO2_abs="418705.817954" HC_abs="65.705056" PMx_abs="8.109528" NOx_abs="175.231191" fuel_abs="179.987684" electricity_abs="0"/>
    </tripinfo>
    <tripinfo id="50R_frequency3.17" depart="57674.00" departLane="-18809673#6_1" departPos="12.10" departSpeed="0.00" departDelay="0.70" arrival="57850.00" arrivalLane="201956811#0_1" arrivalPos="40.40" arrivalSpeed="13.50" duration="176.00" routeLength="1954.47" waitingTime="5.00" waitingCount="1" stopTime="0.00" timeLoss="31.19" rerouteNo="1" devices="tripinfo_50R_frequency3.17 routing_50R_frequency3.17 emissions_50R_frequency3.17" vType="bus" speedFactor="1.00" vaporized="">
        <emissions CO_abs="3321.084746" CO2_abs="2102003.097837" HC_abs="689.869463" PMx_abs="355.916883" NOx_abs="16264.011640" fuel_abs="896.478442" electricity_abs="0"/>
    </tripinfo>
    <tripinfo id="h6541c1:3" depart="57727.00" departLane="201950247#3_1" departPos="5.10" departSpeed="0.00" departDelay="0.00" arrival="57860.00" arrivalLane="32978638#0_1" arrivalPos="49.29" arrivalSpeed="13.39" duration="133.00" routeLength="1176.17" waitingTime="14.00" waitingCount="2" stopTime="0.00" timeLoss="34.66" rerouteNo="1" devices="tripinfo_h6541c1:3 routing_h6541c1:3 emissions_h6541c1:3" vType="default_016" speedFactor="1.04" vaporized="">
        <emissions CO_abs="5557.181585" CO2_abs="317083.945408" HC_abs="32.673878" PMx_abs="5.463721" NOx_abs="128.875376" fuel_abs="136.301598" electricity_abs="0"/>
    </tripinfo>
    <tripinfo id="carIn8642:1" depart="57774.00" departLane="-447569998#1_1" departPos="5.10" departSpeed="0.00" departDelay="0.90" arrival="57863.00" arrivalLane="-315358244_1" arrivalPos="33.95" arrivalSpeed="14.43" duration="89.00" routeLength="706.49" waitingTime="17.00" waitingCount="2" stopTime="0.00" timeLoss="32.86" rerouteNo="1" devices="tripinfo_carIn8642:1 routing_carIn8642:1 emissions_carIn8642:1" vType="default_016" speedFactor="1.08" vaporized="">
        <emissions CO_abs="4185.353558" CO2_abs="206679.825300" HC_abs="23.910190" PMx_abs="3.768861" NOx_abs="85.262131" fuel_abs="88.843498" electricity_abs="0"/>
    </tripinfo>
    <tripinfo id="carIn118538:1" depart="57683.00" departLane="-447569998#1_1" departPos="5.10" departSpeed="0.00" departDelay="1.00" arrival="57865.00" arrivalLane="399835085#1_1" arrivalPos="212.23" arrivalSpeed="8.40" duration="182.00" routeLength="1907.17" waitingTime="3.00" waitingCount="1" stopTime="0.00" timeLoss="26.00" rerouteNo="1" devices="tripinfo_carIn118538:1 routing_carIn118538:1 emissions_carIn118538:1" vType="default_016" speedFactor="1.04" vaporized="">
        <emissions CO_abs="5567.378338" CO2_abs="401432.455285" HC_abs="34.671688" PMx_abs="6.531263" NOx_abs="159.455203" fuel_abs="172.559080" electricity_abs="0"/>
    </tripinfo>
    <tripinfo id="h13311c1:3" depart="57635.00" departLane="399835085#1_1" departPos="5.10" departSpeed="0.00" departDelay="0.00" arrival="57875.00" arrivalLane="32978638#0_1" arrivalPos="49.29" arrivalSpeed="14.17" duration="240.00" routeLength="2580.65" waitingTime="3.00" waitingCount="2" stopTime="0.00" timeLoss="31.65" rerouteNo="1" devices="tripinfo_h13311c1:3 routing_h13311c1:3 emissions_h13311c1:3" vType="default_016" speedFactor="1.02" vaporized="">
        <emissions CO_abs="7215.219147" CO2_abs="523169.528118" HC_abs="44.953848" PMx_abs="8.203026" NOx_abs="205.590240" fuel_abs="224.889236" electricity_abs="0"/>
    </tripinfo>
    <tripinfo id="h13377c2:3" depart="57808.00" departLane="315358244_1" departPos="5.10" departSpeed="0.00" departDelay="4.60" arrival="57877.00" arrivalLane="447569997#1_1" arrivalPos="180.93" arrivalSpeed="9.19" duration="69.00" routeLength="718.04" waitingTime="0.00" waitingCount="0" stopTime="0.00" timeLoss="16.14" rerouteNo="1" devices="tripinfo_h13377c2:3 routing_h13377c2:3 emissions_h13377c2:3" vType="default_016" speedFactor="1.17" vaporized="">
        <emissions CO_abs="2871.538169" CO2_abs="182443.385899" HC_abs="17.341948" PMx_abs="3.108641" NOx_abs="73.692757" fuel_abs="78.424855" electricity_abs="0"/>
    </tripinfo>
    <tripinfo id="h3536c1:1" depart="57767.00" departLane="-24634413#2_1" departPos="5.10" departSpeed="0.00" departDelay="0.00" arrival="57887.00" arrivalLane="32978638#0_1" arrivalPos="49.29" arrivalSpeed="11.64" duration="120.00" routeLength="953.61" waitingTime="0.00" waitingCount="0" stopTime="0.00" timeLoss="15.72" rerouteNo="1" devices="tripinfo_h3536c1:1 routing_h3536c1:1 emissions_h3536c1:1" vType="default_016" speedFactor="0.87" vaporized="">
        <emissions CO_abs="4710.094758" CO2_abs="242776.651545" HC_abs="27.062449" PMx_abs="4.034837" NOx_abs="98.625865" fuel_abs="104.360417" electricity_abs="0"/>
    </tripinfo>
    <tripinfo id="carIn70533:1" depart="57812.00" departLane="-447569998#1_1" departPos="5.10" departSpeed="0.00" departDelay="0.10" arrival="57888.00" arrivalLane="-315358244_1" arrivalPos="33.95" arrivalSpeed="12.22" duration="76.00" routeLength="706.49" waitingTime="1.00" waitingCount="1" stopTime="0.00" timeLoss="10.94" rerouteNo="1" devices="tripinfo_carIn70533:1 routing_carIn70533:1 emissions_carIn70533:1" vType="default_016" speedFactor="0.93" vaporized="">
        <emissions CO_abs="2528.417276" CO2_abs="154532.061653" HC_abs="15.078066" PMx_abs="2.396806" NOx_abs="61.037340" fuel_abs="66.427361" electricity_abs="0"/>
    </tripinfo>
    <tripinfo id="carIn82278:1" depart="57702.00" departLane="-306240162#1_0" departPos="5.10" departSpeed="0.00" departDelay="0.70" arrival="57893.00" arrivalLane="399835085#1_1" arrivalPos="212.23" arrivalSpeed="8.43" duration="191.00" routeLength="1093.26" waitingTime="92.00" waitingCount="1" stopTime="0.00" timeLoss="114.99" rerouteNo="1" devices="tripinfo_carIn82278:1 routing_carIn82278:1 emissions_carIn82278:1" vType="default_016" speedFactor="1.03" vaporized="">
        <emissions CO_abs="19630.241823" CO2_abs="550572.597921" HC_abs="102.444890" PMx_abs="11.988216" NOx_abs="238.629620" fuel_abs="236.673820" electricity_abs="0"/>
    </tripinfo>