<?xml version="1.0" encoding="UTF-8"?>

<!-- generated on 2021-10-26 21:40:17 by Eclipse SUMO sumo Version 1.10.0
<configuration xmlns:xsi="http://www.w3.org/2001/XMLSchema-instance" xsi:noNamespaceSchemaLocation="http://sumo.dlr.de/xsd/sumoConfiguration.xsd">

    <input>
        <net-file value="/Users/behradkoohy/sumo-scratchpad/RESCO/environments/ingolstadt21/ingolstadt21.net.xml"/>
        <route-files value="/Users/behradkoohy/sumo-scratchpad/RESCO/environments/ingolstadt21/ingolstadt21.rou.xml"/>
    </input>

    <output>
        <tripinfo-output value="/Users/behradkoohy/sumo-scratchpad/RESCO/logs/MPLight-tr0-ingolstadt21-21-mplight_full-pressure/tripinfo_64.xml"/>
        <tripinfo-output.write-unfinished value="true"/>
    </output>

    <time>
        <begin value="57600"/>
        <end value="61200"/>
    </time>

    <processing>
        <time-to-teleport value="-1"/>
    </processing>

    <report>
        <no-warnings value="true"/>
        <no-step-log value="true"/>
    </report>

    <emissions>
        <device.emissions.probability value="1"/>
    </emissions>

    <traci_server>
        <remote-port value="65199"/>
    </traci_server>

    <random_number>
        <random value="true"/>
    </random_number>

</configuration>
-->

<tripinfos xmlns:xsi="http://www.w3.org/2001/XMLSchema-instance" xsi:noNamespaceSchemaLocation="http://sumo.dlr.de/xsd/tripinfo_file.xsd">
    <tripinfo id="h15454c2:3" depart="57612.00" departLane="24608844_1" departPos="5.10" departSpeed="0.00" departDelay="0.50" arrival="57648.00" arrivalLane="32978638#0_1" arrivalPos="49.29" arrivalSpeed="14.72" duration="36.00" routeLength="354.79" waitingTime="0.00" waitingCount="0" stopTime="0.00" timeLoss="4.23" rerouteNo="1" devices="tripinfo_h15454c2:3 routing_h15454c2:3 emissions_h15454c2:3" vType="default_016" speedFactor="1.06" vaporized="">
        <emissions CO_abs="1688.948966" CO2_abs="100997.013337" HC_abs="10.060546" PMx_abs="1.785557" NOx_abs="41.383660" fuel_abs="43.414402" electricity_abs="0"/>
    </tripinfo>
    <tripinfo id="carIn60260:1" depart="57606.00" departLane="315358254#0_1" departPos="5.10" departSpeed="0.00" departDelay="0.90" arrival="57680.00" arrivalLane="399835085#1_1" arrivalPos="212.23" arrivalSpeed="6.83" duration="74.00" routeLength="430.98" waitingTime="10.00" waitingCount="1" stopTime="0.00" timeLoss="20.46" rerouteNo="1" devices="tripinfo_carIn60260:1 routing_carIn60260:1 emissions_carIn60260:1" vType="default_016" speedFactor="0.87" vaporized="">
        <emissions CO_abs="3657.024709" CO2_abs="133568.474456" HC_abs="19.751626" PMx_abs="2.460545" NOx_abs="56.060873" fuel_abs="57.416508" electricity_abs="0"/>
    </tripinfo>
    <tripinfo id="carIn53971:1" depart="57640.00" departLane="272042143_1" departPos="5.10" departSpeed="0.00" departDelay="0.80" arrival="57692.00" arrivalLane="24634414#1_1" arrivalPos="162.19" arrivalSpeed="7.41" duration="52.00" routeLength="493.04" waitingTime="0.00" waitingCount="0" stopTime="0.00" timeLoss="7.66" rerouteNo="1" devices="tripinfo_carIn53971:1 routing_carIn53971:1 emissions_carIn53971:1" vType="default_016" speedFactor="1.03" vaporized="">
        <emissions CO_abs="2386.126411" CO2_abs="137907.357232" HC_abs="14.083446" PMx_abs="2.370969" NOx_abs="56.233235" fuel_abs="59.280773" electricity_abs="0"/>
    </tripinfo>
    <tripinfo id="h4538c1:1" depart="57701.00" departLane="-10427692#1_1" departPos="5.10" departSpeed="0.00" departDelay="0.00" arrival="57741.00" arrivalLane="-128361102#1_1" arrivalPos="274.68" arrivalSpeed="12.13" duration="40.00" routeLength="440.74" waitingTime="0.00" waitingCount="0" stopTime="0.00" timeLoss="6.05" rerouteNo="1" devices="tripinfo_h4538c1:1 routing_h4538c1:1 emissions_h4538c1:1" vType="default_016" speedFactor="0.94" vaporized="">
        <emissions CO_abs="1528.350042" CO2_abs="105450.374663" HC_abs="9.424301" PMx_abs="1.762581" NOx_abs="42.354335" fuel_abs="45.328691" electricity_abs="0"/>
    </tripinfo>
    <tripinfo id="h5979c1:5" depart="57669.00" departLane="399835085#1_1" departPos="5.10" departSpeed="0.00" departDelay="0.00" arrival="57749.00" arrivalLane="-315358254#1_1" arrivalPos="137.16" arrivalSpeed="15.74" duration="80.00" routeLength="659.33" waitingTime="0.00" waitingCount="0" stopTime="0.00" timeLoss="15.31" rerouteNo="1" devices="tripinfo_h5979c1:5 routing_h5979c1:5 emissions_h5979c1:5" vType="default_016" speedFactor="1.14" vaporized="">
        <emissions CO_abs="3605.299040" CO2_abs="193670.749027" HC_abs="20.903712" PMx_abs="3.269111" NOx_abs="78.828060" fuel_abs="83.251473" electricity_abs="0"/>
    </tripinfo>
    <tripinfo id="carIn30817:1" depart="57681.00" departLane="315358244_1" departPos="5.10" departSpeed="0.00" departDelay="0.20" arrival="57753.00" arrivalLane="447569997#1_1" arrivalPos="180.93" arrivalSpeed="7.72" duration="72.00" routeLength="718.04" waitingTime="2.00" waitingCount="1" stopTime="0.00" timeLoss="13.17" rerouteNo="1" devices="tripinfo_carIn30817:1 routing_carIn30817:1 emissions_carIn30817:1" vType="default_016" speedFactor="1.05" vaporized="">
        <emissions CO_abs="2728.874810" CO2_abs="173350.094831" HC_abs="16.437027" PMx_abs="2.882099" NOx_abs="69.484829" fuel_abs="74.516138" electricity_abs="0"/>
    </tripinfo>
    <tripinfo id="h3688c1:1" depart="57625.00" departLane="201201950#1_1" departPos="5.10" departSpeed="0.00" departDelay="0.00" arrival="57755.00" arrivalLane="32978638#0_1" arrivalPos="49.29" arrivalSpeed="13.76" duration="130.00" routeLength="1089.75" waitingTime="37.00" waitingCount="2" stopTime="0.00" timeLoss="54.33" rerouteNo="1" devices="tripinfo_h3688c1:1 routing_h3688c1:1 emissions_h3688c1:1" vType="default_016" speedFactor="1.06" vaporized="">
        <emissions CO_abs="8442.247880" CO2_abs="357738.764831" HC_abs="46.739991" PMx_abs="6.888933" NOx_abs="149.188436" fuel_abs="153.778291" electricity_abs="0"/>
    </tripinfo>
    <tripinfo id="h7800c1:5" depart="57696.00" departLane="-447569998#1_1" departPos="5.10" departSpeed="0.00" departDelay="0.00" arrival="57755.00" arrivalLane="-447569998#1_2" arrivalPos="180.76" arrivalSpeed="2.97" duration="59.00" routeLength="175.66" waitingTime="25.00" waitingCount="1" stopTime="0.00" timeLoss="33.29" rerouteNo="1" devices="tripinfo_h7800c1:5 routing_h7800c1:5 emissions_h7800c1:5" vType="default_016" speedFactor="0.82" vaporized="">
        <emissions CO_abs="5293.661641" CO2_abs="115084.673090" HC_abs="26.766065" PMx_abs="2.403213" NOx_abs="50.010991" fuel_abs="49.472369" electricity_abs="0"/>
    </tripinfo>
    <tripinfo id="h7181c1:1" depart="57660.00" departLane="315358254#0_1" departPos="5.10" departSpeed="0.00" departDelay="0.10" arrival="57756.00" arrivalLane="306240162#0_0" arrivalPos="220.43" arrivalSpeed="17.15" duration="96.00" routeLength="932.35" waitingTime="24.00" waitingCount="2" stopTime="0.00" timeLoss="47.72" rerouteNo="1" devices="tripinfo_h7181c1:1 routing_h7181c1:1 emissions_h7181c1:1" vType="default_016" speedFactor="1.06" vaporized="">
        <emissions CO_abs="8585.499457" CO2_abs="389210.410067" HC_abs="48.415618" PMx_abs="8.253381" NOx_abs="166.771862" fuel_abs="167.305152" electricity_abs="0"/>
    </tripinfo>
    <tripinfo id="h317c2:1" depart="57707.00" departLane="-32978638#0_1" departPos="5.10" departSpeed="0.00" departDelay="0.10" arrival="57769.00" arrivalLane="-266565295#5_1" arrivalPos="172.76" arrivalSpeed="10.25" duration="62.00" routeLength="370.53" waitingTime="19.00" waitingCount="1" stopTime="0.00" timeLoss="28.00" rerouteNo="1" devices="tripinfo_h317c2:1 routing_h317c2:1 emissions_h317c2:1" vType="default_016" speedFactor="0.80" vaporized="">
        <emissions CO_abs="4301.264651" CO2_abs="147636.170843" HC_abs="23.028454" PMx_abs="2.809440" NOx_abs="62.051375" fuel_abs="63.463865" electricity_abs="0"/>
    </tripinfo>
    <tripinfo id="h330c1:1" depart="57736.00" departLane="-32978638#0_1" departPos="5.10" departSpeed="0.00" departDelay="0.20" arrival="57771.00" arrivalLane="-266565295#5_1" arrivalPos="172.76" arrivalSpeed="13.82" duration="35.00" routeLength="370.53" waitingTime="0.00" waitingCount="0" stopTime="0.00" timeLoss="8.80" rerouteNo="1" devices="tripinfo_h330c1:1 routing_h330c1:1 emissions_h330c1:1" vType="default_016" speedFactor="1.06" vaporized="">
        <emissions CO_abs="2083.499523" CO2_abs="130948.478990" HC_abs="12.586799" PMx_abs="2.437307" NOx_abs="54.445079" fuel_abs="56.289009" electricity_abs="0"/>
    </tripinfo>
    <tripinfo id="h3326c1:2" depart="57656.00" departLane="22716069#0_1" departPos="5.10" departSpeed="0.00" departDelay="0.00" arrival="57776.00" arrivalLane="24634517#13_1" arrivalPos="111.62" arrivalSpeed="12.53" duration="120.00" routeLength="1312.81" waitingTime="0.00" waitingCount="0" stopTime="0.00" timeLoss="14.62" rerouteNo="1" devices="tripinfo_h3326c1:2 routing_h3326c1:2 emissions_h3326c1:2" vType="default_016" speedFactor="0.92" vaporized="">
        <emissions CO_abs="3812.135981" CO2_abs="285754.529305" HC_abs="24.032648" PMx_abs="4.691422" NOx_abs="114.177286" fuel_abs="122.833733" electricity_abs="0"/>
    </tripinfo>
    <tripinfo id="h3154c1:1" depart="57658.00" departLane="24634507_1" departPos="5.10" departSpeed="0.00" departDelay="0.00" arrival="57790.00" arrivalLane="-266565295#5_1" arrivalPos="172.76" arrivalSpeed="13.91" duration="132.00" routeLength="1206.22" waitingTime="23.00" waitingCount="2" stopTime="0.00" timeLoss="44.01" rerouteNo="1" devices="tripinfo_h3154c1:1 routing_h3154c1:1 emissions_h3154c1:1" vType="default_016" speedFactor="1.01" vaporized="">
        <emissions CO_abs="7269.512700" CO2_abs="364464.886956" HC_abs="41.666938" PMx_abs="6.636263" NOx_abs="149.810522" fuel_abs="156.669038" electricity_abs="0"/>
    </tripinfo>
    <tripinfo id="h3568c1:3" depart="57656.00" departLane="266565295#5_1" departPos="5.10" departSpeed="0.00" departDelay="0.80" arrival="57796.00" arrivalLane="-24634415_1" arrivalPos="62.03" arrivalSpeed="12.92" duration="140.00" routeLength="807.40" waitingTime="58.00" waitingCount="1" stopTime="0.00" timeLoss="76.88" rerouteNo="1" devices="tripinfo_h3568c1:3 routing_h3568c1:3 emissions_h3568c1:3" vType="default_016" speedFactor="1.02" vaporized="">
        <emissions CO_abs="12639.812948" CO2_abs="379762.066953" HC_abs="66.490572" PMx_abs="7.864229" NOx_abs="163.134605" fuel_abs="163.247479" electricity_abs="0"/>
    </tripinfo>
    <tripinfo id="carIn126288:1" depart="57674.00" departLane="272042143_1" departPos="5.10" departSpeed="0.00" departDelay="0.00" arrival="57796.00" arrivalLane="-315358254#1_1" arrivalPos="137.16" arrivalSpeed="15.71" duration="122.00" routeLength="1596.88" waitingTime="5.00" waitingCount="1" stopTime="0.00" timeLoss="21.72" rerouteNo="1" devices="tripinfo_carIn126288:1 routing_carIn126288:1 emissions_carIn126288:1" vType="default_016" speedFactor="1.17" vaporized="">
        <emissions CO_abs="4472.269096" CO2_abs="358428.844020" HC_abs="28.682675" PMx_abs="6.201357" NOx_abs="142.738602" fuel_abs="154.072817" electricity_abs="0"/>
    </tripinfo>
    <tripinfo id="carIn107282:1" depart="57749.00" departLane="-447569998#1_1" departPos="5.10" departSpeed="0.00" departDelay="0.00" arrival="57803.00" arrivalLane="315358242#0_1" arrivalPos="165.37" arrivalSpeed="11.49" duration="54.00" routeLength="448.50" waitingTime="0.00" waitingCount="0" stopTime="0.00" timeLoss="5.90" rerouteNo="1" devices="tripinfo_carIn107282:1 routing_carIn107282:1 emissions_carIn107282:1" vType="default_016" speedFactor="0.86" vaporized="">
        <emissions CO_abs="2206.178129" CO2_abs="115945.648322" HC_abs="12.698453" PMx_abs="1.759333" NOx_abs="45.886178" fuel_abs="49.840842" electricity_abs="0"/>
    </tripinfo>
    <tripinfo id="carIn129809:1" depart="57728.00" departLane="-447569998#1_1" departPos="5.10" departSpeed="0.00" departDelay="0.00" arrival="57813.00" arrivalLane="-315358244_1" arrivalPos="33.95" arrivalSpeed="14.18" duration="85.00" routeLength="706.49" waitingTime="8.00" waitingCount="2" stopTime="0.00" timeLoss="26.54" rerouteNo="1" devices="tripinfo_carIn129809:1 routing_carIn129809:1 emissions_carIn129809:1" vType="default_015" speedFactor="1.04" vaporized="">
        <emissions CO_abs="3649.294286" CO2_abs="190357.164186" HC_abs="21.072875" PMx_abs="3.450696" NOx_abs="78.594419" fuel_abs="81.826863" electricity_abs="0"/>
    </tripinfo>
    <tripinfo id="carIn81860:1" depart="57712.00" departLane="128361102#0_1" departPos="5.10" departSpeed="0.00" departDelay="0.60" arrival="57818.00" arrivalLane="-24634517#17_1" arrivalPos="6.43" arrivalSpeed="7.86" duration="106.00" routeLength="1229.64" waitingTime="0.00" waitingCount="0" stopTime="0.00" timeLoss="21.53" rerouteNo="1" devices="tripinfo_carIn81860:1 routing_carIn81860:1 emissions_carIn81860:1" vType="default_016" speedFactor="1.08" vaporized="">
        <emissions CO_abs="4317.383593" CO2_abs="309231.261614" HC_abs="26.924181" PMx_abs="5.316059" NOx_abs="124.272259" fuel_abs="132.925266" electricity_abs="0"/>
    </tripinfo>
    <tripinfo id="carIn107084:1" depart="57601.00" departLane="124812856#0_1" departPos="5.10" departSpeed="0.00" departDelay="0.70" arrival="57819.00" arrivalLane="-128361102#1_1" arrivalPos="274.68" arrivalSpeed="10.63" duration="218.00" routeLength="2232.46" waitingTime="0.00" waitingCount="0" stopTime="0.00" timeLoss="17.91" rerouteNo="1" devices="tripinfo_carIn107084:1 routing_carIn107084:1 emissions_carIn107084:1" vType="default_016" speedFactor="0.82" vaporized="">
        <emissions CO_abs="5699.415528" CO2_abs="416076.372838" HC_abs="35.563942" PMx_abs="6.351345" NOx_abs="163.754883" fuel_abs="178.854354" electricity_abs="0"/>
    </tripinfo>
    <tripinfo id="h17600c1:1" depart="57662.00" departLane="272042143_1" departPos="5.10" departSpeed="0.00" departDelay="0.30" arrival="57821.00" arrivalLane="201238729#3_1" arrivalPos="431.02" arrivalSpeed="14.02" duration="159.00" routeLength="2100.26" waitingTime="0.00" waitingCount="0" stopTime="0.00" timeLoss="10.81" rerouteNo="1" devices="tripinfo_h17600c1:1 routing_h17600c1:1 emissions_h17600c1:1" vType="default_016" speedFactor="1.03" vaporized="">
        <emissions CO_abs="3185.371471" CO2_abs="354133.783161" HC_abs="22.568772" PMx_abs="5.157589" NOx_abs="134.416400" fuel_abs="152.227019" electricity_abs="0"/>
    </tripinfo>
    <tripinfo id="carIn27009:1" depart="57673.00" departLane="-447569998#1_1" departPos="5.10" departSpeed="0.00" departDelay="0.50" arrival="57821.00" arrivalLane="-26677539_1" arrivalPos="152.75" arrivalSpeed="7.73" duration="148.00" routeLength="699.63" waitingTime="53.00" waitingCount="1" stopTime="0.00" timeLoss="68.28" rerouteNo="1" devices="tripinfo_carIn27009:1 routing_carIn27009:1 emissions_carIn27009:1" vType="default_015" speedFactor="1.05" vaporized="">
        <emissions CO_abs="12167.610353" CO2_abs="327283.047597" HC_abs="63.002248" PMx_abs="6.509059" NOx_abs="139.927281" fuel_abs="140.689829" electricity_abs="0"/>
    </tripinfo>
    <tripinfo id="h16072c2:3" depart="57663.00" departLane="315358254#0_1" departPos="5.10" departSpeed="0.00" departDelay="2.50" arrival="57832.00" arrivalLane="386687235_1" arrivalPos="80.84" arrivalSpeed="11.90" duration="169.00" routeLength="1611.92" waitingTime="22.00" waitingCount="2" stopTime="0.00" timeLoss="42.09" rerouteNo="1" devices="tripinfo_h16072c2:3 routing_h16072c2:3 emissions_h16072c2:3" vType="default_016" speedFactor="0.93" vaporized="">
        <emissions CO_abs="6910.725306" CO2_abs="373279.998714" HC_abs="40.134934" PMx_abs="6.138682" NOx_abs="148.838393" fuel_abs="160.458889" electricity_abs="0"/>
    </tripinfo>
    <tripinfo id="h3864c1:3" depart="57678.00" departLane="24693977#1_1" departPos="5.10" departSpeed="0.00" departDelay="0.00" arrival="57839.00" arrivalLane="201956820_1" arrivalPos="48.33" arrivalSpeed="14.95" duration="161.00" routeLength="1574.85" waitingTime="14.00" waitingCount="2" stopTime="0.00" timeLoss="43.15" rerouteNo="1" devices="tripinfo_h3864c1:3 routing_h3864c1:3 emissions_h3864c1:3" vType="default_016" speedFactor="1.09" vaporized="">
        <emissions CO_abs="7943.745146" CO2_abs="460768.867958" HC_abs="47.047135" PMx_abs="8.632267" NOx_abs="191.362757" fuel_abs="198.064825" electricity_abs="0"/>
    </tripinfo>
    <tripinfo id="carIn86816:1" depart="57617.00" departLane="128361102#0_1" departPos="5.10" departSpeed="0.00" departDelay="0.80" arrival="57842.00" arrivalLane="201956811#0_1" arrivalPos="40.40" arrivalSpeed="11.84" duration="225.00" routeLength="2067.33" waitingTime="36.00" waitingCount="2" stopTime="0.00" timeLoss="64.44" rerouteNo="1" devices="tripinfo_carIn86816:1 routing_carIn86816:1 emissions_carIn86816:1" vType="default_016" speedFactor="0.94" vaporized="">
        <emissions CO_abs="10612.961606" CO2_abs="527499.210632" HC_abs="60.629027" PMx_abs="9.134635" NOx_abs="213.684022" fuel_abs="226.751851" electricity_abs="0"/>
    </tripinfo>
    <tripinfo id="h11737c1:1" depart="57665.00" departLane="272042143_1" departPos="5.10" departSpeed="0.00" departDelay="1.50" arrival="57843.00" arrivalLane="-315358254#1_1" arrivalPos="137.16" arrivalSpeed="9.85" duration="178.00" routeLength="1596.88" waitingTime="9.00" waitingCount="1" stopTime="0.00" timeLoss="25.73" rerouteNo="1" devices="tripinfo_h11737c1:1 routing_h11737c1:1 emissions_h11737c1:1" vType="default_016" speedFactor="0.76" vaporized="">
        <emissions CO_abs="5196.798907" CO2_abs="332443.043676" HC_abs="31.279451" PMx_abs="4.885975" NOx_abs="130.133267" fuel_abs="142.904563" electricity_abs="0"/>
    </tripinfo>
    <tripinfo id="carIn102915:1" depart="57643.00" departLane="128361102#0_1" departPos="5.10" departSpeed="0.00" departDelay="0.40" arrival="57844.00" arrivalLane="201956811#0_1" arrivalPos="40.40" arrivalSpeed="14.12" duration="201.00" routeLength="2067.33" waitingTime="15.00" waitingCount="2" stopTime="0.00" timeLoss="59.33" rerouteNo="1" devices="tripinfo_carIn102915:1 routing_carIn102915:1 emissions_carIn102915:1" vType="default_016" speedFactor="1.07" vaporized="">
        <emissions CO_abs="8113.905505" CO2_abs="521166.592307" HC_abs="49.215047" PMx_abs="9.236052" NOx_abs="212.605729" fuel_abs="224.027335" electricity_abs="0"/>
    </tripinfo>
    <tripinfo id="randUni33724:1" depart="57646.00" departLane="128361102#0_1" departPos="5.10" departSpeed="0.00" departDelay="1.20" arrival="57846.00" arrivalLane="201956811#0_1" arrivalPos="40.40" arrivalSpeed="13.05" duration="200.00" routeLength="2067.33" waitingTime="12.00" waitingCount="2" stopTime="0.00" timeLoss="48.63" rerouteNo="1" devices="tripinfo_randUni33724:1 routing_randUni33724:1 emissions_randUni33724:1" vType="random_016" speedFactor="1.00" vaporized="">
        <emissions CO_abs="7138.060392" CO2_abs="504670.963576" HC_abs="44.319067" PMx_abs="8.512870" NOx_abs="202.731613" fuel_abs="216.936646" electricity_abs="0"/>
    </tripinfo>
    <tripinfo id="carIn50326:1" depart="57651.00" departLane="128361102#0_1" departPos="5.10" departSpeed="0.00" departDelay="0.30" arrival="57849.00" arrivalLane="18809673#0_1" arrivalPos="473.56" arrivalSpeed="13.29" duration="198.00" routeLength="1591.07" waitingTime="40.00" waitingCount="1" stopTime="0.00" timeLoss="66.16" rerouteNo="1" devices="tripinfo_carIn50326:1 routing_carIn50326:1 emissions_carIn50326:1" vType="default_016" speedFactor="0.99" vaporized="">
        <emissions CO_abs="11576.233824" CO2_abs="445650.914581" HC_abs="63.086194" PMx_abs="8.238209" NOx_abs="184.610891" fuel_abs="191.569738" electricity_abs="0"/>
    </tripinfo>
    <tripinfo id="randUni15030:1" depart="57735.00" departLane="386687232#0_1" departPos="5.10" departSpeed="0.00" departDelay="0.10" arrival="57857.00" arrivalLane="26677539_1" arrivalPos="151.98" arrivalSpeed="6.87" duration="122.00" routeLength="919.89" waitingTime="8.00" waitingCount="1" stopTime="0.00" timeLoss="23.36" rerouteNo="1" devices="tripinfo_randUni15030:1 routing_randUni15030:1 emissions_randUni15030:1" vType="random_016" speedFactor="0.85" vaporized="">
        <emissions CO_abs="5100.887771" CO2_abs="239466.525215" HC_abs="28.712459" PMx_abs="3.764290" NOx_abs="95.716554" fuel_abs="102.938256" electricity_abs="0"/>
    </tripinfo>
    <tripinfo id="carIn85747:1" depart="57673.00" departLane="128361109#1_1" departPos="5.10" departSpeed="0.00" departDelay="0.70" arrival="57859.00" arrivalLane="386687235_2" arrivalPos="80.84" arrivalSpeed="14.96" duration="186.00" routeLength="2088.57" waitingTime="33.00" waitingCount="2" stopTime="0.00" timeLoss="54.09" rerouteNo="1" devices="tripinfo_carIn85747:1 routing_carIn85747:1 emissions_carIn85747:1" vType="default_016" speedFactor="1.14" vaporized="">
        <emissions CO_abs="7911.034217" CO2_abs="469204.128873" HC_abs="46.708610" PMx_abs="8.222861" NOx_abs="187.592033" fuel_abs="201.691809" electricity_abs="0"/>
    </tripinfo>
    <tripinfo id="h9953c2:3" depart="57682.00" departLane="-54169231#2_1" departPos="5.10" departSpeed="0.00" departDelay="0.00" arrival="57859.00" arrivalLane="386687235_1" arrivalPos="80.84" arrivalSpeed="14.00" duration="177.00" routeLength="1535.60" waitingTime="25.00" waitingCount="2" stopTime="0.00" timeLoss="56.34" rerouteNo="1" devices="tripinfo_h9953c2:3 routing_h9953c2:3 emissions_h9953c2:3" vType="default_016" speedFactor="1.04" vaporized="">
        <emissions CO_abs="9237.304915" CO2_abs="444542.243915" HC_abs="52.435391" PMx_abs="8.102452" NOx_abs="183.250906" fuel_abs="191.091371" electricity_abs="0"/>
    </tripinfo>
    <tripinfo id="carIn88905:1" depart="57688.00" departLane="128361109#1_1" departPos="5.10" departSpeed="0.00" departDelay="5.80" arrival="57861.00" arrivalLane="386687235_2" arrivalPos="80.84" arrivalSpeed="15.35" duration="173.00" routeLength="2088.57" waitingTime="14.00" waitingCount="2" stopTime="0.00" timeLoss="39.78" rerouteNo="1" devices="tripinfo_carIn88905:1 routing_carIn88905:1 emissions_carIn88905:1" vType="default_016" speedFactor="1.13" vaporized="">
        <emissions CO_abs="5914.385750" CO2_abs="433186.403702" HC_abs="36.848307" PMx_abs="7.345514" NOx_abs="172.022305" fuel_abs="186.208406" electricity_abs="0"/>
    </tripinfo>
    <tripinfo id="h5216c1:1" depart="57664.00" departLane="224892339#0_1" departPos="5.10" departSpeed="0.00" departDelay="0.00" arrival="57865.00" arrivalLane="386687235_1" arrivalPos="80.84" arrivalSpeed="11.92" duration="201.00" routeLength="1823.78" waitingTime="26.00" waitingCount="2" stopTime="0.00" timeLoss="55.43" rerouteNo="1" devices="tripinfo_h5216c1:1 routing_h5216c1:1 emissions_h5216c1:1" vType="default_016" speedFactor="0.88" vaporized="">
        <emissions CO_abs="9046.087220" CO2_abs="454952.080397" HC_abs="51.833151" PMx_abs="8.047214" NOx_abs="185.815818" fuel_abs="195.566205" electricity_abs="0"/>
    </tripinfo>
    <tripinfo id="carIn5824:1" depart="57700.00" departLane="128361109#1_1" departPos="5.10" departSpeed="0.00" departDelay="5.60" arrival="57865.00" arrivalLane="386687235_2" arrivalPos="80.84" arrivalSpeed="15.07" duration="165.00" routeLength="2088.57" waitingTime="0.00" waitingCount="0" stopTime="0.00" timeLoss="26.08" rerouteNo="1" devices="tripinfo_carIn5824:1 routing_carIn5824:1 emissions_carIn5824:1" vType="default_016" speedFactor="1.09" vaporized="">
        <emissions CO_abs="5039.586172" CO2_abs="427573.964195" HC_abs="32.727801" PMx_abs="6.867158" NOx_abs="167.175480" fuel_abs="183.795782" electricity_abs="0"/>
    </tripinfo>
    <tripinfo id="carIn77943:1" depart="57608.00" departLane="124812856#0_1" departPos="5.10" departSpeed="0.00" departDelay="2.50" arrival="57867.00" arrivalLane="-128361102#1_1" arrivalPos="274.68" arrivalSpeed="12.54" duration="259.00" routeLength="2250.49" waitingTime="56.00" waitingCount="3" stopTime="0.00" timeLoss="87.56" rerouteNo="1" devices="tripinfo_carIn77943:1 routing_carIn77943:1 emissions_carIn77943:1" vType="default_016" speedFactor="0.96" vaporized="">
        <emissions CO_abs="14289.491516" CO2_abs="626561.119914" HC_abs="79.747003" PMx_abs="11.543571" NOx_abs="258.652710" fuel_abs="269.335141" electricity_abs="0"/>
    </tripinfo>
    <tripinfo id="carIn75660:1" depart="57679.00" departLane="128361109#1_1" departPos="5.10" departSpeed="0.00" departDelay="3.40" arrival="57867.00" arrivalLane="386687235_1" arrivalPos="80.84" arrivalSpeed="13.80" duration="188.00" routeLength="2088.57" waitingTime="22.00" waitingCount="2" stopTime="0.00" timeLoss="47.82" rerouteNo="1" devices="tripinfo_carIn75660:1 routing_carIn75660:1 emissions_carIn75660:1" vType="default_016" speedFactor="1.08" vaporized="">
        <emissions CO_abs="6700.801900" CO2_abs="449464.201272" HC_abs="40.900584" PMx_abs="7.509014" NOx_abs="178.131200" fuel_abs="193.206182" electricity_abs="0"/>
    </tripinfo>
    <tripinfo id="carIn81046:1" depart="57611.00" departLane="124812856#0_1" departPos="5.10" departSpeed="0.00" departDelay="2.50" arrival="57869.00" arrivalLane="-128361102#1_1" arrivalPos="274.68" arrivalSpeed="13.35" duration="258.00" routeLength="2250.49" waitingTime="53.00" waitingCount="3" stopTime="0.00" timeLoss="97.17" rerouteNo="1" devices="tripinfo_carIn81046:1 routing_carIn81046:1 emissions_carIn81046:1" vType="default_016" speedFactor="1.02" vaporized="">
        <emissions CO_abs="15446.118595" CO2_abs="697915.208198" HC_abs="86.737497" PMx_abs="13.117947" NOx_abs="289.842999" fuel_abs="300.006781" electricity_abs="0"/>
    </tripinfo>
    <tripinfo id="h19577c1:1" depart="57694.00" departLane="128361109#1_1" departPos="5.10" departSpeed="0.00" departDelay="2.80" arrival="57869.00" arrivalLane="386687235_1" arrivalPos="80.84" arrivalSpeed="13.57" duration="175.00" routeLength="2088.57" waitingTime="1.00" waitingCount="1" stopTime="0.00" timeLoss="28.14" rerouteNo="1" devices="tripinfo_h19577c1:1 routing_h19577c1:1 emissions_h19577c1:1" vType="default_016" speedFactor="1.03" vaporized="">
        <emissions CO_abs="5392.508918" CO2_abs="419423.154720" HC_abs="34.318992" PMx_abs="6.876906" NOx_abs="166.138748" fuel_abs="180.292170" electricity_abs="0"/>
    </tripinfo>
    <tripinfo id="carIn53503:1" depart="57763.00" departLane="-306240162#1_0" departPos="5.10" departSpeed="0.00" departDelay="2.40" arrival="57878.00" arrivalLane="24634510#6_1" arrivalPos="76.64" arrivalSpeed="13.14" duration="115.00" routeLength="1440.47" waitingTime="0.00" waitingCount="0" stopTime="0.00" timeLoss="13.09" rerouteNo="1" devices="tripinfo_carIn53503:1 routing_carIn53503:1 emissions_carIn53503:1" vType="default_016" speedFactor="0.98" vaporized="">
        <emissions CO_abs="3598.883949" CO2_abs="303663.740377" HC_abs="23.354806" PMx_abs="4.931305" NOx_abs="119.503857" fuel_abs="130.531963" electricity_abs="0"/>
    </tripinfo>
    <tripinfo id="carIn100288:1" depart="57664.00" departLane="128361102#0_1" departPos="5.10" departSpeed="0.00" departDelay="0.60" arrival="57880.00" arrivalLane="201956811#0_1" arrivalPos="40.40" arrivalSpeed="13.24" duration="216.00" routeLength="2067.33" waitingTime="35.00" waitingCount="1" stopTime="0.00" timeLoss="57.68" rerouteNo="1" devices="tripinfo_carIn100288:1 routing_carIn100288:1 emissions_carIn100288:1" vType="default_016" speedFactor="0.95" vaporized="">
        <emissions CO_abs="10973.649673" CO2_abs="544810.859249" HC_abs="62.650493" PMx_abs="9.357499" NOx_abs="219.726874" fuel_abs="234.193645" electricity_abs="0"/>
    </tripinfo>
    <tripinfo id="carIn121703:1" depart="57647.00" departLane="386687232#0_1" departPos="5.10" departSpeed="0.00" departDelay="0.30" arrival="57883.00" arrivalLane="-315358244_1" arrivalPos="33.95" arrivalSpeed="13.88" duration="236.00" routeLength="1157.39" waitingTime="133.00" waitingCount="3" stopTime="0.00" timeLoss="156.38" rerouteNo="1" devices="tripinfo_carIn121703:1 routing_carIn121703:1 emissions_carIn121703:1" vType="default_016" speedFactor="1.06" vaporized="">
        <emissions CO_abs="24237.507681" CO2_abs="622216.402653" HC_abs="124.976350" PMx_abs="13.398834" NOx_abs="269.743850" fuel_abs="267.473105" electricity_abs="0"/>
    </tripinfo>
    <tripinfo id="carIn73855:1" depart="57743.00" departLane="386687232#0_1" departPos="5.10" departSpeed="0.00" departDelay="0.50" arrival="57883.00" arrivalLane="-315358244_2" arrivalPos="33.95" arrivalSpeed="16.28" duration="140.00" routeLength="1157.39" waitingTime="45.00" waitingCount="3" stopTime="0.00" timeLoss="71.17" rerouteNo="1" devices="tripinfo_carIn73855:1 routing_carIn73855:1 emissions_carIn73855:1" vType="default_016" speedFactor="1.24" vaporized="">
        <emissions CO_abs="10875.026087" CO2_abs="437855.183839" HC_abs="59.657318" PMx_abs="8.564767" NOx_abs="182.216121" fuel_abs="188.217674" electricity_abs="0"/>
    </tripinfo>
    <tripinfo id="carIn126378:1" depart="57746.00" departLane="386687232#0_1" departPos="5.10" departSpeed="0.00" departDelay="1.80" arrival="57885.00" arrivalLane="-315358244_1" arrivalPos="33.95" arrivalSpeed="12.65" duration="139.00" routeLength="1157.39" waitingTime="21.00" waitingCount="3" stopTime="0.00" timeLoss="48.97" rerouteNo="1" devices="tripinfo_carIn126378:1 routing_carIn126378:1 emissions_carIn126378:1" vType="default_016" speedFactor="0.93" vaporized="">
        <emissions CO_abs="6343.412070" CO2_abs="319163.879336" HC_abs="36.333247" PMx_abs="5.568143" NOx_abs="130.004325" fuel_abs="137.196239" electricity_abs="0"/>
    </tripinfo>
    <tripinfo id="h19413c1:1" depart="57685.00" departLane="128361109#1_1" departPos="5.10" departSpeed="0.00" departDelay="5.90" arrival="57886.00" arrivalLane="386687235_2" arrivalPos="80.84" arrivalSpeed="13.47" duration="201.00" routeLength="2088.57" waitingTime="8.00" waitingCount="1" stopTime="0.00" timeLoss="51.82" rerouteNo="1" devices="tripinfo_h19413c1:1 routing_h19413c1:1 emissions_h19413c1:1" vType="default_016" speedFactor="1.01" vaporized="">
        <emissions CO_abs="6923.245584" CO2_abs="471925.701472" HC_abs="42.536515" PMx_abs="7.906202" NOx_abs="189.745644" fuel_abs="202.861085" electricity_abs="0"/>
    </tripinfo>