<?xml version="1.0" encoding="UTF-8"?>

<!-- generated on 2021-10-26 21:12:44 by Eclipse SUMO sumo Version 1.10.0
<configuration xmlns:xsi="http://www.w3.org/2001/XMLSchema-instance" xsi:noNamespaceSchemaLocation="http://sumo.dlr.de/xsd/sumoConfiguration.xsd">

    <input>
        <net-file value="/Users/behradkoohy/sumo-scratchpad/RESCO/environments/ingolstadt21/ingolstadt21.net.xml"/>
        <route-files value="/Users/behradkoohy/sumo-scratchpad/RESCO/environments/ingolstadt21/ingolstadt21.rou.xml"/>
    </input>

    <output>
        <tripinfo-output value="/Users/behradkoohy/sumo-scratchpad/RESCO/logs/MPLight-tr0-ingolstadt21-21-mplight_full-pressure/tripinfo_39.xml"/>
        <tripinfo-output.write-unfinished value="true"/>
    </output>

    <time>
        <begin value="57600"/>
        <end value="61200"/>
    </time>

    <processing>
        <time-to-teleport value="-1"/>
    </processing>

    <report>
        <no-warnings value="true"/>
        <no-step-log value="true"/>
    </report>

    <emissions>
        <device.emissions.probability value="1"/>
    </emissions>

    <traci_server>
        <remote-port value="64830"/>
    </traci_server>

    <random_number>
        <random value="true"/>
    </random_number>

</configuration>
-->

<tripinfos xmlns:xsi="http://www.w3.org/2001/XMLSchema-instance" xsi:noNamespaceSchemaLocation="http://sumo.dlr.de/xsd/tripinfo_file.xsd">
    <tripinfo id="h15454c2:3" depart="57612.00" departLane="24608844_1" departPos="5.10" departSpeed="0.00" departDelay="0.50" arrival="57652.00" arrivalLane="32978638#0_1" arrivalPos="49.29" arrivalSpeed="14.01" duration="40.00" routeLength="354.79" waitingTime="0.00" waitingCount="0" stopTime="0.00" timeLoss="7.75" rerouteNo="1" devices="tripinfo_h15454c2:3 routing_h15454c2:3 emissions_h15454c2:3" vType="default_016" speedFactor="1.07" vaporized="">
        <emissions CO_abs="2170.765593" CO2_abs="117370.594241" HC_abs="12.607864" PMx_abs="2.173917" NOx_abs="49.033079" fuel_abs="50.452709" electricity_abs="0"/>
    </tripinfo>
    <tripinfo id="carIn53971:1" depart="57640.00" departLane="272042143_1" departPos="5.10" departSpeed="0.00" departDelay="0.80" arrival="57694.00" arrivalLane="24634414#1_1" arrivalPos="162.19" arrivalSpeed="7.98" duration="54.00" routeLength="493.04" waitingTime="0.00" waitingCount="0" stopTime="0.00" timeLoss="8.22" rerouteNo="1" devices="tripinfo_carIn53971:1 routing_carIn53971:1 emissions_carIn53971:1" vType="default_016" speedFactor="1.00" vaporized="">
        <emissions CO_abs="2315.934111" CO2_abs="129931.177139" HC_abs="13.572125" PMx_abs="2.222046" NOx_abs="52.985298" fuel_abs="55.852204" electricity_abs="0"/>
    </tripinfo>
    <tripinfo id="carIn60260:1" depart="57606.00" departLane="315358254#0_1" departPos="5.10" departSpeed="0.00" departDelay="0.90" arrival="57712.00" arrivalLane="399835085#1_1" arrivalPos="212.23" arrivalSpeed="7.87" duration="106.00" routeLength="430.98" waitingTime="51.00" waitingCount="1" stopTime="0.00" timeLoss="60.87" rerouteNo="1" devices="tripinfo_carIn60260:1 routing_carIn60260:1 emissions_carIn60260:1" vType="default_016" speedFactor="1.02" vaporized="">
        <emissions CO_abs="9669.963675" CO2_abs="240231.019731" HC_abs="49.620437" PMx_abs="4.933351" NOx_abs="103.416881" fuel_abs="103.269022" electricity_abs="0"/>
    </tripinfo>
    <tripinfo id="h7800c1:5" depart="57696.00" departLane="-447569998#1_1" departPos="5.10" departSpeed="0.00" departDelay="0.00" arrival="57722.00" arrivalLane="-447569998#1_2" arrivalPos="180.76" arrivalSpeed="7.60" duration="26.00" routeLength="175.66" waitingTime="0.00" waitingCount="0" stopTime="0.00" timeLoss="3.20" rerouteNo="1" devices="tripinfo_h7800c1:5 routing_h7800c1:5 emissions_h7800c1:5" vType="default_016" speedFactor="0.96" vaporized="">
        <emissions CO_abs="1232.995573" CO2_abs="52670.855772" HC_abs="6.817086" PMx_abs="0.839838" NOx_abs="21.315600" fuel_abs="22.641410" electricity_abs="0"/>
    </tripinfo>
    <tripinfo id="h3688c1:1" depart="57625.00" departLane="201201950#1_1" departPos="5.10" departSpeed="0.00" departDelay="0.00" arrival="57733.00" arrivalLane="32978638#0_1" arrivalPos="49.29" arrivalSpeed="12.68" duration="108.00" routeLength="1089.75" waitingTime="7.00" waitingCount="1" stopTime="0.00" timeLoss="23.84" rerouteNo="1" devices="tripinfo_h3688c1:1 routing_h3688c1:1 emissions_h3688c1:1" vType="default_016" speedFactor="0.95" vaporized="">
        <emissions CO_abs="4108.988924" CO2_abs="259801.299065" HC_abs="24.764084" PMx_abs="4.397415" NOx_abs="104.656960" fuel_abs="111.677886" electricity_abs="0"/>
    </tripinfo>
    <tripinfo id="h3568c1:3" depart="57656.00" departLane="266565295#5_1" departPos="5.10" departSpeed="0.00" departDelay="0.80" arrival="57735.00" arrivalLane="-24634415_1" arrivalPos="62.03" arrivalSpeed="12.85" duration="79.00" routeLength="807.40" waitingTime="0.00" waitingCount="0" stopTime="0.00" timeLoss="12.27" rerouteNo="1" devices="tripinfo_h3568c1:3 routing_h3568c1:3 emissions_h3568c1:3" vType="default_016" speedFactor="0.96" vaporized="">
        <emissions CO_abs="2954.966596" CO2_abs="194746.462079" HC_abs="17.993935" PMx_abs="3.233173" NOx_abs="78.226543" fuel_abs="83.713462" electricity_abs="0"/>
    </tripinfo>
    <tripinfo id="h4538c1:1" depart="57701.00" departLane="-10427692#1_1" departPos="5.10" departSpeed="0.00" departDelay="0.00" arrival="57745.00" arrivalLane="-128361102#1_1" arrivalPos="274.68" arrivalSpeed="13.21" duration="44.00" routeLength="440.74" waitingTime="3.00" waitingCount="1" stopTime="0.00" timeLoss="13.29" rerouteNo="1" devices="tripinfo_h4538c1:1 routing_h4538c1:1 emissions_h4538c1:1" vType="default_016" speedFactor="1.02" vaporized="">
        <emissions CO_abs="1990.581242" CO2_abs="119428.871583" HC_abs="11.869397" PMx_abs="2.113625" NOx_abs="48.689880" fuel_abs="51.337506" electricity_abs="0"/>
    </tripinfo>
    <tripinfo id="h5979c1:5" depart="57669.00" departLane="399835085#1_1" departPos="5.10" departSpeed="0.00" departDelay="0.00" arrival="57761.00" arrivalLane="-315358254#1_1" arrivalPos="137.16" arrivalSpeed="12.21" duration="92.00" routeLength="659.33" waitingTime="0.00" waitingCount="0" stopTime="0.00" timeLoss="11.03" rerouteNo="1" devices="tripinfo_h5979c1:5 routing_h5979c1:5 emissions_h5979c1:5" vType="default_016" speedFactor="0.90" vaporized="">
        <emissions CO_abs="3799.233291" CO2_abs="174527.214407" HC_abs="21.295415" PMx_abs="2.777908" NOx_abs="70.413358" fuel_abs="75.023098" electricity_abs="0"/>
    </tripinfo>
    <tripinfo id="h3326c1:2" depart="57656.00" departLane="22716069#0_1" departPos="5.10" departSpeed="0.00" departDelay="0.00" arrival="57772.00" arrivalLane="24634517#13_1" arrivalPos="111.62" arrivalSpeed="12.79" duration="116.00" routeLength="1312.81" waitingTime="0.00" waitingCount="0" stopTime="0.00" timeLoss="16.01" rerouteNo="1" devices="tripinfo_h3326c1:2 routing_h3326c1:2 emissions_h3326c1:2" vType="default_016" speedFactor="0.98" vaporized="">
        <emissions CO_abs="3890.295148" CO2_abs="286584.326065" HC_abs="24.404180" PMx_abs="4.810341" NOx_abs="115.003729" fuel_abs="123.190338" electricity_abs="0"/>
    </tripinfo>
    <tripinfo id="carIn27009:1" depart="57673.00" departLane="-447569998#1_1" departPos="5.10" departSpeed="0.00" departDelay="0.50" arrival="57773.00" arrivalLane="-26677539_1" arrivalPos="152.75" arrivalSpeed="8.33" duration="100.00" routeLength="699.63" waitingTime="3.00" waitingCount="1" stopTime="0.00" timeLoss="19.28" rerouteNo="1" devices="tripinfo_carIn27009:1 routing_carIn27009:1 emissions_carIn27009:1" vType="default_015" speedFactor="1.04" vaporized="">
        <emissions CO_abs="4011.248915" CO2_abs="184591.108193" HC_abs="22.516603" PMx_abs="3.075825" NOx_abs="75.457391" fuel_abs="79.348985" electricity_abs="0"/>
    </tripinfo>
    <tripinfo id="h12244c1:3" depart="57612.00" departLane="315358244_1" departPos="5.10" departSpeed="0.00" departDelay="0.40" arrival="57777.00" arrivalLane="386687235_1" arrivalPos="80.84" arrivalSpeed="14.51" duration="165.00" routeLength="1186.14" waitingTime="57.00" waitingCount="4" stopTime="0.00" timeLoss="83.25" rerouteNo="1" devices="tripinfo_h12244c1:3 routing_h12244c1:3 emissions_h12244c1:3" vType="default_016" speedFactor="1.06" vaporized="">
        <emissions CO_abs="11425.935259" CO2_abs="401084.439797" HC_abs="61.370850" PMx_abs="7.860714" NOx_abs="168.326110" fuel_abs="172.412412" electricity_abs="0"/>
    </tripinfo>
    <tripinfo id="h7181c1:1" depart="57660.00" departLane="315358254#0_1" departPos="5.10" departSpeed="0.00" departDelay="0.10" arrival="57779.00" arrivalLane="306240162#0_0" arrivalPos="220.43" arrivalSpeed="17.10" duration="119.00" routeLength="932.35" waitingTime="44.00" waitingCount="1" stopTime="0.00" timeLoss="70.61" rerouteNo="1" devices="tripinfo_h7181c1:1 routing_h7181c1:1 emissions_h7181c1:1" vType="default_016" speedFactor="1.06" vaporized="">
        <emissions CO_abs="11971.117227" CO2_abs="444442.496046" HC_abs="65.149166" PMx_abs="9.547161" NOx_abs="191.533356" fuel_abs="191.048741" electricity_abs="0"/>
    </tripinfo>
    <tripinfo id="h9563c2:5" depart="57631.00" departLane="315358244_1" departPos="5.10" departSpeed="0.00" departDelay="0.70" arrival="57780.00" arrivalLane="386687235_1" arrivalPos="80.84" arrivalSpeed="12.15" duration="149.00" routeLength="1186.14" waitingTime="29.00" waitingCount="3" stopTime="0.00" timeLoss="56.98" rerouteNo="1" devices="tripinfo_h9563c2:5 routing_h9563c2:5 emissions_h9563c2:5" vType="default_016" speedFactor="0.94" vaporized="">
        <emissions CO_abs="6985.680761" CO2_abs="325824.799768" HC_abs="39.394127" PMx_abs="5.652113" NOx_abs="132.218479" fuel_abs="140.060027" electricity_abs="0"/>
    </tripinfo>
    <tripinfo id="carIn121703:1" depart="57647.00" departLane="386687232#0_1" departPos="5.10" departSpeed="0.00" departDelay="0.30" arrival="57782.00" arrivalLane="-315358244_2" arrivalPos="33.95" arrivalSpeed="13.57" duration="135.00" routeLength="1157.39" waitingTime="33.00" waitingCount="1" stopTime="0.00" timeLoss="48.92" rerouteNo="1" devices="tripinfo_carIn121703:1 routing_carIn121703:1 emissions_carIn121703:1" vType="default_016" speedFactor="0.98" vaporized="">
        <emissions CO_abs="8165.362465" CO2_abs="334505.515526" HC_abs="45.011816" PMx_abs="6.156836" NOx_abs="137.748471" fuel_abs="143.791884" electricity_abs="0"/>
    </tripinfo>
    <tripinfo id="h645c1:1" depart="57622.00" departLane="266565295#5_1" departPos="5.10" departSpeed="0.00" departDelay="0.40" arrival="57784.00" arrivalLane="-315358244_1" arrivalPos="33.95" arrivalSpeed="13.45" duration="162.00" routeLength="1910.83" waitingTime="6.00" waitingCount="1" stopTime="0.00" timeLoss="24.96" rerouteNo="1" devices="tripinfo_h645c1:1 routing_h645c1:1 emissions_h645c1:1" vType="default_016" speedFactor="1.01" vaporized="">
        <emissions CO_abs="4140.461342" CO2_abs="364648.738812" HC_abs="27.345888" PMx_abs="5.661070" NOx_abs="141.844340" fuel_abs="156.747060" electricity_abs="0"/>
    </tripinfo>
    <tripinfo id="carIn80064:1" depart="57603.00" departLane="128361109#1_1" departPos="5.10" departSpeed="0.00" departDelay="0.40" arrival="57801.00" arrivalLane="-315358254#1_1" arrivalPos="137.16" arrivalSpeed="10.41" duration="198.00" routeLength="1587.97" waitingTime="64.00" waitingCount="2" stopTime="0.00" timeLoss="91.81" rerouteNo="1" devices="tripinfo_carIn80064:1 routing_carIn80064:1 emissions_carIn80064:1" vType="default_016" speedFactor="0.84" vaporized="">
        <emissions CO_abs="15095.782564" CO2_abs="565983.210643" HC_abs="81.993463" PMx_abs="11.295547" NOx_abs="237.823962" fuel_abs="243.295639" electricity_abs="0"/>
    </tripinfo>
    <tripinfo id="h11737c1:1" depart="57665.00" departLane="272042143_1" departPos="5.10" departSpeed="0.00" departDelay="1.50" arrival="57807.00" arrivalLane="-315358254#1_1" arrivalPos="137.16" arrivalSpeed="13.53" duration="142.00" routeLength="1596.88" waitingTime="5.00" waitingCount="1" stopTime="0.00" timeLoss="22.88" rerouteNo="1" devices="tripinfo_h11737c1:1 routing_h11737c1:1 emissions_h11737c1:1" vType="default_016" speedFactor="0.98" vaporized="">
        <emissions CO_abs="4508.156430" CO2_abs="341351.044679" HC_abs="28.501138" PMx_abs="5.586017" NOx_abs="135.516699" fuel_abs="146.732379" electricity_abs="0"/>
    </tripinfo>
    <tripinfo id="carIn126288:1" depart="57674.00" departLane="272042143_1" departPos="5.10" departSpeed="0.00" departDelay="0.00" arrival="57808.00" arrivalLane="-315358254#1_1" arrivalPos="137.16" arrivalSpeed="14.16" duration="134.00" routeLength="1596.88" waitingTime="4.00" waitingCount="1" stopTime="0.00" timeLoss="25.69" rerouteNo="1" devices="tripinfo_carIn126288:1 routing_carIn126288:1 emissions_carIn126288:1" vType="default_016" speedFactor="1.07" vaporized="">
        <emissions CO_abs="4495.072175" CO2_abs="350525.894375" HC_abs="28.614109" PMx_abs="5.856485" NOx_abs="139.453431" fuel_abs="150.675996" electricity_abs="0"/>
    </tripinfo>
    <tripinfo id="S5R_frequency1.2" depart="57615.00" departLane="315358250#0_1" departPos="12.10" departSpeed="0.00" departDelay="3.40" arrival="57810.00" arrivalLane="386687235_1" arrivalPos="80.84" arrivalSpeed="13.65" duration="195.00" routeLength="1115.62" waitingTime="73.00" waitingCount="3" stopTime="0.00" timeLoss="113.29" rerouteNo="1" devices="tripinfo_S5R_frequency1.2 routing_S5R_frequency1.2 emissions_S5R_frequency1.2" vType="bus" speedFactor="1.00" vaporized="">
        <emissions CO_abs="3712.747955" CO2_abs="1878477.627541" HC_abs="799.666120" PMx_abs="387.247526" NOx_abs="15801.898022" fuel_abs="800.989321" electricity_abs="0"/>
    </tripinfo>
    <tripinfo id="carIn129809:1" depart="57729.00" departLane="-447569998#1_1" departPos="5.10" departSpeed="0.00" departDelay="1.00" arrival="57814.00" arrivalLane="-315358244_1" arrivalPos="33.95" arrivalSpeed="12.57" duration="85.00" routeLength="706.49" waitingTime="5.00" waitingCount="1" stopTime="0.00" timeLoss="23.22" rerouteNo="1" devices="tripinfo_carIn129809:1 routing_carIn129809:1 emissions_carIn129809:1" vType="default_015" speedFactor="0.98" vaporized="">
        <emissions CO_abs="3475.466959" CO2_abs="179471.211244" HC_abs="20.013894" PMx_abs="3.139200" NOx_abs="73.450341" fuel_abs="77.147628" electricity_abs="0"/>
    </tripinfo>
    <tripinfo id="carIn22761:1" depart="57616.00" departLane="-306240162#1_0" departPos="5.10" departSpeed="0.00" departDelay="2.10" arrival="57818.00" arrivalLane="399835085#1_1" arrivalPos="212.23" arrivalSpeed="7.53" duration="202.00" routeLength="1093.26" waitingTime="93.00" waitingCount="2" stopTime="0.00" timeLoss="116.89" rerouteNo="1" devices="tripinfo_carIn22761:1 routing_carIn22761:1 emissions_carIn22761:1" vType="default_016" speedFactor="0.91" vaporized="">
        <emissions CO_abs="19293.155253" CO2_abs="544573.775022" HC_abs="100.619803" PMx_abs="11.403066" NOx_abs="233.860088" fuel_abs="234.095614" electricity_abs="0"/>
    </tripinfo>
    <tripinfo id="carIn12858:1" depart="57661.00" departLane="128361109#1_1" departPos="5.10" departSpeed="0.00" departDelay="0.90" arrival="57822.00" arrivalLane="399835085#1_1" arrivalPos="212.23" arrivalSpeed="7.28" duration="161.00" routeLength="1738.12" waitingTime="0.00" waitingCount="0" stopTime="0.00" timeLoss="30.85" rerouteNo="1" devices="tripinfo_carIn12858:1 routing_carIn12858:1 emissions_carIn12858:1" vType="default_016" speedFactor="0.89" vaporized="">
        <emissions CO_abs="7235.976026" CO2_abs="454349.491081" HC_abs="43.541786" PMx_abs="8.196426" NOx_abs="185.165166" fuel_abs="195.305515" electricity_abs="0"/>
    </tripinfo>
    <tripinfo id="h3864c1:3" depart="57678.00" departLane="24693977#1_1" departPos="5.10" departSpeed="0.00" departDelay="0.00" arrival="57829.00" arrivalLane="201956820_2" arrivalPos="48.33" arrivalSpeed="15.81" duration="151.00" routeLength="1574.85" waitingTime="8.00" waitingCount="2" stopTime="0.00" timeLoss="37.90" rerouteNo="1" devices="tripinfo_h3864c1:3 routing_h3864c1:3 emissions_h3864c1:3" vType="default_016" speedFactor="1.14" vaporized="">
        <emissions CO_abs="7444.009257" CO2_abs="462639.792535" HC_abs="44.664502" PMx_abs="8.462834" NOx_abs="190.209570" fuel_abs="198.868950" electricity_abs="0"/>
    </tripinfo>
    <tripinfo id="carIn86816:1" depart="57617.00" departLane="128361102#0_1" departPos="5.10" departSpeed="0.00" departDelay="0.80" arrival="57834.00" arrivalLane="201956811#0_1" arrivalPos="40.40" arrivalSpeed="15.40" duration="217.00" routeLength="2067.33" waitingTime="55.00" waitingCount="2" stopTime="0.00" timeLoss="81.16" rerouteNo="1" devices="tripinfo_carIn86816:1 routing_carIn86816:1 emissions_carIn86816:1" vType="default_016" speedFactor="1.11" vaporized="">
        <emissions CO_abs="14025.123871" CO2_abs="607010.088856" HC_abs="77.937897" PMx_abs="11.504808" NOx_abs="250.430439" fuel_abs="260.930737" electricity_abs="0"/>
    </tripinfo>
    <tripinfo id="randUni15030:1" depart="57735.00" departLane="386687232#0_1" departPos="5.10" departSpeed="0.00" departDelay="0.10" arrival="57836.00" arrivalLane="26677539_1" arrivalPos="151.98" arrivalSpeed="8.98" duration="101.00" routeLength="919.89" waitingTime="15.00" waitingCount="1" stopTime="0.00" timeLoss="30.27" rerouteNo="1" devices="tripinfo_randUni15030:1 routing_randUni15030:1 emissions_randUni15030:1" vType="random_016" speedFactor="1.18" vaporized="">
        <emissions CO_abs="5527.007643" CO2_abs="264304.297702" HC_abs="31.264000" PMx_abs="4.763305" NOx_abs="108.334266" fuel_abs="113.614236" electricity_abs="0"/>
    </tripinfo>
    <tripinfo id="carIn30817:1" depart="57681.00" departLane="315358244_1" departPos="5.10" departSpeed="0.00" departDelay="0.20" arrival="57837.00" arrivalLane="447569997#1_1" arrivalPos="180.93" arrivalSpeed="8.20" duration="156.00" routeLength="718.04" waitingTime="79.00" waitingCount="1" stopTime="0.00" timeLoss="98.00" rerouteNo="1" devices="tripinfo_carIn30817:1 routing_carIn30817:1 emissions_carIn30817:1" vType="default_016" speedFactor="1.06" vaporized="">
        <emissions CO_abs="16234.614179" CO2_abs="417822.328511" HC_abs="83.699063" PMx_abs="8.831951" NOx_abs="180.740590" fuel_abs="179.610064" electricity_abs="0"/>
    </tripinfo>
    <tripinfo id="carIn107282:1" depart="57749.00" departLane="-447569998#1_1" departPos="5.10" departSpeed="0.00" departDelay="0.00" arrival="57839.00" arrivalLane="315358242#0_1" arrivalPos="165.37" arrivalSpeed="10.82" duration="90.00" routeLength="448.50" waitingTime="33.00" waitingCount="1" stopTime="0.00" timeLoss="42.33" rerouteNo="1" devices="tripinfo_carIn107282:1 routing_carIn107282:1 emissions_carIn107282:1" vType="default_016" speedFactor="0.87" vaporized="">
        <emissions CO_abs="6851.321023" CO2_abs="186819.410069" HC_abs="35.544867" PMx_abs="3.740268" NOx_abs="79.822534" fuel_abs="80.308343" electricity_abs="0"/>
    </tripinfo>
    <tripinfo id="h17600c1:1" depart="57662.00" departLane="272042143_1" departPos="5.10" departSpeed="0.00" departDelay="0.30" arrival="57840.00" arrivalLane="201238729#3_1" arrivalPos="431.02" arrivalSpeed="13.76" duration="178.00" routeLength="2100.26" waitingTime="14.00" waitingCount="1" stopTime="0.00" timeLoss="33.20" rerouteNo="1" devices="tripinfo_h17600c1:1 routing_h17600c1:1 emissions_h17600c1:1" vType="default_016" speedFactor="1.04" vaporized="">
        <emissions CO_abs="5485.072098" CO2_abs="390116.950293" HC_abs="33.991303" PMx_abs="6.267067" NOx_abs="152.758712" fuel_abs="167.695369" electricity_abs="0"/>
    </tripinfo>
    <tripinfo id="h3154c1:1" depart="57658.00" departLane="24634507_1" departPos="5.10" departSpeed="0.00" departDelay="0.00" arrival="57841.00" arrivalLane="-266565295#5_1" arrivalPos="172.76" arrivalSpeed="13.29" duration="183.00" routeLength="1206.22" waitingTime="79.00" waitingCount="1" stopTime="0.00" timeLoss="94.10" rerouteNo="1" devices="tripinfo_h3154c1:1 routing_h3154c1:1 emissions_h3154c1:1" vType="default_016" speedFactor="1.01" vaporized="">
        <emissions CO_abs="15773.676233" CO2_abs="468209.398645" HC_abs="82.800938" PMx_abs="9.429910" NOx_abs="198.425570" fuel_abs="201.268810" electricity_abs="0"/>
    </tripinfo>
    <tripinfo id="carIn50326:1" depart="57651.00" departLane="128361102#0_1" departPos="5.10" departSpeed="0.00" departDelay="0.30" arrival="57850.00" arrivalLane="18809673#0_1" arrivalPos="473.56" arrivalSpeed="15.41" duration="199.00" routeLength="1591.07" waitingTime="44.00" waitingCount="3" stopTime="0.00" timeLoss="81.89" rerouteNo="1" devices="tripinfo_carIn50326:1 routing_carIn50326:1 emissions_carIn50326:1" vType="default_016" speedFactor="1.11" vaporized="">
        <emissions CO_abs="11065.518229" CO2_abs="474837.958533" HC_abs="61.379454" PMx_abs="8.735645" NOx_abs="195.697423" fuel_abs="204.115263" electricity_abs="0"/>
    </tripinfo>
    <tripinfo id="carIn12365:1" depart="57713.00" departLane="315358244_1" departPos="5.10" departSpeed="0.00" departDelay="0.50" arrival="57851.00" arrivalLane="447569997#1_1" arrivalPos="180.93" arrivalSpeed="7.51" duration="138.00" routeLength="718.04" waitingTime="55.00" waitingCount="2" stopTime="0.00" timeLoss="73.67" rerouteNo="1" devices="tripinfo_carIn12365:1 routing_carIn12365:1 emissions_carIn12365:1" vType="default_016" speedFactor="0.96" vaporized="">
        <emissions CO_abs="10681.853580" CO2_abs="297403.897929" HC_abs="55.584614" PMx_abs="6.032915" NOx_abs="127.332107" fuel_abs="127.845177" electricity_abs="0"/>
    </tripinfo>
    <tripinfo id="randUni31145:1" depart="57814.00" departLane="10425609#0_1" departPos="5.10" departSpeed="0.00" departDelay="0.30" arrival="57854.00" arrivalLane="201956810_1" arrivalPos="71.65" arrivalSpeed="13.33" duration="40.00" routeLength="255.78" waitingTime="8.00" waitingCount="1" stopTime="0.00" timeLoss="20.37" rerouteNo="1" devices="tripinfo_randUni31145:1 routing_randUni31145:1 emissions_randUni31145:1" vType="random_016" speedFactor="1.03" vaporized="">
        <emissions CO_abs="3159.569391" CO2_abs="130148.759670" HC_abs="17.446905" PMx_abs="2.586564" NOx_abs="55.428981" fuel_abs="55.945896" electricity_abs="0"/>
    </tripinfo>
    <tripinfo id="h17549c1:1" depart="57680.00" departLane="-447569998#1_1" departPos="5.10" departSpeed="0.00" departDelay="0.00" arrival="57855.00" arrivalLane="-315358254#1_1" arrivalPos="137.16" arrivalSpeed="12.70" duration="175.00" routeLength="1746.60" waitingTime="4.00" waitingCount="1" stopTime="0.00" timeLoss="24.83" rerouteNo="1" devices="tripinfo_h17549c1:1 routing_h17549c1:1 emissions_h17549c1:1" vType="default_016" speedFactor="0.91" vaporized="">
        <emissions CO_abs="5445.857933" CO2_abs="370671.746656" HC_abs="33.389379" PMx_abs="5.841490" NOx_abs="146.750797" fuel_abs="159.336815" electricity_abs="0"/>
    </tripinfo>
    <tripinfo id="carIn118591:1" depart="57689.00" departLane="315358244_1" departPos="5.10" departSpeed="0.00" departDelay="0.20" arrival="57856.00" arrivalLane="386687235_1" arrivalPos="80.84" arrivalSpeed="15.63" duration="167.00" routeLength="1186.14" waitingTime="73.00" waitingCount="1" stopTime="0.00" timeLoss="90.64" rerouteNo="1" devices="tripinfo_carIn118591:1 routing_carIn118591:1 emissions_carIn118591:1" vType="default_016" speedFactor="1.14" vaporized="">
        <emissions CO_abs="14337.303768" CO2_abs="448551.593821" HC_abs="75.742847" PMx_abs="9.101608" NOx_abs="189.657659" fuel_abs="192.817830" electricity_abs="0"/>
    </tripinfo>
    <tripinfo id="randUni2407:1" depart="57820.00" departLane="10425609#0_1" departPos="5.10" departSpeed="0.00" departDelay="0.80" arrival="57856.00" arrivalLane="201956810_1" arrivalPos="71.65" arrivalSpeed="13.86" duration="36.00" routeLength="255.78" waitingTime="6.00" waitingCount="1" stopTime="0.00" timeLoss="16.99" rerouteNo="1" devices="tripinfo_randUni2407:1 routing_randUni2407:1 emissions_randUni2407:1" vType="random_016" speedFactor="1.04" vaporized="">
        <emissions CO_abs="2910.371261" CO2_abs="119845.264345" HC_abs="16.095300" PMx_abs="2.447246" NOx_abs="51.554617" fuel_abs="51.516718" electricity_abs="0"/>
    </tripinfo>
    <tripinfo id="carIn107084:1" depart="57601.00" departLane="124812856#0_1" departPos="5.10" departSpeed="0.00" departDelay="0.70" arrival="57857.00" arrivalLane="-128361102#1_1" arrivalPos="274.68" arrivalSpeed="12.09" duration="256.00" routeLength="2250.49" waitingTime="60.00" waitingCount="2" stopTime="0.00" timeLoss="85.62" rerouteNo="1" devices="tripinfo_carIn107084:1 routing_carIn107084:1 emissions_carIn107084:1" vType="default_016" speedFactor="0.96" vaporized="">
        <emissions CO_abs="14257.444088" CO2_abs="624348.649892" HC_abs="79.453576" PMx_abs="11.183620" NOx_abs="255.041089" fuel_abs="268.384644" electricity_abs="0"/>
    </tripinfo>
    <tripinfo id="carIn28951:1" depart="57606.00" departLane="10425609#0_1" departPos="5.10" departSpeed="0.00" departDelay="0.20" arrival="57859.00" arrivalLane="-128361102#1_1" arrivalPos="274.68" arrivalSpeed="14.64" duration="253.00" routeLength="2113.04" waitingTime="63.00" waitingCount="3" stopTime="0.00" timeLoss="114.97" rerouteNo="1" devices="tripinfo_carIn28951:1 routing_carIn28951:1 emissions_carIn28951:1" vType="default_016" speedFactor="1.13" vaporized="">
        <emissions CO_abs="16048.938518" CO2_abs="673199.521024" HC_abs="88.948812" PMx_abs="12.947014" NOx_abs="281.400355" fuel_abs="289.383010" electricity_abs="0"/>
    </tripinfo>
    <tripinfo id="h20540c1:1" depart="57634.00" departLane="10425609#0_1" departPos="5.10" departSpeed="0.00" departDelay="0.50" arrival="57860.00" arrivalLane="-128361102#1_1" arrivalPos="274.68" arrivalSpeed="13.66" duration="226.00" routeLength="2113.04" waitingTime="32.00" waitingCount="3" stopTime="0.00" timeLoss="80.40" rerouteNo="1" devices="tripinfo_h20540c1:1 routing_h20540c1:1 emissions_h20540c1:1" vType="default_016" speedFactor="1.06" vaporized="">
        <emissions CO_abs="11419.058878" CO2_abs="631938.155127" HC_abs="66.885237" PMx_abs="11.562799" NOx_abs="260.241991" fuel_abs="271.644100" electricity_abs="0"/>
    </tripinfo>
    <tripinfo id="carIn81860:1" depart="57712.00" departLane="128361102#0_1" departPos="5.10" departSpeed="0.00" departDelay="0.60" arrival="57860.00" arrivalLane="-24634517#17_1" arrivalPos="6.43" arrivalSpeed="6.87" duration="148.00" routeLength="1229.64" waitingTime="24.00" waitingCount="2" stopTime="0.00" timeLoss="57.93" rerouteNo="1" devices="tripinfo_carIn81860:1 routing_carIn81860:1 emissions_carIn81860:1" vType="default_016" speedFactor="1.00" vaporized="">
        <emissions CO_abs="6861.127965" CO2_abs="340558.224906" HC_abs="39.195141" PMx_abs="6.066575" NOx_abs="139.019462" fuel_abs="146.392779" electricity_abs="0"/>
    </tripinfo>
    <tripinfo id="carIn126378:1" depart="57746.00" departLane="386687232#0_1" departPos="5.10" departSpeed="0.00" departDelay="1.80" arrival="57863.00" arrivalLane="-315358244_1" arrivalPos="33.95" arrivalSpeed="13.37" duration="117.00" routeLength="1157.39" waitingTime="16.00" waitingCount="2" stopTime="0.00" timeLoss="36.49" rerouteNo="1" devices="tripinfo_carIn126378:1 routing_carIn126378:1 emissions_carIn126378:1" vType="default_016" speedFactor="1.05" vaporized="">
        <emissions CO_abs="4817.383078" CO2_abs="276067.175531" HC_abs="28.309942" PMx_abs="4.709934" NOx_abs="110.724395" fuel_abs="118.670310" electricity_abs="0"/>
    </tripinfo>
    <tripinfo id="carIn8642:1" depart="57774.00" departLane="-447569998#1_1" departPos="5.10" departSpeed="0.00" departDelay="0.90" arrival="57864.00" arrivalLane="-315358244_2" arrivalPos="33.95" arrivalSpeed="12.15" duration="90.00" routeLength="706.49" waitingTime="12.00" waitingCount="1" stopTime="0.00" timeLoss="26.73" rerouteNo="1" devices="tripinfo_carIn8642:1 routing_carIn8642:1 emissions_carIn8642:1" vType="default_016" speedFactor="0.96" vaporized="">
        <emissions CO_abs="4621.040465" CO2_abs="209080.284219" HC_abs="25.915265" PMx_abs="3.716700" NOx_abs="85.952145" fuel_abs="89.875805" electricity_abs="0"/>
    </tripinfo>
    <tripinfo id="h6541c1:3" depart="57727.00" departLane="201950247#3_1" departPos="5.10" departSpeed="0.00" departDelay="0.00" arrival="57870.00" arrivalLane="32978638#0_1" arrivalPos="49.29" arrivalSpeed="14.28" duration="143.00" routeLength="1176.17" waitingTime="25.00" waitingCount="2" stopTime="0.00" timeLoss="48.62" rerouteNo="1" devices="tripinfo_h6541c1:3 routing_h6541c1:3 emissions_h6541c1:3" vType="default_016" speedFactor="1.09" vaporized="">
        <emissions CO_abs="7908.254187" CO2_abs="381267.640103" HC_abs="44.932791" PMx_abs="6.964384" NOx_abs="157.387758" fuel_abs="163.892043" electricity_abs="0"/>
    </tripinfo>
    <tripinfo id="h7097c1:1" depart="57670.00" departLane="315358242#0_1" departPos="5.10" departSpeed="0.00" departDelay="0.60" arrival="57871.00" arrivalLane="306240162#0_0" arrivalPos="220.43" arrivalSpeed="16.48" duration="201.00" routeLength="2586.94" waitingTime="9.00" waitingCount="1" stopTime="0.00" timeLoss="33.15" rerouteNo="1" devices="tripinfo_h7097c1:1 routing_h7097c1:1 emissions_h7097c1:1" vType="default_016" speedFactor="1.03" vaporized="">
        <emissions CO_abs="8197.260922" CO2_abs="592858.054878" HC_abs="51.201355" PMx_abs="10.495059" NOx_abs="237.965396" fuel_abs="254.843943" electricity_abs="0"/>
    </tripinfo>
    <tripinfo id="h17890c1:3" depart="57792.00" departLane="386687232#0_1" departPos="5.10" departSpeed="0.00" departDelay="0.00" arrival="57873.00" arrivalLane="32978638#0_1" arrivalPos="49.29" arrivalSpeed="13.75" duration="81.00" routeLength="792.72" waitingTime="6.00" waitingCount="1" stopTime="0.00" timeLoss="22.62" rerouteNo="1" devices="tripinfo_h17890c1:3 routing_h17890c1:3 emissions_h17890c1:3" vType="default_016" speedFactor="1.01" vaporized="">
        <emissions CO_abs="3479.253983" CO2_abs="212714.630098" HC_abs="20.847094" PMx_abs="3.859738" NOx_abs="87.662940" fuel_abs="91.436937" electricity_abs="0"/>
    </tripinfo>