<?xml version="1.0" encoding="UTF-8"?>

<!-- generated on 2021-10-26 21:41:25 by Eclipse SUMO sumo Version 1.10.0
<configuration xmlns:xsi="http://www.w3.org/2001/XMLSchema-instance" xsi:noNamespaceSchemaLocation="http://sumo.dlr.de/xsd/sumoConfiguration.xsd">

    <input>
        <net-file value="/Users/behradkoohy/sumo-scratchpad/RESCO/environments/ingolstadt21/ingolstadt21.net.xml"/>
        <route-files value="/Users/behradkoohy/sumo-scratchpad/RESCO/environments/ingolstadt21/ingolstadt21.rou.xml"/>
    </input>

    <output>
        <tripinfo-output value="/Users/behradkoohy/sumo-scratchpad/RESCO/logs/MPLight-tr0-ingolstadt21-21-mplight_full-pressure/tripinfo_65.xml"/>
        <tripinfo-output.write-unfinished value="true"/>
    </output>

    <time>
        <begin value="57600"/>
        <end value="61200"/>
    </time>

    <processing>
        <time-to-teleport value="-1"/>
    </processing>

    <report>
        <no-warnings value="true"/>
        <no-step-log value="true"/>
    </report>

    <emissions>
        <device.emissions.probability value="1"/>
    </emissions>

    <traci_server>
        <remote-port value="65208"/>
    </traci_server>

    <random_number>
        <random value="true"/>
    </random_number>

</configuration>
-->

<tripinfos xmlns:xsi="http://www.w3.org/2001/XMLSchema-instance" xsi:noNamespaceSchemaLocation="http://sumo.dlr.de/xsd/tripinfo_file.xsd">
    <tripinfo id="h15454c2:3" depart="57612.00" departLane="24608844_1" departPos="5.10" departSpeed="0.00" departDelay="0.50" arrival="57667.00" arrivalLane="32978638#0_1" arrivalPos="49.29" arrivalSpeed="12.74" duration="55.00" routeLength="354.79" waitingTime="11.00" waitingCount="1" stopTime="0.00" timeLoss="20.54" rerouteNo="1" devices="tripinfo_h15454c2:3 routing_h15454c2:3 emissions_h15454c2:3" vType="default_016" speedFactor="0.99" vaporized="">
        <emissions CO_abs="4162.604876" CO2_abs="149462.339637" HC_abs="22.434414" PMx_abs="2.798619" NOx_abs="62.677572" fuel_abs="64.248763" electricity_abs="0"/>
    </tripinfo>
    <tripinfo id="carIn53971:1" depart="57640.00" departLane="272042143_1" departPos="5.10" departSpeed="0.00" departDelay="0.80" arrival="57691.00" arrivalLane="24634414#1_1" arrivalPos="162.19" arrivalSpeed="8.36" duration="51.00" routeLength="493.04" waitingTime="0.00" waitingCount="0" stopTime="0.00" timeLoss="8.63" rerouteNo="1" devices="tripinfo_carIn53971:1 routing_carIn53971:1 emissions_carIn53971:1" vType="default_016" speedFactor="1.07" vaporized="">
        <emissions CO_abs="2287.119043" CO2_abs="140475.277884" HC_abs="13.651054" PMx_abs="2.361416" NOx_abs="56.752611" fuel_abs="60.384588" electricity_abs="0"/>
    </tripinfo>
    <tripinfo id="h7800c1:5" depart="57696.00" departLane="-447569998#1_1" departPos="5.10" departSpeed="0.00" departDelay="0.00" arrival="57717.00" arrivalLane="-447569998#1_1" arrivalPos="180.76" arrivalSpeed="9.77" duration="21.00" routeLength="175.66" waitingTime="0.00" waitingCount="0" stopTime="0.00" timeLoss="3.08" rerouteNo="1" devices="tripinfo_h7800c1:5 routing_h7800c1:5 emissions_h7800c1:5" vType="default_016" speedFactor="1.19" vaporized="">
        <emissions CO_abs="987.273289" CO2_abs="47643.280775" HC_abs="5.599761" PMx_abs="0.815731" NOx_abs="19.534985" fuel_abs="20.480043" electricity_abs="0"/>
    </tripinfo>
    <tripinfo id="h3326c1:2" depart="57656.00" departLane="22716069#0_1" departPos="5.10" departSpeed="0.00" departDelay="0.00" arrival="57765.00" arrivalLane="24634517#13_1" arrivalPos="111.62" arrivalSpeed="13.35" duration="109.00" routeLength="1312.81" waitingTime="0.00" waitingCount="0" stopTime="0.00" timeLoss="15.26" rerouteNo="1" devices="tripinfo_h3326c1:2 routing_h3326c1:2 emissions_h3326c1:2" vType="default_016" speedFactor="1.04" vaporized="">
        <emissions CO_abs="3895.314357" CO2_abs="293318.544548" HC_abs="24.576003" PMx_abs="5.036206" NOx_abs="118.007759" fuel_abs="126.084881" electricity_abs="0"/>
    </tripinfo>
    <tripinfo id="h4538c1:1" depart="57701.00" departLane="-10427692#1_1" departPos="5.10" departSpeed="0.00" departDelay="0.00" arrival="57767.00" arrivalLane="-128361102#1_1" arrivalPos="274.68" arrivalSpeed="13.53" duration="66.00" routeLength="440.74" waitingTime="23.00" waitingCount="1" stopTime="0.00" timeLoss="33.71" rerouteNo="1" devices="tripinfo_h4538c1:1 routing_h4538c1:1 emissions_h4538c1:1" vType="default_016" speedFactor="0.98" vaporized="">
        <emissions CO_abs="5141.657568" CO2_abs="168313.231038" HC_abs="27.363148" PMx_abs="3.346718" NOx_abs="71.317415" fuel_abs="72.352264" electricity_abs="0"/>
    </tripinfo>
    <tripinfo id="carIn30817:1" depart="57681.00" departLane="315358244_1" departPos="5.10" departSpeed="0.00" departDelay="0.20" arrival="57780.00" arrivalLane="447569997#1_1" arrivalPos="180.93" arrivalSpeed="6.94" duration="99.00" routeLength="718.04" waitingTime="20.00" waitingCount="1" stopTime="0.00" timeLoss="32.30" rerouteNo="1" devices="tripinfo_carIn30817:1 routing_carIn30817:1 emissions_carIn30817:1" vType="default_016" speedFactor="0.92" vaporized="">
        <emissions CO_abs="5545.057284" CO2_abs="222197.653056" HC_abs="30.398518" PMx_abs="3.894561" NOx_abs="90.982633" fuel_abs="95.515100" electricity_abs="0"/>
    </tripinfo>
    <tripinfo id="carIn27009:1" depart="57673.00" departLane="-447569998#1_1" departPos="5.10" departSpeed="0.00" departDelay="0.50" arrival="57786.00" arrivalLane="-26677539_1" arrivalPos="152.75" arrivalSpeed="6.05" duration="113.00" routeLength="699.63" waitingTime="0.00" waitingCount="0" stopTime="0.00" timeLoss="13.67" rerouteNo="1" devices="tripinfo_carIn27009:1 routing_carIn27009:1 emissions_carIn27009:1" vType="default_015" speedFactor="0.84" vaporized="">
        <emissions CO_abs="4751.809008" CO2_abs="189110.567422" HC_abs="25.942074" PMx_abs="3.012380" NOx_abs="76.695313" fuel_abs="81.292467" electricity_abs="0"/>
    </tripinfo>
    <tripinfo id="carIn60260:1" depart="57606.00" departLane="315358254#0_1" departPos="5.10" departSpeed="0.00" departDelay="0.90" arrival="57787.00" arrivalLane="399835085#1_1" arrivalPos="212.23" arrivalSpeed="9.69" duration="181.00" routeLength="430.98" waitingTime="131.00" waitingCount="1" stopTime="0.00" timeLoss="141.81" rerouteNo="1" devices="tripinfo_carIn60260:1 routing_carIn60260:1 emissions_carIn60260:1" vType="default_016" speedFactor="1.16" vaporized="">
        <emissions CO_abs="22945.408972" CO2_abs="449967.080382" HC_abs="115.040852" PMx_abs="10.455530" NOx_abs="201.211529" fuel_abs="193.431375" electricity_abs="0"/>
    </tripinfo>
    <tripinfo id="carIn107282:1" depart="57749.00" departLane="-447569998#1_1" departPos="5.10" departSpeed="0.00" departDelay="0.00" arrival="57799.00" arrivalLane="315358242#0_1" arrivalPos="165.37" arrivalSpeed="12.35" duration="50.00" routeLength="448.50" waitingTime="0.00" waitingCount="0" stopTime="0.00" timeLoss="5.22" rerouteNo="1" devices="tripinfo_carIn107282:1 routing_carIn107282:1 emissions_carIn107282:1" vType="default_016" speedFactor="0.94" vaporized="">
        <emissions CO_abs="1784.543271" CO2_abs="100113.372025" HC_abs="10.431762" PMx_abs="1.572668" NOx_abs="39.872735" fuel_abs="43.034944" electricity_abs="0"/>
    </tripinfo>
    <tripinfo id="h5979c1:5" depart="57669.00" departLane="399835085#1_1" departPos="5.10" departSpeed="0.00" departDelay="0.00" arrival="57801.00" arrivalLane="-315358254#1_1" arrivalPos="137.16" arrivalSpeed="9.87" duration="132.00" routeLength="659.33" waitingTime="23.00" waitingCount="1" stopTime="0.00" timeLoss="39.34" rerouteNo="1" devices="tripinfo_h5979c1:5 routing_h5979c1:5 emissions_h5979c1:5" vType="default_016" speedFactor="0.79" vaporized="">
        <emissions CO_abs="7731.562620" CO2_abs="232094.358299" HC_abs="40.533106" PMx_abs="4.196295" NOx_abs="96.950396" fuel_abs="99.770702" electricity_abs="0"/>
    </tripinfo>
    <tripinfo id="h3568c1:3" depart="57656.00" departLane="266565295#5_1" departPos="5.10" departSpeed="0.00" departDelay="0.80" arrival="57805.00" arrivalLane="-24634415_1" arrivalPos="62.03" arrivalSpeed="13.78" duration="149.00" routeLength="807.40" waitingTime="68.00" waitingCount="1" stopTime="0.00" timeLoss="86.01" rerouteNo="1" devices="tripinfo_h3568c1:3 routing_h3568c1:3 emissions_h3568c1:3" vType="default_016" speedFactor="1.02" vaporized="">
        <emissions CO_abs="13809.489043" CO2_abs="397098.945505" HC_abs="72.206877" PMx_abs="8.311287" NOx_abs="171.100922" fuel_abs="170.700419" electricity_abs="0"/>
    </tripinfo>
    <tripinfo id="carIn129809:1" depart="57729.00" departLane="-447569998#1_1" departPos="5.10" departSpeed="0.00" departDelay="1.00" arrival="57808.00" arrivalLane="-315358244_1" arrivalPos="33.95" arrivalSpeed="13.17" duration="79.00" routeLength="706.49" waitingTime="7.00" waitingCount="1" stopTime="0.00" timeLoss="17.41" rerouteNo="1" devices="tripinfo_carIn129809:1 routing_carIn129809:1 emissions_carIn129809:1" vType="default_015" speedFactor="0.98" vaporized="">
        <emissions CO_abs="2637.327707" CO2_abs="168561.208804" HC_abs="15.900473" PMx_abs="2.582272" NOx_abs="66.016771" fuel_abs="72.457932" electricity_abs="0"/>
    </tripinfo>
    <tripinfo id="carIn80064:1" depart="57603.00" departLane="128361109#1_1" departPos="5.10" departSpeed="0.00" departDelay="0.40" arrival="57820.00" arrivalLane="-315358254#1_1" arrivalPos="137.16" arrivalSpeed="12.61" duration="217.00" routeLength="1587.97" waitingTime="89.00" waitingCount="2" stopTime="0.00" timeLoss="122.43" rerouteNo="1" devices="tripinfo_carIn80064:1 routing_carIn80064:1 emissions_carIn80064:1" vType="default_016" speedFactor="0.94" vaporized="">
        <emissions CO_abs="20133.230262" CO2_abs="671235.636776" HC_abs="107.594075" PMx_abs="14.089415" NOx_abs="286.449251" fuel_abs="288.540719" electricity_abs="0"/>
    </tripinfo>
    <tripinfo id="h17600c1:1" depart="57662.00" departLane="272042143_1" departPos="5.10" departSpeed="0.00" departDelay="0.30" arrival="57829.00" arrivalLane="201238729#3_1" arrivalPos="431.02" arrivalSpeed="14.61" duration="167.00" routeLength="2100.26" waitingTime="10.00" waitingCount="1" stopTime="0.00" timeLoss="28.70" rerouteNo="1" devices="tripinfo_h17600c1:1 routing_h17600c1:1 emissions_h17600c1:1" vType="default_016" speedFactor="1.10" vaporized="">
        <emissions CO_abs="4874.910603" CO2_abs="404937.901059" HC_abs="31.458435" PMx_abs="6.451475" NOx_abs="157.346794" fuel_abs="174.065739" electricity_abs="0"/>
    </tripinfo>
    <tripinfo id="h11737c1:1" depart="57665.00" departLane="272042143_1" departPos="5.10" departSpeed="0.00" departDelay="1.50" arrival="57830.00" arrivalLane="-315358254#1_1" arrivalPos="137.16" arrivalSpeed="10.68" duration="165.00" routeLength="1596.88" waitingTime="2.00" waitingCount="1" stopTime="0.00" timeLoss="19.70" rerouteNo="1" devices="tripinfo_h11737c1:1 routing_h11737c1:1 emissions_h11737c1:1" vType="default_016" speedFactor="0.80" vaporized="">
        <emissions CO_abs="4591.174494" CO2_abs="321677.708098" HC_abs="28.281031" PMx_abs="4.651744" NOx_abs="124.951777" fuel_abs="138.276748" electricity_abs="0"/>
    </tripinfo>
    <tripinfo id="carIn126288:1" depart="57674.00" departLane="272042143_1" departPos="5.10" departSpeed="0.00" departDelay="0.00" arrival="57832.00" arrivalLane="-315358254#1_1" arrivalPos="137.16" arrivalSpeed="12.34" duration="158.00" routeLength="1596.88" waitingTime="1.00" waitingCount="1" stopTime="0.00" timeLoss="27.68" rerouteNo="1" devices="tripinfo_carIn126288:1 routing_carIn126288:1 emissions_carIn126288:1" vType="default_016" speedFactor="0.90" vaporized="">
        <emissions CO_abs="4942.236628" CO2_abs="335822.434095" HC_abs="30.313841" PMx_abs="5.446225" NOx_abs="134.212005" fuel_abs="144.356248" electricity_abs="0"/>
    </tripinfo>
    <tripinfo id="h17549c1:1" depart="57680.00" departLane="-447569998#1_1" departPos="5.10" departSpeed="0.00" departDelay="0.00" arrival="57833.00" arrivalLane="-315358254#1_1" arrivalPos="137.16" arrivalSpeed="12.96" duration="153.00" routeLength="1746.60" waitingTime="4.00" waitingCount="1" stopTime="0.00" timeLoss="25.04" rerouteNo="1" devices="tripinfo_h17549c1:1 routing_h17549c1:1 emissions_h17549c1:1" vType="default_016" speedFactor="1.07" vaporized="">
        <emissions CO_abs="4536.081147" CO2_abs="351712.707143" HC_abs="28.851409" PMx_abs="5.813347" NOx_abs="139.755293" fuel_abs="151.186256" electricity_abs="0"/>
    </tripinfo>
    <tripinfo id="randUni15030:1" depart="57735.00" departLane="386687232#0_1" departPos="5.10" departSpeed="0.00" departDelay="0.10" arrival="57834.00" arrivalLane="26677539_1" arrivalPos="151.98" arrivalSpeed="8.23" duration="99.00" routeLength="919.89" waitingTime="6.00" waitingCount="1" stopTime="0.00" timeLoss="20.37" rerouteNo="1" devices="tripinfo_randUni15030:1 routing_randUni15030:1 emissions_randUni15030:1" vType="random_016" speedFactor="1.06" vaporized="">
        <emissions CO_abs="3895.424051" CO2_abs="227800.184959" HC_abs="23.055992" PMx_abs="3.989844" NOx_abs="93.165196" fuel_abs="97.921915" electricity_abs="0"/>
    </tripinfo>
    <tripinfo id="h3688c1:1" depart="57625.00" departLane="201201950#1_1" departPos="5.10" departSpeed="0.00" departDelay="0.00" arrival="57837.00" arrivalLane="32978638#0_1" arrivalPos="49.29" arrivalSpeed="10.12" duration="212.00" routeLength="1089.75" waitingTime="90.00" waitingCount="2" stopTime="0.00" timeLoss="107.97" rerouteNo="1" devices="tripinfo_h3688c1:1 routing_h3688c1:1 emissions_h3688c1:1" vType="default_016" speedFactor="0.76" vaporized="">
        <emissions CO_abs="17462.581160" CO2_abs="457571.996174" HC_abs="90.128867" PMx_abs="9.045010" NOx_abs="194.207918" fuel_abs="196.697986" electricity_abs="0"/>
    </tripinfo>
    <tripinfo id="h12244c1:3" depart="57612.00" departLane="315358244_1" departPos="5.10" departSpeed="0.00" departDelay="0.40" arrival="57843.00" arrivalLane="386687235_1" arrivalPos="80.84" arrivalSpeed="12.73" duration="231.00" routeLength="1186.14" waitingTime="109.00" waitingCount="5" stopTime="0.00" timeLoss="137.38" rerouteNo="1" devices="tripinfo_h12244c1:3 routing_h12244c1:3 emissions_h12244c1:3" vType="default_016" speedFactor="0.92" vaporized="">
        <emissions CO_abs="19742.559205" CO2_abs="534590.718098" HC_abs="102.399468" PMx_abs="10.944344" NOx_abs="228.706719" fuel_abs="229.805203" electricity_abs="0"/>
    </tripinfo>
    <tripinfo id="h330c1:1" depart="57736.00" departLane="-32978638#0_1" departPos="5.10" departSpeed="0.00" departDelay="0.20" arrival="57846.00" arrivalLane="-266565295#5_2" arrivalPos="172.76" arrivalSpeed="14.35" duration="110.00" routeLength="370.53" waitingTime="74.00" waitingCount="1" stopTime="0.00" timeLoss="83.98" rerouteNo="1" devices="tripinfo_h330c1:1 routing_h330c1:1 emissions_h330c1:1" vType="default_016" speedFactor="1.06" vaporized="">
        <emissions CO_abs="13649.923443" CO2_abs="313347.831378" HC_abs="69.533130" PMx_abs="7.007398" NOx_abs="137.906570" fuel_abs="134.700108" electricity_abs="0"/>
    </tripinfo>
    <tripinfo id="h3864c1:3" depart="57678.00" departLane="24693977#1_1" departPos="5.10" departSpeed="0.00" departDelay="0.00" arrival="57849.00" arrivalLane="201956820_1" arrivalPos="48.33" arrivalSpeed="14.29" duration="171.00" routeLength="1574.85" waitingTime="13.00" waitingCount="1" stopTime="0.00" timeLoss="50.27" rerouteNo="1" devices="tripinfo_h3864c1:3 routing_h3864c1:3 emissions_h3864c1:3" vType="default_016" speedFactor="1.07" vaporized="">
        <emissions CO_abs="9190.105530" CO2_abs="500572.127036" HC_abs="53.518195" PMx_abs="9.035676" NOx_abs="205.899768" fuel_abs="215.175512" electricity_abs="0"/>
    </tripinfo>
    <tripinfo id="h317c2:1" depart="57707.00" departLane="-32978638#0_1" departPos="5.10" departSpeed="0.00" departDelay="0.10" arrival="57850.00" arrivalLane="-266565295#5_1" arrivalPos="172.76" arrivalSpeed="10.80" duration="143.00" routeLength="370.53" waitingTime="100.00" waitingCount="1" stopTime="0.00" timeLoss="108.36" rerouteNo="1" devices="tripinfo_h317c2:1 routing_h317c2:1 emissions_h317c2:1" vType="default_016" speedFactor="0.80" vaporized="">
        <emissions CO_abs="17234.215528" CO2_abs="345814.412829" HC_abs="86.567214" PMx_abs="7.846070" NOx_abs="153.373129" fuel_abs="148.658287" electricity_abs="0"/>
    </tripinfo>
    <tripinfo id="h9563c2:5" depart="57631.00" departLane="315358244_1" departPos="5.10" departSpeed="0.00" departDelay="0.70" arrival="57851.00" arrivalLane="386687235_1" arrivalPos="80.84" arrivalSpeed="13.81" duration="220.00" routeLength="1186.14" waitingTime="89.00" waitingCount="6" stopTime="0.00" timeLoss="133.25" rerouteNo="1" devices="tripinfo_h9563c2:5 routing_h9563c2:5 emissions_h9563c2:5" vType="default_016" speedFactor="1.00" vaporized="">
        <emissions CO_abs="16446.310153" CO2_abs="498508.799333" HC_abs="86.574824" PMx_abs="10.138015" NOx_abs="212.779939" fuel_abs="214.293047" electricity_abs="0"/>
    </tripinfo>
    <tripinfo id="h7181c1:1" depart="57660.00" departLane="315358254#0_1" departPos="5.10" departSpeed="0.00" departDelay="0.10" arrival="57862.00" arrivalLane="306240162#0_0" arrivalPos="220.43" arrivalSpeed="14.54" duration="202.00" routeLength="932.35" waitingTime="127.00" waitingCount="2" stopTime="0.00" timeLoss="146.90" rerouteNo="1" devices="tripinfo_h7181c1:1 routing_h7181c1:1 emissions_h7181c1:1" vType="default_016" speedFactor="0.94" vaporized="">
        <emissions CO_abs="23038.913387" CO2_abs="558142.676996" HC_abs="118.121895" PMx_abs="12.538322" NOx_abs="244.548057" fuel_abs="239.930040" electricity_abs="0"/>
    </tripinfo>
    <tripinfo id="carIn53503:1" depart="57764.00" departLane="-306240162#1_0" departPos="5.10" departSpeed="0.00" departDelay="3.40" arrival="57872.00" arrivalLane="24634510#6_1" arrivalPos="76.64" arrivalSpeed="14.65" duration="108.00" routeLength="1440.47" waitingTime="0.00" waitingCount="0" stopTime="0.00" timeLoss="13.79" rerouteNo="1" devices="tripinfo_carIn53503:1 routing_carIn53503:1 emissions_carIn53503:1" vType="default_016" speedFactor="1.06" vaporized="">
        <emissions CO_abs="3641.834613" CO2_abs="325830.361337" HC_abs="24.151039" PMx_abs="5.366915" NOx_abs="127.770869" fuel_abs="140.060244" electricity_abs="0"/>
    </tripinfo>
    <tripinfo id="carIn107084:1" depart="57601.00" departLane="124812856#0_1" departPos="5.10" departSpeed="0.00" departDelay="0.70" arrival="57873.00" arrivalLane="-128361102#1_1" arrivalPos="274.68" arrivalSpeed="15.34" duration="272.00" routeLength="2232.46" waitingTime="105.00" waitingCount="1" stopTime="0.00" timeLoss="129.06" rerouteNo="1" devices="tripinfo_carIn107084:1 routing_carIn107084:1 emissions_carIn107084:1" vType="default_016" speedFactor="1.15" vaporized="">
        <emissions CO_abs="22949.272103" CO2_abs="772765.282450" HC_abs="122.369079" PMx_abs="15.535810" NOx_abs="325.119789" fuel_abs="332.185573" electricity_abs="0"/>
    </tripinfo>
    <tripinfo id="carIn118538:1" depart="57682.00" departLane="-447569998#1_1" departPos="5.10" departSpeed="0.00" departDelay="0.00" arrival="57873.00" arrivalLane="399835085#1_1" arrivalPos="212.23" arrivalSpeed="7.41" duration="191.00" routeLength="1907.17" waitingTime="0.00" waitingCount="0" stopTime="0.00" timeLoss="17.61" rerouteNo="1" devices="tripinfo_carIn118538:1 routing_carIn118538:1 emissions_carIn118538:1" vType="default_016" speedFactor="0.93" vaporized="">
        <emissions CO_abs="5056.669640" CO2_abs="345305.463228" HC_abs="30.957681" PMx_abs="5.065491" NOx_abs="134.243077" fuel_abs="148.433439" electricity_abs="0"/>
    </tripinfo>
    <tripinfo id="carIn12152:1" depart="57647.00" departLane="24599188#0.94_1" departPos="5.10" departSpeed="0.00" departDelay="0.50" arrival="57877.00" arrivalLane="-315358254#1_1" arrivalPos="137.16" arrivalSpeed="14.10" duration="230.00" routeLength="2034.31" waitingTime="49.00" waitingCount="2" stopTime="0.00" timeLoss="78.43" rerouteNo="1" devices="tripinfo_carIn12152:1 routing_carIn12152:1 emissions_carIn12152:1" vType="default_016" speedFactor="1.05" vaporized="">
        <emissions CO_abs="12628.939673" CO2_abs="552211.094924" HC_abs="70.358046" PMx_abs="10.000185" NOx_abs="226.052036" fuel_abs="237.375217" electricity_abs="0"/>
    </tripinfo>
    <tripinfo id="carIn24709:1" depart="57752.00" departLane="266565295#5_1" departPos="5.10" departSpeed="0.00" departDelay="1.50" arrival="57884.00" arrivalLane="-24634506#2_1" arrivalPos="71.32" arrivalSpeed="13.83" duration="132.00" routeLength="1450.12" waitingTime="0.00" waitingCount="0" stopTime="0.00" timeLoss="15.24" rerouteNo="1" devices="tripinfo_carIn24709:1 routing_carIn24709:1 emissions_carIn24709:1" vType="default_016" speedFactor="1.02" vaporized="">
        <emissions CO_abs="4151.474718" CO2_abs="312914.138228" HC_abs="26.088219" PMx_abs="4.893837" NOx_abs="122.749024" fuel_abs="134.508904" electricity_abs="0"/>
    </tripinfo>
    <tripinfo id="h19804c1:3" depart="57617.00" departLane="124812856#0_1" departPos="5.10" departSpeed="0.00" departDelay="1.50" arrival="57885.00" arrivalLane="-128361102#1_1" arrivalPos="274.68" arrivalSpeed="10.75" duration="268.00" routeLength="2232.46" waitingTime="45.00" waitingCount="1" stopTime="0.00" timeLoss="69.72" rerouteNo="1" devices="tripinfo_h19804c1:3 routing_h19804c1:3 emissions_h19804c1:3" vType="default_016" speedFactor="0.82" vaporized="">
        <emissions CO_abs="13146.662544" CO2_abs="557588.571169" HC_abs="72.756957" PMx_abs="9.472816" NOx_abs="225.925170" fuel_abs="239.687925" electricity_abs="0"/>
    </tripinfo>
    <tripinfo id="carIn77943:1" depart="57608.00" departLane="124812856#0_1" departPos="5.10" departSpeed="0.00" departDelay="2.50" arrival="57887.00" arrivalLane="-128361102#1_1" arrivalPos="274.68" arrivalSpeed="12.82" duration="279.00" routeLength="2250.49" waitingTime="59.00" waitingCount="1" stopTime="0.00" timeLoss="104.52" rerouteNo="1" devices="tripinfo_carIn77943:1 routing_carIn77943:1 emissions_carIn77943:1" vType="default_016" speedFactor="0.94" vaporized="">
        <emissions CO_abs="16831.679918" CO2_abs="672368.942144" HC_abs="92.367820" PMx_abs="12.498626" NOx_abs="279.426995" fuel_abs="289.027201" electricity_abs="0"/>
    </tripinfo>
    <tripinfo id="carIn13443:1" depart="57729.00" departLane="272042143_1" departPos="5.10" departSpeed="0.00" departDelay="0.80" arrival="57887.00" arrivalLane="399835085#1_1" arrivalPos="212.23" arrivalSpeed="7.95" duration="158.00" routeLength="1757.45" waitingTime="0.00" waitingCount="0" stopTime="0.00" timeLoss="25.10" rerouteNo="1" devices="tripinfo_carIn13443:1 routing_carIn13443:1 emissions_carIn13443:1" vType="default_016" speedFactor="1.07" vaporized="">
        <emissions CO_abs="5292.100456" CO2_abs="394018.794643" HC_abs="33.258152" PMx_abs="6.507014" NOx_abs="157.353026" fuel_abs="169.371937" electricity_abs="0"/>
    </tripinfo>
    <tripinfo id="randUni3548:1" depart="57726.00" departLane="-447569998#1_1" departPos="5.10" departSpeed="0.00" departDelay="0.00" arrival="57888.00" arrivalLane="-315358254#1_1" arrivalPos="137.16" arrivalSpeed="13.69" duration="162.00" routeLength="1746.60" waitingTime="8.00" waitingCount="1" stopTime="0.00" timeLoss="27.12" rerouteNo="1" devices="tripinfo_randUni3548:1 routing_randUni3548:1 emissions_randUni3548:1" vType="random_016" speedFactor="1.01" vaporized="">
        <emissions CO_abs="5069.284418" CO2_abs="364836.755563" HC_abs="31.571851" PMx_abs="5.800867" NOx_abs="143.641229" fuel_abs="156.828378" electricity_abs="0"/>
    </tripinfo>
    <tripinfo id="carIn81046:1" depart="57611.00" departLane="124812856#0_1" departPos="5.10" departSpeed="0.00" departDelay="2.50" arrival="57889.00" arrivalLane="-128361102#1_1" arrivalPos="274.68" arrivalSpeed="13.35" duration="278.00" routeLength="2250.49" waitingTime="58.00" waitingCount="1" stopTime="0.00" timeLoss="115.29" rerouteNo="1" devices="tripinfo_carIn81046:1 routing_carIn81046:1 emissions_carIn81046:1" vType="default_016" speedFactor="1.01" vaporized="">
        <emissions CO_abs="17885.419114" CO2_abs="755723.150112" HC_abs="99.182319" PMx_abs="14.289156" NOx_abs="315.457803" fuel_abs="324.856937" electricity_abs="0"/>
    </tripinfo>
    <tripinfo id="h645c1:1" depart="57622.00" departLane="266565295#5_1" departPos="5.10" departSpeed="0.00" departDelay="0.40" arrival="57889.00" arrivalLane="-315358244_2" arrivalPos="33.95" arrivalSpeed="16.67" duration="267.00" routeLength="1910.83" waitingTime="117.00" waitingCount="4" stopTime="0.00" timeLoss="153.19" rerouteNo="1" devices="tripinfo_h645c1:1 routing_h645c1:1 emissions_h645c1:1" vType="default_016" speedFactor="1.22" vaporized="">
        <emissions CO_abs="23677.658765" CO2_abs="763597.110783" HC_abs="125.571942" PMx_abs="15.584733" NOx_abs="322.457156" fuel_abs="328.245034" electricity_abs="0"/>
    </tripinfo>
    <tripinfo id="carIn75660:1" depart="57679.00" departLane="128361109#1_1" departPos="5.10" departSpeed="0.00" departDelay="3.40" arrival="57889.00" arrivalLane="386687235_1" arrivalPos="80.84" arrivalSpeed="17.49" duration="210.00" routeLength="2088.57" waitingTime="79.00" waitingCount="1" stopTime="0.00" timeLoss="96.81" rerouteNo="1" devices="tripinfo_carIn75660:1 routing_carIn75660:1 emissions_carIn75660:1" vType="default_016" speedFactor="1.34" vaporized="">
        <emissions CO_abs="16587.705856" CO2_abs="589406.395610" HC_abs="89.298075" PMx_abs="11.954442" NOx_abs="245.356596" fuel_abs="253.365216" electricity_abs="0"/>
    </tripinfo>
    <tripinfo id="carIn14532:1" depart="57743.00" departLane="272042143_1" departPos="5.10" departSpeed="0.00" departDelay="1.90" arrival="57891.00" arrivalLane="399835085#1_1" arrivalPos="212.23" arrivalSpeed="8.20" duration="148.00" routeLength="1757.45" waitingTime="0.00" waitingCount="0" stopTime="0.00" timeLoss="16.50" rerouteNo="1" devices="tripinfo_carIn14532:1 routing_carIn14532:1 emissions_carIn14532:1" vType="default_016" speedFactor="1.08" vaporized="">
        <emissions CO_abs="4491.376578" CO2_abs="364038.761471" HC_abs="28.916470" PMx_abs="5.981221" NOx_abs="144.332566" fuel_abs="156.484586" electricity_abs="0"/>
    </tripinfo>
    <tripinfo id="carIn12365:1" depart="57713.00" departLane="315358244_1" departPos="5.10" departSpeed="0.00" departDelay="0.50" arrival="57896.00" arrivalLane="447569997#1_1" arrivalPos="180.93" arrivalSpeed="9.56" duration="183.00" routeLength="718.04" waitingTime="117.00" waitingCount="1" stopTime="0.00" timeLoss="130.67" rerouteNo="1" devices="tripinfo_carIn12365:1 routing_carIn12365:1 emissions_carIn12365:1" vType="default_016" speedFactor="1.19" vaporized="">
        <emissions CO_abs="21020.133504" CO2_abs="476062.568429" HC_abs="106.887823" PMx_abs="10.557381" NOx_abs="208.522369" fuel_abs="204.647372" electricity_abs="0"/>
    </tripinfo>
    <tripinfo id="carIn126378:1" depart="57746.00" departLane="386687232#0_1" departPos="5.10" departSpeed="0.00" departDelay="1.80" arrival="57897.00" arrivalLane="-315358244_2" arrivalPos="33.95" arrivalSpeed="13.33" duration="151.00" routeLength="1157.39" waitingTime="49.00" waitingCount="1" stopTime="0.00" timeLoss="68.01" rerouteNo="1" devices="tripinfo_carIn126378:1 routing_carIn126378:1 emissions_carIn126378:1" vType="default_016" speedFactor="1.02" vaporized="">
        <emissions CO_abs="10965.603355" CO2_abs="375501.050772" HC_abs="58.662043" PMx_abs="7.104477" NOx_abs="155.726863" fuel_abs="161.415642" electricity_abs="0"/>
    </tripinfo>
    <tripinfo id="carIn121703:1" depart="57647.00" departLane="386687232#0_1" departPos="5.10" departSpeed="0.00" departDelay="0.30" arrival="57898.00" arrivalLane="-315358244_1" arrivalPos="33.95" arrivalSpeed="12.16" duration="251.00" routeLength="1157.39" waitingTime="143.00" waitingCount="2" stopTime="0.00" timeLoss="161.95" rerouteNo="1" devices="tripinfo_carIn121703:1 routing_carIn121703:1 emissions_carIn121703:1" vType="default_016" speedFactor="0.95" vaporized="">
        <emissions CO_abs="26000.574013" CO2_abs="625336.263903" HC_abs="133.032237" PMx_abs="13.327063" NOx_abs="270.443999" fuel_abs="268.815843" electricity_abs="0"/>
    </tripinfo>
    <tripinfo id="carIn132499:1" depart="57740.00" departLane="272042143_1" departPos="5.10" departSpeed="0.00" departDelay="0.70" arrival="57898.00" arrivalLane="201238729#3_1" arrivalPos="431.02" arrivalSpeed="14.38" duration="158.00" routeLength="2100.26" waitingTime="4.00" waitingCount="1" stopTime="0.00" timeLoss="23.42" rerouteNo="1" devices="tripinfo_carIn132499:1 routing_carIn132499:1 emissions_carIn132499:1" vType="default_016" speedFactor="1.12" vaporized="">
        <emissions CO_abs="4375.055604" CO2_abs="402783.931709" HC_abs="29.195769" PMx_abs="6.589126" NOx_abs="157.547119" fuel_abs="173.139181" electricity_abs="0"/>
    </tripinfo>
    <tripinfo id="carIn73855:1" depart="57743.00" departLane="386687232#0_1" departPos="5.10" departSpeed="0.00" departDelay="0.50" arrival="57899.00" arrivalLane="-315358244_1" arrivalPos="33.95" arrivalSpeed="13.12" duration="156.00" routeLength="1157.39" waitingTime="54.00" waitingCount="1" stopTime="0.00" timeLoss="72.20" rerouteNo="1" devices="tripinfo_carIn73855:1 routing_carIn73855:1 emissions_carIn73855:1" vType="default_016" speedFactor="1.01" vaporized="">
        <emissions CO_abs="12003.185197" CO2_abs="415248.294904" HC_abs="64.413280" PMx_abs="8.201369" NOx_abs="175.090150" fuel_abs="178.500992" electricity_abs="0"/>
    </tripinfo>
    <tripinfo id="randUni23028:1" depart="57884.00" departLane="124812856#0_1" departPos="5.10" departSpeed="0.00" departDelay="0.10" arrival="57900.00" arrivalLane="201956810_1" arrivalPos="71.65" arrivalSpeed="12.67" duration="16.00" routeLength="134.91" waitingTime="0.00" waitingCount="0" stopTime="0.00" timeLoss="4.47" rerouteNo="1" devices="tripinfo_randUni23028:1 routing_randUni23028:1 emissions_randUni23028:1" vType="random_016" speedFactor="0.95" vaporized="">