<?xml version="1.0" encoding="UTF-8"?>

<!-- generated on 2021-10-26 19:38:06 by Eclipse SUMO sumo Version 1.10.0
<configuration xmlns:xsi="http://www.w3.org/2001/XMLSchema-instance" xsi:noNamespaceSchemaLocation="http://sumo.dlr.de/xsd/sumoConfiguration.xsd">

    <input>
        <net-file value="/Users/behradkoohy/sumo-scratchpad/RESCO/environments/ingolstadt21/ingolstadt21.net.xml"/>
        <route-files value="/Users/behradkoohy/sumo-scratchpad/RESCO/environments/ingolstadt21/ingolstadt21.rou.xml"/>
    </input>

    <output>
        <tripinfo-output value="/Users/behradkoohy/sumo-scratchpad/RESCO/logs/MPLight-tr0-ingolstadt21-21-mplight-pressure/tripinfo_35.xml"/>
        <tripinfo-output.write-unfinished value="true"/>
    </output>

    <time>
        <begin value="57600"/>
        <end value="61200"/>
    </time>

    <processing>
        <time-to-teleport value="-1"/>
    </processing>

    <report>
        <no-warnings value="true"/>
        <no-step-log value="true"/>
    </report>

    <emissions>
        <device.emissions.probability value="1"/>
    </emissions>

    <traci_server>
        <remote-port value="63658"/>
    </traci_server>

    <random_number>
        <random value="true"/>
    </random_number>

</configuration>
-->

<tripinfos xmlns:xsi="http://www.w3.org/2001/XMLSchema-instance" xsi:noNamespaceSchemaLocation="http://sumo.dlr.de/xsd/tripinfo_file.xsd">
    <tripinfo id="h15454c2:3" depart="57612.00" departLane="24608844_1" departPos="5.10" departSpeed="0.00" departDelay="0.50" arrival="57656.00" arrivalLane="32978638#0_1" arrivalPos="49.29" arrivalSpeed="14.95" duration="44.00" routeLength="354.79" waitingTime="3.00" waitingCount="1" stopTime="0.00" timeLoss="13.21" rerouteNo="1" devices="tripinfo_h15454c2:3 routing_h15454c2:3 emissions_h15454c2:3" vType="default_016" speedFactor="1.12" vaporized="">
        <emissions CO_abs="2337.273471" CO2_abs="120881.284233" HC_abs="13.471404" PMx_abs="2.226500" NOx_abs="50.342698" fuel_abs="51.961927" electricity_abs="0"/>
    </tripinfo>
    <tripinfo id="carIn60260:1" depart="57606.00" departLane="315358254#0_1" departPos="5.10" departSpeed="0.00" departDelay="0.90" arrival="57657.00" arrivalLane="399835085#1_1" arrivalPos="212.23" arrivalSpeed="8.73" duration="51.00" routeLength="430.98" waitingTime="0.00" waitingCount="0" stopTime="0.00" timeLoss="7.17" rerouteNo="1" devices="tripinfo_carIn60260:1 routing_carIn60260:1 emissions_carIn60260:1" vType="default_016" speedFactor="1.05" vaporized="">
        <emissions CO_abs="2125.839937" CO2_abs="112814.657877" HC_abs="12.286743" PMx_abs="1.850152" NOx_abs="45.645618" fuel_abs="48.494702" electricity_abs="0"/>
    </tripinfo>
    <tripinfo id="carIn53971:1" depart="57640.00" departLane="272042143_1" departPos="5.10" departSpeed="0.00" departDelay="0.80" arrival="57695.00" arrivalLane="24634414#1_1" arrivalPos="162.19" arrivalSpeed="7.85" duration="55.00" routeLength="493.04" waitingTime="0.00" waitingCount="0" stopTime="0.00" timeLoss="8.57" rerouteNo="1" devices="tripinfo_carIn53971:1 routing_carIn53971:1 emissions_carIn53971:1" vType="default_016" speedFactor="0.98" vaporized="">
        <emissions CO_abs="2489.146660" CO2_abs="134222.226073" HC_abs="14.454295" PMx_abs="2.284065" NOx_abs="54.751287" fuel_abs="57.696845" electricity_abs="0"/>
    </tripinfo>
    <tripinfo id="h3688c1:1" depart="57625.00" departLane="201201950#1_1" departPos="5.10" departSpeed="0.00" departDelay="0.00" arrival="57717.00" arrivalLane="32978638#0_1" arrivalPos="49.29" arrivalSpeed="15.26" duration="92.00" routeLength="1089.75" waitingTime="8.00" waitingCount="1" stopTime="0.00" timeLoss="23.41" rerouteNo="1" devices="tripinfo_h3688c1:1 routing_h3688c1:1 emissions_h3688c1:1" vType="default_016" speedFactor="1.16" vaporized="">
        <emissions CO_abs="4324.189109" CO2_abs="289413.754782" HC_abs="26.418814" PMx_abs="5.216414" NOx_abs="117.379689" fuel_abs="124.406472" electricity_abs="0"/>
    </tripinfo>
    <tripinfo id="S5R_frequency1.2" depart="57615.00" departLane="315358250#0_1" departPos="12.10" departSpeed="0.00" departDelay="3.40" arrival="57720.00" arrivalLane="386687235_1" arrivalPos="80.84" arrivalSpeed="13.46" duration="105.00" routeLength="1115.62" waitingTime="5.00" waitingCount="1" stopTime="0.00" timeLoss="23.64" rerouteNo="1" devices="tripinfo_S5R_frequency1.2 routing_S5R_frequency1.2 emissions_S5R_frequency1.2" vType="bus" speedFactor="1.00" vaporized="">
        <emissions CO_abs="1985.572862" CO2_abs="1233269.270342" HC_abs="420.162522" PMx_abs="212.666978" NOx_abs="9597.521731" fuel_abs="525.972941" electricity_abs="0"/>
    </tripinfo>
    <tripinfo id="carIn22761:1" depart="57616.00" departLane="-306240162#1_0" departPos="5.10" departSpeed="0.00" departDelay="2.10" arrival="57724.00" arrivalLane="399835085#1_1" arrivalPos="212.23" arrivalSpeed="7.43" duration="108.00" routeLength="1093.26" waitingTime="13.00" waitingCount="1" stopTime="0.00" timeLoss="29.09" rerouteNo="1" devices="tripinfo_carIn22761:1 routing_carIn22761:1 emissions_carIn22761:1" vType="default_016" speedFactor="0.98" vaporized="">
        <emissions CO_abs="5972.624055" CO2_abs="313835.027361" HC_abs="34.477539" PMx_abs="5.749040" NOx_abs="127.572767" fuel_abs="134.905112" electricity_abs="0"/>
    </tripinfo>
    <tripinfo id="h7800c1:5" depart="57696.00" departLane="-447569998#1_1" departPos="5.10" departSpeed="0.00" departDelay="0.00" arrival="57725.00" arrivalLane="-447569998#1_2" arrivalPos="180.76" arrivalSpeed="6.30" duration="29.00" routeLength="175.66" waitingTime="0.00" waitingCount="0" stopTime="0.00" timeLoss="3.93" rerouteNo="1" devices="tripinfo_h7800c1:5 routing_h7800c1:5 emissions_h7800c1:5" vType="default_016" speedFactor="0.87" vaporized="">
        <emissions CO_abs="1514.968135" CO2_abs="57895.120241" HC_abs="8.213546" PMx_abs="0.917396" NOx_abs="23.445364" fuel_abs="24.887284" electricity_abs="0"/>
    </tripinfo>
    <tripinfo id="h7181c1:1" depart="57660.00" departLane="315358254#0_1" departPos="5.10" departSpeed="0.00" departDelay="0.10" arrival="57729.00" arrivalLane="306240162#0_0" arrivalPos="220.43" arrivalSpeed="17.30" duration="69.00" routeLength="932.35" waitingTime="9.00" waitingCount="1" stopTime="0.00" timeLoss="22.27" rerouteNo="1" devices="tripinfo_h7181c1:1 routing_h7181c1:1 emissions_h7181c1:1" vType="default_016" speedFactor="1.09" vaporized="">
        <emissions CO_abs="4718.832733" CO2_abs="281870.253113" HC_abs="28.277175" PMx_abs="5.712530" NOx_abs="117.120032" fuel_abs="121.163470" electricity_abs="0"/>
    </tripinfo>
    <tripinfo id="h12244c1:3" depart="57612.00" departLane="315358244_1" departPos="5.10" departSpeed="0.00" departDelay="0.40" arrival="57738.00" arrivalLane="386687235_1" arrivalPos="80.84" arrivalSpeed="11.61" duration="126.00" routeLength="1186.14" waitingTime="11.00" waitingCount="1" stopTime="0.00" timeLoss="29.42" rerouteNo="1" devices="tripinfo_h12244c1:3 routing_h12244c1:3 emissions_h12244c1:3" vType="default_016" speedFactor="0.89" vaporized="">
        <emissions CO_abs="4133.412284" CO2_abs="249891.357364" HC_abs="24.578784" PMx_abs="3.808872" NOx_abs="97.819163" fuel_abs="107.418825" electricity_abs="0"/>
    </tripinfo>
    <tripinfo id="h4538c1:1" depart="57701.00" departLane="-10427692#1_1" departPos="5.10" departSpeed="0.00" departDelay="0.00" arrival="57742.00" arrivalLane="-128361102#1_1" arrivalPos="274.68" arrivalSpeed="12.08" duration="41.00" routeLength="440.74" waitingTime="0.00" waitingCount="0" stopTime="0.00" timeLoss="6.71" rerouteNo="1" devices="tripinfo_h4538c1:1 routing_h4538c1:1 emissions_h4538c1:1" vType="default_016" speedFactor="0.94" vaporized="">
        <emissions CO_abs="1516.754100" CO2_abs="108587.349480" HC_abs="9.427894" PMx_abs="1.715112" NOx_abs="42.929334" fuel_abs="46.677252" electricity_abs="0"/>
    </tripinfo>
    <tripinfo id="h3568c1:3" depart="57656.00" departLane="266565295#5_1" departPos="5.10" departSpeed="0.00" departDelay="0.80" arrival="57745.00" arrivalLane="-24634415_1" arrivalPos="62.03" arrivalSpeed="14.03" duration="89.00" routeLength="807.40" waitingTime="2.00" waitingCount="1" stopTime="0.00" timeLoss="25.10" rerouteNo="1" devices="tripinfo_h3568c1:3 routing_h3568c1:3 emissions_h3568c1:3" vType="default_016" speedFactor="1.02" vaporized="">
        <emissions CO_abs="5110.316077" CO2_abs="290436.853730" HC_abs="30.131842" PMx_abs="5.434788" NOx_abs="121.163254" fuel_abs="124.846420" electricity_abs="0"/>
    </tripinfo>
    <tripinfo id="carIn121703:1" depart="57647.00" departLane="386687232#0_1" departPos="5.10" departSpeed="0.00" departDelay="0.30" arrival="57753.00" arrivalLane="-315358244_1" arrivalPos="33.95" arrivalSpeed="14.39" duration="106.00" routeLength="1157.39" waitingTime="7.00" waitingCount="2" stopTime="0.00" timeLoss="29.23" rerouteNo="1" devices="tripinfo_carIn121703:1 routing_carIn121703:1 emissions_carIn121703:1" vType="default_016" speedFactor="1.10" vaporized="">
        <emissions CO_abs="4097.154544" CO2_abs="294473.577347" HC_abs="25.436035" PMx_abs="5.130400" NOx_abs="118.530852" fuel_abs="126.581450" electricity_abs="0"/>
    </tripinfo>
    <tripinfo id="h317c2:1" depart="57707.00" departLane="-32978638#0_1" departPos="5.10" departSpeed="0.00" departDelay="0.10" arrival="57755.00" arrivalLane="-266565295#5_1" arrivalPos="172.76" arrivalSpeed="13.30" duration="48.00" routeLength="370.53" waitingTime="11.00" waitingCount="1" stopTime="0.00" timeLoss="20.30" rerouteNo="1" devices="tripinfo_h317c2:1 routing_h317c2:1 emissions_h317c2:1" vType="default_016" speedFactor="0.98" vaporized="">
        <emissions CO_abs="3174.803960" CO2_abs="144233.629428" HC_abs="17.862246" PMx_abs="2.779224" NOx_abs="60.554510" fuel_abs="62.000324" electricity_abs="0"/>
    </tripinfo>
    <tripinfo id="carIn30817:1" depart="57681.00" departLane="315358244_1" departPos="5.10" departSpeed="0.00" departDelay="0.20" arrival="57757.00" arrivalLane="447569997#1_1" arrivalPos="180.93" arrivalSpeed="6.49" duration="76.00" routeLength="718.04" waitingTime="0.00" waitingCount="0" stopTime="0.00" timeLoss="7.83" rerouteNo="1" devices="tripinfo_carIn30817:1 routing_carIn30817:1 emissions_carIn30817:1" vType="default_016" speedFactor="0.91" vaporized="">
        <emissions CO_abs="2376.104562" CO2_abs="147307.216283" HC_abs="14.209180" PMx_abs="2.238872" NOx_abs="57.943596" fuel_abs="63.321715" electricity_abs="0"/>
    </tripinfo>
    <tripinfo id="carIn27009:1" depart="57673.00" departLane="-447569998#1_1" departPos="5.10" departSpeed="0.00" departDelay="0.50" arrival="57766.00" arrivalLane="-26677539_1" arrivalPos="152.75" arrivalSpeed="7.31" duration="93.00" routeLength="699.63" waitingTime="0.00" waitingCount="0" stopTime="0.00" timeLoss="11.48" rerouteNo="1" devices="tripinfo_carIn27009:1 routing_carIn27009:1 emissions_carIn27009:1" vType="default_015" speedFactor="1.03" vaporized="">
        <emissions CO_abs="3670.839248" CO2_abs="181850.960713" HC_abs="20.885925" PMx_abs="2.886692" NOx_abs="73.305936" fuel_abs="78.171085" electricity_abs="0"/>
    </tripinfo>
    <tripinfo id="h5979c1:5" depart="57669.00" departLane="399835085#1_1" departPos="5.10" departSpeed="0.00" departDelay="0.00" arrival="57767.00" arrivalLane="-315358254#1_1" arrivalPos="137.16" arrivalSpeed="13.55" duration="98.00" routeLength="659.33" waitingTime="13.00" waitingCount="1" stopTime="0.00" timeLoss="26.21" rerouteNo="1" devices="tripinfo_h5979c1:5 routing_h5979c1:5 emissions_h5979c1:5" vType="default_016" speedFactor="1.02" vaporized="">
        <emissions CO_abs="4655.285663" CO2_abs="198895.850923" HC_abs="25.803015" PMx_abs="3.461842" NOx_abs="81.859343" fuel_abs="85.498173" electricity_abs="0"/>
    </tripinfo>
    <tripinfo id="h3154c1:1" depart="57658.00" departLane="24634507_1" departPos="5.10" departSpeed="0.00" departDelay="0.00" arrival="57785.00" arrivalLane="-266565295#5_1" arrivalPos="172.76" arrivalSpeed="14.17" duration="127.00" routeLength="1206.22" waitingTime="24.00" waitingCount="2" stopTime="0.00" timeLoss="47.07" rerouteNo="1" devices="tripinfo_h3154c1:1 routing_h3154c1:1 emissions_h3154c1:1" vType="default_016" speedFactor="1.11" vaporized="">
        <emissions CO_abs="7612.203171" CO2_abs="371738.678082" HC_abs="43.294383" PMx_abs="7.110813" NOx_abs="154.593821" fuel_abs="159.795410" electricity_abs="0"/>
    </tripinfo>
    <tripinfo id="h3326c1:2" depart="57656.00" departLane="22716069#0_1" departPos="5.10" departSpeed="0.00" departDelay="0.00" arrival="57788.00" arrivalLane="24634517#13_1" arrivalPos="111.62" arrivalSpeed="11.47" duration="132.00" routeLength="1312.81" waitingTime="0.00" waitingCount="0" stopTime="0.00" timeLoss="15.98" rerouteNo="1" devices="tripinfo_h3326c1:2 routing_h3326c1:2 emissions_h3326c1:2" vType="default_016" speedFactor="0.84" vaporized="">
        <emissions CO_abs="4229.798209" CO2_abs="291623.763374" HC_abs="25.993413" PMx_abs="4.477674" NOx_abs="115.043425" fuel_abs="125.357376" electricity_abs="0"/>
    </tripinfo>
    <tripinfo id="carIn86816:1" depart="57617.00" departLane="128361102#0_1" departPos="5.10" departSpeed="0.00" departDelay="0.80" arrival="57793.00" arrivalLane="201956811#0_1" arrivalPos="40.40" arrivalSpeed="13.80" duration="176.00" routeLength="2067.33" waitingTime="12.00" waitingCount="1" stopTime="0.00" timeLoss="36.68" rerouteNo="1" devices="tripinfo_carIn86816:1 routing_carIn86816:1 emissions_carIn86816:1" vType="default_016" speedFactor="1.09" vaporized="">
        <emissions CO_abs="7037.067631" CO2_abs="480876.406196" HC_abs="43.175357" PMx_abs="8.440169" NOx_abs="193.929207" fuel_abs="206.708178" electricity_abs="0"/>
    </tripinfo>
    <tripinfo id="carIn107282:1" depart="57749.00" departLane="-447569998#1_1" departPos="5.10" departSpeed="0.00" departDelay="0.00" arrival="57793.00" arrivalLane="315358242#0_1" arrivalPos="165.37" arrivalSpeed="13.63" duration="44.00" routeLength="448.50" waitingTime="0.00" waitingCount="0" stopTime="0.00" timeLoss="4.15" rerouteNo="1" devices="tripinfo_carIn107282:1 routing_carIn107282:1 emissions_carIn107282:1" vType="default_016" speedFactor="1.04" vaporized="">
        <emissions CO_abs="1513.746588" CO2_abs="98673.440933" HC_abs="9.174545" PMx_abs="1.583270" NOx_abs="39.209862" fuel_abs="42.415741" electricity_abs="0"/>
    </tripinfo>
    <tripinfo id="h11737c1:1" depart="57665.00" departLane="272042143_1" departPos="5.10" departSpeed="0.00" departDelay="1.50" arrival="57796.00" arrivalLane="-315358254#1_1" arrivalPos="137.16" arrivalSpeed="15.25" duration="131.00" routeLength="1596.88" waitingTime="10.00" waitingCount="1" stopTime="0.00" timeLoss="25.90" rerouteNo="1" devices="tripinfo_h11737c1:1 routing_h11737c1:1 emissions_h11737c1:1" vType="default_016" speedFactor="1.11" vaporized="">
        <emissions CO_abs="5048.613131" CO2_abs="363272.389363" HC_abs="31.450901" PMx_abs="6.205666" NOx_abs="144.594105" fuel_abs="156.155374" electricity_abs="0"/>
    </tripinfo>
    <tripinfo id="carIn12152:1" depart="57647.00" departLane="24599188#0.94_1" departPos="5.10" departSpeed="0.00" departDelay="0.50" arrival="57799.00" arrivalLane="-315358254#1_1" arrivalPos="137.16" arrivalSpeed="15.13" duration="152.00" routeLength="2034.31" waitingTime="0.00" waitingCount="0" stopTime="0.00" timeLoss="13.01" rerouteNo="1" devices="tripinfo_carIn12152:1 routing_carIn12152:1 emissions_carIn12152:1" vType="default_016" speedFactor="1.15" vaporized="">
        <emissions CO_abs="4409.526100" CO2_abs="391116.930939" HC_abs="29.121591" PMx_abs="6.563105" NOx_abs="154.438916" fuel_abs="168.123896" electricity_abs="0"/>
    </tripinfo>
    <tripinfo id="carIn48184:1" depart="57613.00" departLane="-306240162#1_0" departPos="5.10" departSpeed="0.00" departDelay="0.70" arrival="57806.00" arrivalLane="386687235_1" arrivalPos="80.84" arrivalSpeed="14.05" duration="193.00" routeLength="2257.41" waitingTime="24.00" waitingCount="2" stopTime="0.00" timeLoss="51.09" rerouteNo="1" devices="tripinfo_carIn48184:1 routing_carIn48184:1 emissions_carIn48184:1" vType="default_016" speedFactor="1.05" vaporized="">
        <emissions CO_abs="9365.991422" CO2_abs="553833.357901" HC_abs="55.639178" PMx_abs="10.115230" NOx_abs="224.355620" fuel_abs="238.069906" electricity_abs="0"/>
    </tripinfo>
    <tripinfo id="h645c1:1" depart="57622.00" departLane="266565295#5_1" departPos="5.10" departSpeed="0.00" departDelay="0.40" arrival="57813.00" arrivalLane="-315358244_1" arrivalPos="33.95" arrivalSpeed="15.36" duration="191.00" routeLength="1910.83" waitingTime="42.00" waitingCount="3" stopTime="0.00" timeLoss="69.24" rerouteNo="1" devices="tripinfo_h645c1:1 routing_h645c1:1 emissions_h645c1:1" vType="default_016" speedFactor="1.14" vaporized="">
        <emissions CO_abs="10388.539052" CO2_abs="514312.733262" HC_abs="59.201864" PMx_abs="9.517691" NOx_abs="210.319083" fuel_abs="221.082747" electricity_abs="0"/>
    </tripinfo>
    <tripinfo id="h9563c2:5" depart="57631.00" departLane="315358244_1" departPos="5.10" departSpeed="0.00" departDelay="0.70" arrival="57818.00" arrivalLane="386687235_1" arrivalPos="80.84" arrivalSpeed="15.38" duration="187.00" routeLength="1186.14" waitingTime="86.00" waitingCount="4" stopTime="0.00" timeLoss="112.64" rerouteNo="1" devices="tripinfo_h9563c2:5 routing_h9563c2:5 emissions_h9563c2:5" vType="default_016" speedFactor="1.17" vaporized="">
        <emissions CO_abs="16799.760691" CO2_abs="497980.961343" HC_abs="88.205103" PMx_abs="10.366401" NOx_abs="212.547779" fuel_abs="214.066256" electricity_abs="0"/>
    </tripinfo>
    <tripinfo id="carIn50326:1" depart="57651.00" departLane="128361102#0_1" departPos="5.10" departSpeed="0.00" departDelay="0.30" arrival="57818.00" arrivalLane="18809673#0_1" arrivalPos="473.56" arrivalSpeed="15.29" duration="167.00" routeLength="1591.07" waitingTime="25.00" waitingCount="2" stopTime="0.00" timeLoss="53.87" rerouteNo="1" devices="tripinfo_carIn50326:1 routing_carIn50326:1 emissions_carIn50326:1" vType="default_016" speedFactor="1.15" vaporized="">
        <emissions CO_abs="8199.734431" CO2_abs="431759.767340" HC_abs="47.343798" PMx_abs="7.692755" NOx_abs="175.427794" fuel_abs="185.596424" electricity_abs="0"/>
    </tripinfo>
    <tripinfo id="carIn12365:1" depart="57713.00" departLane="315358244_1" departPos="5.10" departSpeed="0.00" departDelay="0.50" arrival="57818.00" arrivalLane="447569997#1_1" arrivalPos="180.93" arrivalSpeed="9.41" duration="105.00" routeLength="718.04" waitingTime="32.00" waitingCount="2" stopTime="0.00" timeLoss="50.45" rerouteNo="1" devices="tripinfo_carIn12365:1 routing_carIn12365:1 emissions_carIn12365:1" vType="default_016" speedFactor="1.13" vaporized="">
        <emissions CO_abs="7204.879943" CO2_abs="260501.721043" HC_abs="38.859309" PMx_abs="5.141807" NOx_abs="109.954034" fuel_abs="111.980449" electricity_abs="0"/>
    </tripinfo>
    <tripinfo id="carIn129809:1" depart="57729.00" departLane="-447569998#1_1" departPos="5.10" departSpeed="0.00" departDelay="1.00" arrival="57818.00" arrivalLane="-315358244_1" arrivalPos="33.95" arrivalSpeed="12.99" duration="89.00" routeLength="706.49" waitingTime="18.00" waitingCount="1" stopTime="0.00" timeLoss="27.65" rerouteNo="1" devices="tripinfo_carIn129809:1 routing_carIn129809:1 emissions_carIn129809:1" vType="default_015" speedFactor="0.99" vaporized="">
        <emissions CO_abs="4680.805707" CO2_abs="191883.755785" HC_abs="25.762155" PMx_abs="3.364880" NOx_abs="78.212205" fuel_abs="82.484144" electricity_abs="0"/>
    </tripinfo>
    <tripinfo id="h330c1:1" depart="57736.00" departLane="-32978638#0_1" departPos="5.10" departSpeed="0.00" departDelay="0.20" arrival="57823.00" arrivalLane="-266565295#5_1" arrivalPos="172.76" arrivalSpeed="15.62" duration="87.00" routeLength="370.53" waitingTime="51.00" waitingCount="1" stopTime="0.00" timeLoss="63.64" rerouteNo="1" devices="tripinfo_h330c1:1 routing_h330c1:1 emissions_h330c1:1" vType="default_016" speedFactor="1.17" vaporized="">
        <emissions CO_abs="9865.331996" CO2_abs="259793.722921" HC_abs="51.066780" PMx_abs="5.708201" NOx_abs="113.483896" fuel_abs="111.677519" electricity_abs="0"/>
    </tripinfo>
    <tripinfo id="carIn102915:1" depart="57643.00" departLane="128361102#0_1" departPos="5.10" departSpeed="0.00" departDelay="0.40" arrival="57827.00" arrivalLane="201956811#0_1" arrivalPos="40.40" arrivalSpeed="13.98" duration="184.00" routeLength="2067.33" waitingTime="15.00" waitingCount="1" stopTime="0.00" timeLoss="40.10" rerouteNo="1" devices="tripinfo_carIn102915:1 routing_carIn102915:1 emissions_carIn102915:1" vType="default_016" speedFactor="1.05" vaporized="">
        <emissions CO_abs="7833.568488" CO2_abs="506474.851488" HC_abs="47.510490" PMx_abs="8.799005" NOx_abs="203.975072" fuel_abs="217.712349" electricity_abs="0"/>
    </tripinfo>
    <tripinfo id="h17600c1:1" depart="57662.00" departLane="272042143_1" departPos="5.10" departSpeed="0.00" departDelay="0.30" arrival="57827.00" arrivalLane="201238729#3_1" arrivalPos="431.02" arrivalSpeed="14.96" duration="165.00" routeLength="2100.26" waitingTime="17.00" waitingCount="1" stopTime="0.00" timeLoss="35.16" rerouteNo="1" devices="tripinfo_h17600c1:1 routing_h17600c1:1 emissions_h17600c1:1" vType="default_016" speedFactor="1.17" vaporized="">
        <emissions CO_abs="6520.531916" CO2_abs="444411.309429" HC_abs="39.864044" PMx_abs="7.754315" NOx_abs="176.985886" fuel_abs="191.033655" electricity_abs="0"/>
    </tripinfo>
    <tripinfo id="carIn118591:1" depart="57689.00" departLane="315358244_1" departPos="5.10" departSpeed="0.00" departDelay="0.20" arrival="57828.00" arrivalLane="386687235_1" arrivalPos="80.84" arrivalSpeed="12.83" duration="139.00" routeLength="1186.14" waitingTime="18.00" waitingCount="4" stopTime="0.00" timeLoss="50.92" rerouteNo="1" devices="tripinfo_carIn118591:1 routing_carIn118591:1 emissions_carIn118591:1" vType="default_016" speedFactor="0.98" vaporized="">
        <emissions CO_abs="5262.360732" CO2_abs="300863.386704" HC_abs="30.971015" PMx_abs="5.213983" NOx_abs="121.943646" fuel_abs="129.329036" electricity_abs="0"/>
    </tripinfo>
    <tripinfo id="carIn80064:1" depart="57603.00" departLane="128361109#1_1" departPos="5.10" departSpeed="0.00" departDelay="0.40" arrival="57829.00" arrivalLane="-315358254#1_1" arrivalPos="137.16" arrivalSpeed="11.71" duration="226.00" routeLength="1587.97" waitingTime="90.00" waitingCount="4" stopTime="0.00" timeLoss="124.10" rerouteNo="1" devices="tripinfo_carIn80064:1 routing_carIn80064:1 emissions_carIn80064:1" vType="default_016" speedFactor="0.88" vaporized="">
        <emissions CO_abs="18654.200981" CO2_abs="637011.267581" HC_abs="100.012673" PMx_abs="13.181272" NOx_abs="271.143755" fuel_abs="273.828707" electricity_abs="0"/>
    </tripinfo>
    <tripinfo id="carIn81860:1" depart="57712.00" departLane="128361102#0_1" departPos="5.10" departSpeed="0.00" departDelay="0.60" arrival="57831.00" arrivalLane="-24634517#17_1" arrivalPos="6.43" arrivalSpeed="8.47" duration="119.00" routeLength="1229.64" waitingTime="17.00" waitingCount="2" stopTime="0.00" timeLoss="45.98" rerouteNo="1" devices="tripinfo_carIn81860:1 routing_carIn81860:1 emissions_carIn81860:1" vType="default_016" speedFactor="1.24" vaporized="">
        <emissions CO_abs="5894.515370" CO2_abs="338794.596684" HC_abs="34.684059" PMx_abs="6.365056" NOx_abs="139.104787" fuel_abs="145.633467" electricity_abs="0"/>
    </tripinfo>
    <tripinfo id="carIn82220:1" depart="57619.00" departLane="-306240162#1_0" departPos="5.10" departSpeed="0.00" departDelay="3.50" arrival="57834.00" arrivalLane="386687235_1" arrivalPos="80.84" arrivalSpeed="12.04" duration="215.00" routeLength="2257.41" waitingTime="25.00" waitingCount="3" stopTime="0.00" timeLoss="59.73" rerouteNo="1" devices="tripinfo_carIn82220:1 routing_carIn82220:1 emissions_carIn82220:1" vType="default_016" speedFactor="0.96" vaporized="">
        <emissions CO_abs="9448.530359" CO2_abs="564913.180362" HC_abs="56.167644" PMx_abs="9.815475" NOx_abs="226.661558" fuel_abs="242.833227" electricity_abs="0"/>
    </tripinfo>
    <tripinfo id="carIn462:1" depart="57622.00" departLane="-306240162#1_0" departPos="5.10" departSpeed="0.00" departDelay="4.80" arrival="57834.00" arrivalLane="386687235_2" arrivalPos="80.84" arrivalSpeed="14.59" duration="212.00" routeLength="2257.41" waitingTime="24.00" waitingCount="2" stopTime="0.00" timeLoss="73.41" rerouteNo="1" devices="tripinfo_carIn462:1 routing_carIn462:1 emissions_carIn462:1" vType="default_016" speedFactor="1.08" vaporized="">
        <emissions CO_abs="10850.277692" CO2_abs="613325.778043" HC_abs="63.962757" PMx_abs="11.573037" NOx_abs="252.707508" fuel_abs="263.642896" electricity_abs="0"/>
    </tripinfo>
    <tripinfo id="h16072c2:3" depart="57663.00" departLane="315358254#0_1" departPos="5.10" departSpeed="0.00" departDelay="2.50" arrival="57836.00" arrivalLane="386687235_1" arrivalPos="80.84" arrivalSpeed="13.57" duration="173.00" routeLength="1611.92" waitingTime="18.00" waitingCount="4" stopTime="0.00" timeLoss="52.22" rerouteNo="1" devices="tripinfo_h16072c2:3 routing_h16072c2:3 emissions_h16072c2:3" vType="default_016" speedFactor="0.98" vaporized="">
        <emissions CO_abs="6338.051498" CO2_abs="376690.097768" HC_abs="37.672860" PMx_abs="6.461768" NOx_abs="152.224426" fuel_abs="161.923778" electricity_abs="0"/>
    </tripinfo>
    <tripinfo id="h3864c1:3" depart="57678.00" departLane="24693977#1_1" departPos="5.10" departSpeed="0.00" departDelay="0.00" arrival="57840.00" arrivalLane="201956820_1" arrivalPos="48.33" arrivalSpeed="14.28" duration="162.00" routeLength="1574.85" waitingTime="10.00" waitingCount="3" stopTime="0.00" timeLoss="44.77" rerouteNo="1" devices="tripinfo_h3864c1:3 routing_h3864c1:3 emissions_h3864c1:3" vType="default_016" speedFactor="1.11" vaporized="">
        <emissions CO_abs="7665.372610" CO2_abs="485416.668225" HC_abs="46.323936" PMx_abs="8.764985" NOx_abs="199.288097" fuel_abs="208.659780" electricity_abs="0"/>
    </tripinfo>
    <tripinfo id="50R_frequency3.17" depart="57674.00" departLane="-18809673#6_1" departPos="12.10" departSpeed="0.00" departDelay="0.70" arrival="57846.00" arrivalLane="201956811#0_1" arrivalPos="40.40" arrivalSpeed="13.58" duration="172.00" routeLength="1954.47" waitingTime="6.00" waitingCount="1" stopTime="0.00" timeLoss="27.05" rerouteNo="1" devices="tripinfo_50R_frequency3.17 routing_50R_frequency3.17 emissions_50R_frequency3.17" vType="bus" speedFactor="1.00" vaporized="">
        <emissions CO_abs="3156.381044" CO2_abs="1980721.875635" HC_abs="681.798814" PMx_abs="339.496171" NOx_abs="15340.253206" fuel_abs="844.774318" electricity_abs="0"/>
    </tripinfo>
    <tripinfo id="carIn107084:1" depart="57601.00" departLane="124812856#0_1" departPos="5.10" departSpeed="0.00" departDelay="0.70" arrival="57849.00" arrivalLane="-128361102#1_1" arrivalPos="274.68" arrivalSpeed="9.99" duration="248.00" routeLength="2232.46" waitingTime="13.00" waitingCount="1" stopTime="0.00" timeLoss="37.36" rerouteNo="1" devices="tripinfo_carIn107084:1 routing_carIn107084:1 emissions_carIn107084:1" vType="default_016" speedFactor="0.77" vaporized="">
        <emissions CO_abs="7968.954519" CO2_abs="462852.764616" HC_abs="46.910013" PMx_abs="7.010052" NOx_abs="182.358839" fuel_abs="198.963048" electricity_abs="0"/>
    </tripinfo>
    <tripinfo id="randUni15030:1" depart="57735.00" departLane="386687232#0_1" departPos="5.10" departSpeed="0.00" departDelay="0.10" arrival="57853.00" arrivalLane="26677539_1" arrivalPos="151.98" arrivalSpeed="5.59" duration="118.00" routeLength="919.89" waitingTime="1.00" waitingCount="1" stopTime="0.00" timeLoss="16.44" rerouteNo="1" devices="tripinfo_randUni15030:1 routing_randUni15030:1 emissions_randUni15030:1" vType="random_016" speedFactor="0.82" vaporized="">
        <emissions CO_abs="4493.708624" CO2_abs="219085.541656" HC_abs="25.479694" PMx_abs="3.421483" NOx_abs="87.561887" fuel_abs="94.177059" electricity_abs="0"/>
    </tripinfo>
    <tripinfo id="carIn82278:1" depart="57702.00" departLane="-306240162#1_0" departPos="5.10" departSpeed="0.00" departDelay="0.70" arrival="57855.00" arrivalLane="399835085#1_1" arrivalPos="212.23" arrivalSpeed="6.59" duration="153.00" routeLength="1093.26" waitingTime="28.00" waitingCount="3" stopTime="0.00" timeLoss="55.52" rerouteNo="1" devices="tripinfo_carIn82278:1 routing_carIn82278:1 emissions_carIn82278:1" vType="default_016" speedFactor="0.80" vaporized="">
        <emissions CO_abs="8594.694589" CO2_abs="352427.565908" HC_abs="47.289077" PMx_abs="6.646116" NOx_abs="146.981624" fuel_abs="151.495570" electricity_abs="0"/>
    </tripinfo>
    <tripinfo id="carIn12858:1" depart="57661.00" departLane="128361109#1_1" departPos="5.10" departSpeed="0.00" departDelay="0.90" arrival="57857.00" arrivalLane="399835085#1_1" arrivalPos="212.23" arrivalSpeed="7.79" duration="196.00" routeLength="1738.12" waitingTime="37.00" waitingCount="2" stopTime="0.00" timeLoss="84.86" rerouteNo="1" devices="tripinfo_carIn12858:1 routing_carIn12858:1 emissions_carIn12858:1" vType="default_016" speedFactor="1.04" vaporized="">
        <emissions CO_abs="13182.636911" CO2_abs="583938.549136" HC_abs="73.897104" PMx_abs="11.573968" NOx_abs="244.784638" fuel_abs="251.012095" electricity_abs="0"/>
    </tripinfo>
    <tripinfo id="carIn77943:1" depart="57608.00" departLane="124812856#0_1" departPos="5.10" departSpeed="0.00" departDelay="2.50" arrival="57858.00" arrivalLane="-128361102#1_1" arrivalPos="274.68" arrivalSpeed="13.00" duration="250.00" routeLength="2250.49" waitingTime="22.00" waitingCount="3" stopTime="0.00" timeLoss="75.47" rerouteNo="1" devices="tripinfo_carIn77943:1 routing_carIn77943:1 emissions_carIn77943:1" vType="default_016" speedFactor="0.95" vaporized="">
        <emissions CO_abs="10126.889501" CO2_abs="590859.757219" HC_abs="59.957062" PMx_abs="10.372320" NOx_abs="241.539300" fuel_abs="253.986287" electricity_abs="0"/>
    </tripinfo>