<?xml version="1.0" encoding="UTF-8"?>

<!-- generated on 2021-10-26 20:09:22 by Eclipse SUMO sumo Version 1.10.0
<configuration xmlns:xsi="http://www.w3.org/2001/XMLSchema-instance" xsi:noNamespaceSchemaLocation="http://sumo.dlr.de/xsd/sumoConfiguration.xsd">

    <input>
        <net-file value="/Users/behradkoohy/sumo-scratchpad/RESCO/environments/ingolstadt21/ingolstadt21.net.xml"/>
        <route-files value="/Users/behradkoohy/sumo-scratchpad/RESCO/environments/ingolstadt21/ingolstadt21.rou.xml"/>
    </input>

    <output>
        <tripinfo-output value="/Users/behradkoohy/sumo-scratchpad/RESCO/logs/MPLight-tr0-ingolstadt21-21-mplight-pressure/tripinfo_71.xml"/>
        <tripinfo-output.write-unfinished value="true"/>
    </output>

    <time>
        <begin value="57600"/>
        <end value="61200"/>
    </time>

    <processing>
        <time-to-teleport value="-1"/>
    </processing>

    <report>
        <no-warnings value="true"/>
        <no-step-log value="true"/>
    </report>

    <emissions>
        <device.emissions.probability value="1"/>
    </emissions>

    <traci_server>
        <remote-port value="64105"/>
    </traci_server>

    <random_number>
        <random value="true"/>
    </random_number>

</configuration>
-->

<tripinfos xmlns:xsi="http://www.w3.org/2001/XMLSchema-instance" xsi:noNamespaceSchemaLocation="http://sumo.dlr.de/xsd/tripinfo_file.xsd">
    <tripinfo id="h15454c2:3" depart="57612.00" departLane="24608844_1" departPos="5.10" departSpeed="0.00" departDelay="0.50" arrival="57661.00" arrivalLane="32978638#0_1" arrivalPos="49.29" arrivalSpeed="11.45" duration="49.00" routeLength="354.79" waitingTime="0.00" waitingCount="0" stopTime="0.00" timeLoss="10.89" rerouteNo="1" devices="tripinfo_h15454c2:3 routing_h15454c2:3 emissions_h15454c2:3" vType="default_016" speedFactor="0.90" vaporized="">
        <emissions CO_abs="2343.420209" CO2_abs="109749.017628" HC_abs="13.220766" PMx_abs="1.923201" NOx_abs="45.285706" fuel_abs="47.176939" electricity_abs="0"/>
    </tripinfo>
    <tripinfo id="carIn60260:1" depart="57606.00" departLane="315358254#0_1" departPos="5.10" departSpeed="0.00" departDelay="0.90" arrival="57689.00" arrivalLane="399835085#1_1" arrivalPos="212.23" arrivalSpeed="6.28" duration="83.00" routeLength="430.98" waitingTime="21.00" waitingCount="1" stopTime="0.00" timeLoss="30.45" rerouteNo="1" devices="tripinfo_carIn60260:1 routing_carIn60260:1 emissions_carIn60260:1" vType="default_016" speedFactor="0.87" vaporized="">
        <emissions CO_abs="5452.078432" CO2_abs="166567.403189" HC_abs="28.668948" PMx_abs="3.082814" NOx_abs="69.849731" fuel_abs="71.602373" electricity_abs="0"/>
    </tripinfo>
    <tripinfo id="carIn53971:1" depart="57640.00" departLane="272042143_1" departPos="5.10" departSpeed="0.00" departDelay="0.80" arrival="57697.00" arrivalLane="24634414#1_1" arrivalPos="162.19" arrivalSpeed="7.70" duration="57.00" routeLength="493.04" waitingTime="0.00" waitingCount="0" stopTime="0.00" timeLoss="8.35" rerouteNo="1" devices="tripinfo_carIn53971:1 routing_carIn53971:1 emissions_carIn53971:1" vType="default_016" speedFactor="0.95" vaporized="">
        <emissions CO_abs="2353.126333" CO2_abs="130214.659686" HC_abs="13.736505" PMx_abs="2.168044" NOx_abs="52.670332" fuel_abs="55.974185" electricity_abs="0"/>
    </tripinfo>
    <tripinfo id="carIn22761:1" depart="57616.00" departLane="-306240162#1_0" departPos="5.10" departSpeed="0.00" departDelay="2.10" arrival="57718.00" arrivalLane="399835085#1_1" arrivalPos="212.23" arrivalSpeed="9.14" duration="102.00" routeLength="1093.26" waitingTime="12.00" waitingCount="1" stopTime="0.00" timeLoss="33.37" rerouteNo="1" devices="tripinfo_carIn22761:1 routing_carIn22761:1 emissions_carIn22761:1" vType="default_016" speedFactor="1.14" vaporized="">
        <emissions CO_abs="6254.312528" CO2_abs="350429.294255" HC_abs="36.896541" PMx_abs="7.114685" NOx_abs="147.588671" fuel_abs="150.634066" electricity_abs="0"/>
    </tripinfo>
    <tripinfo id="h7800c1:5" depart="57696.00" departLane="-447569998#1_1" departPos="5.10" departSpeed="0.00" departDelay="0.00" arrival="57718.00" arrivalLane="-447569998#1_2" arrivalPos="180.76" arrivalSpeed="8.66" duration="22.00" routeLength="175.66" waitingTime="0.00" waitingCount="0" stopTime="0.00" timeLoss="3.70" rerouteNo="1" devices="tripinfo_h7800c1:5 routing_h7800c1:5 emissions_h7800c1:5" vType="default_016" speedFactor="1.16" vaporized="">
        <emissions CO_abs="1129.361866" CO2_abs="54458.294014" HC_abs="6.395320" PMx_abs="0.885223" NOx_abs="22.041549" fuel_abs="23.409630" electricity_abs="0"/>
    </tripinfo>
    <tripinfo id="h3688c1:1" depart="57625.00" departLane="201201950#1_1" departPos="5.10" departSpeed="0.00" departDelay="0.00" arrival="57733.00" arrivalLane="32978638#0_1" arrivalPos="49.29" arrivalSpeed="11.75" duration="108.00" routeLength="1089.75" waitingTime="5.00" waitingCount="1" stopTime="0.00" timeLoss="19.54" rerouteNo="1" devices="tripinfo_h3688c1:1 routing_h3688c1:1 emissions_h3688c1:1" vType="default_016" speedFactor="0.90" vaporized="">
        <emissions CO_abs="3833.791815" CO2_abs="245182.795180" HC_abs="23.167615" PMx_abs="4.047318" NOx_abs="98.311556" fuel_abs="105.394095" electricity_abs="0"/>
    </tripinfo>
    <tripinfo id="h4538c1:1" depart="57701.00" departLane="-10427692#1_1" departPos="5.10" departSpeed="0.00" departDelay="0.00" arrival="57748.00" arrivalLane="-128361102#1_1" arrivalPos="274.68" arrivalSpeed="10.68" duration="47.00" routeLength="440.74" waitingTime="0.00" waitingCount="0" stopTime="0.00" timeLoss="7.27" rerouteNo="1" devices="tripinfo_h4538c1:1 routing_h4538c1:1 emissions_h4538c1:1" vType="default_016" speedFactor="0.80" vaporized="">
        <emissions CO_abs="1949.654493" CO2_abs="117461.530578" HC_abs="11.604090" PMx_abs="1.934270" NOx_abs="47.402142" fuel_abs="50.491996" electricity_abs="0"/>
    </tripinfo>
    <tripinfo id="h7181c1:1" depart="57660.00" departLane="315358254#0_1" departPos="5.10" departSpeed="0.00" departDelay="0.10" arrival="57751.00" arrivalLane="306240162#0_0" arrivalPos="220.43" arrivalSpeed="14.58" duration="91.00" routeLength="932.35" waitingTime="16.00" waitingCount="2" stopTime="0.00" timeLoss="35.15" rerouteNo="1" devices="tripinfo_h7181c1:1 routing_h7181c1:1 emissions_h7181c1:1" vType="default_016" speedFactor="0.92" vaporized="">
        <emissions CO_abs="5520.055601" CO2_abs="287387.156161" HC_abs="31.841553" PMx_abs="5.534341" NOx_abs="118.808972" fuel_abs="123.535835" electricity_abs="0"/>
    </tripinfo>
    <tripinfo id="h3568c1:3" depart="57656.00" departLane="266565295#5_1" departPos="5.10" departSpeed="0.00" departDelay="0.80" arrival="57757.00" arrivalLane="-24634415_1" arrivalPos="62.03" arrivalSpeed="12.82" duration="101.00" routeLength="807.40" waitingTime="16.00" waitingCount="1" stopTime="0.00" timeLoss="34.87" rerouteNo="1" devices="tripinfo_h3568c1:3 routing_h3568c1:3 emissions_h3568c1:3" vType="default_016" speedFactor="0.97" vaporized="">
        <emissions CO_abs="6333.363180" CO2_abs="269975.409372" HC_abs="35.167433" PMx_abs="5.096924" NOx_abs="112.879996" fuel_abs="116.052205" electricity_abs="0"/>
    </tripinfo>
    <tripinfo id="h317c2:1" depart="57707.00" departLane="-32978638#0_1" departPos="5.10" departSpeed="0.00" departDelay="0.10" arrival="57757.00" arrivalLane="-266565295#5_1" arrivalPos="172.76" arrivalSpeed="12.00" duration="50.00" routeLength="370.53" waitingTime="10.00" waitingCount="1" stopTime="0.00" timeLoss="20.19" rerouteNo="1" devices="tripinfo_h317c2:1 routing_h317c2:1 emissions_h317c2:1" vType="default_016" speedFactor="0.93" vaporized="">
        <emissions CO_abs="2723.018764" CO2_abs="125740.897665" HC_abs="15.352059" PMx_abs="2.338502" NOx_abs="52.338184" fuel_abs="54.051112" electricity_abs="0"/>
    </tripinfo>
    <tripinfo id="carIn121703:1" depart="57647.00" departLane="386687232#0_1" departPos="5.10" departSpeed="0.00" departDelay="0.30" arrival="57759.00" arrivalLane="-315358244_1" arrivalPos="33.95" arrivalSpeed="11.66" duration="112.00" routeLength="1157.39" waitingTime="7.00" waitingCount="1" stopTime="0.00" timeLoss="19.98" rerouteNo="1" devices="tripinfo_carIn121703:1 routing_carIn121703:1 emissions_carIn121703:1" vType="default_016" speedFactor="0.92" vaporized="">
        <emissions CO_abs="3485.700056" CO2_abs="245312.801567" HC_abs="21.570817" PMx_abs="3.887811" NOx_abs="96.942716" fuel_abs="105.449966" electricity_abs="0"/>
    </tripinfo>
    <tripinfo id="h3326c1:2" depart="57656.00" departLane="22716069#0_1" departPos="5.10" departSpeed="0.00" departDelay="0.00" arrival="57768.00" arrivalLane="24634517#13_1" arrivalPos="111.62" arrivalSpeed="12.95" duration="112.00" routeLength="1312.81" waitingTime="0.00" waitingCount="0" stopTime="0.00" timeLoss="15.02" rerouteNo="1" devices="tripinfo_h3326c1:2 routing_h3326c1:2 emissions_h3326c1:2" vType="default_016" speedFactor="1.00" vaporized="">
        <emissions CO_abs="4079.813172" CO2_abs="303038.312702" HC_abs="25.689710" PMx_abs="5.208033" NOx_abs="122.258018" fuel_abs="130.263004" electricity_abs="0"/>
    </tripinfo>
    <tripinfo id="h5979c1:5" depart="57669.00" departLane="399835085#1_1" departPos="5.10" departSpeed="0.00" departDelay="0.00" arrival="57775.00" arrivalLane="-315358254#1_1" arrivalPos="137.16" arrivalSpeed="10.19" duration="106.00" routeLength="659.33" waitingTime="0.00" waitingCount="0" stopTime="0.00" timeLoss="12.65" rerouteNo="1" devices="tripinfo_h5979c1:5 routing_h5979c1:5 emissions_h5979c1:5" vType="default_016" speedFactor="0.79" vaporized="">
        <emissions CO_abs="4707.945607" CO2_abs="186669.515403" HC_abs="25.685274" PMx_abs="2.956579" NOx_abs="75.444008" fuel_abs="80.243195" electricity_abs="0"/>
    </tripinfo>
    <tripinfo id="h3154c1:1" depart="57658.00" departLane="24634507_1" departPos="5.10" departSpeed="0.00" departDelay="0.00" arrival="57777.00" arrivalLane="-266565295#5_1" arrivalPos="172.76" arrivalSpeed="13.91" duration="119.00" routeLength="1206.22" waitingTime="10.00" waitingCount="1" stopTime="0.00" timeLoss="30.79" rerouteNo="1" devices="tripinfo_h3154c1:1 routing_h3154c1:1 emissions_h3154c1:1" vType="default_016" speedFactor="1.01" vaporized="">
        <emissions CO_abs="5200.251076" CO2_abs="322500.390078" HC_abs="31.260267" PMx_abs="5.818848" NOx_abs="132.176956" fuel_abs="138.629187" electricity_abs="0"/>
    </tripinfo>
    <tripinfo id="carIn27009:1" depart="57673.00" departLane="-447569998#1_1" departPos="5.10" departSpeed="0.00" departDelay="0.50" arrival="57777.00" arrivalLane="-26677539_1" arrivalPos="152.75" arrivalSpeed="6.53" duration="104.00" routeLength="699.63" waitingTime="0.00" waitingCount="0" stopTime="0.00" timeLoss="12.46" rerouteNo="1" devices="tripinfo_carIn27009:1 routing_carIn27009:1 emissions_carIn27009:1" vType="default_015" speedFactor="0.91" vaporized="">
        <emissions CO_abs="4233.064179" CO2_abs="181209.630270" HC_abs="23.398101" PMx_abs="2.814198" NOx_abs="72.882174" fuel_abs="77.895963" electricity_abs="0"/>
    </tripinfo>
    <tripinfo id="carIn30817:1" depart="57681.00" departLane="315358244_1" departPos="5.10" departSpeed="0.00" departDelay="0.20" arrival="57783.00" arrivalLane="447569997#1_1" arrivalPos="180.93" arrivalSpeed="7.26" duration="102.00" routeLength="718.04" waitingTime="19.00" waitingCount="2" stopTime="0.00" timeLoss="34.81" rerouteNo="1" devices="tripinfo_carIn30817:1 routing_carIn30817:1 emissions_carIn30817:1" vType="default_016" speedFactor="0.91" vaporized="">
        <emissions CO_abs="4970.790679" CO2_abs="203879.215993" HC_abs="27.371104" PMx_abs="3.634705" NOx_abs="84.101337" fuel_abs="87.640419" electricity_abs="0"/>
    </tripinfo>
    <tripinfo id="carIn86816:1" depart="57617.00" departLane="128361102#0_1" departPos="5.10" departSpeed="0.00" departDelay="0.80" arrival="57791.00" arrivalLane="201956811#0_1" arrivalPos="40.40" arrivalSpeed="14.25" duration="174.00" routeLength="2067.33" waitingTime="8.00" waitingCount="1" stopTime="0.00" timeLoss="28.76" rerouteNo="1" devices="tripinfo_carIn86816:1 routing_carIn86816:1 emissions_carIn86816:1" vType="default_016" speedFactor="1.05" vaporized="">
        <emissions CO_abs="5431.597568" CO2_abs="438428.850214" HC_abs="34.877138" PMx_abs="7.184198" NOx_abs="173.106645" fuel_abs="188.461782" electricity_abs="0"/>
    </tripinfo>
    <tripinfo id="h12244c1:3" depart="57612.00" departLane="315358244_1" departPos="5.10" departSpeed="0.00" departDelay="0.40" arrival="57793.00" arrivalLane="386687235_1" arrivalPos="80.84" arrivalSpeed="13.51" duration="181.00" routeLength="1186.14" waitingTime="67.00" waitingCount="3" stopTime="0.00" timeLoss="93.97" rerouteNo="1" devices="tripinfo_h12244c1:3 routing_h12244c1:3 emissions_h12244c1:3" vType="default_016" speedFactor="1.00" vaporized="">
        <emissions CO_abs="13888.889388" CO2_abs="458100.876594" HC_abs="73.978222" PMx_abs="9.047987" NOx_abs="193.285450" fuel_abs="196.922385" electricity_abs="0"/>
    </tripinfo>
    <tripinfo id="h11737c1:1" depart="57665.00" departLane="272042143_1" departPos="5.10" departSpeed="0.00" departDelay="1.50" arrival="57796.00" arrivalLane="-315358254#1_1" arrivalPos="137.16" arrivalSpeed="15.98" duration="131.00" routeLength="1596.88" waitingTime="16.00" waitingCount="1" stopTime="0.00" timeLoss="33.98" rerouteNo="1" devices="tripinfo_h11737c1:1 routing_h11737c1:1 emissions_h11737c1:1" vType="default_016" speedFactor="1.21" vaporized="">
        <emissions CO_abs="6525.197760" CO2_abs="392809.856585" HC_abs="38.759506" PMx_abs="7.150637" NOx_abs="158.800710" fuel_abs="168.852527" electricity_abs="0"/>
    </tripinfo>
    <tripinfo id="S5R_frequency1.2" depart="57612.00" departLane="315358250#0_1" departPos="12.10" departSpeed="0.00" departDelay="0.40" arrival="57798.00" arrivalLane="386687235_1" arrivalPos="80.84" arrivalSpeed="13.42" duration="186.00" routeLength="1115.62" waitingTime="66.00" waitingCount="3" stopTime="0.00" timeLoss="104.38" rerouteNo="1" devices="tripinfo_S5R_frequency1.2 routing_S5R_frequency1.2 emissions_S5R_frequency1.2" vType="bus" speedFactor="1.00" vaporized="">
        <emissions CO_abs="3565.389860" CO2_abs="1799143.791389" HC_abs="776.677473" PMx_abs="372.314038" NOx_abs="15140.104976" fuel_abs="767.168037" electricity_abs="0"/>
    </tripinfo>
    <tripinfo id="carIn107282:1" depart="57749.00" departLane="-447569998#1_1" departPos="5.10" departSpeed="0.00" departDelay="0.00" arrival="57799.00" arrivalLane="315358242#0_1" arrivalPos="165.37" arrivalSpeed="12.86" duration="50.00" routeLength="448.50" waitingTime="0.00" waitingCount="0" stopTime="0.00" timeLoss="5.20" rerouteNo="1" devices="tripinfo_carIn107282:1 routing_carIn107282:1 emissions_carIn107282:1" vType="default_016" speedFactor="0.94" vaporized="">
        <emissions CO_abs="1976.695518" CO2_abs="109720.776455" HC_abs="11.532158" PMx_abs="1.750382" NOx_abs="43.897443" fuel_abs="47.164777" electricity_abs="0"/>
    </tripinfo>
    <tripinfo id="h330c1:1" depart="57736.00" departLane="-32978638#0_1" departPos="5.10" departSpeed="0.00" departDelay="0.20" arrival="57805.00" arrivalLane="-266565295#5_1" arrivalPos="172.76" arrivalSpeed="13.13" duration="69.00" routeLength="370.53" waitingTime="33.00" waitingCount="1" stopTime="0.00" timeLoss="41.29" rerouteNo="1" devices="tripinfo_h330c1:1 routing_h330c1:1 emissions_h330c1:1" vType="default_016" speedFactor="1.00" vaporized="">
        <emissions CO_abs="6649.474327" CO2_abs="195185.181883" HC_abs="34.867614" PMx_abs="4.050480" NOx_abs="83.813755" fuel_abs="83.903949" electricity_abs="0"/>
    </tripinfo>
    <tripinfo id="carIn12365:1" depart="57713.00" departLane="315358244_1" departPos="5.10" departSpeed="0.00" departDelay="0.50" arrival="57813.00" arrivalLane="447569997#1_1" arrivalPos="180.93" arrivalSpeed="7.18" duration="100.00" routeLength="718.04" waitingTime="15.00" waitingCount="2" stopTime="0.00" timeLoss="33.67" rerouteNo="1" devices="tripinfo_carIn12365:1 routing_carIn12365:1 emissions_carIn12365:1" vType="default_016" speedFactor="0.93" vaporized="">
        <emissions CO_abs="4081.067871" CO2_abs="208924.836567" HC_abs="23.436205" PMx_abs="3.548620" NOx_abs="84.898847" fuel_abs="89.808769" electricity_abs="0"/>
    </tripinfo>
    <tripinfo id="carIn129809:1" depart="57729.00" departLane="-447569998#1_1" departPos="5.10" departSpeed="0.00" departDelay="1.00" arrival="57813.00" arrivalLane="-315358244_1" arrivalPos="33.95" arrivalSpeed="13.61" duration="84.00" routeLength="706.49" waitingTime="11.00" waitingCount="2" stopTime="0.00" timeLoss="26.59" rerouteNo="1" devices="tripinfo_carIn129809:1 routing_carIn129809:1 emissions_carIn129809:1" vType="default_015" speedFactor="1.05" vaporized="">
        <emissions CO_abs="3959.062061" CO2_abs="208438.409421" HC_abs="22.901542" PMx_abs="3.662983" NOx_abs="85.116800" fuel_abs="89.599429" electricity_abs="0"/>
    </tripinfo>
    <tripinfo id="carIn107084:1" depart="57601.00" departLane="124812856#0_1" departPos="5.10" departSpeed="0.00" departDelay="0.70" arrival="57817.00" arrivalLane="-128361102#1_1" arrivalPos="274.68" arrivalSpeed="13.04" duration="216.00" routeLength="2250.49" waitingTime="16.00" waitingCount="2" stopTime="0.00" timeLoss="44.51" rerouteNo="1" devices="tripinfo_carIn107084:1 routing_carIn107084:1 emissions_carIn107084:1" vType="default_016" speedFactor="0.96" vaporized="">
        <emissions CO_abs="7871.424905" CO2_abs="522489.759734" HC_abs="48.006311" PMx_abs="8.562931" NOx_abs="207.896311" fuel_abs="224.597022" electricity_abs="0"/>
    </tripinfo>
    <tripinfo id="h9563c2:5" depart="57631.00" departLane="315358244_1" departPos="5.10" departSpeed="0.00" departDelay="0.70" arrival="57818.00" arrivalLane="386687235_1" arrivalPos="80.84" arrivalSpeed="12.31" duration="187.00" routeLength="1186.14" waitingTime="72.00" waitingCount="3" stopTime="0.00" timeLoss="93.92" rerouteNo="1" devices="tripinfo_h9563c2:5 routing_h9563c2:5 emissions_h9563c2:5" vType="default_016" speedFactor="0.93" vaporized="">
        <emissions CO_abs="14684.764578" CO2_abs="452516.846732" HC_abs="77.451497" PMx_abs="8.940079" NOx_abs="191.331709" fuel_abs="194.522781" electricity_abs="0"/>
    </tripinfo>
    <tripinfo id="carIn77943:1" depart="57608.00" departLane="124812856#0_1" departPos="5.10" departSpeed="0.00" departDelay="2.50" arrival="57819.00" arrivalLane="-128361102#1_1" arrivalPos="274.68" arrivalSpeed="13.36" duration="211.00" routeLength="2250.49" waitingTime="11.00" waitingCount="2" stopTime="0.00" timeLoss="39.38" rerouteNo="1" devices="tripinfo_carIn77943:1 routing_carIn77943:1 emissions_carIn77943:1" vType="default_016" speedFactor="0.96" vaporized="">
        <emissions CO_abs="6687.887612" CO2_abs="484377.776493" HC_abs="41.748933" PMx_abs="7.970700" NOx_abs="193.119661" fuel_abs="208.213646" electricity_abs="0"/>
    </tripinfo>
    <tripinfo id="h15382c1:3" depart="57626.00" departLane="124812856#0_1" departPos="5.10" departSpeed="0.00" departDelay="3.80" arrival="57820.00" arrivalLane="-128361102#1_1" arrivalPos="274.68" arrivalSpeed="15.43" duration="194.00" routeLength="2232.46" waitingTime="4.00" waitingCount="2" stopTime="0.00" timeLoss="58.02" rerouteNo="1" devices="tripinfo_h15382c1:3 routing_h15382c1:3 emissions_h15382c1:3" vType="default_016" speedFactor="1.20" vaporized="">
        <emissions CO_abs="7812.063964" CO2_abs="566218.768698" HC_abs="48.880510" PMx_abs="10.015269" NOx_abs="230.093062" fuel_abs="243.392588" electricity_abs="0"/>
    </tripinfo>
    <tripinfo id="carIn50326:1" depart="57651.00" departLane="128361102#0_1" departPos="5.10" departSpeed="0.00" departDelay="0.30" arrival="57821.00" arrivalLane="18809673#0_1" arrivalPos="473.56" arrivalSpeed="13.48" duration="170.00" routeLength="1591.07" waitingTime="21.00" waitingCount="2" stopTime="0.00" timeLoss="46.18" rerouteNo="1" devices="tripinfo_carIn50326:1 routing_carIn50326:1 emissions_carIn50326:1" vType="default_016" speedFactor="1.05" vaporized="">
        <emissions CO_abs="7316.734434" CO2_abs="392759.211022" HC_abs="42.429607" PMx_abs="6.726284" NOx_abs="158.329740" fuel_abs="168.831883" electricity_abs="0"/>
    </tripinfo>
    <tripinfo id="h16072c2:3" depart="57663.00" departLane="315358254#0_1" departPos="5.10" departSpeed="0.00" departDelay="2.50" arrival="57822.00" arrivalLane="386687235_1" arrivalPos="80.84" arrivalSpeed="15.96" duration="159.00" routeLength="1611.92" waitingTime="27.00" waitingCount="3" stopTime="0.00" timeLoss="57.67" rerouteNo="1" devices="tripinfo_h16072c2:3 routing_h16072c2:3 emissions_h16072c2:3" vType="default_016" speedFactor="1.16" vaporized="">
        <emissions CO_abs="7732.273513" CO2_abs="436936.395434" HC_abs="45.456542" PMx_abs="8.084839" NOx_abs="178.885444" fuel_abs="187.820777" electricity_abs="0"/>
    </tripinfo>
    <tripinfo id="carIn80064:1" depart="57603.00" departLane="128361109#1_1" departPos="5.10" departSpeed="0.00" departDelay="0.40" arrival="57825.00" arrivalLane="-315358254#1_1" arrivalPos="137.16" arrivalSpeed="10.75" duration="222.00" routeLength="1587.97" waitingTime="78.00" waitingCount="2" stopTime="0.00" timeLoss="105.85" rerouteNo="1" devices="tripinfo_carIn80064:1 routing_carIn80064:1 emissions_carIn80064:1" vType="default_016" speedFactor="0.78" vaporized="">
        <emissions CO_abs="17730.620143" CO2_abs="607616.167797" HC_abs="95.013914" PMx_abs="12.063034" NOx_abs="255.943393" fuel_abs="261.193453" electricity_abs="0"/>
    </tripinfo>
    <tripinfo id="carIn48184:1" depart="57613.00" departLane="-306240162#1_0" departPos="5.10" departSpeed="0.00" departDelay="0.70" arrival="57825.00" arrivalLane="386687235_1" arrivalPos="80.84" arrivalSpeed="14.21" duration="212.00" routeLength="2257.41" waitingTime="31.00" waitingCount="3" stopTime="0.00" timeLoss="70.27" rerouteNo="1" devices="tripinfo_carIn48184:1 routing_carIn48184:1 emissions_carIn48184:1" vType="default_016" speedFactor="1.05" vaporized="">
        <emissions CO_abs="10009.532377" CO2_abs="609281.398264" HC_abs="59.846146" PMx_abs="11.264300" NOx_abs="248.582153" fuel_abs="261.904149" electricity_abs="0"/>
    </tripinfo>
    <tripinfo id="carIn82278:1" depart="57702.00" departLane="-306240162#1_0" departPos="5.10" departSpeed="0.00" departDelay="0.70" arrival="57829.00" arrivalLane="399835085#1_1" arrivalPos="212.23" arrivalSpeed="8.71" duration="127.00" routeLength="1093.26" waitingTime="23.00" waitingCount="2" stopTime="0.00" timeLoss="59.40" rerouteNo="1" devices="tripinfo_carIn82278:1 routing_carIn82278:1 emissions_carIn82278:1" vType="default_016" speedFactor="1.16" vaporized="">
        <emissions CO_abs="8405.508101" CO2_abs="393931.792458" HC_abs="47.682487" PMx_abs="7.997519" NOx_abs="166.725076" fuel_abs="169.334959" electricity_abs="0"/>
    </tripinfo>
    <tripinfo id="carIn81860:1" depart="57712.00" departLane="128361102#0_1" departPos="5.10" departSpeed="0.00" departDelay="0.60" arrival="57830.00" arrivalLane="-24634517#17_1" arrivalPos="6.43" arrivalSpeed="7.42" duration="118.00" routeLength="1229.64" waitingTime="6.00" waitingCount="1" stopTime="0.00" timeLoss="24.29" rerouteNo="1" devices="tripinfo_carIn81860:1 routing_carIn81860:1 emissions_carIn81860:1" vType="default_016" speedFactor="0.96" vaporized="">
        <emissions CO_abs="4500.972898" CO2_abs="295948.978167" HC_abs="27.409670" PMx_abs="4.934847" NOx_abs="118.441456" fuel_abs="127.216281" electricity_abs="0"/>
    </tripinfo>
    <tripinfo id="carIn81046:1" depart="57611.00" departLane="124812856#0_1" departPos="5.10" departSpeed="0.00" departDelay="2.50" arrival="57834.00" arrivalLane="-128361102#1_1" arrivalPos="274.68" arrivalSpeed="14.15" duration="223.00" routeLength="2250.49" waitingTime="29.00" waitingCount="3" stopTime="0.00" timeLoss="69.16" rerouteNo="1" devices="tripinfo_carIn81046:1 routing_carIn81046:1 emissions_carIn81046:1" vType="default_016" speedFactor="1.07" vaporized="">
        <emissions CO_abs="9420.057096" CO2_abs="565278.438215" HC_abs="56.121166" PMx_abs="10.051239" NOx_abs="229.745566" fuel_abs="242.989715" electricity_abs="0"/>
    </tripinfo>
    <tripinfo id="carIn77438:1" depart="57614.00" departLane="124812856#0_1" departPos="5.10" departSpeed="0.00" departDelay="1.10" arrival="57836.00" arrivalLane="-128361102#1_1" arrivalPos="274.68" arrivalSpeed="13.95" duration="222.00" routeLength="2250.49" waitingTime="26.00" waitingCount="3" stopTime="0.00" timeLoss="70.39" rerouteNo="1" devices="tripinfo_carIn77438:1 routing_carIn77438:1 emissions_carIn77438:1" vType="default_016" speedFactor="1.08" vaporized="">
        <emissions CO_abs="9070.446704" CO2_abs="564849.228622" HC_abs="54.442420" PMx_abs="10.008794" NOx_abs="229.255674" fuel_abs="242.804970" electricity_abs="0"/>
    </tripinfo>
    <tripinfo id="carIn102915:1" depart="57643.00" departLane="128361102#0_1" departPos="5.10" departSpeed="0.00" departDelay="0.40" arrival="57837.00" arrivalLane="201956811#0_1" arrivalPos="40.40" arrivalSpeed="12.99" duration="194.00" routeLength="2067.33" waitingTime="13.00" waitingCount="1" stopTime="0.00" timeLoss="41.84" rerouteNo="1" devices="tripinfo_carIn102915:1 routing_carIn102915:1 emissions_carIn102915:1" vType="default_016" speedFactor="1.00" vaporized="">
        <emissions CO_abs="7693.058651" CO2_abs="507227.868696" HC_abs="46.855888" PMx_abs="8.470521" NOx_abs="202.384492" fuel_abs="218.036405" electricity_abs="0"/>
    </tripinfo>
    <tripinfo id="randUni33724:1" depart="57646.00" departLane="128361102#0_1" departPos="5.10" departSpeed="0.00" departDelay="1.20" arrival="57838.00" arrivalLane="201956811#0_1" arrivalPos="40.40" arrivalSpeed="13.07" duration="192.00" routeLength="2067.33" waitingTime="11.00" waitingCount="1" stopTime="0.00" timeLoss="44.27" rerouteNo="1" devices="tripinfo_randUni33724:1 routing_randUni33724:1 emissions_randUni33724:1" vType="random_016" speedFactor="1.02" vaporized="">
        <emissions CO_abs="7589.882856" CO2_abs="482252.786163" HC_abs="45.804863" PMx_abs="8.379707" NOx_abs="195.045032" fuel_abs="207.300319" electricity_abs="0"/>
    </tripinfo>
    <tripinfo id="carIn118591:1" depart="57689.00" departLane="315358244_1" departPos="5.10" departSpeed="0.00" departDelay="0.20" arrival="57838.00" arrivalLane="386687235_1" arrivalPos="80.84" arrivalSpeed="12.78" duration="149.00" routeLength="1186.14" waitingTime="27.00" waitingCount="5" stopTime="0.00" timeLoss="60.68" rerouteNo="1" devices="tripinfo_carIn118591:1 routing_carIn118591:1 emissions_carIn118591:1" vType="default_016" speedFactor="0.98" vaporized="">
        <emissions CO_abs="6392.445518" CO2_abs="338191.126057" HC_abs="37.020631" PMx_abs="5.938908" NOx_abs="137.839869" fuel_abs="145.374994" electricity_abs="0"/>
    </tripinfo>
    <tripinfo id="h3864c1:3" depart="57678.00" departLane="24693977#1_1" departPos="5.10" departSpeed="0.00" departDelay="0.00" arrival="57839.00" arrivalLane="201956820_1" arrivalPos="48.33" arrivalSpeed="15.03" duration="161.00" routeLength="1574.85" waitingTime="19.00" waitingCount="2" stopTime="0.00" timeLoss="45.34" rerouteNo="1" devices="tripinfo_h3864c1:3 routing_h3864c1:3 emissions_h3864c1:3" vType="default_016" speedFactor="1.12" vaporized="">
        <emissions CO_abs="8488.555707" CO2_abs="469087.108726" HC_abs="49.640881" PMx_abs="8.747874" NOx_abs="194.392988" fuel_abs="201.640890" electricity_abs="0"/>
    </tripinfo>
    <tripinfo id="h19804c1:3" depart="57617.00" departLane="124812856#0_1" departPos="5.10" departSpeed="0.00" departDelay="1.50" arrival="57840.00" arrivalLane="-128361102#1_1" arrivalPos="274.68" arrivalSpeed="13.20" duration="223.00" routeLength="2250.49" waitingTime="19.00" waitingCount="3" stopTime="0.00" timeLoss="55.86" rerouteNo="1" devices="tripinfo_h19804c1:3 routing_h19804c1:3 emissions_h19804c1:3" vType="default_016" speedFactor="0.98" vaporized="">
        <emissions CO_abs="7860.986133" CO2_abs="505401.319394" HC_abs="47.614009" PMx_abs="8.630664" NOx_abs="203.797519" fuel_abs="217.251032" electricity_abs="0"/>
    </tripinfo>
    <tripinfo id="carIn126288:1" depart="57674.00" departLane="272042143_1" departPos="5.10" departSpeed="0.00" departDelay="0.00" arrival="57844.00" arrivalLane="-315358254#1_1" arrivalPos="137.16" arrivalSpeed="9.92" duration="170.00" routeLength="1596.88" waitingTime="0.00" waitingCount="0" stopTime="0.00" timeLoss="14.48" rerouteNo="1" devices="tripinfo_carIn126288:1 routing_carIn126288:1 emissions_carIn126288:1" vType="default_016" speedFactor="0.75" vaporized="">
        <emissions CO_abs="4810.061093" CO2_abs="317293.609242" HC_abs="29.171739" PMx_abs="4.644547" NOx_abs="124.122320" fuel_abs="136.392296" electricity_abs="0"/>
    </tripinfo>
    <tripinfo id="h8343c1:5" depart="57679.00" departLane="315358254#0_1" departPos="5.10" departSpeed="0.00" departDelay="0.60" arrival="57844.00" arrivalLane="-24634510#5_1" arrivalPos="236.88" arrivalSpeed="12.47" duration="165.00" routeLength="2056.84" waitingTime="5.00" waitingCount="1" stopTime="0.00" timeLoss="32.58" rerouteNo="1" devices="tripinfo_h8343c1:5 routing_h8343c1:5 emissions_h8343c1:5" vType="default_016" speedFactor="0.94" vaporized="">
        <emissions CO_abs="7380.620467" CO2_abs="511399.542359" HC_abs="45.790601" PMx_abs="9.556725" NOx_abs="209.730838" fuel_abs="219.827861" electricity_abs="0"/>
    </tripinfo>
    <tripinfo id="h17549c1:1" depart="57680.00" departLane="-447569998#1_1" departPos="5.10" departSpeed="0.00" departDelay="0.00" arrival="57845.00" arrivalLane="-315358254#1_1" arrivalPos="137.16" arrivalSpeed="12.02" duration="165.00" routeLength="1746.60" waitingTime="4.00" waitingCount="1" stopTime="0.00" timeLoss="23.61" rerouteNo="1" devices="tripinfo_h17549c1:1 routing_h17549c1:1 emissions_h17549c1:1" vType="default_016" speedFactor="0.96" vaporized="">
        <emissions CO_abs="4836.548645" CO2_abs="365628.571444" HC_abs="30.466017" PMx_abs="5.583845" NOx_abs="142.877401" fuel_abs="157.168843" electricity_abs="0"/>
    </tripinfo>