<?xml version="1.0" encoding="UTF-8"?>

<!-- generated on 2021-10-26 19:36:54 by Eclipse SUMO sumo Version 1.10.0
<configuration xmlns:xsi="http://www.w3.org/2001/XMLSchema-instance" xsi:noNamespaceSchemaLocation="http://sumo.dlr.de/xsd/sumoConfiguration.xsd">

    <input>
        <net-file value="/Users/behradkoohy/sumo-scratchpad/RESCO/environments/ingolstadt21/ingolstadt21.net.xml"/>
        <route-files value="/Users/behradkoohy/sumo-scratchpad/RESCO/environments/ingolstadt21/ingolstadt21.rou.xml"/>
    </input>

    <output>
        <tripinfo-output value="/Users/behradkoohy/sumo-scratchpad/RESCO/logs/MPLight-tr0-ingolstadt21-21-mplight-pressure/tripinfo_34.xml"/>
        <tripinfo-output.write-unfinished value="true"/>
    </output>

    <time>
        <begin value="57600"/>
        <end value="61200"/>
    </time>

    <processing>
        <time-to-teleport value="-1"/>
    </processing>

    <report>
        <no-warnings value="true"/>
        <no-step-log value="true"/>
    </report>

    <emissions>
        <device.emissions.probability value="1"/>
    </emissions>

    <traci_server>
        <remote-port value="63622"/>
    </traci_server>

    <random_number>
        <random value="true"/>
    </random_number>

</configuration>
-->

<tripinfos xmlns:xsi="http://www.w3.org/2001/XMLSchema-instance" xsi:noNamespaceSchemaLocation="http://sumo.dlr.de/xsd/tripinfo_file.xsd">
    <tripinfo id="h15454c2:3" depart="57612.00" departLane="24608844_1" departPos="5.10" departSpeed="0.00" departDelay="0.50" arrival="57651.00" arrivalLane="32978638#0_1" arrivalPos="49.29" arrivalSpeed="14.40" duration="39.00" routeLength="354.79" waitingTime="0.00" waitingCount="0" stopTime="0.00" timeLoss="5.85" rerouteNo="1" devices="tripinfo_h15454c2:3 routing_h15454c2:3 emissions_h15454c2:3" vType="default_016" speedFactor="1.04" vaporized="">
        <emissions CO_abs="2171.360410" CO2_abs="124649.937885" HC_abs="12.823347" PMx_abs="2.291367" NOx_abs="51.849073" fuel_abs="53.581726" electricity_abs="0"/>
    </tripinfo>
    <tripinfo id="carIn60260:1" depart="57606.00" departLane="315358254#0_1" departPos="5.10" departSpeed="0.00" departDelay="0.90" arrival="57674.00" arrivalLane="399835085#1_1" arrivalPos="212.23" arrivalSpeed="7.23" duration="68.00" routeLength="430.98" waitingTime="12.00" waitingCount="1" stopTime="0.00" timeLoss="20.65" rerouteNo="1" devices="tripinfo_carIn60260:1 routing_carIn60260:1 emissions_carIn60260:1" vType="default_016" speedFactor="0.98" vaporized="">
        <emissions CO_abs="3479.196273" CO2_abs="132674.669151" HC_abs="18.918828" PMx_abs="2.395565" NOx_abs="55.216590" fuel_abs="57.032251" electricity_abs="0"/>
    </tripinfo>
    <tripinfo id="carIn53971:1" depart="57640.00" departLane="272042143_1" departPos="5.10" departSpeed="0.00" departDelay="0.80" arrival="57698.00" arrivalLane="24634414#1_1" arrivalPos="162.19" arrivalSpeed="7.17" duration="58.00" routeLength="493.04" waitingTime="0.00" waitingCount="0" stopTime="0.00" timeLoss="8.87" rerouteNo="1" devices="tripinfo_carIn53971:1 routing_carIn53971:1 emissions_carIn53971:1" vType="default_016" speedFactor="0.93" vaporized="">
        <emissions CO_abs="2646.627427" CO2_abs="143285.490246" HC_abs="15.389458" PMx_abs="2.476589" NOx_abs="58.716443" fuel_abs="61.592715" electricity_abs="0"/>
    </tripinfo>
    <tripinfo id="h3688c1:1" depart="57625.00" departLane="201201950#1_1" departPos="5.10" departSpeed="0.00" departDelay="0.00" arrival="57734.00" arrivalLane="32978638#0_1" arrivalPos="49.29" arrivalSpeed="11.63" duration="109.00" routeLength="1089.75" waitingTime="6.00" waitingCount="1" stopTime="0.00" timeLoss="21.97" rerouteNo="1" devices="tripinfo_h3688c1:1 routing_h3688c1:1 emissions_h3688c1:1" vType="default_016" speedFactor="0.91" vaporized="">
        <emissions CO_abs="4283.650611" CO2_abs="262692.682555" HC_abs="25.649161" PMx_abs="4.499112" NOx_abs="106.431477" fuel_abs="112.920779" electricity_abs="0"/>
    </tripinfo>
    <tripinfo id="h3568c1:3" depart="57656.00" departLane="266565295#5_1" departPos="5.10" departSpeed="0.00" departDelay="0.80" arrival="57737.00" arrivalLane="-24634415_1" arrivalPos="62.03" arrivalSpeed="15.11" duration="81.00" routeLength="807.40" waitingTime="5.00" waitingCount="1" stopTime="0.00" timeLoss="21.65" rerouteNo="1" devices="tripinfo_h3568c1:3 routing_h3568c1:3 emissions_h3568c1:3" vType="default_016" speedFactor="1.10" vaporized="">
        <emissions CO_abs="4698.355842" CO2_abs="271261.794057" HC_abs="27.706057" PMx_abs="4.981781" NOx_abs="111.861979" fuel_abs="116.604014" electricity_abs="0"/>
    </tripinfo>
    <tripinfo id="h7181c1:1" depart="57660.00" departLane="315358254#0_1" departPos="5.10" departSpeed="0.00" departDelay="0.10" arrival="57742.00" arrivalLane="306240162#0_0" arrivalPos="220.43" arrivalSpeed="15.01" duration="82.00" routeLength="932.35" waitingTime="15.00" waitingCount="1" stopTime="0.00" timeLoss="27.03" rerouteNo="1" devices="tripinfo_h7181c1:1 routing_h7181c1:1 emissions_h7181c1:1" vType="default_016" speedFactor="0.93" vaporized="">
        <emissions CO_abs="4851.446006" CO2_abs="265408.555409" HC_abs="28.366866" PMx_abs="5.091454" NOx_abs="109.080505" fuel_abs="114.088031" electricity_abs="0"/>
    </tripinfo>
    <tripinfo id="h4538c1:1" depart="57701.00" departLane="-10427692#1_1" departPos="5.10" departSpeed="0.00" departDelay="0.00" arrival="57743.00" arrivalLane="-128361102#1_1" arrivalPos="274.68" arrivalSpeed="12.27" duration="42.00" routeLength="440.74" waitingTime="0.00" waitingCount="0" stopTime="0.00" timeLoss="5.94" rerouteNo="1" devices="tripinfo_h4538c1:1 routing_h4538c1:1 emissions_h4538c1:1" vType="default_016" speedFactor="0.90" vaporized="">
        <emissions CO_abs="1644.714059" CO2_abs="108608.040024" HC_abs="10.018223" PMx_abs="1.784436" NOx_abs="43.530496" fuel_abs="46.686135" electricity_abs="0"/>
    </tripinfo>
    <tripinfo id="h317c2:1" depart="57707.00" departLane="-32978638#0_1" departPos="5.10" departSpeed="0.00" departDelay="0.10" arrival="57747.00" arrivalLane="-266565295#5_1" arrivalPos="172.76" arrivalSpeed="11.96" duration="40.00" routeLength="370.53" waitingTime="2.00" waitingCount="1" stopTime="0.00" timeLoss="10.08" rerouteNo="1" devices="tripinfo_h317c2:1 routing_h317c2:1 emissions_h317c2:1" vType="default_016" speedFactor="0.92" vaporized="">
        <emissions CO_abs="1973.549598" CO2_abs="113836.003320" HC_abs="11.649796" PMx_abs="1.984138" NOx_abs="46.482719" fuel_abs="48.933449" electricity_abs="0"/>
    </tripinfo>
    <tripinfo id="h7800c1:5" depart="57696.00" departLane="-447569998#1_1" departPos="5.10" departSpeed="0.00" departDelay="0.00" arrival="57755.00" arrivalLane="-447569998#1_2" arrivalPos="180.76" arrivalSpeed="3.50" duration="59.00" routeLength="175.66" waitingTime="30.00" waitingCount="1" stopTime="0.00" timeLoss="36.76" rerouteNo="1" devices="tripinfo_h7800c1:5 routing_h7800c1:5 emissions_h7800c1:5" vType="default_016" speedFactor="0.96" vaporized="">
        <emissions CO_abs="5725.591376" CO2_abs="123727.093424" HC_abs="28.950484" PMx_abs="2.673619" NOx_abs="54.250583" fuel_abs="53.187458" electricity_abs="0"/>
    </tripinfo>
    <tripinfo id="S5R_frequency1.2" depart="57624.00" departLane="315358250#0_1" departPos="12.10" departSpeed="0.00" departDelay="12.40" arrival="57760.00" arrivalLane="386687235_1" arrivalPos="80.84" arrivalSpeed="13.81" duration="136.00" routeLength="1115.62" waitingTime="29.00" waitingCount="2" stopTime="0.00" timeLoss="54.92" rerouteNo="1" devices="tripinfo_S5R_frequency1.2 routing_S5R_frequency1.2 emissions_S5R_frequency1.2" vType="bus" speedFactor="1.00" vaporized="">
        <emissions CO_abs="2878.166717" CO2_abs="1651101.826492" HC_abs="603.489253" PMx_abs="304.298909" NOx_abs="13239.562123" fuel_abs="704.112410" electricity_abs="0"/>
    </tripinfo>
    <tripinfo id="carIn121703:1" depart="57647.00" departLane="386687232#0_1" departPos="5.10" departSpeed="0.00" departDelay="0.30" arrival="57764.00" arrivalLane="-315358244_1" arrivalPos="33.95" arrivalSpeed="12.74" duration="117.00" routeLength="1157.39" waitingTime="15.00" waitingCount="1" stopTime="0.00" timeLoss="29.39" rerouteNo="1" devices="tripinfo_carIn121703:1 routing_carIn121703:1 emissions_carIn121703:1" vType="default_016" speedFactor="0.96" vaporized="">
        <emissions CO_abs="5323.046393" CO2_abs="282031.359830" HC_abs="30.826941" PMx_abs="4.861577" NOx_abs="113.889975" fuel_abs="121.234313" electricity_abs="0"/>
    </tripinfo>
    <tripinfo id="h3154c1:1" depart="57658.00" departLane="24634507_1" departPos="5.10" departSpeed="0.00" departDelay="0.00" arrival="57766.00" arrivalLane="-266565295#5_1" arrivalPos="172.76" arrivalSpeed="14.24" duration="108.00" routeLength="1206.22" waitingTime="7.00" waitingCount="1" stopTime="0.00" timeLoss="26.33" rerouteNo="1" devices="tripinfo_h3154c1:1 routing_h3154c1:1 emissions_h3154c1:1" vType="default_016" speedFactor="1.10" vaporized="">
        <emissions CO_abs="4548.523051" CO2_abs="305638.086378" HC_abs="27.887576" PMx_abs="5.552190" NOx_abs="125.041530" fuel_abs="131.380460" electricity_abs="0"/>
    </tripinfo>
    <tripinfo id="carIn30817:1" depart="57681.00" departLane="315358244_1" departPos="5.10" departSpeed="0.00" departDelay="0.20" arrival="57767.00" arrivalLane="447569997#1_1" arrivalPos="180.93" arrivalSpeed="8.27" duration="86.00" routeLength="718.04" waitingTime="8.00" waitingCount="1" stopTime="0.00" timeLoss="24.10" rerouteNo="1" devices="tripinfo_carIn30817:1 routing_carIn30817:1 emissions_carIn30817:1" vType="default_016" speedFactor="1.00" vaporized="">
        <emissions CO_abs="4164.684613" CO2_abs="202297.311413" HC_abs="23.699711" PMx_abs="3.658977" NOx_abs="83.631965" fuel_abs="86.959694" electricity_abs="0"/>
    </tripinfo>
    <tripinfo id="carIn22761:1" depart="57616.00" departLane="-306240162#1_0" departPos="5.10" departSpeed="0.00" departDelay="2.10" arrival="57773.00" arrivalLane="399835085#1_1" arrivalPos="212.23" arrivalSpeed="7.56" duration="157.00" routeLength="1093.26" waitingTime="53.00" waitingCount="2" stopTime="0.00" timeLoss="81.77" rerouteNo="1" devices="tripinfo_carIn22761:1 routing_carIn22761:1 emissions_carIn22761:1" vType="default_016" speedFactor="1.04" vaporized="">
        <emissions CO_abs="13776.675774" CO2_abs="481446.723995" HC_abs="74.163802" PMx_abs="10.032487" NOx_abs="205.676194" fuel_abs="206.956580" electricity_abs="0"/>
    </tripinfo>
    <tripinfo id="h330c1:1" depart="57736.00" departLane="-32978638#0_1" departPos="5.10" departSpeed="0.00" departDelay="0.20" arrival="57775.00" arrivalLane="-266565295#5_1" arrivalPos="172.76" arrivalSpeed="13.25" duration="39.00" routeLength="370.53" waitingTime="2.00" waitingCount="1" stopTime="0.00" timeLoss="11.78" rerouteNo="1" devices="tripinfo_h330c1:1 routing_h330c1:1 emissions_h330c1:1" vType="default_016" speedFactor="1.01" vaporized="">
        <emissions CO_abs="2162.030009" CO2_abs="125094.861532" HC_abs="12.797787" PMx_abs="2.308590" NOx_abs="51.816006" fuel_abs="53.772980" electricity_abs="0"/>
    </tripinfo>
    <tripinfo id="h5979c1:5" depart="57669.00" departLane="399835085#1_1" departPos="5.10" departSpeed="0.00" departDelay="0.00" arrival="57780.00" arrivalLane="-315358254#1_1" arrivalPos="137.16" arrivalSpeed="10.71" duration="111.00" routeLength="659.33" waitingTime="11.00" waitingCount="1" stopTime="0.00" timeLoss="25.34" rerouteNo="1" devices="tripinfo_h5979c1:5 routing_h5979c1:5 emissions_h5979c1:5" vType="default_016" speedFactor="0.86" vaporized="">
        <emissions CO_abs="5218.686475" CO2_abs="194744.967555" HC_abs="28.239899" PMx_abs="3.351897" NOx_abs="80.236382" fuel_abs="83.714446" electricity_abs="0"/>
    </tripinfo>
    <tripinfo id="h645c1:1" depart="57622.00" departLane="266565295#5_1" departPos="5.10" departSpeed="0.00" departDelay="0.40" arrival="57792.00" arrivalLane="-315358244_1" arrivalPos="33.95" arrivalSpeed="12.69" duration="170.00" routeLength="1910.83" waitingTime="4.00" waitingCount="1" stopTime="0.00" timeLoss="22.68" rerouteNo="1" devices="tripinfo_h645c1:1 routing_h645c1:1 emissions_h645c1:1" vType="default_016" speedFactor="0.94" vaporized="">
        <emissions CO_abs="4688.247555" CO2_abs="379792.465619" HC_abs="30.173390" PMx_abs="5.914620" NOx_abs="148.838949" fuel_abs="163.256899" electricity_abs="0"/>
    </tripinfo>
    <tripinfo id="h3326c1:2" depart="57656.00" departLane="22716069#0_1" departPos="5.10" departSpeed="0.00" departDelay="0.00" arrival="57793.00" arrivalLane="24634517#13_1" arrivalPos="111.62" arrivalSpeed="10.40" duration="137.00" routeLength="1312.81" waitingTime="0.00" waitingCount="0" stopTime="0.00" timeLoss="15.16" rerouteNo="1" devices="tripinfo_h3326c1:2 routing_h3326c1:2 emissions_h3326c1:2" vType="default_016" speedFactor="0.80" vaporized="">
        <emissions CO_abs="4477.351638" CO2_abs="291962.141875" HC_abs="27.135689" PMx_abs="4.582872" NOx_abs="116.130375" fuel_abs="125.502855" electricity_abs="0"/>
    </tripinfo>
    <tripinfo id="carIn126288:1" depart="57674.00" departLane="272042143_1" departPos="5.10" departSpeed="0.00" departDelay="0.00" arrival="57799.00" arrivalLane="-315358254#1_1" arrivalPos="137.16" arrivalSpeed="13.59" duration="125.00" routeLength="1596.88" waitingTime="0.00" waitingCount="0" stopTime="0.00" timeLoss="10.94" rerouteNo="1" devices="tripinfo_carIn126288:1 routing_carIn126288:1 emissions_carIn126288:1" vType="default_016" speedFactor="1.02" vaporized="">
        <emissions CO_abs="3393.635130" CO2_abs="311700.368760" HC_abs="22.707725" PMx_abs="4.935508" NOx_abs="121.785640" fuel_abs="133.986528" electricity_abs="0"/>
    </tripinfo>
    <tripinfo id="carIn12365:1" depart="57713.00" departLane="315358244_1" departPos="5.10" departSpeed="0.00" departDelay="0.50" arrival="57799.00" arrivalLane="447569997#1_1" arrivalPos="180.93" arrivalSpeed="5.72" duration="86.00" routeLength="718.04" waitingTime="0.00" waitingCount="0" stopTime="0.00" timeLoss="7.90" rerouteNo="1" devices="tripinfo_carIn12365:1 routing_carIn12365:1 emissions_carIn12365:1" vType="default_016" speedFactor="0.79" vaporized="">
        <emissions CO_abs="2615.523285" CO2_abs="145874.884183" HC_abs="15.248903" PMx_abs="2.194958" NOx_abs="57.581764" fuel_abs="62.706233" electricity_abs="0"/>
    </tripinfo>
    <tripinfo id="h9563c2:5" depart="57631.00" departLane="315358244_1" departPos="5.10" departSpeed="0.00" departDelay="0.70" arrival="57806.00" arrivalLane="386687235_1" arrivalPos="80.84" arrivalSpeed="14.07" duration="175.00" routeLength="1186.14" waitingTime="62.00" waitingCount="2" stopTime="0.00" timeLoss="97.11" rerouteNo="1" devices="tripinfo_h9563c2:5 routing_h9563c2:5 emissions_h9563c2:5" vType="default_016" speedFactor="1.11" vaporized="">
        <emissions CO_abs="13361.644666" CO2_abs="454608.267066" HC_abs="71.380997" PMx_abs="8.845462" NOx_abs="190.099489" fuel_abs="195.420938" electricity_abs="0"/>
    </tripinfo>
    <tripinfo id="h12244c1:3" depart="57612.00" departLane="315358244_1" departPos="5.10" departSpeed="0.00" departDelay="0.40" arrival="57811.00" arrivalLane="386687235_1" arrivalPos="80.84" arrivalSpeed="10.36" duration="199.00" routeLength="1186.14" waitingTime="62.00" waitingCount="3" stopTime="0.00" timeLoss="88.95" rerouteNo="1" devices="tripinfo_h12244c1:3 routing_h12244c1:3 emissions_h12244c1:3" vType="default_016" speedFactor="0.78" vaporized="">
        <emissions CO_abs="12640.708732" CO2_abs="412664.989274" HC_abs="67.156169" PMx_abs="7.813557" NOx_abs="173.157533" fuel_abs="177.391504" electricity_abs="0"/>
    </tripinfo>
    <tripinfo id="carIn12858:1" depart="57661.00" departLane="128361109#1_1" departPos="5.10" departSpeed="0.00" departDelay="0.90" arrival="57812.00" arrivalLane="399835085#1_1" arrivalPos="212.23" arrivalSpeed="8.17" duration="151.00" routeLength="1738.12" waitingTime="10.00" waitingCount="2" stopTime="0.00" timeLoss="39.84" rerouteNo="1" devices="tripinfo_carIn12858:1 routing_carIn12858:1 emissions_carIn12858:1" vType="default_016" speedFactor="1.04" vaporized="">
        <emissions CO_abs="7614.882887" CO2_abs="478217.072059" HC_abs="46.097064" PMx_abs="9.155282" NOx_abs="196.881160" fuel_abs="205.564541" electricity_abs="0"/>
    </tripinfo>
    <tripinfo id="carIn118591:1" depart="57689.00" departLane="315358244_1" departPos="5.10" departSpeed="0.00" departDelay="0.20" arrival="57814.00" arrivalLane="386687235_1" arrivalPos="80.84" arrivalSpeed="10.16" duration="125.00" routeLength="1186.14" waitingTime="3.00" waitingCount="1" stopTime="0.00" timeLoss="19.18" rerouteNo="1" devices="tripinfo_carIn118591:1 routing_carIn118591:1 emissions_carIn118591:1" vType="default_016" speedFactor="0.82" vaporized="">
        <emissions CO_abs="3796.035319" CO2_abs="247980.215908" HC_abs="22.999531" PMx_abs="3.788281" NOx_abs="97.786681" fuel_abs="106.596954" electricity_abs="0"/>
    </tripinfo>
    <tripinfo id="carIn81860:1" depart="57712.00" departLane="128361102#0_1" departPos="5.10" departSpeed="0.00" departDelay="0.60" arrival="57819.00" arrivalLane="-24634517#17_1" arrivalPos="6.43" arrivalSpeed="8.14" duration="107.00" routeLength="1229.64" waitingTime="0.00" waitingCount="0" stopTime="0.00" timeLoss="15.93" rerouteNo="1" devices="tripinfo_carIn81860:1 routing_carIn81860:1 emissions_carIn81860:1" vType="default_016" speedFactor="1.01" vaporized="">
        <emissions CO_abs="3671.641120" CO2_abs="275675.635209" HC_abs="23.159763" PMx_abs="4.572663" NOx_abs="109.954712" fuel_abs="118.501217" electricity_abs="0"/>
    </tripinfo>
    <tripinfo id="carIn50326:1" depart="57651.00" departLane="128361102#0_1" departPos="5.10" departSpeed="0.00" departDelay="0.30" arrival="57821.00" arrivalLane="18809673#0_1" arrivalPos="473.56" arrivalSpeed="12.11" duration="170.00" routeLength="1591.07" waitingTime="7.00" waitingCount="1" stopTime="0.00" timeLoss="28.36" rerouteNo="1" devices="tripinfo_carIn50326:1 routing_carIn50326:1 emissions_carIn50326:1" vType="default_016" speedFactor="0.92" vaporized="">
        <emissions CO_abs="5667.936282" CO2_abs="357480.551139" HC_abs="34.073377" PMx_abs="5.598525" NOx_abs="141.433364" fuel_abs="153.666849" electricity_abs="0"/>
    </tripinfo>
    <tripinfo id="carIn80064:1" depart="57603.00" departLane="128361109#1_1" departPos="5.10" departSpeed="0.00" departDelay="0.40" arrival="57823.00" arrivalLane="-315358254#1_1" arrivalPos="137.16" arrivalSpeed="10.98" duration="220.00" routeLength="1587.97" waitingTime="89.00" waitingCount="2" stopTime="0.00" timeLoss="116.94" rerouteNo="1" devices="tripinfo_carIn80064:1 routing_carIn80064:1 emissions_carIn80064:1" vType="default_016" speedFactor="0.87" vaporized="">
        <emissions CO_abs="19358.306877" CO2_abs="629339.263461" HC_abs="103.043441" PMx_abs="13.284841" NOx_abs="270.159738" fuel_abs="270.531114" electricity_abs="0"/>
    </tripinfo>
    <tripinfo id="carIn86816:1" depart="57617.00" departLane="128361102#0_1" departPos="5.10" departSpeed="0.00" departDelay="0.80" arrival="57823.00" arrivalLane="201956811#0_1" arrivalPos="40.40" arrivalSpeed="13.05" duration="206.00" routeLength="2067.33" waitingTime="32.00" waitingCount="2" stopTime="0.00" timeLoss="56.64" rerouteNo="1" devices="tripinfo_carIn86816:1 routing_carIn86816:1 emissions_carIn86816:1" vType="default_016" speedFactor="1.01" vaporized="">
        <emissions CO_abs="9570.517705" CO2_abs="523104.888412" HC_abs="55.740711" PMx_abs="9.227307" NOx_abs="212.290728" fuel_abs="224.861877" electricity_abs="0"/>
    </tripinfo>
    <tripinfo id="carIn27009:1" depart="57673.00" departLane="-447569998#1_1" departPos="5.10" departSpeed="0.00" departDelay="0.50" arrival="57825.00" arrivalLane="-26677539_1" arrivalPos="152.75" arrivalSpeed="7.53" duration="152.00" routeLength="699.63" waitingTime="53.00" waitingCount="1" stopTime="0.00" timeLoss="66.32" rerouteNo="1" devices="tripinfo_carIn27009:1 routing_carIn27009:1 emissions_carIn27009:1" vType="default_015" speedFactor="0.98" vaporized="">
        <emissions CO_abs="11779.950962" CO2_abs="307467.225251" HC_abs="60.754902" PMx_abs="6.063351" NOx_abs="131.222972" fuel_abs="132.171928" electricity_abs="0"/>
    </tripinfo>
    <tripinfo id="carIn107282:1" depart="57749.00" departLane="-447569998#1_1" departPos="5.10" departSpeed="0.00" departDelay="0.00" arrival="57826.00" arrivalLane="315358242#0_1" arrivalPos="165.37" arrivalSpeed="13.60" duration="77.00" routeLength="448.50" waitingTime="27.00" waitingCount="1" stopTime="0.00" timeLoss="35.50" rerouteNo="1" devices="tripinfo_carIn107282:1 routing_carIn107282:1 emissions_carIn107282:1" vType="default_016" speedFactor="1.02" vaporized="">
        <emissions CO_abs="6012.604699" CO2_abs="186680.511065" HC_abs="31.741240" PMx_abs="3.679787" NOx_abs="79.103834" fuel_abs="80.248039" electricity_abs="0"/>
    </tripinfo>
    <tripinfo id="randUni15030:1" depart="57735.00" departLane="386687232#0_1" departPos="5.10" departSpeed="0.00" departDelay="0.10" arrival="57833.00" arrivalLane="26677539_1" arrivalPos="151.98" arrivalSpeed="8.51" duration="98.00" routeLength="919.89" waitingTime="6.00" waitingCount="1" stopTime="0.00" timeLoss="19.65" rerouteNo="1" devices="tripinfo_randUni15030:1 routing_randUni15030:1 emissions_randUni15030:1" vType="random_016" speedFactor="1.06" vaporized="">
        <emissions CO_abs="4275.204652" CO2_abs="246341.939242" HC_abs="25.196718" PMx_abs="4.238570" NOx_abs="99.865471" fuel_abs="105.892460" electricity_abs="0"/>
    </tripinfo>
    <tripinfo id="carIn107084:1" depart="57601.00" departLane="124812856#0_1" departPos="5.10" departSpeed="0.00" departDelay="0.70" arrival="57838.00" arrivalLane="-128361102#1_1" arrivalPos="274.68" arrivalSpeed="12.68" duration="237.00" routeLength="2250.49" waitingTime="31.00" waitingCount="3" stopTime="0.00" timeLoss="60.31" rerouteNo="1" devices="tripinfo_carIn107084:1 routing_carIn107084:1 emissions_carIn107084:1" vType="default_016" speedFactor="0.93" vaporized="">
        <emissions CO_abs="10345.215807" CO2_abs="551777.540534" HC_abs="59.970654" PMx_abs="9.400802" NOx_abs="222.565730" fuel_abs="237.187767" electricity_abs="0"/>
    </tripinfo>
    <tripinfo id="carIn77943:1" depart="57608.00" departLane="124812856#0_1" departPos="5.10" departSpeed="0.00" departDelay="2.50" arrival="57840.00" arrivalLane="-128361102#1_1" arrivalPos="274.68" arrivalSpeed="13.36" duration="232.00" routeLength="2250.49" waitingTime="26.00" waitingCount="2" stopTime="0.00" timeLoss="70.18" rerouteNo="1" devices="tripinfo_carIn77943:1 routing_carIn77943:1 emissions_carIn77943:1" vType="default_016" speedFactor="1.02" vaporized="">
        <emissions CO_abs="11247.229856" CO2_abs="620617.571184" HC_abs="65.822974" PMx_abs="11.280808" NOx_abs="255.112096" fuel_abs="266.777990" electricity_abs="0"/>
    </tripinfo>
    <tripinfo id="randUni31145:1" depart="57814.00" departLane="10425609#0_1" departPos="5.10" departSpeed="0.00" departDelay="0.30" arrival="57844.00" arrivalLane="201956810_1" arrivalPos="71.65" arrivalSpeed="12.59" duration="30.00" routeLength="255.78" waitingTime="0.00" waitingCount="0" stopTime="0.00" timeLoss="9.73" rerouteNo="1" devices="tripinfo_randUni31145:1 routing_randUni31145:1 emissions_randUni31145:1" vType="random_016" speedFactor="0.96" vaporized="">
        <emissions CO_abs="2055.985778" CO2_abs="101589.131812" HC_abs="11.769832" PMx_abs="2.003556" NOx_abs="43.299778" fuel_abs="43.668882" electricity_abs="0"/>
    </tripinfo>
    <tripinfo id="h8343c1:5" depart="57679.00" departLane="315358254#0_1" departPos="5.10" departSpeed="0.00" departDelay="0.60" arrival="57845.00" arrivalLane="-24634510#5_1" arrivalPos="236.88" arrivalSpeed="13.82" duration="166.00" routeLength="2056.84" waitingTime="15.00" waitingCount="2" stopTime="0.00" timeLoss="46.32" rerouteNo="1" devices="tripinfo_h8343c1:5 routing_h8343c1:5 emissions_h8343c1:5" vType="default_016" speedFactor="1.04" vaporized="">
        <emissions CO_abs="8931.818324" CO2_abs="555487.426377" HC_abs="53.998186" PMx_abs="11.029314" NOx_abs="231.187247" fuel_abs="238.779151" electricity_abs="0"/>
    </tripinfo>
    <tripinfo id="randUni2407:1" depart="57820.00" departLane="10425609#0_1" departPos="5.10" departSpeed="0.00" departDelay="0.80" arrival="57847.00" arrivalLane="201956810_1" arrivalPos="71.65" arrivalSpeed="12.39" duration="27.00" routeLength="255.78" waitingTime="0.00" waitingCount="0" stopTime="0.00" timeLoss="6.79" rerouteNo="1" devices="tripinfo_randUni2407:1 routing_randUni2407:1 emissions_randUni2407:1" vType="random_016" speedFactor="0.98" vaporized="">
        <emissions CO_abs="1731.145448" CO2_abs="94020.173205" HC_abs="10.112885" PMx_abs="1.829751" NOx_abs="39.842644" fuel_abs="40.415205" electricity_abs="0"/>
    </tripinfo>
    <tripinfo id="h11737c1:1" depart="57665.00" departLane="272042143_1" departPos="5.10" departSpeed="0.00" departDelay="1.50" arrival="57851.00" arrivalLane="-315358254#1_1" arrivalPos="137.16" arrivalSpeed="9.58" duration="186.00" routeLength="1596.88" waitingTime="7.00" waitingCount="2" stopTime="0.00" timeLoss="28.62" rerouteNo="1" devices="tripinfo_h11737c1:1 routing_h11737c1:1 emissions_h11737c1:1" vType="default_016" speedFactor="0.74" vaporized="">
        <emissions CO_abs="6142.577710" CO2_abs="367230.338838" HC_abs="36.352241" PMx_abs="5.317598" NOx_abs="143.439698" fuel_abs="157.858737" electricity_abs="0"/>
    </tripinfo>
    <tripinfo id="carIn12152:1" depart="57647.00" departLane="24599188#0.94_1" departPos="5.10" departSpeed="0.00" departDelay="0.50" arrival="57853.00" arrivalLane="-315358254#1_1" arrivalPos="137.16" arrivalSpeed="13.26" duration="206.00" routeLength="2034.31" waitingTime="16.00" waitingCount="3" stopTime="0.00" timeLoss="43.32" rerouteNo="1" devices="tripinfo_carIn12152:1 routing_carIn12152:1 emissions_carIn12152:1" vType="default_016" speedFactor="0.97" vaporized="">
        <emissions CO_abs="6942.776242" CO2_abs="463371.396769" HC_abs="42.363749" PMx_abs="7.535685" NOx_abs="184.403745" fuel_abs="199.184461" electricity_abs="0"/>
    </tripinfo>
    <tripinfo id="carIn129809:1" depart="57729.00" departLane="-447569998#1_1" departPos="5.10" departSpeed="0.00" departDelay="1.00" arrival="57853.00" arrivalLane="-315358244_2" arrivalPos="33.95" arrivalSpeed="13.00" duration="124.00" routeLength="706.49" waitingTime="41.00" waitingCount="2" stopTime="0.00" timeLoss="61.67" rerouteNo="1" devices="tripinfo_carIn129809:1 routing_carIn129809:1 emissions_carIn129809:1" vType="default_015" speedFactor="0.97" vaporized="">
        <emissions CO_abs="9822.479330" CO2_abs="292820.499750" HC_abs="51.573883" PMx_abs="5.866790" NOx_abs="124.857637" fuel_abs="125.874431" electricity_abs="0"/>
    </tripinfo>
    <tripinfo id="carIn73855:1" depart="57743.00" departLane="386687232#0_1" departPos="5.10" departSpeed="0.00" departDelay="0.50" arrival="57854.00" arrivalLane="-315358244_1" arrivalPos="33.95" arrivalSpeed="12.85" duration="111.00" routeLength="1157.39" waitingTime="7.00" waitingCount="1" stopTime="0.00" timeLoss="24.46" rerouteNo="1" devices="tripinfo_carIn73855:1 routing_carIn73855:1 emissions_carIn73855:1" vType="default_016" speedFactor="0.98" vaporized="">
        <emissions CO_abs="4225.366698" CO2_abs="270512.726518" HC_abs="25.525233" PMx_abs="4.414727" NOx_abs="107.422645" fuel_abs="116.282545" electricity_abs="0"/>
    </tripinfo>
    <tripinfo id="carIn82278:1" depart="57702.00" departLane="-306240162#1_0" departPos="5.10" departSpeed="0.00" departDelay="0.70" arrival="57855.00" arrivalLane="399835085#1_1" arrivalPos="212.23" arrivalSpeed="7.87" duration="153.00" routeLength="1093.26" waitingTime="44.00" waitingCount="2" stopTime="0.00" timeLoss="73.93" rerouteNo="1" devices="tripinfo_carIn82278:1 routing_carIn82278:1 emissions_carIn82278:1" vType="default_016" speedFactor="0.99" vaporized="">
        <emissions CO_abs="11541.399946" CO2_abs="422994.420995" HC_abs="62.556596" PMx_abs="8.554424" NOx_abs="179.496828" fuel_abs="181.829910" electricity_abs="0"/>
    </tripinfo>
    <tripinfo id="carIn8642:1" depart="57774.00" departLane="-447569998#1_1" departPos="5.10" departSpeed="0.00" departDelay="0.90" arrival="57856.00" arrivalLane="-315358244_1" arrivalPos="33.95" arrivalSpeed="12.09" duration="82.00" routeLength="706.49" waitingTime="2.00" waitingCount="1" stopTime="0.00" timeLoss="13.82" rerouteNo="1" devices="tripinfo_carIn8642:1 routing_carIn8642:1 emissions_carIn8642:1" vType="default_016" speedFactor="0.88" vaporized="">
        <emissions CO_abs="3125.396968" CO2_abs="169983.048772" HC_abs="18.169918" PMx_abs="2.803716" NOx_abs="68.530534" fuel_abs="73.069150" electricity_abs="0"/>
    </tripinfo>
    <tripinfo id="carIn126378:1" depart="57746.00" departLane="386687232#0_1" departPos="5.10" departSpeed="0.00" departDelay="1.80" arrival="57858.00" arrivalLane="-315358244_1" arrivalPos="33.95" arrivalSpeed="13.51" duration="112.00" routeLength="1157.39" waitingTime="9.00" waitingCount="1" stopTime="0.00" timeLoss="25.60" rerouteNo="1" devices="tripinfo_carIn126378:1 routing_carIn126378:1 emissions_carIn126378:1" vType="default_016" speedFactor="0.98" vaporized="">
        <emissions CO_abs="4330.638022" CO2_abs="272675.147039" HC_abs="26.093009" PMx_abs="4.593284" NOx_abs="109.393162" fuel_abs="117.211909" electricity_abs="0"/>
    </tripinfo>
    <tripinfo id="50R_frequency3.17" depart="57674.00" departLane="-18809673#6_1" departPos="12.10" departSpeed="0.00" departDelay="0.70" arrival="57869.00" arrivalLane="201956811#0_1" arrivalPos="40.40" arrivalSpeed="10.23" duration="195.00" routeLength="1954.47" waitingTime="14.00" waitingCount="1" stopTime="0.00" timeLoss="50.17" rerouteNo="1" devices="tripinfo_50R_frequency3.17 routing_50R_frequency3.17 emissions_50R_frequency3.17" vType="bus" speedFactor="1.00" vaporized="">
        <emissions CO_abs="3733.491936" CO2_abs="2260219.863179" HC_abs="789.211922" PMx_abs="398.273579" NOx_abs="17755.314851" fuel_abs="963.929330" electricity_abs="0"/>