<?xml version="1.0" encoding="UTF-8"?>

<!-- generated on 2021-10-26 19:23:14 by Eclipse SUMO sumo Version 1.10.0
<configuration xmlns:xsi="http://www.w3.org/2001/XMLSchema-instance" xsi:noNamespaceSchemaLocation="http://sumo.dlr.de/xsd/sumoConfiguration.xsd">

    <input>
        <net-file value="/Users/behradkoohy/sumo-scratchpad/RESCO/environments/ingolstadt21/ingolstadt21.net.xml"/>
        <route-files value="/Users/behradkoohy/sumo-scratchpad/RESCO/environments/ingolstadt21/ingolstadt21.rou.xml"/>
    </input>

    <output>
        <tripinfo-output value="/Users/behradkoohy/sumo-scratchpad/RESCO/logs/MPLight-tr0-ingolstadt21-21-mplight-pressure/tripinfo_23.xml"/>
        <tripinfo-output.write-unfinished value="true"/>
    </output>

    <time>
        <begin value="57600"/>
        <end value="61200"/>
    </time>

    <processing>
        <time-to-teleport value="-1"/>
    </processing>

    <report>
        <no-warnings value="true"/>
        <no-step-log value="true"/>
    </report>

    <emissions>
        <device.emissions.probability value="1"/>
    </emissions>

    <traci_server>
        <remote-port value="63348"/>
    </traci_server>

    <random_number>
        <random value="true"/>
    </random_number>

</configuration>
-->

<tripinfos xmlns:xsi="http://www.w3.org/2001/XMLSchema-instance" xsi:noNamespaceSchemaLocation="http://sumo.dlr.de/xsd/tripinfo_file.xsd">
    <tripinfo id="h15454c2:3" depart="57612.00" departLane="24608844_1" departPos="5.10" departSpeed="0.00" departDelay="0.50" arrival="57652.00" arrivalLane="32978638#0_1" arrivalPos="49.29" arrivalSpeed="12.68" duration="40.00" routeLength="354.79" waitingTime="0.00" waitingCount="0" stopTime="0.00" timeLoss="5.13" rerouteNo="1" devices="tripinfo_h15454c2:3 routing_h15454c2:3 emissions_h15454c2:3" vType="default_016" speedFactor="0.99" vaporized="">
        <emissions CO_abs="1592.377295" CO2_abs="87952.246622" HC_abs="9.296891" PMx_abs="1.522049" NOx_abs="35.990664" fuel_abs="37.807137" electricity_abs="0"/>
    </tripinfo>
    <tripinfo id="carIn60260:1" depart="57606.00" departLane="315358254#0_1" departPos="5.10" departSpeed="0.00" departDelay="0.90" arrival="57669.00" arrivalLane="399835085#1_1" arrivalPos="212.23" arrivalSpeed="6.06" duration="63.00" routeLength="430.98" waitingTime="12.00" waitingCount="1" stopTime="0.00" timeLoss="26.30" rerouteNo="1" devices="tripinfo_carIn60260:1 routing_carIn60260:1 emissions_carIn60260:1" vType="default_016" speedFactor="1.26" vaporized="">
        <emissions CO_abs="3605.908116" CO2_abs="146673.608950" HC_abs="19.860983" PMx_abs="2.798711" NOx_abs="61.735519" fuel_abs="63.049505" electricity_abs="0"/>
    </tripinfo>
    <tripinfo id="carIn53971:1" depart="57640.00" departLane="272042143_1" departPos="5.10" departSpeed="0.00" departDelay="0.80" arrival="57693.00" arrivalLane="24634414#1_1" arrivalPos="162.19" arrivalSpeed="7.09" duration="53.00" routeLength="493.04" waitingTime="0.00" waitingCount="0" stopTime="0.00" timeLoss="7.79" rerouteNo="1" devices="tripinfo_carIn53971:1 routing_carIn53971:1 emissions_carIn53971:1" vType="default_016" speedFactor="1.00" vaporized="">
        <emissions CO_abs="2071.001804" CO2_abs="122144.734017" HC_abs="12.276239" PMx_abs="2.068390" NOx_abs="49.578828" fuel_abs="52.505075" electricity_abs="0"/>
    </tripinfo>
    <tripinfo id="h7800c1:5" depart="57696.00" departLane="-447569998#1_1" departPos="5.10" departSpeed="0.00" departDelay="0.00" arrival="57723.00" arrivalLane="-447569998#1_1" arrivalPos="180.76" arrivalSpeed="6.34" duration="27.00" routeLength="175.66" waitingTime="0.00" waitingCount="0" stopTime="0.00" timeLoss="3.36" rerouteNo="1" devices="tripinfo_h7800c1:5 routing_h7800c1:5 emissions_h7800c1:5" vType="default_016" speedFactor="0.91" vaporized="">
        <emissions CO_abs="1092.493766" CO2_abs="44553.132798" HC_abs="5.996534" PMx_abs="0.743780" NOx_abs="18.269145" fuel_abs="19.151866" electricity_abs="0"/>
    </tripinfo>
    <tripinfo id="h3568c1:3" depart="57656.00" departLane="266565295#5_1" departPos="5.10" departSpeed="0.00" departDelay="0.80" arrival="57731.00" arrivalLane="-24634415_1" arrivalPos="62.03" arrivalSpeed="13.74" duration="75.00" routeLength="807.40" waitingTime="0.00" waitingCount="0" stopTime="0.00" timeLoss="11.41" rerouteNo="1" devices="tripinfo_h3568c1:3 routing_h3568c1:3 emissions_h3568c1:3" vType="default_016" speedFactor="1.02" vaporized="">
        <emissions CO_abs="2980.043458" CO2_abs="210050.222522" HC_abs="18.480085" PMx_abs="3.636954" NOx_abs="84.975482" fuel_abs="90.291544" electricity_abs="0"/>
    </tripinfo>
    <tripinfo id="h7181c1:1" depart="57660.00" departLane="315358254#0_1" departPos="5.10" departSpeed="0.00" departDelay="0.10" arrival="57731.00" arrivalLane="306240162#0_0" arrivalPos="220.43" arrivalSpeed="16.41" duration="71.00" routeLength="932.35" waitingTime="7.00" waitingCount="1" stopTime="0.00" timeLoss="19.77" rerouteNo="1" devices="tripinfo_h7181c1:1 routing_h7181c1:1 emissions_h7181c1:1" vType="default_016" speedFactor="1.01" vaporized="">
        <emissions CO_abs="4188.938080" CO2_abs="261560.619922" HC_abs="25.318974" PMx_abs="5.129093" NOx_abs="107.641905" fuel_abs="112.433350" electricity_abs="0"/>
    </tripinfo>
    <tripinfo id="h9563c2:5" depart="57631.00" departLane="315358244_1" departPos="5.10" departSpeed="0.00" departDelay="0.70" arrival="57736.00" arrivalLane="386687235_1" arrivalPos="80.84" arrivalSpeed="14.96" duration="105.00" routeLength="1186.14" waitingTime="4.00" waitingCount="2" stopTime="0.00" timeLoss="26.35" rerouteNo="1" devices="tripinfo_h9563c2:5 routing_h9563c2:5 emissions_h9563c2:5" vType="default_016" speedFactor="1.10" vaporized="">
        <emissions CO_abs="3843.785440" CO2_abs="269613.174836" HC_abs="23.838329" PMx_abs="4.731931" NOx_abs="108.878717" fuel_abs="115.895075" electricity_abs="0"/>
    </tripinfo>
    <tripinfo id="carIn22761:1" depart="57616.00" departLane="-306240162#1_0" departPos="5.10" departSpeed="0.00" departDelay="2.10" arrival="57739.00" arrivalLane="399835085#1_1" arrivalPos="212.23" arrivalSpeed="7.35" duration="123.00" routeLength="1093.26" waitingTime="14.00" waitingCount="1" stopTime="0.00" timeLoss="35.95" rerouteNo="1" devices="tripinfo_carIn22761:1 routing_carIn22761:1 emissions_carIn22761:1" vType="default_016" speedFactor="0.90" vaporized="">
        <emissions CO_abs="6503.498513" CO2_abs="320330.010539" HC_abs="36.851742" PMx_abs="5.834128" NOx_abs="131.275352" fuel_abs="137.697282" electricity_abs="0"/>
    </tripinfo>
    <tripinfo id="h3688c1:1" depart="57625.00" departLane="201201950#1_1" departPos="5.10" departSpeed="0.00" departDelay="0.00" arrival="57744.00" arrivalLane="32978638#0_1" arrivalPos="49.29" arrivalSpeed="13.06" duration="119.00" routeLength="1089.75" waitingTime="23.00" waitingCount="2" stopTime="0.00" timeLoss="38.49" rerouteNo="1" devices="tripinfo_h3688c1:1 routing_h3688c1:1 emissions_h3688c1:1" vType="default_016" speedFactor="0.99" vaporized="">
        <emissions CO_abs="6873.663009" CO2_abs="316574.166512" HC_abs="38.661344" PMx_abs="5.763571" NOx_abs="129.995019" fuel_abs="136.083192" electricity_abs="0"/>
    </tripinfo>
    <tripinfo id="carIn30817:1" depart="57681.00" departLane="315358244_1" departPos="5.10" departSpeed="0.00" departDelay="0.20" arrival="57750.00" arrivalLane="447569997#1_1" arrivalPos="180.93" arrivalSpeed="7.59" duration="69.00" routeLength="718.04" waitingTime="0.00" waitingCount="0" stopTime="0.00" timeLoss="6.62" rerouteNo="1" devices="tripinfo_carIn30817:1 routing_carIn30817:1 emissions_carIn30817:1" vType="default_016" speedFactor="1.00" vaporized="">
        <emissions CO_abs="2045.292731" CO2_abs="150170.887856" HC_abs="12.746214" PMx_abs="2.250123" NOx_abs="58.405134" fuel_abs="64.552465" electricity_abs="0"/>
    </tripinfo>
    <tripinfo id="h5979c1:5" depart="57669.00" departLane="399835085#1_1" departPos="5.10" departSpeed="0.00" departDelay="0.00" arrival="57757.00" arrivalLane="-315358254#1_1" arrivalPos="137.16" arrivalSpeed="13.69" duration="88.00" routeLength="659.33" waitingTime="1.00" waitingCount="1" stopTime="0.00" timeLoss="14.13" rerouteNo="1" devices="tripinfo_h5979c1:5 routing_h5979c1:5 emissions_h5979c1:5" vType="default_016" speedFactor="0.99" vaporized="">
        <emissions CO_abs="3713.300495" CO2_abs="178774.631517" HC_abs="21.021699" PMx_abs="2.990611" NOx_abs="72.847480" fuel_abs="76.848558" electricity_abs="0"/>
    </tripinfo>
    <tripinfo id="h4538c1:1" depart="57701.00" departLane="-10427692#1_1" departPos="5.10" departSpeed="0.00" departDelay="0.00" arrival="57757.00" arrivalLane="-128361102#1_1" arrivalPos="274.68" arrivalSpeed="13.26" duration="56.00" routeLength="440.74" waitingTime="14.00" waitingCount="1" stopTime="0.00" timeLoss="23.40" rerouteNo="1" devices="tripinfo_h4538c1:1 routing_h4538c1:1 emissions_h4538c1:1" vType="default_016" speedFactor="0.98" vaporized="">
        <emissions CO_abs="3633.965246" CO2_abs="138691.271422" HC_abs="19.776448" PMx_abs="2.590654" NOx_abs="57.557310" fuel_abs="59.618518" electricity_abs="0"/>
    </tripinfo>
    <tripinfo id="carIn121703:1" depart="57647.00" departLane="386687232#0_1" departPos="5.10" departSpeed="0.00" departDelay="0.30" arrival="57763.00" arrivalLane="-315358244_1" arrivalPos="33.95" arrivalSpeed="15.85" duration="116.00" routeLength="1157.39" waitingTime="22.00" waitingCount="2" stopTime="0.00" timeLoss="45.08" rerouteNo="1" devices="tripinfo_carIn121703:1 routing_carIn121703:1 emissions_carIn121703:1" vType="default_016" speedFactor="1.19" vaporized="">
        <emissions CO_abs="6619.009536" CO2_abs="350551.217508" HC_abs="38.301507" PMx_abs="6.529942" NOx_abs="143.725449" fuel_abs="150.687669" electricity_abs="0"/>
    </tripinfo>
    <tripinfo id="h317c2:1" depart="57707.00" departLane="-32978638#0_1" departPos="5.10" departSpeed="0.00" departDelay="0.10" arrival="57764.00" arrivalLane="-266565295#5_1" arrivalPos="172.76" arrivalSpeed="14.22" duration="57.00" routeLength="370.53" waitingTime="22.00" waitingCount="1" stopTime="0.00" timeLoss="30.60" rerouteNo="1" devices="tripinfo_h317c2:1 routing_h317c2:1 emissions_h317c2:1" vType="default_016" speedFactor="1.03" vaporized="">
        <emissions CO_abs="4744.361689" CO2_abs="169741.935541" HC_abs="25.592966" PMx_abs="3.403892" NOx_abs="72.046119" fuel_abs="72.965999" electricity_abs="0"/>
    </tripinfo>
    <tripinfo id="h3326c1:2" depart="57656.00" departLane="22716069#0_1" departPos="5.10" departSpeed="0.00" departDelay="0.00" arrival="57766.00" arrivalLane="24634517#13_1" arrivalPos="111.62" arrivalSpeed="14.12" duration="110.00" routeLength="1312.81" waitingTime="0.00" waitingCount="0" stopTime="0.00" timeLoss="15.10" rerouteNo="1" devices="tripinfo_h3326c1:2 routing_h3326c1:2 emissions_h3326c1:2" vType="default_016" speedFactor="1.02" vaporized="">
        <emissions CO_abs="3998.867829" CO2_abs="290211.877949" HC_abs="25.018540" PMx_abs="5.066894" NOx_abs="117.607868" fuel_abs="124.749431" electricity_abs="0"/>
    </tripinfo>
    <tripinfo id="h330c1:1" depart="57736.00" departLane="-32978638#0_1" departPos="5.10" departSpeed="0.00" departDelay="0.20" arrival="57768.00" arrivalLane="-266565295#5_1" arrivalPos="172.76" arrivalSpeed="13.25" duration="32.00" routeLength="370.53" waitingTime="0.00" waitingCount="0" stopTime="0.00" timeLoss="5.53" rerouteNo="1" devices="tripinfo_h330c1:1 routing_h330c1:1 emissions_h330c1:1" vType="default_016" speedFactor="1.04" vaporized="">
        <emissions CO_abs="1610.443544" CO2_abs="104301.291067" HC_abs="9.799451" PMx_abs="1.908095" NOx_abs="42.994293" fuel_abs="44.834577" electricity_abs="0"/>
    </tripinfo>
    <tripinfo id="carIn12365:1" depart="57713.00" departLane="315358244_1" departPos="5.10" departSpeed="0.00" departDelay="0.50" arrival="57782.00" arrivalLane="447569997#1_1" arrivalPos="180.93" arrivalSpeed="7.87" duration="69.00" routeLength="718.04" waitingTime="0.00" waitingCount="0" stopTime="0.00" timeLoss="7.72" rerouteNo="1" devices="tripinfo_carIn12365:1 routing_carIn12365:1 emissions_carIn12365:1" vType="default_016" speedFactor="1.01" vaporized="">
        <emissions CO_abs="2512.755856" CO2_abs="172409.141808" HC_abs="15.463191" PMx_abs="2.836219" NOx_abs="68.926293" fuel_abs="74.111539" electricity_abs="0"/>
    </tripinfo>
    <tripinfo id="h12244c1:3" depart="57612.00" departLane="315358244_1" departPos="5.10" departSpeed="0.00" departDelay="0.40" arrival="57784.00" arrivalLane="386687235_1" arrivalPos="80.84" arrivalSpeed="11.77" duration="172.00" routeLength="1186.14" waitingTime="57.00" waitingCount="3" stopTime="0.00" timeLoss="77.32" rerouteNo="1" devices="tripinfo_h12244c1:3 routing_h12244c1:3 emissions_h12244c1:3" vType="default_016" speedFactor="0.91" vaporized="">
        <emissions CO_abs="11146.791076" CO2_abs="395672.433989" HC_abs="59.984231" PMx_abs="7.391581" NOx_abs="164.364062" fuel_abs="170.086373" electricity_abs="0"/>
    </tripinfo>
    <tripinfo id="carIn27009:1" depart="57673.00" departLane="-447569998#1_1" departPos="5.10" departSpeed="0.00" departDelay="0.50" arrival="57784.00" arrivalLane="-26677539_1" arrivalPos="152.75" arrivalSpeed="6.66" duration="111.00" routeLength="699.63" waitingTime="0.00" waitingCount="0" stopTime="0.00" timeLoss="12.92" rerouteNo="1" devices="tripinfo_carIn27009:1 routing_carIn27009:1 emissions_carIn27009:1" vType="default_015" speedFactor="0.86" vaporized="">
        <emissions CO_abs="4801.032071" CO2_abs="193455.077252" HC_abs="26.252742" PMx_abs="3.005708" NOx_abs="77.937676" fuel_abs="83.160098" electricity_abs="0"/>
    </tripinfo>
    <tripinfo id="carIn80064:1" depart="57603.00" departLane="128361109#1_1" departPos="5.10" departSpeed="0.00" departDelay="0.40" arrival="57799.00" arrivalLane="-315358254#1_1" arrivalPos="137.16" arrivalSpeed="13.88" duration="196.00" routeLength="1587.97" waitingTime="73.00" waitingCount="4" stopTime="0.00" timeLoss="113.75" rerouteNo="1" devices="tripinfo_carIn80064:1 routing_carIn80064:1 emissions_carIn80064:1" vType="default_016" speedFactor="1.08" vaporized="">
        <emissions CO_abs="18019.771348" CO2_abs="665904.593068" HC_abs="97.955096" PMx_abs="14.215354" NOx_abs="284.949643" fuel_abs="286.247133" electricity_abs="0"/>
    </tripinfo>
    <tripinfo id="carIn48184:1" depart="57613.00" departLane="-306240162#1_0" departPos="5.10" departSpeed="0.00" departDelay="0.70" arrival="57803.00" arrivalLane="386687235_1" arrivalPos="80.84" arrivalSpeed="13.65" duration="190.00" routeLength="2257.41" waitingTime="14.00" waitingCount="3" stopTime="0.00" timeLoss="50.43" rerouteNo="1" devices="tripinfo_carIn48184:1 routing_carIn48184:1 emissions_carIn48184:1" vType="default_016" speedFactor="1.07" vaporized="">
        <emissions CO_abs="8144.477461" CO2_abs="578940.449705" HC_abs="50.759961" PMx_abs="10.705549" NOx_abs="236.274655" fuel_abs="248.860702" electricity_abs="0"/>
    </tripinfo>
    <tripinfo id="carIn107282:1" depart="57749.00" departLane="-447569998#1_1" departPos="5.10" departSpeed="0.00" departDelay="0.00" arrival="57803.00" arrivalLane="315358242#0_1" arrivalPos="165.37" arrivalSpeed="11.66" duration="54.00" routeLength="448.50" waitingTime="0.00" waitingCount="0" stopTime="0.00" timeLoss="5.07" rerouteNo="1" devices="tripinfo_carIn107282:1 routing_carIn107282:1 emissions_carIn107282:1" vType="default_016" speedFactor="0.86" vaporized="">
        <emissions CO_abs="1949.601665" CO2_abs="108437.304259" HC_abs="11.355311" PMx_abs="1.606553" NOx_abs="42.599256" fuel_abs="46.613245" electricity_abs="0"/>
    </tripinfo>
    <tripinfo id="h11737c1:1" depart="57665.00" departLane="272042143_1" departPos="5.10" departSpeed="0.00" departDelay="1.50" arrival="57806.00" arrivalLane="-315358254#1_1" arrivalPos="137.16" arrivalSpeed="14.18" duration="141.00" routeLength="1596.88" waitingTime="11.00" waitingCount="2" stopTime="0.00" timeLoss="34.94" rerouteNo="1" devices="tripinfo_h11737c1:1 routing_h11737c1:1 emissions_h11737c1:1" vType="default_016" speedFactor="1.10" vaporized="">
        <emissions CO_abs="4838.443700" CO2_abs="355170.142060" HC_abs="30.403018" PMx_abs="6.174256" NOx_abs="142.716848" fuel_abs="152.672263" electricity_abs="0"/>
    </tripinfo>
    <tripinfo id="carIn82220:1" depart="57619.00" departLane="-306240162#1_0" departPos="5.10" departSpeed="0.00" departDelay="3.50" arrival="57808.00" arrivalLane="386687235_1" arrivalPos="80.84" arrivalSpeed="13.62" duration="189.00" routeLength="2257.41" waitingTime="10.00" waitingCount="1" stopTime="0.00" timeLoss="37.88" rerouteNo="1" devices="tripinfo_carIn82220:1 routing_carIn82220:1 emissions_carIn82220:1" vType="default_016" speedFactor="0.98" vaporized="">
        <emissions CO_abs="7552.318231" CO2_abs="533576.415238" HC_abs="46.969312" PMx_abs="9.460792" NOx_abs="215.947488" fuel_abs="229.361313" electricity_abs="0"/>
    </tripinfo>
    <tripinfo id="carIn126288:1" depart="57674.00" departLane="272042143_1" departPos="5.10" departSpeed="0.00" departDelay="0.00" arrival="57810.00" arrivalLane="-315358254#1_1" arrivalPos="137.16" arrivalSpeed="12.20" duration="136.00" routeLength="1596.88" waitingTime="0.00" waitingCount="0" stopTime="0.00" timeLoss="14.01" rerouteNo="1" devices="tripinfo_carIn126288:1 routing_carIn126288:1 emissions_carIn126288:1" vType="default_016" speedFactor="0.96" vaporized="">
        <emissions CO_abs="3779.852654" CO2_abs="318657.440605" HC_abs="24.616117" PMx_abs="4.946636" NOx_abs="124.630377" fuel_abs="136.977415" electricity_abs="0"/>
    </tripinfo>
    <tripinfo id="carIn129809:1" depart="57729.00" departLane="-447569998#1_1" departPos="5.10" departSpeed="0.00" departDelay="1.00" arrival="57812.00" arrivalLane="-315358244_1" arrivalPos="33.95" arrivalSpeed="12.60" duration="83.00" routeLength="706.49" waitingTime="5.00" waitingCount="1" stopTime="0.00" timeLoss="16.58" rerouteNo="1" devices="tripinfo_carIn129809:1 routing_carIn129809:1 emissions_carIn129809:1" vType="default_015" speedFactor="0.92" vaporized="">
        <emissions CO_abs="2922.592010" CO2_abs="172404.398555" HC_abs="17.306702" PMx_abs="2.803382" NOx_abs="68.958038" fuel_abs="74.109875" electricity_abs="0"/>
    </tripinfo>
    <tripinfo id="carIn86816:1" depart="57617.00" departLane="128361102#0_1" departPos="5.10" departSpeed="0.00" departDelay="0.80" arrival="57815.00" arrivalLane="201956811#0_1" arrivalPos="40.40" arrivalSpeed="12.57" duration="198.00" routeLength="2067.33" waitingTime="20.00" waitingCount="1" stopTime="0.00" timeLoss="43.51" rerouteNo="1" devices="tripinfo_carIn86816:1 routing_carIn86816:1 emissions_carIn86816:1" vType="default_016" speedFactor="0.98" vaporized="">
        <emissions CO_abs="8071.334659" CO2_abs="468250.573075" HC_abs="47.684328" PMx_abs="7.921574" NOx_abs="187.848509" fuel_abs="201.282311" electricity_abs="0"/>
    </tripinfo>
    <tripinfo id="carIn102915:1" depart="57643.00" departLane="128361102#0_1" departPos="5.10" departSpeed="0.00" departDelay="0.40" arrival="57817.00" arrivalLane="201956811#0_1" arrivalPos="40.40" arrivalSpeed="13.38" duration="174.00" routeLength="2067.33" waitingTime="0.00" waitingCount="0" stopTime="0.00" timeLoss="31.67" rerouteNo="1" devices="tripinfo_carIn102915:1 routing_carIn102915:1 emissions_carIn102915:1" vType="default_016" speedFactor="1.06" vaporized="">
        <emissions CO_abs="6032.260730" CO2_abs="458927.779837" HC_abs="38.237713" PMx_abs="7.812839" NOx_abs="184.405687" fuel_abs="197.273130" electricity_abs="0"/>
    </tripinfo>
    <tripinfo id="randUni33724:1" depart="57646.00" departLane="128361102#0_1" departPos="5.10" departSpeed="0.00" departDelay="1.20" arrival="57820.00" arrivalLane="201956811#0_1" arrivalPos="40.40" arrivalSpeed="13.54" duration="174.00" routeLength="2067.33" waitingTime="0.00" waitingCount="0" stopTime="0.00" timeLoss="28.03" rerouteNo="1" devices="tripinfo_randUni33724:1 routing_randUni33724:1 emissions_randUni33724:1" vType="random_016" speedFactor="1.03" vaporized="">
        <emissions CO_abs="6074.026089" CO2_abs="452113.726496" HC_abs="38.231102" PMx_abs="7.823773" NOx_abs="182.605790" fuel_abs="194.343960" electricity_abs="0"/>
    </tripinfo>
    <tripinfo id="h16072c2:3" depart="57663.00" departLane="315358254#0_1" departPos="5.10" departSpeed="0.00" departDelay="2.50" arrival="57824.00" arrivalLane="386687235_1" arrivalPos="80.84" arrivalSpeed="12.76" duration="161.00" routeLength="1611.92" waitingTime="11.00" waitingCount="2" stopTime="0.00" timeLoss="36.95" rerouteNo="1" devices="tripinfo_h16072c2:3 routing_h16072c2:3 emissions_h16072c2:3" vType="default_016" speedFactor="0.95" vaporized="">
        <emissions CO_abs="5543.573784" CO2_abs="362051.835990" HC_abs="33.691313" PMx_abs="6.003857" NOx_abs="144.848939" fuel_abs="155.631243" electricity_abs="0"/>
    </tripinfo>
    <tripinfo id="h3154c1:1" depart="57658.00" departLane="24634507_1" departPos="5.10" departSpeed="0.00" departDelay="0.00" arrival="57826.00" arrivalLane="-266565295#5_1" arrivalPos="172.76" arrivalSpeed="14.41" duration="168.00" routeLength="1206.22" waitingTime="61.00" waitingCount="2" stopTime="0.00" timeLoss="84.33" rerouteNo="1" devices="tripinfo_h3154c1:1 routing_h3154c1:1 emissions_h3154c1:1" vType="default_016" speedFactor="1.07" vaporized="">
        <emissions CO_abs="13855.004891" CO2_abs="470764.125232" HC_abs="74.158483" PMx_abs="9.421191" NOx_abs="198.986659" fuel_abs="202.365395" electricity_abs="0"/>
    </tripinfo>
    <tripinfo id="h17600c1:1" depart="57662.00" departLane="272042143_1" departPos="5.10" departSpeed="0.00" departDelay="0.30" arrival="57827.00" arrivalLane="201238729#3_1" arrivalPos="431.02" arrivalSpeed="14.83" duration="165.00" routeLength="2100.26" waitingTime="6.00" waitingCount="1" stopTime="0.00" timeLoss="25.52" rerouteNo="1" devices="tripinfo_h17600c1:1 routing_h17600c1:1 emissions_h17600c1:1" vType="default_016" speedFactor="1.09" vaporized="">
        <emissions CO_abs="4511.793485" CO2_abs="408779.025600" HC_abs="29.931241" PMx_abs="6.593495" NOx_abs="159.648982" fuel_abs="175.716376" electricity_abs="0"/>
    </tripinfo>
    <tripinfo id="S5R_frequency1.2" depart="57647.00" departLane="315358250#0_1" departPos="12.10" departSpeed="0.00" departDelay="35.40" arrival="57843.00" arrivalLane="386687235_1" arrivalPos="80.84" arrivalSpeed="13.14" duration="196.00" routeLength="1115.62" waitingTime="83.00" waitingCount="3" stopTime="0.00" timeLoss="114.18" rerouteNo="1" devices="tripinfo_S5R_frequency1.2 routing_S5R_frequency1.2 emissions_S5R_frequency1.2" vType="bus" speedFactor="1.00" vaporized="">
        <emissions CO_abs="3510.312024" CO2_abs="1629807.380748" HC_abs="784.040049" PMx_abs="364.062787" NOx_abs="14178.152362" fuel_abs="694.914297" electricity_abs="0"/>
    </tripinfo>
    <tripinfo id="carIn50326:1" depart="57651.00" departLane="128361102#0_1" departPos="5.10" departSpeed="0.00" departDelay="0.30" arrival="57843.00" arrivalLane="18809673#0_1" arrivalPos="473.56" arrivalSpeed="10.92" duration="192.00" routeLength="1591.07" waitingTime="9.00" waitingCount="1" stopTime="0.00" timeLoss="31.34" rerouteNo="1" devices="tripinfo_carIn50326:1 routing_carIn50326:1 emissions_carIn50326:1" vType="default_016" speedFactor="0.81" vaporized="">
        <emissions CO_abs="6450.969181" CO2_abs="347919.133056" HC_abs="37.369381" PMx_abs="5.419394" NOx_abs="138.402209" fuel_abs="149.557517" electricity_abs="0"/>
    </tripinfo>
    <tripinfo id="randUni15030:1" depart="57735.00" departLane="386687232#0_1" departPos="5.10" departSpeed="0.00" departDelay="0.10" arrival="57843.00" arrivalLane="26677539_1" arrivalPos="151.98" arrivalSpeed="6.64" duration="108.00" routeLength="919.89" waitingTime="0.00" waitingCount="0" stopTime="0.00" timeLoss="11.73" rerouteNo="1" devices="tripinfo_randUni15030:1 routing_randUni15030:1 emissions_randUni15030:1" vType="random_016" speedFactor="0.86" vaporized="">
        <emissions CO_abs="3514.583878" CO2_abs="192710.545080" HC_abs="20.426623" PMx_abs="2.971057" NOx_abs="76.543105" fuel_abs="82.839096" electricity_abs="0"/>
    </tripinfo>
    <tripinfo id="carIn118591:1" depart="57689.00" departLane="315358244_1" departPos="5.10" departSpeed="0.00" departDelay="0.20" arrival="57845.00" arrivalLane="386687235_1" arrivalPos="80.84" arrivalSpeed="11.98" duration="156.00" routeLength="1186.14" waitingTime="23.00" waitingCount="4" stopTime="0.00" timeLoss="60.04" rerouteNo="1" devices="tripinfo_carIn118591:1 routing_carIn118591:1 emissions_carIn118591:1" vType="default_016" speedFactor="0.90" vaporized="">
        <emissions CO_abs="8063.273324" CO2_abs="347776.721961" HC_abs="44.822408" PMx_abs="6.241075" NOx_abs="143.330282" fuel_abs="149.496458" electricity_abs="0"/>
    </tripinfo>
    <tripinfo id="h645c1:1" depart="57622.00" departLane="266565295#5_1" departPos="5.10" departSpeed="0.00" departDelay="0.40" arrival="57848.00" arrivalLane="-315358244_1" arrivalPos="33.95" arrivalSpeed="12.35" duration="226.00" routeLength="1910.83" waitingTime="60.00" waitingCount="1" stopTime="0.00" timeLoss="80.23" rerouteNo="1" devices="tripinfo_h645c1:1 routing_h645c1:1 emissions_h645c1:1" vType="default_016" speedFactor="0.95" vaporized="">
        <emissions CO_abs="14284.319179" CO2_abs="531155.887651" HC_abs="77.429887" PMx_abs="9.775312" NOx_abs="218.561053" fuel_abs="228.325948" electricity_abs="0"/>
    </tripinfo>
    <tripinfo id="carIn12858:1" depart="57661.00" departLane="128361109#1_1" departPos="5.10" departSpeed="0.00" departDelay="0.90" arrival="57850.00" arrivalLane="399835085#1_1" arrivalPos="212.23" arrivalSpeed="4.15" duration="189.00" routeLength="1738.12" waitingTime="34.00" waitingCount="2" stopTime="0.00" timeLoss="67.31" rerouteNo="1" devices="tripinfo_carIn12858:1 routing_carIn12858:1 emissions_carIn12858:1" vType="default_016" speedFactor="0.94" vaporized="">
        <emissions CO_abs="11708.312288" CO2_abs="544035.650317" HC_abs="66.163527" PMx_abs="10.612456" NOx_abs="226.767125" fuel_abs="233.859195" electricity_abs="0"/>
    </tripinfo>
    <tripinfo id="carIn82278:1" depart="57702.00" departLane="-306240162#1_0" departPos="5.10" departSpeed="0.00" departDelay="0.70" arrival="57853.00" arrivalLane="399835085#1_1" arrivalPos="212.23" arrivalSpeed="6.79" duration="151.00" routeLength="1093.26" waitingTime="37.00" waitingCount="1" stopTime="0.00" timeLoss="67.83" rerouteNo="1" devices="tripinfo_carIn82278:1 routing_carIn82278:1 emissions_carIn82278:1" vType="default_016" speedFactor="0.95" vaporized="">
        <emissions CO_abs="11326.839366" CO2_abs="429004.371220" HC_abs="61.698706" PMx_abs="8.547069" NOx_abs="180.999871" fuel_abs="184.413261" electricity_abs="0"/>
    </tripinfo>
    <tripinfo id="h17549c1:1" depart="57680.00" departLane="-447569998#1_1" departPos="5.10" departSpeed="0.00" departDelay="0.00" arrival="57858.00" arrivalLane="-315358254#1_1" arrivalPos="137.16" arrivalSpeed="12.22" duration="178.00" routeLength="1746.60" waitingTime="10.00" waitingCount="2" stopTime="0.00" timeLoss="32.16" rerouteNo="1" devices="tripinfo_h17549c1:1 routing_h17549c1:1 emissions_h17549c1:1" vType="default_016" speedFactor="0.94" vaporized="">
        <emissions CO_abs="5781.791093" CO2_abs="383863.753676" HC_abs="35.250635" PMx_abs="6.184398" NOx_abs="152.573894" fuel_abs="165.007470" electricity_abs="0"/>
    </tripinfo>
    <tripinfo id="carIn12152:1" depart="57647.00" departLane="24599188#0.94_1" departPos="5.10" departSpeed="0.00" departDelay="0.50" arrival="57861.00" arrivalLane="-315358254#1_1" arrivalPos="137.16" arrivalSpeed="14.42" duration="214.00" routeLength="2034.31" waitingTime="41.00" waitingCount="1" stopTime="0.00" timeLoss="62.52" rerouteNo="1" devices="tripinfo_carIn12152:1 routing_carIn12152:1 emissions_carIn12152:1" vType="default_016" speedFactor="1.05" vaporized="">
        <emissions CO_abs="11402.255965" CO2_abs="521916.472923" HC_abs="64.095122" PMx_abs="9.463666" NOx_abs="213.470400" fuel_abs="224.352227" electricity_abs="0"/>
    </tripinfo>
    <tripinfo id="carIn73855:1" depart="57743.00" departLane="386687232#0_1" departPos="5.10" departSpeed="0.00" departDelay="0.50" arrival="57864.00" arrivalLane="-315358244_1" arrivalPos="33.95" arrivalSpeed="12.99" duration="121.00" routeLength="1157.39" waitingTime="16.00" waitingCount="2" stopTime="0.00" timeLoss="35.20" rerouteNo="1" devices="tripinfo_carIn73855:1 routing_carIn73855:1 emissions_carIn73855:1" vType="default_016" speedFactor="0.99" vaporized="">
        <emissions CO_abs="4543.099413" CO2_abs="274791.605828" HC_abs="27.114461" PMx_abs="4.730692" NOx_abs="111.032499" fuel_abs="118.121670" electricity_abs="0"/>
    </tripinfo>
    <tripinfo id="carIn126378:1" depart="57746.00" departLane="386687232#0_1" departPos="5.10" departSpeed="0.00" departDelay="1.80" arrival="57864.00" arrivalLane="-315358244_2" arrivalPos="33.95" arrivalSpeed="11.67" duration="118.00" routeLength="1157.39" waitingTime="7.00" waitingCount="1" stopTime="0.00" timeLoss="26.87" rerouteNo="1" devices="tripinfo_carIn126378:1 routing_carIn126378:1 emissions_carIn126378:1" vType="default_016" speedFactor="0.93" vaporized="">
        <emissions CO_abs="4053.095898" CO2_abs="261297.409915" HC_abs="24.535645" PMx_abs="4.264532" NOx_abs="104.290587" fuel_abs="112.321175" electricity_abs="0"/>
    </tripinfo>
    <tripinfo id="50R_frequency3.17" depart="57674.00" departLane="-18809673#6_1" departPos="12.10" departSpeed="0.00" departDelay="0.70" arrival="57865.00" arrivalLane="201956811#0_1" arrivalPos="40.40" arrivalSpeed="11.27" duration="191.00" routeLength="1954.47" waitingTime="16.00" waitingCount="2" stopTime="0.00" timeLoss="46.74" rerouteNo="1" devices="tripinfo_50R_frequency3.17 routing_50R_frequency3.17 emissions_50R_frequency3.17" vType="bus" speedFactor="1.00" vaporized="">
        <emissions CO_abs="3401.016350" CO2_abs="2083686.160642" HC_abs="716.606656" PMx_abs="363.311629" NOx_abs="16300.126859" fuel_abs="888.649677" electricity_abs="0"/>
    </tripinfo>