<?xml version="1.0" encoding="UTF-8"?>

<!-- generated on 2021-10-26 20:04:27 by Eclipse SUMO sumo Version 1.10.0
<configuration xmlns:xsi="http://www.w3.org/2001/XMLSchema-instance" xsi:noNamespaceSchemaLocation="http://sumo.dlr.de/xsd/sumoConfiguration.xsd">

    <input>
        <net-file value="/Users/behradkoohy/sumo-scratchpad/RESCO/environments/ingolstadt21/ingolstadt21.net.xml"/>
        <route-files value="/Users/behradkoohy/sumo-scratchpad/RESCO/environments/ingolstadt21/ingolstadt21.rou.xml"/>
    </input>

    <output>
        <tripinfo-output value="/Users/behradkoohy/sumo-scratchpad/RESCO/logs/MPLight-tr0-ingolstadt21-21-mplight-pressure/tripinfo_65.xml"/>
        <tripinfo-output.write-unfinished value="true"/>
    </output>

    <time>
        <begin value="57600"/>
        <end value="61200"/>
    </time>

    <processing>
        <time-to-teleport value="-1"/>
    </processing>

    <report>
        <no-warnings value="true"/>
        <no-step-log value="true"/>
    </report>

    <emissions>
        <device.emissions.probability value="1"/>
    </emissions>

    <traci_server>
        <remote-port value="64067"/>
    </traci_server>

    <random_number>
        <random value="true"/>
    </random_number>

</configuration>
-->

<tripinfos xmlns:xsi="http://www.w3.org/2001/XMLSchema-instance" xsi:noNamespaceSchemaLocation="http://sumo.dlr.de/xsd/tripinfo_file.xsd">
    <tripinfo id="h15454c2:3" depart="57612.00" departLane="24608844_1" departPos="5.10" departSpeed="0.00" departDelay="0.50" arrival="57655.00" arrivalLane="32978638#0_1" arrivalPos="49.29" arrivalSpeed="12.37" duration="43.00" routeLength="354.79" waitingTime="0.00" waitingCount="0" stopTime="0.00" timeLoss="4.54" rerouteNo="1" devices="tripinfo_h15454c2:3 routing_h15454c2:3 emissions_h15454c2:3" vType="default_016" speedFactor="0.90" vaporized="">
        <emissions CO_abs="1818.956747" CO2_abs="99343.316498" HC_abs="10.569522" PMx_abs="1.565581" NOx_abs="39.644692" fuel_abs="42.703955" electricity_abs="0"/>
    </tripinfo>
    <tripinfo id="carIn60260:1" depart="57606.00" departLane="315358254#0_1" departPos="5.10" departSpeed="0.00" departDelay="0.90" arrival="57672.00" arrivalLane="399835085#1_1" arrivalPos="212.23" arrivalSpeed="7.86" duration="66.00" routeLength="430.98" waitingTime="11.00" waitingCount="1" stopTime="0.00" timeLoss="20.71" rerouteNo="1" devices="tripinfo_carIn60260:1 routing_carIn60260:1 emissions_carIn60260:1" vType="default_016" speedFactor="1.02" vaporized="">
        <emissions CO_abs="3607.583366" CO2_abs="139494.590831" HC_abs="19.668560" PMx_abs="2.538748" NOx_abs="58.079938" fuel_abs="59.963836" electricity_abs="0"/>
    </tripinfo>
    <tripinfo id="carIn53971:1" depart="57640.00" departLane="272042143_1" departPos="5.10" departSpeed="0.00" departDelay="0.80" arrival="57696.00" arrivalLane="24634414#1_1" arrivalPos="162.19" arrivalSpeed="7.29" duration="56.00" routeLength="493.04" waitingTime="0.00" waitingCount="0" stopTime="0.00" timeLoss="8.30" rerouteNo="1" devices="tripinfo_carIn53971:1 routing_carIn53971:1 emissions_carIn53971:1" vType="default_016" speedFactor="0.96" vaporized="">
        <emissions CO_abs="2408.039888" CO2_abs="135353.722457" HC_abs="14.113350" PMx_abs="2.287732" NOx_abs="54.982549" fuel_abs="58.183181" electricity_abs="0"/>
    </tripinfo>
    <tripinfo id="carIn22761:1" depart="57616.00" departLane="-306240162#1_0" departPos="5.10" departSpeed="0.00" departDelay="2.10" arrival="57699.00" arrivalLane="399835085#1_1" arrivalPos="212.23" arrivalSpeed="5.49" duration="83.00" routeLength="1093.26" waitingTime="0.00" waitingCount="0" stopTime="0.00" timeLoss="19.06" rerouteNo="1" devices="tripinfo_carIn22761:1 routing_carIn22761:1 emissions_carIn22761:1" vType="default_016" speedFactor="1.22" vaporized="">
        <emissions CO_abs="4982.165654" CO2_abs="304210.471315" HC_abs="30.038741" PMx_abs="6.215216" NOx_abs="126.789873" fuel_abs="130.766359" electricity_abs="0"/>
    </tripinfo>
    <tripinfo id="h7800c1:5" depart="57696.00" departLane="-447569998#1_1" departPos="5.10" departSpeed="0.00" departDelay="0.00" arrival="57727.00" arrivalLane="-447569998#1_2" arrivalPos="180.76" arrivalSpeed="6.46" duration="31.00" routeLength="175.66" waitingTime="0.00" waitingCount="0" stopTime="0.00" timeLoss="3.83" rerouteNo="1" devices="tripinfo_h7800c1:5 routing_h7800c1:5 emissions_h7800c1:5" vType="default_016" speedFactor="0.79" vaporized="">
        <emissions CO_abs="1492.296147" CO2_abs="53453.480482" HC_abs="8.015220" PMx_abs="0.893842" NOx_abs="21.973428" fuel_abs="22.977969" electricity_abs="0"/>
    </tripinfo>
    <tripinfo id="h3568c1:3" depart="57656.00" departLane="266565295#5_1" departPos="5.10" departSpeed="0.00" departDelay="0.80" arrival="57732.00" arrivalLane="-24634415_1" arrivalPos="62.03" arrivalSpeed="15.16" duration="76.00" routeLength="807.40" waitingTime="1.00" waitingCount="1" stopTime="0.00" timeLoss="19.60" rerouteNo="1" devices="tripinfo_h3568c1:3 routing_h3568c1:3 emissions_h3568c1:3" vType="default_016" speedFactor="1.14" vaporized="">
        <emissions CO_abs="4038.556643" CO2_abs="258916.075018" HC_abs="24.418049" PMx_abs="4.755484" NOx_abs="106.671014" fuel_abs="111.296736" electricity_abs="0"/>
    </tripinfo>
    <tripinfo id="h3688c1:1" depart="57625.00" departLane="201201950#1_1" departPos="5.10" departSpeed="0.00" departDelay="0.00" arrival="57746.00" arrivalLane="32978638#0_1" arrivalPos="49.29" arrivalSpeed="13.02" duration="121.00" routeLength="1089.75" waitingTime="21.00" waitingCount="2" stopTime="0.00" timeLoss="37.39" rerouteNo="1" devices="tripinfo_h3688c1:1 routing_h3688c1:1 emissions_h3688c1:1" vType="default_016" speedFactor="0.96" vaporized="">
        <emissions CO_abs="5898.677552" CO2_abs="301705.443457" HC_abs="33.917885" PMx_abs="5.348090" NOx_abs="123.121393" fuel_abs="129.691350" electricity_abs="0"/>
    </tripinfo>
    <tripinfo id="h12244c1:3" depart="57612.00" departLane="315358244_1" departPos="5.10" departSpeed="0.00" departDelay="0.40" arrival="57748.00" arrivalLane="386687235_1" arrivalPos="80.84" arrivalSpeed="12.17" duration="136.00" routeLength="1186.14" waitingTime="18.00" waitingCount="2" stopTime="0.00" timeLoss="39.92" rerouteNo="1" devices="tripinfo_h12244c1:3 routing_h12244c1:3 emissions_h12244c1:3" vType="default_016" speedFactor="0.90" vaporized="">
        <emissions CO_abs="5721.712892" CO2_abs="298383.527236" HC_abs="33.028290" PMx_abs="5.244197" NOx_abs="121.982278" fuel_abs="128.263309" electricity_abs="0"/>
    </tripinfo>
    <tripinfo id="h9563c2:5" depart="57631.00" departLane="315358244_1" departPos="5.10" departSpeed="0.00" departDelay="0.70" arrival="57750.00" arrivalLane="386687235_1" arrivalPos="80.84" arrivalSpeed="13.93" duration="119.00" routeLength="1186.14" waitingTime="8.00" waitingCount="2" stopTime="0.00" timeLoss="35.23" rerouteNo="1" devices="tripinfo_h9563c2:5 routing_h9563c2:5 emissions_h9563c2:5" vType="default_016" speedFactor="1.04" vaporized="">
        <emissions CO_abs="4820.068501" CO2_abs="322070.948745" HC_abs="29.387311" PMx_abs="5.478638" NOx_abs="129.691184" fuel_abs="138.444778" electricity_abs="0"/>
    </tripinfo>
    <tripinfo id="h7181c1:1" depart="57660.00" departLane="315358254#0_1" departPos="5.10" departSpeed="0.00" departDelay="0.10" arrival="57750.00" arrivalLane="306240162#0_0" arrivalPos="220.43" arrivalSpeed="16.54" duration="90.00" routeLength="932.35" waitingTime="23.00" waitingCount="2" stopTime="0.00" timeLoss="41.83" rerouteNo="1" devices="tripinfo_h7181c1:1 routing_h7181c1:1 emissions_h7181c1:1" vType="default_016" speedFactor="1.06" vaporized="">
        <emissions CO_abs="6441.772092" CO2_abs="309740.802013" HC_abs="36.781922" PMx_abs="6.434595" NOx_abs="130.804366" fuel_abs="133.144501" electricity_abs="0"/>
    </tripinfo>
    <tripinfo id="carIn30817:1" depart="57681.00" departLane="315358244_1" departPos="5.10" departSpeed="0.00" departDelay="0.20" arrival="57752.00" arrivalLane="447569997#1_1" arrivalPos="180.93" arrivalSpeed="7.97" duration="71.00" routeLength="718.04" waitingTime="0.00" waitingCount="0" stopTime="0.00" timeLoss="6.84" rerouteNo="1" devices="tripinfo_carIn30817:1 routing_carIn30817:1 emissions_carIn30817:1" vType="default_016" speedFactor="0.97" vaporized="">
        <emissions CO_abs="2382.890169" CO2_abs="153611.612831" HC_abs="14.404906" PMx_abs="2.410807" NOx_abs="60.771479" fuel_abs="66.031550" electricity_abs="0"/>
    </tripinfo>
    <tripinfo id="carIn121703:1" depart="57647.00" departLane="386687232#0_1" departPos="5.10" departSpeed="0.00" departDelay="0.30" arrival="57754.00" arrivalLane="-315358244_1" arrivalPos="33.95" arrivalSpeed="14.07" duration="107.00" routeLength="1157.39" waitingTime="13.00" waitingCount="1" stopTime="0.00" timeLoss="27.13" rerouteNo="1" devices="tripinfo_carIn121703:1 routing_carIn121703:1 emissions_carIn121703:1" vType="default_016" speedFactor="1.05" vaporized="">
        <emissions CO_abs="4533.098741" CO2_abs="271498.022901" HC_abs="26.935386" PMx_abs="4.722250" NOx_abs="109.257747" fuel_abs="116.705922" electricity_abs="0"/>
    </tripinfo>
    <tripinfo id="h317c2:1" depart="57707.00" departLane="-32978638#0_1" departPos="5.10" departSpeed="0.00" departDelay="0.10" arrival="57754.00" arrivalLane="-266565295#5_1" arrivalPos="172.76" arrivalSpeed="14.51" duration="47.00" routeLength="370.53" waitingTime="12.00" waitingCount="1" stopTime="0.00" timeLoss="21.74" rerouteNo="1" devices="tripinfo_h317c2:1 routing_h317c2:1 emissions_h317c2:1" vType="default_016" speedFactor="1.09" vaporized="">
        <emissions CO_abs="3788.780508" CO2_abs="162259.428512" HC_abs="21.078162" PMx_abs="3.190639" NOx_abs="68.308434" fuel_abs="69.749010" electricity_abs="0"/>
    </tripinfo>
    <tripinfo id="h4538c1:1" depart="57701.00" departLane="-10427692#1_1" departPos="5.10" departSpeed="0.00" departDelay="0.00" arrival="57756.00" arrivalLane="-128361102#1_1" arrivalPos="274.68" arrivalSpeed="13.30" duration="55.00" routeLength="440.74" waitingTime="13.00" waitingCount="1" stopTime="0.00" timeLoss="23.77" rerouteNo="1" devices="tripinfo_h4538c1:1 routing_h4538c1:1 emissions_h4538c1:1" vType="default_016" speedFactor="1.03" vaporized="">
        <emissions CO_abs="3557.889702" CO2_abs="156457.814961" HC_abs="19.834020" PMx_abs="2.900099" NOx_abs="64.536076" fuel_abs="67.255325" electricity_abs="0"/>
    </tripinfo>
    <tripinfo id="carIn27009:1" depart="57673.00" departLane="-447569998#1_1" departPos="5.10" departSpeed="0.00" departDelay="0.50" arrival="57761.00" arrivalLane="-26677539_1" arrivalPos="152.75" arrivalSpeed="8.36" duration="88.00" routeLength="699.63" waitingTime="0.00" waitingCount="0" stopTime="0.00" timeLoss="10.23" rerouteNo="1" devices="tripinfo_carIn27009:1 routing_carIn27009:1 emissions_carIn27009:1" vType="default_015" speedFactor="1.07" vaporized="">
        <emissions CO_abs="3539.317307" CO2_abs="184215.776083" HC_abs="20.364594" PMx_abs="3.008272" NOx_abs="74.695131" fuel_abs="79.187362" electricity_abs="0"/>
    </tripinfo>
    <tripinfo id="h5979c1:5" depart="57673.00" departLane="399835085#1_1" departPos="5.10" departSpeed="0.00" departDelay="4.00" arrival="57767.00" arrivalLane="-315358254#1_1" arrivalPos="137.16" arrivalSpeed="13.15" duration="94.00" routeLength="659.33" waitingTime="6.00" waitingCount="1" stopTime="0.00" timeLoss="20.25" rerouteNo="1" devices="tripinfo_h5979c1:5 routing_h5979c1:5 emissions_h5979c1:5" vType="default_016" speedFactor="0.99" vaporized="">
        <emissions CO_abs="4129.370615" CO2_abs="187337.041736" HC_abs="23.138552" PMx_abs="3.214866" NOx_abs="76.876183" fuel_abs="80.529301" electricity_abs="0"/>
    </tripinfo>
    <tripinfo id="S5R_frequency1.2" depart="57624.00" departLane="315358250#0_1" departPos="12.10" departSpeed="0.00" departDelay="12.40" arrival="57770.00" arrivalLane="386687235_1" arrivalPos="80.84" arrivalSpeed="13.88" duration="146.00" routeLength="1115.62" waitingTime="24.00" waitingCount="3" stopTime="0.00" timeLoss="64.56" rerouteNo="1" devices="tripinfo_S5R_frequency1.2 routing_S5R_frequency1.2 emissions_S5R_frequency1.2" vType="bus" speedFactor="1.00" vaporized="">
        <emissions CO_abs="2906.439651" CO2_abs="1718809.113314" HC_abs="603.818475" PMx_abs="308.290271" NOx_abs="13632.670536" fuel_abs="733.002774" electricity_abs="0"/>
    </tripinfo>
    <tripinfo id="carIn107084:1" depart="57601.00" departLane="124812856#0_1" departPos="5.10" departSpeed="0.00" departDelay="0.70" arrival="57772.00" arrivalLane="-128361102#1_1" arrivalPos="274.68" arrivalSpeed="15.57" duration="171.00" routeLength="2250.49" waitingTime="6.00" waitingCount="1" stopTime="0.00" timeLoss="26.31" rerouteNo="1" devices="tripinfo_carIn107084:1 routing_carIn107084:1 emissions_carIn107084:1" vType="default_016" speedFactor="1.14" vaporized="">
        <emissions CO_abs="5612.006090" CO2_abs="472532.577686" HC_abs="36.498479" PMx_abs="8.218206" NOx_abs="188.817870" fuel_abs="203.120647" electricity_abs="0"/>
    </tripinfo>
    <tripinfo id="h3326c1:2" depart="57656.00" departLane="22716069#0_1" departPos="5.10" departSpeed="0.00" departDelay="0.00" arrival="57779.00" arrivalLane="24634517#13_1" arrivalPos="111.62" arrivalSpeed="11.88" duration="123.00" routeLength="1312.81" waitingTime="0.00" waitingCount="0" stopTime="0.00" timeLoss="14.67" rerouteNo="1" devices="tripinfo_h3326c1:2 routing_h3326c1:2 emissions_h3326c1:2" vType="default_016" speedFactor="0.90" vaporized="">
        <emissions CO_abs="4184.130621" CO2_abs="294148.094134" HC_abs="25.916217" PMx_abs="4.855188" NOx_abs="117.924082" fuel_abs="126.441929" electricity_abs="0"/>
    </tripinfo>
    <tripinfo id="carIn12365:1" depart="57713.00" departLane="315358244_1" departPos="5.10" departSpeed="0.00" departDelay="0.50" arrival="57782.00" arrivalLane="447569997#1_1" arrivalPos="180.93" arrivalSpeed="8.63" duration="69.00" routeLength="718.04" waitingTime="1.00" waitingCount="1" stopTime="0.00" timeLoss="10.72" rerouteNo="1" devices="tripinfo_carIn12365:1 routing_carIn12365:1 emissions_carIn12365:1" vType="default_016" speedFactor="1.06" vaporized="">
        <emissions CO_abs="2575.408680" CO2_abs="163289.993921" HC_abs="15.541779" PMx_abs="2.744467" NOx_abs="65.608082" fuel_abs="70.191679" electricity_abs="0"/>
    </tripinfo>
    <tripinfo id="h3154c1:1" depart="57658.00" departLane="24634507_1" departPos="5.10" departSpeed="0.00" departDelay="0.00" arrival="57787.00" arrivalLane="-266565295#5_1" arrivalPos="172.76" arrivalSpeed="12.83" duration="129.00" routeLength="1206.22" waitingTime="18.00" waitingCount="2" stopTime="0.00" timeLoss="37.79" rerouteNo="1" devices="tripinfo_h3154c1:1 routing_h3154c1:1 emissions_h3154c1:1" vType="default_016" speedFactor="0.98" vaporized="">
        <emissions CO_abs="6047.645502" CO2_abs="323107.832841" HC_abs="35.115226" PMx_abs="5.856378" NOx_abs="132.861553" fuel_abs="138.890950" electricity_abs="0"/>
    </tripinfo>
    <tripinfo id="carIn107282:1" depart="57749.00" departLane="-447569998#1_1" departPos="5.10" departSpeed="0.00" departDelay="0.00" arrival="57794.00" arrivalLane="315358242#0_1" arrivalPos="165.37" arrivalSpeed="13.73" duration="45.00" routeLength="448.50" waitingTime="0.00" waitingCount="0" stopTime="0.00" timeLoss="4.12" rerouteNo="1" devices="tripinfo_carIn107282:1 routing_carIn107282:1 emissions_carIn107282:1" vType="default_016" speedFactor="1.03" vaporized="">
        <emissions CO_abs="1655.046709" CO2_abs="100220.198909" HC_abs="9.872352" PMx_abs="1.687102" NOx_abs="40.510327" fuel_abs="43.080594" electricity_abs="0"/>
    </tripinfo>
    <tripinfo id="carIn86816:1" depart="57617.00" departLane="128361102#0_1" departPos="5.10" departSpeed="0.00" departDelay="0.80" arrival="57796.00" arrivalLane="201956811#0_1" arrivalPos="40.40" arrivalSpeed="14.42" duration="179.00" routeLength="2067.33" waitingTime="12.00" waitingCount="1" stopTime="0.00" timeLoss="34.02" rerouteNo="1" devices="tripinfo_carIn86816:1 routing_carIn86816:1 emissions_carIn86816:1" vType="default_016" speedFactor="1.05" vaporized="">
        <emissions CO_abs="6858.286041" CO2_abs="468153.517566" HC_abs="42.125761" PMx_abs="7.951880" NOx_abs="187.080425" fuel_abs="201.239585" electricity_abs="0"/>
    </tripinfo>
    <tripinfo id="h330c1:1" depart="57736.00" departLane="-32978638#0_1" departPos="5.10" departSpeed="0.00" departDelay="0.20" arrival="57796.00" arrivalLane="-266565295#5_1" arrivalPos="172.76" arrivalSpeed="12.16" duration="60.00" routeLength="370.53" waitingTime="22.00" waitingCount="1" stopTime="0.00" timeLoss="30.35" rerouteNo="1" devices="tripinfo_h330c1:1 routing_h330c1:1 emissions_h330c1:1" vType="default_016" speedFactor="0.92" vaporized="">
        <emissions CO_abs="4975.808977" CO2_abs="159874.288604" HC_abs="26.413935" PMx_abs="3.228348" NOx_abs="68.237646" fuel_abs="68.724628" electricity_abs="0"/>
    </tripinfo>
    <tripinfo id="carIn118591:1" depart="57689.00" departLane="315358244_1" departPos="5.10" departSpeed="0.00" departDelay="0.20" arrival="57809.00" arrivalLane="386687235_1" arrivalPos="80.84" arrivalSpeed="10.42" duration="120.00" routeLength="1186.14" waitingTime="1.00" waitingCount="1" stopTime="0.00" timeLoss="16.36" rerouteNo="1" devices="tripinfo_carIn118591:1 routing_carIn118591:1 emissions_carIn118591:1" vType="default_016" speedFactor="0.84" vaporized="">
        <emissions CO_abs="3503.976800" CO2_abs="245467.322765" HC_abs="21.599855" PMx_abs="3.625162" NOx_abs="95.696972" fuel_abs="105.516764" electricity_abs="0"/>
    </tripinfo>
    <tripinfo id="carIn48184:1" depart="57613.00" departLane="-306240162#1_0" departPos="5.10" departSpeed="0.00" departDelay="0.70" arrival="57813.00" arrivalLane="386687235_1" arrivalPos="80.84" arrivalSpeed="14.50" duration="200.00" routeLength="2257.41" waitingTime="29.00" waitingCount="2" stopTime="0.00" timeLoss="63.13" rerouteNo="1" devices="tripinfo_carIn48184:1 routing_carIn48184:1 emissions_carIn48184:1" vType="default_016" speedFactor="1.08" vaporized="">
        <emissions CO_abs="10784.450571" CO2_abs="604983.189564" HC_abs="63.421174" PMx_abs="11.432115" NOx_abs="248.029241" fuel_abs="260.056942" electricity_abs="0"/>
    </tripinfo>
    <tripinfo id="h16072c2:3" depart="57663.00" departLane="315358254#0_1" departPos="5.10" departSpeed="0.00" departDelay="2.50" arrival="57813.00" arrivalLane="386687235_2" arrivalPos="80.84" arrivalSpeed="12.52" duration="150.00" routeLength="1611.92" waitingTime="9.00" waitingCount="2" stopTime="0.00" timeLoss="30.99" rerouteNo="1" devices="tripinfo_h16072c2:3 routing_h16072c2:3 emissions_h16072c2:3" vType="default_016" speedFactor="0.99" vaporized="">
        <emissions CO_abs="4977.177857" CO2_abs="354872.365711" HC_abs="30.918462" PMx_abs="5.916271" NOx_abs="141.854736" fuel_abs="152.544669" electricity_abs="0"/>
    </tripinfo>
    <tripinfo id="h645c1:1" depart="57622.00" departLane="266565295#5_1" departPos="5.10" departSpeed="0.00" departDelay="0.40" arrival="57814.00" arrivalLane="-315358244_1" arrivalPos="33.95" arrivalSpeed="11.15" duration="192.00" routeLength="1910.83" waitingTime="14.00" waitingCount="2" stopTime="0.00" timeLoss="35.41" rerouteNo="1" devices="tripinfo_h645c1:1 routing_h645c1:1 emissions_h645c1:1" vType="default_016" speedFactor="0.89" vaporized="">
        <emissions CO_abs="5840.655766" CO2_abs="390105.118247" HC_abs="35.628251" PMx_abs="6.081115" NOx_abs="153.556025" fuel_abs="167.690680" electricity_abs="0"/>
    </tripinfo>
    <tripinfo id="carIn129809:1" depart="57729.00" departLane="-447569998#1_1" departPos="5.10" departSpeed="0.00" departDelay="1.00" arrival="57819.00" arrivalLane="-315358244_1" arrivalPos="33.95" arrivalSpeed="13.41" duration="90.00" routeLength="706.49" waitingTime="18.00" waitingCount="1" stopTime="0.00" timeLoss="27.35" rerouteNo="1" devices="tripinfo_carIn129809:1 routing_carIn129809:1 emissions_carIn129809:1" vType="default_015" speedFactor="0.97" vaporized="">
        <emissions CO_abs="5038.643348" CO2_abs="199518.447187" HC_abs="27.579277" PMx_abs="3.549750" NOx_abs="81.776868" fuel_abs="85.766090" electricity_abs="0"/>
    </tripinfo>
    <tripinfo id="carIn81046:1" depart="57611.00" departLane="124812856#0_1" departPos="5.10" departSpeed="0.00" departDelay="2.50" arrival="57821.00" arrivalLane="-128361102#1_1" arrivalPos="274.68" arrivalSpeed="11.66" duration="210.00" routeLength="2250.49" waitingTime="4.00" waitingCount="1" stopTime="0.00" timeLoss="25.42" rerouteNo="1" devices="tripinfo_carIn81046:1 routing_carIn81046:1 emissions_carIn81046:1" vType="default_016" speedFactor="0.89" vaporized="">
        <emissions CO_abs="5423.583345" CO2_abs="438680.408506" HC_abs="34.836970" PMx_abs="6.552417" NOx_abs="170.613576" fuel_abs="188.570746" electricity_abs="0"/>
    </tripinfo>
    <tripinfo id="h19804c1:3" depart="57616.00" departLane="124812856#0_1" departPos="5.10" departSpeed="0.00" departDelay="0.50" arrival="57822.00" arrivalLane="-128361102#1_1" arrivalPos="274.68" arrivalSpeed="11.97" duration="206.00" routeLength="2250.49" waitingTime="1.00" waitingCount="1" stopTime="0.00" timeLoss="29.04" rerouteNo="1" devices="tripinfo_h19804c1:3 routing_h19804c1:3 emissions_h19804c1:3" vType="default_016" speedFactor="0.93" vaporized="">
        <emissions CO_abs="6450.953882" CO2_abs="486856.927927" HC_abs="40.699113" PMx_abs="7.723069" NOx_abs="192.494771" fuel_abs="209.279516" electricity_abs="0"/>
    </tripinfo>
    <tripinfo id="carIn81860:1" depart="57712.00" departLane="128361102#0_1" departPos="5.10" departSpeed="0.00" departDelay="0.60" arrival="57822.00" arrivalLane="-24634517#17_1" arrivalPos="6.43" arrivalSpeed="7.39" duration="110.00" routeLength="1229.64" waitingTime="3.00" waitingCount="1" stopTime="0.00" timeLoss="22.10" rerouteNo="1" devices="tripinfo_carIn81860:1 routing_carIn81860:1 emissions_carIn81860:1" vType="default_016" speedFactor="1.03" vaporized="">
        <emissions CO_abs="3763.835061" CO2_abs="271705.408017" HC_abs="23.464752" PMx_abs="4.557887" NOx_abs="108.599612" fuel_abs="116.794636" electricity_abs="0"/>
    </tripinfo>
    <tripinfo id="carIn77943:1" depart="57608.00" departLane="124812856#0_1" departPos="5.10" departSpeed="0.00" departDelay="2.50" arrival="57824.00" arrivalLane="-128361102#1_1" arrivalPos="274.68" arrivalSpeed="12.67" duration="216.00" routeLength="2250.49" waitingTime="5.00" waitingCount="1" stopTime="0.00" timeLoss="49.29" rerouteNo="1" devices="tripinfo_carIn77943:1 routing_carIn77943:1 emissions_carIn77943:1" vType="default_016" speedFactor="0.99" vaporized="">
        <emissions CO_abs="8252.005481" CO2_abs="574568.050544" HC_abs="51.032906" PMx_abs="9.865559" NOx_abs="232.905133" fuel_abs="246.982178" electricity_abs="0"/>
    </tripinfo>
    <tripinfo id="h3864c1:3" depart="57678.00" departLane="24693977#1_1" departPos="5.10" departSpeed="0.00" departDelay="0.00" arrival="57824.00" arrivalLane="201956820_2" arrivalPos="48.33" arrivalSpeed="13.27" duration="146.00" routeLength="1574.85" waitingTime="0.00" waitingCount="0" stopTime="0.00" timeLoss="18.93" rerouteNo="1" devices="tripinfo_h3864c1:3 routing_h3864c1:3 emissions_h3864c1:3" vType="default_016" speedFactor="1.02" vaporized="">
        <emissions CO_abs="5014.470648" CO2_abs="351980.786856" HC_abs="31.030681" PMx_abs="5.887427" NOx_abs="141.288800" fuel_abs="151.301693" electricity_abs="0"/>
    </tripinfo>
    <tripinfo id="carIn82278:1" depart="57702.00" departLane="-306240162#1_0" departPos="5.10" departSpeed="0.00" departDelay="0.70" arrival="57824.00" arrivalLane="399835085#1_1" arrivalPos="212.23" arrivalSpeed="7.87" duration="122.00" routeLength="1093.26" waitingTime="18.00" waitingCount="2" stopTime="0.00" timeLoss="43.73" rerouteNo="1" devices="tripinfo_carIn82278:1 routing_carIn82278:1 emissions_carIn82278:1" vType="default_016" speedFactor="0.99" vaporized="">
        <emissions CO_abs="7989.730902" CO2_abs="372002.687955" HC_abs="45.219058" PMx_abs="7.341822" NOx_abs="156.365915" fuel_abs="159.908882" electricity_abs="0"/>
    </tripinfo>
    <tripinfo id="h11737c1:1" depart="57665.00" departLane="272042143_1" departPos="5.10" departSpeed="0.00" departDelay="1.50" arrival="57825.00" arrivalLane="-315358254#1_1" arrivalPos="137.16" arrivalSpeed="10.65" duration="160.00" routeLength="1596.88" waitingTime="0.00" waitingCount="0" stopTime="0.00" timeLoss="14.62" rerouteNo="1" devices="tripinfo_h11737c1:1 routing_h11737c1:1 emissions_h11737c1:1" vType="default_016" speedFactor="0.80" vaporized="">
        <emissions CO_abs="4514.081476" CO2_abs="323876.480704" HC_abs="27.995142" PMx_abs="4.744953" NOx_abs="126.230858" fuel_abs="139.221726" electricity_abs="0"/>
    </tripinfo>
    <tripinfo id="carIn50326:1" depart="57651.00" departLane="128361102#0_1" departPos="5.10" departSpeed="0.00" departDelay="0.30" arrival="57827.00" arrivalLane="18809673#0_1" arrivalPos="473.56" arrivalSpeed="15.75" duration="176.00" routeLength="1591.07" waitingTime="40.00" waitingCount="2" stopTime="0.00" timeLoss="67.57" rerouteNo="1" devices="tripinfo_carIn50326:1 routing_carIn50326:1 emissions_carIn50326:1" vType="default_016" speedFactor="1.20" vaporized="">
        <emissions CO_abs="11241.624986" CO2_abs="490818.124894" HC_abs="62.635481" PMx_abs="9.461898" NOx_abs="204.530505" fuel_abs="210.983771" electricity_abs="0"/>
    </tripinfo>
    <tripinfo id="h17600c1:1" depart="57662.00" departLane="272042143_1" departPos="5.10" departSpeed="0.00" departDelay="0.30" arrival="57828.00" arrivalLane="201238729#3_1" arrivalPos="431.02" arrivalSpeed="15.22" duration="166.00" routeLength="2100.26" waitingTime="14.00" waitingCount="1" stopTime="0.00" timeLoss="28.37" rerouteNo="1" devices="tripinfo_h17600c1:1 routing_h17600c1:1 emissions_h17600c1:1" vType="default_016" speedFactor="1.10" vaporized="">
        <emissions CO_abs="5902.854526" CO2_abs="426345.753120" HC_abs="36.634753" PMx_abs="7.084549" NOx_abs="167.678292" fuel_abs="183.268268" electricity_abs="0"/>
    </tripinfo>
    <tripinfo id="carIn3969:1" depart="57628.00" departLane="124812856#0_1" departPos="5.10" departSpeed="0.00" departDelay="4.30" arrival="57834.00" arrivalLane="-128361102#1_1" arrivalPos="274.68" arrivalSpeed="14.04" duration="206.00" routeLength="2250.49" waitingTime="8.00" waitingCount="1" stopTime="0.00" timeLoss="54.63" rerouteNo="1" devices="tripinfo_carIn3969:1 routing_carIn3969:1 emissions_carIn3969:1" vType="default_016" speedFactor="1.08" vaporized="">
        <emissions CO_abs="7769.406376" CO2_abs="539537.391252" HC_abs="48.050367" PMx_abs="9.409844" NOx_abs="218.756829" fuel_abs="231.923885" electricity_abs="0"/>
    </tripinfo>
    <tripinfo id="carIn102915:1" depart="57643.00" departLane="128361102#0_1" departPos="5.10" departSpeed="0.00" departDelay="0.40" arrival="57834.00" arrivalLane="201956811#0_1" arrivalPos="40.40" arrivalSpeed="13.72" duration="191.00" routeLength="2067.33" waitingTime="26.00" waitingCount="2" stopTime="0.00" timeLoss="51.50" rerouteNo="1" devices="tripinfo_carIn102915:1 routing_carIn102915:1 emissions_carIn102915:1" vType="default_016" speedFactor="1.08" vaporized="">
        <emissions CO_abs="9585.084062" CO2_abs="525914.674778" HC_abs="55.942372" PMx_abs="9.536946" NOx_abs="214.387929" fuel_abs="226.069340" electricity_abs="0"/>
    </tripinfo>
    <tripinfo id="carIn77438:1" depart="57614.00" departLane="124812856#0_1" departPos="5.10" departSpeed="0.00" departDelay="1.10" arrival="57836.00" arrivalLane="-128361102#1_1" arrivalPos="274.68" arrivalSpeed="13.98" duration="222.00" routeLength="2250.49" waitingTime="8.00" waitingCount="2" stopTime="0.00" timeLoss="71.11" rerouteNo="1" devices="tripinfo_carIn77438:1 routing_carIn77438:1 emissions_carIn77438:1" vType="default_016" speedFactor="1.09" vaporized="">
        <emissions CO_abs="9320.100001" CO2_abs="592406.191504" HC_abs="56.326957" PMx_abs="10.547606" NOx_abs="242.500890" fuel_abs="254.650150" electricity_abs="0"/>
    </tripinfo>
    <tripinfo id="carIn12152:1" depart="57647.00" departLane="24599188#0.94_1" departPos="5.10" departSpeed="0.00" departDelay="0.50" arrival="57836.00" arrivalLane="-315358254#1_1" arrivalPos="137.16" arrivalSpeed="16.54" duration="189.00" routeLength="2034.31" waitingTime="14.00" waitingCount="2" stopTime="0.00" timeLoss="56.96" rerouteNo="1" devices="tripinfo_carIn12152:1 routing_carIn12152:1 emissions_carIn12152:1" vType="default_016" speedFactor="1.20" vaporized="">
        <emissions CO_abs="6446.490253" CO2_abs="457693.572830" HC_abs="39.933177" PMx_abs="7.717053" NOx_abs="182.584478" fuel_abs="196.743141" electricity_abs="0"/>
    </tripinfo>
    <tripinfo id="randUni15030:1" depart="57735.00" departLane="386687232#0_1" departPos="5.10" departSpeed="0.00" departDelay="0.10" arrival="57836.00" arrivalLane="26677539_1" arrivalPos="151.98" arrivalSpeed="7.50" duration="101.00" routeLength="919.89" waitingTime="0.00" waitingCount="0" stopTime="0.00" timeLoss="11.50" rerouteNo="1" devices="tripinfo_randUni15030:1 routing_randUni15030:1 emissions_randUni15030:1" vType="random_016" speedFactor="0.93" vaporized="">
        <emissions CO_abs="3626.222869" CO2_abs="210203.466159" HC_abs="21.356760" PMx_abs="3.294048" NOx_abs="83.592339" fuel_abs="90.358419" electricity_abs="0"/>
    </tripinfo>
    <tripinfo id="carIn107842:1" depart="57622.00" departLane="124812856#0_1" departPos="5.10" departSpeed="0.00" departDelay="0.90" arrival="57837.00" arrivalLane="-128361102#1_1" arrivalPos="274.68" arrivalSpeed="15.22" duration="215.00" routeLength="2250.49" waitingTime="7.00" waitingCount="1" stopTime="0.00" timeLoss="67.67" rerouteNo="1" devices="tripinfo_carIn107842:1 routing_carIn107842:1 emissions_carIn107842:1" vType="default_016" speedFactor="1.12" vaporized="">
        <emissions CO_abs="9777.576149" CO2_abs="632845.304798" HC_abs="59.423000" PMx_abs="11.435552" NOx_abs="260.099472" fuel_abs="272.032800" electricity_abs="0"/>
    </tripinfo>