<?xml version="1.0" encoding="UTF-8"?>

<!-- generated on 2021-10-26 18:57:20 by Eclipse SUMO sumo Version 1.10.0
<configuration xmlns:xsi="http://www.w3.org/2001/XMLSchema-instance" xsi:noNamespaceSchemaLocation="http://sumo.dlr.de/xsd/sumoConfiguration.xsd">

    <input>
        <net-file value="/Users/behradkoohy/sumo-scratchpad/RESCO/environments/ingolstadt21/ingolstadt21.net.xml"/>
        <route-files value="/Users/behradkoohy/sumo-scratchpad/RESCO/environments/ingolstadt21/ingolstadt21.rou.xml"/>
    </input>

    <output>
        <tripinfo-output value="/Users/behradkoohy/sumo-scratchpad/RESCO/logs/MPLight-tr0-ingolstadt21-21-mplight-pressure/tripinfo_5.xml"/>
        <tripinfo-output.write-unfinished value="true"/>
    </output>

    <time>
        <begin value="57600"/>
        <end value="61200"/>
    </time>

    <processing>
        <time-to-teleport value="-1"/>
    </processing>

    <report>
        <no-warnings value="true"/>
        <no-step-log value="true"/>
    </report>

    <emissions>
        <device.emissions.probability value="1"/>
    </emissions>

    <traci_server>
        <remote-port value="62763"/>
    </traci_server>

    <random_number>
        <random value="true"/>
    </random_number>

</configuration>
-->

<tripinfos xmlns:xsi="http://www.w3.org/2001/XMLSchema-instance" xsi:noNamespaceSchemaLocation="http://sumo.dlr.de/xsd/tripinfo_file.xsd">
    <tripinfo id="h15454c2:3" depart="57612.00" departLane="24608844_1" departPos="5.10" departSpeed="0.00" departDelay="0.50" arrival="57651.00" arrivalLane="32978638#0_1" arrivalPos="49.29" arrivalSpeed="13.36" duration="39.00" routeLength="354.79" waitingTime="0.00" waitingCount="0" stopTime="0.00" timeLoss="5.07" rerouteNo="1" devices="tripinfo_h15454c2:3 routing_h15454c2:3 emissions_h15454c2:3" vType="default_016" speedFactor="1.00" vaporized="">
        <emissions CO_abs="1778.943855" CO2_abs="98016.408896" HC_abs="10.375653" PMx_abs="1.637440" NOx_abs="39.681801" fuel_abs="42.133415" electricity_abs="0"/>
    </tripinfo>
    <tripinfo id="carIn60260:1" depart="57606.00" departLane="315358254#0_1" departPos="5.10" departSpeed="0.00" departDelay="0.90" arrival="57657.00" arrivalLane="399835085#1_1" arrivalPos="212.23" arrivalSpeed="8.71" duration="51.00" routeLength="430.98" waitingTime="1.00" waitingCount="1" stopTime="0.00" timeLoss="12.05" rerouteNo="1" devices="tripinfo_carIn60260:1 routing_carIn60260:1 emissions_carIn60260:1" vType="default_016" speedFactor="1.19" vaporized="">
        <emissions CO_abs="2511.628324" CO2_abs="130100.908992" HC_abs="14.497316" PMx_abs="2.423738" NOx_abs="54.492200" fuel_abs="55.925010" electricity_abs="0"/>
    </tripinfo>
    <tripinfo id="carIn53971:1" depart="57640.00" departLane="272042143_1" departPos="5.10" departSpeed="0.00" departDelay="0.80" arrival="57698.00" arrivalLane="24634414#1_1" arrivalPos="162.19" arrivalSpeed="7.45" duration="58.00" routeLength="493.04" waitingTime="0.00" waitingCount="0" stopTime="0.00" timeLoss="9.22" rerouteNo="1" devices="tripinfo_carIn53971:1 routing_carIn53971:1 emissions_carIn53971:1" vType="default_016" speedFactor="0.94" vaporized="">
        <emissions CO_abs="2704.891233" CO2_abs="142445.405686" HC_abs="15.628620" PMx_abs="2.440359" NOx_abs="58.240177" fuel_abs="61.231692" electricity_abs="0"/>
    </tripinfo>
    <tripinfo id="h7800c1:5" depart="57696.00" departLane="-447569998#1_1" departPos="5.10" departSpeed="0.00" departDelay="0.00" arrival="57721.00" arrivalLane="-447569998#1_1" arrivalPos="180.76" arrivalSpeed="8.06" duration="25.00" routeLength="175.66" waitingTime="0.00" waitingCount="0" stopTime="0.00" timeLoss="3.00" rerouteNo="1" devices="tripinfo_h7800c1:5 routing_h7800c1:5 emissions_h7800c1:5" vType="default_016" speedFactor="0.97" vaporized="">
        <emissions CO_abs="1165.418754" CO2_abs="49616.779519" HC_abs="6.440544" PMx_abs="0.795452" NOx_abs="20.094850" fuel_abs="21.328565" electricity_abs="0"/>
    </tripinfo>
    <tripinfo id="h3688c1:1" depart="57625.00" departLane="201201950#1_1" departPos="5.10" departSpeed="0.00" departDelay="0.00" arrival="57728.00" arrivalLane="32978638#0_1" arrivalPos="49.29" arrivalSpeed="14.47" duration="103.00" routeLength="1089.75" waitingTime="15.00" waitingCount="1" stopTime="0.00" timeLoss="31.89" rerouteNo="1" devices="tripinfo_h3688c1:1 routing_h3688c1:1 emissions_h3688c1:1" vType="default_016" speedFactor="1.12" vaporized="">
        <emissions CO_abs="5407.566431" CO2_abs="321879.345198" HC_abs="32.149383" PMx_abs="5.867065" NOx_abs="131.326124" fuel_abs="138.362412" electricity_abs="0"/>
    </tripinfo>
    <tripinfo id="h7181c1:1" depart="57660.00" departLane="315358254#0_1" departPos="5.10" departSpeed="0.00" departDelay="0.10" arrival="57730.00" arrivalLane="306240162#0_0" arrivalPos="220.43" arrivalSpeed="15.47" duration="70.00" routeLength="932.35" waitingTime="0.00" waitingCount="0" stopTime="0.00" timeLoss="16.91" rerouteNo="1" devices="tripinfo_h7181c1:1 routing_h7181c1:1 emissions_h7181c1:1" vType="default_016" speedFactor="0.97" vaporized="">
        <emissions CO_abs="4100.249525" CO2_abs="274777.272103" HC_abs="25.258738" PMx_abs="5.344381" NOx_abs="113.646172" fuel_abs="118.114334" electricity_abs="0"/>
    </tripinfo>
    <tripinfo id="carIn22761:1" depart="57616.00" departLane="-306240162#1_0" departPos="5.10" departSpeed="0.00" departDelay="2.10" arrival="57732.00" arrivalLane="399835085#1_1" arrivalPos="212.23" arrivalSpeed="7.72" duration="116.00" routeLength="1093.26" waitingTime="14.00" waitingCount="2" stopTime="0.00" timeLoss="41.58" rerouteNo="1" devices="tripinfo_carIn22761:1 routing_carIn22761:1 emissions_carIn22761:1" vType="default_016" speedFactor="1.04" vaporized="">
        <emissions CO_abs="6323.913396" CO2_abs="356755.720948" HC_abs="37.191608" PMx_abs="6.855609" NOx_abs="147.799305" fuel_abs="153.354048" electricity_abs="0"/>
    </tripinfo>
    <tripinfo id="h4538c1:1" depart="57701.00" departLane="-10427692#1_1" departPos="5.10" departSpeed="0.00" departDelay="0.00" arrival="57767.00" arrivalLane="-128361102#1_1" arrivalPos="274.68" arrivalSpeed="13.41" duration="66.00" routeLength="440.74" waitingTime="22.00" waitingCount="1" stopTime="0.00" timeLoss="33.38" rerouteNo="1" devices="tripinfo_h4538c1:1 routing_h4538c1:1 emissions_h4538c1:1" vType="default_016" speedFactor="0.99" vaporized="">
        <emissions CO_abs="4221.201575" CO2_abs="157133.986180" HC_abs="22.900919" PMx_abs="3.064198" NOx_abs="66.138176" fuel_abs="67.546277" electricity_abs="0"/>
    </tripinfo>
    <tripinfo id="h5979c1:5" depart="57669.00" departLane="399835085#1_1" departPos="5.10" departSpeed="0.00" departDelay="0.00" arrival="57771.00" arrivalLane="-315358254#1_1" arrivalPos="137.16" arrivalSpeed="14.66" duration="102.00" routeLength="659.33" waitingTime="22.00" waitingCount="1" stopTime="0.00" timeLoss="34.74" rerouteNo="1" devices="tripinfo_h5979c1:5 routing_h5979c1:5 emissions_h5979c1:5" vType="default_016" speedFactor="1.09" vaporized="">
        <emissions CO_abs="6132.411630" CO2_abs="222025.348865" HC_abs="33.090986" PMx_abs="4.126146" NOx_abs="92.773537" fuel_abs="95.441144" electricity_abs="0"/>
    </tripinfo>
    <tripinfo id="h12244c1:3" depart="57612.00" departLane="315358244_1" departPos="5.10" departSpeed="0.00" departDelay="0.40" arrival="57774.00" arrivalLane="386687235_1" arrivalPos="80.84" arrivalSpeed="11.41" duration="162.00" routeLength="1186.14" waitingTime="40.00" waitingCount="4" stopTime="0.00" timeLoss="63.68" rerouteNo="1" devices="tripinfo_h12244c1:3 routing_h12244c1:3 emissions_h12244c1:3" vType="default_016" speedFactor="0.88" vaporized="">
        <emissions CO_abs="8827.035622" CO2_abs="353979.529663" HC_abs="48.446977" PMx_abs="6.453803" NOx_abs="146.436294" fuel_abs="152.163204" electricity_abs="0"/>
    </tripinfo>
    <tripinfo id="h317c2:1" depart="57707.00" departLane="-32978638#0_1" departPos="5.10" departSpeed="0.00" departDelay="0.10" arrival="57775.00" arrivalLane="-266565295#5_1" arrivalPos="172.76" arrivalSpeed="13.04" duration="68.00" routeLength="370.53" waitingTime="31.00" waitingCount="1" stopTime="0.00" timeLoss="40.15" rerouteNo="1" devices="tripinfo_h317c2:1 routing_h317c2:1 emissions_h317c2:1" vType="default_016" speedFactor="0.99" vaporized="">
        <emissions CO_abs="6152.115936" CO2_abs="179633.717696" HC_abs="32.227638" PMx_abs="3.694805" NOx_abs="76.945313" fuel_abs="77.218941" electricity_abs="0"/>
    </tripinfo>
    <tripinfo id="h3568c1:3" depart="57656.00" departLane="266565295#5_1" departPos="5.10" departSpeed="0.00" departDelay="0.80" arrival="57776.00" arrivalLane="-24634415_1" arrivalPos="62.03" arrivalSpeed="13.52" duration="120.00" routeLength="807.40" waitingTime="38.00" waitingCount="1" stopTime="0.00" timeLoss="57.02" rerouteNo="1" devices="tripinfo_h3568c1:3 routing_h3568c1:3 emissions_h3568c1:3" vType="default_016" speedFactor="1.03" vaporized="">
        <emissions CO_abs="9765.128976" CO2_abs="335782.970018" HC_abs="52.369967" PMx_abs="6.732362" NOx_abs="142.821339" fuel_abs="144.341413" electricity_abs="0"/>
    </tripinfo>
    <tripinfo id="carIn27009:1" depart="57673.00" departLane="-447569998#1_1" departPos="5.10" departSpeed="0.00" departDelay="0.50" arrival="57777.00" arrivalLane="-26677539_1" arrivalPos="152.75" arrivalSpeed="8.56" duration="104.00" routeLength="699.63" waitingTime="14.00" waitingCount="1" stopTime="0.00" timeLoss="29.02" rerouteNo="1" devices="tripinfo_carIn27009:1 routing_carIn27009:1 emissions_carIn27009:1" vType="default_015" speedFactor="1.12" vaporized="">
        <emissions CO_abs="5280.336718" CO2_abs="219435.509858" HC_abs="29.129346" PMx_abs="3.875164" NOx_abs="90.790229" fuel_abs="94.327460" electricity_abs="0"/>
    </tripinfo>
    <tripinfo id="S5R_frequency1.2" depart="57612.00" departLane="315358250#0_1" departPos="12.10" departSpeed="0.00" departDelay="0.40" arrival="57778.00" arrivalLane="386687235_1" arrivalPos="80.84" arrivalSpeed="13.84" duration="166.00" routeLength="1115.62" waitingTime="40.00" waitingCount="4" stopTime="0.00" timeLoss="84.66" rerouteNo="1" devices="tripinfo_S5R_frequency1.2 routing_S5R_frequency1.2 emissions_S5R_frequency1.2" vType="bus" speedFactor="1.00" vaporized="">
        <emissions CO_abs="3332.419758" CO2_abs="1832195.023058" HC_abs="705.976405" PMx_abs="350.687945" NOx_abs="14924.724503" fuel_abs="781.312509" electricity_abs="0"/>
    </tripinfo>
    <tripinfo id="h3326c1:2" depart="57656.00" departLane="22716069#0_1" departPos="5.10" departSpeed="0.00" departDelay="0.00" arrival="57778.00" arrivalLane="24634517#13_1" arrivalPos="111.62" arrivalSpeed="12.41" duration="122.00" routeLength="1312.81" waitingTime="0.00" waitingCount="0" stopTime="0.00" timeLoss="17.72" rerouteNo="1" devices="tripinfo_h3326c1:2 routing_h3326c1:2 emissions_h3326c1:2" vType="default_016" speedFactor="0.94" vaporized="">
        <emissions CO_abs="4472.973904" CO2_abs="310842.730726" HC_abs="27.630327" PMx_abs="5.176605" NOx_abs="124.779117" fuel_abs="133.618241" electricity_abs="0"/>
    </tripinfo>
    <tripinfo id="h330c1:1" depart="57736.00" departLane="-32978638#0_1" departPos="5.10" departSpeed="0.00" departDelay="0.20" arrival="57779.00" arrivalLane="-266565295#5_1" arrivalPos="172.76" arrivalSpeed="11.65" duration="43.00" routeLength="370.53" waitingTime="2.00" waitingCount="1" stopTime="0.00" timeLoss="12.89" rerouteNo="1" devices="tripinfo_h330c1:1 routing_h330c1:1 emissions_h330c1:1" vType="default_016" speedFactor="0.92" vaporized="">
        <emissions CO_abs="2128.438402" CO2_abs="118298.774807" HC_abs="12.460421" PMx_abs="2.082605" NOx_abs="48.484230" fuel_abs="50.851842" electricity_abs="0"/>
    </tripinfo>
    <tripinfo id="h3154c1:1" depart="57658.00" departLane="24634507_1" departPos="5.10" departSpeed="0.00" departDelay="0.00" arrival="57796.00" arrivalLane="-266565295#5_1" arrivalPos="172.76" arrivalSpeed="13.31" duration="138.00" routeLength="1206.22" waitingTime="28.00" waitingCount="2" stopTime="0.00" timeLoss="49.97" rerouteNo="1" devices="tripinfo_h3154c1:1 routing_h3154c1:1 emissions_h3154c1:1" vType="default_016" speedFactor="1.02" vaporized="">
        <emissions CO_abs="7660.563819" CO2_abs="352241.421807" HC_abs="43.172862" PMx_abs="6.677444" NOx_abs="146.706722" fuel_abs="151.414768" electricity_abs="0"/>
    </tripinfo>
    <tripinfo id="carIn107282:1" depart="57749.00" departLane="-447569998#1_1" departPos="5.10" departSpeed="0.00" departDelay="0.00" arrival="57796.00" arrivalLane="315358242#0_1" arrivalPos="165.37" arrivalSpeed="12.55" duration="47.00" routeLength="448.50" waitingTime="0.00" waitingCount="0" stopTime="0.00" timeLoss="4.03" rerouteNo="1" devices="tripinfo_carIn107282:1 routing_carIn107282:1 emissions_carIn107282:1" vType="default_016" speedFactor="0.98" vaporized="">
        <emissions CO_abs="1735.425189" CO2_abs="106189.512141" HC_abs="10.358628" PMx_abs="1.722189" NOx_abs="42.503227" fuel_abs="45.646642" electricity_abs="0"/>
    </tripinfo>
    <tripinfo id="carIn28951:1" depart="57606.00" departLane="10425609#0_1" departPos="5.10" departSpeed="0.00" departDelay="0.20" arrival="57797.00" arrivalLane="-128361102#1_1" arrivalPos="274.68" arrivalSpeed="13.35" duration="191.00" routeLength="2113.04" waitingTime="10.00" waitingCount="1" stopTime="0.00" timeLoss="35.62" rerouteNo="1" devices="tripinfo_carIn28951:1 routing_carIn28951:1 emissions_carIn28951:1" vType="default_016" speedFactor="1.00" vaporized="">
        <emissions CO_abs="7123.804427" CO2_abs="476998.835963" HC_abs="43.602218" PMx_abs="8.110673" NOx_abs="191.520443" fuel_abs="205.041846" electricity_abs="0"/>
    </tripinfo>
    <tripinfo id="carIn80064:1" depart="57603.00" departLane="128361109#1_1" departPos="5.10" departSpeed="0.00" departDelay="0.40" arrival="57804.00" arrivalLane="-315358254#1_1" arrivalPos="137.16" arrivalSpeed="13.46" duration="201.00" routeLength="1587.97" waitingTime="76.00" waitingCount="2" stopTime="0.00" timeLoss="109.06" rerouteNo="1" devices="tripinfo_carIn80064:1 routing_carIn80064:1 emissions_carIn80064:1" vType="default_016" speedFactor="0.97" vaporized="">
        <emissions CO_abs="17637.681354" CO2_abs="632592.776769" HC_abs="95.377839" PMx_abs="13.217035" NOx_abs="269.403821" fuel_abs="271.928478" electricity_abs="0"/>
    </tripinfo>
    <tripinfo id="h645c1:1" depart="57622.00" departLane="266565295#5_1" departPos="5.10" departSpeed="0.00" departDelay="0.40" arrival="57813.00" arrivalLane="-315358244_2" arrivalPos="33.95" arrivalSpeed="12.94" duration="191.00" routeLength="1910.83" waitingTime="33.00" waitingCount="2" stopTime="0.00" timeLoss="52.76" rerouteNo="1" devices="tripinfo_h645c1:1 routing_h645c1:1 emissions_h645c1:1" vType="default_016" speedFactor="1.00" vaporized="">
        <emissions CO_abs="9104.447591" CO2_abs="454219.424419" HC_abs="52.074860" PMx_abs="8.065133" NOx_abs="184.368496" fuel_abs="195.251414" electricity_abs="0"/>
    </tripinfo>
    <tripinfo id="carIn121703:1" depart="57647.00" departLane="386687232#0_1" departPos="5.10" departSpeed="0.00" departDelay="0.30" arrival="57814.00" arrivalLane="-315358244_1" arrivalPos="33.95" arrivalSpeed="11.35" duration="167.00" routeLength="1157.39" waitingTime="54.00" waitingCount="2" stopTime="0.00" timeLoss="72.72" rerouteNo="1" devices="tripinfo_carIn121703:1 routing_carIn121703:1 emissions_carIn121703:1" vType="default_016" speedFactor="0.90" vaporized="">
        <emissions CO_abs="11229.418208" CO2_abs="381239.242780" HC_abs="60.034409" PMx_abs="7.264240" NOx_abs="159.417480" fuel_abs="163.882214" electricity_abs="0"/>
    </tripinfo>
    <tripinfo id="carIn129809:1" depart="57729.00" departLane="-447569998#1_1" departPos="5.10" departSpeed="0.00" departDelay="1.00" arrival="57816.00" arrivalLane="-315358244_1" arrivalPos="33.95" arrivalSpeed="10.99" duration="87.00" routeLength="706.49" waitingTime="4.00" waitingCount="1" stopTime="0.00" timeLoss="18.02" rerouteNo="1" devices="tripinfo_carIn129809:1 routing_carIn129809:1 emissions_carIn129809:1" vType="default_015" speedFactor="0.88" vaporized="">
        <emissions CO_abs="3147.245309" CO2_abs="169741.288901" HC_abs="18.268561" PMx_abs="2.837338" NOx_abs="68.788234" fuel_abs="72.965181" electricity_abs="0"/>
    </tripinfo>
    <tripinfo id="h9563c2:5" depart="57631.00" departLane="315358244_1" departPos="5.10" departSpeed="0.00" departDelay="0.70" arrival="57819.00" arrivalLane="386687235_1" arrivalPos="80.84" arrivalSpeed="9.49" duration="188.00" routeLength="1186.14" waitingTime="52.00" waitingCount="4" stopTime="0.00" timeLoss="74.12" rerouteNo="1" devices="tripinfo_h9563c2:5 routing_h9563c2:5 emissions_h9563c2:5" vType="default_016" speedFactor="0.76" vaporized="">
        <emissions CO_abs="11254.774030" CO2_abs="375793.603792" HC_abs="59.947369" PMx_abs="6.870283" NOx_abs="156.170735" fuel_abs="161.541821" electricity_abs="0"/>
    </tripinfo>
    <tripinfo id="carIn12858:1" depart="57661.00" departLane="128361109#1_1" departPos="5.10" departSpeed="0.00" departDelay="0.90" arrival="57819.00" arrivalLane="399835085#1_1" arrivalPos="212.23" arrivalSpeed="8.27" duration="158.00" routeLength="1738.12" waitingTime="23.00" waitingCount="1" stopTime="0.00" timeLoss="46.88" rerouteNo="1" devices="tripinfo_carIn12858:1 routing_carIn12858:1 emissions_carIn12858:1" vType="default_016" speedFactor="1.04" vaporized="">
        <emissions CO_abs="10147.746758" CO2_abs="542785.579269" HC_abs="59.183767" PMx_abs="10.694256" NOx_abs="225.417355" fuel_abs="233.320535" electricity_abs="0"/>
    </tripinfo>
    <tripinfo id="h17600c1:1" depart="57662.00" departLane="272042143_1" departPos="5.10" departSpeed="0.00" departDelay="0.30" arrival="57831.00" arrivalLane="201238729#3_1" arrivalPos="431.02" arrivalSpeed="14.01" duration="169.00" routeLength="2100.26" waitingTime="3.00" waitingCount="1" stopTime="0.00" timeLoss="20.24" rerouteNo="1" devices="tripinfo_h17600c1:1 routing_h17600c1:1 emissions_h17600c1:1" vType="default_016" speedFactor="1.02" vaporized="">
        <emissions CO_abs="4319.828447" CO2_abs="404717.893987" HC_abs="29.041699" PMx_abs="6.255606" NOx_abs="156.892781" fuel_abs="173.970926" electricity_abs="0"/>
    </tripinfo>
    <tripinfo id="h11737c1:1" depart="57665.00" departLane="272042143_1" departPos="5.10" departSpeed="0.00" departDelay="1.50" arrival="57837.00" arrivalLane="-315358254#1_1" arrivalPos="137.16" arrivalSpeed="13.72" duration="172.00" routeLength="1596.88" waitingTime="39.00" waitingCount="1" stopTime="0.00" timeLoss="54.60" rerouteNo="1" devices="tripinfo_h11737c1:1 routing_h11737c1:1 emissions_h11737c1:1" vType="default_016" speedFactor="1.00" vaporized="">
        <emissions CO_abs="10190.533510" CO2_abs="441711.128010" HC_abs="56.682425" PMx_abs="8.046820" NOx_abs="180.932108" fuel_abs="189.875371" electricity_abs="0"/>
    </tripinfo>
    <tripinfo id="carIn50326:1" depart="57651.00" departLane="128361102#0_1" departPos="5.10" departSpeed="0.00" departDelay="0.30" arrival="57840.00" arrivalLane="18809673#0_1" arrivalPos="473.56" arrivalSpeed="12.28" duration="189.00" routeLength="1591.07" waitingTime="20.00" waitingCount="1" stopTime="0.00" timeLoss="44.29" rerouteNo="1" devices="tripinfo_carIn50326:1 routing_carIn50326:1 emissions_carIn50326:1" vType="default_016" speedFactor="0.90" vaporized="">
        <emissions CO_abs="8194.826498" CO2_abs="381001.080012" HC_abs="46.151117" PMx_abs="6.511324" NOx_abs="155.008795" fuel_abs="163.778333" electricity_abs="0"/>
    </tripinfo>
    <tripinfo id="carIn126288:1" depart="57674.00" departLane="272042143_1" departPos="5.10" departSpeed="0.00" departDelay="0.00" arrival="57840.00" arrivalLane="-315358254#1_1" arrivalPos="137.16" arrivalSpeed="12.19" duration="166.00" routeLength="1596.88" waitingTime="19.00" waitingCount="2" stopTime="0.00" timeLoss="38.97" rerouteNo="1" devices="tripinfo_carIn126288:1 routing_carIn126288:1 emissions_carIn126288:1" vType="default_016" speedFactor="0.92" vaporized="">
        <emissions CO_abs="5917.430023" CO2_abs="356131.788623" HC_abs="35.240663" PMx_abs="5.915425" NOx_abs="142.721913" fuel_abs="153.086822" electricity_abs="0"/>
    </tripinfo>
    <tripinfo id="randUni31145:1" depart="57814.00" departLane="10425609#0_1" departPos="5.10" departSpeed="0.00" departDelay="0.30" arrival="57841.00" arrivalLane="201956810_1" arrivalPos="71.65" arrivalSpeed="13.89" duration="27.00" routeLength="255.78" waitingTime="0.00" waitingCount="0" stopTime="0.00" timeLoss="8.23" rerouteNo="1" devices="tripinfo_randUni31145:1 routing_randUni31145:1 emissions_randUni31145:1" vType="random_016" speedFactor="1.07" vaporized="">
        <emissions CO_abs="1991.340046" CO2_abs="105170.384690" HC_abs="11.571098" PMx_abs="2.097886" NOx_abs="44.848347" fuel_abs="45.208172" electricity_abs="0"/>
    </tripinfo>
    <tripinfo id="carIn86816:1" depart="57617.00" departLane="128361102#0_1" departPos="5.10" departSpeed="0.00" departDelay="0.80" arrival="57842.00" arrivalLane="201956811#0_1" arrivalPos="40.40" arrivalSpeed="12.27" duration="225.00" routeLength="2067.33" waitingTime="35.00" waitingCount="3" stopTime="0.00" timeLoss="65.06" rerouteNo="1" devices="tripinfo_carIn86816:1 routing_carIn86816:1 emissions_carIn86816:1" vType="default_016" speedFactor="0.95" vaporized="">
        <emissions CO_abs="10485.785542" CO2_abs="532241.012359" HC_abs="60.175642" PMx_abs="9.260764" NOx_abs="216.019361" fuel_abs="228.789901" electricity_abs="0"/>
    </tripinfo>
    <tripinfo id="randUni15030:1" depart="57735.00" departLane="386687232#0_1" departPos="5.10" departSpeed="0.00" departDelay="0.10" arrival="57848.00" arrivalLane="26677539_1" arrivalPos="151.98" arrivalSpeed="7.54" duration="113.00" routeLength="919.89" waitingTime="15.00" waitingCount="1" stopTime="0.00" timeLoss="29.95" rerouteNo="1" devices="tripinfo_randUni15030:1 routing_randUni15030:1 emissions_randUni15030:1" vType="random_016" speedFactor="1.00" vaporized="">
        <emissions CO_abs="5450.077621" CO2_abs="254259.990759" HC_abs="30.681563" PMx_abs="4.268649" NOx_abs="102.623928" fuel_abs="109.297137" electricity_abs="0"/>
    </tripinfo>
    <tripinfo id="randUni2407:1" depart="57820.00" departLane="10425609#0_1" departPos="5.10" departSpeed="0.00" departDelay="0.80" arrival="57848.00" arrivalLane="201956810_1" arrivalPos="71.65" arrivalSpeed="12.20" duration="28.00" routeLength="255.78" waitingTime="0.00" waitingCount="0" stopTime="0.00" timeLoss="5.76" rerouteNo="1" devices="tripinfo_randUni2407:1 routing_randUni2407:1 emissions_randUni2407:1" vType="random_016" speedFactor="0.92" vaporized="">
        <emissions CO_abs="1546.004941" CO2_abs="88417.536444" HC_abs="9.116199" PMx_abs="1.592454" NOx_abs="36.541565" fuel_abs="38.007009" electricity_abs="0"/>
    </tripinfo>
    <tripinfo id="carIn102915:1" depart="57643.00" departLane="128361102#0_1" departPos="5.10" departSpeed="0.00" departDelay="0.40" arrival="57852.00" arrivalLane="201956811#0_1" arrivalPos="40.40" arrivalSpeed="10.52" duration="209.00" routeLength="2067.33" waitingTime="0.00" waitingCount="0" stopTime="0.00" timeLoss="25.18" rerouteNo="1" devices="tripinfo_carIn102915:1 routing_carIn102915:1 emissions_carIn102915:1" vType="default_016" speedFactor="0.82" vaporized="">
        <emissions CO_abs="6296.167299" CO2_abs="440759.968952" HC_abs="38.802775" PMx_abs="6.519140" NOx_abs="172.148783" fuel_abs="189.465368" electricity_abs="0"/>
    </tripinfo>
    <tripinfo id="carIn8642:1" depart="57774.00" departLane="-447569998#1_1" departPos="5.10" departSpeed="0.00" departDelay="0.90" arrival="57853.00" arrivalLane="-315358244_1" arrivalPos="33.95" arrivalSpeed="15.98" duration="79.00" routeLength="706.49" waitingTime="11.00" waitingCount="2" stopTime="0.00" timeLoss="28.67" rerouteNo="1" devices="tripinfo_carIn8642:1 routing_carIn8642:1 emissions_carIn8642:1" vType="default_016" speedFactor="1.20" vaporized="">
        <emissions CO_abs="4108.947280" CO2_abs="226016.111501" HC_abs="23.983226" PMx_abs="4.118360" NOx_abs="92.709185" fuel_abs="97.155052" electricity_abs="0"/>
    </tripinfo>
    <tripinfo id="randUni33724:1" depart="57646.00" departLane="128361102#0_1" departPos="5.10" departSpeed="0.00" departDelay="1.20" arrival="57854.00" arrivalLane="201956811#0_1" arrivalPos="40.40" arrivalSpeed="14.84" duration="208.00" routeLength="2067.33" waitingTime="0.00" waitingCount="0" stopTime="0.00" timeLoss="71.47" rerouteNo="1" devices="tripinfo_randUni33724:1 routing_randUni33724:1 emissions_randUni33724:1" vType="random_016" speedFactor="1.11" vaporized="">
        <emissions CO_abs="7973.107921" CO2_abs="524138.125051" HC_abs="48.530798" PMx_abs="8.768382" NOx_abs="211.674428" fuel_abs="225.305179" electricity_abs="0"/>
    </tripinfo>
    <tripinfo id="carIn82278:1" depart="57702.00" departLane="-306240162#1_0" departPos="5.10" departSpeed="0.00" departDelay="0.70" arrival="57855.00" arrivalLane="399835085#1_1" arrivalPos="212.23" arrivalSpeed="7.06" duration="153.00" routeLength="1093.26" waitingTime="41.00" waitingCount="3" stopTime="0.00" timeLoss="74.31" rerouteNo="1" devices="tripinfo_carIn82278:1 routing_carIn82278:1 emissions_carIn82278:1" vType="default_016" speedFactor="0.99" vaporized="">
        <emissions CO_abs="10664.426974" CO2_abs="423871.546232" HC_abs="58.570320" PMx_abs="8.535892" NOx_abs="179.376070" fuel_abs="182.206258" electricity_abs="0"/>
    </tripinfo>
    <tripinfo id="carIn126378:1" depart="57746.00" departLane="386687232#0_1" departPos="5.10" departSpeed="0.00" departDelay="1.80" arrival="57856.00" arrivalLane="-315358244_1" arrivalPos="33.95" arrivalSpeed="12.82" duration="110.00" routeLength="1157.39" waitingTime="6.00" waitingCount="1" stopTime="0.00" timeLoss="21.91" rerouteNo="1" devices="tripinfo_carIn126378:1 routing_carIn126378:1 emissions_carIn126378:1" vType="default_016" speedFactor="0.96" vaporized="">
        <emissions CO_abs="3268.949122" CO2_abs="231951.585278" HC_abs="20.289708" PMx_abs="3.740835" NOx_abs="91.887223" fuel_abs="99.706422" electricity_abs="0"/>
    </tripinfo>
    <tripinfo id="50R_frequency3.17" depart="57674.00" departLane="-18809673#6_1" departPos="12.10" departSpeed="0.00" departDelay="0.70" arrival="57858.00" arrivalLane="201956811#0_1" arrivalPos="40.40" arrivalSpeed="13.77" duration="184.00" routeLength="1954.47" waitingTime="14.00" waitingCount="1" stopTime="0.00" timeLoss="38.96" rerouteNo="1" devices="tripinfo_50R_frequency3.17 routing_50R_frequency3.17 emissions_50R_frequency3.17" vType="bus" speedFactor="1.00" vaporized="">
        <emissions CO_abs="3582.565807" CO2_abs="2218269.640062" HC_abs="754.575057" PMx_abs="383.305116" NOx_abs="17286.762878" fuel_abs="946.056005" electricity_abs="0"/>
    </tripinfo>
    <tripinfo id="carIn73855:1" depart="57743.00" departLane="386687232#0_1" departPos="5.10" departSpeed="0.00" departDelay="0.50" arrival="57858.00" arrivalLane="-315358244_1" arrivalPos="33.95" arrivalSpeed="12.62" duration="115.00" routeLength="1157.39" waitingTime="9.00" waitingCount="1" stopTime="0.00" timeLoss="27.07" rerouteNo="1" devices="tripinfo_carIn73855:1 routing_carIn73855:1 emissions_carIn73855:1" vType="default_016" speedFactor="0.96" vaporized="">
        <emissions CO_abs="4344.274275" CO2_abs="274707.001144" HC_abs="26.183352" PMx_abs="4.563724" NOx_abs="109.838959" fuel_abs="118.085396" electricity_abs="0"/>
    </tripinfo>
    <tripinfo id="carIn85747:1" depart="57673.00" departLane="128361109#1_1" departPos="5.10" departSpeed="0.00" departDelay="0.70" arrival="57863.00" arrivalLane="386687235_1" arrivalPos="80.84" arrivalSpeed="14.71" duration="190.00" routeLength="2088.57" waitingTime="33.00" waitingCount="2" stopTime="0.00" timeLoss="52.15" rerouteNo="1" devices="tripinfo_carIn85747:1 routing_carIn85747:1 emissions_carIn85747:1" vType="default_016" speedFactor="1.09" vaporized="">
        <emissions CO_abs="8049.623783" CO2_abs="460810.734418" HC_abs="47.285161" PMx_abs="7.908601" NOx_abs="183.487017" fuel_abs="198.084324" electricity_abs="0"/>
    </tripinfo>
    <tripinfo id="carIn30817:1" depart="57681.00" departLane="315358244_1" departPos="5.10" departSpeed="0.00" departDelay="0.20" arrival="57866.00" arrivalLane="447569997#1_1" arrivalPos="180.93" arrivalSpeed="8.06" duration="185.00" routeLength="718.04" waitingTime="109.00" waitingCount="1" stopTime="0.00" timeLoss="121.64" rerouteNo="1" devices="tripinfo_carIn30817:1 routing_carIn30817:1 emissions_carIn30817:1" vType="default_016" speedFactor="0.97" vaporized="">
        <emissions CO_abs="19683.863287" CO2_abs="444678.427965" HC_abs="100.034460" PMx_abs="9.677800" NOx_abs="194.242305" fuel_abs="191.156374" electricity_abs="0"/>
    </tripinfo>
    <tripinfo id="carIn12152:1" depart="57647.00" departLane="24599188#0.94_1" departPos="5.10" departSpeed="0.00" departDelay="0.50" arrival="57868.00" arrivalLane="-315358254#1_1" arrivalPos="137.16" arrivalSpeed="12.59" duration="221.00" routeLength="2034.31" waitingTime="22.00" waitingCount="4" stopTime="0.00" timeLoss="55.35" rerouteNo="1" devices="tripinfo_carIn12152:1 routing_carIn12152:1 emissions_carIn12152:1" vType="default_016" speedFactor="0.96" vaporized="">
        <emissions CO_abs="7909.197528" CO2_abs="466644.556297" HC_abs="46.895024" PMx_abs="7.842011" NOx_abs="187.743778" fuel_abs="200.591822" electricity_abs="0"/>
    </tripinfo>
    <tripinfo id="h6541c1:3" depart="57727.00" departLane="201950247#3_1" departPos="5.10" departSpeed="0.00" departDelay="0.00" arrival="57868.00" arrivalLane="32978638#0_1" arrivalPos="49.29" arrivalSpeed="14.59" duration="141.00" routeLength="1176.17" waitingTime="23.00" waitingCount="3" stopTime="0.00" timeLoss="51.26" rerouteNo="1" devices="tripinfo_h6541c1:3 routing_h6541c1:3 emissions_h6541c1:3" vType="default_016" speedFactor="1.13" vaporized="">
        <emissions CO_abs="7562.994456" CO2_abs="397833.235780" HC_abs="43.643675" PMx_abs="7.174451" NOx_abs="163.080592" fuel_abs="171.012531" electricity_abs="0"/>