<?xml version="1.0" encoding="UTF-8"?>

<!-- generated on 2021-10-26 19:49:58 by Eclipse SUMO sumo Version 1.10.0
<configuration xmlns:xsi="http://www.w3.org/2001/XMLSchema-instance" xsi:noNamespaceSchemaLocation="http://sumo.dlr.de/xsd/sumoConfiguration.xsd">

    <input>
        <net-file value="/Users/behradkoohy/sumo-scratchpad/RESCO/environments/ingolstadt21/ingolstadt21.net.xml"/>
        <route-files value="/Users/behradkoohy/sumo-scratchpad/RESCO/environments/ingolstadt21/ingolstadt21.rou.xml"/>
    </input>

    <output>
        <tripinfo-output value="/Users/behradkoohy/sumo-scratchpad/RESCO/logs/MPLight-tr0-ingolstadt21-21-mplight-pressure/tripinfo_46.xml"/>
        <tripinfo-output.write-unfinished value="true"/>
    </output>

    <time>
        <begin value="57600"/>
        <end value="61200"/>
    </time>

    <processing>
        <time-to-teleport value="-1"/>
    </processing>

    <report>
        <no-warnings value="true"/>
        <no-step-log value="true"/>
    </report>

    <emissions>
        <device.emissions.probability value="1"/>
    </emissions>

    <traci_server>
        <remote-port value="63924"/>
    </traci_server>

    <random_number>
        <random value="true"/>
    </random_number>

</configuration>
-->

<tripinfos xmlns:xsi="http://www.w3.org/2001/XMLSchema-instance" xsi:noNamespaceSchemaLocation="http://sumo.dlr.de/xsd/tripinfo_file.xsd">
    <tripinfo id="h15454c2:3" depart="57612.00" departLane="24608844_1" departPos="5.10" departSpeed="0.00" departDelay="0.50" arrival="57648.00" arrivalLane="32978638#0_1" arrivalPos="49.29" arrivalSpeed="15.41" duration="36.00" routeLength="354.79" waitingTime="0.00" waitingCount="0" stopTime="0.00" timeLoss="5.08" rerouteNo="1" devices="tripinfo_h15454c2:3 routing_h15454c2:3 emissions_h15454c2:3" vType="default_016" speedFactor="1.11" vaporized="">
        <emissions CO_abs="1826.737154" CO2_abs="109188.002324" HC_abs="10.871715" PMx_abs="1.884482" NOx_abs="44.415271" fuel_abs="46.935440" electricity_abs="0"/>
    </tripinfo>
    <tripinfo id="carIn60260:1" depart="57606.00" departLane="315358254#0_1" departPos="5.10" departSpeed="0.00" departDelay="0.90" arrival="57659.00" arrivalLane="399835085#1_1" arrivalPos="212.23" arrivalSpeed="8.30" duration="53.00" routeLength="430.98" waitingTime="1.00" waitingCount="1" stopTime="0.00" timeLoss="11.61" rerouteNo="1" devices="tripinfo_carIn60260:1 routing_carIn60260:1 emissions_carIn60260:1" vType="default_016" speedFactor="1.12" vaporized="">
        <emissions CO_abs="2472.957118" CO2_abs="131191.937158" HC_abs="14.312606" PMx_abs="2.257326" NOx_abs="53.603649" fuel_abs="56.394247" electricity_abs="0"/>
    </tripinfo>
    <tripinfo id="carIn53971:1" depart="57640.00" departLane="272042143_1" departPos="5.10" departSpeed="0.00" departDelay="0.80" arrival="57695.00" arrivalLane="24634414#1_1" arrivalPos="162.19" arrivalSpeed="7.36" duration="55.00" routeLength="493.04" waitingTime="0.00" waitingCount="0" stopTime="0.00" timeLoss="9.08" rerouteNo="1" devices="tripinfo_carIn53971:1 routing_carIn53971:1 emissions_carIn53971:1" vType="default_016" speedFactor="1.00" vaporized="">
        <emissions CO_abs="2507.230859" CO2_abs="146092.704261" HC_abs="14.824409" PMx_abs="2.501484" NOx_abs="59.459211" fuel_abs="62.799324" electricity_abs="0"/>
    </tripinfo>
    <tripinfo id="carIn22761:1" depart="57616.00" departLane="-306240162#1_0" departPos="5.10" departSpeed="0.00" departDelay="2.10" arrival="57718.00" arrivalLane="399835085#1_1" arrivalPos="212.23" arrivalSpeed="7.98" duration="102.00" routeLength="1093.26" waitingTime="5.00" waitingCount="1" stopTime="0.00" timeLoss="21.35" rerouteNo="1" devices="tripinfo_carIn22761:1 routing_carIn22761:1 emissions_carIn22761:1" vType="default_016" speedFactor="0.97" vaporized="">
        <emissions CO_abs="4344.380227" CO2_abs="273217.095842" HC_abs="26.121218" PMx_abs="4.903272" NOx_abs="110.354022" fuel_abs="117.444517" electricity_abs="0"/>
    </tripinfo>
    <tripinfo id="h7800c1:5" depart="57696.00" departLane="-447569998#1_1" departPos="5.10" departSpeed="0.00" departDelay="0.00" arrival="57725.00" arrivalLane="-447569998#1_2" arrivalPos="180.76" arrivalSpeed="3.92" duration="29.00" routeLength="175.66" waitingTime="0.00" waitingCount="0" stopTime="0.00" timeLoss="6.43" rerouteNo="1" devices="tripinfo_h7800c1:5 routing_h7800c1:5 emissions_h7800c1:5" vType="default_016" speedFactor="0.94" vaporized="">
        <emissions CO_abs="1407.603669" CO2_abs="54961.478600" HC_abs="7.686412" PMx_abs="1.010318" NOx_abs="23.121260" fuel_abs="23.625969" electricity_abs="0"/>
    </tripinfo>
    <tripinfo id="S5R_frequency1.2" depart="57615.00" departLane="315358250#0_1" departPos="12.10" departSpeed="0.00" departDelay="3.40" arrival="57730.00" arrivalLane="386687235_1" arrivalPos="80.84" arrivalSpeed="13.65" duration="115.00" routeLength="1115.62" waitingTime="16.00" waitingCount="1" stopTime="0.00" timeLoss="33.65" rerouteNo="1" devices="tripinfo_S5R_frequency1.2 routing_S5R_frequency1.2 emissions_S5R_frequency1.2" vType="bus" speedFactor="1.00" vaporized="">
        <emissions CO_abs="2333.147562" CO2_abs="1373384.732986" HC_abs="500.624112" PMx_abs="248.334253" NOx_abs="10892.114166" fuel_abs="585.707286" electricity_abs="0"/>
    </tripinfo>
    <tripinfo id="h3688c1:1" depart="57625.00" departLane="201201950#1_1" departPos="5.10" departSpeed="0.00" departDelay="0.00" arrival="57732.00" arrivalLane="32978638#0_1" arrivalPos="49.29" arrivalSpeed="12.40" duration="107.00" routeLength="1089.75" waitingTime="9.00" waitingCount="1" stopTime="0.00" timeLoss="23.37" rerouteNo="1" devices="tripinfo_h3688c1:1 routing_h3688c1:1 emissions_h3688c1:1" vType="default_016" speedFactor="0.96" vaporized="">
        <emissions CO_abs="4432.255475" CO2_abs="287818.858864" HC_abs="26.905328" PMx_abs="4.819524" NOx_abs="115.364193" fuel_abs="123.721488" electricity_abs="0"/>
    </tripinfo>
    <tripinfo id="carIn121703:1" depart="57647.00" departLane="386687232#0_1" departPos="5.10" departSpeed="0.00" departDelay="0.30" arrival="57744.00" arrivalLane="-315358244_1" arrivalPos="33.95" arrivalSpeed="13.03" duration="97.00" routeLength="1157.39" waitingTime="0.00" waitingCount="0" stopTime="0.00" timeLoss="8.25" rerouteNo="1" devices="tripinfo_carIn121703:1 routing_carIn121703:1 emissions_carIn121703:1" vType="default_016" speedFactor="0.95" vaporized="">
        <emissions CO_abs="2714.447171" CO2_abs="240834.740856" HC_abs="17.950007" PMx_abs="3.629159" NOx_abs="93.279241" fuel_abs="103.524782" electricity_abs="0"/>
    </tripinfo>
    <tripinfo id="h3568c1:3" depart="57656.00" departLane="266565295#5_1" departPos="5.10" departSpeed="0.00" departDelay="0.80" arrival="57744.00" arrivalLane="-24634415_1" arrivalPos="62.03" arrivalSpeed="11.73" duration="88.00" routeLength="807.40" waitingTime="0.00" waitingCount="0" stopTime="0.00" timeLoss="12.06" rerouteNo="1" devices="tripinfo_h3568c1:3 routing_h3568c1:3 emissions_h3568c1:3" vType="default_016" speedFactor="0.86" vaporized="">
        <emissions CO_abs="3542.170373" CO2_abs="208886.601923" HC_abs="20.980948" PMx_abs="3.459520" NOx_abs="84.305063" fuel_abs="89.792009" electricity_abs="0"/>
    </tripinfo>
    <tripinfo id="carIn80064:1" depart="57603.00" departLane="128361109#1_1" departPos="5.10" departSpeed="0.00" departDelay="0.40" arrival="57749.00" arrivalLane="-315358254#1_1" arrivalPos="137.16" arrivalSpeed="15.87" duration="146.00" routeLength="1587.97" waitingTime="34.00" waitingCount="3" stopTime="0.00" timeLoss="69.02" rerouteNo="1" devices="tripinfo_carIn80064:1 routing_carIn80064:1 emissions_carIn80064:1" vType="default_016" speedFactor="1.17" vaporized="">
        <emissions CO_abs="12885.167927" CO2_abs="615646.871713" HC_abs="73.402204" PMx_abs="12.886799" NOx_abs="259.867847" fuel_abs="264.640593" electricity_abs="0"/>
    </tripinfo>
    <tripinfo id="h317c2:1" depart="57707.00" departLane="-32978638#0_1" departPos="5.10" departSpeed="0.00" departDelay="0.10" arrival="57754.00" arrivalLane="-266565295#5_1" arrivalPos="172.76" arrivalSpeed="13.78" duration="47.00" routeLength="370.53" waitingTime="13.00" waitingCount="1" stopTime="0.00" timeLoss="21.38" rerouteNo="1" devices="tripinfo_h317c2:1 routing_h317c2:1 emissions_h317c2:1" vType="default_016" speedFactor="1.07" vaporized="">
        <emissions CO_abs="3148.384222" CO2_abs="138311.473952" HC_abs="17.581781" PMx_abs="2.656960" NOx_abs="57.845388" fuel_abs="59.454740" electricity_abs="0"/>
    </tripinfo>
    <tripinfo id="h12244c1:3" depart="57612.00" departLane="315358244_1" departPos="5.10" departSpeed="0.00" departDelay="0.40" arrival="57757.00" arrivalLane="386687235_1" arrivalPos="80.84" arrivalSpeed="11.93" duration="145.00" routeLength="1186.14" waitingTime="22.00" waitingCount="4" stopTime="0.00" timeLoss="45.45" rerouteNo="1" devices="tripinfo_h12244c1:3 routing_h12244c1:3 emissions_h12244c1:3" vType="default_016" speedFactor="0.87" vaporized="">
        <emissions CO_abs="5916.900307" CO2_abs="288616.198529" HC_abs="33.641566" PMx_abs="4.886990" NOx_abs="116.771021" fuel_abs="124.065333" electricity_abs="0"/>
    </tripinfo>
    <tripinfo id="h9563c2:5" depart="57631.00" departLane="315358244_1" departPos="5.10" departSpeed="0.00" departDelay="0.70" arrival="57759.00" arrivalLane="386687235_1" arrivalPos="80.84" arrivalSpeed="16.03" duration="128.00" routeLength="1186.14" waitingTime="16.00" waitingCount="3" stopTime="0.00" timeLoss="54.46" rerouteNo="1" devices="tripinfo_h9563c2:5 routing_h9563c2:5 emissions_h9563c2:5" vType="default_016" speedFactor="1.18" vaporized="">
        <emissions CO_abs="5874.695670" CO2_abs="321558.721644" HC_abs="34.156361" PMx_abs="5.778250" NOx_abs="130.612039" fuel_abs="138.225110" electricity_abs="0"/>
    </tripinfo>
    <tripinfo id="h5979c1:5" depart="57669.00" departLane="399835085#1_1" departPos="5.10" departSpeed="0.00" departDelay="0.00" arrival="57761.00" arrivalLane="-315358254#1_1" arrivalPos="137.16" arrivalSpeed="12.45" duration="92.00" routeLength="659.33" waitingTime="0.00" waitingCount="0" stopTime="0.00" timeLoss="10.63" rerouteNo="1" devices="tripinfo_h5979c1:5 routing_h5979c1:5 emissions_h5979c1:5" vType="default_016" speedFactor="0.90" vaporized="">
        <emissions CO_abs="3929.250158" CO2_abs="182853.028377" HC_abs="22.080881" PMx_abs="2.912910" NOx_abs="73.736961" fuel_abs="78.602029" electricity_abs="0"/>
    </tripinfo>
    <tripinfo id="h4538c1:1" depart="57701.00" departLane="-10427692#1_1" departPos="5.10" departSpeed="0.00" departDelay="0.00" arrival="57764.00" arrivalLane="-128361102#1_1" arrivalPos="274.68" arrivalSpeed="14.60" duration="63.00" routeLength="440.74" waitingTime="24.00" waitingCount="1" stopTime="0.00" timeLoss="33.20" rerouteNo="1" devices="tripinfo_h4538c1:1 routing_h4538c1:1 emissions_h4538c1:1" vType="default_016" speedFactor="1.06" vaporized="">
        <emissions CO_abs="5252.000327" CO2_abs="180131.298476" HC_abs="28.097347" PMx_abs="3.522676" NOx_abs="75.542750" fuel_abs="77.432366" electricity_abs="0"/>
    </tripinfo>
    <tripinfo id="h3154c1:1" depart="57658.00" departLane="24634507_1" departPos="5.10" departSpeed="0.00" departDelay="0.00" arrival="57768.00" arrivalLane="-266565295#5_1" arrivalPos="172.76" arrivalSpeed="14.78" duration="110.00" routeLength="1206.22" waitingTime="11.00" waitingCount="1" stopTime="0.00" timeLoss="29.63" rerouteNo="1" devices="tripinfo_h3154c1:1 routing_h3154c1:1 emissions_h3154c1:1" vType="default_016" speedFactor="1.12" vaporized="">
        <emissions CO_abs="5368.440495" CO2_abs="324793.677666" HC_abs="32.001848" PMx_abs="6.006826" NOx_abs="133.424934" fuel_abs="139.614907" electricity_abs="0"/>
    </tripinfo>
    <tripinfo id="h3326c1:2" depart="57656.00" departLane="22716069#0_1" departPos="5.10" departSpeed="0.00" departDelay="0.00" arrival="57773.00" arrivalLane="24634517#13_1" arrivalPos="111.62" arrivalSpeed="12.50" duration="117.00" routeLength="1312.81" waitingTime="0.00" waitingCount="0" stopTime="0.00" timeLoss="14.93" rerouteNo="1" devices="tripinfo_h3326c1:2 routing_h3326c1:2 emissions_h3326c1:2" vType="default_016" speedFactor="0.96" vaporized="">
        <emissions CO_abs="4222.173849" CO2_abs="316597.990948" HC_abs="26.636109" PMx_abs="5.266229" NOx_abs="126.762912" fuel_abs="136.091939" electricity_abs="0"/>
    </tripinfo>
    <tripinfo id="carIn30817:1" depart="57681.00" departLane="315358244_1" departPos="5.10" departSpeed="0.00" departDelay="0.20" arrival="57773.00" arrivalLane="447569997#1_1" arrivalPos="180.93" arrivalSpeed="7.19" duration="92.00" routeLength="718.04" waitingTime="12.00" waitingCount="2" stopTime="0.00" timeLoss="30.85" rerouteNo="1" devices="tripinfo_carIn30817:1 routing_carIn30817:1 emissions_carIn30817:1" vType="default_016" speedFactor="1.00" vaporized="">
        <emissions CO_abs="4361.600321" CO2_abs="210354.883131" HC_abs="24.770383" PMx_abs="3.772279" NOx_abs="86.719904" fuel_abs="90.423407" electricity_abs="0"/>
    </tripinfo>
    <tripinfo id="h330c1:1" depart="57736.00" departLane="-32978638#0_1" departPos="5.10" departSpeed="0.00" departDelay="0.20" arrival="57785.00" arrivalLane="-266565295#5_1" arrivalPos="172.76" arrivalSpeed="12.54" duration="49.00" routeLength="370.53" waitingTime="12.00" waitingCount="1" stopTime="0.00" timeLoss="21.28" rerouteNo="1" devices="tripinfo_h330c1:1 routing_h330c1:1 emissions_h330c1:1" vType="default_016" speedFactor="0.99" vaporized="">
        <emissions CO_abs="3313.507382" CO2_abs="135214.181080" HC_abs="18.282589" PMx_abs="2.672304" NOx_abs="57.256356" fuel_abs="58.123401" electricity_abs="0"/>
    </tripinfo>
    <tripinfo id="carIn27009:1" depart="57673.00" departLane="-447569998#1_1" departPos="5.10" departSpeed="0.00" departDelay="0.50" arrival="57786.00" arrivalLane="-26677539_1" arrivalPos="152.75" arrivalSpeed="9.27" duration="113.00" routeLength="699.63" waitingTime="24.00" waitingCount="1" stopTime="0.00" timeLoss="40.00" rerouteNo="1" devices="tripinfo_carIn27009:1 routing_carIn27009:1 emissions_carIn27009:1" vType="default_015" speedFactor="1.15" vaporized="">
        <emissions CO_abs="6994.037870" CO2_abs="248641.228641" HC_abs="37.624467" PMx_abs="4.616811" NOx_abs="104.181261" fuel_abs="106.882487" electricity_abs="0"/>
    </tripinfo>
    <tripinfo id="h645c1:1" depart="57622.00" departLane="266565295#5_1" departPos="5.10" departSpeed="0.00" departDelay="0.40" arrival="57787.00" arrivalLane="-315358244_1" arrivalPos="33.95" arrivalSpeed="12.37" duration="165.00" routeLength="1910.83" waitingTime="8.00" waitingCount="1" stopTime="0.00" timeLoss="23.43" rerouteNo="1" devices="tripinfo_h645c1:1 routing_h645c1:1 emissions_h645c1:1" vType="default_016" speedFactor="0.98" vaporized="">
        <emissions CO_abs="4627.239875" CO2_abs="361716.470519" HC_abs="29.493840" PMx_abs="5.766332" NOx_abs="142.088537" fuel_abs="155.486772" electricity_abs="0"/>
    </tripinfo>
    <tripinfo id="carIn12365:1" depart="57713.00" departLane="315358244_1" departPos="5.10" departSpeed="0.00" departDelay="0.50" arrival="57793.00" arrivalLane="447569997#1_1" arrivalPos="180.93" arrivalSpeed="7.46" duration="80.00" routeLength="718.04" waitingTime="7.00" waitingCount="1" stopTime="0.00" timeLoss="20.88" rerouteNo="1" devices="tripinfo_carIn12365:1 routing_carIn12365:1 emissions_carIn12365:1" vType="default_016" speedFactor="1.05" vaporized="">
        <emissions CO_abs="3240.083570" CO2_abs="189982.442379" HC_abs="19.151734" PMx_abs="3.291995" NOx_abs="77.199925" fuel_abs="81.665693" electricity_abs="0"/>
    </tripinfo>
    <tripinfo id="h7181c1:1" depart="57660.00" departLane="315358254#0_1" departPos="5.10" departSpeed="0.00" departDelay="0.10" arrival="57800.00" arrivalLane="306240162#0_0" arrivalPos="220.43" arrivalSpeed="16.48" duration="140.00" routeLength="932.35" waitingTime="60.00" waitingCount="3" stopTime="0.00" timeLoss="88.50" rerouteNo="1" devices="tripinfo_h7181c1:1 routing_h7181c1:1 emissions_h7181c1:1" vType="default_016" speedFactor="0.99" vaporized="">
        <emissions CO_abs="12910.860376" CO2_abs="449541.180943" HC_abs="69.520402" PMx_abs="9.636975" NOx_abs="193.707830" fuel_abs="193.241176" electricity_abs="0"/>
    </tripinfo>
    <tripinfo id="carIn86816:1" depart="57617.00" departLane="128361102#0_1" departPos="5.10" departSpeed="0.00" departDelay="0.80" arrival="57803.00" arrivalLane="201956811#0_1" arrivalPos="40.40" arrivalSpeed="14.18" duration="186.00" routeLength="2067.33" waitingTime="19.00" waitingCount="2" stopTime="0.00" timeLoss="46.09" rerouteNo="1" devices="tripinfo_carIn86816:1 routing_carIn86816:1 emissions_carIn86816:1" vType="default_016" speedFactor="1.08" vaporized="">
        <emissions CO_abs="7479.179342" CO2_abs="496843.712105" HC_abs="45.697264" PMx_abs="8.792212" NOx_abs="200.992379" fuel_abs="213.571916" electricity_abs="0"/>
    </tripinfo>
    <tripinfo id="carIn107084:1" depart="57601.00" departLane="124812856#0_1" departPos="5.10" departSpeed="0.00" departDelay="0.70" arrival="57804.00" arrivalLane="-128361102#1_1" arrivalPos="274.68" arrivalSpeed="15.01" duration="203.00" routeLength="2250.49" waitingTime="26.00" waitingCount="2" stopTime="0.00" timeLoss="52.91" rerouteNo="1" devices="tripinfo_carIn107084:1 routing_carIn107084:1 emissions_carIn107084:1" vType="default_016" speedFactor="1.10" vaporized="">
        <emissions CO_abs="9300.661757" CO2_abs="562897.234778" HC_abs="55.300557" PMx_abs="10.028724" NOx_abs="227.866391" fuel_abs="241.966098" electricity_abs="0"/>
    </tripinfo>
    <tripinfo id="carIn107282:1" depart="57749.00" departLane="-447569998#1_1" departPos="5.10" departSpeed="0.00" departDelay="0.00" arrival="57819.00" arrivalLane="315358242#0_1" arrivalPos="165.37" arrivalSpeed="11.32" duration="70.00" routeLength="448.50" waitingTime="13.00" waitingCount="1" stopTime="0.00" timeLoss="21.39" rerouteNo="1" devices="tripinfo_carIn107282:1 routing_carIn107282:1 emissions_carIn107282:1" vType="default_016" speedFactor="0.86" vaporized="">
        <emissions CO_abs="3972.262131" CO2_abs="147756.678398" HC_abs="21.507523" PMx_abs="2.635610" NOx_abs="61.084456" fuel_abs="63.515639" electricity_abs="0"/>
    </tripinfo>
    <tripinfo id="carIn50326:1" depart="57651.00" departLane="128361102#0_1" departPos="5.10" departSpeed="0.00" departDelay="0.30" arrival="57822.00" arrivalLane="18809673#0_1" arrivalPos="473.56" arrivalSpeed="13.40" duration="171.00" routeLength="1591.07" waitingTime="21.00" waitingCount="2" stopTime="0.00" timeLoss="44.93" rerouteNo="1" devices="tripinfo_carIn50326:1 routing_carIn50326:1 emissions_carIn50326:1" vType="default_016" speedFactor="1.04" vaporized="">
        <emissions CO_abs="7318.488852" CO2_abs="397355.822978" HC_abs="42.519082" PMx_abs="6.818759" NOx_abs="160.261641" fuel_abs="170.807690" electricity_abs="0"/>
    </tripinfo>
    <tripinfo id="carIn81860:1" depart="57712.00" departLane="128361102#0_1" departPos="5.10" departSpeed="0.00" departDelay="0.60" arrival="57826.00" arrivalLane="-24634517#17_1" arrivalPos="6.43" arrivalSpeed="7.03" duration="114.00" routeLength="1229.64" waitingTime="6.00" waitingCount="1" stopTime="0.00" timeLoss="23.31" rerouteNo="1" devices="tripinfo_carIn81860:1 routing_carIn81860:1 emissions_carIn81860:1" vType="default_016" speedFactor="0.99" vaporized="">
        <emissions CO_abs="4045.616894" CO2_abs="279889.100656" HC_abs="24.946223" PMx_abs="4.555503" NOx_abs="111.003348" fuel_abs="120.312820" electricity_abs="0"/>
    </tripinfo>
    <tripinfo id="h11737c1:1" depart="57665.00" departLane="272042143_1" departPos="5.10" departSpeed="0.00" departDelay="1.50" arrival="57827.00" arrivalLane="-315358254#1_1" arrivalPos="137.16" arrivalSpeed="13.74" duration="162.00" routeLength="1596.88" waitingTime="24.00" waitingCount="2" stopTime="0.00" timeLoss="45.67" rerouteNo="1" devices="tripinfo_h11737c1:1 routing_h11737c1:1 emissions_h11737c1:1" vType="default_016" speedFactor="1.00" vaporized="">
        <emissions CO_abs="7564.663694" CO2_abs="413433.316737" HC_abs="44.148484" PMx_abs="7.342834" NOx_abs="168.143775" fuel_abs="177.718389" electricity_abs="0"/>
    </tripinfo>
    <tripinfo id="carIn126288:1" depart="57674.00" departLane="272042143_1" departPos="5.10" departSpeed="0.00" departDelay="0.00" arrival="57829.00" arrivalLane="-315358254#1_1" arrivalPos="137.16" arrivalSpeed="12.78" duration="155.00" routeLength="1596.88" waitingTime="15.00" waitingCount="1" stopTime="0.00" timeLoss="34.33" rerouteNo="1" devices="tripinfo_carIn126288:1 routing_carIn126288:1 emissions_carIn126288:1" vType="default_016" speedFactor="0.96" vaporized="">
        <emissions CO_abs="6063.512879" CO2_abs="370740.363144" HC_abs="36.243862" PMx_abs="6.202094" NOx_abs="148.354205" fuel_abs="159.366363" electricity_abs="0"/>
    </tripinfo>
    <tripinfo id="carIn12152:1" depart="57647.00" departLane="24599188#0.94_1" departPos="5.10" departSpeed="0.00" departDelay="0.50" arrival="57832.00" arrivalLane="-315358254#1_1" arrivalPos="137.16" arrivalSpeed="14.57" duration="185.00" routeLength="2034.31" waitingTime="15.00" waitingCount="2" stopTime="0.00" timeLoss="43.52" rerouteNo="1" devices="tripinfo_carIn12152:1 routing_carIn12152:1 emissions_carIn12152:1" vType="default_016" speedFactor="1.11" vaporized="">
        <emissions CO_abs="7640.644422" CO2_abs="480661.260492" HC_abs="45.885485" PMx_abs="8.352175" NOx_abs="193.542093" fuel_abs="206.616319" electricity_abs="0"/>
    </tripinfo>
    <tripinfo id="carIn118591:1" depart="57689.00" departLane="315358244_1" departPos="5.10" departSpeed="0.00" departDelay="0.20" arrival="57834.00" arrivalLane="386687235_1" arrivalPos="80.84" arrivalSpeed="9.63" duration="145.00" routeLength="1186.14" waitingTime="8.00" waitingCount="2" stopTime="0.00" timeLoss="30.15" rerouteNo="1" devices="tripinfo_carIn118591:1 routing_carIn118591:1 emissions_carIn118591:1" vType="default_016" speedFactor="0.75" vaporized="">
        <emissions CO_abs="4924.440250" CO2_abs="283034.531123" HC_abs="28.917729" PMx_abs="4.308215" NOx_abs="111.949368" fuel_abs="121.665912" electricity_abs="0"/>
    </tripinfo>
    <tripinfo id="h16072c2:3" depart="57663.00" departLane="315358254#0_1" departPos="5.10" departSpeed="0.00" departDelay="2.50" arrival="57835.00" arrivalLane="386687235_2" arrivalPos="80.84" arrivalSpeed="12.35" duration="172.00" routeLength="1611.92" waitingTime="23.00" waitingCount="2" stopTime="0.00" timeLoss="43.93" rerouteNo="1" devices="tripinfo_h16072c2:3 routing_h16072c2:3 emissions_h16072c2:3" vType="default_016" speedFactor="0.92" vaporized="">
        <emissions CO_abs="7014.968621" CO2_abs="385979.627083" HC_abs="40.937050" PMx_abs="6.523612" NOx_abs="155.397139" fuel_abs="165.917559" electricity_abs="0"/>
    </tripinfo>
    <tripinfo id="carIn48184:1" depart="57613.00" departLane="-306240162#1_0" departPos="5.10" departSpeed="0.00" departDelay="0.70" arrival="57836.00" arrivalLane="386687235_1" arrivalPos="80.84" arrivalSpeed="12.52" duration="223.00" routeLength="2257.41" waitingTime="44.00" waitingCount="3" stopTime="0.00" timeLoss="74.30" rerouteNo="1" devices="tripinfo_carIn48184:1 routing_carIn48184:1 emissions_carIn48184:1" vType="default_016" speedFactor="1.00" vaporized="">
        <emissions CO_abs="11899.848812" CO2_abs="593767.653765" HC_abs="68.087027" PMx_abs="10.979271" NOx_abs="242.030416" fuel_abs="255.237319" electricity_abs="0"/>
    </tripinfo>
    <tripinfo id="h17549c1:1" depart="57680.00" departLane="-447569998#1_1" departPos="5.10" departSpeed="0.00" departDelay="0.00" arrival="57839.00" arrivalLane="-315358254#1_1" arrivalPos="137.16" arrivalSpeed="14.73" duration="159.00" routeLength="1746.60" waitingTime="17.00" waitingCount="1" stopTime="0.00" timeLoss="33.99" rerouteNo="1" devices="tripinfo_h17549c1:1 routing_h17549c1:1 emissions_h17549c1:1" vType="default_016" speedFactor="1.09" vaporized="">
        <emissions CO_abs="6847.162565" CO2_abs="387913.555636" HC_abs="40.234520" PMx_abs="6.877459" NOx_abs="157.215385" fuel_abs="166.748310" electricity_abs="0"/>
    </tripinfo>
    <tripinfo id="carIn77943:1" depart="57608.00" departLane="124812856#0_1" departPos="5.10" departSpeed="0.00" departDelay="2.50" arrival="57841.00" arrivalLane="-128361102#1_1" arrivalPos="274.68" arrivalSpeed="11.03" duration="233.00" routeLength="2250.49" waitingTime="16.00" waitingCount="2" stopTime="0.00" timeLoss="42.26" rerouteNo="1" devices="tripinfo_carIn77943:1 routing_carIn77943:1 emissions_carIn77943:1" vType="default_016" speedFactor="0.86" vaporized="">
        <emissions CO_abs="7598.405828" CO2_abs="487600.499780" HC_abs="45.887605" PMx_abs="7.690342" NOx_abs="193.185003" fuel_abs="209.600116" electricity_abs="0"/>
    </tripinfo>
    <tripinfo id="carIn81046:1" depart="57611.00" departLane="124812856#0_1" departPos="5.10" departSpeed="0.00" departDelay="2.50" arrival="57843.00" arrivalLane="-128361102#1_1" arrivalPos="274.68" arrivalSpeed="13.61" duration="232.00" routeLength="2250.49" waitingTime="14.00" waitingCount="2" stopTime="0.00" timeLoss="76.11" rerouteNo="1" devices="tripinfo_carIn81046:1 routing_carIn81046:1 emissions_carIn81046:1" vType="default_016" speedFactor="1.06" vaporized="">
        <emissions CO_abs="9122.070434" CO2_abs="562337.149451" HC_abs="54.717268" PMx_abs="9.793628" NOx_abs="229.162671" fuel_abs="241.725291" electricity_abs="0"/>
    </tripinfo>
    <tripinfo id="carIn77438:1" depart="57614.00" departLane="124812856#0_1" departPos="5.10" departSpeed="0.00" departDelay="1.10" arrival="57844.00" arrivalLane="-128361102#1_1" arrivalPos="274.68" arrivalSpeed="14.65" duration="230.00" routeLength="2250.49" waitingTime="11.00" waitingCount="2" stopTime="0.00" timeLoss="76.38" rerouteNo="1" devices="tripinfo_carIn77438:1 routing_carIn77438:1 emissions_carIn77438:1" vType="default_016" speedFactor="1.07" vaporized="">
        <emissions CO_abs="9179.262826" CO2_abs="585881.225368" HC_abs="55.546245" PMx_abs="10.223093" NOx_abs="238.681018" fuel_abs="251.845621" electricity_abs="0"/>
    </tripinfo>
    <tripinfo id="randUni15030:1" depart="57735.00" departLane="386687232#0_1" departPos="5.10" departSpeed="0.00" departDelay="0.10" arrival="57845.00" arrivalLane="26677539_1" arrivalPos="151.98" arrivalSpeed="6.91" duration="110.00" routeLength="919.89" waitingTime="8.00" waitingCount="2" stopTime="0.00" timeLoss="25.31" rerouteNo="1" devices="tripinfo_randUni15030:1 routing_randUni15030:1 emissions_randUni15030:1" vType="random_016" speedFactor="0.98" vaporized="">
        <emissions CO_abs="4432.963907" CO2_abs="237264.595621" HC_abs="25.701404" PMx_abs="4.014579" NOx_abs="96.147070" fuel_abs="101.990813" electricity_abs="0"/>
    </tripinfo>
    <tripinfo id="h3864c1:3" depart="57678.00" departLane="24693977#1_1" departPos="5.10" departSpeed="0.00" departDelay="0.00" arrival="57850.00" arrivalLane="201956820_1" arrivalPos="48.33" arrivalSpeed="15.56" duration="172.00" routeLength="1574.85" waitingTime="22.00" waitingCount="3" stopTime="0.00" timeLoss="58.21" rerouteNo="1" devices="tripinfo_h3864c1:3 routing_h3864c1:3 emissions_h3864c1:3" vType="default_016" speedFactor="1.14" vaporized="">
        <emissions CO_abs="8752.776220" CO2_abs="504550.832076" HC_abs="51.744548" PMx_abs="9.438889" NOx_abs="209.334139" fuel_abs="216.884895" electricity_abs="0"/>
    </tripinfo>
    <tripinfo id="carIn7949:1" depart="57676.00" departLane="128361109#1_1" departPos="5.10" departSpeed="0.00" departDelay="2.10" arrival="57853.00" arrivalLane="386687235_1" arrivalPos="80.84" arrivalSpeed="13.89" duration="177.00" routeLength="2088.57" waitingTime="8.00" waitingCount="2" stopTime="0.00" timeLoss="29.63" rerouteNo="1" devices="tripinfo_carIn7949:1 routing_carIn7949:1 emissions_carIn7949:1" vType="default_016" speedFactor="1.02" vaporized="">
        <emissions CO_abs="5388.831900" CO2_abs="430925.308310" HC_abs="34.611043" PMx_abs="7.192288" NOx_abs="171.318642" fuel_abs="185.236155" electricity_abs="0"/>
    </tripinfo>
    <tripinfo id="carIn75660:1" depart="57679.00" departLane="128361109#1_1" departPos="5.10" departSpeed="0.00" departDelay="3.40" arrival="57854.00" arrivalLane="386687235_1" arrivalPos="80.84" arrivalSpeed="13.47" duration="175.00" routeLength="2088.57" waitingTime="9.00" waitingCount="2" stopTime="0.00" timeLoss="29.57" rerouteNo="1" devices="tripinfo_carIn75660:1 routing_carIn75660:1 emissions_carIn75660:1" vType="default_016" speedFactor="1.04" vaporized="">
        <emissions CO_abs="5541.437307" CO2_abs="433132.714501" HC_abs="35.343631" PMx_abs="7.117773" NOx_abs="171.065427" fuel_abs="186.185345" electricity_abs="0"/>
    </tripinfo>
    <tripinfo id="h11868c1:5" depart="57700.00" departLane="315358254#0_1" departPos="5.10" departSpeed="0.00" departDelay="0.10" arrival="57855.00" arrivalLane="386687235_2" arrivalPos="80.84" arrivalSpeed="14.13" duration="155.00" routeLength="1611.92" waitingTime="14.00" waitingCount="3" stopTime="0.00" timeLoss="47.74" rerouteNo="1" devices="tripinfo_h11868c1:5 routing_h11868c1:5 emissions_h11868c1:5" vType="default_016" speedFactor="1.10" vaporized="">
        <emissions CO_abs="7249.610213" CO2_abs="441016.146226" HC_abs="43.377816" PMx_abs="7.978907" NOx_abs="180.604281" fuel_abs="189.574179" electricity_abs="0"/>
    </tripinfo>
    <tripinfo id="randUni31145:1" depart="57814.00" departLane="10425609#0_1" departPos="5.10" departSpeed="0.00" departDelay="0.30" arrival="57855.00" arrivalLane="201956810_1" arrivalPos="71.65" arrivalSpeed="14.16" duration="41.00" routeLength="255.78" waitingTime="10.00" waitingCount="1" stopTime="0.00" timeLoss="21.17" rerouteNo="1" devices="tripinfo_randUni31145:1 routing_randUni31145:1 emissions_randUni31145:1" vType="random_016" speedFactor="1.05" vaporized="">
        <emissions CO_abs="2715.207346" CO2_abs="125737.183994" HC_abs="15.340106" PMx_abs="2.474483" NOx_abs="53.399870" fuel_abs="54.049282" electricity_abs="0"/>
    </tripinfo>