<?xml version="1.0" encoding="UTF-8"?>

<!-- generated on 2021-10-26 20:07:37 by Eclipse SUMO sumo Version 1.10.0
<configuration xmlns:xsi="http://www.w3.org/2001/XMLSchema-instance" xsi:noNamespaceSchemaLocation="http://sumo.dlr.de/xsd/sumoConfiguration.xsd">

    <input>
        <net-file value="/Users/behradkoohy/sumo-scratchpad/RESCO/environments/ingolstadt21/ingolstadt21.net.xml"/>
        <route-files value="/Users/behradkoohy/sumo-scratchpad/RESCO/environments/ingolstadt21/ingolstadt21.rou.xml"/>
    </input>

    <output>
        <tripinfo-output value="/Users/behradkoohy/sumo-scratchpad/RESCO/logs/MPLight-tr0-ingolstadt21-21-mplight-pressure/tripinfo_69.xml"/>
        <tripinfo-output.write-unfinished value="true"/>
    </output>

    <time>
        <begin value="57600"/>
        <end value="61200"/>
    </time>

    <processing>
        <time-to-teleport value="-1"/>
    </processing>

    <report>
        <no-warnings value="true"/>
        <no-step-log value="true"/>
    </report>

    <emissions>
        <device.emissions.probability value="1"/>
    </emissions>

    <traci_server>
        <remote-port value="64094"/>
    </traci_server>

    <random_number>
        <random value="true"/>
    </random_number>

</configuration>
-->

<tripinfos xmlns:xsi="http://www.w3.org/2001/XMLSchema-instance" xsi:noNamespaceSchemaLocation="http://sumo.dlr.de/xsd/tripinfo_file.xsd">
    <tripinfo id="h15454c2:3" depart="57612.00" departLane="24608844_1" departPos="5.10" departSpeed="0.00" departDelay="0.50" arrival="57656.00" arrivalLane="32978638#0_1" arrivalPos="49.29" arrivalSpeed="12.63" duration="44.00" routeLength="354.79" waitingTime="0.00" waitingCount="0" stopTime="0.00" timeLoss="10.04" rerouteNo="1" devices="tripinfo_h15454c2:3 routing_h15454c2:3 emissions_h15454c2:3" vType="default_016" speedFactor="1.00" vaporized="">
        <emissions CO_abs="2262.775299" CO2_abs="110914.341087" HC_abs="12.894502" PMx_abs="1.996501" NOx_abs="46.078702" fuel_abs="47.677700" electricity_abs="0"/>
    </tripinfo>
    <tripinfo id="carIn60260:1" depart="57606.00" departLane="315358254#0_1" departPos="5.10" departSpeed="0.00" departDelay="0.90" arrival="57672.00" arrivalLane="399835085#1_1" arrivalPos="212.23" arrivalSpeed="8.50" duration="66.00" routeLength="430.98" waitingTime="11.00" waitingCount="1" stopTime="0.00" timeLoss="21.02" rerouteNo="1" devices="tripinfo_carIn60260:1 routing_carIn60260:1 emissions_carIn60260:1" vType="default_016" speedFactor="1.03" vaporized="">
        <emissions CO_abs="3099.208592" CO2_abs="131794.360321" HC_abs="17.176826" PMx_abs="2.413556" NOx_abs="54.957108" fuel_abs="56.653489" electricity_abs="0"/>
    </tripinfo>
    <tripinfo id="carIn53971:1" depart="57640.00" departLane="272042143_1" departPos="5.10" departSpeed="0.00" departDelay="0.80" arrival="57691.00" arrivalLane="24634414#1_1" arrivalPos="162.19" arrivalSpeed="8.80" duration="51.00" routeLength="493.04" waitingTime="0.00" waitingCount="0" stopTime="0.00" timeLoss="9.50" rerouteNo="1" devices="tripinfo_carIn53971:1 routing_carIn53971:1 emissions_carIn53971:1" vType="default_016" speedFactor="1.11" vaporized="">
        <emissions CO_abs="2440.027926" CO2_abs="139270.281683" HC_abs="14.358150" PMx_abs="2.522485" NOx_abs="57.609669" fuel_abs="59.866464" electricity_abs="0"/>
    </tripinfo>
    <tripinfo id="carIn22761:1" depart="57616.00" departLane="-306240162#1_0" departPos="5.10" departSpeed="0.00" departDelay="2.10" arrival="57710.00" arrivalLane="399835085#1_1" arrivalPos="212.23" arrivalSpeed="9.04" duration="94.00" routeLength="1093.26" waitingTime="4.00" waitingCount="1" stopTime="0.00" timeLoss="23.54" rerouteNo="1" devices="tripinfo_carIn22761:1 routing_carIn22761:1 emissions_carIn22761:1" vType="default_016" speedFactor="1.12" vaporized="">
        <emissions CO_abs="4726.611514" CO2_abs="300446.575989" HC_abs="28.700219" PMx_abs="5.760866" NOx_abs="123.907188" fuel_abs="129.148724" electricity_abs="0"/>
    </tripinfo>
    <tripinfo id="h3688c1:1" depart="57625.00" departLane="201201950#1_1" departPos="5.10" departSpeed="0.00" departDelay="0.00" arrival="57718.00" arrivalLane="32978638#0_1" arrivalPos="49.29" arrivalSpeed="15.35" duration="93.00" routeLength="1089.75" waitingTime="7.00" waitingCount="1" stopTime="0.00" timeLoss="21.18" rerouteNo="1" devices="tripinfo_h3688c1:1 routing_h3688c1:1 emissions_h3688c1:1" vType="default_016" speedFactor="1.11" vaporized="">
        <emissions CO_abs="4611.475066" CO2_abs="284431.278655" HC_abs="27.715452" PMx_abs="5.358886" NOx_abs="117.591226" fuel_abs="122.264615" electricity_abs="0"/>
    </tripinfo>
    <tripinfo id="h7800c1:5" depart="57696.00" departLane="-447569998#1_1" departPos="5.10" departSpeed="0.00" departDelay="0.00" arrival="57719.00" arrivalLane="-447569998#1_1" arrivalPos="180.76" arrivalSpeed="8.14" duration="23.00" routeLength="175.66" waitingTime="0.00" waitingCount="0" stopTime="0.00" timeLoss="3.44" rerouteNo="1" devices="tripinfo_h7800c1:5 routing_h7800c1:5 emissions_h7800c1:5" vType="default_016" speedFactor="1.08" vaporized="">
        <emissions CO_abs="1058.114215" CO2_abs="48180.375463" HC_abs="5.922203" PMx_abs="0.772954" NOx_abs="19.467472" fuel_abs="20.711045" electricity_abs="0"/>
    </tripinfo>
    <tripinfo id="carIn121703:1" depart="57647.00" departLane="386687232#0_1" departPos="5.10" departSpeed="0.00" departDelay="0.30" arrival="57738.00" arrivalLane="-315358244_1" arrivalPos="33.95" arrivalSpeed="13.54" duration="91.00" routeLength="1157.39" waitingTime="0.00" waitingCount="0" stopTime="0.00" timeLoss="8.14" rerouteNo="1" devices="tripinfo_carIn121703:1 routing_carIn121703:1 emissions_carIn121703:1" vType="default_016" speedFactor="1.02" vaporized="">
        <emissions CO_abs="2501.024168" CO2_abs="231307.022592" HC_abs="16.731056" PMx_abs="3.569410" NOx_abs="89.616051" fuel_abs="99.429039" electricity_abs="0"/>
    </tripinfo>
    <tripinfo id="S5R_frequency1.2" depart="57616.00" departLane="315358250#0_1" departPos="12.10" departSpeed="0.00" departDelay="4.40" arrival="57740.00" arrivalLane="386687235_1" arrivalPos="80.84" arrivalSpeed="13.60" duration="124.00" routeLength="1115.62" waitingTime="24.00" waitingCount="1" stopTime="0.00" timeLoss="42.08" rerouteNo="1" devices="tripinfo_S5R_frequency1.2 routing_S5R_frequency1.2 emissions_S5R_frequency1.2" vType="bus" speedFactor="1.00" vaporized="">
        <emissions CO_abs="2422.149918" CO2_abs="1365781.221042" HC_abs="524.710411" PMx_abs="256.541016" NOx_abs="11003.009897" fuel_abs="582.444859" electricity_abs="0"/>
    </tripinfo>
    <tripinfo id="h12244c1:3" depart="57612.00" departLane="315358244_1" departPos="5.10" departSpeed="0.00" departDelay="0.40" arrival="57748.00" arrivalLane="386687235_1" arrivalPos="80.84" arrivalSpeed="10.93" duration="136.00" routeLength="1186.14" waitingTime="7.00" waitingCount="1" stopTime="0.00" timeLoss="27.61" rerouteNo="1" devices="tripinfo_h12244c1:3 routing_h12244c1:3 emissions_h12244c1:3" vType="default_016" speedFactor="0.79" vaporized="">
        <emissions CO_abs="4776.070356" CO2_abs="253533.610583" HC_abs="27.604466" PMx_abs="4.110686" NOx_abs="101.781484" fuel_abs="108.984515" electricity_abs="0"/>
    </tripinfo>
    <tripinfo id="h4538c1:1" depart="57701.00" departLane="-10427692#1_1" departPos="5.10" departSpeed="0.00" departDelay="0.00" arrival="57749.00" arrivalLane="-128361102#1_1" arrivalPos="274.68" arrivalSpeed="12.58" duration="48.00" routeLength="440.74" waitingTime="3.00" waitingCount="1" stopTime="0.00" timeLoss="13.26" rerouteNo="1" devices="tripinfo_h4538c1:1 routing_h4538c1:1 emissions_h4538c1:1" vType="default_016" speedFactor="0.91" vaporized="">
        <emissions CO_abs="2133.296223" CO2_abs="128212.902649" HC_abs="12.706679" PMx_abs="2.179800" NOx_abs="51.933327" fuel_abs="55.113505" electricity_abs="0"/>
    </tripinfo>
    <tripinfo id="h3568c1:3" depart="57656.00" departLane="266565295#5_1" departPos="5.10" departSpeed="0.00" departDelay="0.80" arrival="57750.00" arrivalLane="-24634415_1" arrivalPos="62.03" arrivalSpeed="10.98" duration="94.00" routeLength="807.40" waitingTime="3.00" waitingCount="1" stopTime="0.00" timeLoss="20.54" rerouteNo="1" devices="tripinfo_h3568c1:3 routing_h3568c1:3 emissions_h3568c1:3" vType="default_016" speedFactor="0.87" vaporized="">
        <emissions CO_abs="4024.205522" CO2_abs="221534.896303" HC_abs="23.495024" PMx_abs="3.853861" NOx_abs="90.745051" fuel_abs="95.228938" electricity_abs="0"/>
    </tripinfo>
    <tripinfo id="h7181c1:1" depart="57660.00" departLane="315358254#0_1" departPos="5.10" departSpeed="0.00" departDelay="0.10" arrival="57750.00" arrivalLane="306240162#0_0" arrivalPos="220.43" arrivalSpeed="18.53" duration="90.00" routeLength="932.35" waitingTime="22.00" waitingCount="2" stopTime="0.00" timeLoss="44.31" rerouteNo="1" devices="tripinfo_h7181c1:1 routing_h7181c1:1 emissions_h7181c1:1" vType="default_016" speedFactor="1.15" vaporized="">
        <emissions CO_abs="7816.900208" CO2_abs="401975.393497" HC_abs="45.252206" PMx_abs="8.530612" NOx_abs="171.546953" fuel_abs="172.791446" electricity_abs="0"/>
    </tripinfo>
    <tripinfo id="carIn30817:1" depart="57681.00" departLane="315358244_1" departPos="5.10" departSpeed="0.00" departDelay="0.20" arrival="57752.00" arrivalLane="447569997#1_1" arrivalPos="180.93" arrivalSpeed="8.10" duration="71.00" routeLength="718.04" waitingTime="0.00" waitingCount="0" stopTime="0.00" timeLoss="7.90" rerouteNo="1" devices="tripinfo_carIn30817:1 routing_carIn30817:1 emissions_carIn30817:1" vType="default_016" speedFactor="0.98" vaporized="">
        <emissions CO_abs="2283.760186" CO2_abs="154410.650353" HC_abs="13.944347" PMx_abs="2.364532" NOx_abs="60.580303" fuel_abs="66.375028" electricity_abs="0"/>
    </tripinfo>
    <tripinfo id="h317c2:1" depart="57707.00" departLane="-32978638#0_1" departPos="5.10" departSpeed="0.00" departDelay="0.10" arrival="57754.00" arrivalLane="-266565295#5_1" arrivalPos="172.76" arrivalSpeed="14.16" duration="47.00" routeLength="370.53" waitingTime="11.00" waitingCount="1" stopTime="0.00" timeLoss="20.38" rerouteNo="1" devices="tripinfo_h317c2:1 routing_h317c2:1 emissions_h317c2:1" vType="default_016" speedFactor="1.04" vaporized="">
        <emissions CO_abs="3206.945157" CO2_abs="137392.290312" HC_abs="17.850701" PMx_abs="2.689616" NOx_abs="57.882972" fuel_abs="59.059603" electricity_abs="0"/>
    </tripinfo>
    <tripinfo id="h5979c1:5" depart="57669.00" departLane="399835085#1_1" departPos="5.10" departSpeed="0.00" departDelay="0.00" arrival="57757.00" arrivalLane="-315358254#1_1" arrivalPos="137.16" arrivalSpeed="16.38" duration="88.00" routeLength="659.33" waitingTime="7.00" waitingCount="1" stopTime="0.00" timeLoss="26.10" rerouteNo="1" devices="tripinfo_h5979c1:5 routing_h5979c1:5 emissions_h5979c1:5" vType="default_016" speedFactor="1.18" vaporized="">
        <emissions CO_abs="4316.488380" CO2_abs="205306.327399" HC_abs="24.450230" PMx_abs="3.684758" NOx_abs="84.881835" fuel_abs="88.253253" electricity_abs="0"/>
    </tripinfo>
    <tripinfo id="h3326c1:2" depart="57656.00" departLane="22716069#0_1" departPos="5.10" departSpeed="0.00" departDelay="0.00" arrival="57767.00" arrivalLane="24634517#13_1" arrivalPos="111.62" arrivalSpeed="13.45" duration="111.00" routeLength="1312.81" waitingTime="0.00" waitingCount="0" stopTime="0.00" timeLoss="14.66" rerouteNo="1" devices="tripinfo_h3326c1:2 routing_h3326c1:2 emissions_h3326c1:2" vType="default_016" speedFactor="1.01" vaporized="">
        <emissions CO_abs="4179.416142" CO2_abs="320194.564176" HC_abs="26.454652" PMx_abs="5.376090" NOx_abs="128.049019" fuel_abs="137.637831" electricity_abs="0"/>
    </tripinfo>
    <tripinfo id="h3154c1:1" depart="57658.00" departLane="24634507_1" departPos="5.10" departSpeed="0.00" departDelay="0.00" arrival="57778.00" arrivalLane="-266565295#5_1" arrivalPos="172.76" arrivalSpeed="13.60" duration="120.00" routeLength="1206.22" waitingTime="12.00" waitingCount="1" stopTime="0.00" timeLoss="31.28" rerouteNo="1" devices="tripinfo_h3154c1:1 routing_h3154c1:1 emissions_h3154c1:1" vType="default_016" speedFactor="1.01" vaporized="">
        <emissions CO_abs="5671.369227" CO2_abs="332773.614416" HC_abs="33.642412" PMx_abs="5.949476" NOx_abs="136.079397" fuel_abs="143.045552" electricity_abs="0"/>
    </tripinfo>
    <tripinfo id="carIn27009:1" depart="57673.00" departLane="-447569998#1_1" departPos="5.10" departSpeed="0.00" departDelay="0.50" arrival="57784.00" arrivalLane="-26677539_1" arrivalPos="152.75" arrivalSpeed="7.15" duration="111.00" routeLength="699.63" waitingTime="13.00" waitingCount="1" stopTime="0.00" timeLoss="28.01" rerouteNo="1" devices="tripinfo_carIn27009:1 routing_carIn27009:1 emissions_carIn27009:1" vType="default_015" speedFactor="1.01" vaporized="">
        <emissions CO_abs="5426.085911" CO2_abs="213224.327098" HC_abs="29.625857" PMx_abs="3.711352" NOx_abs="88.118322" fuel_abs="91.657804" electricity_abs="0"/>
    </tripinfo>
    <tripinfo id="carIn107084:1" depart="57601.00" departLane="124812856#0_1" departPos="5.10" departSpeed="0.00" departDelay="0.70" arrival="57793.00" arrivalLane="-128361102#1_1" arrivalPos="274.68" arrivalSpeed="13.01" duration="192.00" routeLength="2250.49" waitingTime="0.00" waitingCount="0" stopTime="0.00" timeLoss="18.20" rerouteNo="1" devices="tripinfo_carIn107084:1 routing_carIn107084:1 emissions_carIn107084:1" vType="default_016" speedFactor="0.95" vaporized="">
        <emissions CO_abs="5157.239977" CO2_abs="427597.893184" HC_abs="33.434083" PMx_abs="6.701960" NOx_abs="167.883031" fuel_abs="183.806281" electricity_abs="0"/>
    </tripinfo>
    <tripinfo id="h11737c1:1" depart="57665.00" departLane="272042143_1" departPos="5.10" departSpeed="0.00" departDelay="1.50" arrival="57797.00" arrivalLane="-315358254#1_1" arrivalPos="137.16" arrivalSpeed="13.26" duration="132.00" routeLength="1596.88" waitingTime="1.00" waitingCount="1" stopTime="0.00" timeLoss="17.60" rerouteNo="1" devices="tripinfo_h11737c1:1 routing_h11737c1:1 emissions_h11737c1:1" vType="default_016" speedFactor="1.02" vaporized="">
        <emissions CO_abs="3985.865014" CO2_abs="334081.083931" HC_abs="25.809595" PMx_abs="5.297771" NOx_abs="130.898069" fuel_abs="143.607265" electricity_abs="0"/>
    </tripinfo>
    <tripinfo id="h645c1:1" depart="57622.00" departLane="266565295#5_1" departPos="5.10" departSpeed="0.00" departDelay="0.40" arrival="57798.00" arrivalLane="-315358244_1" arrivalPos="33.95" arrivalSpeed="13.51" duration="176.00" routeLength="1910.83" waitingTime="14.00" waitingCount="1" stopTime="0.00" timeLoss="36.69" rerouteNo="1" devices="tripinfo_h645c1:1 routing_h645c1:1 emissions_h645c1:1" vType="default_016" speedFactor="1.00" vaporized="">
        <emissions CO_abs="6060.917785" CO2_abs="396399.789992" HC_abs="36.816926" PMx_abs="6.532732" NOx_abs="157.276651" fuel_abs="170.396178" electricity_abs="0"/>
    </tripinfo>
    <tripinfo id="h330c1:1" depart="57736.00" departLane="-32978638#0_1" departPos="5.10" departSpeed="0.00" departDelay="0.20" arrival="57803.00" arrivalLane="-266565295#5_1" arrivalPos="172.76" arrivalSpeed="15.16" duration="67.00" routeLength="370.53" waitingTime="34.00" waitingCount="1" stopTime="0.00" timeLoss="43.43" rerouteNo="1" devices="tripinfo_h330c1:1 routing_h330c1:1 emissions_h330c1:1" vType="default_016" speedFactor="1.18" vaporized="">
        <emissions CO_abs="6844.268252" CO2_abs="207486.081255" HC_abs="36.075606" PMx_abs="4.401623" NOx_abs="89.540561" fuel_abs="89.191398" electricity_abs="0"/>
    </tripinfo>
    <tripinfo id="carIn77943:1" depart="57608.00" departLane="124812856#0_1" departPos="5.10" departSpeed="0.00" departDelay="2.50" arrival="57806.00" arrivalLane="-128361102#1_1" arrivalPos="274.68" arrivalSpeed="13.99" duration="198.00" routeLength="2250.49" waitingTime="7.00" waitingCount="1" stopTime="0.00" timeLoss="38.39" rerouteNo="1" devices="tripinfo_carIn77943:1 routing_carIn77943:1 emissions_carIn77943:1" vType="default_016" speedFactor="1.03" vaporized="">
        <emissions CO_abs="7018.987114" CO2_abs="515212.705454" HC_abs="44.027517" PMx_abs="8.888950" NOx_abs="207.789662" fuel_abs="221.467599" electricity_abs="0"/>
    </tripinfo>
    <tripinfo id="carIn81046:1" depart="57611.00" departLane="124812856#0_1" departPos="5.10" departSpeed="0.00" departDelay="2.50" arrival="57807.00" arrivalLane="-128361102#1_1" arrivalPos="274.68" arrivalSpeed="14.68" duration="196.00" routeLength="2250.49" waitingTime="7.00" waitingCount="1" stopTime="0.00" timeLoss="45.99" rerouteNo="1" devices="tripinfo_carIn81046:1 routing_carIn81046:1 emissions_carIn81046:1" vType="default_016" speedFactor="1.09" vaporized="">
        <emissions CO_abs="7611.715211" CO2_abs="548030.550443" HC_abs="47.516114" PMx_abs="9.655234" NOx_abs="222.486469" fuel_abs="235.574367" electricity_abs="0"/>
    </tripinfo>
    <tripinfo id="h9563c2:5" depart="57631.00" departLane="315358244_1" departPos="5.10" departSpeed="0.00" departDelay="0.70" arrival="57807.00" arrivalLane="386687235_1" arrivalPos="80.84" arrivalSpeed="13.83" duration="176.00" routeLength="1186.14" waitingTime="66.00" waitingCount="2" stopTime="0.00" timeLoss="92.52" rerouteNo="1" devices="tripinfo_h9563c2:5 routing_h9563c2:5 emissions_h9563c2:5" vType="default_016" speedFactor="1.04" vaporized="">
        <emissions CO_abs="13147.974184" CO2_abs="424481.455076" HC_abs="69.749763" PMx_abs="8.158373" NOx_abs="177.243516" fuel_abs="182.471131" electricity_abs="0"/>
    </tripinfo>
    <tripinfo id="carIn107282:1" depart="57749.00" departLane="-447569998#1_1" departPos="5.10" departSpeed="0.00" departDelay="0.00" arrival="57808.00" arrivalLane="315358242#0_1" arrivalPos="165.37" arrivalSpeed="11.24" duration="59.00" routeLength="448.50" waitingTime="5.00" waitingCount="1" stopTime="0.00" timeLoss="12.44" rerouteNo="1" devices="tripinfo_carIn107282:1 routing_carIn107282:1 emissions_carIn107282:1" vType="default_016" speedFactor="0.90" vaporized="">
        <emissions CO_abs="2312.959157" CO2_abs="110043.025161" HC_abs="13.089522" PMx_abs="1.921942" NOx_abs="45.316462" fuel_abs="47.303306" electricity_abs="0"/>
    </tripinfo>
    <tripinfo id="h19804c1:3" depart="57617.00" departLane="124812856#0_1" departPos="5.10" departSpeed="0.00" departDelay="1.50" arrival="57809.00" arrivalLane="-128361102#1_1" arrivalPos="274.68" arrivalSpeed="15.09" duration="192.00" routeLength="2232.46" waitingTime="6.00" waitingCount="1" stopTime="0.00" timeLoss="50.61" rerouteNo="1" devices="tripinfo_h19804c1:3 routing_h19804c1:3 emissions_h19804c1:3" vType="default_016" speedFactor="1.15" vaporized="">
        <emissions CO_abs="8582.248837" CO2_abs="606031.926144" HC_abs="53.394961" PMx_abs="11.257954" NOx_abs="250.167997" fuel_abs="260.505835" electricity_abs="0"/>
    </tripinfo>
    <tripinfo id="carIn12365:1" depart="57713.00" departLane="315358244_1" departPos="5.10" departSpeed="0.00" departDelay="0.50" arrival="57809.00" arrivalLane="447569997#1_1" arrivalPos="180.93" arrivalSpeed="5.37" duration="96.00" routeLength="718.04" waitingTime="4.00" waitingCount="1" stopTime="0.00" timeLoss="16.16" rerouteNo="1" devices="tripinfo_carIn12365:1 routing_carIn12365:1 emissions_carIn12365:1" vType="default_016" speedFactor="0.77" vaporized="">
        <emissions CO_abs="3531.566588" CO2_abs="167109.400569" HC_abs="19.902444" PMx_abs="2.597328" NOx_abs="66.719856" fuel_abs="71.834477" electricity_abs="0"/>
    </tripinfo>
    <tripinfo id="carIn129809:1" depart="57729.00" departLane="-447569998#1_1" departPos="5.10" departSpeed="0.00" departDelay="1.00" arrival="57813.00" arrivalLane="-315358244_1" arrivalPos="33.95" arrivalSpeed="13.57" duration="84.00" routeLength="706.49" waitingTime="10.00" waitingCount="2" stopTime="0.00" timeLoss="26.86" rerouteNo="1" devices="tripinfo_carIn129809:1 routing_carIn129809:1 emissions_carIn129809:1" vType="default_015" speedFactor="1.05" vaporized="">
        <emissions CO_abs="3698.211223" CO2_abs="202585.974265" HC_abs="21.527652" PMx_abs="3.571739" NOx_abs="82.802788" fuel_abs="87.083542" electricity_abs="0"/>
    </tripinfo>
    <tripinfo id="carIn82278:1" depart="57702.00" departLane="-306240162#1_0" departPos="5.10" departSpeed="0.00" departDelay="0.70" arrival="57814.00" arrivalLane="399835085#1_1" arrivalPos="212.23" arrivalSpeed="7.15" duration="112.00" routeLength="1093.26" waitingTime="9.00" waitingCount="1" stopTime="0.00" timeLoss="34.73" rerouteNo="1" devices="tripinfo_carIn82278:1 routing_carIn82278:1 emissions_carIn82278:1" vType="default_016" speedFactor="1.00" vaporized="">
        <emissions CO_abs="6231.510196" CO2_abs="350588.594964" HC_abs="36.701740" PMx_abs="6.801270" NOx_abs="146.022464" fuel_abs="150.702955" electricity_abs="0"/>
    </tripinfo>
    <tripinfo id="carIn118591:1" depart="57689.00" departLane="315358244_1" departPos="5.10" departSpeed="0.00" departDelay="0.20" arrival="57817.00" arrivalLane="386687235_1" arrivalPos="80.84" arrivalSpeed="13.09" duration="128.00" routeLength="1186.14" waitingTime="19.00" waitingCount="3" stopTime="0.00" timeLoss="41.39" rerouteNo="1" devices="tripinfo_carIn118591:1 routing_carIn118591:1 emissions_carIn118591:1" vType="default_016" speedFactor="0.99" vaporized="">
        <emissions CO_abs="5351.637527" CO2_abs="302125.576055" HC_abs="31.427783" PMx_abs="5.204108" NOx_abs="122.027255" fuel_abs="129.871734" electricity_abs="0"/>
    </tripinfo>
    <tripinfo id="h8343c1:5" depart="57679.00" departLane="315358254#0_1" departPos="5.10" departSpeed="0.00" departDelay="0.60" arrival="57818.00" arrivalLane="-24634510#5_1" arrivalPos="236.88" arrivalSpeed="14.54" duration="139.00" routeLength="2056.84" waitingTime="4.00" waitingCount="1" stopTime="0.00" timeLoss="24.03" rerouteNo="1" devices="tripinfo_h8343c1:5 routing_h8343c1:5 emissions_h8343c1:5" vType="default_016" speedFactor="1.09" vaporized="">
        <emissions CO_abs="7002.965362" CO2_abs="533429.306246" HC_abs="44.594107" PMx_abs="10.212732" NOx_abs="216.741271" fuel_abs="229.296858" electricity_abs="0"/>
    </tripinfo>
    <tripinfo id="carIn86816:1" depart="57617.00" departLane="128361102#0_1" departPos="5.10" departSpeed="0.00" departDelay="0.80" arrival="57827.00" arrivalLane="201956811#0_1" arrivalPos="40.40" arrivalSpeed="11.94" duration="210.00" routeLength="2067.33" waitingTime="17.00" waitingCount="2" stopTime="0.00" timeLoss="47.17" rerouteNo="1" devices="tripinfo_carIn86816:1 routing_carIn86816:1 emissions_carIn86816:1" vType="default_016" speedFactor="0.93" vaporized="">
        <emissions CO_abs="8243.811747" CO2_abs="490007.774161" HC_abs="48.971706" PMx_abs="8.270015" NOx_abs="197.400876" fuel_abs="210.634625" electricity_abs="0"/>
    </tripinfo>
    <tripinfo id="carIn77438:1" depart="57614.00" departLane="124812856#0_1" departPos="5.10" departSpeed="0.00" departDelay="1.10" arrival="57828.00" arrivalLane="-128361102#1_1" arrivalPos="274.68" arrivalSpeed="12.98" duration="214.00" routeLength="2250.49" waitingTime="12.00" waitingCount="2" stopTime="0.00" timeLoss="39.74" rerouteNo="1" devices="tripinfo_carIn77438:1 routing_carIn77438:1 emissions_carIn77438:1" vType="default_016" speedFactor="0.94" vaporized="">
        <emissions CO_abs="7684.299537" CO2_abs="507431.576520" HC_abs="46.805776" PMx_abs="8.267711" NOx_abs="201.744349" fuel_abs="218.124218" electricity_abs="0"/>
    </tripinfo>
    <tripinfo id="carIn102915:1" depart="57643.00" departLane="128361102#0_1" departPos="5.10" departSpeed="0.00" departDelay="0.40" arrival="57829.00" arrivalLane="201956811#0_1" arrivalPos="40.40" arrivalSpeed="13.48" duration="186.00" routeLength="2067.33" waitingTime="5.00" waitingCount="1" stopTime="0.00" timeLoss="36.19" rerouteNo="1" devices="tripinfo_carIn102915:1 routing_carIn102915:1 emissions_carIn102915:1" vType="default_016" speedFactor="1.01" vaporized="">
        <emissions CO_abs="6704.136348" CO2_abs="489292.704672" HC_abs="41.951045" PMx_abs="8.230006" NOx_abs="195.973242" fuel_abs="210.326072" electricity_abs="0"/>
    </tripinfo>
    <tripinfo id="h15382c1:3" depart="57626.00" departLane="124812856#0_1" departPos="5.10" departSpeed="0.00" departDelay="3.80" arrival="57830.00" arrivalLane="-128361102#1_1" arrivalPos="274.68" arrivalSpeed="16.53" duration="204.00" routeLength="2232.46" waitingTime="8.00" waitingCount="1" stopTime="0.00" timeLoss="70.91" rerouteNo="1" devices="tripinfo_h15382c1:3 routing_h15382c1:3 emissions_h15382c1:3" vType="default_016" speedFactor="1.23" vaporized="">
        <emissions CO_abs="9469.766499" CO2_abs="618522.605131" HC_abs="57.683300" PMx_abs="11.440502" NOx_abs="255.221991" fuel_abs="265.875674" electricity_abs="0"/>
    </tripinfo>
    <tripinfo id="carIn50326:1" depart="57651.00" departLane="128361102#0_1" departPos="5.10" departSpeed="0.00" departDelay="0.30" arrival="57830.00" arrivalLane="18809673#0_1" arrivalPos="473.56" arrivalSpeed="10.68" duration="179.00" routeLength="1591.07" waitingTime="4.00" waitingCount="1" stopTime="0.00" timeLoss="22.58" rerouteNo="1" devices="tripinfo_carIn50326:1 routing_carIn50326:1 emissions_carIn50326:1" vType="default_016" speedFactor="0.83" vaporized="">
        <emissions CO_abs="5793.103086" CO2_abs="344338.608447" HC_abs="34.279058" PMx_abs="5.192818" NOx_abs="135.714981" fuel_abs="148.018154" electricity_abs="0"/>
    </tripinfo>
    <tripinfo id="randUni33724:1" depart="57646.00" departLane="128361102#0_1" departPos="5.10" departSpeed="0.00" departDelay="1.20" arrival="57832.00" arrivalLane="201956811#0_1" arrivalPos="40.40" arrivalSpeed="14.72" duration="186.00" routeLength="2067.33" waitingTime="5.00" waitingCount="1" stopTime="0.00" timeLoss="48.00" rerouteNo="1" devices="tripinfo_randUni33724:1 routing_randUni33724:1 emissions_randUni33724:1" vType="random_016" speedFactor="1.10" vaporized="">
        <emissions CO_abs="7569.518292" CO2_abs="517146.585599" HC_abs="46.568974" PMx_abs="9.112823" NOx_abs="210.182426" fuel_abs="222.299003" electricity_abs="0"/>
    </tripinfo>
    <tripinfo id="carIn81860:1" depart="57712.00" departLane="128361102#0_1" departPos="5.10" departSpeed="0.00" departDelay="0.60" arrival="57833.00" arrivalLane="-24634517#17_1" arrivalPos="6.43" arrivalSpeed="6.58" duration="121.00" routeLength="1229.64" waitingTime="6.00" waitingCount="1" stopTime="0.00" timeLoss="23.10" rerouteNo="1" devices="tripinfo_carIn81860:1 routing_carIn81860:1 emissions_carIn81860:1" vType="default_016" speedFactor="0.92" vaporized="">
        <emissions CO_abs="4053.557834" CO2_abs="266765.965388" HC_abs="24.670023" PMx_abs="4.372643" NOx_abs="106.673774" fuel_abs="114.671776" electricity_abs="0"/>
    </tripinfo>
    <tripinfo id="randUni15030:1" depart="57735.00" departLane="386687232#0_1" departPos="5.10" departSpeed="0.00" departDelay="0.10" arrival="57833.00" arrivalLane="26677539_1" arrivalPos="151.98" arrivalSpeed="8.70" duration="98.00" routeLength="919.89" waitingTime="6.00" waitingCount="1" stopTime="0.00" timeLoss="21.13" rerouteNo="1" devices="tripinfo_randUni15030:1 routing_randUni15030:1 emissions_randUni15030:1" vType="random_016" speedFactor="1.09" vaporized="">
        <emissions CO_abs="4106.528939" CO2_abs="237501.779895" HC_abs="24.137535" PMx_abs="4.002119" NOx_abs="95.786412" fuel_abs="102.092529" electricity_abs="0"/>
    </tripinfo>
    <tripinfo id="carIn48184:1" depart="57613.00" departLane="-306240162#1_0" departPos="5.10" departSpeed="0.00" departDelay="0.70" arrival="57834.00" arrivalLane="386687235_2" arrivalPos="80.84" arrivalSpeed="12.56" duration="221.00" routeLength="2257.41" waitingTime="28.00" waitingCount="3" stopTime="0.00" timeLoss="61.20" rerouteNo="1" devices="tripinfo_carIn48184:1 routing_carIn48184:1 emissions_carIn48184:1" vType="default_016" speedFactor="0.93" vaporized="">
        <emissions CO_abs="8968.086738" CO2_abs="532046.245658" HC_abs="53.345794" PMx_abs="9.314052" NOx_abs="214.433906" fuel_abs="228.704991" electricity_abs="0"/>
    </tripinfo>
    <tripinfo id="carIn107842:1" depart="57623.00" departLane="124812856#0_1" departPos="5.10" departSpeed="0.00" departDelay="1.90" arrival="57834.00" arrivalLane="-128361102#1_1" arrivalPos="274.68" arrivalSpeed="11.37" duration="211.00" routeLength="2250.49" waitingTime="3.00" waitingCount="1" stopTime="0.00" timeLoss="25.18" rerouteNo="1" devices="tripinfo_carIn107842:1 routing_carIn107842:1 emissions_carIn107842:1" vType="default_016" speedFactor="0.88" vaporized="">
        <emissions CO_abs="5770.210242" CO2_abs="437786.240599" HC_abs="36.401755" PMx_abs="6.660326" NOx_abs="171.404459" fuel_abs="188.186464" electricity_abs="0"/>
    </tripinfo>
    <tripinfo id="h16072c2:3" depart="57663.00" departLane="315358254#0_1" departPos="5.10" departSpeed="0.00" departDelay="2.50" arrival="57834.00" arrivalLane="386687235_1" arrivalPos="80.84" arrivalSpeed="11.78" duration="171.00" routeLength="1611.92" waitingTime="17.00" waitingCount="2" stopTime="0.00" timeLoss="38.45" rerouteNo="1" devices="tripinfo_h16072c2:3 routing_h16072c2:3 emissions_h16072c2:3" vType="default_016" speedFactor="0.89" vaporized="">
        <emissions CO_abs="6106.228513" CO2_abs="354146.044607" HC_abs="36.024858" PMx_abs="5.779180" NOx_abs="141.426739" fuel_abs="152.233560" electricity_abs="0"/>
    </tripinfo>
    <tripinfo id="carIn8642:1" depart="57774.00" departLane="-447569998#1_1" departPos="5.10" departSpeed="0.00" departDelay="0.90" arrival="57835.00" arrivalLane="-315358244_1" arrivalPos="33.95" arrivalSpeed="15.49" duration="61.00" routeLength="706.49" waitingTime="0.00" waitingCount="0" stopTime="0.00" timeLoss="6.74" rerouteNo="1" devices="tripinfo_carIn8642:1 routing_carIn8642:1 emissions_carIn8642:1" vType="default_016" speedFactor="1.12" vaporized="">
        <emissions CO_abs="2022.610465" CO2_abs="147772.487958" HC_abs="12.623329" PMx_abs="2.422848" NOx_abs="58.562153" fuel_abs="63.521204" electricity_abs="0"/>
    </tripinfo>