<?xml version="1.0" encoding="UTF-8"?>

<!-- generated on 2021-10-26 19:57:44 by Eclipse SUMO sumo Version 1.10.0
<configuration xmlns:xsi="http://www.w3.org/2001/XMLSchema-instance" xsi:noNamespaceSchemaLocation="http://sumo.dlr.de/xsd/sumoConfiguration.xsd">

    <input>
        <net-file value="/Users/behradkoohy/sumo-scratchpad/RESCO/environments/ingolstadt21/ingolstadt21.net.xml"/>
        <route-files value="/Users/behradkoohy/sumo-scratchpad/RESCO/environments/ingolstadt21/ingolstadt21.rou.xml"/>
    </input>

    <output>
        <tripinfo-output value="/Users/behradkoohy/sumo-scratchpad/RESCO/logs/MPLight-tr0-ingolstadt21-21-mplight-pressure/tripinfo_56.xml"/>
        <tripinfo-output.write-unfinished value="true"/>
    </output>

    <time>
        <begin value="57600"/>
        <end value="61200"/>
    </time>

    <processing>
        <time-to-teleport value="-1"/>
    </processing>

    <report>
        <no-warnings value="true"/>
        <no-step-log value="true"/>
    </report>

    <emissions>
        <device.emissions.probability value="1"/>
    </emissions>

    <traci_server>
        <remote-port value="63991"/>
    </traci_server>

    <random_number>
        <random value="true"/>
    </random_number>

</configuration>
-->

<tripinfos xmlns:xsi="http://www.w3.org/2001/XMLSchema-instance" xsi:noNamespaceSchemaLocation="http://sumo.dlr.de/xsd/tripinfo_file.xsd">
    <tripinfo id="h15454c2:3" depart="57612.00" departLane="24608844_1" departPos="5.10" departSpeed="0.00" departDelay="0.50" arrival="57649.00" arrivalLane="32978638#0_1" arrivalPos="49.29" arrivalSpeed="15.21" duration="37.00" routeLength="354.79" waitingTime="0.00" waitingCount="0" stopTime="0.00" timeLoss="6.27" rerouteNo="1" devices="tripinfo_h15454c2:3 routing_h15454c2:3 emissions_h15454c2:3" vType="default_016" speedFactor="1.11" vaporized="">
        <emissions CO_abs="2268.292185" CO2_abs="126039.368084" HC_abs="13.313760" PMx_abs="2.418498" NOx_abs="53.154162" fuel_abs="54.178882" electricity_abs="0"/>
    </tripinfo>
    <tripinfo id="carIn60260:1" depart="57606.00" departLane="315358254#0_1" departPos="5.10" departSpeed="0.00" departDelay="0.90" arrival="57677.00" arrivalLane="399835085#1_1" arrivalPos="212.23" arrivalSpeed="6.49" duration="71.00" routeLength="430.98" waitingTime="10.00" waitingCount="1" stopTime="0.00" timeLoss="20.22" rerouteNo="1" devices="tripinfo_carIn60260:1 routing_carIn60260:1 emissions_carIn60260:1" vType="default_016" speedFactor="0.90" vaporized="">
        <emissions CO_abs="4010.316055" CO2_abs="144357.477198" HC_abs="21.593152" PMx_abs="2.568569" NOx_abs="59.887910" fuel_abs="62.054531" electricity_abs="0"/>
    </tripinfo>
    <tripinfo id="carIn53971:1" depart="57640.00" departLane="272042143_1" departPos="5.10" departSpeed="0.00" departDelay="0.80" arrival="57697.00" arrivalLane="24634414#1_1" arrivalPos="162.19" arrivalSpeed="7.43" duration="57.00" routeLength="493.04" waitingTime="0.00" waitingCount="0" stopTime="0.00" timeLoss="7.06" rerouteNo="1" devices="tripinfo_carIn53971:1 routing_carIn53971:1 emissions_carIn53971:1" vType="default_016" speedFactor="0.93" vaporized="">
        <emissions CO_abs="2518.991276" CO2_abs="139307.540082" HC_abs="14.703290" PMx_abs="2.326407" NOx_abs="56.444447" fuel_abs="59.882843" electricity_abs="0"/>
    </tripinfo>
    <tripinfo id="h7800c1:5" depart="57696.00" departLane="-447569998#1_1" departPos="5.10" departSpeed="0.00" departDelay="0.00" arrival="57726.00" arrivalLane="-447569998#1_2" arrivalPos="180.76" arrivalSpeed="6.00" duration="30.00" routeLength="175.66" waitingTime="0.00" waitingCount="0" stopTime="0.00" timeLoss="3.55" rerouteNo="1" devices="tripinfo_h7800c1:5 routing_h7800c1:5 emissions_h7800c1:5" vType="default_016" speedFactor="0.82" vaporized="">
        <emissions CO_abs="1343.994958" CO2_abs="51350.189418" HC_abs="7.299020" PMx_abs="0.880638" NOx_abs="21.243046" fuel_abs="22.073721" electricity_abs="0"/>
    </tripinfo>
    <tripinfo id="S5R_frequency1.2" depart="57615.00" departLane="315358250#0_1" departPos="12.10" departSpeed="0.00" departDelay="3.40" arrival="57730.00" arrivalLane="386687235_1" arrivalPos="80.84" arrivalSpeed="13.49" duration="115.00" routeLength="1115.62" waitingTime="14.00" waitingCount="1" stopTime="0.00" timeLoss="33.31" rerouteNo="1" devices="tripinfo_S5R_frequency1.2 routing_S5R_frequency1.2 emissions_S5R_frequency1.2" vType="bus" speedFactor="1.00" vaporized="">
        <emissions CO_abs="2118.188703" CO2_abs="1247912.853347" HC_abs="451.355999" PMx_abs="225.280468" NOx_abs="9897.777217" fuel_abs="532.194423" electricity_abs="0"/>
    </tripinfo>
    <tripinfo id="carIn80064:1" depart="57603.00" departLane="128361109#1_1" departPos="5.10" departSpeed="0.00" departDelay="0.40" arrival="57732.00" arrivalLane="-315358254#1_1" arrivalPos="137.16" arrivalSpeed="13.66" duration="129.00" routeLength="1587.97" waitingTime="9.00" waitingCount="2" stopTime="0.00" timeLoss="43.33" rerouteNo="1" devices="tripinfo_carIn80064:1 routing_carIn80064:1 emissions_carIn80064:1" vType="default_016" speedFactor="1.04" vaporized="">
        <emissions CO_abs="7141.216289" CO2_abs="445554.434537" HC_abs="43.219755" PMx_abs="8.942015" NOx_abs="186.571663" fuel_abs="191.523665" electricity_abs="0"/>
    </tripinfo>
    <tripinfo id="h12244c1:3" depart="57612.00" departLane="315358244_1" departPos="5.10" departSpeed="0.00" departDelay="0.40" arrival="57736.00" arrivalLane="386687235_1" arrivalPos="80.84" arrivalSpeed="12.17" duration="124.00" routeLength="1186.14" waitingTime="9.00" waitingCount="1" stopTime="0.00" timeLoss="30.38" rerouteNo="1" devices="tripinfo_h12244c1:3 routing_h12244c1:3 emissions_h12244c1:3" vType="default_016" speedFactor="0.92" vaporized="">
        <emissions CO_abs="4957.744986" CO2_abs="281792.361891" HC_abs="29.116159" PMx_abs="4.596247" NOx_abs="112.236622" fuel_abs="121.131653" electricity_abs="0"/>
    </tripinfo>
    <tripinfo id="carIn22761:1" depart="57616.00" departLane="-306240162#1_0" departPos="5.10" departSpeed="0.00" departDelay="2.10" arrival="57736.00" arrivalLane="399835085#1_1" arrivalPos="212.23" arrivalSpeed="5.05" duration="120.00" routeLength="1093.26" waitingTime="3.00" waitingCount="1" stopTime="0.00" timeLoss="17.92" rerouteNo="1" devices="tripinfo_carIn22761:1 routing_carIn22761:1 emissions_carIn22761:1" vType="default_016" speedFactor="0.76" vaporized="">
        <emissions CO_abs="4560.436930" CO2_abs="260430.222469" HC_abs="26.789972" PMx_abs="4.401243" NOx_abs="104.776606" fuel_abs="111.948626" electricity_abs="0"/>
    </tripinfo>
    <tripinfo id="h9563c2:5" depart="57631.00" departLane="315358244_1" departPos="5.10" departSpeed="0.00" departDelay="0.70" arrival="57738.00" arrivalLane="386687235_1" arrivalPos="80.84" arrivalSpeed="15.55" duration="107.00" routeLength="1186.14" waitingTime="8.00" waitingCount="1" stopTime="0.00" timeLoss="31.20" rerouteNo="1" devices="tripinfo_h9563c2:5 routing_h9563c2:5 emissions_h9563c2:5" vType="default_016" speedFactor="1.14" vaporized="">
        <emissions CO_abs="4996.937167" CO2_abs="301223.282811" HC_abs="29.690554" PMx_abs="5.202441" NOx_abs="120.270779" fuel_abs="129.483692" electricity_abs="0"/>
    </tripinfo>
    <tripinfo id="h4538c1:1" depart="57701.00" departLane="-10427692#1_1" departPos="5.10" departSpeed="0.00" departDelay="0.00" arrival="57738.00" arrivalLane="-128361102#1_1" arrivalPos="274.68" arrivalSpeed="13.56" duration="37.00" routeLength="440.74" waitingTime="0.00" waitingCount="0" stopTime="0.00" timeLoss="6.73" rerouteNo="1" devices="tripinfo_h4538c1:1 routing_h4538c1:1 emissions_h4538c1:1" vType="default_016" speedFactor="1.06" vaporized="">
        <emissions CO_abs="1563.792063" CO2_abs="113525.331196" HC_abs="9.785584" PMx_abs="1.914937" NOx_abs="45.356831" fuel_abs="48.799716" electricity_abs="0"/>
    </tripinfo>
    <tripinfo id="carIn121703:1" depart="57647.00" departLane="386687232#0_1" departPos="5.10" departSpeed="0.00" departDelay="0.30" arrival="57740.00" arrivalLane="-315358244_1" arrivalPos="33.95" arrivalSpeed="13.18" duration="93.00" routeLength="1157.39" waitingTime="0.00" waitingCount="0" stopTime="0.00" timeLoss="8.65" rerouteNo="1" devices="tripinfo_carIn121703:1 routing_carIn121703:1 emissions_carIn121703:1" vType="default_016" speedFactor="1.00" vaporized="">
        <emissions CO_abs="2299.715240" CO2_abs="215904.080161" HC_abs="15.486764" PMx_abs="3.262468" NOx_abs="83.349754" fuel_abs="92.808039" electricity_abs="0"/>
    </tripinfo>
    <tripinfo id="h7181c1:1" depart="57660.00" departLane="315358254#0_1" departPos="5.10" departSpeed="0.00" departDelay="0.10" arrival="57742.00" arrivalLane="306240162#0_0" arrivalPos="220.43" arrivalSpeed="16.00" duration="82.00" routeLength="932.35" waitingTime="9.00" waitingCount="1" stopTime="0.00" timeLoss="28.52" rerouteNo="1" devices="tripinfo_h7181c1:1 routing_h7181c1:1 emissions_h7181c1:1" vType="default_016" speedFactor="0.97" vaporized="">
        <emissions CO_abs="5720.203489" CO2_abs="321697.397578" HC_abs="33.757095" PMx_abs="6.415096" NOx_abs="134.435159" fuel_abs="138.283684" electricity_abs="0"/>
    </tripinfo>
    <tripinfo id="h3688c1:1" depart="57625.00" departLane="201201950#1_1" departPos="5.10" departSpeed="0.00" departDelay="0.00" arrival="57744.00" arrivalLane="32978638#0_1" arrivalPos="49.29" arrivalSpeed="14.23" duration="119.00" routeLength="1089.75" waitingTime="24.00" waitingCount="2" stopTime="0.00" timeLoss="42.02" rerouteNo="1" devices="tripinfo_h3688c1:1 routing_h3688c1:1 emissions_h3688c1:1" vType="default_016" speedFactor="1.03" vaporized="">
        <emissions CO_abs="6557.331427" CO2_abs="316610.933184" HC_abs="37.272881" PMx_abs="5.993556" NOx_abs="131.587498" fuel_abs="136.098365" electricity_abs="0"/>
    </tripinfo>
    <tripinfo id="carIn107084:1" depart="57601.00" departLane="124812856#0_1" departPos="5.10" departSpeed="0.00" departDelay="0.70" arrival="57756.00" arrivalLane="-128361102#1_1" arrivalPos="274.68" arrivalSpeed="15.73" duration="155.00" routeLength="2232.46" waitingTime="0.00" waitingCount="0" stopTime="0.00" timeLoss="14.51" rerouteNo="1" devices="tripinfo_carIn107084:1 routing_carIn107084:1 emissions_carIn107084:1" vType="default_016" speedFactor="1.17" vaporized="">
        <emissions CO_abs="5155.786569" CO2_abs="469015.349069" HC_abs="34.457814" PMx_abs="8.120069" NOx_abs="186.390545" fuel_abs="201.608550" electricity_abs="0"/>
    </tripinfo>
    <tripinfo id="h5979c1:5" depart="57669.00" departLane="399835085#1_1" departPos="5.10" departSpeed="0.00" departDelay="0.00" arrival="57756.00" arrivalLane="-315358254#1_1" arrivalPos="137.16" arrivalSpeed="14.47" duration="87.00" routeLength="659.33" waitingTime="10.00" waitingCount="1" stopTime="0.00" timeLoss="21.98" rerouteNo="1" devices="tripinfo_h5979c1:5 routing_h5979c1:5 emissions_h5979c1:5" vType="default_016" speedFactor="1.13" vaporized="">
        <emissions CO_abs="3987.132503" CO2_abs="189443.836046" HC_abs="22.564398" PMx_abs="3.341980" NOx_abs="77.865760" fuel_abs="81.434681" electricity_abs="0"/>
    </tripinfo>
    <tripinfo id="h3568c1:3" depart="57656.00" departLane="266565295#5_1" departPos="5.10" departSpeed="0.00" departDelay="0.80" arrival="57758.00" arrivalLane="-24634415_1" arrivalPos="62.03" arrivalSpeed="12.28" duration="102.00" routeLength="807.40" waitingTime="9.00" waitingCount="1" stopTime="0.00" timeLoss="31.14" rerouteNo="1" devices="tripinfo_h3568c1:3 routing_h3568c1:3 emissions_h3568c1:3" vType="default_016" speedFactor="0.91" vaporized="">
        <emissions CO_abs="5222.159240" CO2_abs="258278.242260" HC_abs="29.828848" PMx_abs="4.695262" NOx_abs="107.199049" fuel_abs="111.023559" electricity_abs="0"/>
    </tripinfo>
    <tripinfo id="h317c2:1" depart="57707.00" departLane="-32978638#0_1" departPos="5.10" departSpeed="0.00" departDelay="0.10" arrival="57758.00" arrivalLane="-266565295#5_1" arrivalPos="172.76" arrivalSpeed="10.52" duration="51.00" routeLength="370.53" waitingTime="12.00" waitingCount="1" stopTime="0.00" timeLoss="18.72" rerouteNo="1" devices="tripinfo_h317c2:1 routing_h317c2:1 emissions_h317c2:1" vType="default_016" speedFactor="0.84" vaporized="">
        <emissions CO_abs="2926.253814" CO2_abs="121460.236255" HC_abs="16.167818" PMx_abs="2.270318" NOx_abs="50.782442" fuel_abs="52.211242" electricity_abs="0"/>
    </tripinfo>
    <tripinfo id="h3154c1:1" depart="57658.00" departLane="24634507_1" departPos="5.10" departSpeed="0.00" departDelay="0.00" arrival="57778.00" arrivalLane="-266565295#5_1" arrivalPos="172.76" arrivalSpeed="12.85" duration="120.00" routeLength="1206.22" waitingTime="7.00" waitingCount="1" stopTime="0.00" timeLoss="24.56" rerouteNo="1" devices="tripinfo_h3154c1:1 routing_h3154c1:1 emissions_h3154c1:1" vType="default_016" speedFactor="0.93" vaporized="">
        <emissions CO_abs="4191.083304" CO2_abs="284080.609216" HC_abs="25.704108" PMx_abs="4.657679" NOx_abs="113.566987" fuel_abs="122.114528" electricity_abs="0"/>
    </tripinfo>
    <tripinfo id="h3326c1:2" depart="57656.00" departLane="22716069#0_1" departPos="5.10" departSpeed="0.00" departDelay="0.00" arrival="57783.00" arrivalLane="24634517#13_1" arrivalPos="111.62" arrivalSpeed="11.88" duration="127.00" routeLength="1312.81" waitingTime="0.00" waitingCount="0" stopTime="0.00" timeLoss="15.51" rerouteNo="1" devices="tripinfo_h3326c1:2 routing_h3326c1:2 emissions_h3326c1:2" vType="default_016" speedFactor="0.88" vaporized="">
        <emissions CO_abs="4209.382784" CO2_abs="304865.849786" HC_abs="26.232654" PMx_abs="4.754866" NOx_abs="120.366362" fuel_abs="131.049364" electricity_abs="0"/>
    </tripinfo>
    <tripinfo id="h330c1:1" depart="57736.00" departLane="-32978638#0_1" departPos="5.10" departSpeed="0.00" departDelay="0.20" arrival="57789.00" arrivalLane="-266565295#5_1" arrivalPos="172.76" arrivalSpeed="10.74" duration="53.00" routeLength="370.53" waitingTime="10.00" waitingCount="1" stopTime="0.00" timeLoss="19.11" rerouteNo="1" devices="tripinfo_h330c1:1 routing_h330c1:1 emissions_h330c1:1" vType="default_016" speedFactor="0.80" vaporized="">
        <emissions CO_abs="2899.128894" CO2_abs="122228.620577" HC_abs="16.041670" PMx_abs="2.169118" NOx_abs="50.338515" fuel_abs="52.541682" electricity_abs="0"/>
    </tripinfo>
    <tripinfo id="carIn30817:1" depart="57681.00" departLane="315358244_1" departPos="5.10" departSpeed="0.00" departDelay="0.20" arrival="57790.00" arrivalLane="447569997#1_1" arrivalPos="180.93" arrivalSpeed="5.92" duration="109.00" routeLength="718.04" waitingTime="10.00" waitingCount="1" stopTime="0.00" timeLoss="22.96" rerouteNo="1" devices="tripinfo_carIn30817:1 routing_carIn30817:1 emissions_carIn30817:1" vType="default_016" speedFactor="0.71" vaporized="">
        <emissions CO_abs="5007.858023" CO2_abs="199061.254096" HC_abs="27.355163" PMx_abs="3.236491" NOx_abs="80.612682" fuel_abs="85.569904" electricity_abs="0"/>
    </tripinfo>
    <tripinfo id="carIn81046:1" depart="57612.00" departLane="124812856#0_1" departPos="5.10" departSpeed="0.00" departDelay="3.50" arrival="57792.00" arrivalLane="-128361102#1_1" arrivalPos="274.68" arrivalSpeed="16.04" duration="180.00" routeLength="2232.46" waitingTime="5.00" waitingCount="2" stopTime="0.00" timeLoss="40.81" rerouteNo="1" devices="tripinfo_carIn81046:1 routing_carIn81046:1 emissions_carIn81046:1" vType="default_016" speedFactor="1.17" vaporized="">
        <emissions CO_abs="7284.426755" CO2_abs="546338.229388" HC_abs="45.863488" PMx_abs="9.832299" NOx_abs="221.442124" fuel_abs="234.846475" electricity_abs="0"/>
    </tripinfo>
    <tripinfo id="carIn50326:1" depart="57651.00" departLane="128361102#0_1" departPos="5.10" departSpeed="0.00" departDelay="0.30" arrival="57795.00" arrivalLane="18809673#0_1" arrivalPos="473.56" arrivalSpeed="17.09" duration="144.00" routeLength="1591.07" waitingTime="16.00" waitingCount="2" stopTime="0.00" timeLoss="43.00" rerouteNo="1" devices="tripinfo_carIn50326:1 routing_carIn50326:1 emissions_carIn50326:1" vType="default_016" speedFactor="1.29" vaporized="">
        <emissions CO_abs="7198.164028" CO2_abs="409998.805059" HC_abs="42.342163" PMx_abs="7.727381" NOx_abs="168.908886" fuel_abs="176.241134" electricity_abs="0"/>
    </tripinfo>
    <tripinfo id="carIn27009:1" depart="57673.00" departLane="-447569998#1_1" departPos="5.10" departSpeed="0.00" departDelay="0.50" arrival="57804.00" arrivalLane="-26677539_1" arrivalPos="152.75" arrivalSpeed="7.05" duration="131.00" routeLength="699.63" waitingTime="20.00" waitingCount="1" stopTime="0.00" timeLoss="35.28" rerouteNo="1" devices="tripinfo_carIn27009:1 routing_carIn27009:1 emissions_carIn27009:1" vType="default_015" speedFactor="0.88" vaporized="">
        <emissions CO_abs="6987.573790" CO2_abs="230607.060565" HC_abs="37.142568" PMx_abs="4.230593" NOx_abs="96.836837" fuel_abs="99.130656" electricity_abs="0"/>
    </tripinfo>
    <tripinfo id="carIn118591:1" depart="57689.00" departLane="315358244_1" departPos="5.10" departSpeed="0.00" departDelay="0.20" arrival="57807.00" arrivalLane="386687235_1" arrivalPos="80.84" arrivalSpeed="13.95" duration="118.00" routeLength="1186.14" waitingTime="12.00" waitingCount="3" stopTime="0.00" timeLoss="38.27" rerouteNo="1" devices="tripinfo_carIn118591:1 routing_carIn118591:1 emissions_carIn118591:1" vType="default_016" speedFactor="1.09" vaporized="">
        <emissions CO_abs="5218.213117" CO2_abs="325242.101371" HC_abs="31.263720" PMx_abs="5.747621" NOx_abs="131.971647" fuel_abs="139.807927" electricity_abs="0"/>
    </tripinfo>
    <tripinfo id="carIn86816:1" depart="57617.00" departLane="128361102#0_1" departPos="5.10" departSpeed="0.00" departDelay="0.80" arrival="57814.00" arrivalLane="201956811#0_1" arrivalPos="40.40" arrivalSpeed="13.58" duration="197.00" routeLength="2067.33" waitingTime="18.00" waitingCount="2" stopTime="0.00" timeLoss="44.81" rerouteNo="1" devices="tripinfo_carIn86816:1 routing_carIn86816:1 emissions_carIn86816:1" vType="default_016" speedFactor="0.99" vaporized="">
        <emissions CO_abs="7942.750853" CO2_abs="483088.495385" HC_abs="47.483325" PMx_abs="8.466414" NOx_abs="195.922187" fuel_abs="207.659738" electricity_abs="0"/>
    </tripinfo>
    <tripinfo id="carIn102915:1" depart="57643.00" departLane="128361102#0_1" departPos="5.10" departSpeed="0.00" departDelay="0.40" arrival="57817.00" arrivalLane="201956811#0_1" arrivalPos="40.40" arrivalSpeed="10.75" duration="174.00" routeLength="2067.33" waitingTime="6.00" waitingCount="1" stopTime="0.00" timeLoss="33.20" rerouteNo="1" devices="tripinfo_carIn102915:1 routing_carIn102915:1 emissions_carIn102915:1" vType="default_016" speedFactor="1.08" vaporized="">
        <emissions CO_abs="6127.358877" CO2_abs="473680.076246" HC_abs="38.936573" PMx_abs="8.000029" NOx_abs="188.769417" fuel_abs="203.614618" electricity_abs="0"/>
    </tripinfo>
    <tripinfo id="h11737c1:1" depart="57665.00" departLane="272042143_1" departPos="5.10" departSpeed="0.00" departDelay="1.50" arrival="57818.00" arrivalLane="-315358254#1_1" arrivalPos="137.16" arrivalSpeed="11.78" duration="153.00" routeLength="1596.88" waitingTime="7.00" waitingCount="1" stopTime="0.00" timeLoss="24.20" rerouteNo="1" devices="tripinfo_h11737c1:1 routing_h11737c1:1 emissions_h11737c1:1" vType="default_016" speedFactor="0.91" vaporized="">
        <emissions CO_abs="4640.682445" CO2_abs="334884.721612" HC_abs="28.880662" PMx_abs="5.117377" NOx_abs="130.919507" fuel_abs="143.953489" electricity_abs="0"/>
    </tripinfo>
    <tripinfo id="h17600c1:1" depart="57662.00" departLane="272042143_1" departPos="5.10" departSpeed="0.00" departDelay="0.30" arrival="57819.00" arrivalLane="201238729#3_1" arrivalPos="431.02" arrivalSpeed="14.38" duration="157.00" routeLength="2100.26" waitingTime="1.00" waitingCount="1" stopTime="0.00" timeLoss="17.77" rerouteNo="1" devices="tripinfo_h17600c1:1 routing_h17600c1:1 emissions_h17600c1:1" vType="default_016" speedFactor="1.09" vaporized="">
        <emissions CO_abs="4504.607947" CO2_abs="406813.673696" HC_abs="29.873424" PMx_abs="6.619179" NOx_abs="159.386273" fuel_abs="174.871469" electricity_abs="0"/>
    </tripinfo>
    <tripinfo id="carIn126288:1" depart="57674.00" departLane="272042143_1" departPos="5.10" departSpeed="0.00" departDelay="0.00" arrival="57820.00" arrivalLane="-315358254#1_1" arrivalPos="137.16" arrivalSpeed="15.92" duration="146.00" routeLength="1596.88" waitingTime="7.00" waitingCount="1" stopTime="0.00" timeLoss="43.68" rerouteNo="1" devices="tripinfo_carIn126288:1 routing_carIn126288:1 emissions_carIn126288:1" vType="default_016" speedFactor="1.15" vaporized="">
        <emissions CO_abs="5730.890301" CO2_abs="408993.321164" HC_abs="35.675252" PMx_abs="7.202732" NOx_abs="166.102227" fuel_abs="175.808380" electricity_abs="0"/>
    </tripinfo>
    <tripinfo id="randUni33724:1" depart="57646.00" departLane="128361102#0_1" departPos="5.10" departSpeed="0.00" departDelay="1.20" arrival="57821.00" arrivalLane="201956811#0_1" arrivalPos="40.40" arrivalSpeed="13.66" duration="175.00" routeLength="2067.33" waitingTime="4.00" waitingCount="1" stopTime="0.00" timeLoss="29.14" rerouteNo="1" devices="tripinfo_randUni33724:1 routing_randUni33724:1 emissions_randUni33724:1" vType="random_016" speedFactor="1.03" vaporized="">
        <emissions CO_abs="5844.616542" CO2_abs="469714.139029" HC_abs="37.542835" PMx_abs="7.750722" NOx_abs="186.305173" fuel_abs="201.909886" electricity_abs="0"/>
    </tripinfo>
    <tripinfo id="carIn12152:1" depart="57647.00" departLane="24599188#0.94_1" departPos="5.10" departSpeed="0.00" departDelay="0.50" arrival="57821.00" arrivalLane="-315358254#1_1" arrivalPos="137.16" arrivalSpeed="15.72" duration="174.00" routeLength="2034.31" waitingTime="9.00" waitingCount="2" stopTime="0.00" timeLoss="36.90" rerouteNo="1" devices="tripinfo_carIn12152:1 routing_carIn12152:1 emissions_carIn12152:1" vType="default_016" speedFactor="1.16" vaporized="">
        <emissions CO_abs="6448.922306" CO2_abs="479583.972365" HC_abs="40.533655" PMx_abs="8.399179" NOx_abs="192.970256" fuel_abs="206.152199" electricity_abs="0"/>
    </tripinfo>
    <tripinfo id="carIn12365:1" depart="57713.00" departLane="315358244_1" departPos="5.10" departSpeed="0.00" departDelay="0.50" arrival="57821.00" arrivalLane="447569997#1_1" arrivalPos="180.93" arrivalSpeed="7.53" duration="108.00" routeLength="718.04" waitingTime="27.00" waitingCount="1" stopTime="0.00" timeLoss="41.17" rerouteNo="1" devices="tripinfo_carIn12365:1 routing_carIn12365:1 emissions_carIn12365:1" vType="default_016" speedFactor="0.93" vaporized="">
        <emissions CO_abs="6749.789719" CO2_abs="243756.024988" HC_abs="36.400686" PMx_abs="4.470278" NOx_abs="101.150696" fuel_abs="104.782561" electricity_abs="0"/>
    </tripinfo>
    <tripinfo id="h645c1:1" depart="57622.00" departLane="266565295#5_1" departPos="5.10" departSpeed="0.00" departDelay="0.40" arrival="57824.00" arrivalLane="-315358244_2" arrivalPos="33.95" arrivalSpeed="11.11" duration="202.00" routeLength="1910.83" waitingTime="12.00" waitingCount="3" stopTime="0.00" timeLoss="39.60" rerouteNo="1" devices="tripinfo_h645c1:1 routing_h645c1:1 emissions_h645c1:1" vType="default_016" speedFactor="0.85" vaporized="">
        <emissions CO_abs="6243.167857" CO2_abs="397859.211828" HC_abs="37.688249" PMx_abs="6.573922" NOx_abs="160.029696" fuel_abs="171.023427" electricity_abs="0"/>
    </tripinfo>
    <tripinfo id="carIn129809:1" depart="57729.00" departLane="-447569998#1_1" departPos="5.10" departSpeed="0.00" departDelay="1.00" arrival="57824.00" arrivalLane="-315358244_1" arrivalPos="33.95" arrivalSpeed="11.42" duration="95.00" routeLength="706.49" waitingTime="14.00" waitingCount="2" stopTime="0.00" timeLoss="28.10" rerouteNo="1" devices="tripinfo_carIn129809:1 routing_carIn129809:1 emissions_carIn129809:1" vType="default_015" speedFactor="0.91" vaporized="">
        <emissions CO_abs="3928.539772" CO2_abs="189819.266160" HC_abs="22.290496" PMx_abs="3.224453" NOx_abs="77.182931" fuel_abs="81.596201" electricity_abs="0"/>
    </tripinfo>
    <tripinfo id="h3864c1:3" depart="57678.00" departLane="24693977#1_1" departPos="5.10" departSpeed="0.00" departDelay="0.00" arrival="57830.00" arrivalLane="201956820_1" arrivalPos="48.33" arrivalSpeed="13.89" duration="152.00" routeLength="1574.85" waitingTime="4.00" waitingCount="1" stopTime="0.00" timeLoss="28.26" rerouteNo="1" devices="tripinfo_h3864c1:3 routing_h3864c1:3 emissions_h3864c1:3" vType="default_016" speedFactor="1.05" vaporized="">
        <emissions CO_abs="6085.120150" CO2_abs="397722.856569" HC_abs="37.014272" PMx_abs="7.014352" NOx_abs="162.331507" fuel_abs="170.964047" electricity_abs="0"/>
    </tripinfo>
    <tripinfo id="carIn107282:1" depart="57749.00" departLane="-447569998#1_1" departPos="5.10" departSpeed="0.00" departDelay="0.00" arrival="57836.00" arrivalLane="315358242#0_1" arrivalPos="165.37" arrivalSpeed="13.67" duration="87.00" routeLength="448.50" waitingTime="36.00" waitingCount="1" stopTime="0.00" timeLoss="45.71" rerouteNo="1" devices="tripinfo_carIn107282:1 routing_carIn107282:1 emissions_carIn107282:1" vType="default_016" speedFactor="1.01" vaporized="">
        <emissions CO_abs="7309.871490" CO2_abs="197768.727853" HC_abs="37.918944" PMx_abs="4.109199" NOx_abs="85.194898" fuel_abs="85.014991" electricity_abs="0"/>
    </tripinfo>
    <tripinfo id="carIn82278:1" depart="57702.00" departLane="-306240162#1_0" departPos="5.10" departSpeed="0.00" departDelay="0.70" arrival="57837.00" arrivalLane="399835085#1_1" arrivalPos="212.23" arrivalSpeed="6.89" duration="135.00" routeLength="1093.26" waitingTime="36.00" waitingCount="1" stopTime="0.00" timeLoss="51.51" rerouteNo="1" devices="tripinfo_carIn82278:1 routing_carIn82278:1 emissions_carIn82278:1" vType="default_016" speedFactor="0.93" vaporized="">
        <emissions CO_abs="9649.495759" CO2_abs="357546.557343" HC_abs="52.309727" PMx_abs="6.948827" NOx_abs="148.921459" fuel_abs="153.696688" electricity_abs="0"/>
    </tripinfo>
    <tripinfo id="randUni15030:1" depart="57735.00" departLane="386687232#0_1" departPos="5.10" departSpeed="0.00" departDelay="0.10" arrival="57837.00" arrivalLane="26677539_1" arrivalPos="151.98" arrivalSpeed="8.31" duration="102.00" routeLength="919.89" waitingTime="5.00" waitingCount="1" stopTime="0.00" timeLoss="19.90" rerouteNo="1" devices="tripinfo_randUni15030:1 routing_randUni15030:1 emissions_randUni15030:1" vType="random_016" speedFactor="1.01" vaporized="">
        <emissions CO_abs="3836.950806" CO2_abs="229591.512851" HC_abs="22.810226" PMx_abs="3.797843" NOx_abs="92.283774" fuel_abs="98.692219" electricity_abs="0"/>
    </tripinfo>
    <tripinfo id="carIn48184:1" depart="57613.00" departLane="-306240162#1_0" departPos="5.10" departSpeed="0.00" departDelay="0.70" arrival="57843.00" arrivalLane="386687235_1" arrivalPos="80.84" arrivalSpeed="13.79" duration="230.00" routeLength="2257.41" waitingTime="58.00" waitingCount="3" stopTime="0.00" timeLoss="87.02" rerouteNo="1" devices="tripinfo_carIn48184:1 routing_carIn48184:1 emissions_carIn48184:1" vType="default_016" speedFactor="1.04" vaporized="">
        <emissions CO_abs="14574.342697" CO2_abs="668996.569353" HC_abs="82.116082" PMx_abs="12.821982" NOx_abs="275.487859" fuel_abs="287.575594" electricity_abs="0"/>
    </tripinfo>
    <tripinfo id="h8343c1:5" depart="57679.00" departLane="315358254#0_1" departPos="5.10" departSpeed="0.00" departDelay="0.60" arrival="57843.00" arrivalLane="-24634510#5_1" arrivalPos="236.88" arrivalSpeed="12.40" duration="164.00" routeLength="2056.84" waitingTime="10.00" waitingCount="1" stopTime="0.00" timeLoss="32.97" rerouteNo="1" devices="tripinfo_h8343c1:5 routing_h8343c1:5 emissions_h8343c1:5" vType="default_016" speedFactor="0.95" vaporized="">
        <emissions CO_abs="7421.902637" CO2_abs="521182.251199" HC_abs="46.158458" PMx_abs="9.460877" NOx_abs="210.506914" fuel_abs="224.033497" electricity_abs="0"/>
    </tripinfo>
    <tripinfo id="carIn126378:1" depart="57746.00" departLane="386687232#0_1" departPos="5.10" departSpeed="0.00" departDelay="1.80" arrival="57843.00" arrivalLane="-315358244_1" arrivalPos="33.95" arrivalSpeed="15.22" duration="97.00" routeLength="1157.39" waitingTime="4.00" waitingCount="1" stopTime="0.00" timeLoss="22.07" rerouteNo="1" devices="tripinfo_carIn126378:1 routing_carIn126378:1 emissions_carIn126378:1" vType="default_016" speedFactor="1.14" vaporized="">
        <emissions CO_abs="3739.019463" CO2_abs="270243.072270" HC_abs="23.235970" PMx_abs="4.651218" NOx_abs="108.051524" fuel_abs="116.165910" electricity_abs="0"/>
    </tripinfo>
    <tripinfo id="carIn82220:1" depart="57619.00" departLane="-306240162#1_0" departPos="5.10" departSpeed="0.00" departDelay="3.50" arrival="57844.00" arrivalLane="386687235_2" arrivalPos="80.84" arrivalSpeed="12.18" duration="225.00" routeLength="2257.41" waitingTime="27.00" waitingCount="2" stopTime="0.00" timeLoss="63.17" rerouteNo="1" devices="tripinfo_carIn82220:1 routing_carIn82220:1 emissions_carIn82220:1" vType="default_016" speedFactor="0.92" vaporized="">
        <emissions CO_abs="10449.405280" CO2_abs="568527.383237" HC_abs="60.921113" PMx_abs="10.050830" NOx_abs="231.098160" fuel_abs="244.387198" electricity_abs="0"/>
    </tripinfo>
    <tripinfo id="carIn12858:1" depart="57661.00" departLane="128361109#1_1" departPos="5.10" departSpeed="0.00" departDelay="0.90" arrival="57844.00" arrivalLane="399835085#1_1" arrivalPos="212.23" arrivalSpeed="6.89" duration="183.00" routeLength="1738.12" waitingTime="17.00" waitingCount="1" stopTime="0.00" timeLoss="48.49" rerouteNo="1" devices="tripinfo_carIn12858:1 routing_carIn12858:1 emissions_carIn12858:1" vType="default_016" speedFactor="0.86" vaporized="">
        <emissions CO_abs="9324.164432" CO2_abs="510220.792843" HC_abs="54.393458" PMx_abs="9.349843" NOx_abs="208.776687" fuel_abs="219.323033" electricity_abs="0"/>
    </tripinfo>