<?xml version="1.0" encoding="UTF-8"?>

<!-- generated on 2021-10-26 19:19:15 by Eclipse SUMO sumo Version 1.10.0
<configuration xmlns:xsi="http://www.w3.org/2001/XMLSchema-instance" xsi:noNamespaceSchemaLocation="http://sumo.dlr.de/xsd/sumoConfiguration.xsd">

    <input>
        <net-file value="/Users/behradkoohy/sumo-scratchpad/RESCO/environments/ingolstadt21/ingolstadt21.net.xml"/>
        <route-files value="/Users/behradkoohy/sumo-scratchpad/RESCO/environments/ingolstadt21/ingolstadt21.rou.xml"/>
    </input>

    <output>
        <tripinfo-output value="/Users/behradkoohy/sumo-scratchpad/RESCO/logs/MPLight-tr0-ingolstadt21-21-mplight-pressure/tripinfo_20.xml"/>
        <tripinfo-output.write-unfinished value="true"/>
    </output>

    <time>
        <begin value="57600"/>
        <end value="61200"/>
    </time>

    <processing>
        <time-to-teleport value="-1"/>
    </processing>

    <report>
        <no-warnings value="true"/>
        <no-step-log value="true"/>
    </report>

    <emissions>
        <device.emissions.probability value="1"/>
    </emissions>

    <traci_server>
        <remote-port value="63223"/>
    </traci_server>

    <random_number>
        <random value="true"/>
    </random_number>

</configuration>
-->

<tripinfos xmlns:xsi="http://www.w3.org/2001/XMLSchema-instance" xsi:noNamespaceSchemaLocation="http://sumo.dlr.de/xsd/tripinfo_file.xsd">
    <tripinfo id="h15454c2:3" depart="57612.00" departLane="24608844_1" departPos="5.10" departSpeed="0.00" departDelay="0.50" arrival="57648.00" arrivalLane="32978638#0_1" arrivalPos="49.29" arrivalSpeed="15.97" duration="36.00" routeLength="354.79" waitingTime="0.00" waitingCount="0" stopTime="0.00" timeLoss="6.53" rerouteNo="1" devices="tripinfo_h15454c2:3 routing_h15454c2:3 emissions_h15454c2:3" vType="default_016" speedFactor="1.19" vaporized="">
        <emissions CO_abs="1991.796569" CO2_abs="121754.329570" HC_abs="11.921663" PMx_abs="2.223012" NOx_abs="50.327010" fuel_abs="52.336958" electricity_abs="0"/>
    </tripinfo>
    <tripinfo id="carIn60260:1" depart="57606.00" departLane="315358254#0_1" departPos="5.10" departSpeed="0.00" departDelay="0.90" arrival="57668.00" arrivalLane="399835085#1_1" arrivalPos="212.23" arrivalSpeed="6.26" duration="62.00" routeLength="430.98" waitingTime="2.00" waitingCount="1" stopTime="0.00" timeLoss="10.82" rerouteNo="1" devices="tripinfo_carIn60260:1 routing_carIn60260:1 emissions_carIn60260:1" vType="default_016" speedFactor="0.90" vaporized="">
        <emissions CO_abs="2612.715790" CO2_abs="117490.228340" HC_abs="14.598587" PMx_abs="1.936726" NOx_abs="47.792585" fuel_abs="50.504857" electricity_abs="0"/>
    </tripinfo>
    <tripinfo id="carIn53971:1" depart="57640.00" departLane="272042143_1" departPos="5.10" departSpeed="0.00" departDelay="0.80" arrival="57693.00" arrivalLane="24634414#1_1" arrivalPos="162.19" arrivalSpeed="7.57" duration="53.00" routeLength="493.04" waitingTime="0.00" waitingCount="0" stopTime="0.00" timeLoss="7.78" rerouteNo="1" devices="tripinfo_carIn53971:1 routing_carIn53971:1 emissions_carIn53971:1" vType="default_016" speedFactor="1.01" vaporized="">
        <emissions CO_abs="2385.788889" CO2_abs="142967.823877" HC_abs="14.185821" PMx_abs="2.366058" NOx_abs="57.645552" fuel_abs="61.456133" electricity_abs="0"/>
    </tripinfo>
    <tripinfo id="h7800c1:5" depart="57696.00" departLane="-447569998#1_1" departPos="5.10" departSpeed="0.00" departDelay="0.00" arrival="57718.00" arrivalLane="-447569998#1_2" arrivalPos="180.76" arrivalSpeed="7.20" duration="22.00" routeLength="175.66" waitingTime="0.00" waitingCount="0" stopTime="0.00" timeLoss="3.57" rerouteNo="1" devices="tripinfo_h7800c1:5 routing_h7800c1:5 emissions_h7800c1:5" vType="default_016" speedFactor="1.15" vaporized="">
        <emissions CO_abs="1007.053618" CO2_abs="48229.717028" HC_abs="5.703775" PMx_abs="0.831875" NOx_abs="19.854054" fuel_abs="20.732123" electricity_abs="0"/>
    </tripinfo>
    <tripinfo id="h3688c1:1" depart="57625.00" departLane="201201950#1_1" departPos="5.10" departSpeed="0.00" departDelay="0.00" arrival="57724.00" arrivalLane="32978638#0_1" arrivalPos="49.29" arrivalSpeed="13.77" duration="99.00" routeLength="1089.75" waitingTime="5.00" waitingCount="1" stopTime="0.00" timeLoss="24.35" rerouteNo="1" devices="tripinfo_h3688c1:1 routing_h3688c1:1 emissions_h3688c1:1" vType="default_016" speedFactor="1.07" vaporized="">
        <emissions CO_abs="3832.396967" CO2_abs="264598.020928" HC_abs="23.609760" PMx_abs="4.611134" NOx_abs="106.937323" fuel_abs="113.739339" electricity_abs="0"/>
    </tripinfo>
    <tripinfo id="carIn22761:1" depart="57615.00" departLane="-306240162#1_0" departPos="5.10" departSpeed="0.00" departDelay="1.10" arrival="57741.00" arrivalLane="399835085#1_1" arrivalPos="212.23" arrivalSpeed="9.24" duration="126.00" routeLength="1093.26" waitingTime="24.00" waitingCount="2" stopTime="0.00" timeLoss="54.87" rerouteNo="1" devices="tripinfo_carIn22761:1 routing_carIn22761:1 emissions_carIn22761:1" vType="default_016" speedFactor="1.11" vaporized="">
        <emissions CO_abs="8822.028800" CO2_abs="413222.613104" HC_abs="50.023468" PMx_abs="8.323829" NOx_abs="174.705839" fuel_abs="177.627363" electricity_abs="0"/>
    </tripinfo>
    <tripinfo id="h4538c1:1" depart="57701.00" departLane="-10427692#1_1" departPos="5.10" departSpeed="0.00" departDelay="0.00" arrival="57743.00" arrivalLane="-128361102#1_1" arrivalPos="274.68" arrivalSpeed="11.72" duration="42.00" routeLength="440.74" waitingTime="0.00" waitingCount="0" stopTime="0.00" timeLoss="6.93" rerouteNo="1" devices="tripinfo_h4538c1:1 routing_h4538c1:1 emissions_h4538c1:1" vType="default_016" speedFactor="0.91" vaporized="">
        <emissions CO_abs="1624.689392" CO2_abs="110942.917659" HC_abs="9.985662" PMx_abs="1.829254" NOx_abs="44.421194" fuel_abs="47.689755" electricity_abs="0"/>
    </tripinfo>
    <tripinfo id="h12244c1:3" depart="57612.00" departLane="315358244_1" departPos="5.10" departSpeed="0.00" departDelay="0.40" arrival="57748.00" arrivalLane="386687235_1" arrivalPos="80.84" arrivalSpeed="12.52" duration="136.00" routeLength="1186.14" waitingTime="25.00" waitingCount="2" stopTime="0.00" timeLoss="43.34" rerouteNo="1" devices="tripinfo_h12244c1:3 routing_h12244c1:3 emissions_h12244c1:3" vType="default_016" speedFactor="0.94" vaporized="">
        <emissions CO_abs="6342.726606" CO2_abs="297739.243754" HC_abs="35.829604" PMx_abs="5.248246" NOx_abs="121.487301" fuel_abs="127.986910" electricity_abs="0"/>
    </tripinfo>
    <tripinfo id="h3326c1:2" depart="57656.00" departLane="22716069#0_1" departPos="5.10" departSpeed="0.00" departDelay="0.00" arrival="57754.00" arrivalLane="24634517#13_1" arrivalPos="111.62" arrivalSpeed="16.12" duration="98.00" routeLength="1312.81" waitingTime="0.00" waitingCount="0" stopTime="0.00" timeLoss="15.32" rerouteNo="1" devices="tripinfo_h3326c1:2 routing_h3326c1:2 emissions_h3326c1:2" vType="default_016" speedFactor="1.18" vaporized="">
        <emissions CO_abs="4117.410719" CO2_abs="326473.877041" HC_abs="26.315511" PMx_abs="5.845492" NOx_abs="131.958237" fuel_abs="140.336439" electricity_abs="0"/>
    </tripinfo>
    <tripinfo id="carIn30817:1" depart="57681.00" departLane="315358244_1" departPos="5.10" departSpeed="0.00" departDelay="0.20" arrival="57762.00" arrivalLane="447569997#1_1" arrivalPos="180.93" arrivalSpeed="7.81" duration="81.00" routeLength="718.04" waitingTime="0.00" waitingCount="0" stopTime="0.00" timeLoss="17.15" rerouteNo="1" devices="tripinfo_carIn30817:1 routing_carIn30817:1 emissions_carIn30817:1" vType="default_016" speedFactor="0.96" vaporized="">
        <emissions CO_abs="3448.959296" CO2_abs="188327.436904" HC_abs="20.074671" PMx_abs="3.129456" NOx_abs="75.977249" fuel_abs="80.954658" electricity_abs="0"/>
    </tripinfo>
    <tripinfo id="h9563c2:5" depart="57631.00" departLane="315358244_1" departPos="5.10" departSpeed="0.00" departDelay="0.70" arrival="57763.00" arrivalLane="386687235_1" arrivalPos="80.84" arrivalSpeed="12.84" duration="132.00" routeLength="1186.14" waitingTime="21.00" waitingCount="3" stopTime="0.00" timeLoss="45.65" rerouteNo="1" devices="tripinfo_h9563c2:5 routing_h9563c2:5 emissions_h9563c2:5" vType="default_016" speedFactor="1.00" vaporized="">
        <emissions CO_abs="5152.048301" CO2_abs="299640.146663" HC_abs="30.448589" PMx_abs="5.130081" NOx_abs="120.804424" fuel_abs="128.803261" electricity_abs="0"/>
    </tripinfo>
    <tripinfo id="h5979c1:5" depart="57669.00" departLane="399835085#1_1" departPos="5.10" departSpeed="0.00" departDelay="0.00" arrival="57763.00" arrivalLane="-315358254#1_1" arrivalPos="137.16" arrivalSpeed="13.02" duration="94.00" routeLength="659.33" waitingTime="5.00" waitingCount="1" stopTime="0.00" timeLoss="21.83" rerouteNo="1" devices="tripinfo_h5979c1:5 routing_h5979c1:5 emissions_h5979c1:5" vType="default_016" speedFactor="1.01" vaporized="">
        <emissions CO_abs="4217.017655" CO2_abs="196353.939091" HC_abs="23.725468" PMx_abs="3.241348" NOx_abs="79.715465" fuel_abs="84.405437" electricity_abs="0"/>
    </tripinfo>
    <tripinfo id="h317c2:1" depart="57707.00" departLane="-32978638#0_1" departPos="5.10" departSpeed="0.00" departDelay="0.10" arrival="57764.00" arrivalLane="-266565295#5_1" arrivalPos="172.76" arrivalSpeed="13.31" duration="57.00" routeLength="370.53" waitingTime="22.00" waitingCount="1" stopTime="0.00" timeLoss="30.88" rerouteNo="1" devices="tripinfo_h317c2:1 routing_h317c2:1 emissions_h317c2:1" vType="default_016" speedFactor="1.04" vaporized="">
        <emissions CO_abs="4702.688320" CO2_abs="169622.804839" HC_abs="25.406402" PMx_abs="3.459451" NOx_abs="72.421181" fuel_abs="72.914661" electricity_abs="0"/>
    </tripinfo>
    <tripinfo id="h3568c1:3" depart="57656.00" departLane="266565295#5_1" departPos="5.10" departSpeed="0.00" departDelay="0.80" arrival="57766.00" arrivalLane="-24634415_1" arrivalPos="62.03" arrivalSpeed="13.16" duration="110.00" routeLength="807.40" waitingTime="25.00" waitingCount="1" stopTime="0.00" timeLoss="44.43" rerouteNo="1" devices="tripinfo_h3568c1:3 routing_h3568c1:3 emissions_h3568c1:3" vType="default_016" speedFactor="0.98" vaporized="">
        <emissions CO_abs="7624.320078" CO2_abs="301643.963848" HC_abs="41.792005" PMx_abs="5.728837" NOx_abs="126.220029" fuel_abs="129.665749" electricity_abs="0"/>
    </tripinfo>
    <tripinfo id="h330c1:1" depart="57736.00" departLane="-32978638#0_1" departPos="5.10" departSpeed="0.00" departDelay="0.20" arrival="57770.00" arrivalLane="-266565295#5_1" arrivalPos="172.76" arrivalSpeed="13.62" duration="34.00" routeLength="370.53" waitingTime="0.00" waitingCount="0" stopTime="0.00" timeLoss="5.98" rerouteNo="1" devices="tripinfo_h330c1:1 routing_h330c1:1 emissions_h330c1:1" vType="default_016" speedFactor="0.99" vaporized="">
        <emissions CO_abs="1602.904820" CO2_abs="104509.071730" HC_abs="9.744328" PMx_abs="1.838313" NOx_abs="42.555252" fuel_abs="44.923999" electricity_abs="0"/>
    </tripinfo>
    <tripinfo id="h7181c1:1" depart="57660.00" departLane="315358254#0_1" departPos="5.10" departSpeed="0.00" departDelay="0.10" arrival="57771.00" arrivalLane="306240162#0_0" arrivalPos="220.43" arrivalSpeed="17.55" duration="111.00" routeLength="932.35" waitingTime="42.00" waitingCount="2" stopTime="0.00" timeLoss="63.27" rerouteNo="1" devices="tripinfo_h7181c1:1 routing_h7181c1:1 emissions_h7181c1:1" vType="default_016" speedFactor="1.09" vaporized="">
        <emissions CO_abs="10905.232027" CO2_abs="435463.518002" HC_abs="60.087185" PMx_abs="9.235039" NOx_abs="185.757535" fuel_abs="187.188617" electricity_abs="0"/>
    </tripinfo>
    <tripinfo id="carIn121703:1" depart="57647.00" departLane="386687232#0_1" departPos="5.10" departSpeed="0.00" departDelay="0.30" arrival="57773.00" arrivalLane="-315358244_1" arrivalPos="33.95" arrivalSpeed="14.50" duration="126.00" routeLength="1157.39" waitingTime="26.00" waitingCount="2" stopTime="0.00" timeLoss="45.56" rerouteNo="1" devices="tripinfo_carIn121703:1 routing_carIn121703:1 emissions_carIn121703:1" vType="default_016" speedFactor="1.05" vaporized="">
        <emissions CO_abs="6424.077075" CO2_abs="319985.804094" HC_abs="36.655629" PMx_abs="5.850728" NOx_abs="131.284325" fuel_abs="137.549256" electricity_abs="0"/>
    </tripinfo>
    <tripinfo id="carIn27009:1" depart="57673.00" departLane="-447569998#1_1" departPos="5.10" departSpeed="0.00" departDelay="0.50" arrival="57773.00" arrivalLane="-26677539_1" arrivalPos="152.75" arrivalSpeed="7.77" duration="100.00" routeLength="699.63" waitingTime="0.00" waitingCount="0" stopTime="0.00" timeLoss="12.10" rerouteNo="1" devices="tripinfo_carIn27009:1 routing_carIn27009:1 emissions_carIn27009:1" vType="default_015" speedFactor="0.96" vaporized="">
        <emissions CO_abs="4206.390999" CO2_abs="189851.770481" HC_abs="23.494235" PMx_abs="3.017248" NOx_abs="76.756957" fuel_abs="81.610634" electricity_abs="0"/>
    </tripinfo>
    <tripinfo id="carIn12365:1" depart="57713.00" departLane="315358244_1" departPos="5.10" departSpeed="0.00" departDelay="0.50" arrival="57778.00" arrivalLane="447569997#1_1" arrivalPos="180.93" arrivalSpeed="8.60" duration="65.00" routeLength="718.04" waitingTime="0.00" waitingCount="0" stopTime="0.00" timeLoss="8.46" rerouteNo="1" devices="tripinfo_carIn12365:1 routing_carIn12365:1 emissions_carIn12365:1" vType="default_016" speedFactor="1.10" vaporized="">
        <emissions CO_abs="2413.788587" CO2_abs="172385.219829" HC_abs="14.990577" PMx_abs="2.887584" NOx_abs="68.970823" fuel_abs="74.101114" electricity_abs="0"/>
    </tripinfo>
    <tripinfo id="carIn80064:1" depart="57603.00" departLane="128361109#1_1" departPos="5.10" departSpeed="0.00" departDelay="0.40" arrival="57779.00" arrivalLane="-315358254#1_1" arrivalPos="137.16" arrivalSpeed="13.38" duration="176.00" routeLength="1587.97" waitingTime="59.00" waitingCount="2" stopTime="0.00" timeLoss="90.90" rerouteNo="1" devices="tripinfo_carIn80064:1 routing_carIn80064:1 emissions_carIn80064:1" vType="default_016" speedFactor="1.05" vaporized="">
        <emissions CO_abs="14922.711194" CO2_abs="593164.295930" HC_abs="82.149266" PMx_abs="12.462850" NOx_abs="252.390959" fuel_abs="254.978198" electricity_abs="0"/>
    </tripinfo>
    <tripinfo id="h3154c1:1" depart="57658.00" departLane="24634507_1" departPos="5.10" departSpeed="0.00" departDelay="0.00" arrival="57780.00" arrivalLane="-266565295#5_1" arrivalPos="172.76" arrivalSpeed="10.79" duration="122.00" routeLength="1206.22" waitingTime="0.00" waitingCount="0" stopTime="0.00" timeLoss="17.47" rerouteNo="1" devices="tripinfo_h3154c1:1 routing_h3154c1:1 emissions_h3154c1:1" vType="default_016" speedFactor="0.85" vaporized="">
        <emissions CO_abs="4356.035569" CO2_abs="286747.687836" HC_abs="26.485771" PMx_abs="4.595952" NOx_abs="114.442261" fuel_abs="123.261213" electricity_abs="0"/>
    </tripinfo>
    <tripinfo id="carIn129809:1" depart="57729.00" departLane="-447569998#1_1" departPos="5.10" departSpeed="0.00" departDelay="1.00" arrival="57812.00" arrivalLane="-315358244_1" arrivalPos="33.95" arrivalSpeed="12.46" duration="83.00" routeLength="706.49" waitingTime="5.00" waitingCount="1" stopTime="0.00" timeLoss="17.97" rerouteNo="1" devices="tripinfo_carIn129809:1 routing_carIn129809:1 emissions_carIn129809:1" vType="default_015" speedFactor="0.94" vaporized="">
        <emissions CO_abs="2954.272258" CO2_abs="171876.005587" HC_abs="17.436756" PMx_abs="2.798443" NOx_abs="68.863502" fuel_abs="73.882759" electricity_abs="0"/>
    </tripinfo>
    <tripinfo id="h11737c1:1" depart="57665.00" departLane="272042143_1" departPos="5.10" departSpeed="0.00" departDelay="1.50" arrival="57817.00" arrivalLane="-315358254#1_1" arrivalPos="137.16" arrivalSpeed="13.02" duration="152.00" routeLength="1596.88" waitingTime="15.00" waitingCount="2" stopTime="0.00" timeLoss="38.18" rerouteNo="1" devices="tripinfo_h11737c1:1 routing_h11737c1:1 emissions_h11737c1:1" vType="default_016" speedFactor="1.03" vaporized="">
        <emissions CO_abs="6047.051251" CO2_abs="393042.914964" HC_abs="36.692590" PMx_abs="6.673726" NOx_abs="157.303636" fuel_abs="168.952913" electricity_abs="0"/>
    </tripinfo>
    <tripinfo id="carIn126288:1" depart="57674.00" departLane="272042143_1" departPos="5.10" departSpeed="0.00" departDelay="0.00" arrival="57819.00" arrivalLane="-315358254#1_1" arrivalPos="137.16" arrivalSpeed="13.86" duration="145.00" routeLength="1596.88" waitingTime="10.00" waitingCount="1" stopTime="0.00" timeLoss="34.56" rerouteNo="1" devices="tripinfo_carIn126288:1 routing_carIn126288:1 emissions_carIn126288:1" vType="default_016" speedFactor="1.06" vaporized="">
        <emissions CO_abs="6103.859047" CO2_abs="408149.707238" HC_abs="37.340544" PMx_abs="7.101511" NOx_abs="164.640922" fuel_abs="175.446268" electricity_abs="0"/>
    </tripinfo>
    <tripinfo id="carIn107282:1" depart="57749.00" departLane="-447569998#1_1" departPos="5.10" departSpeed="0.00" departDelay="0.00" arrival="57823.00" arrivalLane="315358242#0_1" arrivalPos="165.37" arrivalSpeed="16.43" duration="74.00" routeLength="448.50" waitingTime="29.00" waitingCount="1" stopTime="0.00" timeLoss="38.27" rerouteNo="1" devices="tripinfo_carIn107282:1 routing_carIn107282:1 emissions_carIn107282:1" vType="default_016" speedFactor="1.19" vaporized="">
        <emissions CO_abs="6247.076081" CO2_abs="192730.253298" HC_abs="32.995924" PMx_abs="4.026086" NOx_abs="82.933320" fuel_abs="82.848340" electricity_abs="0"/>
    </tripinfo>
    <tripinfo id="h645c1:1" depart="57622.00" departLane="266565295#5_1" departPos="5.10" departSpeed="0.00" departDelay="0.40" arrival="57824.00" arrivalLane="-315358244_1" arrivalPos="33.95" arrivalSpeed="14.02" duration="202.00" routeLength="1910.83" waitingTime="52.00" waitingCount="2" stopTime="0.00" timeLoss="72.18" rerouteNo="1" devices="tripinfo_h645c1:1 routing_h645c1:1 emissions_h645c1:1" vType="default_016" speedFactor="1.06" vaporized="">
        <emissions CO_abs="11379.708181" CO2_abs="517894.176072" HC_abs="63.770517" PMx_abs="9.169434" NOx_abs="208.979665" fuel_abs="222.623715" electricity_abs="0"/>
    </tripinfo>
    <tripinfo id="carIn86816:1" depart="57617.00" departLane="128361102#0_1" departPos="5.10" departSpeed="0.00" departDelay="0.80" arrival="57827.00" arrivalLane="201956811#0_1" arrivalPos="40.40" arrivalSpeed="13.85" duration="210.00" routeLength="2067.33" waitingTime="32.00" waitingCount="3" stopTime="0.00" timeLoss="62.14" rerouteNo="1" devices="tripinfo_carIn86816:1 routing_carIn86816:1 emissions_carIn86816:1" vType="default_016" speedFactor="1.03" vaporized="">
        <emissions CO_abs="9921.578292" CO2_abs="524111.514895" HC_abs="57.404527" PMx_abs="9.250827" NOx_abs="212.639957" fuel_abs="225.294881" electricity_abs="0"/>
    </tripinfo>
    <tripinfo id="carIn107084:1" depart="57601.00" departLane="124812856#0_1" departPos="5.10" departSpeed="0.00" departDelay="0.70" arrival="57828.00" arrivalLane="-128361102#1_1" arrivalPos="274.68" arrivalSpeed="12.84" duration="227.00" routeLength="2250.49" waitingTime="25.00" waitingCount="2" stopTime="0.00" timeLoss="51.07" rerouteNo="1" devices="tripinfo_carIn107084:1 routing_carIn107084:1 emissions_carIn107084:1" vType="default_016" speedFactor="0.93" vaporized="">
        <emissions CO_abs="8439.065286" CO2_abs="499389.792909" HC_abs="50.050372" PMx_abs="8.285454" NOx_abs="199.705816" fuel_abs="214.667884" electricity_abs="0"/>
    </tripinfo>
    <tripinfo id="carIn77943:1" depart="57608.00" departLane="124812856#0_1" departPos="5.10" departSpeed="0.00" departDelay="2.50" arrival="57830.00" arrivalLane="-128361102#1_1" arrivalPos="274.68" arrivalSpeed="14.81" duration="222.00" routeLength="2250.49" waitingTime="23.00" waitingCount="2" stopTime="0.00" timeLoss="70.89" rerouteNo="1" devices="tripinfo_carIn77943:1 routing_carIn77943:1 emissions_carIn77943:1" vType="default_016" speedFactor="1.09" vaporized="">
        <emissions CO_abs="10535.607307" CO2_abs="610852.496676" HC_abs="62.259462" PMx_abs="11.058729" NOx_abs="250.448107" fuel_abs="262.580014" electricity_abs="0"/>
    </tripinfo>
    <tripinfo id="carIn81046:1" depart="57611.00" departLane="124812856#0_1" departPos="5.10" departSpeed="0.00" departDelay="2.50" arrival="57832.00" arrivalLane="-128361102#1_1" arrivalPos="274.68" arrivalSpeed="13.47" duration="221.00" routeLength="2250.49" waitingTime="21.00" waitingCount="1" stopTime="0.00" timeLoss="62.30" rerouteNo="1" devices="tripinfo_carIn81046:1 routing_carIn81046:1 emissions_carIn81046:1" vType="default_016" speedFactor="1.04" vaporized="">
        <emissions CO_abs="10841.544337" CO2_abs="619670.870696" HC_abs="63.977306" PMx_abs="11.359985" NOx_abs="255.299882" fuel_abs="266.370566" electricity_abs="0"/>
    </tripinfo>
    <tripinfo id="carIn12858:1" depart="57661.00" departLane="128361109#1_1" departPos="5.10" departSpeed="0.00" departDelay="0.90" arrival="57833.00" arrivalLane="399835085#1_1" arrivalPos="212.23" arrivalSpeed="7.66" duration="172.00" routeLength="1738.12" waitingTime="27.00" waitingCount="2" stopTime="0.00" timeLoss="60.64" rerouteNo="1" devices="tripinfo_carIn12858:1 routing_carIn12858:1 emissions_carIn12858:1" vType="default_016" speedFactor="1.03" vaporized="">
        <emissions CO_abs="10290.889198" CO2_abs="526680.459255" HC_abs="59.409532" PMx_abs="10.381190" NOx_abs="219.352545" fuel_abs="226.397934" electricity_abs="0"/>
    </tripinfo>
    <tripinfo id="randUni15030:1" depart="57735.00" departLane="386687232#0_1" departPos="5.10" departSpeed="0.00" departDelay="0.10" arrival="57834.00" arrivalLane="26677539_1" arrivalPos="151.98" arrivalSpeed="8.16" duration="99.00" routeLength="919.89" waitingTime="6.00" waitingCount="1" stopTime="0.00" timeLoss="20.95" rerouteNo="1" devices="tripinfo_randUni15030:1 routing_randUni15030:1 emissions_randUni15030:1" vType="random_016" speedFactor="1.06" vaporized="">
        <emissions CO_abs="3830.261674" CO2_abs="224382.807095" HC_abs="22.658310" PMx_abs="3.798704" NOx_abs="90.750618" fuel_abs="96.453137" electricity_abs="0"/>
    </tripinfo>
    <tripinfo id="h17600c1:1" depart="57662.00" departLane="272042143_1" departPos="5.10" departSpeed="0.00" departDelay="0.30" arrival="57840.00" arrivalLane="201238729#3_1" arrivalPos="431.02" arrivalSpeed="13.55" duration="178.00" routeLength="2100.26" waitingTime="9.00" waitingCount="2" stopTime="0.00" timeLoss="33.86" rerouteNo="1" devices="tripinfo_h17600c1:1 routing_h17600c1:1 emissions_h17600c1:1" vType="default_016" speedFactor="1.05" vaporized="">
        <emissions CO_abs="5080.140917" CO2_abs="433358.051207" HC_abs="33.126086" PMx_abs="6.847655" NOx_abs="169.005632" fuel_abs="186.282251" electricity_abs="0"/>
    </tripinfo>
    <tripinfo id="S5R_frequency1.2" depart="57634.00" departLane="315358250#0_1" departPos="12.10" departSpeed="0.00" departDelay="22.40" arrival="57844.00" arrivalLane="386687235_1" arrivalPos="80.84" arrivalSpeed="13.22" duration="210.00" routeLength="1115.62" waitingTime="84.00" waitingCount="5" stopTime="0.00" timeLoss="128.25" rerouteNo="1" devices="tripinfo_S5R_frequency1.2 routing_S5R_frequency1.2 emissions_S5R_frequency1.2" vType="bus" speedFactor="1.00" vaporized="">
        <emissions CO_abs="3889.467935" CO2_abs="1877357.174030" HC_abs="849.509808" PMx_abs="404.042191" NOx_abs="16089.106037" fuel_abs="800.480215" electricity_abs="0"/>
    </tripinfo>
    <tripinfo id="carIn77438:1" depart="57614.00" departLane="124812856#0_1" departPos="5.10" departSpeed="0.00" departDelay="1.10" arrival="57846.00" arrivalLane="-128361102#1_1" arrivalPos="274.68" arrivalSpeed="13.70" duration="232.00" routeLength="2250.49" waitingTime="29.00" waitingCount="2" stopTime="0.00" timeLoss="69.97" rerouteNo="1" devices="tripinfo_carIn77438:1 routing_carIn77438:1 emissions_carIn77438:1" vType="default_016" speedFactor="1.01" vaporized="">
        <emissions CO_abs="10806.233800" CO2_abs="612269.775180" HC_abs="63.589559" PMx_abs="10.959183" NOx_abs="250.148542" fuel_abs="263.189671" electricity_abs="0"/>
    </tripinfo>
    <tripinfo id="h19804c1:3" depart="57617.00" departLane="124812856#0_1" departPos="5.10" departSpeed="0.00" departDelay="1.50" arrival="57848.00" arrivalLane="-128361102#1_1" arrivalPos="274.68" arrivalSpeed="16.80" duration="231.00" routeLength="2232.46" waitingTime="35.00" waitingCount="3" stopTime="0.00" timeLoss="99.84" rerouteNo="1" devices="tripinfo_h19804c1:3 routing_h19804c1:3 emissions_h19804c1:3" vType="default_016" speedFactor="1.25" vaporized="">
        <emissions CO_abs="13161.813842" CO2_abs="717034.652821" HC_abs="76.877942" PMx_abs="13.699653" NOx_abs="298.140769" fuel_abs="308.222938" electricity_abs="0"/>
    </tripinfo>
    <tripinfo id="carIn107842:1" depart="57623.00" departLane="124812856#0_1" departPos="5.10" departSpeed="0.00" departDelay="1.90" arrival="57849.00" arrivalLane="-128361102#1_1" arrivalPos="274.68" arrivalSpeed="14.33" duration="226.00" routeLength="2250.49" waitingTime="20.00" waitingCount="3" stopTime="0.00" timeLoss="66.91" rerouteNo="1" devices="tripinfo_carIn107842:1 routing_carIn107842:1 emissions_carIn107842:1" vType="default_016" speedFactor="1.03" vaporized="">
        <emissions CO_abs="8193.219243" CO2_abs="543284.526073" HC_abs="50.050193" PMx_abs="9.499536" NOx_abs="220.523094" fuel_abs="233.534885" electricity_abs="0"/>
    </tripinfo>
    <tripinfo id="carIn8642:1" depart="57774.00" departLane="-447569998#1_1" departPos="5.10" departSpeed="0.00" departDelay="0.90" arrival="57854.00" arrivalLane="-315358244_1" arrivalPos="33.95" arrivalSpeed="11.56" duration="80.00" routeLength="706.49" waitingTime="1.00" waitingCount="1" stopTime="0.00" timeLoss="10.79" rerouteNo="1" devices="tripinfo_carIn8642:1 routing_carIn8642:1 emissions_carIn8642:1" vType="default_016" speedFactor="0.87" vaporized="">
        <emissions CO_abs="2938.910561" CO2_abs="165182.845472" HC_abs="17.172402" PMx_abs="2.508964" NOx_abs="65.105954" fuel_abs="71.005984" electricity_abs="0"/>
    </tripinfo>
    <tripinfo id="carIn73855:1" depart="57743.00" departLane="386687232#0_1" departPos="5.10" departSpeed="0.00" departDelay="0.50" arrival="57856.00" arrivalLane="-315358244_1" arrivalPos="33.95" arrivalSpeed="13.17" duration="113.00" routeLength="1157.39" waitingTime="10.00" waitingCount="1" stopTime="0.00" timeLoss="28.65" rerouteNo="1" devices="tripinfo_carIn73855:1 routing_carIn73855:1 emissions_carIn73855:1" vType="default_016" speedFactor="1.00" vaporized="">
        <emissions CO_abs="4542.957002" CO2_abs="273079.606525" HC_abs="27.047972" PMx_abs="4.597764" NOx_abs="109.374344" fuel_abs="117.385963" electricity_abs="0"/>
    </tripinfo>
    <tripinfo id="carIn126378:1" depart="57746.00" departLane="386687232#0_1" departPos="5.10" departSpeed="0.00" departDelay="1.80" arrival="57857.00" arrivalLane="-315358244_1" arrivalPos="33.95" arrivalSpeed="13.27" duration="111.00" routeLength="1157.39" waitingTime="6.00" waitingCount="1" stopTime="0.00" timeLoss="24.42" rerouteNo="1" devices="tripinfo_carIn126378:1 routing_carIn126378:1 emissions_carIn126378:1" vType="default_016" speedFactor="0.97" vaporized="">
        <emissions CO_abs="3859.807297" CO2_abs="252828.657412" HC_abs="23.490046" PMx_abs="4.262306" NOx_abs="101.560205" fuel_abs="108.680564" electricity_abs="0"/>
    </tripinfo>
    <tripinfo id="carIn7949:1" depart="57676.00" departLane="128361109#1_1" departPos="5.10" departSpeed="0.00" departDelay="2.10" arrival="57864.00" arrivalLane="386687235_1" arrivalPos="80.84" arrivalSpeed="14.84" duration="188.00" routeLength="2088.57" waitingTime="30.00" waitingCount="2" stopTime="0.00" timeLoss="53.86" rerouteNo="1" devices="tripinfo_carIn7949:1 routing_carIn7949:1 emissions_carIn7949:1" vType="default_016" speedFactor="1.13" vaporized="">
        <emissions CO_abs="9175.253450" CO2_abs="502055.228259" HC_abs="53.452469" PMx_abs="8.930038" NOx_abs="202.458519" fuel_abs="215.813525" electricity_abs="0"/>
    </tripinfo>
    <tripinfo id="carIn28951:1" depart="57606.00" departLane="10425609#0_1" departPos="5.10" departSpeed="0.00" departDelay="0.20" arrival="57865.00" arrivalLane="-128361102#1_1" arrivalPos="274.68" arrivalSpeed="13.74" duration="259.00" routeLength="2113.04" waitingTime="62.00" waitingCount="4" stopTime="0.00" timeLoss="109.59" rerouteNo="1" devices="tripinfo_carIn28951:1 routing_carIn28951:1 emissions_carIn28951:1" vType="default_016" speedFactor="1.04" vaporized="">
        <emissions CO_abs="14755.396377" CO2_abs="616636.143388" HC_abs="81.643710" PMx_abs="11.708130" NOx_abs="256.531275" fuel_abs="265.068847" electricity_abs="0"/>
    </tripinfo>
    <tripinfo id="50R_frequency3.17" depart="57674.00" departLane="-18809673#6_1" departPos="12.10" departSpeed="0.00" departDelay="0.70" arrival="57865.00" arrivalLane="201956811#0_1" arrivalPos="40.40" arrivalSpeed="11.82" duration="191.00" routeLength="1954.47" waitingTime="13.00" waitingCount="2" stopTime="0.00" timeLoss="46.07" rerouteNo="1" devices="tripinfo_50R_frequency3.17 routing_50R_frequency3.17 emissions_50R_frequency3.17" vType="bus" speedFactor="1.00" vaporized="">
        <emissions CO_abs="3739.529747" CO2_abs="2288198.620566" HC_abs="784.574543" PMx_abs="399.180903" NOx_abs="17912.353091" fuel_abs="975.865349" electricity_abs="0"/>
    </tripinfo>
    <tripinfo id="carIn102915:1" depart="57643.00" departLane="128361102#0_1" departPos="5.10" departSpeed="0.00" departDelay="0.40" arrival="57867.00" arrivalLane="201956811#0_1" arrivalPos="40.40" arrivalSpeed="13.60" duration="224.00" routeLength="2067.33" waitingTime="40.00" waitingCount="2" stopTime="0.00" timeLoss="74.56" rerouteNo="1" devices="tripinfo_carIn102915:1 routing_carIn102915:1 emissions_carIn102915:1" vType="default_016" speedFactor="1.01" vaporized="">
        <emissions CO_abs="11357.731345" CO2_abs="559186.384297" HC_abs="64.771552" PMx_abs="9.877646" NOx_abs="227.194033" fuel_abs="240.372812" electricity_abs="0"/>