<?xml version="1.0" encoding="UTF-8"?>

<!-- generated on 2021-10-26 19:46:50 by Eclipse SUMO sumo Version 1.10.0
<configuration xmlns:xsi="http://www.w3.org/2001/XMLSchema-instance" xsi:noNamespaceSchemaLocation="http://sumo.dlr.de/xsd/sumoConfiguration.xsd">

    <input>
        <net-file value="/Users/behradkoohy/sumo-scratchpad/RESCO/environments/ingolstadt21/ingolstadt21.net.xml"/>
        <route-files value="/Users/behradkoohy/sumo-scratchpad/RESCO/environments/ingolstadt21/ingolstadt21.rou.xml"/>
    </input>

    <output>
        <tripinfo-output value="/Users/behradkoohy/sumo-scratchpad/RESCO/logs/MPLight-tr0-ingolstadt21-21-mplight-pressure/tripinfo_42.xml"/>
        <tripinfo-output.write-unfinished value="true"/>
    </output>

    <time>
        <begin value="57600"/>
        <end value="61200"/>
    </time>

    <processing>
        <time-to-teleport value="-1"/>
    </processing>

    <report>
        <no-warnings value="true"/>
        <no-step-log value="true"/>
    </report>

    <emissions>
        <device.emissions.probability value="1"/>
    </emissions>

    <traci_server>
        <remote-port value="63862"/>
    </traci_server>

    <random_number>
        <random value="true"/>
    </random_number>

</configuration>
-->

<tripinfos xmlns:xsi="http://www.w3.org/2001/XMLSchema-instance" xsi:noNamespaceSchemaLocation="http://sumo.dlr.de/xsd/tripinfo_file.xsd">
    <tripinfo id="h15454c2:3" depart="57612.00" departLane="24608844_1" departPos="5.10" departSpeed="0.00" departDelay="0.50" arrival="57658.00" arrivalLane="32978638#0_1" arrivalPos="49.29" arrivalSpeed="11.34" duration="46.00" routeLength="354.79" waitingTime="0.00" waitingCount="0" stopTime="0.00" timeLoss="6.17" rerouteNo="1" devices="tripinfo_h15454c2:3 routing_h15454c2:3 emissions_h15454c2:3" vType="default_016" speedFactor="0.87" vaporized="">
        <emissions CO_abs="1956.621782" CO2_abs="95302.646939" HC_abs="11.103851" PMx_abs="1.553723" NOx_abs="38.567899" fuel_abs="40.967104" electricity_abs="0"/>
    </tripinfo>
    <tripinfo id="carIn60260:1" depart="57606.00" departLane="315358254#0_1" departPos="5.10" departSpeed="0.00" departDelay="0.90" arrival="57667.00" arrivalLane="399835085#1_1" arrivalPos="212.23" arrivalSpeed="6.60" duration="61.00" routeLength="430.98" waitingTime="0.00" waitingCount="0" stopTime="0.00" timeLoss="10.64" rerouteNo="1" devices="tripinfo_carIn60260:1 routing_carIn60260:1 emissions_carIn60260:1" vType="default_016" speedFactor="0.91" vaporized="">
        <emissions CO_abs="2850.890224" CO2_abs="126110.778500" HC_abs="15.878078" PMx_abs="2.070871" NOx_abs="51.267766" fuel_abs="54.210574" electricity_abs="0"/>
    </tripinfo>
    <tripinfo id="carIn53971:1" depart="57640.00" departLane="272042143_1" departPos="5.10" departSpeed="0.00" departDelay="0.80" arrival="57696.00" arrivalLane="24634414#1_1" arrivalPos="162.19" arrivalSpeed="7.10" duration="56.00" routeLength="493.04" waitingTime="0.00" waitingCount="0" stopTime="0.00" timeLoss="7.99" rerouteNo="1" devices="tripinfo_carIn53971:1 routing_carIn53971:1 emissions_carIn53971:1" vType="default_016" speedFactor="0.96" vaporized="">
        <emissions CO_abs="2340.660114" CO2_abs="122756.433799" HC_abs="13.513988" PMx_abs="2.115651" NOx_abs="50.302549" fuel_abs="52.768161" electricity_abs="0"/>
    </tripinfo>
    <tripinfo id="h12244c1:3" depart="57612.00" departLane="315358244_1" departPos="5.10" departSpeed="0.00" departDelay="0.40" arrival="57717.00" arrivalLane="386687235_1" arrivalPos="80.84" arrivalSpeed="14.95" duration="105.00" routeLength="1186.14" waitingTime="13.00" waitingCount="1" stopTime="0.00" timeLoss="29.31" rerouteNo="1" devices="tripinfo_h12244c1:3 routing_h12244c1:3 emissions_h12244c1:3" vType="default_016" speedFactor="1.14" vaporized="">
        <emissions CO_abs="4486.206853" CO2_abs="283294.140054" HC_abs="26.909739" PMx_abs="4.866510" NOx_abs="112.792589" fuel_abs="121.776544" electricity_abs="0"/>
    </tripinfo>
    <tripinfo id="h7800c1:5" depart="57696.00" departLane="-447569998#1_1" departPos="5.10" departSpeed="0.00" departDelay="0.00" arrival="57724.00" arrivalLane="-447569998#1_2" arrivalPos="180.76" arrivalSpeed="6.94" duration="28.00" routeLength="175.66" waitingTime="0.00" waitingCount="0" stopTime="0.00" timeLoss="3.40" rerouteNo="1" devices="tripinfo_h7800c1:5 routing_h7800c1:5 emissions_h7800c1:5" vType="default_016" speedFactor="0.87" vaporized="">
        <emissions CO_abs="1316.637777" CO2_abs="52233.631583" HC_abs="7.195508" PMx_abs="0.890649" NOx_abs="21.560712" fuel_abs="22.453449" electricity_abs="0"/>
    </tripinfo>
    <tripinfo id="h3688c1:1" depart="57625.00" departLane="201201950#1_1" departPos="5.10" departSpeed="0.00" departDelay="0.00" arrival="57730.00" arrivalLane="32978638#0_1" arrivalPos="49.29" arrivalSpeed="14.03" duration="105.00" routeLength="1089.75" waitingTime="14.00" waitingCount="1" stopTime="0.00" timeLoss="28.65" rerouteNo="1" devices="tripinfo_h3688c1:1 routing_h3688c1:1 emissions_h3688c1:1" vType="default_016" speedFactor="1.05" vaporized="">
        <emissions CO_abs="4863.458060" CO2_abs="294174.096604" HC_abs="28.879884" PMx_abs="5.090457" NOx_abs="118.386892" fuel_abs="126.453407" electricity_abs="0"/>
    </tripinfo>
    <tripinfo id="h3568c1:3" depart="57656.00" departLane="266565295#5_1" departPos="5.10" departSpeed="0.00" departDelay="0.80" arrival="57731.00" arrivalLane="-24634415_1" arrivalPos="62.03" arrivalSpeed="14.25" duration="75.00" routeLength="807.40" waitingTime="0.00" waitingCount="0" stopTime="0.00" timeLoss="11.99" rerouteNo="1" devices="tripinfo_h3568c1:3 routing_h3568c1:3 emissions_h3568c1:3" vType="default_016" speedFactor="1.04" vaporized="">
        <emissions CO_abs="3122.675839" CO2_abs="213858.766984" HC_abs="19.232523" PMx_abs="3.682277" NOx_abs="86.470553" fuel_abs="91.928775" electricity_abs="0"/>
    </tripinfo>
    <tripinfo id="h7181c1:1" depart="57660.00" departLane="315358254#0_1" departPos="5.10" departSpeed="0.00" departDelay="0.10" arrival="57740.00" arrivalLane="306240162#0_0" arrivalPos="220.43" arrivalSpeed="17.10" duration="80.00" routeLength="932.35" waitingTime="12.00" waitingCount="2" stopTime="0.00" timeLoss="30.19" rerouteNo="1" devices="tripinfo_h7181c1:1 routing_h7181c1:1 emissions_h7181c1:1" vType="default_016" speedFactor="1.03" vaporized="">
        <emissions CO_abs="4925.938551" CO2_abs="292381.815573" HC_abs="29.399083" PMx_abs="5.851580" NOx_abs="121.707323" fuel_abs="125.681980" electricity_abs="0"/>
    </tripinfo>
    <tripinfo id="carIn121703:1" depart="57647.00" departLane="386687232#0_1" departPos="5.10" departSpeed="0.00" departDelay="0.30" arrival="57746.00" arrivalLane="-315358244_1" arrivalPos="33.95" arrivalSpeed="15.62" duration="99.00" routeLength="1157.39" waitingTime="14.00" waitingCount="1" stopTime="0.00" timeLoss="26.33" rerouteNo="1" devices="tripinfo_carIn121703:1 routing_carIn121703:1 emissions_carIn121703:1" vType="default_016" speedFactor="1.16" vaporized="">
        <emissions CO_abs="3894.380393" CO2_abs="264005.723822" HC_abs="23.754474" PMx_abs="4.557970" NOx_abs="104.952509" fuel_abs="113.484989" electricity_abs="0"/>
    </tripinfo>
    <tripinfo id="h5979c1:5" depart="57669.00" departLane="399835085#1_1" departPos="5.10" departSpeed="0.00" departDelay="0.00" arrival="57750.00" arrivalLane="-315358254#1_1" arrivalPos="137.16" arrivalSpeed="14.81" duration="81.00" routeLength="659.33" waitingTime="0.00" waitingCount="0" stopTime="0.00" timeLoss="16.49" rerouteNo="1" devices="tripinfo_h5979c1:5 routing_h5979c1:5 emissions_h5979c1:5" vType="default_016" speedFactor="1.15" vaporized="">
        <emissions CO_abs="3465.325742" CO2_abs="178974.895485" HC_abs="19.939468" PMx_abs="3.109801" NOx_abs="73.511279" fuel_abs="76.934270" electricity_abs="0"/>
    </tripinfo>
    <tripinfo id="S5R_frequency1.2" depart="57615.00" departLane="315358250#0_1" departPos="12.10" departSpeed="0.00" departDelay="3.40" arrival="57751.00" arrivalLane="386687235_1" arrivalPos="80.84" arrivalSpeed="12.95" duration="136.00" routeLength="1115.62" waitingTime="25.00" waitingCount="3" stopTime="0.00" timeLoss="54.73" rerouteNo="1" devices="tripinfo_S5R_frequency1.2 routing_S5R_frequency1.2 emissions_S5R_frequency1.2" vType="bus" speedFactor="1.00" vaporized="">
        <emissions CO_abs="2480.279191" CO2_abs="1375884.349461" HC_abs="538.549191" PMx_abs="262.178005" NOx_abs="11152.741362" fuel_abs="586.744922" electricity_abs="0"/>
    </tripinfo>
    <tripinfo id="h4538c1:1" depart="57701.00" departLane="-10427692#1_1" departPos="5.10" departSpeed="0.00" departDelay="0.00" arrival="57756.00" arrivalLane="-128361102#1_1" arrivalPos="274.68" arrivalSpeed="13.05" duration="55.00" routeLength="440.74" waitingTime="13.00" waitingCount="1" stopTime="0.00" timeLoss="23.15" rerouteNo="1" devices="tripinfo_h4538c1:1 routing_h4538c1:1 emissions_h4538c1:1" vType="default_016" speedFactor="1.01" vaporized="">
        <emissions CO_abs="3298.089893" CO2_abs="136120.790447" HC_abs="18.210720" PMx_abs="2.618141" NOx_abs="57.028847" fuel_abs="58.513208" electricity_abs="0"/>
    </tripinfo>
    <tripinfo id="carIn22761:1" depart="57616.00" departLane="-306240162#1_0" departPos="5.10" departSpeed="0.00" departDelay="2.10" arrival="57757.00" arrivalLane="399835085#1_1" arrivalPos="212.23" arrivalSpeed="7.07" duration="141.00" routeLength="1093.26" waitingTime="34.00" waitingCount="2" stopTime="0.00" timeLoss="57.90" rerouteNo="1" devices="tripinfo_carIn22761:1 routing_carIn22761:1 emissions_carIn22761:1" vType="default_016" speedFactor="0.94" vaporized="">
        <emissions CO_abs="9492.909458" CO2_abs="386193.525213" HC_abs="52.309638" PMx_abs="7.670508" NOx_abs="162.786017" fuel_abs="166.009873" electricity_abs="0"/>
    </tripinfo>
    <tripinfo id="h317c2:1" depart="57707.00" departLane="-32978638#0_1" departPos="5.10" departSpeed="0.00" departDelay="0.10" arrival="57765.00" arrivalLane="-266565295#5_1" arrivalPos="172.76" arrivalSpeed="12.99" duration="58.00" routeLength="370.53" waitingTime="21.00" waitingCount="1" stopTime="0.00" timeLoss="30.55" rerouteNo="1" devices="tripinfo_h317c2:1 routing_h317c2:1 emissions_h317c2:1" vType="default_016" speedFactor="0.99" vaporized="">
        <emissions CO_abs="4361.275584" CO2_abs="156311.127884" HC_abs="23.536314" PMx_abs="3.087496" NOx_abs="66.121593" fuel_abs="67.192634" electricity_abs="0"/>
    </tripinfo>
    <tripinfo id="h3326c1:2" depart="57656.00" departLane="22716069#0_1" departPos="5.10" departSpeed="0.00" departDelay="0.00" arrival="57766.00" arrivalLane="24634517#13_1" arrivalPos="111.62" arrivalSpeed="13.04" duration="110.00" routeLength="1312.81" waitingTime="0.00" waitingCount="0" stopTime="0.00" timeLoss="14.53" rerouteNo="1" devices="tripinfo_h3326c1:2 routing_h3326c1:2 emissions_h3326c1:2" vType="default_016" speedFactor="1.03" vaporized="">
        <emissions CO_abs="4085.741068" CO2_abs="305166.868536" HC_abs="25.690382" PMx_abs="5.291237" NOx_abs="123.229550" fuel_abs="131.177890" electricity_abs="0"/>
    </tripinfo>
    <tripinfo id="h9563c2:5" depart="57631.00" departLane="315358244_1" departPos="5.10" departSpeed="0.00" departDelay="0.70" arrival="57768.00" arrivalLane="386687235_1" arrivalPos="80.84" arrivalSpeed="11.93" duration="137.00" routeLength="1186.14" waitingTime="25.00" waitingCount="2" stopTime="0.00" timeLoss="44.99" rerouteNo="1" devices="tripinfo_h9563c2:5 routing_h9563c2:5 emissions_h9563c2:5" vType="default_016" speedFactor="0.94" vaporized="">
        <emissions CO_abs="6598.444238" CO2_abs="308165.254749" HC_abs="37.242949" PMx_abs="5.464628" NOx_abs="125.927397" fuel_abs="132.468642" electricity_abs="0"/>
    </tripinfo>
    <tripinfo id="carIn30817:1" depart="57681.00" departLane="315358244_1" departPos="5.10" departSpeed="0.00" departDelay="0.20" arrival="57768.00" arrivalLane="447569997#1_1" arrivalPos="180.93" arrivalSpeed="6.81" duration="87.00" routeLength="718.04" waitingTime="10.00" waitingCount="1" stopTime="0.00" timeLoss="22.41" rerouteNo="1" devices="tripinfo_carIn30817:1 routing_carIn30817:1 emissions_carIn30817:1" vType="default_016" speedFactor="0.96" vaporized="">
        <emissions CO_abs="4052.267801" CO2_abs="197354.446195" HC_abs="23.070649" PMx_abs="3.561345" NOx_abs="81.548379" fuel_abs="84.834952" electricity_abs="0"/>
    </tripinfo>
    <tripinfo id="h330c1:1" depart="57736.00" departLane="-32978638#0_1" departPos="5.10" departSpeed="0.00" departDelay="0.20" arrival="57770.00" arrivalLane="-266565295#5_1" arrivalPos="172.76" arrivalSpeed="12.34" duration="34.00" routeLength="370.53" waitingTime="0.00" waitingCount="0" stopTime="0.00" timeLoss="5.97" rerouteNo="1" devices="tripinfo_h330c1:1 routing_h330c1:1 emissions_h330c1:1" vType="default_016" speedFactor="0.98" vaporized="">
        <emissions CO_abs="1650.686257" CO2_abs="103143.812244" HC_abs="9.952665" PMx_abs="1.891817" NOx_abs="42.669867" fuel_abs="44.337057" electricity_abs="0"/>
    </tripinfo>
    <tripinfo id="carIn107084:1" depart="57601.00" departLane="124812856#0_1" departPos="5.10" departSpeed="0.00" departDelay="0.70" arrival="57771.00" arrivalLane="-128361102#1_1" arrivalPos="274.68" arrivalSpeed="16.32" duration="170.00" routeLength="2232.46" waitingTime="14.00" waitingCount="1" stopTime="0.00" timeLoss="37.09" rerouteNo="1" devices="tripinfo_carIn107084:1 routing_carIn107084:1 emissions_carIn107084:1" vType="default_016" speedFactor="1.23" vaporized="">
        <emissions CO_abs="7476.405476" CO2_abs="543775.456449" HC_abs="46.624071" PMx_abs="9.799061" NOx_abs="218.577514" fuel_abs="233.745211" electricity_abs="0"/>
    </tripinfo>
    <tripinfo id="carIn12365:1" depart="57713.00" departLane="315358244_1" departPos="5.10" departSpeed="0.00" departDelay="0.50" arrival="57784.00" arrivalLane="447569997#1_1" arrivalPos="180.93" arrivalSpeed="8.01" duration="71.00" routeLength="718.04" waitingTime="2.00" waitingCount="1" stopTime="0.00" timeLoss="11.88" rerouteNo="1" devices="tripinfo_carIn12365:1 routing_carIn12365:1 emissions_carIn12365:1" vType="default_016" speedFactor="1.04" vaporized="">
        <emissions CO_abs="2632.121571" CO2_abs="167469.463665" HC_abs="15.886483" PMx_abs="2.772210" NOx_abs="67.042563" fuel_abs="71.988315" electricity_abs="0"/>
    </tripinfo>
    <tripinfo id="carIn80064:1" depart="57603.00" departLane="128361109#1_1" departPos="5.10" departSpeed="0.00" departDelay="0.40" arrival="57791.00" arrivalLane="-315358254#1_1" arrivalPos="137.16" arrivalSpeed="13.28" duration="188.00" routeLength="1587.97" waitingTime="59.00" waitingCount="3" stopTime="0.00" timeLoss="101.44" rerouteNo="1" devices="tripinfo_carIn80064:1 routing_carIn80064:1 emissions_carIn80064:1" vType="default_016" speedFactor="1.04" vaporized="">
        <emissions CO_abs="15830.086480" CO2_abs="622355.233121" HC_abs="86.883235" PMx_abs="12.937628" NOx_abs="264.588595" fuel_abs="267.526523" electricity_abs="0"/>
    </tripinfo>
    <tripinfo id="h3154c1:1" depart="57658.00" departLane="24634507_1" departPos="5.10" departSpeed="0.00" departDelay="0.00" arrival="57791.00" arrivalLane="-266565295#5_1" arrivalPos="172.76" arrivalSpeed="11.11" duration="133.00" routeLength="1206.22" waitingTime="7.00" waitingCount="1" stopTime="0.00" timeLoss="25.88" rerouteNo="1" devices="tripinfo_h3154c1:1 routing_h3154c1:1 emissions_h3154c1:1" vType="default_016" speedFactor="0.84" vaporized="">
        <emissions CO_abs="4548.350933" CO2_abs="277031.637821" HC_abs="27.106165" PMx_abs="4.344609" NOx_abs="110.020990" fuel_abs="119.085105" electricity_abs="0"/>
    </tripinfo>
    <tripinfo id="carIn27009:1" depart="57673.00" departLane="-447569998#1_1" departPos="5.10" departSpeed="0.00" departDelay="0.50" arrival="57792.00" arrivalLane="-26677539_1" arrivalPos="152.75" arrivalSpeed="7.64" duration="119.00" routeLength="699.63" waitingTime="25.00" waitingCount="1" stopTime="0.00" timeLoss="39.66" rerouteNo="1" devices="tripinfo_carIn27009:1 routing_carIn27009:1 emissions_carIn27009:1" vType="default_015" speedFactor="1.05" vaporized="">
        <emissions CO_abs="7406.459279" CO2_abs="247964.421349" HC_abs="39.498526" PMx_abs="4.753329" NOx_abs="105.108626" fuel_abs="106.591666" electricity_abs="0"/>
    </tripinfo>
    <tripinfo id="carIn107282:1" depart="57749.00" departLane="-447569998#1_1" departPos="5.10" departSpeed="0.00" departDelay="0.00" arrival="57794.00" arrivalLane="315358242#0_1" arrivalPos="165.37" arrivalSpeed="14.57" duration="45.00" routeLength="448.50" waitingTime="0.00" waitingCount="0" stopTime="0.00" timeLoss="4.73" rerouteNo="1" devices="tripinfo_carIn107282:1 routing_carIn107282:1 emissions_carIn107282:1" vType="default_016" speedFactor="1.05" vaporized="">
        <emissions CO_abs="1697.784724" CO2_abs="108292.510528" HC_abs="10.221503" PMx_abs="1.795942" NOx_abs="43.405127" fuel_abs="46.550530" electricity_abs="0"/>
    </tripinfo>
    <tripinfo id="carIn86816:1" depart="57617.00" departLane="128361102#0_1" departPos="5.10" departSpeed="0.00" departDelay="0.80" arrival="57805.00" arrivalLane="201956811#0_1" arrivalPos="40.40" arrivalSpeed="13.27" duration="188.00" routeLength="2067.33" waitingTime="5.00" waitingCount="1" stopTime="0.00" timeLoss="32.16" rerouteNo="1" devices="tripinfo_carIn86816:1 routing_carIn86816:1 emissions_carIn86816:1" vType="default_016" speedFactor="0.97" vaporized="">
        <emissions CO_abs="6244.095589" CO2_abs="455341.747711" HC_abs="39.084819" PMx_abs="7.571641" NOx_abs="182.148864" fuel_abs="195.732114" electricity_abs="0"/>
    </tripinfo>
    <tripinfo id="carIn118591:1" depart="57689.00" departLane="315358244_1" departPos="5.10" departSpeed="0.00" departDelay="0.20" arrival="57807.00" arrivalLane="386687235_1" arrivalPos="80.84" arrivalSpeed="12.64" duration="118.00" routeLength="1186.14" waitingTime="9.00" waitingCount="2" stopTime="0.00" timeLoss="27.37" rerouteNo="1" devices="tripinfo_carIn118591:1 routing_carIn118591:1 emissions_carIn118591:1" vType="default_016" speedFactor="0.96" vaporized="">
        <emissions CO_abs="4053.092210" CO2_abs="279272.671020" HC_abs="24.976429" PMx_abs="4.605902" NOx_abs="111.460100" fuel_abs="120.047733" electricity_abs="0"/>
    </tripinfo>
    <tripinfo id="carIn129809:1" depart="57729.00" departLane="-447569998#1_1" departPos="5.10" departSpeed="0.00" departDelay="1.00" arrival="57811.00" arrivalLane="-315358244_2" arrivalPos="33.95" arrivalSpeed="14.83" duration="82.00" routeLength="706.49" waitingTime="9.00" waitingCount="1" stopTime="0.00" timeLoss="26.70" rerouteNo="1" devices="tripinfo_carIn129809:1 routing_carIn129809:1 emissions_carIn129809:1" vType="default_015" speedFactor="1.09" vaporized="">
        <emissions CO_abs="3974.864451" CO2_abs="203030.679948" HC_abs="22.854553" PMx_abs="3.667551" NOx_abs="83.534384" fuel_abs="87.274809" electricity_abs="0"/>
    </tripinfo>
    <tripinfo id="h16072c2:3" depart="57663.00" departLane="315358254#0_1" departPos="5.10" departSpeed="0.00" departDelay="2.50" arrival="57813.00" arrivalLane="386687235_1" arrivalPos="80.84" arrivalSpeed="15.58" duration="150.00" routeLength="1611.92" waitingTime="19.00" waitingCount="4" stopTime="0.00" timeLoss="48.37" rerouteNo="1" devices="tripinfo_h16072c2:3 routing_h16072c2:3 emissions_h16072c2:3" vType="default_016" speedFactor="1.16" vaporized="">
        <emissions CO_abs="6709.870389" CO2_abs="404009.658272" HC_abs="40.043119" PMx_abs="7.460315" NOx_abs="165.544000" fuel_abs="173.666566" electricity_abs="0"/>
    </tripinfo>
    <tripinfo id="h5216c1:1" depart="57664.00" departLane="224892339#0_1" departPos="5.10" departSpeed="0.00" departDelay="0.00" arrival="57813.00" arrivalLane="386687235_2" arrivalPos="80.84" arrivalSpeed="15.34" duration="149.00" routeLength="1823.78" waitingTime="7.00" waitingCount="2" stopTime="0.00" timeLoss="38.82" rerouteNo="1" devices="tripinfo_h5216c1:1 routing_h5216c1:1 emissions_h5216c1:1" vType="default_016" speedFactor="1.17" vaporized="">
        <emissions CO_abs="6481.361981" CO2_abs="466085.572473" HC_abs="40.446931" PMx_abs="8.544115" NOx_abs="189.747896" fuel_abs="200.349455" electricity_abs="0"/>
    </tripinfo>
    <tripinfo id="h645c1:1" depart="57622.00" departLane="266565295#5_1" departPos="5.10" departSpeed="0.00" departDelay="0.40" arrival="57815.00" arrivalLane="-315358244_1" arrivalPos="33.95" arrivalSpeed="11.26" duration="193.00" routeLength="1910.83" waitingTime="2.00" waitingCount="1" stopTime="0.00" timeLoss="22.01" rerouteNo="1" devices="tripinfo_h645c1:1 routing_h645c1:1 emissions_h645c1:1" vType="default_016" speedFactor="0.81" vaporized="">
        <emissions CO_abs="5040.667629" CO2_abs="366342.488162" HC_abs="31.366000" PMx_abs="5.331959" NOx_abs="142.404138" fuel_abs="157.476201" electricity_abs="0"/>
    </tripinfo>
    <tripinfo id="carIn81860:1" depart="57712.00" departLane="128361102#0_1" departPos="5.10" departSpeed="0.00" departDelay="0.60" arrival="57821.00" arrivalLane="-24634517#17_1" arrivalPos="6.43" arrivalSpeed="7.56" duration="109.00" routeLength="1229.64" waitingTime="0.00" waitingCount="0" stopTime="0.00" timeLoss="18.08" rerouteNo="1" devices="tripinfo_carIn81860:1 routing_carIn81860:1 emissions_carIn81860:1" vType="default_016" speedFactor="1.00" vaporized="">
        <emissions CO_abs="3680.571370" CO2_abs="271081.355429" HC_abs="23.084229" PMx_abs="4.444435" NOx_abs="107.811527" fuel_abs="116.526469" electricity_abs="0"/>
    </tripinfo>
    <tripinfo id="carIn50326:1" depart="57651.00" departLane="128361102#0_1" departPos="5.10" departSpeed="0.00" departDelay="0.30" arrival="57824.00" arrivalLane="18809673#0_1" arrivalPos="473.56" arrivalSpeed="12.86" duration="173.00" routeLength="1591.07" waitingTime="19.00" waitingCount="1" stopTime="0.00" timeLoss="41.20" rerouteNo="1" devices="tripinfo_carIn50326:1 routing_carIn50326:1 emissions_carIn50326:1" vType="default_016" speedFactor="0.99" vaporized="">
        <emissions CO_abs="7473.379509" CO2_abs="381021.468611" HC_abs="42.893443" PMx_abs="6.550230" NOx_abs="154.335827" fuel_abs="163.786515" electricity_abs="0"/>
    </tripinfo>
    <tripinfo id="carIn102915:1" depart="57643.00" departLane="128361102#0_1" departPos="5.10" departSpeed="0.00" departDelay="0.40" arrival="57831.00" arrivalLane="201956811#0_1" arrivalPos="40.40" arrivalSpeed="14.39" duration="188.00" routeLength="2067.33" waitingTime="27.00" waitingCount="1" stopTime="0.00" timeLoss="48.35" rerouteNo="1" devices="tripinfo_carIn102915:1 routing_carIn102915:1 emissions_carIn102915:1" vType="default_016" speedFactor="1.08" vaporized="">
        <emissions CO_abs="8911.941254" CO2_abs="494135.661138" HC_abs="52.115141" PMx_abs="8.807565" NOx_abs="200.140068" fuel_abs="212.409020" electricity_abs="0"/>
    </tripinfo>
    <tripinfo id="h11737c1:1" depart="57665.00" departLane="272042143_1" departPos="5.10" departSpeed="0.00" departDelay="1.50" arrival="57839.00" arrivalLane="-315358254#1_1" arrivalPos="137.16" arrivalSpeed="11.08" duration="174.00" routeLength="1596.88" waitingTime="18.00" waitingCount="1" stopTime="0.00" timeLoss="34.34" rerouteNo="1" devices="tripinfo_h11737c1:1 routing_h11737c1:1 emissions_h11737c1:1" vType="default_016" speedFactor="0.83" vaporized="">
        <emissions CO_abs="6356.726623" CO2_abs="345698.459951" HC_abs="36.930210" PMx_abs="5.524763" NOx_abs="137.604719" fuel_abs="148.602758" electricity_abs="0"/>
    </tripinfo>
    <tripinfo id="carIn126288:1" depart="57674.00" departLane="272042143_1" departPos="5.10" departSpeed="0.00" departDelay="0.00" arrival="57841.00" arrivalLane="-315358254#1_1" arrivalPos="137.16" arrivalSpeed="13.40" duration="167.00" routeLength="1596.88" waitingTime="15.00" waitingCount="1" stopTime="0.00" timeLoss="52.72" rerouteNo="1" devices="tripinfo_carIn126288:1 routing_carIn126288:1 emissions_carIn126288:1" vType="default_016" speedFactor="1.02" vaporized="">
        <emissions CO_abs="7208.253241" CO2_abs="399262.007978" HC_abs="42.156599" PMx_abs="6.978932" NOx_abs="162.680706" fuel_abs="171.626693" electricity_abs="0"/>
    </tripinfo>
    <tripinfo id="carIn8642:1" depart="57774.00" departLane="-447569998#1_1" departPos="5.10" departSpeed="0.00" departDelay="0.90" arrival="57842.00" arrivalLane="-315358244_1" arrivalPos="33.95" arrivalSpeed="15.49" duration="68.00" routeLength="706.49" waitingTime="4.00" waitingCount="1" stopTime="0.00" timeLoss="16.31" rerouteNo="1" devices="tripinfo_carIn8642:1 routing_carIn8642:1 emissions_carIn8642:1" vType="default_016" speedFactor="1.17" vaporized="">
        <emissions CO_abs="2702.271453" CO2_abs="172254.886776" HC_abs="16.392902" PMx_abs="3.221485" NOx_abs="71.278099" fuel_abs="74.044812" electricity_abs="0"/>
    </tripinfo>
    <tripinfo id="carIn12152:1" depart="57647.00" departLane="24599188#0.94_1" departPos="5.10" departSpeed="0.00" departDelay="0.50" arrival="57843.00" arrivalLane="-315358254#1_1" arrivalPos="137.16" arrivalSpeed="13.96" duration="196.00" routeLength="2034.31" waitingTime="21.00" waitingCount="2" stopTime="0.00" timeLoss="47.63" rerouteNo="1" devices="tripinfo_carIn12152:1 routing_carIn12152:1 emissions_carIn12152:1" vType="default_016" speedFactor="1.07" vaporized="">
        <emissions CO_abs="7589.400042" CO2_abs="445192.032630" HC_abs="44.877880" PMx_abs="7.541503" NOx_abs="178.121885" fuel_abs="191.370313" electricity_abs="0"/>
    </tripinfo>
    <tripinfo id="h17600c1:1" depart="57662.00" departLane="272042143_1" departPos="5.10" departSpeed="0.00" departDelay="0.30" arrival="57844.00" arrivalLane="201238729#3_1" arrivalPos="431.02" arrivalSpeed="11.69" duration="182.00" routeLength="2100.26" waitingTime="0.00" waitingCount="0" stopTime="0.00" timeLoss="14.89" rerouteNo="1" devices="tripinfo_h17600c1:1 routing_h17600c1:1 emissions_h17600c1:1" vType="default_016" speedFactor="0.91" vaporized="">
        <emissions CO_abs="4082.366552" CO2_abs="370066.589692" HC_abs="27.120912" PMx_abs="5.286216" NOx_abs="141.789035" fuel_abs="159.076482" electricity_abs="0"/>
    </tripinfo>
    <tripinfo id="h3864c1:3" depart="57678.00" departLane="24693977#1_1" departPos="5.10" departSpeed="0.00" departDelay="0.00" arrival="57850.00" arrivalLane="201956820_1" arrivalPos="48.33" arrivalSpeed="13.35" duration="172.00" routeLength="1574.85" waitingTime="13.00" waitingCount="3" stopTime="0.00" timeLoss="45.94" rerouteNo="1" devices="tripinfo_h3864c1:3 routing_h3864c1:3 emissions_h3864c1:3" vType="default_016" speedFactor="1.03" vaporized="">
        <emissions CO_abs="7585.352163" CO2_abs="456052.599799" HC_abs="45.239235" PMx_abs="8.231292" NOx_abs="187.765925" fuel_abs="196.037702" electricity_abs="0"/>
    </tripinfo>
    <tripinfo id="h9953c2:3" depart="57682.00" departLane="-54169231#2_1" departPos="5.10" departSpeed="0.00" departDelay="0.00" arrival="57853.00" arrivalLane="386687235_1" arrivalPos="80.84" arrivalSpeed="14.79" duration="171.00" routeLength="1535.60" waitingTime="25.00" waitingCount="3" stopTime="0.00" timeLoss="59.45" rerouteNo="1" devices="tripinfo_h9953c2:3 routing_h9953c2:3 emissions_h9953c2:3" vType="default_016" speedFactor="1.13" vaporized="">
        <emissions CO_abs="8885.486688" CO2_abs="475680.129080" HC_abs="51.524250" PMx_abs="8.787803" NOx_abs="196.347515" fuel_abs="204.475332" electricity_abs="0"/>
    </tripinfo>
    <tripinfo id="randUni15030:1" depart="57735.00" departLane="386687232#0_1" departPos="5.10" departSpeed="0.00" departDelay="0.10" arrival="57853.00" arrivalLane="26677539_1" arrivalPos="151.98" arrivalSpeed="6.23" duration="118.00" routeLength="919.89" waitingTime="0.00" waitingCount="0" stopTime="0.00" timeLoss="13.64" rerouteNo="1" devices="tripinfo_randUni15030:1 routing_randUni15030:1 emissions_randUni15030:1" vType="random_016" speedFactor="0.80" vaporized="">
        <emissions CO_abs="4412.226934" CO2_abs="215448.030179" HC_abs="25.029916" PMx_abs="3.393540" NOx_abs="86.375567" fuel_abs="92.613364" electricity_abs="0"/>
    </tripinfo>
    <tripinfo id="carIn46110:1" depart="57684.00" departLane="315358244_1" departPos="5.10" departSpeed="0.00" departDelay="1.20" arrival="57854.00" arrivalLane="32978638#0_1" arrivalPos="49.29" arrivalSpeed="14.76" duration="170.00" routeLength="1764.04" waitingTime="28.00" waitingCount="3" stopTime="0.00" timeLoss="53.09" rerouteNo="1" devices="tripinfo_carIn46110:1 routing_carIn46110:1 emissions_carIn46110:1" vType="default_016" speedFactor="1.10" vaporized="">
        <emissions CO_abs="8446.658537" CO2_abs="452009.547825" HC_abs="49.029646" PMx_abs="8.235776" NOx_abs="184.420209" fuel_abs="194.300658" electricity_abs="0"/>
    </tripinfo>
    <tripinfo id="h11868c1:5" depart="57700.00" departLane="315358254#0_1" departPos="5.10" departSpeed="0.00" departDelay="0.10" arrival="57854.00" arrivalLane="386687235_2" arrivalPos="80.84" arrivalSpeed="12.68" duration="154.00" routeLength="1611.92" waitingTime="14.00" waitingCount="1" stopTime="0.00" timeLoss="33.13" rerouteNo="1" devices="tripinfo_h11868c1:5 routing_h11868c1:5 emissions_h11868c1:5" vType="default_016" speedFactor="0.98" vaporized="">
        <emissions CO_abs="6141.493159" CO2_abs="383407.038575" HC_abs="36.882012" PMx_abs="6.276917" NOx_abs="152.248211" fuel_abs="164.811387" electricity_abs="0"/>
    </tripinfo>
    <tripinfo id="h6541c1:3" depart="57727.00" departLane="201950247#3_1" departPos="5.10" departSpeed="0.00" departDelay="0.00" arrival="57857.00" arrivalLane="32978638#0_2" arrivalPos="49.29" arrivalSpeed="13.32" duration="130.00" routeLength="1180.49" waitingTime="5.00" waitingCount="1" stopTime="0.00" timeLoss="24.34" rerouteNo="1" devices="tripinfo_h6541c1:3 routing_h6541c1:3 emissions_h6541c1:3" vType="default_016" speedFactor="0.97" vaporized="">
        <emissions CO_abs="4937.307437" CO2_abs="299916.105222" HC_abs="29.463009" PMx_abs="4.999175" NOx_abs="120.966722" fuel_abs="128.921811" electricity_abs="0"/>
    </tripinfo>