<?xml version="1.0" encoding="UTF-8"?>

<!-- generated on 2021-10-26 19:04:12 by Eclipse SUMO sumo Version 1.10.0
<configuration xmlns:xsi="http://www.w3.org/2001/XMLSchema-instance" xsi:noNamespaceSchemaLocation="http://sumo.dlr.de/xsd/sumoConfiguration.xsd">

    <input>
        <net-file value="/Users/behradkoohy/sumo-scratchpad/RESCO/environments/ingolstadt21/ingolstadt21.net.xml"/>
        <route-files value="/Users/behradkoohy/sumo-scratchpad/RESCO/environments/ingolstadt21/ingolstadt21.rou.xml"/>
    </input>

    <output>
        <tripinfo-output value="/Users/behradkoohy/sumo-scratchpad/RESCO/logs/MPLight-tr0-ingolstadt21-21-mplight-pressure/tripinfo_10.xml"/>
        <tripinfo-output.write-unfinished value="true"/>
    </output>

    <time>
        <begin value="57600"/>
        <end value="61200"/>
    </time>

    <processing>
        <time-to-teleport value="-1"/>
    </processing>

    <report>
        <no-warnings value="true"/>
        <no-step-log value="true"/>
    </report>

    <emissions>
        <device.emissions.probability value="1"/>
    </emissions>

    <traci_server>
        <remote-port value="62868"/>
    </traci_server>

    <random_number>
        <random value="true"/>
    </random_number>

</configuration>
-->

<tripinfos xmlns:xsi="http://www.w3.org/2001/XMLSchema-instance" xsi:noNamespaceSchemaLocation="http://sumo.dlr.de/xsd/tripinfo_file.xsd">
    <tripinfo id="h15454c2:3" depart="57612.00" departLane="24608844_1" departPos="5.10" departSpeed="0.00" departDelay="0.50" arrival="57650.00" arrivalLane="32978638#0_1" arrivalPos="49.29" arrivalSpeed="14.00" duration="38.00" routeLength="354.79" waitingTime="0.00" waitingCount="0" stopTime="0.00" timeLoss="4.67" rerouteNo="1" devices="tripinfo_h15454c2:3 routing_h15454c2:3 emissions_h15454c2:3" vType="default_016" speedFactor="1.04" vaporized="">
        <emissions CO_abs="1617.494296" CO2_abs="98251.986645" HC_abs="9.651831" PMx_abs="1.635412" NOx_abs="39.609530" fuel_abs="42.234562" electricity_abs="0"/>
    </tripinfo>
    <tripinfo id="carIn53971:1" depart="57640.00" departLane="272042143_1" departPos="5.10" departSpeed="0.00" departDelay="0.80" arrival="57692.00" arrivalLane="24634414#1_1" arrivalPos="162.19" arrivalSpeed="8.09" duration="52.00" routeLength="493.04" waitingTime="0.00" waitingCount="0" stopTime="0.00" timeLoss="7.81" rerouteNo="1" devices="tripinfo_carIn53971:1 routing_carIn53971:1 emissions_carIn53971:1" vType="default_016" speedFactor="1.05" vaporized="">
        <emissions CO_abs="2378.352506" CO2_abs="143358.716557" HC_abs="14.161937" PMx_abs="2.517405" NOx_abs="58.694392" fuel_abs="61.623928" electricity_abs="0"/>
    </tripinfo>
    <tripinfo id="carIn60260:1" depart="57606.00" departLane="315358254#0_1" departPos="5.10" departSpeed="0.00" departDelay="0.90" arrival="57705.00" arrivalLane="399835085#1_1" arrivalPos="212.23" arrivalSpeed="6.94" duration="99.00" routeLength="430.98" waitingTime="42.00" waitingCount="1" stopTime="0.00" timeLoss="56.54" rerouteNo="1" devices="tripinfo_carIn60260:1 routing_carIn60260:1 emissions_carIn60260:1" vType="default_016" speedFactor="1.09" vaporized="">
        <emissions CO_abs="9104.429529" CO2_abs="239771.435333" HC_abs="47.064539" PMx_abs="5.003860" NOx_abs="103.881800" fuel_abs="103.070853" electricity_abs="0"/>
    </tripinfo>
    <tripinfo id="h3688c1:1" depart="57625.00" departLane="201201950#1_1" departPos="5.10" departSpeed="0.00" departDelay="0.00" arrival="57706.00" arrivalLane="32978638#0_1" arrivalPos="49.29" arrivalSpeed="14.51" duration="81.00" routeLength="1089.75" waitingTime="0.00" waitingCount="0" stopTime="0.00" timeLoss="10.72" rerouteNo="1" devices="tripinfo_h3688c1:1 routing_h3688c1:1 emissions_h3688c1:1" vType="default_016" speedFactor="1.13" vaporized="">
        <emissions CO_abs="3189.727313" CO2_abs="258032.195478" HC_abs="20.555267" PMx_abs="4.531126" NOx_abs="103.794532" fuel_abs="110.916524" electricity_abs="0"/>
    </tripinfo>
    <tripinfo id="h7800c1:5" depart="57696.00" departLane="-447569998#1_1" departPos="5.10" departSpeed="0.00" departDelay="0.00" arrival="57725.00" arrivalLane="-447569998#1_2" arrivalPos="180.76" arrivalSpeed="4.42" duration="29.00" routeLength="175.66" waitingTime="4.00" waitingCount="1" stopTime="0.00" timeLoss="10.56" rerouteNo="1" devices="tripinfo_h7800c1:5 routing_h7800c1:5 emissions_h7800c1:5" vType="default_016" speedFactor="1.16" vaporized="">
        <emissions CO_abs="1330.954058" CO2_abs="62072.523083" HC_abs="7.490085" PMx_abs="1.025246" NOx_abs="25.237917" fuel_abs="26.682720" electricity_abs="0"/>
    </tripinfo>
    <tripinfo id="carIn80064:1" depart="57603.00" departLane="128361109#1_1" departPos="5.10" departSpeed="0.00" departDelay="0.40" arrival="57728.00" arrivalLane="-315358254#1_1" arrivalPos="137.16" arrivalSpeed="14.71" duration="125.00" routeLength="1587.97" waitingTime="19.00" waitingCount="1" stopTime="0.00" timeLoss="47.30" rerouteNo="1" devices="tripinfo_carIn80064:1 routing_carIn80064:1 emissions_carIn80064:1" vType="default_016" speedFactor="1.15" vaporized="">
        <emissions CO_abs="9651.280391" CO2_abs="532448.220003" HC_abs="56.777057" PMx_abs="11.153793" NOx_abs="224.858188" fuel_abs="228.875718" electricity_abs="0"/>
    </tripinfo>
    <tripinfo id="h7181c1:1" depart="57660.00" departLane="315358254#0_1" departPos="5.10" departSpeed="0.00" departDelay="0.10" arrival="57732.00" arrivalLane="306240162#0_0" arrivalPos="220.43" arrivalSpeed="16.18" duration="72.00" routeLength="932.35" waitingTime="7.00" waitingCount="1" stopTime="0.00" timeLoss="19.31" rerouteNo="1" devices="tripinfo_h7181c1:1 routing_h7181c1:1 emissions_h7181c1:1" vType="default_016" speedFactor="0.98" vaporized="">
        <emissions CO_abs="3692.046574" CO2_abs="239202.141544" HC_abs="22.488014" PMx_abs="4.589092" NOx_abs="97.803646" fuel_abs="102.822459" electricity_abs="0"/>
    </tripinfo>
    <tripinfo id="carIn22761:1" depart="57616.00" departLane="-306240162#1_0" departPos="5.10" departSpeed="0.00" departDelay="2.10" arrival="57737.00" arrivalLane="399835085#1_1" arrivalPos="212.23" arrivalSpeed="7.36" duration="121.00" routeLength="1093.26" waitingTime="19.00" waitingCount="2" stopTime="0.00" timeLoss="38.64" rerouteNo="1" devices="tripinfo_carIn22761:1 routing_carIn22761:1 emissions_carIn22761:1" vType="default_016" speedFactor="0.95" vaporized="">
        <emissions CO_abs="6222.539001" CO2_abs="309851.784868" HC_abs="35.675986" PMx_abs="5.898826" NOx_abs="128.254190" fuel_abs="133.192749" electricity_abs="0"/>
    </tripinfo>
    <tripinfo id="h4538c1:1" depart="57701.00" departLane="-10427692#1_1" departPos="5.10" departSpeed="0.00" departDelay="0.00" arrival="57739.00" arrivalLane="-128361102#1_1" arrivalPos="274.68" arrivalSpeed="13.64" duration="38.00" routeLength="440.74" waitingTime="0.00" waitingCount="0" stopTime="0.00" timeLoss="5.86" rerouteNo="1" devices="tripinfo_h4538c1:1 routing_h4538c1:1 emissions_h4538c1:1" vType="default_016" speedFactor="1.01" vaporized="">
        <emissions CO_abs="1469.533160" CO2_abs="113949.177660" HC_abs="9.352702" PMx_abs="1.857155" NOx_abs="45.144952" fuel_abs="48.981918" electricity_abs="0"/>
    </tripinfo>
    <tripinfo id="h9563c2:5" depart="57631.00" departLane="315358244_1" departPos="5.10" departSpeed="0.00" departDelay="0.70" arrival="57746.00" arrivalLane="386687235_1" arrivalPos="80.84" arrivalSpeed="13.96" duration="115.00" routeLength="1186.14" waitingTime="11.00" waitingCount="1" stopTime="0.00" timeLoss="33.51" rerouteNo="1" devices="tripinfo_h9563c2:5 routing_h9563c2:5 emissions_h9563c2:5" vType="default_016" speedFactor="1.07" vaporized="">
        <emissions CO_abs="4832.713931" CO2_abs="281228.408505" HC_abs="28.604997" PMx_abs="5.066579" NOx_abs="114.833072" fuel_abs="120.888424" electricity_abs="0"/>
    </tripinfo>
    <tripinfo id="h317c2:1" depart="57707.00" departLane="-32978638#0_1" departPos="5.10" departSpeed="0.00" departDelay="0.10" arrival="57755.00" arrivalLane="-266565295#5_1" arrivalPos="172.76" arrivalSpeed="14.18" duration="48.00" routeLength="370.53" waitingTime="12.00" waitingCount="1" stopTime="0.00" timeLoss="21.42" rerouteNo="1" devices="tripinfo_h317c2:1 routing_h317c2:1 emissions_h317c2:1" vType="default_016" speedFactor="1.04" vaporized="">
        <emissions CO_abs="3316.883752" CO2_abs="149412.009274" HC_abs="18.592115" PMx_abs="2.788559" NOx_abs="61.912083" fuel_abs="64.226486" electricity_abs="0"/>
    </tripinfo>
    <tripinfo id="carIn30817:1" depart="57681.00" departLane="315358244_1" departPos="5.10" departSpeed="0.00" departDelay="0.20" arrival="57763.00" arrivalLane="447569997#1_1" arrivalPos="180.93" arrivalSpeed="7.60" duration="82.00" routeLength="718.04" waitingTime="4.00" waitingCount="1" stopTime="0.00" timeLoss="16.70" rerouteNo="1" devices="tripinfo_carIn30817:1 routing_carIn30817:1 emissions_carIn30817:1" vType="default_016" speedFactor="0.95" vaporized="">
        <emissions CO_abs="3050.871795" CO2_abs="172864.967795" HC_abs="17.894070" PMx_abs="2.806855" NOx_abs="69.313252" fuel_abs="74.307945" electricity_abs="0"/>
    </tripinfo>
    <tripinfo id="h3326c1:2" depart="57656.00" departLane="22716069#0_1" departPos="5.10" departSpeed="0.00" departDelay="0.00" arrival="57765.00" arrivalLane="24634517#13_1" arrivalPos="111.62" arrivalSpeed="14.08" duration="109.00" routeLength="1312.81" waitingTime="0.00" waitingCount="0" stopTime="0.00" timeLoss="14.85" rerouteNo="1" devices="tripinfo_h3326c1:2 routing_h3326c1:2 emissions_h3326c1:2" vType="default_016" speedFactor="1.04" vaporized="">
        <emissions CO_abs="4197.849930" CO2_abs="321736.564256" HC_abs="26.696752" PMx_abs="5.564692" NOx_abs="129.720540" fuel_abs="138.300437" electricity_abs="0"/>
    </tripinfo>
    <tripinfo id="h5979c1:5" depart="57669.00" departLane="399835085#1_1" departPos="5.10" departSpeed="0.00" departDelay="0.00" arrival="57765.00" arrivalLane="-315358254#1_1" arrivalPos="137.16" arrivalSpeed="15.64" duration="96.00" routeLength="659.33" waitingTime="0.00" waitingCount="0" stopTime="0.00" timeLoss="31.71" rerouteNo="1" devices="tripinfo_h5979c1:5 routing_h5979c1:5 emissions_h5979c1:5" vType="default_016" speedFactor="1.13" vaporized="">
        <emissions CO_abs="4554.141902" CO2_abs="204449.339036" HC_abs="25.493626" PMx_abs="3.647901" NOx_abs="84.837378" fuel_abs="87.885071" electricity_abs="0"/>
    </tripinfo>
    <tripinfo id="h330c1:1" depart="57736.00" departLane="-32978638#0_1" departPos="5.10" departSpeed="0.00" departDelay="0.20" arrival="57771.00" arrivalLane="-266565295#5_1" arrivalPos="172.76" arrivalSpeed="11.87" duration="35.00" routeLength="370.53" waitingTime="0.00" waitingCount="0" stopTime="0.00" timeLoss="5.46" rerouteNo="1" devices="tripinfo_h330c1:1 routing_h330c1:1 emissions_h330c1:1" vType="default_016" speedFactor="0.94" vaporized="">
        <emissions CO_abs="1580.974779" CO2_abs="103953.929558" HC_abs="9.623031" PMx_abs="1.746148" NOx_abs="41.845800" fuel_abs="44.685477" electricity_abs="0"/>
    </tripinfo>
    <tripinfo id="carIn121703:1" depart="57647.00" departLane="386687232#0_1" departPos="5.10" departSpeed="0.00" departDelay="0.30" arrival="57779.00" arrivalLane="-315358244_1" arrivalPos="33.95" arrivalSpeed="12.14" duration="132.00" routeLength="1157.39" waitingTime="23.00" waitingCount="1" stopTime="0.00" timeLoss="35.80" rerouteNo="1" devices="tripinfo_carIn121703:1 routing_carIn121703:1 emissions_carIn121703:1" vType="default_016" speedFactor="0.88" vaporized="">
        <emissions CO_abs="6518.548117" CO2_abs="294603.697130" HC_abs="36.530027" PMx_abs="5.091505" NOx_abs="119.552844" fuel_abs="126.639419" electricity_abs="0"/>
    </tripinfo>
    <tripinfo id="h3154c1:1" depart="57658.00" departLane="24634507_1" departPos="5.10" departSpeed="0.00" departDelay="0.00" arrival="57783.00" arrivalLane="-266565295#5_1" arrivalPos="172.76" arrivalSpeed="16.28" duration="125.00" routeLength="1206.22" waitingTime="27.00" waitingCount="2" stopTime="0.00" timeLoss="50.14" rerouteNo="1" devices="tripinfo_h3154c1:1 routing_h3154c1:1 emissions_h3154c1:1" vType="default_016" speedFactor="1.19" vaporized="">
        <emissions CO_abs="8463.894936" CO2_abs="397824.850132" HC_abs="47.845454" PMx_abs="7.834198" NOx_abs="166.682963" fuel_abs="171.008756" electricity_abs="0"/>
    </tripinfo>
    <tripinfo id="h12244c1:3" depart="57612.00" departLane="315358244_1" departPos="5.10" departSpeed="0.00" departDelay="0.40" arrival="57792.00" arrivalLane="386687235_1" arrivalPos="80.84" arrivalSpeed="12.19" duration="180.00" routeLength="1186.14" waitingTime="64.00" waitingCount="3" stopTime="0.00" timeLoss="82.44" rerouteNo="1" devices="tripinfo_h12244c1:3 routing_h12244c1:3 emissions_h12244c1:3" vType="default_016" speedFactor="0.88" vaporized="">
        <emissions CO_abs="12398.724534" CO2_abs="391394.751786" HC_abs="65.575863" PMx_abs="7.492160" NOx_abs="163.893928" fuel_abs="168.248424" electricity_abs="0"/>
    </tripinfo>
    <tripinfo id="carIn48184:1" depart="57613.00" departLane="-306240162#1_0" departPos="5.10" departSpeed="0.00" departDelay="0.70" arrival="57794.00" arrivalLane="386687235_1" arrivalPos="80.84" arrivalSpeed="13.85" duration="181.00" routeLength="2257.41" waitingTime="7.00" waitingCount="2" stopTime="0.00" timeLoss="38.99" rerouteNo="1" devices="tripinfo_carIn48184:1 routing_carIn48184:1 emissions_carIn48184:1" vType="default_016" speedFactor="1.05" vaporized="">
        <emissions CO_abs="7588.315957" CO2_abs="566659.181336" HC_abs="48.031597" PMx_abs="10.447483" NOx_abs="230.835614" fuel_abs="243.581291" electricity_abs="0"/>
    </tripinfo>
    <tripinfo id="h3568c1:3" depart="57656.00" departLane="266565295#5_1" departPos="5.10" departSpeed="0.00" departDelay="0.80" arrival="57794.00" arrivalLane="-24634415_1" arrivalPos="62.03" arrivalSpeed="14.00" duration="138.00" routeLength="807.40" waitingTime="58.00" waitingCount="1" stopTime="0.00" timeLoss="75.30" rerouteNo="1" devices="tripinfo_h3568c1:3 routing_h3568c1:3 emissions_h3568c1:3" vType="default_016" speedFactor="1.02" vaporized="">
        <emissions CO_abs="12630.881261" CO2_abs="371873.287242" HC_abs="66.256108" PMx_abs="7.735491" NOx_abs="160.031323" fuel_abs="159.856503" electricity_abs="0"/>
    </tripinfo>
    <tripinfo id="carIn27009:1" depart="57673.00" departLane="-447569998#1_1" departPos="5.10" departSpeed="0.00" departDelay="0.50" arrival="57800.00" arrivalLane="-26677539_1" arrivalPos="152.75" arrivalSpeed="6.86" duration="127.00" routeLength="699.63" waitingTime="22.00" waitingCount="1" stopTime="0.00" timeLoss="35.75" rerouteNo="1" devices="tripinfo_carIn27009:1 routing_carIn27009:1 emissions_carIn27009:1" vType="default_015" speedFactor="0.92" vaporized="">
        <emissions CO_abs="7103.946207" CO2_abs="238271.672214" HC_abs="37.815022" PMx_abs="4.167372" NOx_abs="98.648287" fuel_abs="102.425651" electricity_abs="0"/>
    </tripinfo>
    <tripinfo id="h645c1:1" depart="57622.00" departLane="266565295#5_1" departPos="5.10" departSpeed="0.00" departDelay="0.40" arrival="57803.00" arrivalLane="-315358244_1" arrivalPos="33.95" arrivalSpeed="11.99" duration="181.00" routeLength="1910.83" waitingTime="6.00" waitingCount="1" stopTime="0.00" timeLoss="26.17" rerouteNo="1" devices="tripinfo_h645c1:1 routing_h645c1:1 emissions_h645c1:1" vType="default_016" speedFactor="0.89" vaporized="">
        <emissions CO_abs="5277.466833" CO2_abs="386576.448321" HC_abs="33.003216" PMx_abs="6.057706" NOx_abs="152.408195" fuel_abs="166.173356" electricity_abs="0"/>
    </tripinfo>
    <tripinfo id="carIn107282:1" depart="57749.00" departLane="-447569998#1_1" departPos="5.10" departSpeed="0.00" departDelay="0.00" arrival="57804.00" arrivalLane="315358242#0_1" arrivalPos="165.37" arrivalSpeed="14.29" duration="55.00" routeLength="448.50" waitingTime="9.00" waitingCount="1" stopTime="0.00" timeLoss="15.78" rerouteNo="1" devices="tripinfo_carIn107282:1 routing_carIn107282:1 emissions_carIn107282:1" vType="default_016" speedFactor="1.06" vaporized="">
        <emissions CO_abs="2500.084070" CO2_abs="129951.638921" HC_abs="14.422295" PMx_abs="2.288367" NOx_abs="53.151098" fuel_abs="55.861084" electricity_abs="0"/>
    </tripinfo>
    <tripinfo id="h11737c1:1" depart="57665.00" departLane="272042143_1" departPos="5.10" departSpeed="0.00" departDelay="1.50" arrival="57807.00" arrivalLane="-315358254#1_1" arrivalPos="137.16" arrivalSpeed="12.57" duration="142.00" routeLength="1596.88" waitingTime="1.00" waitingCount="1" stopTime="0.00" timeLoss="17.22" rerouteNo="1" devices="tripinfo_h11737c1:1 routing_h11737c1:1 emissions_h11737c1:1" vType="default_016" speedFactor="0.94" vaporized="">
        <emissions CO_abs="4432.617757" CO2_abs="343678.056182" HC_abs="28.175566" PMx_abs="5.419408" NOx_abs="135.357176" fuel_abs="147.732860" electricity_abs="0"/>
    </tripinfo>
    <tripinfo id="carIn12858:1" depart="57661.00" departLane="128361109#1_1" departPos="5.10" departSpeed="0.00" departDelay="0.90" arrival="57822.00" arrivalLane="399835085#1_1" arrivalPos="212.23" arrivalSpeed="7.84" duration="161.00" routeLength="1738.12" waitingTime="16.00" waitingCount="2" stopTime="0.00" timeLoss="51.26" rerouteNo="1" devices="tripinfo_carIn12858:1 routing_carIn12858:1 emissions_carIn12858:1" vType="default_016" speedFactor="1.05" vaporized="">
        <emissions CO_abs="9627.219817" CO2_abs="546286.518342" HC_abs="56.825175" PMx_abs="10.626462" NOx_abs="226.398113" fuel_abs="234.825094" electricity_abs="0"/>
    </tripinfo>
    <tripinfo id="carIn86816:1" depart="57617.00" departLane="128361102#0_1" departPos="5.10" departSpeed="0.00" departDelay="0.80" arrival="57824.00" arrivalLane="201956811#0_1" arrivalPos="40.40" arrivalSpeed="10.59" duration="207.00" routeLength="2067.33" waitingTime="34.00" waitingCount="2" stopTime="0.00" timeLoss="60.01" rerouteNo="1" devices="tripinfo_carIn86816:1 routing_carIn86816:1 emissions_carIn86816:1" vType="default_016" speedFactor="1.03" vaporized="">
        <emissions CO_abs="10261.442275" CO2_abs="543511.956583" HC_abs="59.428630" PMx_abs="9.643524" NOx_abs="220.740726" fuel_abs="233.634278" electricity_abs="0"/>
    </tripinfo>
    <tripinfo id="carIn102915:1" depart="57643.00" departLane="128361102#0_1" departPos="5.10" departSpeed="0.00" departDelay="0.40" arrival="57826.00" arrivalLane="201956811#0_1" arrivalPos="40.40" arrivalSpeed="12.28" duration="183.00" routeLength="2067.33" waitingTime="10.00" waitingCount="1" stopTime="0.00" timeLoss="53.87" rerouteNo="1" devices="tripinfo_carIn102915:1 routing_carIn102915:1 emissions_carIn102915:1" vType="default_016" speedFactor="1.18" vaporized="">
        <emissions CO_abs="7433.056524" CO2_abs="504208.995232" HC_abs="45.520033" PMx_abs="8.936688" NOx_abs="204.550789" fuel_abs="216.737704" electricity_abs="0"/>
    </tripinfo>
    <tripinfo id="randUni33724:1" depart="57646.00" departLane="128361102#0_1" departPos="5.10" departSpeed="0.00" departDelay="1.20" arrival="57828.00" arrivalLane="201956811#0_1" arrivalPos="40.40" arrivalSpeed="13.38" duration="182.00" routeLength="2067.33" waitingTime="2.00" waitingCount="1" stopTime="0.00" timeLoss="25.95" rerouteNo="1" devices="tripinfo_randUni33724:1 routing_randUni33724:1 emissions_randUni33724:1" vType="random_016" speedFactor="0.97" vaporized="">
        <emissions CO_abs="5722.890374" CO2_abs="423395.324111" HC_abs="35.910707" PMx_abs="6.885334" NOx_abs="168.039431" fuel_abs="181.999895" electricity_abs="0"/>
    </tripinfo>
    <tripinfo id="carIn129809:1" depart="57729.00" departLane="-447569998#1_1" departPos="5.10" departSpeed="0.00" departDelay="1.00" arrival="57832.00" arrivalLane="-315358244_1" arrivalPos="33.95" arrivalSpeed="11.44" duration="103.00" routeLength="706.49" waitingTime="26.00" waitingCount="1" stopTime="0.00" timeLoss="36.10" rerouteNo="1" devices="tripinfo_carIn129809:1 routing_carIn129809:1 emissions_carIn129809:1" vType="default_015" speedFactor="0.90" vaporized="">
        <emissions CO_abs="5929.735597" CO2_abs="206175.756372" HC_abs="31.770949" PMx_abs="3.689686" NOx_abs="84.818259" fuel_abs="88.628405" electricity_abs="0"/>
    </tripinfo>
    <tripinfo id="carIn12152:1" depart="57647.00" departLane="24599188#0.94_1" departPos="5.10" departSpeed="0.00" departDelay="0.50" arrival="57836.00" arrivalLane="-315358254#1_1" arrivalPos="137.16" arrivalSpeed="13.60" duration="189.00" routeLength="2034.31" waitingTime="14.00" waitingCount="2" stopTime="0.00" timeLoss="38.17" rerouteNo="1" devices="tripinfo_carIn12152:1 routing_carIn12152:1 emissions_carIn12152:1" vType="default_016" speedFactor="1.05" vaporized="">
        <emissions CO_abs="6893.172992" CO2_abs="465663.250042" HC_abs="42.129081" PMx_abs="7.719725" NOx_abs="185.002099" fuel_abs="200.169449" electricity_abs="0"/>
    </tripinfo>
    <tripinfo id="S5R_frequency1.2" depart="57657.00" departLane="315358250#0_1" departPos="12.10" departSpeed="0.00" departDelay="45.40" arrival="57837.00" arrivalLane="386687235_1" arrivalPos="80.84" arrivalSpeed="13.01" duration="180.00" routeLength="1115.62" waitingTime="67.00" waitingCount="4" stopTime="0.00" timeLoss="98.83" rerouteNo="1" devices="tripinfo_S5R_frequency1.2 routing_S5R_frequency1.2 emissions_S5R_frequency1.2" vType="bus" speedFactor="1.00" vaporized="">
        <emissions CO_abs="3101.641787" CO2_abs="1569047.192311" HC_abs="676.280834" PMx_abs="324.031221" NOx_abs="13189.548151" fuel_abs="669.055709" electricity_abs="0"/>
    </tripinfo>
    <tripinfo id="carIn118591:1" depart="57689.00" departLane="315358244_1" departPos="5.10" departSpeed="0.00" departDelay="0.20" arrival="57839.00" arrivalLane="386687235_1" arrivalPos="80.84" arrivalSpeed="14.95" duration="150.00" routeLength="1186.14" waitingTime="44.00" waitingCount="3" stopTime="0.00" timeLoss="70.18" rerouteNo="1" devices="tripinfo_carIn118591:1 routing_carIn118591:1 emissions_carIn118591:1" vType="default_016" speedFactor="1.08" vaporized="">
        <emissions CO_abs="9158.154599" CO2_abs="367453.033531" HC_abs="50.288199" PMx_abs="6.915358" NOx_abs="151.996586" fuel_abs="157.954789" electricity_abs="0"/>
    </tripinfo>
    <tripinfo id="randUni15030:1" depart="57735.00" departLane="386687232#0_1" departPos="5.10" departSpeed="0.00" departDelay="0.10" arrival="57843.00" arrivalLane="26677539_1" arrivalPos="151.98" arrivalSpeed="7.84" duration="108.00" routeLength="919.89" waitingTime="15.00" waitingCount="1" stopTime="0.00" timeLoss="30.06" rerouteNo="1" devices="tripinfo_randUni15030:1 routing_randUni15030:1 emissions_randUni15030:1" vType="random_016" speedFactor="1.07" vaporized="">
        <emissions CO_abs="5728.318855" CO2_abs="256381.433691" HC_abs="32.045337" PMx_abs="4.648497" NOx_abs="105.724761" fuel_abs="110.208737" electricity_abs="0"/>
    </tripinfo>
    <tripinfo id="carIn8642:1" depart="57774.00" departLane="-447569998#1_1" departPos="5.10" departSpeed="0.00" departDelay="0.90" arrival="57843.00" arrivalLane="-315358244_1" arrivalPos="33.95" arrivalSpeed="13.61" duration="69.00" routeLength="706.49" waitingTime="0.00" waitingCount="0" stopTime="0.00" timeLoss="11.04" rerouteNo="1" devices="tripinfo_carIn8642:1 routing_carIn8642:1 emissions_carIn8642:1" vType="default_016" speedFactor="1.04" vaporized="">
        <emissions CO_abs="2554.474761" CO2_abs="168522.637434" HC_abs="15.529507" PMx_abs="2.810391" NOx_abs="67.446473" fuel_abs="72.440928" electricity_abs="0"/>
    </tripinfo>
    <tripinfo id="carIn126288:1" depart="57674.00" departLane="272042143_1" departPos="5.10" departSpeed="0.00" departDelay="0.00" arrival="57845.00" arrivalLane="-315358254#1_1" arrivalPos="137.16" arrivalSpeed="12.09" duration="171.00" routeLength="1596.88" waitingTime="30.00" waitingCount="1" stopTime="0.00" timeLoss="45.92" rerouteNo="1" devices="tripinfo_carIn126288:1 routing_carIn126288:1 emissions_carIn126288:1" vType="default_016" speedFactor="0.93" vaporized="">
        <emissions CO_abs="7670.341940" CO2_abs="378682.815474" HC_abs="43.719476" PMx_abs="6.331419" NOx_abs="151.642775" fuel_abs="162.781763" electricity_abs="0"/>
    </tripinfo>
    <tripinfo id="carIn81860:1" depart="57712.00" departLane="128361102#0_1" departPos="5.10" departSpeed="0.00" departDelay="0.60" arrival="57846.00" arrivalLane="-24634517#17_1" arrivalPos="6.43" arrivalSpeed="8.26" duration="134.00" routeLength="1229.64" waitingTime="27.00" waitingCount="1" stopTime="0.00" timeLoss="59.08" rerouteNo="1" devices="tripinfo_carIn81860:1 routing_carIn81860:1 emissions_carIn81860:1" vType="default_016" speedFactor="1.21" vaporized="">
        <emissions CO_abs="8455.542039" CO2_abs="381913.302954" HC_abs="47.381043" PMx_abs="7.363930" NOx_abs="158.924630" fuel_abs="164.169556" electricity_abs="0"/>
    </tripinfo>
    <tripinfo id="50R_frequency3.17" depart="57674.00" departLane="-18809673#6_1" departPos="12.10" departSpeed="0.00" departDelay="0.70" arrival="57848.00" arrivalLane="201956811#0_1" arrivalPos="40.40" arrivalSpeed="13.34" duration="174.00" routeLength="1954.47" waitingTime="5.00" waitingCount="1" stopTime="0.00" timeLoss="29.16" rerouteNo="1" devices="tripinfo_50R_frequency3.17 routing_50R_frequency3.17 emissions_50R_frequency3.17" vType="bus" speedFactor="1.00" vaporized="">
        <emissions CO_abs="3403.035715" CO2_abs="2133675.922932" HC_abs="722.601461" PMx_abs="365.175324" NOx_abs="16545.395099" fuel_abs="909.995047" electricity_abs="0"/>
    </tripinfo>
    <tripinfo id="carIn82220:1" depart="57619.00" departLane="-306240162#1_0" departPos="5.10" departSpeed="0.00" departDelay="3.50" arrival="57854.00" arrivalLane="386687235_1" arrivalPos="80.84" arrivalSpeed="12.50" duration="235.00" routeLength="2257.41" waitingTime="45.00" waitingCount="3" stopTime="0.00" timeLoss="76.53" rerouteNo="1" devices="tripinfo_carIn82220:1 routing_carIn82220:1 emissions_carIn82220:1" vType="default_016" speedFactor="0.93" vaporized="">
        <emissions CO_abs="12168.136906" CO2_abs="581389.181569" HC_abs="69.026808" PMx_abs="10.568452" NOx_abs="237.321430" fuel_abs="249.916879" electricity_abs="0"/>
    </tripinfo>
    <tripinfo id="h16072c2:3" depart="57663.00" departLane="315358254#0_1" departPos="5.10" departSpeed="0.00" departDelay="2.50" arrival="57854.00" arrivalLane="386687235_2" arrivalPos="80.84" arrivalSpeed="13.70" duration="191.00" routeLength="1611.92" waitingTime="42.00" waitingCount="3" stopTime="0.00" timeLoss="73.51" rerouteNo="1" devices="tripinfo_h16072c2:3 routing_h16072c2:3 emissions_h16072c2:3" vType="default_016" speedFactor="1.00" vaporized="">
        <emissions CO_abs="10890.757449" CO2_abs="471814.988738" HC_abs="60.641344" PMx_abs="8.734531" NOx_abs="194.911499" fuel_abs="202.815638" electricity_abs="0"/>
    </tripinfo>
    <tripinfo id="carIn462:1" depart="57622.00" departLane="-306240162#1_0" departPos="5.10" departSpeed="0.00" departDelay="4.80" arrival="57856.00" arrivalLane="386687235_1" arrivalPos="80.84" arrivalSpeed="14.34" duration="234.00" routeLength="2257.41" waitingTime="49.00" waitingCount="5" stopTime="0.00" timeLoss="92.52" rerouteNo="1" devices="tripinfo_carIn462:1 routing_carIn462:1 emissions_carIn462:1" vType="default_016" speedFactor="1.05" vaporized="">
        <emissions CO_abs="12902.950692" CO2_abs="633765.235994" HC_abs="73.691023" PMx_abs="12.082665" NOx_abs="262.147547" fuel_abs="272.430179" electricity_abs="0"/>
    </tripinfo>
    <tripinfo id="h5216c1:1" depart="57666.00" departLane="224892339#0_1" departPos="5.10" departSpeed="0.00" departDelay="2.00" arrival="57856.00" arrivalLane="386687235_2" arrivalPos="80.84" arrivalSpeed="13.24" duration="190.00" routeLength="1823.78" waitingTime="22.00" waitingCount="4" stopTime="0.00" timeLoss="62.48" rerouteNo="1" devices="tripinfo_h5216c1:1 routing_h5216c1:1 emissions_h5216c1:1" vType="default_016" speedFactor="1.01" vaporized="">
        <emissions CO_abs="8851.098276" CO2_abs="481657.909428" HC_abs="51.561222" PMx_abs="8.747593" NOx_abs="197.182666" fuel_abs="207.045121" electricity_abs="0"/>
    </tripinfo>
    <tripinfo id="carIn50326:1" depart="57651.00" departLane="128361102#0_1" departPos="5.10" departSpeed="0.00" departDelay="0.30" arrival="57858.00" arrivalLane="18809673#0_1" arrivalPos="473.56" arrivalSpeed="11.02" duration="207.00" routeLength="1591.07" waitingTime="33.00" waitingCount="2" stopTime="0.00" timeLoss="57.06" rerouteNo="1" devices="tripinfo_carIn50326:1 routing_carIn50326:1 emissions_carIn50326:1" vType="default_016" speedFactor="0.87" vaporized="">
        <emissions CO_abs="10386.913077" CO2_abs="421966.180454" HC_abs="57.074225" PMx_abs="7.375950" NOx_abs="172.753930" fuel_abs="181.388590" electricity_abs="0"/>
    </tripinfo>
    <tripinfo id="carIn85747:1" depart="57673.00" departLane="128361109#1_1" departPos="5.10" departSpeed="0.00" departDelay="0.70" arrival="57858.00" arrivalLane="386687235_1" arrivalPos="80.84" arrivalSpeed="14.42" duration="185.00" routeLength="2088.57" waitingTime="12.00" waitingCount="3" stopTime="0.00" timeLoss="43.12" rerouteNo="1" devices="tripinfo_carIn85747:1 routing_carIn85747:1 emissions_carIn85747:1" vType="default_016" speedFactor="1.06" vaporized="">
        <emissions CO_abs="6478.038594" CO2_abs="461408.798547" HC_abs="40.245098" PMx_abs="7.851417" NOx_abs="184.323755" fuel_abs="198.340066" electricity_abs="0"/>
    </tripinfo>
    <tripinfo id="carIn75660:1" depart="57679.00" departLane="128361109#1_1" departPos="5.10" departSpeed="0.00" departDelay="3.40" arrival="57858.00" arrivalLane="386687235_2" arrivalPos="80.84" arrivalSpeed="13.64" duration="179.00" routeLength="2088.57" waitingTime="10.00" waitingCount="2" stopTime="0.00" timeLoss="34.99" rerouteNo="1" devices="tripinfo_carIn75660:1 routing_carIn75660:1 emissions_carIn75660:1" vType="default_016" speedFactor="1.05" vaporized="">
        <emissions CO_abs="5895.516579" CO2_abs="440851.720167" HC_abs="37.081336" PMx_abs="7.267499" NOx_abs="174.311942" fuel_abs="189.503586" electricity_abs="0"/>
    </tripinfo>