<?xml version="1.0" encoding="UTF-8"?>

<!-- generated on 2021-10-26 20:26:45 by Eclipse SUMO sumo Version 1.10.0
<configuration xmlns:xsi="http://www.w3.org/2001/XMLSchema-instance" xsi:noNamespaceSchemaLocation="http://sumo.dlr.de/xsd/sumoConfiguration.xsd">

    <input>
        <net-file value="/Users/behradkoohy/sumo-scratchpad/RESCO/environments/ingolstadt21/ingolstadt21.net.xml"/>
        <route-files value="/Users/behradkoohy/sumo-scratchpad/RESCO/environments/ingolstadt21/ingolstadt21.rou.xml"/>
    </input>

    <output>
        <tripinfo-output value="/Users/behradkoohy/sumo-scratchpad/RESCO/logs/MPLight-tr0-ingolstadt21-21-mplight-pressure/tripinfo_92.xml"/>
        <tripinfo-output.write-unfinished value="true"/>
    </output>

    <time>
        <begin value="57600"/>
        <end value="61200"/>
    </time>

    <processing>
        <time-to-teleport value="-1"/>
    </processing>

    <report>
        <no-warnings value="true"/>
        <no-step-log value="true"/>
    </report>

    <emissions>
        <device.emissions.probability value="1"/>
    </emissions>

    <traci_server>
        <remote-port value="64290"/>
    </traci_server>

    <random_number>
        <random value="true"/>
    </random_number>

</configuration>
-->

<tripinfos xmlns:xsi="http://www.w3.org/2001/XMLSchema-instance" xsi:noNamespaceSchemaLocation="http://sumo.dlr.de/xsd/tripinfo_file.xsd">
    <tripinfo id="h15454c2:3" depart="57612.00" departLane="24608844_1" departPos="5.10" departSpeed="0.00" departDelay="0.50" arrival="57660.00" arrivalLane="32978638#0_1" arrivalPos="49.29" arrivalSpeed="12.33" duration="48.00" routeLength="354.79" waitingTime="2.00" waitingCount="1" stopTime="0.00" timeLoss="11.94" rerouteNo="1" devices="tripinfo_h15454c2:3 routing_h15454c2:3 emissions_h15454c2:3" vType="default_016" speedFactor="0.96" vaporized="">
        <emissions CO_abs="2367.061359" CO2_abs="117562.295540" HC_abs="13.514396" PMx_abs="2.054059" NOx_abs="48.389276" fuel_abs="50.535466" electricity_abs="0"/>
    </tripinfo>
    <tripinfo id="carIn60260:1" depart="57606.00" departLane="315358254#0_1" departPos="5.10" departSpeed="0.00" departDelay="0.90" arrival="57670.00" arrivalLane="399835085#1_1" arrivalPos="212.23" arrivalSpeed="8.35" duration="64.00" routeLength="430.98" waitingTime="11.00" waitingCount="1" stopTime="0.00" timeLoss="21.97" rerouteNo="1" devices="tripinfo_carIn60260:1 routing_carIn60260:1 emissions_carIn60260:1" vType="default_016" speedFactor="1.09" vaporized="">
        <emissions CO_abs="3478.251525" CO2_abs="142919.694727" HC_abs="19.138957" PMx_abs="2.534537" NOx_abs="58.998553" fuel_abs="61.436089" electricity_abs="0"/>
    </tripinfo>
    <tripinfo id="carIn53971:1" depart="57640.00" departLane="272042143_1" departPos="5.10" departSpeed="0.00" departDelay="0.80" arrival="57691.00" arrivalLane="24634414#1_1" arrivalPos="162.19" arrivalSpeed="8.14" duration="51.00" routeLength="493.04" waitingTime="0.00" waitingCount="0" stopTime="0.00" timeLoss="8.23" rerouteNo="1" devices="tripinfo_carIn53971:1 routing_carIn53971:1 emissions_carIn53971:1" vType="default_016" speedFactor="1.07" vaporized="">
        <emissions CO_abs="2250.812855" CO2_abs="133613.649629" HC_abs="13.379608" PMx_abs="2.391729" NOx_abs="55.021915" fuel_abs="57.434891" electricity_abs="0"/>
    </tripinfo>
    <tripinfo id="h12244c1:3" depart="57612.00" departLane="315358244_1" departPos="5.10" departSpeed="0.00" departDelay="0.40" arrival="57717.00" arrivalLane="386687235_1" arrivalPos="80.84" arrivalSpeed="13.60" duration="105.00" routeLength="1186.14" waitingTime="9.00" waitingCount="1" stopTime="0.00" timeLoss="23.00" rerouteNo="1" devices="tripinfo_h12244c1:3 routing_h12244c1:3 emissions_h12244c1:3" vType="default_016" speedFactor="1.06" vaporized="">
        <emissions CO_abs="3352.800825" CO2_abs="243908.087909" HC_abs="20.758205" PMx_abs="3.885228" NOx_abs="95.449586" fuel_abs="104.846083" electricity_abs="0"/>
    </tripinfo>
    <tripinfo id="h7800c1:5" depart="57696.00" departLane="-447569998#1_1" departPos="5.10" departSpeed="0.00" departDelay="0.00" arrival="57725.00" arrivalLane="-447569998#1_2" arrivalPos="180.76" arrivalSpeed="4.16" duration="29.00" routeLength="175.66" waitingTime="0.00" waitingCount="0" stopTime="0.00" timeLoss="6.35" rerouteNo="1" devices="tripinfo_h7800c1:5 routing_h7800c1:5 emissions_h7800c1:5" vType="default_016" speedFactor="0.94" vaporized="">
        <emissions CO_abs="1458.289480" CO2_abs="55704.801285" HC_abs="7.922518" PMx_abs="0.967327" NOx_abs="23.071973" fuel_abs="23.945610" electricity_abs="0"/>
    </tripinfo>
    <tripinfo id="S5R_frequency1.2" depart="57615.00" departLane="315358250#0_1" departPos="12.10" departSpeed="0.00" departDelay="3.40" arrival="57727.00" arrivalLane="386687235_1" arrivalPos="80.84" arrivalSpeed="13.76" duration="112.00" routeLength="1115.62" waitingTime="6.00" waitingCount="1" stopTime="0.00" timeLoss="30.72" rerouteNo="1" devices="tripinfo_S5R_frequency1.2 routing_S5R_frequency1.2 emissions_S5R_frequency1.2" vType="bus" speedFactor="1.00" vaporized="">
        <emissions CO_abs="2184.507397" CO2_abs="1325890.112981" HC_abs="465.346975" PMx_abs="233.354100" NOx_abs="10401.365429" fuel_abs="565.465373" electricity_abs="0"/>
    </tripinfo>
    <tripinfo id="carIn121703:1" depart="57647.00" departLane="386687232#0_1" departPos="5.10" departSpeed="0.00" departDelay="0.30" arrival="57728.00" arrivalLane="-315358244_1" arrivalPos="33.95" arrivalSpeed="16.06" duration="81.00" routeLength="1157.39" waitingTime="0.00" waitingCount="0" stopTime="0.00" timeLoss="8.81" rerouteNo="1" devices="tripinfo_carIn121703:1 routing_carIn121703:1 emissions_carIn121703:1" vType="default_016" speedFactor="1.18" vaporized="">
        <emissions CO_abs="2315.358544" CO2_abs="214941.660055" HC_abs="15.467581" PMx_abs="3.600952" NOx_abs="84.370556" fuel_abs="92.393882" electricity_abs="0"/>
    </tripinfo>
    <tripinfo id="h7181c1:1" depart="57660.00" departLane="315358254#0_1" departPos="5.10" departSpeed="0.00" departDelay="0.10" arrival="57731.00" arrivalLane="306240162#0_0" arrivalPos="220.43" arrivalSpeed="17.22" duration="71.00" routeLength="932.35" waitingTime="7.00" waitingCount="1" stopTime="0.00" timeLoss="21.82" rerouteNo="1" devices="tripinfo_h7181c1:1 routing_h7181c1:1 emissions_h7181c1:1" vType="default_016" speedFactor="1.05" vaporized="">
        <emissions CO_abs="3847.468227" CO2_abs="272273.362019" HC_abs="23.828870" PMx_abs="5.163086" NOx_abs="109.995163" fuel_abs="117.038175" electricity_abs="0"/>
    </tripinfo>
    <tripinfo id="h3568c1:3" depart="57656.00" departLane="266565295#5_1" departPos="5.10" departSpeed="0.00" departDelay="0.80" arrival="57741.00" arrivalLane="-24634415_1" arrivalPos="62.03" arrivalSpeed="11.26" duration="85.00" routeLength="807.40" waitingTime="0.00" waitingCount="0" stopTime="0.00" timeLoss="12.05" rerouteNo="1" devices="tripinfo_h3568c1:3 routing_h3568c1:3 emissions_h3568c1:3" vType="default_016" speedFactor="0.89" vaporized="">
        <emissions CO_abs="3266.405723" CO2_abs="189066.370094" HC_abs="19.282813" PMx_abs="3.232253" NOx_abs="76.940283" fuel_abs="81.271982" electricity_abs="0"/>
    </tripinfo>
    <tripinfo id="carIn30817:1" depart="57681.00" departLane="315358244_1" departPos="5.10" departSpeed="0.00" departDelay="0.20" arrival="57742.00" arrivalLane="447569997#1_1" arrivalPos="180.93" arrivalSpeed="8.24" duration="61.00" routeLength="718.04" waitingTime="0.00" waitingCount="0" stopTime="0.00" timeLoss="6.75" rerouteNo="1" devices="tripinfo_carIn30817:1 routing_carIn30817:1 emissions_carIn30817:1" vType="default_016" speedFactor="1.14" vaporized="">
        <emissions CO_abs="2049.197156" CO2_abs="156860.927835" HC_abs="12.953988" PMx_abs="2.548984" NOx_abs="61.880412" fuel_abs="67.427908" electricity_abs="0"/>
    </tripinfo>
    <tripinfo id="h4538c1:1" depart="57701.00" departLane="-10427692#1_1" departPos="5.10" departSpeed="0.00" departDelay="0.00" arrival="57743.00" arrivalLane="-128361102#1_1" arrivalPos="274.68" arrivalSpeed="12.30" duration="42.00" routeLength="440.74" waitingTime="0.00" waitingCount="0" stopTime="0.00" timeLoss="7.03" rerouteNo="1" devices="tripinfo_h4538c1:1 routing_h4538c1:1 emissions_h4538c1:1" vType="default_016" speedFactor="0.92" vaporized="">
        <emissions CO_abs="1699.953348" CO2_abs="111791.281222" HC_abs="10.349771" PMx_abs="1.866505" NOx_abs="44.974613" fuel_abs="48.054442" electricity_abs="0"/>
    </tripinfo>
    <tripinfo id="h3688c1:1" depart="57625.00" departLane="201201950#1_1" departPos="5.10" departSpeed="0.00" departDelay="0.00" arrival="57745.00" arrivalLane="32978638#0_1" arrivalPos="49.29" arrivalSpeed="11.71" duration="120.00" routeLength="1089.75" waitingTime="12.00" waitingCount="1" stopTime="0.00" timeLoss="27.94" rerouteNo="1" devices="tripinfo_h3688c1:1 routing_h3688c1:1 emissions_h3688c1:1" vType="default_016" speedFactor="0.87" vaporized="">
        <emissions CO_abs="4722.676945" CO2_abs="250330.252876" HC_abs="27.332779" PMx_abs="4.264393" NOx_abs="101.428818" fuel_abs="107.607246" electricity_abs="0"/>
    </tripinfo>
    <tripinfo id="carIn22761:1" depart="57616.00" departLane="-306240162#1_0" departPos="5.10" departSpeed="0.00" departDelay="2.10" arrival="57752.00" arrivalLane="399835085#1_1" arrivalPos="212.23" arrivalSpeed="8.66" duration="136.00" routeLength="1093.26" waitingTime="43.00" waitingCount="1" stopTime="0.00" timeLoss="62.15" rerouteNo="1" devices="tripinfo_carIn22761:1 routing_carIn22761:1 emissions_carIn22761:1" vType="default_016" speedFactor="1.05" vaporized="">
        <emissions CO_abs="10926.981943" CO2_abs="398668.275553" HC_abs="59.214561" PMx_abs="8.125611" NOx_abs="167.886136" fuel_abs="171.373106" electricity_abs="0"/>
    </tripinfo>
    <tripinfo id="h317c2:1" depart="57707.00" departLane="-32978638#0_1" departPos="5.10" departSpeed="0.00" departDelay="0.10" arrival="57754.00" arrivalLane="-266565295#5_1" arrivalPos="172.76" arrivalSpeed="13.48" duration="47.00" routeLength="370.53" waitingTime="12.00" waitingCount="1" stopTime="0.00" timeLoss="20.99" rerouteNo="1" devices="tripinfo_h317c2:1 routing_h317c2:1 emissions_h317c2:1" vType="default_016" speedFactor="1.06" vaporized="">
        <emissions CO_abs="3443.240235" CO2_abs="149267.583986" HC_abs="19.181882" PMx_abs="2.857237" NOx_abs="62.396016" fuel_abs="64.164398" electricity_abs="0"/>
    </tripinfo>
    <tripinfo id="h3326c1:2" depart="57656.00" departLane="22716069#0_1" departPos="5.10" departSpeed="0.00" departDelay="0.00" arrival="57762.00" arrivalLane="24634517#13_1" arrivalPos="111.62" arrivalSpeed="14.28" duration="106.00" routeLength="1312.81" waitingTime="0.00" waitingCount="0" stopTime="0.00" timeLoss="15.02" rerouteNo="1" devices="tripinfo_h3326c1:2 routing_h3326c1:2 emissions_h3326c1:2" vType="default_016" speedFactor="1.08" vaporized="">
        <emissions CO_abs="3783.043851" CO2_abs="308990.197036" HC_abs="24.341338" PMx_abs="5.157999" NOx_abs="122.779459" fuel_abs="132.821439" electricity_abs="0"/>
    </tripinfo>
    <tripinfo id="h645c1:1" depart="57622.00" departLane="266565295#5_1" departPos="5.10" departSpeed="0.00" departDelay="0.40" arrival="57775.00" arrivalLane="-315358244_1" arrivalPos="33.95" arrivalSpeed="15.27" duration="153.00" routeLength="1910.83" waitingTime="17.00" waitingCount="1" stopTime="0.00" timeLoss="34.31" rerouteNo="1" devices="tripinfo_h645c1:1 routing_h645c1:1 emissions_h645c1:1" vType="default_016" speedFactor="1.17" vaporized="">
        <emissions CO_abs="5352.461616" CO2_abs="387363.173293" HC_abs="32.915211" PMx_abs="6.416112" NOx_abs="151.478951" fuel_abs="166.511319" electricity_abs="0"/>
    </tripinfo>
    <tripinfo id="carIn12365:1" depart="57713.00" departLane="315358244_1" departPos="5.10" departSpeed="0.00" departDelay="0.50" arrival="57775.00" arrivalLane="447569997#1_1" arrivalPos="180.93" arrivalSpeed="8.33" duration="62.00" routeLength="718.04" waitingTime="0.00" waitingCount="0" stopTime="0.00" timeLoss="7.82" rerouteNo="1" devices="tripinfo_carIn12365:1 routing_carIn12365:1 emissions_carIn12365:1" vType="default_016" speedFactor="1.14" vaporized="">
        <emissions CO_abs="2165.030843" CO2_abs="157790.649487" HC_abs="13.473577" PMx_abs="2.596004" NOx_abs="62.570913" fuel_abs="67.827579" electricity_abs="0"/>
    </tripinfo>
    <tripinfo id="h5979c1:5" depart="57669.00" departLane="399835085#1_1" departPos="5.10" departSpeed="0.00" departDelay="0.00" arrival="57779.00" arrivalLane="-315358254#1_1" arrivalPos="137.16" arrivalSpeed="12.20" duration="110.00" routeLength="659.33" waitingTime="12.00" waitingCount="1" stopTime="0.00" timeLoss="27.47" rerouteNo="1" devices="tripinfo_h5979c1:5 routing_h5979c1:5 emissions_h5979c1:5" vType="default_016" speedFactor="0.89" vaporized="">
        <emissions CO_abs="4835.480961" CO2_abs="190997.729795" HC_abs="26.415448" PMx_abs="3.273179" NOx_abs="78.553908" fuel_abs="82.103417" electricity_abs="0"/>
    </tripinfo>
    <tripinfo id="h330c1:1" depart="57736.00" departLane="-32978638#0_1" departPos="5.10" departSpeed="0.00" departDelay="0.20" arrival="57784.00" arrivalLane="-266565295#5_1" arrivalPos="172.76" arrivalSpeed="13.81" duration="48.00" routeLength="370.53" waitingTime="11.00" waitingCount="1" stopTime="0.00" timeLoss="21.91" rerouteNo="1" devices="tripinfo_h330c1:1 routing_h330c1:1 emissions_h330c1:1" vType="default_016" speedFactor="1.06" vaporized="">
        <emissions CO_abs="3003.273206" CO2_abs="128479.087320" HC_abs="16.709475" PMx_abs="2.550840" NOx_abs="54.505274" fuel_abs="55.228096" electricity_abs="0"/>
    </tripinfo>
    <tripinfo id="carIn107084:1" depart="57601.00" departLane="124812856#0_1" departPos="5.10" departSpeed="0.00" departDelay="0.70" arrival="57785.00" arrivalLane="-128361102#1_1" arrivalPos="274.68" arrivalSpeed="12.34" duration="184.00" routeLength="2250.49" waitingTime="0.00" waitingCount="0" stopTime="0.00" timeLoss="17.03" rerouteNo="1" devices="tripinfo_carIn107084:1 routing_carIn107084:1 emissions_carIn107084:1" vType="default_016" speedFactor="0.98" vaporized="">
        <emissions CO_abs="4769.541049" CO2_abs="440327.590177" HC_abs="31.926362" PMx_abs="6.695964" NOx_abs="170.690690" fuel_abs="189.278176" electricity_abs="0"/>
    </tripinfo>
    <tripinfo id="carIn77943:1" depart="57608.00" departLane="124812856#0_1" departPos="5.10" departSpeed="0.00" departDelay="2.50" arrival="57787.00" arrivalLane="-128361102#1_1" arrivalPos="274.68" arrivalSpeed="14.62" duration="179.00" routeLength="2250.49" waitingTime="0.00" waitingCount="0" stopTime="0.00" timeLoss="28.76" rerouteNo="1" devices="tripinfo_carIn77943:1 routing_carIn77943:1 emissions_carIn77943:1" vType="default_016" speedFactor="1.10" vaporized="">
        <emissions CO_abs="6132.937855" CO2_abs="520154.264931" HC_abs="39.894464" PMx_abs="8.618586" NOx_abs="206.156022" fuel_abs="223.591591" electricity_abs="0"/>
    </tripinfo>
    <tripinfo id="carIn77438:1" depart="57614.00" departLane="124812856#0_1" departPos="5.10" departSpeed="0.00" departDelay="1.10" arrival="57789.00" arrivalLane="-128361102#1_1" arrivalPos="274.68" arrivalSpeed="13.77" duration="175.00" routeLength="2250.49" waitingTime="0.00" waitingCount="0" stopTime="0.00" timeLoss="18.54" rerouteNo="1" devices="tripinfo_carIn77438:1 routing_carIn77438:1 emissions_carIn77438:1" vType="default_016" speedFactor="1.05" vaporized="">
        <emissions CO_abs="5259.661596" CO2_abs="463706.916381" HC_abs="34.725014" PMx_abs="7.620386" NOx_abs="183.113379" fuel_abs="199.327308" electricity_abs="0"/>
    </tripinfo>
    <tripinfo id="carIn86816:1" depart="57617.00" departLane="128361102#0_1" departPos="5.10" departSpeed="0.00" departDelay="0.80" arrival="57791.00" arrivalLane="201956811#0_1" arrivalPos="40.40" arrivalSpeed="14.12" duration="174.00" routeLength="2067.33" waitingTime="11.00" waitingCount="1" stopTime="0.00" timeLoss="35.65" rerouteNo="1" devices="tripinfo_carIn86816:1 routing_carIn86816:1 emissions_carIn86816:1" vType="default_016" speedFactor="1.09" vaporized="">
        <emissions CO_abs="6348.572930" CO2_abs="469283.489335" HC_abs="39.689761" PMx_abs="7.906342" NOx_abs="186.579294" fuel_abs="201.724988" electricity_abs="0"/>
    </tripinfo>
    <tripinfo id="carIn27009:1" depart="57673.00" departLane="-447569998#1_1" departPos="5.10" departSpeed="0.00" departDelay="0.50" arrival="57797.00" arrivalLane="-26677539_1" arrivalPos="152.75" arrivalSpeed="7.17" duration="124.00" routeLength="699.63" waitingTime="21.00" waitingCount="1" stopTime="0.00" timeLoss="35.76" rerouteNo="1" devices="tripinfo_carIn27009:1 routing_carIn27009:1 emissions_carIn27009:1" vType="default_015" speedFactor="0.95" vaporized="">
        <emissions CO_abs="6539.019498" CO2_abs="218152.636694" HC_abs="34.801688" PMx_abs="3.924877" NOx_abs="90.981840" fuel_abs="93.776965" electricity_abs="0"/>
    </tripinfo>
    <tripinfo id="carIn107282:1" depart="57749.00" departLane="-447569998#1_1" departPos="5.10" departSpeed="0.00" departDelay="0.00" arrival="57798.00" arrivalLane="315358242#0_1" arrivalPos="165.37" arrivalSpeed="13.16" duration="49.00" routeLength="448.50" waitingTime="0.00" waitingCount="0" stopTime="0.00" timeLoss="5.39" rerouteNo="1" devices="tripinfo_carIn107282:1 routing_carIn107282:1 emissions_carIn107282:1" vType="default_016" speedFactor="0.95" vaporized="">
        <emissions CO_abs="1987.596800" CO2_abs="110939.521646" HC_abs="11.618896" PMx_abs="1.814667" NOx_abs="44.675291" fuel_abs="47.688591" electricity_abs="0"/>
    </tripinfo>
    <tripinfo id="carIn81046:1" depart="57611.00" departLane="124812856#0_1" departPos="5.10" departSpeed="0.00" departDelay="2.50" arrival="57801.00" arrivalLane="-128361102#1_1" arrivalPos="274.68" arrivalSpeed="15.96" duration="190.00" routeLength="2232.46" waitingTime="19.00" waitingCount="2" stopTime="0.00" timeLoss="55.81" rerouteNo="1" devices="tripinfo_carIn81046:1 routing_carIn81046:1 emissions_carIn81046:1" vType="default_016" speedFactor="1.22" vaporized="">
        <emissions CO_abs="8980.773699" CO2_abs="591114.966601" HC_abs="54.664042" PMx_abs="10.961990" NOx_abs="241.790980" fuel_abs="254.094437" electricity_abs="0"/>
    </tripinfo>
    <tripinfo id="carIn50326:1" depart="57651.00" departLane="128361102#0_1" departPos="5.10" departSpeed="0.00" departDelay="0.30" arrival="57801.00" arrivalLane="18809673#0_1" arrivalPos="473.56" arrivalSpeed="13.79" duration="150.00" routeLength="1591.07" waitingTime="0.00" waitingCount="0" stopTime="0.00" timeLoss="20.52" rerouteNo="1" devices="tripinfo_carIn50326:1 routing_carIn50326:1 emissions_carIn50326:1" vType="default_016" speedFactor="1.00" vaporized="">
        <emissions CO_abs="5180.934856" CO2_abs="359585.261663" HC_abs="31.923622" PMx_abs="5.737837" NOx_abs="142.309401" fuel_abs="154.571035" electricity_abs="0"/>
    </tripinfo>
    <tripinfo id="h19804c1:3" depart="57617.00" departLane="124812856#0_1" departPos="5.10" departSpeed="0.00" departDelay="1.50" arrival="57803.00" arrivalLane="-128361102#1_1" arrivalPos="274.68" arrivalSpeed="16.51" duration="186.00" routeLength="2232.46" waitingTime="15.00" waitingCount="2" stopTime="0.00" timeLoss="50.27" rerouteNo="1" devices="tripinfo_h19804c1:3 routing_h19804c1:3 emissions_h19804c1:3" vType="default_016" speedFactor="1.20" vaporized="">
        <emissions CO_abs="8308.389327" CO2_abs="574800.987272" HC_abs="51.228503" PMx_abs="10.611415" NOx_abs="234.745733" fuel_abs="247.081489" electricity_abs="0"/>
    </tripinfo>
    <tripinfo id="carIn107842:1" depart="57623.00" departLane="124812856#0_1" departPos="5.10" departSpeed="0.00" departDelay="1.90" arrival="57806.00" arrivalLane="-128361102#1_1" arrivalPos="274.68" arrivalSpeed="15.98" duration="183.00" routeLength="2232.46" waitingTime="11.00" waitingCount="2" stopTime="0.00" timeLoss="43.51" rerouteNo="1" devices="tripinfo_carIn107842:1 routing_carIn107842:1 emissions_carIn107842:1" vType="default_016" speedFactor="1.17" vaporized="">
        <emissions CO_abs="7101.819167" CO2_abs="534246.357417" HC_abs="44.744096" PMx_abs="9.406894" NOx_abs="214.673285" fuel_abs="229.649077" electricity_abs="0"/>
    </tripinfo>
    <tripinfo id="h9563c2:5" depart="57631.00" departLane="315358244_1" departPos="5.10" departSpeed="0.00" departDelay="0.70" arrival="57808.00" arrivalLane="386687235_1" arrivalPos="80.84" arrivalSpeed="12.85" duration="177.00" routeLength="1186.14" waitingTime="71.00" waitingCount="1" stopTime="0.00" timeLoss="85.67" rerouteNo="1" devices="tripinfo_h9563c2:5 routing_h9563c2:5 emissions_h9563c2:5" vType="default_016" speedFactor="0.95" vaporized="">
        <emissions CO_abs="13964.164014" CO2_abs="415873.875698" HC_abs="73.305807" PMx_abs="8.223121" NOx_abs="175.310162" fuel_abs="178.771568" electricity_abs="0"/>
    </tripinfo>
    <tripinfo id="h3864c1:3" depart="57678.00" departLane="24693977#1_1" departPos="5.10" departSpeed="0.00" departDelay="0.00" arrival="57809.00" arrivalLane="201956820_2" arrivalPos="48.33" arrivalSpeed="15.55" duration="131.00" routeLength="1574.85" waitingTime="0.00" waitingCount="0" stopTime="0.00" timeLoss="21.56" rerouteNo="1" devices="tripinfo_h3864c1:3 routing_h3864c1:3 emissions_h3864c1:3" vType="default_016" speedFactor="1.18" vaporized="">
        <emissions CO_abs="5741.994993" CO2_abs="406882.857314" HC_abs="35.645219" PMx_abs="7.319792" NOx_abs="165.858528" fuel_abs="174.901010" electricity_abs="0"/>
    </tripinfo>
    <tripinfo id="carIn118591:1" depart="57689.00" departLane="315358244_1" departPos="5.10" departSpeed="0.00" departDelay="0.20" arrival="57811.00" arrivalLane="386687235_1" arrivalPos="80.84" arrivalSpeed="12.24" duration="122.00" routeLength="1186.14" waitingTime="9.00" waitingCount="1" stopTime="0.00" timeLoss="26.44" rerouteNo="1" devices="tripinfo_carIn118591:1 routing_carIn118591:1 emissions_carIn118591:1" vType="default_016" speedFactor="0.90" vaporized="">
        <emissions CO_abs="4231.827635" CO2_abs="257928.967416" HC_abs="25.239407" PMx_abs="4.072300" NOx_abs="101.937998" fuel_abs="110.873638" electricity_abs="0"/>
    </tripinfo>
    <tripinfo id="carIn129809:1" depart="57729.00" departLane="-447569998#1_1" departPos="5.10" departSpeed="0.00" departDelay="1.00" arrival="57813.00" arrivalLane="-315358244_1" arrivalPos="33.95" arrivalSpeed="12.84" duration="84.00" routeLength="706.49" waitingTime="6.00" waitingCount="1" stopTime="0.00" timeLoss="22.64" rerouteNo="1" devices="tripinfo_carIn129809:1 routing_carIn129809:1 emissions_carIn129809:1" vType="default_015" speedFactor="0.98" vaporized="">
        <emissions CO_abs="3502.261074" CO2_abs="195671.990927" HC_abs="20.482945" PMx_abs="3.228744" NOx_abs="78.591360" fuel_abs="84.111782" electricity_abs="0"/>
    </tripinfo>
    <tripinfo id="carIn102915:1" depart="57643.00" departLane="128361102#0_1" departPos="5.10" departSpeed="0.00" departDelay="0.40" arrival="57816.00" arrivalLane="201956811#0_1" arrivalPos="40.40" arrivalSpeed="13.69" duration="173.00" routeLength="2067.33" waitingTime="5.00" waitingCount="1" stopTime="0.00" timeLoss="27.94" rerouteNo="1" devices="tripinfo_carIn102915:1 routing_carIn102915:1 emissions_carIn102915:1" vType="default_016" speedFactor="1.04" vaporized="">
        <emissions CO_abs="5745.599365" CO2_abs="469009.110400" HC_abs="37.061739" PMx_abs="7.816294" NOx_abs="186.461855" fuel_abs="201.606630" electricity_abs="0"/>
    </tripinfo>
    <tripinfo id="carIn80064:1" depart="57603.00" departLane="128361109#1_1" departPos="5.10" departSpeed="0.00" departDelay="0.40" arrival="57817.00" arrivalLane="-315358254#1_1" arrivalPos="137.16" arrivalSpeed="15.91" duration="214.00" routeLength="1587.97" waitingTime="100.00" waitingCount="3" stopTime="0.00" timeLoss="137.53" rerouteNo="1" devices="tripinfo_carIn80064:1 routing_carIn80064:1 emissions_carIn80064:1" vType="default_016" speedFactor="1.17" vaporized="">
        <emissions CO_abs="21995.561484" CO2_abs="762193.504791" HC_abs="118.212432" PMx_abs="16.555076" NOx_abs="327.301870" fuel_abs="327.638862" electricity_abs="0"/>
    </tripinfo>
    <tripinfo id="randUni33724:1" depart="57646.00" departLane="128361102#0_1" departPos="5.10" departSpeed="0.00" departDelay="1.20" arrival="57821.00" arrivalLane="201956811#0_1" arrivalPos="40.40" arrivalSpeed="13.78" duration="175.00" routeLength="2067.33" waitingTime="4.00" waitingCount="1" stopTime="0.00" timeLoss="26.79" rerouteNo="1" devices="tripinfo_randUni33724:1 routing_randUni33724:1 emissions_randUni33724:1" vType="random_016" speedFactor="1.02" vaporized="">
        <emissions CO_abs="6127.976534" CO2_abs="470227.431518" HC_abs="38.916443" PMx_abs="8.047450" NOx_abs="188.856997" fuel_abs="202.130281" electricity_abs="0"/>
    </tripinfo>
    <tripinfo id="carIn82220:1" depart="57619.00" departLane="-306240162#1_0" departPos="5.10" departSpeed="0.00" departDelay="3.50" arrival="57822.00" arrivalLane="386687235_2" arrivalPos="80.84" arrivalSpeed="17.34" duration="203.00" routeLength="2257.41" waitingTime="25.00" waitingCount="4" stopTime="0.00" timeLoss="85.98" rerouteNo="1" devices="tripinfo_carIn82220:1 routing_carIn82220:1 emissions_carIn82220:1" vType="default_016" speedFactor="1.27" vaporized="">
        <emissions CO_abs="10781.721296" CO2_abs="660178.352023" HC_abs="64.667596" PMx_abs="12.607899" NOx_abs="271.177499" fuel_abs="283.781999" electricity_abs="0"/>
    </tripinfo>
    <tripinfo id="carIn48184:1" depart="57613.00" departLane="-306240162#1_0" departPos="5.10" departSpeed="0.00" departDelay="0.70" arrival="57824.00" arrivalLane="386687235_1" arrivalPos="80.84" arrivalSpeed="11.99" duration="211.00" routeLength="2257.41" waitingTime="21.00" waitingCount="3" stopTime="0.00" timeLoss="52.77" rerouteNo="1" devices="tripinfo_carIn48184:1 routing_carIn48184:1 emissions_carIn48184:1" vType="default_016" speedFactor="0.94" vaporized="">
        <emissions CO_abs="7791.223660" CO2_abs="508708.254379" HC_abs="47.332665" PMx_abs="8.668598" NOx_abs="203.285777" fuel_abs="218.672637" electricity_abs="0"/>
    </tripinfo>
    <tripinfo id="h11737c1:1" depart="57665.00" departLane="272042143_1" departPos="5.10" departSpeed="0.00" departDelay="1.50" arrival="57828.00" arrivalLane="-315358254#1_1" arrivalPos="137.16" arrivalSpeed="10.98" duration="163.00" routeLength="1596.88" waitingTime="15.00" waitingCount="1" stopTime="0.00" timeLoss="29.49" rerouteNo="1" devices="tripinfo_h11737c1:1 routing_h11737c1:1 emissions_h11737c1:1" vType="default_016" speedFactor="0.87" vaporized="">
        <emissions CO_abs="6262.249873" CO2_abs="345032.052404" HC_abs="36.529032" PMx_abs="5.711596" NOx_abs="138.364211" fuel_abs="148.315949" electricity_abs="0"/>
    </tripinfo>
    <tripinfo id="carIn126288:1" depart="57674.00" departLane="272042143_1" departPos="5.10" departSpeed="0.00" departDelay="0.00" arrival="57830.00" arrivalLane="-315358254#1_1" arrivalPos="137.16" arrivalSpeed="13.49" duration="156.00" routeLength="1596.88" waitingTime="13.00" waitingCount="1" stopTime="0.00" timeLoss="38.32" rerouteNo="1" devices="tripinfo_carIn126288:1 routing_carIn126288:1 emissions_carIn126288:1" vType="default_016" speedFactor="0.99" vaporized="">
        <emissions CO_abs="6238.712802" CO2_abs="376233.708305" HC_abs="37.227359" PMx_abs="6.531409" NOx_abs="152.556197" fuel_abs="161.727396" electricity_abs="0"/>
    </tripinfo>
    <tripinfo id="carIn12152:1" depart="57647.00" departLane="24599188#0.94_1" departPos="5.10" departSpeed="0.00" departDelay="0.50" arrival="57832.00" arrivalLane="-315358254#1_1" arrivalPos="137.16" arrivalSpeed="13.85" duration="185.00" routeLength="2034.31" waitingTime="8.00" waitingCount="1" stopTime="0.00" timeLoss="32.85" rerouteNo="1" devices="tripinfo_carIn12152:1 routing_carIn12152:1 emissions_carIn12152:1" vType="default_016" speedFactor="1.04" vaporized="">
        <emissions CO_abs="6175.454101" CO2_abs="434045.075799" HC_abs="38.213176" PMx_abs="7.140353" NOx_abs="172.475622" fuel_abs="186.577946" electricity_abs="0"/>
    </tripinfo>
    <tripinfo id="carIn81860:1" depart="57712.00" departLane="128361102#0_1" departPos="5.10" departSpeed="0.00" departDelay="0.60" arrival="57832.00" arrivalLane="-24634517#17_1" arrivalPos="6.43" arrivalSpeed="7.73" duration="120.00" routeLength="1229.64" waitingTime="6.00" waitingCount="1" stopTime="0.00" timeLoss="27.36" rerouteNo="1" devices="tripinfo_carIn81860:1 routing_carIn81860:1 emissions_carIn81860:1" vType="default_016" speedFactor="0.97" vaporized="">
        <emissions CO_abs="4439.107664" CO2_abs="282033.098881" HC_abs="26.813921" PMx_abs="4.842233" NOx_abs="113.992399" fuel_abs="121.234308" electricity_abs="0"/>
    </tripinfo>
    <tripinfo id="carIn82278:1" depart="57702.00" departLane="-306240162#1_0" departPos="5.10" departSpeed="0.00" departDelay="0.70" arrival="57835.00" arrivalLane="399835085#1_1" arrivalPos="212.23" arrivalSpeed="7.53" duration="133.00" routeLength="1093.26" waitingTime="26.00" waitingCount="2" stopTime="0.00" timeLoss="52.70" rerouteNo="1" devices="tripinfo_carIn82278:1 routing_carIn82278:1 emissions_carIn82278:1" vType="default_016" speedFactor="0.97" vaporized="">
        <emissions CO_abs="8511.605082" CO2_abs="351296.922959" HC_abs="47.053193" PMx_abs="6.909021" NOx_abs="147.108204" fuel_abs="151.009214" electricity_abs="0"/>
    </tripinfo>
    <tripinfo id="randUni15030:1" depart="57735.00" departLane="386687232#0_1" departPos="5.10" departSpeed="0.00" departDelay="0.10" arrival="57835.00" arrivalLane="26677539_1" arrivalPos="151.98" arrivalSpeed="7.84" duration="100.00" routeLength="919.89" waitingTime="0.00" waitingCount="0" stopTime="0.00" timeLoss="11.66" rerouteNo="1" devices="tripinfo_randUni15030:1 routing_randUni15030:1 emissions_randUni15030:1" vType="random_016" speedFactor="0.95" vaporized="">
        <emissions CO_abs="3504.041828" CO2_abs="210796.075048" HC_abs="20.835230" PMx_abs="3.383217" NOx_abs="84.231647" fuel_abs="90.612935" electricity_abs="0"/>