<?xml version="1.0" encoding="UTF-8"?>

<!-- generated on 2021-10-26 20:27:35 by Eclipse SUMO sumo Version 1.10.0
<configuration xmlns:xsi="http://www.w3.org/2001/XMLSchema-instance" xsi:noNamespaceSchemaLocation="http://sumo.dlr.de/xsd/sumoConfiguration.xsd">

    <input>
        <net-file value="/Users/behradkoohy/sumo-scratchpad/RESCO/environments/ingolstadt21/ingolstadt21.net.xml"/>
        <route-files value="/Users/behradkoohy/sumo-scratchpad/RESCO/environments/ingolstadt21/ingolstadt21.rou.xml"/>
    </input>

    <output>
        <tripinfo-output value="/Users/behradkoohy/sumo-scratchpad/RESCO/logs/MPLight-tr0-ingolstadt21-21-mplight-pressure/tripinfo_93.xml"/>
        <tripinfo-output.write-unfinished value="true"/>
    </output>

    <time>
        <begin value="57600"/>
        <end value="61200"/>
    </time>

    <processing>
        <time-to-teleport value="-1"/>
    </processing>

    <report>
        <no-warnings value="true"/>
        <no-step-log value="true"/>
    </report>

    <emissions>
        <device.emissions.probability value="1"/>
    </emissions>

    <traci_server>
        <remote-port value="64299"/>
    </traci_server>

    <random_number>
        <random value="true"/>
    </random_number>

</configuration>
-->

<tripinfos xmlns:xsi="http://www.w3.org/2001/XMLSchema-instance" xsi:noNamespaceSchemaLocation="http://sumo.dlr.de/xsd/tripinfo_file.xsd">
    <tripinfo id="h15454c2:3" depart="57612.00" departLane="24608844_1" departPos="5.10" departSpeed="0.00" departDelay="0.50" arrival="57651.00" arrivalLane="32978638#0_1" arrivalPos="49.29" arrivalSpeed="15.18" duration="39.00" routeLength="354.79" waitingTime="0.00" waitingCount="0" stopTime="0.00" timeLoss="8.72" rerouteNo="1" devices="tripinfo_h15454c2:3 routing_h15454c2:3 emissions_h15454c2:3" vType="default_016" speedFactor="1.15" vaporized="">
        <emissions CO_abs="2455.244580" CO2_abs="132939.827970" HC_abs="14.317846" PMx_abs="2.504786" NOx_abs="55.753838" fuel_abs="57.145218" electricity_abs="0"/>
    </tripinfo>
    <tripinfo id="carIn60260:1" depart="57606.00" departLane="315358254#0_1" departPos="5.10" departSpeed="0.00" departDelay="0.90" arrival="57671.00" arrivalLane="399835085#1_1" arrivalPos="212.23" arrivalSpeed="7.89" duration="65.00" routeLength="430.98" waitingTime="11.00" waitingCount="1" stopTime="0.00" timeLoss="21.24" rerouteNo="1" devices="tripinfo_carIn60260:1 routing_carIn60260:1 emissions_carIn60260:1" vType="default_016" speedFactor="1.04" vaporized="">
        <emissions CO_abs="3339.499759" CO2_abs="135572.348484" HC_abs="18.351557" PMx_abs="2.415395" NOx_abs="56.125280" fuel_abs="58.277737" electricity_abs="0"/>
    </tripinfo>
    <tripinfo id="carIn53971:1" depart="57640.00" departLane="272042143_1" departPos="5.10" departSpeed="0.00" departDelay="0.80" arrival="57698.00" arrivalLane="24634414#1_1" arrivalPos="162.19" arrivalSpeed="7.65" duration="58.00" routeLength="493.04" waitingTime="0.00" waitingCount="0" stopTime="0.00" timeLoss="10.32" rerouteNo="1" devices="tripinfo_carIn53971:1 routing_carIn53971:1 emissions_carIn53971:1" vType="default_016" speedFactor="0.97" vaporized="">
        <emissions CO_abs="2473.426823" CO2_abs="133535.464579" HC_abs="14.387264" PMx_abs="2.376208" NOx_abs="55.107271" fuel_abs="57.401476" electricity_abs="0"/>
    </tripinfo>
    <tripinfo id="h7800c1:5" depart="57696.00" departLane="-447569998#1_1" departPos="5.10" departSpeed="0.00" departDelay="0.00" arrival="57725.00" arrivalLane="-447569998#1_2" arrivalPos="180.76" arrivalSpeed="4.82" duration="29.00" routeLength="175.66" waitingTime="2.00" waitingCount="1" stopTime="0.00" timeLoss="9.14" rerouteNo="1" devices="tripinfo_h7800c1:5 routing_h7800c1:5 emissions_h7800c1:5" vType="default_016" speedFactor="1.08" vaporized="">
        <emissions CO_abs="1319.383164" CO2_abs="56215.197294" HC_abs="7.306875" PMx_abs="0.974449" NOx_abs="23.219406" fuel_abs="24.164889" electricity_abs="0"/>
    </tripinfo>
    <tripinfo id="h12244c1:3" depart="57612.00" departLane="315358244_1" departPos="5.10" departSpeed="0.00" departDelay="0.40" arrival="57726.00" arrivalLane="386687235_1" arrivalPos="80.84" arrivalSpeed="13.56" duration="114.00" routeLength="1186.14" waitingTime="18.00" waitingCount="1" stopTime="0.00" timeLoss="32.21" rerouteNo="1" devices="tripinfo_h12244c1:3 routing_h12244c1:3 emissions_h12244c1:3" vType="default_016" speedFactor="1.06" vaporized="">
        <emissions CO_abs="5145.582454" CO2_abs="275745.375236" HC_abs="29.804641" PMx_abs="4.779693" NOx_abs="110.716602" fuel_abs="118.532189" electricity_abs="0"/>
    </tripinfo>
    <tripinfo id="h3688c1:1" depart="57625.00" departLane="201201950#1_1" departPos="5.10" departSpeed="0.00" departDelay="0.00" arrival="57731.00" arrivalLane="32978638#0_1" arrivalPos="49.29" arrivalSpeed="13.90" duration="106.00" routeLength="1089.75" waitingTime="13.00" waitingCount="1" stopTime="0.00" timeLoss="27.94" rerouteNo="1" devices="tripinfo_h3688c1:1 routing_h3688c1:1 emissions_h3688c1:1" vType="default_016" speedFactor="1.03" vaporized="">
        <emissions CO_abs="5001.606050" CO2_abs="292015.631672" HC_abs="29.597524" PMx_abs="5.226029" NOx_abs="119.016299" fuel_abs="125.525438" electricity_abs="0"/>
    </tripinfo>
    <tripinfo id="carIn121703:1" depart="57647.00" departLane="386687232#0_1" departPos="5.10" departSpeed="0.00" departDelay="0.30" arrival="57735.00" arrivalLane="-315358244_1" arrivalPos="33.95" arrivalSpeed="13.69" duration="88.00" routeLength="1157.39" waitingTime="0.00" waitingCount="0" stopTime="0.00" timeLoss="8.18" rerouteNo="1" devices="tripinfo_carIn121703:1 routing_carIn121703:1 emissions_carIn121703:1" vType="default_016" speedFactor="1.05" vaporized="">
        <emissions CO_abs="2535.156162" CO2_abs="221969.868459" HC_abs="16.614723" PMx_abs="3.598945" NOx_abs="87.168200" fuel_abs="95.415224" electricity_abs="0"/>
    </tripinfo>
    <tripinfo id="h3568c1:3" depart="57656.00" departLane="266565295#5_1" departPos="5.10" departSpeed="0.00" departDelay="0.80" arrival="57738.00" arrivalLane="-24634415_1" arrivalPos="62.03" arrivalSpeed="12.91" duration="82.00" routeLength="807.40" waitingTime="0.00" waitingCount="0" stopTime="0.00" timeLoss="12.74" rerouteNo="1" devices="tripinfo_h3568c1:3 routing_h3568c1:3 emissions_h3568c1:3" vType="default_016" speedFactor="0.94" vaporized="">
        <emissions CO_abs="3330.890859" CO2_abs="204307.463419" HC_abs="19.934666" PMx_abs="3.458829" NOx_abs="82.707615" fuel_abs="87.823416" electricity_abs="0"/>
    </tripinfo>
    <tripinfo id="h4538c1:1" depart="57701.00" departLane="-10427692#1_1" departPos="5.10" departSpeed="0.00" departDelay="0.00" arrival="57742.00" arrivalLane="-128361102#1_1" arrivalPos="274.68" arrivalSpeed="12.67" duration="41.00" routeLength="440.74" waitingTime="0.00" waitingCount="0" stopTime="0.00" timeLoss="6.91" rerouteNo="1" devices="tripinfo_h4538c1:1 routing_h4538c1:1 emissions_h4538c1:1" vType="default_016" speedFactor="0.95" vaporized="">
        <emissions CO_abs="1558.965269" CO2_abs="104814.318357" HC_abs="9.541720" PMx_abs="1.758221" NOx_abs="42.142932" fuel_abs="45.055299" electricity_abs="0"/>
    </tripinfo>
    <tripinfo id="carIn22761:1" depart="57616.00" departLane="-306240162#1_0" departPos="5.10" departSpeed="0.00" departDelay="2.10" arrival="57753.00" arrivalLane="399835085#1_1" arrivalPos="212.23" arrivalSpeed="7.65" duration="137.00" routeLength="1093.26" waitingTime="46.00" waitingCount="1" stopTime="0.00" timeLoss="63.03" rerouteNo="1" devices="tripinfo_carIn22761:1 routing_carIn22761:1 emissions_carIn22761:1" vType="default_016" speedFactor="1.06" vaporized="">
        <emissions CO_abs="11306.708410" CO2_abs="392940.317885" HC_abs="60.666101" PMx_abs="8.107802" NOx_abs="166.233536" fuel_abs="168.911133" electricity_abs="0"/>
    </tripinfo>
    <tripinfo id="S5R_frequency1.2" depart="57612.00" departLane="315358250#0_1" departPos="12.10" departSpeed="0.00" departDelay="0.40" arrival="57754.00" arrivalLane="386687235_1" arrivalPos="80.84" arrivalSpeed="12.94" duration="142.00" routeLength="1115.62" waitingTime="26.00" waitingCount="3" stopTime="0.00" timeLoss="60.19" rerouteNo="1" devices="tripinfo_S5R_frequency1.2 routing_S5R_frequency1.2 emissions_S5R_frequency1.2" vType="bus" speedFactor="1.00" vaporized="">
        <emissions CO_abs="2541.743799" CO2_abs="1414364.648583" HC_abs="547.771707" PMx_abs="268.525949" NOx_abs="11456.043609" fuel_abs="603.152380" electricity_abs="0"/>
    </tripinfo>
    <tripinfo id="h3326c1:2" depart="57656.00" departLane="22716069#0_1" departPos="5.10" departSpeed="0.00" departDelay="0.00" arrival="57760.00" arrivalLane="24634517#13_1" arrivalPos="111.62" arrivalSpeed="14.08" duration="104.00" routeLength="1312.81" waitingTime="0.00" waitingCount="0" stopTime="0.00" timeLoss="15.54" rerouteNo="1" devices="tripinfo_h3326c1:2 routing_h3326c1:2 emissions_h3326c1:2" vType="default_016" speedFactor="1.10" vaporized="">
        <emissions CO_abs="4216.821999" CO2_abs="324911.777111" HC_abs="26.687367" PMx_abs="5.677837" NOx_abs="130.906366" fuel_abs="139.665227" electricity_abs="0"/>
    </tripinfo>
    <tripinfo id="carIn30817:1" depart="57681.00" departLane="315358244_1" departPos="5.10" departSpeed="0.00" departDelay="0.20" arrival="57763.00" arrivalLane="447569997#1_1" arrivalPos="180.93" arrivalSpeed="7.42" duration="82.00" routeLength="718.04" waitingTime="4.00" waitingCount="1" stopTime="0.00" timeLoss="15.75" rerouteNo="1" devices="tripinfo_carIn30817:1 routing_carIn30817:1 emissions_carIn30817:1" vType="default_016" speedFactor="0.93" vaporized="">
        <emissions CO_abs="2910.829372" CO2_abs="161819.614741" HC_abs="16.989103" PMx_abs="2.577363" NOx_abs="64.575228" fuel_abs="69.560098" electricity_abs="0"/>
    </tripinfo>
    <tripinfo id="carIn107084:1" depart="57601.00" departLane="124812856#0_1" departPos="5.10" departSpeed="0.00" departDelay="0.70" arrival="57764.00" arrivalLane="-128361102#1_1" arrivalPos="274.68" arrivalSpeed="15.58" duration="163.00" routeLength="2250.49" waitingTime="0.00" waitingCount="0" stopTime="0.00" timeLoss="16.95" rerouteNo="1" devices="tripinfo_carIn107084:1 routing_carIn107084:1 emissions_carIn107084:1" vType="default_016" speedFactor="1.12" vaporized="">
        <emissions CO_abs="5121.821547" CO2_abs="470717.271254" HC_abs="34.173394" PMx_abs="7.834427" NOx_abs="185.332821" fuel_abs="202.340515" electricity_abs="0"/>
    </tripinfo>
    <tripinfo id="h317c2:1" depart="57707.00" departLane="-32978638#0_1" departPos="5.10" departSpeed="0.00" departDelay="0.10" arrival="57765.00" arrivalLane="-266565295#5_1" arrivalPos="172.76" arrivalSpeed="13.61" duration="58.00" routeLength="370.53" waitingTime="21.00" waitingCount="1" stopTime="0.00" timeLoss="31.50" rerouteNo="1" devices="tripinfo_h317c2:1 routing_h317c2:1 emissions_h317c2:1" vType="default_016" speedFactor="1.06" vaporized="">
        <emissions CO_abs="5132.236410" CO2_abs="176459.926662" HC_abs="27.474084" PMx_abs="3.512413" NOx_abs="74.625086" fuel_abs="75.854039" electricity_abs="0"/>
    </tripinfo>
    <tripinfo id="h330c1:1" depart="57736.00" departLane="-32978638#0_1" departPos="5.10" departSpeed="0.00" departDelay="0.20" arrival="57767.00" arrivalLane="-266565295#5_1" arrivalPos="172.76" arrivalSpeed="14.97" duration="31.00" routeLength="370.53" waitingTime="0.00" waitingCount="0" stopTime="0.00" timeLoss="5.60" rerouteNo="1" devices="tripinfo_h330c1:1 routing_h330c1:1 emissions_h330c1:1" vType="default_016" speedFactor="1.10" vaporized="">
        <emissions CO_abs="1684.178917" CO2_abs="115589.587349" HC_abs="10.370252" PMx_abs="2.093201" NOx_abs="47.285178" fuel_abs="49.686887" electricity_abs="0"/>
    </tripinfo>
    <tripinfo id="carIn12365:1" depart="57713.00" departLane="315358244_1" departPos="5.10" departSpeed="0.00" departDelay="0.50" arrival="57773.00" arrivalLane="447569997#1_1" arrivalPos="180.93" arrivalSpeed="11.02" duration="60.00" routeLength="718.04" waitingTime="4.00" waitingCount="1" stopTime="0.00" timeLoss="15.03" rerouteNo="1" devices="tripinfo_carIn12365:1 routing_carIn12365:1 emissions_carIn12365:1" vType="default_016" speedFactor="1.36" vaporized="">
        <emissions CO_abs="2647.727230" CO2_abs="194569.839115" HC_abs="16.613054" PMx_abs="3.416121" NOx_abs="77.776733" fuel_abs="83.637150" electricity_abs="0"/>
    </tripinfo>
    <tripinfo id="h5979c1:5" depart="57669.00" departLane="399835085#1_1" departPos="5.10" departSpeed="0.00" departDelay="0.00" arrival="57779.00" arrivalLane="-315358254#1_1" arrivalPos="137.16" arrivalSpeed="12.30" duration="110.00" routeLength="659.33" waitingTime="8.00" waitingCount="1" stopTime="0.00" timeLoss="27.77" rerouteNo="1" devices="tripinfo_h5979c1:5 routing_h5979c1:5 emissions_h5979c1:5" vType="default_016" speedFactor="0.89" vaporized="">
        <emissions CO_abs="4696.024891" CO2_abs="191722.250984" HC_abs="25.807340" PMx_abs="3.317028" NOx_abs="79.099127" fuel_abs="82.414676" electricity_abs="0"/>
    </tripinfo>
    <tripinfo id="carIn77943:1" depart="57608.00" departLane="124812856#0_1" departPos="5.10" departSpeed="0.00" departDelay="2.50" arrival="57787.00" arrivalLane="-128361102#1_1" arrivalPos="274.68" arrivalSpeed="14.11" duration="179.00" routeLength="2250.49" waitingTime="0.00" waitingCount="0" stopTime="0.00" timeLoss="21.69" rerouteNo="1" devices="tripinfo_carIn77943:1 routing_carIn77943:1 emissions_carIn77943:1" vType="default_016" speedFactor="1.04" vaporized="">
        <emissions CO_abs="5214.523206" CO2_abs="449394.279936" HC_abs="34.150554" PMx_abs="7.371127" NOx_abs="177.710106" fuel_abs="193.175014" electricity_abs="0"/>
    </tripinfo>
    <tripinfo id="carIn81046:1" depart="57611.00" departLane="124812856#0_1" departPos="5.10" departSpeed="0.00" departDelay="2.50" arrival="57789.00" arrivalLane="-128361102#1_1" arrivalPos="274.68" arrivalSpeed="13.45" duration="178.00" routeLength="2250.49" waitingTime="0.00" waitingCount="0" stopTime="0.00" timeLoss="20.58" rerouteNo="1" devices="tripinfo_carIn81046:1 routing_carIn81046:1 emissions_carIn81046:1" vType="default_016" speedFactor="1.04" vaporized="">
        <emissions CO_abs="5212.434981" CO2_abs="459778.568072" HC_abs="34.423425" PMx_abs="7.485715" NOx_abs="181.231322" fuel_abs="197.638779" electricity_abs="0"/>
    </tripinfo>
    <tripinfo id="h11737c1:1" depart="57665.00" departLane="272042143_1" departPos="5.10" departSpeed="0.00" departDelay="1.50" arrival="57797.00" arrivalLane="-315358254#1_1" arrivalPos="137.16" arrivalSpeed="13.43" duration="132.00" routeLength="1596.88" waitingTime="0.00" waitingCount="0" stopTime="0.00" timeLoss="18.37" rerouteNo="1" devices="tripinfo_h11737c1:1 routing_h11737c1:1 emissions_h11737c1:1" vType="default_016" speedFactor="1.03" vaporized="">
        <emissions CO_abs="4139.635658" CO2_abs="317877.756461" HC_abs="26.263227" PMx_abs="5.291345" NOx_abs="126.635983" fuel_abs="136.642026" electricity_abs="0"/>
    </tripinfo>
    <tripinfo id="carIn27009:1" depart="57673.00" departLane="-447569998#1_1" departPos="5.10" departSpeed="0.00" departDelay="0.50" arrival="57797.00" arrivalLane="-26677539_1" arrivalPos="152.75" arrivalSpeed="6.95" duration="124.00" routeLength="699.63" waitingTime="23.00" waitingCount="1" stopTime="0.00" timeLoss="37.34" rerouteNo="1" devices="tripinfo_carIn27009:1 routing_carIn27009:1 emissions_carIn27009:1" vType="default_015" speedFactor="0.97" vaporized="">
        <emissions CO_abs="7484.082776" CO2_abs="237627.174116" HC_abs="39.565210" PMx_abs="4.383788" NOx_abs="99.699556" fuel_abs="102.148611" electricity_abs="0"/>
    </tripinfo>
    <tripinfo id="carIn86816:1" depart="57617.00" departLane="128361102#0_1" departPos="5.10" departSpeed="0.00" departDelay="0.80" arrival="57799.00" arrivalLane="201956811#0_1" arrivalPos="40.40" arrivalSpeed="13.92" duration="182.00" routeLength="2067.33" waitingTime="10.00" waitingCount="1" stopTime="0.00" timeLoss="33.27" rerouteNo="1" devices="tripinfo_carIn86816:1 routing_carIn86816:1 emissions_carIn86816:1" vType="default_016" speedFactor="1.02" vaporized="">
        <emissions CO_abs="5792.521942" CO2_abs="438119.539208" HC_abs="36.590084" PMx_abs="7.330683" NOx_abs="174.787939" fuel_abs="188.328831" electricity_abs="0"/>
    </tripinfo>
    <tripinfo id="carIn102915:1" depart="57643.00" departLane="128361102#0_1" departPos="5.10" departSpeed="0.00" departDelay="0.40" arrival="57802.00" arrivalLane="201956811#0_1" arrivalPos="40.40" arrivalSpeed="15.39" duration="159.00" routeLength="2067.33" waitingTime="0.00" waitingCount="0" stopTime="0.00" timeLoss="38.64" rerouteNo="1" devices="tripinfo_carIn102915:1 routing_carIn102915:1 emissions_carIn102915:1" vType="default_016" speedFactor="1.26" vaporized="">
        <emissions CO_abs="5890.798776" CO2_abs="481606.635344" HC_abs="38.170436" PMx_abs="8.364023" NOx_abs="193.086830" fuel_abs="207.021309" electricity_abs="0"/>
    </tripinfo>
    <tripinfo id="h645c1:1" depart="57622.00" departLane="266565295#5_1" departPos="5.10" departSpeed="0.00" departDelay="0.40" arrival="57804.00" arrivalLane="-315358244_1" arrivalPos="33.95" arrivalSpeed="13.78" duration="182.00" routeLength="1910.83" waitingTime="21.00" waitingCount="3" stopTime="0.00" timeLoss="49.77" rerouteNo="1" devices="tripinfo_h645c1:1 routing_h645c1:1 emissions_h645c1:1" vType="default_016" speedFactor="1.05" vaporized="">
        <emissions CO_abs="6033.214355" CO2_abs="421098.430772" HC_abs="37.222628" PMx_abs="6.930167" NOx_abs="166.666165" fuel_abs="181.012814" electricity_abs="0"/>
    </tripinfo>
    <tripinfo id="carIn80064:1" depart="57603.00" departLane="128361109#1_1" departPos="5.10" departSpeed="0.00" departDelay="0.40" arrival="57807.00" arrivalLane="-315358254#1_1" arrivalPos="137.16" arrivalSpeed="14.72" duration="204.00" routeLength="1587.97" waitingTime="73.00" waitingCount="4" stopTime="0.00" timeLoss="122.04" rerouteNo="1" devices="tripinfo_carIn80064:1 routing_carIn80064:1 emissions_carIn80064:1" vType="default_016" speedFactor="1.10" vaporized="">
        <emissions CO_abs="17023.094172" CO2_abs="668638.384211" HC_abs="93.517012" PMx_abs="14.033995" NOx_abs="284.013292" fuel_abs="287.421802" electricity_abs="0"/>
    </tripinfo>
    <tripinfo id="carIn77438:1" depart="57614.00" departLane="124812856#0_1" departPos="5.10" departSpeed="0.00" departDelay="1.10" arrival="57807.00" arrivalLane="-128361102#1_1" arrivalPos="274.68" arrivalSpeed="12.42" duration="193.00" routeLength="2250.49" waitingTime="0.00" waitingCount="0" stopTime="0.00" timeLoss="17.93" rerouteNo="1" devices="tripinfo_carIn77438:1 routing_carIn77438:1 emissions_carIn77438:1" vType="default_016" speedFactor="0.94" vaporized="">
        <emissions CO_abs="5227.209472" CO2_abs="445535.665857" HC_abs="34.143822" PMx_abs="6.801468" NOx_abs="173.658658" fuel_abs="191.517135" electricity_abs="0"/>
    </tripinfo>
    <tripinfo id="carIn107282:1" depart="57749.00" departLane="-447569998#1_1" departPos="5.10" departSpeed="0.00" departDelay="0.00" arrival="57808.00" arrivalLane="315358242#0_1" arrivalPos="165.37" arrivalSpeed="11.66" duration="59.00" routeLength="448.50" waitingTime="4.00" waitingCount="1" stopTime="0.00" timeLoss="13.57" rerouteNo="1" devices="tripinfo_carIn107282:1 routing_carIn107282:1 emissions_carIn107282:1" vType="default_016" speedFactor="0.93" vaporized="">
        <emissions CO_abs="2410.891728" CO2_abs="125404.276618" HC_abs="13.861883" PMx_abs="1.977922" NOx_abs="50.038697" fuel_abs="53.906679" electricity_abs="0"/>
    </tripinfo>
    <tripinfo id="h19804c1:3" depart="57617.00" departLane="124812856#0_1" departPos="5.10" departSpeed="0.00" departDelay="1.50" arrival="57809.00" arrivalLane="-128361102#1_1" arrivalPos="274.68" arrivalSpeed="13.16" duration="192.00" routeLength="2250.49" waitingTime="0.00" waitingCount="0" stopTime="0.00" timeLoss="18.85" rerouteNo="1" devices="tripinfo_h19804c1:3 routing_h19804c1:3 emissions_h19804c1:3" vType="default_016" speedFactor="0.95" vaporized="">
        <emissions CO_abs="5517.318535" CO2_abs="462132.902031" HC_abs="35.895339" PMx_abs="7.296474" NOx_abs="181.786824" fuel_abs="198.651295" electricity_abs="0"/>
    </tripinfo>
    <tripinfo id="carIn48184:1" depart="57613.00" departLane="-306240162#1_0" departPos="5.10" departSpeed="0.00" departDelay="0.70" arrival="57813.00" arrivalLane="386687235_1" arrivalPos="80.84" arrivalSpeed="14.62" duration="200.00" routeLength="2257.41" waitingTime="21.00" waitingCount="5" stopTime="0.00" timeLoss="60.58" rerouteNo="1" devices="tripinfo_carIn48184:1 routing_carIn48184:1 emissions_carIn48184:1" vType="default_016" speedFactor="1.06" vaporized="">
        <emissions CO_abs="9241.606359" CO2_abs="582675.749914" HC_abs="55.742080" PMx_abs="10.725540" NOx_abs="236.981710" fuel_abs="250.467349" electricity_abs="0"/>
    </tripinfo>
    <tripinfo id="carIn82220:1" depart="57619.00" departLane="-306240162#1_0" departPos="5.10" departSpeed="0.00" departDelay="3.50" arrival="57813.00" arrivalLane="386687235_2" arrivalPos="80.84" arrivalSpeed="14.76" duration="194.00" routeLength="2257.41" waitingTime="13.00" waitingCount="4" stopTime="0.00" timeLoss="56.58" rerouteNo="1" devices="tripinfo_carIn82220:1 routing_carIn82220:1 emissions_carIn82220:1" vType="default_016" speedFactor="1.08" vaporized="">
        <emissions CO_abs="9227.406360" CO2_abs="585072.929686" HC_abs="55.845768" PMx_abs="11.053825" NOx_abs="240.097781" fuel_abs="251.497295" electricity_abs="0"/>
    </tripinfo>
    <tripinfo id="carIn50326:1" depart="57651.00" departLane="128361102#0_1" departPos="5.10" departSpeed="0.00" departDelay="0.30" arrival="57823.00" arrivalLane="18809673#0_1" arrivalPos="473.56" arrivalSpeed="12.77" duration="172.00" routeLength="1591.07" waitingTime="16.00" waitingCount="2" stopTime="0.00" timeLoss="39.82" rerouteNo="1" devices="tripinfo_carIn50326:1 routing_carIn50326:1 emissions_carIn50326:1" vType="default_016" speedFactor="0.98" vaporized="">
        <emissions CO_abs="6179.164661" CO2_abs="379757.109702" HC_abs="36.937659" PMx_abs="6.044858" NOx_abs="150.287984" fuel_abs="163.242714" electricity_abs="0"/>
    </tripinfo>
    <tripinfo id="randUni15030:1" depart="57735.00" departLane="386687232#0_1" departPos="5.10" departSpeed="0.00" departDelay="0.10" arrival="57823.00" arrivalLane="26677539_1" arrivalPos="151.98" arrivalSpeed="8.60" duration="88.00" routeLength="919.89" waitingTime="0.00" waitingCount="0" stopTime="0.00" timeLoss="11.89" rerouteNo="1" devices="tripinfo_randUni15030:1 routing_randUni15030:1 emissions_randUni15030:1" vType="random_016" speedFactor="1.10" vaporized="">
        <emissions CO_abs="3151.166749" CO2_abs="207104.756817" HC_abs="19.081752" PMx_abs="3.399953" NOx_abs="82.718848" fuel_abs="89.025855" electricity_abs="0"/>
    </tripinfo>
    <tripinfo id="h9563c2:5" depart="57631.00" departLane="315358244_1" departPos="5.10" departSpeed="0.00" departDelay="0.70" arrival="57831.00" arrivalLane="386687235_1" arrivalPos="80.84" arrivalSpeed="11.03" duration="200.00" routeLength="1186.14" waitingTime="79.00" waitingCount="1" stopTime="0.00" timeLoss="96.21" rerouteNo="1" devices="tripinfo_h9563c2:5 routing_h9563c2:5 emissions_h9563c2:5" vType="default_016" speedFactor="0.84" vaporized="">
        <emissions CO_abs="15969.634855" CO2_abs="456842.866741" HC_abs="83.319908" PMx_abs="8.786971" NOx_abs="191.777293" fuel_abs="196.383728" electricity_abs="0"/>
    </tripinfo>
    <tripinfo id="randUni33724:1" depart="57646.00" departLane="128361102#0_1" departPos="5.10" departSpeed="0.00" departDelay="1.20" arrival="57832.00" arrivalLane="201956811#0_1" arrivalPos="40.40" arrivalSpeed="13.44" duration="186.00" routeLength="2067.33" waitingTime="15.00" waitingCount="2" stopTime="0.00" timeLoss="41.05" rerouteNo="1" devices="tripinfo_randUni33724:1 routing_randUni33724:1 emissions_randUni33724:1" vType="random_016" speedFactor="1.04" vaporized="">
        <emissions CO_abs="7148.817129" CO2_abs="488949.780698" HC_abs="43.914508" PMx_abs="8.482941" NOx_abs="196.908618" fuel_abs="210.178697" electricity_abs="0"/>
    </tripinfo>
    <tripinfo id="carIn129809:1" depart="57729.00" departLane="-447569998#1_1" departPos="5.10" departSpeed="0.00" departDelay="1.00" arrival="57832.00" arrivalLane="-315358244_1" arrivalPos="33.95" arrivalSpeed="16.25" duration="103.00" routeLength="706.49" waitingTime="34.00" waitingCount="2" stopTime="0.00" timeLoss="54.94" rerouteNo="1" devices="tripinfo_carIn129809:1 routing_carIn129809:1 emissions_carIn129809:1" vType="default_015" speedFactor="1.25" vaporized="">
        <emissions CO_abs="7628.410893" CO2_abs="282820.581690" HC_abs="41.385966" PMx_abs="5.635425" NOx_abs="119.214456" fuel_abs="121.574351" electricity_abs="0"/>
    </tripinfo>
    <tripinfo id="carIn462:1" depart="57622.00" departLane="-306240162#1_0" departPos="5.10" departSpeed="0.00" departDelay="4.80" arrival="57834.00" arrivalLane="386687235_1" arrivalPos="80.84" arrivalSpeed="13.14" duration="212.00" routeLength="2257.41" waitingTime="19.00" waitingCount="3" stopTime="0.00" timeLoss="57.82" rerouteNo="1" devices="tripinfo_carIn462:1 routing_carIn462:1 emissions_carIn462:1" vType="default_016" speedFactor="0.96" vaporized="">
        <emissions CO_abs="9423.421634" CO2_abs="574203.648823" HC_abs="56.361505" PMx_abs="10.122898" NOx_abs="231.975836" fuel_abs="246.826391" electricity_abs="0"/>
    </tripinfo>
    <tripinfo id="h16072c2:3" depart="57663.00" departLane="315358254#0_1" departPos="5.10" departSpeed="0.00" departDelay="2.50" arrival="57834.00" arrivalLane="386687235_2" arrivalPos="80.84" arrivalSpeed="12.44" duration="171.00" routeLength="1611.92" waitingTime="17.00" waitingCount="3" stopTime="0.00" timeLoss="41.92" rerouteNo="1" devices="tripinfo_h16072c2:3 routing_h16072c2:3 emissions_h16072c2:3" vType="default_016" speedFactor="0.91" vaporized="">
        <emissions CO_abs="6418.430459" CO2_abs="378403.690111" HC_abs="38.054409" PMx_abs="6.398127" NOx_abs="152.647903" fuel_abs="162.660533" electricity_abs="0"/>
    </tripinfo>
    <tripinfo id="carIn107842:1" depart="57623.00" departLane="124812856#0_1" departPos="5.10" departSpeed="0.00" departDelay="1.90" arrival="57836.00" arrivalLane="-128361102#1_1" arrivalPos="274.68" arrivalSpeed="12.87" duration="213.00" routeLength="2250.49" waitingTime="17.00" waitingCount="1" stopTime="0.00" timeLoss="50.48" rerouteNo="1" devices="tripinfo_carIn107842:1 routing_carIn107842:1 emissions_carIn107842:1" vType="default_016" speedFactor="1.01" vaporized="">
        <emissions CO_abs="7981.421961" CO2_abs="511809.645475" HC_abs="48.287791" PMx_abs="8.670215" NOx_abs="205.428760" fuel_abs="220.005878" electricity_abs="0"/>
    </tripinfo>
    <tripinfo id="carIn126288:1" depart="57674.00" departLane="272042143_1" departPos="5.10" departSpeed="0.00" departDelay="0.00" arrival="57839.00" arrivalLane="-315358254#1_1" arrivalPos="137.16" arrivalSpeed="10.22" duration="165.00" routeLength="1596.88" waitingTime="9.00" waitingCount="1" stopTime="0.00" timeLoss="24.48" rerouteNo="1" devices="tripinfo_carIn126288:1 routing_carIn126288:1 emissions_carIn126288:1" vType="default_016" speedFactor="0.83" vaporized="">
        <emissions CO_abs="5396.834802" CO2_abs="334314.703205" HC_abs="32.295450" PMx_abs="5.222915" NOx_abs="132.350208" fuel_abs="143.708845" electricity_abs="0"/>
    </tripinfo>
    <tripinfo id="randUni10474:1" depart="57605.00" departLane="124812856#0_1" departPos="5.10" departSpeed="0.00" departDelay="0.20" arrival="57841.00" arrivalLane="306240162#0_0" arrivalPos="220.43" arrivalSpeed="16.19" duration="236.00" routeLength="3049.32" waitingTime="6.00" waitingCount="1" stopTime="0.00" timeLoss="37.16" rerouteNo="1" devices="tripinfo_randUni10474:1 routing_randUni10474:1 emissions_randUni10474:1" vType="random_016" speedFactor="0.99" vaporized="">
        <emissions CO_abs="9230.587095" CO2_abs="710827.206002" HC_abs="58.698340" PMx_abs="12.659552" NOx_abs="286.440228" fuel_abs="305.553068" electricity_abs="0"/>
    </tripinfo>
    <tripinfo id="carIn12152:1" depart="57647.00" departLane="24599188#0.94_1" departPos="5.10" departSpeed="0.00" departDelay="0.50" arrival="57841.00" arrivalLane="-315358254#1_1" arrivalPos="137.16" arrivalSpeed="13.62" duration="194.00" routeLength="2034.31" waitingTime="9.00" waitingCount="2" stopTime="0.00" timeLoss="36.86" rerouteNo="1" devices="tripinfo_carIn12152:1 routing_carIn12152:1 emissions_carIn12152:1" vType="default_016" speedFactor="1.01" vaporized="">
        <emissions CO_abs="6866.490447" CO2_abs="470546.600513" HC_abs="42.227552" PMx_abs="7.738034" NOx_abs="187.687746" fuel_abs="202.268517" electricity_abs="0"/>
    </tripinfo>
    <tripinfo id="h15382c1:3" depart="57626.00" departLane="124812856#0_1" departPos="5.10" departSpeed="0.00" departDelay="3.80" arrival="57842.00" arrivalLane="-128361102#1_1" arrivalPos="274.68" arrivalSpeed="12.24" duration="216.00" routeLength="2250.49" waitingTime="4.00" waitingCount="1" stopTime="0.00" timeLoss="33.29" rerouteNo="1" devices="tripinfo_h15382c1:3 routing_h15382c1:3 emissions_h15382c1:3" vType="default_016" speedFactor="0.90" vaporized="">
        <emissions CO_abs="6557.441523" CO2_abs="475617.290337" HC_abs="40.913132" PMx_abs="7.577944" NOx_abs="188.795700" fuel_abs="204.448176" electricity_abs="0"/>
    </tripinfo>
    <tripinfo id="carIn3969:1" depart="57629.00" departLane="124812856#0_1" departPos="5.10" departSpeed="0.00" departDelay="5.30" arrival="57843.00" arrivalLane="-128361102#1_1" arrivalPos="274.68" arrivalSpeed="12.73" duration="214.00" routeLength="2250.49" waitingTime="3.00" waitingCount="1" stopTime="0.00" timeLoss="41.09" rerouteNo="1" devices="tripinfo_carIn3969:1 routing_carIn3969:1 emissions_carIn3969:1" vType="default_016" speedFactor="0.95" vaporized="">