<?xml version="1.0" encoding="UTF-8"?>

<!-- generated on 2021-10-26 19:34:30 by Eclipse SUMO sumo Version 1.10.0
<configuration xmlns:xsi="http://www.w3.org/2001/XMLSchema-instance" xsi:noNamespaceSchemaLocation="http://sumo.dlr.de/xsd/sumoConfiguration.xsd">

    <input>
        <net-file value="/Users/behradkoohy/sumo-scratchpad/RESCO/environments/ingolstadt21/ingolstadt21.net.xml"/>
        <route-files value="/Users/behradkoohy/sumo-scratchpad/RESCO/environments/ingolstadt21/ingolstadt21.rou.xml"/>
    </input>

    <output>
        <tripinfo-output value="/Users/behradkoohy/sumo-scratchpad/RESCO/logs/MPLight-tr0-ingolstadt21-21-mplight-pressure/tripinfo_32.xml"/>
        <tripinfo-output.write-unfinished value="true"/>
    </output>

    <time>
        <begin value="57600"/>
        <end value="61200"/>
    </time>

    <processing>
        <time-to-teleport value="-1"/>
    </processing>

    <report>
        <no-warnings value="true"/>
        <no-step-log value="true"/>
    </report>

    <emissions>
        <device.emissions.probability value="1"/>
    </emissions>

    <traci_server>
        <remote-port value="63579"/>
    </traci_server>

    <random_number>
        <random value="true"/>
    </random_number>

</configuration>
-->

<tripinfos xmlns:xsi="http://www.w3.org/2001/XMLSchema-instance" xsi:noNamespaceSchemaLocation="http://sumo.dlr.de/xsd/tripinfo_file.xsd">
    <tripinfo id="h15454c2:3" depart="57612.00" departLane="24608844_1" departPos="5.10" departSpeed="0.00" departDelay="0.50" arrival="57653.00" arrivalLane="32978638#0_1" arrivalPos="49.29" arrivalSpeed="12.60" duration="41.00" routeLength="354.79" waitingTime="0.00" waitingCount="0" stopTime="0.00" timeLoss="5.89" rerouteNo="1" devices="tripinfo_h15454c2:3 routing_h15454c2:3 emissions_h15454c2:3" vType="default_016" speedFactor="0.97" vaporized="">
        <emissions CO_abs="1919.444142" CO2_abs="96277.987463" HC_abs="10.986345" PMx_abs="1.709487" NOx_abs="39.827270" fuel_abs="41.386108" electricity_abs="0"/>
    </tripinfo>
    <tripinfo id="carIn60260:1" depart="57606.00" departLane="315358254#0_1" departPos="5.10" departSpeed="0.00" departDelay="0.90" arrival="57664.00" arrivalLane="399835085#1_1" arrivalPos="212.23" arrivalSpeed="6.94" duration="58.00" routeLength="430.98" waitingTime="0.00" waitingCount="0" stopTime="0.00" timeLoss="11.08" rerouteNo="1" devices="tripinfo_carIn60260:1 routing_carIn60260:1 emissions_carIn60260:1" vType="default_016" speedFactor="0.99" vaporized="">
        <emissions CO_abs="2679.000375" CO2_abs="126219.962907" HC_abs="15.116080" PMx_abs="2.133722" NOx_abs="51.635158" fuel_abs="54.257274" electricity_abs="0"/>
    </tripinfo>
    <tripinfo id="carIn53971:1" depart="57640.00" departLane="272042143_1" departPos="5.10" departSpeed="0.00" departDelay="0.80" arrival="57690.00" arrivalLane="24634414#1_1" arrivalPos="162.19" arrivalSpeed="8.06" duration="50.00" routeLength="493.04" waitingTime="0.00" waitingCount="0" stopTime="0.00" timeLoss="9.29" rerouteNo="1" devices="tripinfo_carIn53971:1 routing_carIn53971:1 emissions_carIn53971:1" vType="default_016" speedFactor="1.12" vaporized="">
        <emissions CO_abs="2485.012645" CO2_abs="141512.955993" HC_abs="14.651734" PMx_abs="2.617525" NOx_abs="58.937351" fuel_abs="60.830418" electricity_abs="0"/>
    </tripinfo>
    <tripinfo id="h7800c1:5" depart="57696.00" departLane="-447569998#1_1" departPos="5.10" departSpeed="0.00" departDelay="0.00" arrival="57720.00" arrivalLane="-447569998#1_2" arrivalPos="180.76" arrivalSpeed="8.41" duration="24.00" routeLength="175.66" waitingTime="0.00" waitingCount="0" stopTime="0.00" timeLoss="3.22" rerouteNo="1" devices="tripinfo_h7800c1:5 routing_h7800c1:5 emissions_h7800c1:5" vType="default_016" speedFactor="1.02" vaporized="">
        <emissions CO_abs="1147.088804" CO2_abs="51899.585639" HC_abs="6.426357" PMx_abs="0.908792" NOx_abs="21.508231" fuel_abs="22.309687" electricity_abs="0"/>
    </tripinfo>
    <tripinfo id="h7181c1:1" depart="57660.00" departLane="315358254#0_1" departPos="5.10" departSpeed="0.00" departDelay="0.10" arrival="57731.00" arrivalLane="306240162#0_0" arrivalPos="220.43" arrivalSpeed="15.51" duration="71.00" routeLength="932.35" waitingTime="7.00" waitingCount="1" stopTime="0.00" timeLoss="18.52" rerouteNo="1" devices="tripinfo_h7181c1:1 routing_h7181c1:1 emissions_h7181c1:1" vType="default_016" speedFactor="0.98" vaporized="">
        <emissions CO_abs="3472.503469" CO2_abs="221950.385390" HC_abs="21.138478" PMx_abs="4.368630" NOx_abs="91.968105" fuel_abs="95.406517" electricity_abs="0"/>
    </tripinfo>
    <tripinfo id="h3688c1:1" depart="57625.00" departLane="201201950#1_1" departPos="5.10" departSpeed="0.00" departDelay="0.00" arrival="57732.00" arrivalLane="32978638#0_1" arrivalPos="49.29" arrivalSpeed="12.58" duration="107.00" routeLength="1089.75" waitingTime="9.00" waitingCount="1" stopTime="0.00" timeLoss="22.23" rerouteNo="1" devices="tripinfo_h3688c1:1 routing_h3688c1:1 emissions_h3688c1:1" vType="default_016" speedFactor="0.94" vaporized="">
        <emissions CO_abs="3990.475331" CO2_abs="255169.016250" HC_abs="24.149465" PMx_abs="4.379260" NOx_abs="103.158199" fuel_abs="109.686534" electricity_abs="0"/>
    </tripinfo>
    <tripinfo id="h12244c1:3" depart="57612.00" departLane="315358244_1" departPos="5.10" departSpeed="0.00" departDelay="0.40" arrival="57741.00" arrivalLane="386687235_1" arrivalPos="80.84" arrivalSpeed="14.27" duration="129.00" routeLength="1186.14" waitingTime="26.00" waitingCount="3" stopTime="0.00" timeLoss="48.01" rerouteNo="1" devices="tripinfo_h12244c1:3 routing_h12244c1:3 emissions_h12244c1:3" vType="default_016" speedFactor="1.07" vaporized="">
        <emissions CO_abs="7163.251852" CO2_abs="325490.713690" HC_abs="40.218543" PMx_abs="6.145233" NOx_abs="134.949555" fuel_abs="139.915835" electricity_abs="0"/>
    </tripinfo>
    <tripinfo id="h4538c1:1" depart="57701.00" departLane="-10427692#1_1" departPos="5.10" departSpeed="0.00" departDelay="0.00" arrival="57743.00" arrivalLane="-128361102#1_1" arrivalPos="274.68" arrivalSpeed="15.05" duration="42.00" routeLength="440.74" waitingTime="2.00" waitingCount="1" stopTime="0.00" timeLoss="13.41" rerouteNo="1" devices="tripinfo_h4538c1:1 routing_h4538c1:1 emissions_h4538c1:1" vType="default_016" speedFactor="1.12" vaporized="">
        <emissions CO_abs="2003.066734" CO2_abs="118866.373656" HC_abs="11.916438" PMx_abs="2.149850" NOx_abs="48.558424" fuel_abs="51.095679" electricity_abs="0"/>
    </tripinfo>
    <tripinfo id="S5R_frequency1.2" depart="57624.00" departLane="315358250#0_1" departPos="12.10" departSpeed="0.00" departDelay="12.40" arrival="57758.00" arrivalLane="386687235_1" arrivalPos="80.84" arrivalSpeed="12.33" duration="134.00" routeLength="1115.62" waitingTime="19.00" waitingCount="4" stopTime="0.00" timeLoss="52.99" rerouteNo="1" devices="tripinfo_S5R_frequency1.2 routing_S5R_frequency1.2 emissions_S5R_frequency1.2" vType="bus" speedFactor="1.00" vaporized="">
        <emissions CO_abs="2181.205668" CO2_abs="1274612.078755" HC_abs="463.205984" PMx_abs="231.605319" NOx_abs="10142.334624" fuel_abs="543.574735" electricity_abs="0"/>
    </tripinfo>
    <tripinfo id="h5979c1:5" depart="57669.00" departLane="399835085#1_1" departPos="5.10" departSpeed="0.00" departDelay="0.00" arrival="57759.00" arrivalLane="-315358254#1_1" arrivalPos="137.16" arrivalSpeed="12.75" duration="90.00" routeLength="659.33" waitingTime="0.00" waitingCount="0" stopTime="0.00" timeLoss="11.07" rerouteNo="1" devices="tripinfo_h5979c1:5 routing_h5979c1:5 emissions_h5979c1:5" vType="default_016" speedFactor="0.94" vaporized="">
        <emissions CO_abs="3510.679776" CO2_abs="161667.183616" HC_abs="19.683054" PMx_abs="2.545727" NOx_abs="64.979558" fuel_abs="69.495065" electricity_abs="0"/>
    </tripinfo>
    <tripinfo id="h3568c1:3" depart="57656.00" departLane="266565295#5_1" departPos="5.10" departSpeed="0.00" departDelay="0.80" arrival="57762.00" arrivalLane="-24634415_1" arrivalPos="62.03" arrivalSpeed="11.26" duration="106.00" routeLength="807.40" waitingTime="12.00" waitingCount="1" stopTime="0.00" timeLoss="30.08" rerouteNo="1" devices="tripinfo_h3568c1:3 routing_h3568c1:3 emissions_h3568c1:3" vType="default_016" speedFactor="0.85" vaporized="">
        <emissions CO_abs="5535.214704" CO2_abs="245401.332039" HC_abs="30.940499" PMx_abs="4.491557" NOx_abs="102.086940" fuel_abs="105.488727" electricity_abs="0"/>
    </tripinfo>
    <tripinfo id="carIn30817:1" depart="57681.00" departLane="315358244_1" departPos="5.10" departSpeed="0.00" departDelay="0.20" arrival="57765.00" arrivalLane="447569997#1_1" arrivalPos="180.93" arrivalSpeed="7.56" duration="84.00" routeLength="718.04" waitingTime="5.00" waitingCount="1" stopTime="0.00" timeLoss="19.42" rerouteNo="1" devices="tripinfo_carIn30817:1 routing_carIn30817:1 emissions_carIn30817:1" vType="default_016" speedFactor="0.96" vaporized="">
        <emissions CO_abs="2910.058473" CO2_abs="161261.101295" HC_abs="16.993425" PMx_abs="2.675891" NOx_abs="65.027891" fuel_abs="69.319860" electricity_abs="0"/>
    </tripinfo>
    <tripinfo id="h317c2:1" depart="57707.00" departLane="-32978638#0_1" departPos="5.10" departSpeed="0.00" departDelay="0.10" arrival="57765.00" arrivalLane="-266565295#5_1" arrivalPos="172.76" arrivalSpeed="12.92" duration="58.00" routeLength="370.53" waitingTime="20.00" waitingCount="1" stopTime="0.00" timeLoss="30.64" rerouteNo="1" devices="tripinfo_h317c2:1 routing_h317c2:1 emissions_h317c2:1" vType="default_016" speedFactor="1.01" vaporized="">
        <emissions CO_abs="4380.755719" CO2_abs="155238.884457" HC_abs="23.576951" PMx_abs="3.071162" NOx_abs="65.673205" fuel_abs="66.731747" electricity_abs="0"/>
    </tripinfo>
    <tripinfo id="carIn80064:1" depart="57603.00" departLane="128361109#1_1" departPos="5.10" departSpeed="0.00" departDelay="0.40" arrival="57767.00" arrivalLane="-315358254#1_1" arrivalPos="137.16" arrivalSpeed="11.46" duration="164.00" routeLength="1587.97" waitingTime="36.00" waitingCount="2" stopTime="0.00" timeLoss="63.78" rerouteNo="1" devices="tripinfo_carIn80064:1 routing_carIn80064:1 emissions_carIn80064:1" vType="default_016" speedFactor="0.90" vaporized="">
        <emissions CO_abs="10750.298728" CO2_abs="503428.697035" HC_abs="60.801680" PMx_abs="10.018455" NOx_abs="210.665416" fuel_abs="216.403544" electricity_abs="0"/>
    </tripinfo>
    <tripinfo id="h330c1:1" depart="57736.00" departLane="-32978638#0_1" departPos="5.10" departSpeed="0.00" departDelay="0.20" arrival="57769.00" arrivalLane="-266565295#5_1" arrivalPos="172.76" arrivalSpeed="13.18" duration="33.00" routeLength="370.53" waitingTime="0.00" waitingCount="0" stopTime="0.00" timeLoss="5.88" rerouteNo="1" devices="tripinfo_h330c1:1 routing_h330c1:1 emissions_h330c1:1" vType="default_016" speedFactor="1.04" vaporized="">
        <emissions CO_abs="1591.704413" CO2_abs="107822.294513" HC_abs="9.789160" PMx_abs="1.906912" NOx_abs="43.876271" fuel_abs="46.348155" electricity_abs="0"/>
    </tripinfo>
    <tripinfo id="carIn27009:1" depart="57673.00" departLane="-447569998#1_1" departPos="5.10" departSpeed="0.00" departDelay="0.50" arrival="57772.00" arrivalLane="-26677539_1" arrivalPos="152.75" arrivalSpeed="7.25" duration="99.00" routeLength="699.63" waitingTime="0.00" waitingCount="0" stopTime="0.00" timeLoss="11.18" rerouteNo="1" devices="tripinfo_carIn27009:1 routing_carIn27009:1 emissions_carIn27009:1" vType="default_015" speedFactor="0.96" vaporized="">
        <emissions CO_abs="3563.662396" CO2_abs="163787.139839" HC_abs="19.993999" PMx_abs="2.705567" NOx_abs="66.845874" fuel_abs="70.406153" electricity_abs="0"/>
    </tripinfo>
    <tripinfo id="h9563c2:5" depart="57631.00" departLane="315358244_1" departPos="5.10" departSpeed="0.00" departDelay="0.70" arrival="57773.00" arrivalLane="386687235_1" arrivalPos="80.84" arrivalSpeed="14.42" duration="142.00" routeLength="1186.14" waitingTime="35.00" waitingCount="3" stopTime="0.00" timeLoss="59.75" rerouteNo="1" devices="tripinfo_h9563c2:5 routing_h9563c2:5 emissions_h9563c2:5" vType="default_016" speedFactor="1.05" vaporized="">
        <emissions CO_abs="8543.586121" CO2_abs="341450.821465" HC_abs="46.888510" PMx_abs="6.487459" NOx_abs="141.770112" fuel_abs="146.777297" electricity_abs="0"/>
    </tripinfo>
    <tripinfo id="h3326c1:2" depart="57656.00" departLane="22716069#0_1" departPos="5.10" departSpeed="0.00" departDelay="0.00" arrival="57776.00" arrivalLane="24634517#13_1" arrivalPos="111.62" arrivalSpeed="12.04" duration="120.00" routeLength="1312.81" waitingTime="0.00" waitingCount="0" stopTime="0.00" timeLoss="15.32" rerouteNo="1" devices="tripinfo_h3326c1:2 routing_h3326c1:2 emissions_h3326c1:2" vType="default_016" speedFactor="0.93" vaporized="">
        <emissions CO_abs="4051.333964" CO2_abs="287961.529101" HC_abs="25.187140" PMx_abs="4.840281" NOx_abs="115.889770" fuel_abs="123.782425" electricity_abs="0"/>
    </tripinfo>
    <tripinfo id="h3154c1:1" depart="57658.00" departLane="24634507_1" departPos="5.10" departSpeed="0.00" departDelay="0.00" arrival="57780.00" arrivalLane="-266565295#5_1" arrivalPos="172.76" arrivalSpeed="11.44" duration="122.00" routeLength="1206.22" waitingTime="2.00" waitingCount="1" stopTime="0.00" timeLoss="18.88" rerouteNo="1" devices="tripinfo_h3154c1:1 routing_h3154c1:1 emissions_h3154c1:1" vType="default_016" speedFactor="0.87" vaporized="">
        <emissions CO_abs="4077.679387" CO2_abs="274339.648082" HC_abs="24.931662" PMx_abs="4.376817" NOx_abs="109.205297" fuel_abs="117.927469" electricity_abs="0"/>
    </tripinfo>
    <tripinfo id="carIn121703:1" depart="57647.00" departLane="386687232#0_1" departPos="5.10" departSpeed="0.00" departDelay="0.30" arrival="57783.00" arrivalLane="-315358244_1" arrivalPos="33.95" arrivalSpeed="12.62" duration="136.00" routeLength="1157.39" waitingTime="24.00" waitingCount="2" stopTime="0.00" timeLoss="45.42" rerouteNo="1" devices="tripinfo_carIn121703:1 routing_carIn121703:1 emissions_carIn121703:1" vType="default_016" speedFactor="0.93" vaporized="">
        <emissions CO_abs="6846.247363" CO2_abs="315617.134216" HC_abs="38.574553" PMx_abs="5.786863" NOx_abs="130.516965" fuel_abs="135.671677" electricity_abs="0"/>
    </tripinfo>
    <tripinfo id="h11737c1:1" depart="57665.00" departLane="272042143_1" departPos="5.10" departSpeed="0.00" departDelay="1.50" arrival="57792.00" arrivalLane="-315358254#1_1" arrivalPos="137.16" arrivalSpeed="14.14" duration="127.00" routeLength="1596.88" waitingTime="0.00" waitingCount="0" stopTime="0.00" timeLoss="12.99" rerouteNo="1" devices="tripinfo_h11737c1:1 routing_h11737c1:1 emissions_h11737c1:1" vType="default_016" speedFactor="1.02" vaporized="">
        <emissions CO_abs="3420.978972" CO2_abs="301012.820206" HC_abs="22.577982" PMx_abs="4.788550" NOx_abs="117.968287" fuel_abs="129.392479" electricity_abs="0"/>
    </tripinfo>
    <tripinfo id="carIn107282:1" depart="57749.00" departLane="-447569998#1_1" departPos="5.10" departSpeed="0.00" departDelay="0.00" arrival="57792.00" arrivalLane="315358242#0_1" arrivalPos="165.37" arrivalSpeed="14.10" duration="43.00" routeLength="448.50" waitingTime="0.00" waitingCount="0" stopTime="0.00" timeLoss="5.58" rerouteNo="1" devices="tripinfo_carIn107282:1 routing_carIn107282:1 emissions_carIn107282:1" vType="default_016" speedFactor="1.11" vaporized="">
        <emissions CO_abs="1854.297240" CO2_abs="114586.426010" HC_abs="11.089588" PMx_abs="1.968060" NOx_abs="46.429490" fuel_abs="49.255967" electricity_abs="0"/>
    </tripinfo>
    <tripinfo id="carIn12365:1" depart="57713.00" departLane="315358244_1" departPos="5.10" departSpeed="0.00" departDelay="0.50" arrival="57793.00" arrivalLane="447569997#1_1" arrivalPos="180.93" arrivalSpeed="8.09" duration="80.00" routeLength="718.04" waitingTime="7.00" waitingCount="1" stopTime="0.00" timeLoss="20.23" rerouteNo="1" devices="tripinfo_carIn12365:1 routing_carIn12365:1 emissions_carIn12365:1" vType="default_016" speedFactor="1.04" vaporized="">
        <emissions CO_abs="3308.485768" CO2_abs="179489.111193" HC_abs="19.248111" PMx_abs="3.102387" NOx_abs="72.880919" fuel_abs="77.155270" electricity_abs="0"/>
    </tripinfo>
    <tripinfo id="carIn107084:1" depart="57601.00" departLane="124812856#0_1" departPos="5.10" departSpeed="0.00" departDelay="0.70" arrival="57804.00" arrivalLane="-128361102#1_1" arrivalPos="274.68" arrivalSpeed="13.89" duration="203.00" routeLength="2250.49" waitingTime="20.00" waitingCount="2" stopTime="0.00" timeLoss="46.35" rerouteNo="1" devices="tripinfo_carIn107084:1 routing_carIn107084:1 emissions_carIn107084:1" vType="default_016" speedFactor="1.05" vaporized="">
        <emissions CO_abs="7278.179050" CO2_abs="515315.010449" HC_abs="45.074067" PMx_abs="8.775481" NOx_abs="206.253189" fuel_abs="221.512037" electricity_abs="0"/>
    </tripinfo>
    <tripinfo id="carIn81860:1" depart="57712.00" departLane="128361102#0_1" departPos="5.10" departSpeed="0.00" departDelay="0.60" arrival="57805.00" arrivalLane="-24634517#17_1" arrivalPos="6.43" arrivalSpeed="8.89" duration="93.00" routeLength="1229.64" waitingTime="0.00" waitingCount="0" stopTime="0.00" timeLoss="10.13" rerouteNo="1" devices="tripinfo_carIn81860:1 routing_carIn81860:1 emissions_carIn81860:1" vType="default_016" speedFactor="1.09" vaporized="">
        <emissions CO_abs="2671.313208" CO2_abs="248915.446719" HC_abs="17.880815" PMx_abs="3.953063" NOx_abs="96.878862" fuel_abs="106.997981" electricity_abs="0"/>
    </tripinfo>
    <tripinfo id="carIn86816:1" depart="57617.00" departLane="128361102#0_1" departPos="5.10" departSpeed="0.00" departDelay="0.80" arrival="57823.00" arrivalLane="201956811#0_1" arrivalPos="40.40" arrivalSpeed="7.92" duration="206.00" routeLength="2067.33" waitingTime="7.00" waitingCount="1" stopTime="0.00" timeLoss="29.57" rerouteNo="1" devices="tripinfo_carIn86816:1 routing_carIn86816:1 emissions_carIn86816:1" vType="default_016" speedFactor="0.86" vaporized="">
        <emissions CO_abs="5817.169455" CO2_abs="415284.858883" HC_abs="36.101936" PMx_abs="6.450316" NOx_abs="163.989177" fuel_abs="178.514072" electricity_abs="0"/>
    </tripinfo>
    <tripinfo id="h16072c2:3" depart="57663.00" departLane="315358254#0_1" departPos="5.10" departSpeed="0.00" departDelay="2.50" arrival="57823.00" arrivalLane="386687235_1" arrivalPos="80.84" arrivalSpeed="16.68" duration="160.00" routeLength="1611.92" waitingTime="34.00" waitingCount="3" stopTime="0.00" timeLoss="61.85" rerouteNo="1" devices="tripinfo_h16072c2:3 routing_h16072c2:3 emissions_h16072c2:3" vType="default_016" speedFactor="1.20" vaporized="">
        <emissions CO_abs="9909.928524" CO2_abs="472959.186178" HC_abs="56.003286" PMx_abs="8.937175" NOx_abs="194.244355" fuel_abs="203.306531" electricity_abs="0"/>
    </tripinfo>
    <tripinfo id="carIn129809:1" depart="57729.00" departLane="-447569998#1_1" departPos="5.10" departSpeed="0.00" departDelay="1.00" arrival="57824.00" arrivalLane="-315358244_1" arrivalPos="33.95" arrivalSpeed="11.23" duration="95.00" routeLength="706.49" waitingTime="15.00" waitingCount="1" stopTime="0.00" timeLoss="25.56" rerouteNo="1" devices="tripinfo_carIn129809:1 routing_carIn129809:1 emissions_carIn129809:1" vType="default_015" speedFactor="0.87" vaporized="">
        <emissions CO_abs="3927.390784" CO2_abs="174807.830970" HC_abs="21.907823" PMx_abs="2.854344" NOx_abs="70.179653" fuel_abs="75.143804" electricity_abs="0"/>
    </tripinfo>
    <tripinfo id="h17600c1:1" depart="57662.00" departLane="272042143_1" departPos="5.10" departSpeed="0.00" departDelay="0.30" arrival="57830.00" arrivalLane="201238729#3_1" arrivalPos="431.02" arrivalSpeed="13.34" duration="168.00" routeLength="2100.26" waitingTime="6.00" waitingCount="1" stopTime="0.00" timeLoss="23.62" rerouteNo="1" devices="tripinfo_h17600c1:1 routing_h17600c1:1 emissions_h17600c1:1" vType="default_016" speedFactor="1.05" vaporized="">
        <emissions CO_abs="4535.263199" CO2_abs="405441.767782" HC_abs="29.852350" PMx_abs="6.269497" NOx_abs="156.693600" fuel_abs="174.282278" electricity_abs="0"/>
    </tripinfo>
    <tripinfo id="carIn22761:1" depart="57616.00" departLane="-306240162#1_0" departPos="5.10" departSpeed="0.00" departDelay="2.10" arrival="57832.00" arrivalLane="399835085#1_1" arrivalPos="212.23" arrivalSpeed="8.22" duration="216.00" routeLength="1093.26" waitingTime="117.00" waitingCount="2" stopTime="0.00" timeLoss="141.29" rerouteNo="1" devices="tripinfo_carIn22761:1 routing_carIn22761:1 emissions_carIn22761:1" vType="default_016" speedFactor="1.04" vaporized="">
        <emissions CO_abs="23538.436973" CO2_abs="610639.366566" HC_abs="121.542742" PMx_abs="13.364477" NOx_abs="265.831672" fuel_abs="262.495950" electricity_abs="0"/>
    </tripinfo>
    <tripinfo id="h3864c1:3" depart="57678.00" departLane="24693977#1_1" departPos="5.10" departSpeed="0.00" departDelay="0.00" arrival="57832.00" arrivalLane="201956820_2" arrivalPos="48.33" arrivalSpeed="11.96" duration="154.00" routeLength="1574.85" waitingTime="0.00" waitingCount="0" stopTime="0.00" timeLoss="18.67" rerouteNo="1" devices="tripinfo_h3864c1:3 routing_h3864c1:3 emissions_h3864c1:3" vType="default_016" speedFactor="0.95" vaporized="">
        <emissions CO_abs="5257.396041" CO2_abs="365295.724730" HC_abs="32.404932" PMx_abs="5.786452" NOx_abs="144.763375" fuel_abs="157.025745" electricity_abs="0"/>
    </tripinfo>
    <tripinfo id="h9953c2:3" depart="57682.00" departLane="-54169231#2_1" departPos="5.10" departSpeed="0.00" departDelay="0.00" arrival="57834.00" arrivalLane="386687235_2" arrivalPos="80.84" arrivalSpeed="15.94" duration="152.00" routeLength="1535.60" waitingTime="13.00" waitingCount="2" stopTime="0.00" timeLoss="43.43" rerouteNo="1" devices="tripinfo_h9953c2:3 routing_h9953c2:3 emissions_h9953c2:3" vType="default_016" speedFactor="1.15" vaporized="">
        <emissions CO_abs="7076.454125" CO2_abs="423993.352338" HC_abs="42.116304" PMx_abs="7.826271" NOx_abs="174.706771" fuel_abs="182.256628" electricity_abs="0"/>
    </tripinfo>
    <tripinfo id="carIn48184:1" depart="57613.00" departLane="-306240162#1_0" departPos="5.10" departSpeed="0.00" departDelay="0.70" arrival="57835.00" arrivalLane="386687235_1" arrivalPos="80.84" arrivalSpeed="11.44" duration="222.00" routeLength="2257.41" waitingTime="16.00" waitingCount="3" stopTime="0.00" timeLoss="46.21" rerouteNo="1" devices="tripinfo_carIn48184:1 routing_carIn48184:1 emissions_carIn48184:1" vType="default_016" speedFactor="0.84" vaporized="">
        <emissions CO_abs="8153.538889" CO2_abs="521008.709537" HC_abs="49.268798" PMx_abs="8.545160" NOx_abs="207.364227" fuel_abs="223.960632" electricity_abs="0"/>
    </tripinfo>
    <tripinfo id="carIn82220:1" depart="57619.00" departLane="-306240162#1_0" departPos="5.10" departSpeed="0.00" departDelay="3.50" arrival="57837.00" arrivalLane="386687235_1" arrivalPos="80.84" arrivalSpeed="13.81" duration="218.00" routeLength="2257.41" waitingTime="34.00" waitingCount="3" stopTime="0.00" timeLoss="71.54" rerouteNo="1" devices="tripinfo_carIn82220:1 routing_carIn82220:1 emissions_carIn82220:1" vType="default_016" speedFactor="1.02" vaporized="">
        <emissions CO_abs="10613.827079" CO2_abs="589104.924616" HC_abs="62.123720" PMx_abs="10.760974" NOx_abs="239.999605" fuel_abs="253.232102" electricity_abs="0"/>
    </tripinfo>
    <tripinfo id="carIn126288:1" depart="57674.00" departLane="272042143_1" departPos="5.10" departSpeed="0.00" departDelay="0.00" arrival="57837.00" arrivalLane="-315358254#1_1" arrivalPos="137.16" arrivalSpeed="14.14" duration="163.00" routeLength="1596.88" waitingTime="29.00" waitingCount="2" stopTime="0.00" timeLoss="49.45" rerouteNo="1" devices="tripinfo_carIn126288:1 routing_carIn126288:1 emissions_carIn126288:1" vType="default_016" speedFactor="1.03" vaporized="">
        <emissions CO_abs="8093.971619" CO2_abs="407175.742938" HC_abs="46.308865" PMx_abs="7.273533" NOx_abs="165.482860" fuel_abs="175.029018" electricity_abs="0"/>
    </tripinfo>
    <tripinfo id="carIn12152:1" depart="57647.00" departLane="24599188#0.94_1" departPos="5.10" departSpeed="0.00" departDelay="0.50" arrival="57839.00" arrivalLane="-315358254#1_1" arrivalPos="137.16" arrivalSpeed="13.79" duration="192.00" routeLength="2034.31" waitingTime="9.00" waitingCount="2" stopTime="0.00" timeLoss="33.02" rerouteNo="1" devices="tripinfo_carIn12152:1 routing_carIn12152:1 emissions_carIn12152:1" vType="default_016" speedFactor="0.99" vaporized="">
        <emissions CO_abs="6202.233033" CO2_abs="440540.936949" HC_abs="38.533210" PMx_abs="7.300290" NOx_abs="175.899272" fuel_abs="189.370065" electricity_abs="0"/>
    </tripinfo>
    <tripinfo id="carIn102915:1" depart="57643.00" departLane="128361102#0_1" departPos="5.10" departSpeed="0.00" departDelay="0.40" arrival="57841.00" arrivalLane="201956811#0_1" arrivalPos="40.40" arrivalSpeed="12.01" duration="198.00" routeLength="2067.33" waitingTime="12.00" waitingCount="1" stopTime="0.00" timeLoss="37.39" rerouteNo="1" devices="tripinfo_carIn102915:1 routing_carIn102915:1 emissions_carIn102915:1" vType="default_016" speedFactor="0.94" vaporized="">
        <emissions CO_abs="6871.751141" CO2_abs="446323.498501" HC_abs="41.728348" PMx_abs="7.530255" NOx_abs="179.481530" fuel_abs="191.856003" electricity_abs="0"/>
    </tripinfo>
    <tripinfo id="randUni15030:1" depart="57735.00" departLane="386687232#0_1" departPos="5.10" departSpeed="0.00" departDelay="0.10" arrival="57844.00" arrivalLane="26677539_1" arrivalPos="151.98" arrivalSpeed="6.65" duration="109.00" routeLength="919.89" waitingTime="5.00" waitingCount="1" stopTime="0.00" timeLoss="20.90" rerouteNo="1" devices="tripinfo_randUni15030:1 routing_randUni15030:1 emissions_randUni15030:1" vType="random_016" speedFactor="0.95" vaporized="">
        <emissions CO_abs="4077.282769" CO2_abs="235224.465165" HC_abs="23.994435" PMx_abs="3.724867" NOx_abs="93.571047" fuel_abs="101.113968" electricity_abs="0"/>
    </tripinfo>
    <tripinfo id="carIn12858:1" depart="57661.00" departLane="128361109#1_1" departPos="5.10" departSpeed="0.00" departDelay="0.90" arrival="57845.00" arrivalLane="399835085#1_1" arrivalPos="212.23" arrivalSpeed="6.27" duration="184.00" routeLength="1738.12" waitingTime="15.00" waitingCount="1" stopTime="0.00" timeLoss="47.20" rerouteNo="1" devices="tripinfo_carIn12858:1 routing_carIn12858:1 emissions_carIn12858:1" vType="default_016" speedFactor="0.84" vaporized="">
        <emissions CO_abs="8777.599561" CO2_abs="462884.792010" HC_abs="50.846524" PMx_abs="8.642702" NOx_abs="190.851722" fuel_abs="198.975215" electricity_abs="0"/>
    </tripinfo>
    <tripinfo id="randUni31145:1" depart="57814.00" departLane="10425609#0_1" departPos="5.10" departSpeed="0.00" departDelay="0.30" arrival="57845.00" arrivalLane="201956810_1" arrivalPos="71.65" arrivalSpeed="12.29" duration="31.00" routeLength="255.78" waitingTime="0.00" waitingCount="0" stopTime="0.00" timeLoss="10.06" rerouteNo="1" devices="tripinfo_randUni31145:1 routing_randUni31145:1 emissions_randUni31145:1" vType="random_016" speedFactor="0.94" vaporized="">
        <emissions CO_abs="2001.507513" CO2_abs="107487.980345" HC_abs="11.645214" PMx_abs="2.000258" NOx_abs="44.948658" fuel_abs="46.204592" electricity_abs="0"/>
    </tripinfo>
    <tripinfo id="randUni2407:1" depart="57820.00" departLane="10425609#0_1" departPos="5.10" departSpeed="0.00" departDelay="0.80" arrival="57847.00" arrivalLane="201956810_1" arrivalPos="71.65" arrivalSpeed="16.50" duration="27.00" routeLength="255.78" waitingTime="0.00" waitingCount="0" stopTime="0.00" timeLoss="9.67" rerouteNo="1" devices="tripinfo_randUni2407:1 routing_randUni2407:1 emissions_randUni2407:1" vType="random_016" speedFactor="1.21" vaporized="">
        <emissions CO_abs="1834.070147" CO2_abs="107174.011195" HC_abs="10.889137" PMx_abs="2.024534" NOx_abs="44.814145" fuel_abs="46.069466" electricity_abs="0"/>
    </tripinfo>
    <tripinfo id="h17549c1:1" depart="57680.00" departLane="-447569998#1_1" departPos="5.10" departSpeed="0.00" departDelay="0.00" arrival="57848.00" arrivalLane="-315358254#1_1" arrivalPos="137.16" arrivalSpeed="12.69" duration="168.00" routeLength="1746.60" waitingTime="15.00" waitingCount="1" stopTime="0.00" timeLoss="31.31" rerouteNo="1" devices="tripinfo_h17549c1:1 routing_h17549c1:1 emissions_h17549c1:1" vType="default_016" speedFactor="1.00" vaporized="">
        <emissions CO_abs="5595.688717" CO2_abs="362752.408621" HC_abs="33.925065" PMx_abs="5.914024" NOx_abs="143.806105" fuel_abs="155.932649" electricity_abs="0"/>
    </tripinfo>
    <tripinfo id="50R_frequency3.17" depart="57674.00" departLane="-18809673#6_1" departPos="12.10" departSpeed="0.00" departDelay="0.70" arrival="57850.00" arrivalLane="201956811#0_1" arrivalPos="40.40" arrivalSpeed="12.50" duration="176.00" routeLength="1954.47" waitingTime="4.00" waitingCount="1" stopTime="0.00" timeLoss="31.19" rerouteNo="1" devices="tripinfo_50R_frequency3.17 routing_50R_frequency3.17 emissions_50R_frequency3.17" vType="bus" speedFactor="1.00" vaporized="">
        <emissions CO_abs="3415.673598" CO2_abs="2162083.543932" HC_abs="714.059701" PMx_abs="366.351558" NOx_abs="16722.654809" fuel_abs="922.106898" electricity_abs="0"/>
    </tripinfo>
    <tripinfo id="carIn82278:1" depart="57702.00" departLane="-306240162#1_0" departPos="5.10" departSpeed="0.00" departDelay="0.70" arrival="57850.00" arrivalLane="399835085#1_1" arrivalPos="212.23" arrivalSpeed="5.85" duration="148.00" routeLength="1093.26" waitingTime="38.00" waitingCount="2" stopTime="0.00" timeLoss="72.71" rerouteNo="1" devices="tripinfo_carIn82278:1 routing_carIn82278:1 emissions_carIn82278:1" vType="default_016" speedFactor="1.04" vaporized="">
        <emissions CO_abs="10350.942731" CO2_abs="421709.479835" HC_abs="57.135273" PMx_abs="8.499998" NOx_abs="177.820028" fuel_abs="181.276711" electricity_abs="0"/>
    </tripinfo>