<?xml version="1.0" encoding="UTF-8"?>

<!-- generated on 2021-10-26 20:11:42 by Eclipse SUMO sumo Version 1.10.0
<configuration xmlns:xsi="http://www.w3.org/2001/XMLSchema-instance" xsi:noNamespaceSchemaLocation="http://sumo.dlr.de/xsd/sumoConfiguration.xsd">

    <input>
        <net-file value="/Users/behradkoohy/sumo-scratchpad/RESCO/environments/ingolstadt21/ingolstadt21.net.xml"/>
        <route-files value="/Users/behradkoohy/sumo-scratchpad/RESCO/environments/ingolstadt21/ingolstadt21.rou.xml"/>
    </input>

    <output>
        <tripinfo-output value="/Users/behradkoohy/sumo-scratchpad/RESCO/logs/MPLight-tr0-ingolstadt21-21-mplight-pressure/tripinfo_74.xml"/>
        <tripinfo-output.write-unfinished value="true"/>
    </output>

    <time>
        <begin value="57600"/>
        <end value="61200"/>
    </time>

    <processing>
        <time-to-teleport value="-1"/>
    </processing>

    <report>
        <no-warnings value="true"/>
        <no-step-log value="true"/>
    </report>

    <emissions>
        <device.emissions.probability value="1"/>
    </emissions>

    <traci_server>
        <remote-port value="64129"/>
    </traci_server>

    <random_number>
        <random value="true"/>
    </random_number>

</configuration>
-->

<tripinfos xmlns:xsi="http://www.w3.org/2001/XMLSchema-instance" xsi:noNamespaceSchemaLocation="http://sumo.dlr.de/xsd/tripinfo_file.xsd">
    <tripinfo id="h15454c2:3" depart="57612.00" departLane="24608844_1" departPos="5.10" departSpeed="0.00" departDelay="0.50" arrival="57655.00" arrivalLane="32978638#0_1" arrivalPos="49.29" arrivalSpeed="12.40" duration="43.00" routeLength="354.79" waitingTime="0.00" waitingCount="0" stopTime="0.00" timeLoss="5.81" rerouteNo="1" devices="tripinfo_h15454c2:3 routing_h15454c2:3 emissions_h15454c2:3" vType="default_016" speedFactor="0.93" vaporized="">
        <emissions CO_abs="2092.864847" CO2_abs="106701.328890" HC_abs="12.013907" PMx_abs="1.861727" NOx_abs="43.927076" fuel_abs="45.866712" electricity_abs="0"/>
    </tripinfo>
    <tripinfo id="carIn60260:1" depart="57606.00" departLane="315358254#0_1" departPos="5.10" departSpeed="0.00" departDelay="0.90" arrival="57675.00" arrivalLane="399835085#1_1" arrivalPos="212.23" arrivalSpeed="7.51" duration="69.00" routeLength="430.98" waitingTime="9.00" waitingCount="1" stopTime="0.00" timeLoss="20.40" rerouteNo="1" devices="tripinfo_carIn60260:1 routing_carIn60260:1 emissions_carIn60260:1" vType="default_016" speedFactor="0.95" vaporized="">
        <emissions CO_abs="3515.132525" CO2_abs="137987.790437" HC_abs="19.205202" PMx_abs="2.475305" NOx_abs="57.355917" fuel_abs="59.316111" electricity_abs="0"/>
    </tripinfo>
    <tripinfo id="carIn53971:1" depart="57640.00" departLane="272042143_1" departPos="5.10" departSpeed="0.00" departDelay="0.80" arrival="57697.00" arrivalLane="24634414#1_1" arrivalPos="162.19" arrivalSpeed="7.05" duration="57.00" routeLength="493.04" waitingTime="0.00" waitingCount="0" stopTime="0.00" timeLoss="9.12" rerouteNo="1" devices="tripinfo_carIn53971:1 routing_carIn53971:1 emissions_carIn53971:1" vType="default_016" speedFactor="0.96" vaporized="">
        <emissions CO_abs="2688.235001" CO2_abs="148489.772773" HC_abs="15.695389" PMx_abs="2.525114" NOx_abs="60.478474" fuel_abs="63.829856" electricity_abs="0"/>
    </tripinfo>
    <tripinfo id="h3688c1:1" depart="57625.00" departLane="201201950#1_1" departPos="5.10" departSpeed="0.00" departDelay="0.00" arrival="57718.00" arrivalLane="32978638#0_1" arrivalPos="49.29" arrivalSpeed="14.88" duration="93.00" routeLength="1089.75" waitingTime="5.00" waitingCount="1" stopTime="0.00" timeLoss="21.59" rerouteNo="1" devices="tripinfo_h3688c1:1 routing_h3688c1:1 emissions_h3688c1:1" vType="default_016" speedFactor="1.12" vaporized="">
        <emissions CO_abs="4008.162501" CO2_abs="293006.221659" HC_abs="25.045521" PMx_abs="5.255877" NOx_abs="118.947205" fuel_abs="125.950408" electricity_abs="0"/>
    </tripinfo>
    <tripinfo id="h7800c1:5" depart="57696.00" departLane="-447569998#1_1" departPos="5.10" departSpeed="0.00" departDelay="0.00" arrival="57725.00" arrivalLane="-447569998#1_2" arrivalPos="180.76" arrivalSpeed="2.94" duration="29.00" routeLength="175.66" waitingTime="2.00" waitingCount="1" stopTime="0.00" timeLoss="8.94" rerouteNo="1" devices="tripinfo_h7800c1:5 routing_h7800c1:5 emissions_h7800c1:5" vType="default_016" speedFactor="1.06" vaporized="">
        <emissions CO_abs="1284.728814" CO2_abs="51279.107215" HC_abs="7.028170" PMx_abs="0.865590" NOx_abs="21.020860" fuel_abs="22.043148" electricity_abs="0"/>
    </tripinfo>
    <tripinfo id="carIn22761:1" depart="57616.00" departLane="-306240162#1_0" departPos="5.10" departSpeed="0.00" departDelay="2.10" arrival="57733.00" arrivalLane="399835085#1_1" arrivalPos="212.23" arrivalSpeed="7.55" duration="117.00" routeLength="1093.26" waitingTime="16.00" waitingCount="2" stopTime="0.00" timeLoss="40.84" rerouteNo="1" devices="tripinfo_carIn22761:1 routing_carIn22761:1 emissions_carIn22761:1" vType="default_016" speedFactor="1.03" vaporized="">
        <emissions CO_abs="6285.402971" CO2_abs="338757.168071" HC_abs="36.629045" PMx_abs="6.671624" NOx_abs="142.006791" fuel_abs="145.617171" electricity_abs="0"/>
    </tripinfo>
    <tripinfo id="S5R_frequency1.2" depart="57615.00" departLane="315358250#0_1" departPos="12.10" departSpeed="0.00" departDelay="3.40" arrival="57740.00" arrivalLane="386687235_1" arrivalPos="80.84" arrivalSpeed="11.95" duration="125.00" routeLength="1115.62" waitingTime="17.00" waitingCount="2" stopTime="0.00" timeLoss="43.53" rerouteNo="1" devices="tripinfo_S5R_frequency1.2 routing_S5R_frequency1.2 emissions_S5R_frequency1.2" vType="bus" speedFactor="1.00" vaporized="">
        <emissions CO_abs="2355.814186" CO2_abs="1346989.162243" HC_abs="513.772978" PMx_abs="250.228284" NOx_abs="10789.991572" fuel_abs="574.442546" electricity_abs="0"/>
    </tripinfo>
    <tripinfo id="h7181c1:1" depart="57660.00" departLane="315358254#0_1" departPos="5.10" departSpeed="0.00" departDelay="0.10" arrival="57740.00" arrivalLane="306240162#0_0" arrivalPos="220.43" arrivalSpeed="16.72" duration="80.00" routeLength="932.35" waitingTime="11.00" waitingCount="2" stopTime="0.00" timeLoss="31.09" rerouteNo="1" devices="tripinfo_h7181c1:1 routing_h7181c1:1 emissions_h7181c1:1" vType="default_016" speedFactor="1.05" vaporized="">
        <emissions CO_abs="4729.931008" CO2_abs="284283.346451" HC_abs="28.309819" PMx_abs="5.633294" NOx_abs="117.800762" fuel_abs="122.200861" electricity_abs="0"/>
    </tripinfo>
    <tripinfo id="h3568c1:3" depart="57656.00" departLane="266565295#5_1" departPos="5.10" departSpeed="0.00" departDelay="0.80" arrival="57745.00" arrivalLane="-24634415_1" arrivalPos="62.03" arrivalSpeed="14.29" duration="89.00" routeLength="807.40" waitingTime="8.00" waitingCount="1" stopTime="0.00" timeLoss="26.47" rerouteNo="1" devices="tripinfo_h3568c1:3 routing_h3568c1:3 emissions_h3568c1:3" vType="default_016" speedFactor="1.04" vaporized="">
        <emissions CO_abs="4250.819598" CO2_abs="251693.750671" HC_abs="25.271869" PMx_abs="4.555250" NOx_abs="103.594162" fuel_abs="108.192536" electricity_abs="0"/>
    </tripinfo>
    <tripinfo id="carIn121703:1" depart="57647.00" departLane="386687232#0_1" departPos="5.10" departSpeed="0.00" departDelay="0.30" arrival="57746.00" arrivalLane="-315358244_1" arrivalPos="33.95" arrivalSpeed="12.95" duration="99.00" routeLength="1157.39" waitingTime="0.00" waitingCount="0" stopTime="0.00" timeLoss="8.86" rerouteNo="1" devices="tripinfo_carIn121703:1 routing_carIn121703:1 emissions_carIn121703:1" vType="default_016" speedFactor="0.94" vaporized="">
        <emissions CO_abs="2556.563942" CO2_abs="232311.092351" HC_abs="17.004815" PMx_abs="3.336556" NOx_abs="88.867282" fuel_abs="99.861025" electricity_abs="0"/>
    </tripinfo>
    <tripinfo id="h4538c1:1" depart="57701.00" departLane="-10427692#1_1" departPos="5.10" departSpeed="0.00" departDelay="0.00" arrival="57746.00" arrivalLane="-128361102#1_1" arrivalPos="274.68" arrivalSpeed="13.98" duration="45.00" routeLength="440.74" waitingTime="2.00" waitingCount="1" stopTime="0.00" timeLoss="13.16" rerouteNo="1" devices="tripinfo_h4538c1:1 routing_h4538c1:1 emissions_h4538c1:1" vType="default_016" speedFactor="1.02" vaporized="">
        <emissions CO_abs="1854.348050" CO2_abs="114576.239438" HC_abs="11.128376" PMx_abs="1.974772" NOx_abs="46.356280" fuel_abs="49.251597" electricity_abs="0"/>
    </tripinfo>
    <tripinfo id="h12244c1:3" depart="57612.00" departLane="315358244_1" departPos="5.10" departSpeed="0.00" departDelay="0.40" arrival="57748.00" arrivalLane="386687235_1" arrivalPos="80.84" arrivalSpeed="12.12" duration="136.00" routeLength="1186.14" waitingTime="22.00" waitingCount="2" stopTime="0.00" timeLoss="42.15" rerouteNo="1" devices="tripinfo_h12244c1:3 routing_h12244c1:3 emissions_h12244c1:3" vType="default_016" speedFactor="0.92" vaporized="">
        <emissions CO_abs="5457.622291" CO2_abs="286345.650240" HC_abs="31.521434" PMx_abs="4.868645" NOx_abs="115.493322" fuel_abs="123.088976" electricity_abs="0"/>
    </tripinfo>
    <tripinfo id="h317c2:1" depart="57707.00" departLane="-32978638#0_1" departPos="5.10" departSpeed="0.00" departDelay="0.10" arrival="57756.00" arrivalLane="-266565295#5_1" arrivalPos="172.76" arrivalSpeed="13.40" duration="49.00" routeLength="370.53" waitingTime="11.00" waitingCount="1" stopTime="0.00" timeLoss="20.58" rerouteNo="1" devices="tripinfo_h317c2:1 routing_h317c2:1 emissions_h317c2:1" vType="default_016" speedFactor="0.98" vaporized="">
        <emissions CO_abs="3076.331404" CO2_abs="134074.612866" HC_abs="17.174358" PMx_abs="2.612962" NOx_abs="56.577310" fuel_abs="57.633417" electricity_abs="0"/>
    </tripinfo>
    <tripinfo id="carIn30817:1" depart="57681.00" departLane="315358244_1" departPos="5.10" departSpeed="0.00" departDelay="0.20" arrival="57761.00" arrivalLane="447569997#1_1" arrivalPos="180.93" arrivalSpeed="7.60" duration="80.00" routeLength="718.04" waitingTime="6.00" waitingCount="1" stopTime="0.00" timeLoss="18.54" rerouteNo="1" devices="tripinfo_carIn30817:1 routing_carIn30817:1 emissions_carIn30817:1" vType="default_016" speedFactor="1.00" vaporized="">
        <emissions CO_abs="3206.869026" CO2_abs="171788.893809" HC_abs="18.519295" PMx_abs="2.664797" NOx_abs="67.635125" fuel_abs="73.845761" electricity_abs="0"/>
    </tripinfo>
    <tripinfo id="h9563c2:5" depart="57631.00" departLane="315358244_1" departPos="5.10" departSpeed="0.00" departDelay="0.70" arrival="57765.00" arrivalLane="386687235_1" arrivalPos="80.84" arrivalSpeed="10.42" duration="134.00" routeLength="1186.14" waitingTime="10.00" waitingCount="1" stopTime="0.00" timeLoss="28.21" rerouteNo="1" devices="tripinfo_h9563c2:5 routing_h9563c2:5 emissions_h9563c2:5" vType="default_016" speedFactor="0.82" vaporized="">
        <emissions CO_abs="4335.875116" CO2_abs="257867.308338" HC_abs="25.667447" PMx_abs="3.899195" NOx_abs="101.323521" fuel_abs="110.847432" electricity_abs="0"/>
    </tripinfo>
    <tripinfo id="h5979c1:5" depart="57669.00" departLane="399835085#1_1" departPos="5.10" departSpeed="0.00" departDelay="0.00" arrival="57767.00" arrivalLane="-315358254#1_1" arrivalPos="137.16" arrivalSpeed="15.74" duration="98.00" routeLength="659.33" waitingTime="18.00" waitingCount="1" stopTime="0.00" timeLoss="34.18" rerouteNo="1" devices="tripinfo_h5979c1:5 routing_h5979c1:5 emissions_h5979c1:5" vType="default_016" speedFactor="1.15" vaporized="">
        <emissions CO_abs="5732.315920" CO2_abs="226921.528045" HC_abs="31.360103" PMx_abs="4.211719" NOx_abs="94.784414" fuel_abs="97.545388" electricity_abs="0"/>
    </tripinfo>
    <tripinfo id="h11737c1:1" depart="57665.00" departLane="272042143_1" departPos="5.10" departSpeed="0.00" departDelay="1.50" arrival="57775.00" arrivalLane="-315358254#1_1" arrivalPos="137.16" arrivalSpeed="16.08" duration="110.00" routeLength="1596.88" waitingTime="0.00" waitingCount="0" stopTime="0.00" timeLoss="12.53" rerouteNo="1" devices="tripinfo_h11737c1:1 routing_h11737c1:1 emissions_h11737c1:1" vType="default_016" speedFactor="1.19" vaporized="">
        <emissions CO_abs="3663.177732" CO2_abs="342977.576076" HC_abs="24.450035" PMx_abs="5.840897" NOx_abs="135.203415" fuel_abs="147.430653" electricity_abs="0"/>
    </tripinfo>
    <tripinfo id="carIn107084:1" depart="57601.00" departLane="124812856#0_1" departPos="5.10" departSpeed="0.00" departDelay="0.70" arrival="57779.00" arrivalLane="-128361102#1_1" arrivalPos="274.68" arrivalSpeed="13.64" duration="178.00" routeLength="2250.49" waitingTime="0.00" waitingCount="0" stopTime="0.00" timeLoss="17.72" rerouteNo="1" devices="tripinfo_carIn107084:1 routing_carIn107084:1 emissions_carIn107084:1" vType="default_016" speedFactor="1.03" vaporized="">
        <emissions CO_abs="4941.248428" CO2_abs="448853.159535" HC_abs="32.886414" PMx_abs="7.115313" NOx_abs="175.458799" fuel_abs="192.942609" electricity_abs="0"/>
    </tripinfo>
    <tripinfo id="h3326c1:2" depart="57656.00" departLane="22716069#0_1" departPos="5.10" departSpeed="0.00" departDelay="0.00" arrival="57781.00" arrivalLane="24634517#13_1" arrivalPos="111.62" arrivalSpeed="13.68" duration="125.00" routeLength="1312.81" waitingTime="11.00" waitingCount="1" stopTime="0.00" timeLoss="29.02" rerouteNo="1" devices="tripinfo_h3326c1:2 routing_h3326c1:2 emissions_h3326c1:2" vType="default_016" speedFactor="1.01" vaporized="">
        <emissions CO_abs="5339.382842" CO2_abs="337866.517352" HC_abs="32.220343" PMx_abs="5.932824" NOx_abs="137.024263" fuel_abs="145.234626" electricity_abs="0"/>
    </tripinfo>
    <tripinfo id="carIn27009:1" depart="57673.00" departLane="-447569998#1_1" departPos="5.10" departSpeed="0.00" departDelay="0.50" arrival="57785.00" arrivalLane="-26677539_1" arrivalPos="152.75" arrivalSpeed="8.53" duration="112.00" routeLength="699.63" waitingTime="24.00" waitingCount="1" stopTime="0.00" timeLoss="38.37" rerouteNo="1" devices="tripinfo_carIn27009:1 routing_carIn27009:1 emissions_carIn27009:1" vType="default_015" speedFactor="1.14" vaporized="">
        <emissions CO_abs="6507.933796" CO2_abs="226307.550828" HC_abs="34.887862" PMx_abs="4.203817" NOx_abs="94.847213" fuel_abs="97.282109" electricity_abs="0"/>
    </tripinfo>
    <tripinfo id="h330c1:1" depart="57736.00" departLane="-32978638#0_1" departPos="5.10" departSpeed="0.00" departDelay="0.20" arrival="57785.00" arrivalLane="-266565295#5_1" arrivalPos="172.76" arrivalSpeed="13.45" duration="49.00" routeLength="370.53" waitingTime="11.00" waitingCount="1" stopTime="0.00" timeLoss="21.93" rerouteNo="1" devices="tripinfo_h330c1:1 routing_h330c1:1 emissions_h330c1:1" vType="default_016" speedFactor="1.03" vaporized="">
        <emissions CO_abs="2941.751512" CO2_abs="131275.824927" HC_abs="16.485142" PMx_abs="2.520298" NOx_abs="55.031785" fuel_abs="56.430337" electricity_abs="0"/>
    </tripinfo>
    <tripinfo id="carIn77943:1" depart="57608.00" departLane="124812856#0_1" departPos="5.10" departSpeed="0.00" departDelay="2.50" arrival="57788.00" arrivalLane="-128361102#1_1" arrivalPos="274.68" arrivalSpeed="14.27" duration="180.00" routeLength="2250.49" waitingTime="0.00" waitingCount="0" stopTime="0.00" timeLoss="21.05" rerouteNo="1" devices="tripinfo_carIn77943:1 routing_carIn77943:1 emissions_carIn77943:1" vType="default_016" speedFactor="1.04" vaporized="">
        <emissions CO_abs="5309.545710" CO2_abs="463336.243131" HC_abs="34.940007" PMx_abs="7.509551" NOx_abs="182.549375" fuel_abs="199.168155" electricity_abs="0"/>
    </tripinfo>
    <tripinfo id="carIn12365:1" depart="57713.00" departLane="315358244_1" departPos="5.10" departSpeed="0.00" departDelay="0.50" arrival="57791.00" arrivalLane="447569997#1_1" arrivalPos="180.93" arrivalSpeed="8.00" duration="78.00" routeLength="718.04" waitingTime="6.00" waitingCount="1" stopTime="0.00" timeLoss="16.27" rerouteNo="1" devices="tripinfo_carIn12365:1 routing_carIn12365:1 emissions_carIn12365:1" vType="default_016" speedFactor="1.01" vaporized="">
        <emissions CO_abs="2778.129567" CO2_abs="161366.787705" HC_abs="16.324502" PMx_abs="2.579485" NOx_abs="63.985129" fuel_abs="69.365361" electricity_abs="0"/>
    </tripinfo>
    <tripinfo id="carIn86816:1" depart="57617.00" departLane="128361102#0_1" departPos="5.10" departSpeed="0.00" departDelay="0.80" arrival="57799.00" arrivalLane="201956811#0_1" arrivalPos="40.40" arrivalSpeed="14.08" duration="182.00" routeLength="2067.33" waitingTime="12.00" waitingCount="1" stopTime="0.00" timeLoss="39.81" rerouteNo="1" devices="tripinfo_carIn86816:1 routing_carIn86816:1 emissions_carIn86816:1" vType="default_016" speedFactor="1.07" vaporized="">
        <emissions CO_abs="7307.816395" CO2_abs="508452.329799" HC_abs="45.040437" PMx_abs="8.651734" NOx_abs="203.258963" fuel_abs="218.562200" electricity_abs="0"/>
    </tripinfo>
    <tripinfo id="carIn50326:1" depart="57651.00" departLane="128361102#0_1" departPos="5.10" departSpeed="0.00" departDelay="0.30" arrival="57804.00" arrivalLane="18809673#0_1" arrivalPos="473.56" arrivalSpeed="13.12" duration="153.00" routeLength="1591.07" waitingTime="0.00" waitingCount="0" stopTime="0.00" timeLoss="19.85" rerouteNo="1" devices="tripinfo_carIn50326:1 routing_carIn50326:1 emissions_carIn50326:1" vType="default_016" speedFactor="0.98" vaporized="">
        <emissions CO_abs="5095.277115" CO2_abs="348153.229353" HC_abs="31.253431" PMx_abs="5.437625" NOx_abs="137.180078" fuel_abs="149.657105" electricity_abs="0"/>
    </tripinfo>
    <tripinfo id="carIn107282:1" depart="57749.00" departLane="-447569998#1_1" departPos="5.10" departSpeed="0.00" departDelay="0.00" arrival="57804.00" arrivalLane="315358242#0_1" arrivalPos="165.37" arrivalSpeed="14.43" duration="55.00" routeLength="448.50" waitingTime="7.00" waitingCount="1" stopTime="0.00" timeLoss="17.40" rerouteNo="1" devices="tripinfo_carIn107282:1 routing_carIn107282:1 emissions_carIn107282:1" vType="default_016" speedFactor="1.12" vaporized="">
        <emissions CO_abs="2803.274544" CO2_abs="136090.061421" HC_abs="15.889617" PMx_abs="2.466961" NOx_abs="56.011189" fuel_abs="58.499799" electricity_abs="0"/>
    </tripinfo>
    <tripinfo id="carIn129809:1" depart="57729.00" departLane="-447569998#1_1" departPos="5.10" departSpeed="0.00" departDelay="1.00" arrival="57805.00" arrivalLane="-315358244_1" arrivalPos="33.95" arrivalSpeed="11.89" duration="76.00" routeLength="706.49" waitingTime="0.00" waitingCount="0" stopTime="0.00" timeLoss="6.63" rerouteNo="1" devices="tripinfo_carIn129809:1 routing_carIn129809:1 emissions_carIn129809:1" vType="default_015" speedFactor="0.87" vaporized="">
        <emissions CO_abs="2272.834508" CO2_abs="141734.413440" HC_abs="13.599294" PMx_abs="2.094307" NOx_abs="55.382710" fuel_abs="60.926259" electricity_abs="0"/>
    </tripinfo>
    <tripinfo id="carIn81046:1" depart="57611.00" departLane="124812856#0_1" departPos="5.10" departSpeed="0.00" departDelay="2.50" arrival="57808.00" arrivalLane="-128361102#1_1" arrivalPos="274.68" arrivalSpeed="12.58" duration="197.00" routeLength="2250.49" waitingTime="0.00" waitingCount="0" stopTime="0.00" timeLoss="21.97" rerouteNo="1" devices="tripinfo_carIn81046:1 routing_carIn81046:1 emissions_carIn81046:1" vType="default_016" speedFactor="0.94" vaporized="">
        <emissions CO_abs="5609.523933" CO2_abs="457397.553479" HC_abs="36.173865" PMx_abs="7.082771" NOx_abs="178.999512" fuel_abs="196.616112" electricity_abs="0"/>
    </tripinfo>
    <tripinfo id="carIn118591:1" depart="57689.00" departLane="315358244_1" departPos="5.10" departSpeed="0.00" departDelay="0.20" arrival="57808.00" arrivalLane="386687235_1" arrivalPos="80.84" arrivalSpeed="12.36" duration="119.00" routeLength="1186.14" waitingTime="13.00" waitingCount="1" stopTime="0.00" timeLoss="27.25" rerouteNo="1" devices="tripinfo_carIn118591:1 routing_carIn118591:1 emissions_carIn118591:1" vType="default_016" speedFactor="0.95" vaporized="">
        <emissions CO_abs="4437.973519" CO2_abs="274256.623406" HC_abs="26.565036" PMx_abs="4.375809" NOx_abs="108.195575" fuel_abs="117.892189" electricity_abs="0"/>
    </tripinfo>
    <tripinfo id="carIn77438:1" depart="57614.00" departLane="124812856#0_1" departPos="5.10" departSpeed="0.00" departDelay="1.10" arrival="57809.00" arrivalLane="-128361102#1_1" arrivalPos="274.68" arrivalSpeed="12.84" duration="195.00" routeLength="2250.49" waitingTime="0.00" waitingCount="0" stopTime="0.00" timeLoss="31.18" rerouteNo="1" devices="tripinfo_carIn77438:1 routing_carIn77438:1 emissions_carIn77438:1" vType="default_016" speedFactor="1.00" vaporized="">
        <emissions CO_abs="6194.656861" CO2_abs="481255.156271" HC_abs="39.461307" PMx_abs="7.911839" NOx_abs="191.684182" fuel_abs="206.871007" electricity_abs="0"/>
    </tripinfo>
    <tripinfo id="h19804c1:3" depart="57617.00" departLane="124812856#0_1" departPos="5.10" departSpeed="0.00" departDelay="1.50" arrival="57812.00" arrivalLane="-128361102#1_1" arrivalPos="274.68" arrivalSpeed="12.17" duration="195.00" routeLength="2250.49" waitingTime="0.00" waitingCount="0" stopTime="0.00" timeLoss="18.66" rerouteNo="1" devices="tripinfo_h19804c1:3 routing_h19804c1:3 emissions_h19804c1:3" vType="default_016" speedFactor="0.93" vaporized="">
        <emissions CO_abs="5499.195490" CO2_abs="450251.258573" HC_abs="35.514974" PMx_abs="7.040211" NOx_abs="176.876361" fuel_abs="193.544070" electricity_abs="0"/>
    </tripinfo>
    <tripinfo id="carIn82278:1" depart="57702.00" departLane="-306240162#1_0" departPos="5.10" departSpeed="0.00" departDelay="0.70" arrival="57815.00" arrivalLane="399835085#1_1" arrivalPos="212.23" arrivalSpeed="8.11" duration="113.00" routeLength="1093.26" waitingTime="10.00" waitingCount="1" stopTime="0.00" timeLoss="34.04" rerouteNo="1" devices="tripinfo_carIn82278:1 routing_carIn82278:1 emissions_carIn82278:1" vType="default_016" speedFactor="0.98" vaporized="">
        <emissions CO_abs="5781.467455" CO2_abs="322164.538328" HC_abs="33.901145" PMx_abs="6.085441" NOx_abs="133.067545" fuel_abs="138.484972" electricity_abs="0"/>
    </tripinfo>
    <tripinfo id="carIn126288:1" depart="57674.00" departLane="272042143_1" departPos="5.10" departSpeed="0.00" departDelay="0.00" arrival="57816.00" arrivalLane="-315358254#1_1" arrivalPos="137.16" arrivalSpeed="13.38" duration="142.00" routeLength="1596.88" waitingTime="13.00" waitingCount="1" stopTime="0.00" timeLoss="29.28" rerouteNo="1" devices="tripinfo_carIn126288:1 routing_carIn126288:1 emissions_carIn126288:1" vType="default_016" speedFactor="1.03" vaporized="">
        <emissions CO_abs="5506.833721" CO2_abs="370899.352721" HC_abs="33.666257" PMx_abs="6.216887" NOx_abs="147.546285" fuel_abs="159.434293" electricity_abs="0"/>
    </tripinfo>
    <tripinfo id="h645c1:1" depart="57622.00" departLane="266565295#5_1" departPos="5.10" departSpeed="0.00" departDelay="0.40" arrival="57822.00" arrivalLane="-315358244_2" arrivalPos="33.95" arrivalSpeed="12.35" duration="200.00" routeLength="1910.83" waitingTime="29.00" waitingCount="2" stopTime="0.00" timeLoss="55.61" rerouteNo="1" devices="tripinfo_h645c1:1 routing_h645c1:1 emissions_h645c1:1" vType="default_016" speedFactor="0.96" vaporized="">
        <emissions CO_abs="8211.253631" CO2_abs="454417.876864" HC_abs="47.998736" PMx_abs="7.742878" NOx_abs="182.952631" fuel_abs="195.336394" electricity_abs="0"/>
    </tripinfo>
    <tripinfo id="carIn81860:1" depart="57712.00" departLane="128361102#0_1" departPos="5.10" departSpeed="0.00" departDelay="0.60" arrival="57822.00" arrivalLane="-24634517#17_1" arrivalPos="6.43" arrivalSpeed="7.65" duration="110.00" routeLength="1229.64" waitingTime="3.00" waitingCount="1" stopTime="0.00" timeLoss="23.61" rerouteNo="1" devices="tripinfo_carIn81860:1 routing_carIn81860:1 emissions_carIn81860:1" vType="default_016" speedFactor="1.04" vaporized="">
        <emissions CO_abs="4257.111304" CO2_abs="298880.355807" HC_abs="26.303910" PMx_abs="5.042035" NOx_abs="119.559656" fuel_abs="128.476052" electricity_abs="0"/>
    </tripinfo>
    <tripinfo id="h2831c1:1" depart="57600.00" departLane="201089423#0_1" departPos="5.10" departSpeed="0.00" departDelay="0.00" arrival="57823.00" arrivalLane="-315358244_1" arrivalPos="33.95" arrivalSpeed="13.91" duration="223.00" routeLength="2672.18" waitingTime="15.00" waitingCount="3" stopTime="0.00" timeLoss="44.56" rerouteNo="1" devices="tripinfo_h2831c1:1 routing_h2831c1:1 emissions_h2831c1:1" vType="default_016" speedFactor="1.09" vaporized="">
        <emissions CO_abs="6795.496553" CO2_abs="560619.938100" HC_abs="43.785824" PMx_abs="9.207428" NOx_abs="220.681484" fuel_abs="240.986392" electricity_abs="0"/>
    </tripinfo>
    <tripinfo id="carIn82220:1" depart="57619.00" departLane="-306240162#1_0" departPos="5.10" departSpeed="0.00" departDelay="3.50" arrival="57823.00" arrivalLane="386687235_2" arrivalPos="80.84" arrivalSpeed="11.38" duration="204.00" routeLength="2257.41" waitingTime="6.00" waitingCount="1" stopTime="0.00" timeLoss="34.61" rerouteNo="1" devices="tripinfo_carIn82220:1 routing_carIn82220:1 emissions_carIn82220:1" vType="default_016" speedFactor="0.87" vaporized="">
        <emissions CO_abs="6917.252614" CO2_abs="498510.723624" HC_abs="43.120943" PMx_abs="8.370851" NOx_abs="199.597236" fuel_abs="214.288597" electricity_abs="0"/>
    </tripinfo>
    <tripinfo id="carIn12152:1" depart="57647.00" departLane="24599188#0.94_1" departPos="5.10" departSpeed="0.00" departDelay="0.50" arrival="57823.00" arrivalLane="-315358254#1_1" arrivalPos="137.16" arrivalSpeed="14.99" duration="176.00" routeLength="2034.31" waitingTime="13.00" waitingCount="1" stopTime="0.00" timeLoss="33.70" rerouteNo="1" devices="tripinfo_carIn12152:1 routing_carIn12152:1 emissions_carIn12152:1" vType="default_016" speedFactor="1.12" vaporized="">
        <emissions CO_abs="6661.954362" CO2_abs="443462.062289" HC_abs="40.669408" PMx_abs="7.689474" NOx_abs="177.947893" fuel_abs="190.625691" electricity_abs="0"/>
    </tripinfo>
    <tripinfo id="carIn48184:1" depart="57613.00" departLane="-306240162#1_0" departPos="5.10" departSpeed="0.00" departDelay="0.70" arrival="57824.00" arrivalLane="386687235_1" arrivalPos="80.84" arrivalSpeed="12.82" duration="211.00" routeLength="2257.41" waitingTime="25.00" waitingCount="3" stopTime="0.00" timeLoss="62.37" rerouteNo="1" devices="tripinfo_carIn48184:1 routing_carIn48184:1 emissions_carIn48184:1" vType="default_016" speedFactor="1.00" vaporized="">
        <emissions CO_abs="9620.344936" CO2_abs="587796.091961" HC_abs="57.631557" PMx_abs="10.703885" NOx_abs="239.937871" fuel_abs="252.668647" electricity_abs="0"/>
    </tripinfo>
    <tripinfo id="h3154c1:1" depart="57658.00" departLane="24634507_1" departPos="5.10" departSpeed="0.00" departDelay="0.00" arrival="57824.00" arrivalLane="-266565295#5_1" arrivalPos="172.76" arrivalSpeed="9.85" duration="166.00" routeLength="1206.22" waitingTime="22.00" waitingCount="3" stopTime="0.00" timeLoss="48.57" rerouteNo="1" devices="tripinfo_h3154c1:1 routing_h3154c1:1 emissions_h3154c1:1" vType="default_016" speedFactor="0.76" vaporized="">
        <emissions CO_abs="7030.756931" CO2_abs="324042.052657" HC_abs="39.525681" PMx_abs="5.571826" NOx_abs="132.621174" fuel_abs="139.293686" electricity_abs="0"/>
    </tripinfo>
    <tripinfo id="carIn462:1" depart="57622.00" departLane="-306240162#1_0" departPos="5.10" departSpeed="0.00" departDelay="4.80" arrival="57825.00" arrivalLane="386687235_2" arrivalPos="80.84" arrivalSpeed="15.10" duration="203.00" routeLength="2257.41" waitingTime="24.00" waitingCount="3" stopTime="0.00" timeLoss="90.34" rerouteNo="1" devices="tripinfo_carIn462:1 routing_carIn462:1 emissions_carIn462:1" vType="default_016" speedFactor="1.32" vaporized="">
        <emissions CO_abs="9703.090929" CO2_abs="610309.448364" HC_abs="58.586831" PMx_abs="11.507985" NOx_abs="250.900380" fuel_abs="262.345410" electricity_abs="0"/>
    </tripinfo>
    <tripinfo id="carIn102915:1" depart="57643.00" departLane="128361102#0_1" departPos="5.10" departSpeed="0.00" departDelay="0.40" arrival="57826.00" arrivalLane="201956811#0_1" arrivalPos="40.40" arrivalSpeed="12.08" duration="183.00" routeLength="2067.33" waitingTime="3.00" waitingCount="1" stopTime="0.00" timeLoss="24.79" rerouteNo="1" devices="tripinfo_carIn102915:1 routing_carIn102915:1 emissions_carIn102915:1" vType="default_016" speedFactor="0.96" vaporized="">
        <emissions CO_abs="5505.968028" CO2_abs="427937.409920" HC_abs="35.067092" PMx_abs="6.948133" NOx_abs="169.857186" fuel_abs="183.952123" electricity_abs="0"/>
    </tripinfo>
    <tripinfo id="randUni33724:1" depart="57646.00" departLane="128361102#0_1" departPos="5.10" departSpeed="0.00" departDelay="1.20" arrival="57829.00" arrivalLane="201956811#0_1" arrivalPos="40.40" arrivalSpeed="13.49" duration="183.00" routeLength="2067.33" waitingTime="2.00" waitingCount="1" stopTime="0.00" timeLoss="36.22" rerouteNo="1" devices="tripinfo_randUni33724:1 routing_randUni33724:1 emissions_randUni33724:1" vType="random_016" speedFactor="1.03" vaporized="">
        <emissions CO_abs="6554.682511" CO2_abs="485388.813463" HC_abs="41.251005" PMx_abs="8.283611" NOx_abs="195.366445" fuel_abs="208.647681" electricity_abs="0"/>
    </tripinfo>
    <tripinfo id="randUni15030:1" depart="57735.00" departLane="386687232#0_1" departPos="5.10" departSpeed="0.00" departDelay="0.10" arrival="57835.00" arrivalLane="26677539_1" arrivalPos="151.98" arrivalSpeed="7.34" duration="100.00" routeLength="919.89" waitingTime="0.00" waitingCount="0" stopTime="0.00" timeLoss="10.74" rerouteNo="1" devices="tripinfo_randUni15030:1 routing_randUni15030:1 emissions_randUni15030:1" vType="random_016" speedFactor="0.94" vaporized="">
        <emissions CO_abs="3391.769403" CO2_abs="206684.938391" HC_abs="20.227705" PMx_abs="3.303379" NOx_abs="82.485965" fuel_abs="88.845704" electricity_abs="0"/>
    </tripinfo>