<?xml version="1.0" encoding="UTF-8"?>

<!-- generated on 2021-10-26 19:56:16 by Eclipse SUMO sumo Version 1.10.0
<configuration xmlns:xsi="http://www.w3.org/2001/XMLSchema-instance" xsi:noNamespaceSchemaLocation="http://sumo.dlr.de/xsd/sumoConfiguration.xsd">

    <input>
        <net-file value="/Users/behradkoohy/sumo-scratchpad/RESCO/environments/ingolstadt21/ingolstadt21.net.xml"/>
        <route-files value="/Users/behradkoohy/sumo-scratchpad/RESCO/environments/ingolstadt21/ingolstadt21.rou.xml"/>
    </input>

    <output>
        <tripinfo-output value="/Users/behradkoohy/sumo-scratchpad/RESCO/logs/MPLight-tr0-ingolstadt21-21-mplight-pressure/tripinfo_54.xml"/>
        <tripinfo-output.write-unfinished value="true"/>
    </output>

    <time>
        <begin value="57600"/>
        <end value="61200"/>
    </time>

    <processing>
        <time-to-teleport value="-1"/>
    </processing>

    <report>
        <no-warnings value="true"/>
        <no-step-log value="true"/>
    </report>

    <emissions>
        <device.emissions.probability value="1"/>
    </emissions>

    <traci_server>
        <remote-port value="63981"/>
    </traci_server>

    <random_number>
        <random value="true"/>
    </random_number>

</configuration>
-->

<tripinfos xmlns:xsi="http://www.w3.org/2001/XMLSchema-instance" xsi:noNamespaceSchemaLocation="http://sumo.dlr.de/xsd/tripinfo_file.xsd">
    <tripinfo id="h15454c2:3" depart="57612.00" departLane="24608844_1" departPos="5.10" departSpeed="0.00" departDelay="0.50" arrival="57652.00" arrivalLane="32978638#0_1" arrivalPos="49.29" arrivalSpeed="13.60" duration="40.00" routeLength="354.79" waitingTime="0.00" waitingCount="0" stopTime="0.00" timeLoss="5.59" rerouteNo="1" devices="tripinfo_h15454c2:3 routing_h15454c2:3 emissions_h15454c2:3" vType="default_016" speedFactor="1.01" vaporized="">
        <emissions CO_abs="1782.897425" CO2_abs="97236.637302" HC_abs="10.394318" PMx_abs="1.729607" NOx_abs="40.110585" fuel_abs="41.798070" electricity_abs="0"/>
    </tripinfo>
    <tripinfo id="carIn60260:1" depart="57606.00" departLane="315358254#0_1" departPos="5.10" departSpeed="0.00" departDelay="0.90" arrival="57661.00" arrivalLane="399835085#1_1" arrivalPos="212.23" arrivalSpeed="8.65" duration="55.00" routeLength="430.98" waitingTime="1.00" waitingCount="1" stopTime="0.00" timeLoss="11.57" rerouteNo="1" devices="tripinfo_carIn60260:1 routing_carIn60260:1 emissions_carIn60260:1" vType="default_016" speedFactor="1.07" vaporized="">
        <emissions CO_abs="2372.405351" CO2_abs="120394.221116" HC_abs="13.586592" PMx_abs="2.113367" NOx_abs="49.562878" fuel_abs="51.752744" electricity_abs="0"/>
    </tripinfo>
    <tripinfo id="carIn53971:1" depart="57640.00" departLane="272042143_1" departPos="5.10" departSpeed="0.00" departDelay="0.80" arrival="57692.00" arrivalLane="24634414#1_1" arrivalPos="162.19" arrivalSpeed="7.38" duration="52.00" routeLength="493.04" waitingTime="0.00" waitingCount="0" stopTime="0.00" timeLoss="8.00" rerouteNo="1" devices="tripinfo_carIn53971:1 routing_carIn53971:1 emissions_carIn53971:1" vType="default_016" speedFactor="1.04" vaporized="">
        <emissions CO_abs="2319.612731" CO2_abs="138846.269529" HC_abs="13.797792" PMx_abs="2.408473" NOx_abs="56.682602" fuel_abs="59.684275" electricity_abs="0"/>
    </tripinfo>
    <tripinfo id="h12244c1:3" depart="57612.00" departLane="315358244_1" departPos="5.10" departSpeed="0.00" departDelay="0.40" arrival="57717.00" arrivalLane="386687235_1" arrivalPos="80.84" arrivalSpeed="15.26" duration="105.00" routeLength="1186.14" waitingTime="13.00" waitingCount="1" stopTime="0.00" timeLoss="28.82" rerouteNo="1" devices="tripinfo_h12244c1:3 routing_h12244c1:3 emissions_h12244c1:3" vType="default_016" speedFactor="1.14" vaporized="">
        <emissions CO_abs="4539.580214" CO2_abs="275945.661407" HC_abs="27.081894" PMx_abs="4.902074" NOx_abs="111.334199" fuel_abs="118.617603" electricity_abs="0"/>
    </tripinfo>
    <tripinfo id="h3688c1:1" depart="57625.00" departLane="201201950#1_1" departPos="5.10" departSpeed="0.00" departDelay="0.00" arrival="57720.00" arrivalLane="32978638#0_1" arrivalPos="49.29" arrivalSpeed="13.81" duration="95.00" routeLength="1089.75" waitingTime="4.00" waitingCount="1" stopTime="0.00" timeLoss="20.04" rerouteNo="1" devices="tripinfo_h3688c1:1 routing_h3688c1:1 emissions_h3688c1:1" vType="default_016" speedFactor="1.07" vaporized="">
        <emissions CO_abs="3845.777416" CO2_abs="275686.649075" HC_abs="23.917497" PMx_abs="4.840080" NOx_abs="111.639442" fuel_abs="118.505681" electricity_abs="0"/>
    </tripinfo>
    <tripinfo id="h7800c1:5" depart="57696.00" departLane="-447569998#1_1" departPos="5.10" departSpeed="0.00" departDelay="0.00" arrival="57725.00" arrivalLane="-447569998#1_2" arrivalPos="180.76" arrivalSpeed="3.92" duration="29.00" routeLength="175.66" waitingTime="1.00" waitingCount="1" stopTime="0.00" timeLoss="7.43" rerouteNo="1" devices="tripinfo_h7800c1:5 routing_h7800c1:5 emissions_h7800c1:5" vType="default_016" speedFactor="0.99" vaporized="">
        <emissions CO_abs="1386.023548" CO2_abs="53073.923026" HC_abs="7.520701" PMx_abs="0.857070" NOx_abs="21.554650" fuel_abs="22.814781" electricity_abs="0"/>
    </tripinfo>
    <tripinfo id="S5R_frequency1.2" depart="57616.00" departLane="315358250#0_1" departPos="12.10" departSpeed="0.00" departDelay="4.40" arrival="57726.00" arrivalLane="386687235_1" arrivalPos="80.84" arrivalSpeed="13.61" duration="110.00" routeLength="1115.62" waitingTime="5.00" waitingCount="1" stopTime="0.00" timeLoss="28.76" rerouteNo="1" devices="tripinfo_S5R_frequency1.2 routing_S5R_frequency1.2 emissions_S5R_frequency1.2" vType="bus" speedFactor="1.00" vaporized="">
        <emissions CO_abs="2156.864030" CO2_abs="1330039.174317" HC_abs="453.510669" PMx_abs="230.572367" NOx_abs="10381.216712" fuel_abs="567.237102" electricity_abs="0"/>
    </tripinfo>
    <tripinfo id="carIn22761:1" depart="57616.00" departLane="-306240162#1_0" departPos="5.10" departSpeed="0.00" departDelay="2.10" arrival="57740.00" arrivalLane="399835085#1_1" arrivalPos="212.23" arrivalSpeed="6.91" duration="124.00" routeLength="1093.26" waitingTime="17.00" waitingCount="1" stopTime="0.00" timeLoss="34.90" rerouteNo="1" devices="tripinfo_carIn22761:1 routing_carIn22761:1 emissions_carIn22761:1" vType="default_016" speedFactor="0.87" vaporized="">
        <emissions CO_abs="6183.414061" CO2_abs="292343.730304" HC_abs="34.932160" PMx_abs="5.295399" NOx_abs="119.506203" fuel_abs="125.667383" electricity_abs="0"/>
    </tripinfo>
    <tripinfo id="h3568c1:3" depart="57656.00" departLane="266565295#5_1" departPos="5.10" departSpeed="0.00" departDelay="0.80" arrival="57743.00" arrivalLane="-24634415_1" arrivalPos="62.03" arrivalSpeed="14.83" duration="87.00" routeLength="807.40" waitingTime="12.00" waitingCount="1" stopTime="0.00" timeLoss="29.61" rerouteNo="1" devices="tripinfo_h3568c1:3 routing_h3568c1:3 emissions_h3568c1:3" vType="default_016" speedFactor="1.12" vaporized="">
        <emissions CO_abs="5497.775828" CO2_abs="285985.478519" HC_abs="31.711699" PMx_abs="5.406284" NOx_abs="119.062426" fuel_abs="122.933324" electricity_abs="0"/>
    </tripinfo>
    <tripinfo id="h4538c1:1" depart="57701.00" departLane="-10427692#1_1" departPos="5.10" departSpeed="0.00" departDelay="0.00" arrival="57744.00" arrivalLane="-128361102#1_1" arrivalPos="274.68" arrivalSpeed="11.65" duration="43.00" routeLength="440.74" waitingTime="0.00" waitingCount="0" stopTime="0.00" timeLoss="7.15" rerouteNo="1" devices="tripinfo_h4538c1:1 routing_h4538c1:1 emissions_h4538c1:1" vType="default_016" speedFactor="0.89" vaporized="">
        <emissions CO_abs="1559.595350" CO2_abs="97514.615248" HC_abs="9.369169" PMx_abs="1.604188" NOx_abs="39.163520" fuel_abs="41.917588" electricity_abs="0"/>
    </tripinfo>
    <tripinfo id="carIn121703:1" depart="57647.00" departLane="386687232#0_1" departPos="5.10" departSpeed="0.00" departDelay="0.30" arrival="57747.00" arrivalLane="-315358244_1" arrivalPos="33.95" arrivalSpeed="12.15" duration="100.00" routeLength="1157.39" waitingTime="0.00" waitingCount="0" stopTime="0.00" timeLoss="8.99" rerouteNo="1" devices="tripinfo_carIn121703:1 routing_carIn121703:1 emissions_carIn121703:1" vType="default_016" speedFactor="0.93" vaporized="">
        <emissions CO_abs="2598.681162" CO2_abs="218033.888603" HC_abs="16.874769" PMx_abs="3.227034" NOx_abs="84.323373" fuel_abs="93.723833" electricity_abs="0"/>
    </tripinfo>
    <tripinfo id="h7181c1:1" depart="57660.00" departLane="315358254#0_1" departPos="5.10" departSpeed="0.00" departDelay="0.10" arrival="57750.00" arrivalLane="306240162#0_0" arrivalPos="220.43" arrivalSpeed="17.56" duration="90.00" routeLength="932.35" waitingTime="23.00" waitingCount="2" stopTime="0.00" timeLoss="42.43" rerouteNo="1" devices="tripinfo_h7181c1:1 routing_h7181c1:1 emissions_h7181c1:1" vType="default_016" speedFactor="1.08" vaporized="">
        <emissions CO_abs="6678.068795" CO2_abs="334750.250921" HC_abs="38.398129" PMx_abs="6.812049" NOx_abs="140.079210" fuel_abs="143.895012" electricity_abs="0"/>
    </tripinfo>
    <tripinfo id="h317c2:1" depart="57707.00" departLane="-32978638#0_1" departPos="5.10" departSpeed="0.00" departDelay="0.10" arrival="57763.00" arrivalLane="-266565295#5_1" arrivalPos="172.76" arrivalSpeed="15.32" duration="56.00" routeLength="370.53" waitingTime="20.00" waitingCount="1" stopTime="0.00" timeLoss="31.67" rerouteNo="1" devices="tripinfo_h317c2:1 routing_h317c2:1 emissions_h317c2:1" vType="default_016" speedFactor="1.13" vaporized="">
        <emissions CO_abs="4837.102205" CO2_abs="171874.961681" HC_abs="26.059419" PMx_abs="3.548378" NOx_abs="73.551453" fuel_abs="73.882785" electricity_abs="0"/>
    </tripinfo>
    <tripinfo id="carIn30817:1" depart="57681.00" departLane="315358244_1" departPos="5.10" departSpeed="0.00" departDelay="0.20" arrival="57766.00" arrivalLane="447569997#1_1" arrivalPos="180.93" arrivalSpeed="6.48" duration="85.00" routeLength="718.04" waitingTime="0.00" waitingCount="0" stopTime="0.00" timeLoss="9.91" rerouteNo="1" devices="tripinfo_carIn30817:1 routing_carIn30817:1 emissions_carIn30817:1" vType="default_016" speedFactor="0.82" vaporized="">
        <emissions CO_abs="2816.300892" CO2_abs="152305.869344" HC_abs="16.324490" PMx_abs="2.382693" NOx_abs="60.760871" fuel_abs="65.470605" electricity_abs="0"/>
    </tripinfo>
    <tripinfo id="h330c1:1" depart="57736.00" departLane="-32978638#0_1" departPos="5.10" departSpeed="0.00" departDelay="0.20" arrival="57766.00" arrivalLane="-266565295#5_1" arrivalPos="172.76" arrivalSpeed="15.05" duration="30.00" routeLength="370.53" waitingTime="0.00" waitingCount="0" stopTime="0.00" timeLoss="6.15" rerouteNo="1" devices="tripinfo_h330c1:1 routing_h330c1:1 emissions_h330c1:1" vType="default_016" speedFactor="1.14" vaporized="">
        <emissions CO_abs="1739.186894" CO2_abs="116896.994112" HC_abs="10.580875" PMx_abs="2.134136" NOx_abs="47.863628" fuel_abs="50.248881" electricity_abs="0"/>
    </tripinfo>
    <tripinfo id="h3326c1:2" depart="57656.00" departLane="22716069#0_1" departPos="5.10" departSpeed="0.00" departDelay="0.00" arrival="57767.00" arrivalLane="24634517#13_1" arrivalPos="111.62" arrivalSpeed="13.12" duration="111.00" routeLength="1312.81" waitingTime="0.00" waitingCount="0" stopTime="0.00" timeLoss="14.32" rerouteNo="1" devices="tripinfo_h3326c1:2 routing_h3326c1:2 emissions_h3326c1:2" vType="default_016" speedFactor="1.01" vaporized="">
        <emissions CO_abs="3773.435286" CO2_abs="286547.799620" HC_abs="23.880037" PMx_abs="4.820758" NOx_abs="114.815475" fuel_abs="123.174546" electricity_abs="0"/>
    </tripinfo>
    <tripinfo id="h9563c2:5" depart="57631.00" departLane="315358244_1" departPos="5.10" departSpeed="0.00" departDelay="0.70" arrival="57787.00" arrivalLane="386687235_1" arrivalPos="80.84" arrivalSpeed="12.75" duration="156.00" routeLength="1186.14" waitingTime="52.00" waitingCount="1" stopTime="0.00" timeLoss="65.13" rerouteNo="1" devices="tripinfo_h9563c2:5 routing_h9563c2:5 emissions_h9563c2:5" vType="default_016" speedFactor="0.96" vaporized="">
        <emissions CO_abs="10450.099080" CO2_abs="354812.964653" HC_abs="55.886235" PMx_abs="6.808450" NOx_abs="148.131446" fuel_abs="152.522409" electricity_abs="0"/>
    </tripinfo>
    <tripinfo id="h11737c1:1" depart="57665.00" departLane="272042143_1" departPos="5.10" departSpeed="0.00" departDelay="1.50" arrival="57789.00" arrivalLane="-315358254#1_1" arrivalPos="137.16" arrivalSpeed="13.45" duration="124.00" routeLength="1596.88" waitingTime="0.00" waitingCount="0" stopTime="0.00" timeLoss="12.09" rerouteNo="1" devices="tripinfo_h11737c1:1 routing_h11737c1:1 emissions_h11737c1:1" vType="default_016" speedFactor="1.05" vaporized="">
        <emissions CO_abs="3424.480303" CO2_abs="307294.597447" HC_abs="22.742252" PMx_abs="4.963057" NOx_abs="120.674645" fuel_abs="132.092594" electricity_abs="0"/>
    </tripinfo>
    <tripinfo id="carIn12365:1" depart="57713.00" departLane="315358244_1" departPos="5.10" departSpeed="0.00" departDelay="0.50" arrival="57789.00" arrivalLane="447569997#1_1" arrivalPos="180.93" arrivalSpeed="8.33" duration="76.00" routeLength="718.04" waitingTime="7.00" waitingCount="1" stopTime="0.00" timeLoss="17.94" rerouteNo="1" devices="tripinfo_carIn12365:1 routing_carIn12365:1 emissions_carIn12365:1" vType="default_016" speedFactor="1.06" vaporized="">
        <emissions CO_abs="2928.737843" CO2_abs="170717.691982" HC_abs="17.320734" PMx_abs="2.891003" NOx_abs="68.759808" fuel_abs="73.384708" electricity_abs="0"/>
    </tripinfo>
    <tripinfo id="carIn118591:1" depart="57689.00" departLane="315358244_1" departPos="5.10" departSpeed="0.00" departDelay="0.20" arrival="57790.00" arrivalLane="386687235_1" arrivalPos="80.84" arrivalSpeed="12.24" duration="101.00" routeLength="1186.14" waitingTime="0.00" waitingCount="0" stopTime="0.00" timeLoss="9.26" rerouteNo="1" devices="tripinfo_carIn118591:1 routing_carIn118591:1 emissions_carIn118591:1" vType="default_016" speedFactor="0.94" vaporized="">
        <emissions CO_abs="2550.611761" CO2_abs="219398.376973" HC_abs="16.703068" PMx_abs="3.314949" NOx_abs="85.249055" fuel_abs="94.310217" electricity_abs="0"/>
    </tripinfo>
    <tripinfo id="h5979c1:5" depart="57669.00" departLane="399835085#1_1" departPos="5.10" departSpeed="0.00" departDelay="0.00" arrival="57792.00" arrivalLane="-315358254#1_1" arrivalPos="137.16" arrivalSpeed="12.21" duration="123.00" routeLength="659.33" waitingTime="24.00" waitingCount="1" stopTime="0.00" timeLoss="43.18" rerouteNo="1" devices="tripinfo_h5979c1:5 routing_h5979c1:5 emissions_h5979c1:5" vType="default_016" speedFactor="0.92" vaporized="">
        <emissions CO_abs="7864.344485" CO2_abs="253146.639833" HC_abs="41.632888" PMx_abs="4.524371" NOx_abs="105.095230" fuel_abs="108.820100" electricity_abs="0"/>
    </tripinfo>
    <tripinfo id="carIn129809:1" depart="57729.00" departLane="-447569998#1_1" departPos="5.10" departSpeed="0.00" departDelay="1.00" arrival="57792.00" arrivalLane="-315358244_1" arrivalPos="33.95" arrivalSpeed="16.09" duration="63.00" routeLength="706.49" waitingTime="0.00" waitingCount="0" stopTime="0.00" timeLoss="10.22" rerouteNo="1" devices="tripinfo_carIn129809:1 routing_carIn129809:1 emissions_carIn129809:1" vType="default_015" speedFactor="1.16" vaporized="">
        <emissions CO_abs="2560.417727" CO2_abs="172172.890789" HC_abs="15.587839" PMx_abs="2.965633" NOx_abs="69.231172" fuel_abs="74.009850" electricity_abs="0"/>
    </tripinfo>
    <tripinfo id="carIn27009:1" depart="57673.00" departLane="-447569998#1_1" departPos="5.10" departSpeed="0.00" departDelay="0.50" arrival="57796.00" arrivalLane="-26677539_1" arrivalPos="152.75" arrivalSpeed="7.57" duration="123.00" routeLength="699.63" waitingTime="21.00" waitingCount="1" stopTime="0.00" timeLoss="36.34" rerouteNo="1" devices="tripinfo_carIn27009:1 routing_carIn27009:1 emissions_carIn27009:1" vType="default_015" speedFactor="0.96" vaporized="">
        <emissions CO_abs="7086.271352" CO2_abs="243691.761702" HC_abs="37.881792" PMx_abs="4.346488" NOx_abs="101.362045" fuel_abs="104.755306" electricity_abs="0"/>
    </tripinfo>
    <tripinfo id="h3154c1:1" depart="57658.00" departLane="24634507_1" departPos="5.10" departSpeed="0.00" departDelay="0.00" arrival="57797.00" arrivalLane="-266565295#5_1" arrivalPos="172.76" arrivalSpeed="13.58" duration="139.00" routeLength="1206.22" waitingTime="31.00" waitingCount="2" stopTime="0.00" timeLoss="52.47" rerouteNo="1" devices="tripinfo_h3154c1:1 routing_h3154c1:1 emissions_h3154c1:1" vType="default_016" speedFactor="1.04" vaporized="">
        <emissions CO_abs="7362.338444" CO2_abs="366324.807721" HC_abs="42.088974" PMx_abs="6.604350" NOx_abs="149.796502" fuel_abs="157.468722" electricity_abs="0"/>
    </tripinfo>
    <tripinfo id="carIn107282:1" depart="57749.00" departLane="-447569998#1_1" departPos="5.10" departSpeed="0.00" departDelay="0.00" arrival="57798.00" arrivalLane="315358242#0_1" arrivalPos="165.37" arrivalSpeed="13.02" duration="49.00" routeLength="448.50" waitingTime="0.00" waitingCount="0" stopTime="0.00" timeLoss="5.51" rerouteNo="1" devices="tripinfo_carIn107282:1 routing_carIn107282:1 emissions_carIn107282:1" vType="default_016" speedFactor="0.96" vaporized="">
        <emissions CO_abs="1986.177656" CO2_abs="112562.431607" HC_abs="11.647252" PMx_abs="1.814460" NOx_abs="45.058363" fuel_abs="48.386242" electricity_abs="0"/>
    </tripinfo>
    <tripinfo id="h17600c1:1" depart="57662.00" departLane="272042143_1" departPos="5.10" departSpeed="0.00" departDelay="0.30" arrival="57815.00" arrivalLane="201238729#3_1" arrivalPos="431.02" arrivalSpeed="15.16" duration="153.00" routeLength="2100.26" waitingTime="0.00" waitingCount="0" stopTime="0.00" timeLoss="14.18" rerouteNo="1" devices="tripinfo_h17600c1:1 routing_h17600c1:1 emissions_h17600c1:1" vType="default_016" speedFactor="1.09" vaporized="">
        <emissions CO_abs="3653.119626" CO2_abs="372876.979012" HC_abs="25.190022" PMx_abs="5.799621" NOx_abs="143.760539" fuel_abs="160.283628" electricity_abs="0"/>
    </tripinfo>
    <tripinfo id="carIn86816:1" depart="57617.00" departLane="128361102#0_1" departPos="5.10" departSpeed="0.00" departDelay="0.80" arrival="57820.00" arrivalLane="201956811#0_1" arrivalPos="40.40" arrivalSpeed="11.48" duration="203.00" routeLength="2067.33" waitingTime="5.00" waitingCount="1" stopTime="0.00" timeLoss="28.89" rerouteNo="1" devices="tripinfo_carIn86816:1 routing_carIn86816:1 emissions_carIn86816:1" vType="default_016" speedFactor="0.87" vaporized="">
        <emissions CO_abs="5942.022081" CO2_abs="419629.690967" HC_abs="36.802453" PMx_abs="6.687072" NOx_abs="166.750957" fuel_abs="180.381540" electricity_abs="0"/>
    </tripinfo>
    <tripinfo id="carIn50326:1" depart="57651.00" departLane="128361102#0_1" departPos="5.10" departSpeed="0.00" departDelay="0.30" arrival="57822.00" arrivalLane="18809673#0_1" arrivalPos="473.56" arrivalSpeed="12.99" duration="171.00" routeLength="1591.07" waitingTime="14.00" waitingCount="2" stopTime="0.00" timeLoss="43.02" rerouteNo="1" devices="tripinfo_carIn50326:1 routing_carIn50326:1 emissions_carIn50326:1" vType="default_016" speedFactor="1.02" vaporized="">
        <emissions CO_abs="6141.418956" CO2_abs="360170.803685" HC_abs="36.344747" PMx_abs="6.088363" NOx_abs="145.307815" fuel_abs="154.822972" electricity_abs="0"/>
    </tripinfo>
    <tripinfo id="carIn28951:1" depart="57606.00" departLane="10425609#0_1" departPos="5.10" departSpeed="0.00" departDelay="0.20" arrival="57826.00" arrivalLane="-128361102#1_1" arrivalPos="274.68" arrivalSpeed="13.34" duration="220.00" routeLength="2113.04" waitingTime="31.00" waitingCount="3" stopTime="0.00" timeLoss="65.55" rerouteNo="1" devices="tripinfo_carIn28951:1 routing_carIn28951:1 emissions_carIn28951:1" vType="default_016" speedFactor="1.00" vaporized="">
        <emissions CO_abs="9634.730700" CO2_abs="550584.797706" HC_abs="56.715696" PMx_abs="9.480166" NOx_abs="222.031337" fuel_abs="236.674376" electricity_abs="0"/>
    </tripinfo>
    <tripinfo id="carIn81860:1" depart="57712.00" departLane="128361102#0_1" departPos="5.10" departSpeed="0.00" departDelay="0.60" arrival="57826.00" arrivalLane="-24634517#17_1" arrivalPos="6.43" arrivalSpeed="6.79" duration="114.00" routeLength="1229.64" waitingTime="0.00" waitingCount="0" stopTime="0.00" timeLoss="11.18" rerouteNo="1" devices="tripinfo_carIn81860:1 routing_carIn81860:1 emissions_carIn81860:1" vType="default_016" speedFactor="0.87" vaporized="">
        <emissions CO_abs="3127.804271" CO2_abs="252156.461915" HC_abs="20.043710" PMx_abs="3.629511" NOx_abs="97.248974" fuel_abs="108.391950" electricity_abs="0"/>
    </tripinfo>
    <tripinfo id="randUni15030:1" depart="57735.00" departLane="386687232#0_1" departPos="5.10" departSpeed="0.00" departDelay="0.10" arrival="57827.00" arrivalLane="26677539_1" arrivalPos="151.98" arrivalSpeed="7.85" duration="92.00" routeLength="919.89" waitingTime="0.00" waitingCount="0" stopTime="0.00" timeLoss="10.82" rerouteNo="1" devices="tripinfo_randUni15030:1 routing_randUni15030:1 emissions_randUni15030:1" vType="random_016" speedFactor="1.03" vaporized="">
        <emissions CO_abs="3487.170548" CO2_abs="210750.233323" HC_abs="20.791453" PMx_abs="3.558503" NOx_abs="85.373624" fuel_abs="90.592945" electricity_abs="0"/>
    </tripinfo>
    <tripinfo id="carIn107084:1" depart="57601.00" departLane="124812856#0_1" departPos="5.10" departSpeed="0.00" departDelay="0.70" arrival="57828.00" arrivalLane="-128361102#1_1" arrivalPos="274.68" arrivalSpeed="13.75" duration="227.00" routeLength="2250.49" waitingTime="38.00" waitingCount="2" stopTime="0.00" timeLoss="67.17" rerouteNo="1" devices="tripinfo_carIn107084:1 routing_carIn107084:1 emissions_carIn107084:1" vType="default_016" speedFactor="1.03" vaporized="">
        <emissions CO_abs="10935.766234" CO2_abs="547037.248799" HC_abs="62.538133" PMx_abs="9.866705" NOx_abs="223.483889" fuel_abs="235.149898" electricity_abs="0"/>
    </tripinfo>
    <tripinfo id="carIn126288:1" depart="57674.00" departLane="272042143_1" departPos="5.10" departSpeed="0.00" departDelay="0.00" arrival="57828.00" arrivalLane="-315358254#1_1" arrivalPos="137.16" arrivalSpeed="12.17" duration="154.00" routeLength="1596.88" waitingTime="5.00" waitingCount="1" stopTime="0.00" timeLoss="22.66" rerouteNo="1" devices="tripinfo_carIn126288:1 routing_carIn126288:1 emissions_carIn126288:1" vType="default_016" speedFactor="0.88" vaporized="">
        <emissions CO_abs="4465.087425" CO2_abs="323868.751077" HC_abs="27.831183" PMx_abs="5.005210" NOx_abs="127.408311" fuel_abs="139.218016" electricity_abs="0"/>
    </tripinfo>
    <tripinfo id="carIn82278:1" depart="57702.00" departLane="-306240162#1_0" departPos="5.10" departSpeed="0.00" departDelay="0.70" arrival="57831.00" arrivalLane="399835085#1_1" arrivalPos="212.23" arrivalSpeed="8.55" duration="129.00" routeLength="1093.26" waitingTime="21.00" waitingCount="2" stopTime="0.00" timeLoss="57.47" rerouteNo="1" devices="tripinfo_carIn82278:1 routing_carIn82278:1 emissions_carIn82278:1" vType="default_016" speedFactor="1.10" vaporized="">
        <emissions CO_abs="8216.675855" CO2_abs="398245.951492" HC_abs="46.817523" PMx_abs="7.953142" NOx_abs="167.616396" fuel_abs="171.189389" electricity_abs="0"/>
    </tripinfo>
    <tripinfo id="h19804c1:3" depart="57617.00" departLane="124812856#0_1" departPos="5.10" departSpeed="0.00" departDelay="1.50" arrival="57847.00" arrivalLane="-128361102#1_1" arrivalPos="274.68" arrivalSpeed="13.06" duration="230.00" routeLength="2250.49" waitingTime="19.00" waitingCount="3" stopTime="0.00" timeLoss="58.83" rerouteNo="1" devices="tripinfo_h19804c1:3 routing_h19804c1:3 emissions_h19804c1:3" vType="default_016" speedFactor="0.96" vaporized="">
        <emissions CO_abs="8487.280706" CO2_abs="540398.659600" HC_abs="51.257496" PMx_abs="9.046371" NOx_abs="217.018772" fuel_abs="232.295256" electricity_abs="0"/>
    </tripinfo>
    <tripinfo id="h15382c1:3" depart="57626.00" departLane="124812856#0_1" departPos="5.10" departSpeed="0.00" departDelay="3.80" arrival="57849.00" arrivalLane="-128361102#1_1" arrivalPos="274.68" arrivalSpeed="13.63" duration="223.00" routeLength="2250.49" waitingTime="12.00" waitingCount="3" stopTime="0.00" timeLoss="57.65" rerouteNo="1" devices="tripinfo_h15382c1:3 routing_h15382c1:3 emissions_h15382c1:3" vType="default_016" speedFactor="0.99" vaporized="">
        <emissions CO_abs="7950.172807" CO2_abs="523427.905622" HC_abs="48.461067" PMx_abs="8.980412" NOx_abs="211.534776" fuel_abs="224.999666" electricity_abs="0"/>
    </tripinfo>
    <tripinfo id="carIn12152:1" depart="57647.00" departLane="24599188#0.94_1" departPos="5.10" departSpeed="0.00" departDelay="0.50" arrival="57849.00" arrivalLane="-315358254#1_1" arrivalPos="137.16" arrivalSpeed="13.26" duration="202.00" routeLength="2034.31" waitingTime="19.00" waitingCount="2" stopTime="0.00" timeLoss="47.95" rerouteNo="1" devices="tripinfo_carIn12152:1 routing_carIn12152:1 emissions_carIn12152:1" vType="default_016" speedFactor="1.03" vaporized="">
        <emissions CO_abs="8131.249302" CO2_abs="479864.150880" HC_abs="48.216210" PMx_abs="8.140427" NOx_abs="192.603201" fuel_abs="206.274373" electricity_abs="0"/>
    </tripinfo>
    <tripinfo id="carIn77943:1" depart="57608.00" departLane="124812856#0_1" departPos="5.10" departSpeed="0.00" departDelay="2.50" arrival="57850.00" arrivalLane="-128361102#1_1" arrivalPos="274.68" arrivalSpeed="14.54" duration="242.00" routeLength="2250.49" waitingTime="34.00" waitingCount="3" stopTime="0.00" timeLoss="87.60" rerouteNo="1" devices="tripinfo_carIn77943:1 routing_carIn77943:1 emissions_carIn77943:1" vType="default_016" speedFactor="1.06" vaporized="">
        <emissions CO_abs="12161.154893" CO2_abs="609215.851653" HC_abs="69.682907" PMx_abs="11.173635" NOx_abs="251.132754" fuel_abs="261.877656" electricity_abs="0"/>
    </tripinfo>
    <tripinfo id="h17549c1:1" depart="57680.00" departLane="-447569998#1_1" departPos="5.10" departSpeed="0.00" departDelay="0.00" arrival="57852.00" arrivalLane="-315358254#1_1" arrivalPos="137.16" arrivalSpeed="13.82" duration="172.00" routeLength="1746.60" waitingTime="21.00" waitingCount="3" stopTime="0.00" timeLoss="45.38" rerouteNo="1" devices="tripinfo_h17549c1:1 routing_h17549c1:1 emissions_h17549c1:1" vType="default_016" speedFactor="1.09" vaporized="">
        <emissions CO_abs="7089.233543" CO2_abs="410557.600922" HC_abs="41.855500" PMx_abs="7.087056" NOx_abs="165.126537" fuel_abs="176.482232" electricity_abs="0"/>
    </tripinfo>
    <tripinfo id="carIn8642:1" depart="57774.00" departLane="-447569998#1_1" departPos="5.10" departSpeed="0.00" departDelay="0.90" arrival="57853.00" arrivalLane="-315358244_1" arrivalPos="33.95" arrivalSpeed="13.72" duration="79.00" routeLength="706.49" waitingTime="8.00" waitingCount="1" stopTime="0.00" timeLoss="19.89" rerouteNo="1" devices="tripinfo_carIn8642:1 routing_carIn8642:1 emissions_carIn8642:1" vType="default_016" speedFactor="1.02" vaporized="">
        <emissions CO_abs="3514.522375" CO2_abs="183235.492331" HC_abs="20.262410" PMx_abs="3.229956" NOx_abs="75.036784" fuel_abs="78.765685" electricity_abs="0"/>
    </tripinfo>
    <tripinfo id="randUni31145:1" depart="57814.00" departLane="10425609#0_1" departPos="5.10" departSpeed="0.00" departDelay="0.30" arrival="57853.00" arrivalLane="201956810_1" arrivalPos="71.65" arrivalSpeed="14.80" duration="39.00" routeLength="255.78" waitingTime="9.00" waitingCount="1" stopTime="0.00" timeLoss="20.80" rerouteNo="1" devices="tripinfo_randUni31145:1 routing_randUni31145:1 emissions_randUni31145:1" vType="random_016" speedFactor="1.08" vaporized="">
        <emissions CO_abs="2932.795755" CO2_abs="129209.674865" HC_abs="16.422165" PMx_abs="2.610627" NOx_abs="55.289508" fuel_abs="55.541985" electricity_abs="0"/>
    </tripinfo>
    <tripinfo id="carIn126378:1" depart="57746.00" departLane="386687232#0_1" departPos="5.10" departSpeed="0.00" departDelay="1.80" arrival="57856.00" arrivalLane="-315358244_1" arrivalPos="33.95" arrivalSpeed="13.08" duration="110.00" routeLength="1157.39" waitingTime="12.00" waitingCount="1" stopTime="0.00" timeLoss="26.87" rerouteNo="1" devices="tripinfo_carIn126378:1 routing_carIn126378:1 emissions_carIn126378:1" vType="default_016" speedFactor="1.02" vaporized="">
        <emissions CO_abs="4648.994092" CO2_abs="273488.609060" HC_abs="27.482408" PMx_abs="4.643809" NOx_abs="109.532427" fuel_abs="117.561816" electricity_abs="0"/>
    </tripinfo>
    <tripinfo id="randUni2407:1" depart="57820.00" departLane="10425609#0_1" departPos="5.10" departSpeed="0.00" departDelay="0.80" arrival="57856.00" arrivalLane="201956810_1" arrivalPos="71.65" arrivalSpeed="13.62" duration="36.00" routeLength="255.78" waitingTime="5.00" waitingCount="1" stopTime="0.00" timeLoss="16.88" rerouteNo="1" devices="tripinfo_randUni2407:1 routing_randUni2407:1 emissions_randUni2407:1" vType="random_016" speedFactor="1.02" vaporized="">
        <emissions CO_abs="2148.525030" CO2_abs="107443.214282" HC_abs="12.325473" PMx_abs="2.081379" NOx_abs="45.421026" fuel_abs="46.185355" electricity_abs="0"/>
    </tripinfo>
    <tripinfo id="50R_frequency3.17" depart="57674.00" departLane="-18809673#6_1" departPos="12.10" departSpeed="0.00" departDelay="0.70" arrival="57860.00" arrivalLane="201956811#0_1" arrivalPos="40.40" arrivalSpeed="11.45" duration="186.00" routeLength="1954.47" waitingTime="7.00" waitingCount="2" stopTime="0.00" timeLoss="41.32" rerouteNo="1" devices="tripinfo_50R_frequency3.17 routing_50R_frequency3.17 emissions_50R_frequency3.17" vType="bus" speedFactor="1.00" vaporized="">
        <emissions CO_abs="3641.283682" CO2_abs="2277824.820446" HC_abs="762.269229" PMx_abs="389.900673" NOx_abs="17691.277823" fuel_abs="971.459742" electricity_abs="0"/>
    </tripinfo>