<?xml version="1.0" encoding="UTF-8"?>

<!-- generated on 2021-10-26 19:07:26 by Eclipse SUMO sumo Version 1.10.0
<configuration xmlns:xsi="http://www.w3.org/2001/XMLSchema-instance" xsi:noNamespaceSchemaLocation="http://sumo.dlr.de/xsd/sumoConfiguration.xsd">

    <input>
        <net-file value="/Users/behradkoohy/sumo-scratchpad/RESCO/environments/ingolstadt21/ingolstadt21.net.xml"/>
        <route-files value="/Users/behradkoohy/sumo-scratchpad/RESCO/environments/ingolstadt21/ingolstadt21.rou.xml"/>
    </input>

    <output>
        <tripinfo-output value="/Users/behradkoohy/sumo-scratchpad/RESCO/logs/MPLight-tr0-ingolstadt21-21-mplight-pressure/tripinfo_12.xml"/>
        <tripinfo-output.write-unfinished value="true"/>
    </output>

    <time>
        <begin value="57600"/>
        <end value="61200"/>
    </time>

    <processing>
        <time-to-teleport value="-1"/>
    </processing>

    <report>
        <no-warnings value="true"/>
        <no-step-log value="true"/>
    </report>

    <emissions>
        <device.emissions.probability value="1"/>
    </emissions>

    <traci_server>
        <remote-port value="62952"/>
    </traci_server>

    <random_number>
        <random value="true"/>
    </random_number>

</configuration>
-->

<tripinfos xmlns:xsi="http://www.w3.org/2001/XMLSchema-instance" xsi:noNamespaceSchemaLocation="http://sumo.dlr.de/xsd/tripinfo_file.xsd">
    <tripinfo id="h15454c2:3" depart="57612.00" departLane="24608844_1" departPos="5.10" departSpeed="0.00" departDelay="0.50" arrival="57669.00" arrivalLane="32978638#0_1" arrivalPos="49.29" arrivalSpeed="11.18" duration="57.00" routeLength="354.79" waitingTime="5.00" waitingCount="1" stopTime="0.00" timeLoss="15.84" rerouteNo="1" devices="tripinfo_h15454c2:3 routing_h15454c2:3 emissions_h15454c2:3" vType="default_016" speedFactor="0.84" vaporized="">
        <emissions CO_abs="3082.222104" CO2_abs="129096.745493" HC_abs="17.032923" PMx_abs="2.311727" NOx_abs="53.661846" fuel_abs="55.493989" electricity_abs="0"/>
    </tripinfo>
    <tripinfo id="carIn60260:1" depart="57606.00" departLane="315358254#0_1" departPos="5.10" departSpeed="0.00" departDelay="0.90" arrival="57674.00" arrivalLane="399835085#1_1" arrivalPos="212.23" arrivalSpeed="6.79" duration="68.00" routeLength="430.98" waitingTime="11.00" waitingCount="1" stopTime="0.00" timeLoss="20.52" rerouteNo="1" devices="tripinfo_carIn60260:1 routing_carIn60260:1 emissions_carIn60260:1" vType="default_016" speedFactor="0.97" vaporized="">
        <emissions CO_abs="3520.298400" CO2_abs="135985.368594" HC_abs="19.174602" PMx_abs="2.402973" NOx_abs="56.219237" fuel_abs="58.455451" electricity_abs="0"/>
    </tripinfo>
    <tripinfo id="carIn53971:1" depart="57640.00" departLane="272042143_1" departPos="5.10" departSpeed="0.00" departDelay="0.80" arrival="57697.00" arrivalLane="24634414#1_1" arrivalPos="162.19" arrivalSpeed="6.58" duration="57.00" routeLength="493.04" waitingTime="0.00" waitingCount="0" stopTime="0.00" timeLoss="7.94" rerouteNo="1" devices="tripinfo_carIn53971:1 routing_carIn53971:1 emissions_carIn53971:1" vType="default_016" speedFactor="0.93" vaporized="">
        <emissions CO_abs="2232.022433" CO2_abs="120311.840582" HC_abs="12.951439" PMx_abs="2.000574" NOx_abs="48.751349" fuel_abs="51.717393" electricity_abs="0"/>
    </tripinfo>
    <tripinfo id="h7800c1:5" depart="57696.00" departLane="-447569998#1_1" departPos="5.10" departSpeed="0.00" departDelay="0.00" arrival="57722.00" arrivalLane="-447569998#1_2" arrivalPos="180.76" arrivalSpeed="7.50" duration="26.00" routeLength="175.66" waitingTime="0.00" waitingCount="0" stopTime="0.00" timeLoss="3.69" rerouteNo="1" devices="tripinfo_h7800c1:5 routing_h7800c1:5 emissions_h7800c1:5" vType="default_016" speedFactor="0.97" vaporized="">
        <emissions CO_abs="1201.418920" CO2_abs="49441.082080" HC_abs="6.608033" PMx_abs="0.838860" NOx_abs="20.329882" fuel_abs="21.253001" electricity_abs="0"/>
    </tripinfo>
    <tripinfo id="h12244c1:3" depart="57612.00" departLane="315358244_1" departPos="5.10" departSpeed="0.00" departDelay="0.40" arrival="57726.00" arrivalLane="386687235_1" arrivalPos="80.84" arrivalSpeed="13.94" duration="114.00" routeLength="1186.14" waitingTime="15.00" waitingCount="1" stopTime="0.00" timeLoss="31.39" rerouteNo="1" devices="tripinfo_h12244c1:3 routing_h12244c1:3 emissions_h12244c1:3" vType="default_016" speedFactor="1.04" vaporized="">
        <emissions CO_abs="5471.532489" CO2_abs="283810.911515" HC_abs="31.531914" PMx_abs="5.027423" NOx_abs="115.107509" fuel_abs="121.999196" electricity_abs="0"/>
    </tripinfo>
    <tripinfo id="h4538c1:1" depart="57701.00" departLane="-10427692#1_1" departPos="5.10" departSpeed="0.00" departDelay="0.00" arrival="57738.00" arrivalLane="-128361102#1_1" arrivalPos="274.68" arrivalSpeed="14.86" duration="37.00" routeLength="440.74" waitingTime="0.00" waitingCount="0" stopTime="0.00" timeLoss="6.77" rerouteNo="1" devices="tripinfo_h4538c1:1 routing_h4538c1:1 emissions_h4538c1:1" vType="default_016" speedFactor="1.07" vaporized="">
        <emissions CO_abs="1535.368102" CO2_abs="108669.561960" HC_abs="9.483863" PMx_abs="1.840684" NOx_abs="43.441107" fuel_abs="46.712440" electricity_abs="0"/>
    </tripinfo>
    <tripinfo id="h3688c1:1" depart="57625.00" departLane="201201950#1_1" departPos="5.10" departSpeed="0.00" departDelay="0.00" arrival="57745.00" arrivalLane="32978638#0_1" arrivalPos="49.29" arrivalSpeed="13.25" duration="120.00" routeLength="1089.75" waitingTime="20.00" waitingCount="1" stopTime="0.00" timeLoss="38.74" rerouteNo="1" devices="tripinfo_h3688c1:1 routing_h3688c1:1 emissions_h3688c1:1" vType="default_016" speedFactor="0.98" vaporized="">
        <emissions CO_abs="6547.410702" CO2_abs="309120.384006" HC_abs="37.071182" PMx_abs="5.690483" NOx_abs="127.580002" fuel_abs="132.878844" electricity_abs="0"/>
    </tripinfo>
    <tripinfo id="h7181c1:1" depart="57660.00" departLane="315358254#0_1" departPos="5.10" departSpeed="0.00" departDelay="0.10" arrival="57747.00" arrivalLane="306240162#0_0" arrivalPos="220.43" arrivalSpeed="18.48" duration="87.00" routeLength="932.35" waitingTime="28.00" waitingCount="1" stopTime="0.00" timeLoss="43.25" rerouteNo="1" devices="tripinfo_h7181c1:1 routing_h7181c1:1 emissions_h7181c1:1" vType="default_016" speedFactor="1.17" vaporized="">
        <emissions CO_abs="8194.003924" CO2_abs="357637.064962" HC_abs="45.926285" PMx_abs="7.741802" NOx_abs="152.573807" fuel_abs="153.733298" electricity_abs="0"/>
    </tripinfo>
    <tripinfo id="carIn121703:1" depart="57647.00" departLane="386687232#0_1" departPos="5.10" departSpeed="0.00" departDelay="0.30" arrival="57750.00" arrivalLane="-315358244_1" arrivalPos="33.95" arrivalSpeed="14.37" duration="103.00" routeLength="1157.39" waitingTime="15.00" waitingCount="1" stopTime="0.00" timeLoss="26.05" rerouteNo="1" devices="tripinfo_carIn121703:1 routing_carIn121703:1 emissions_carIn121703:1" vType="default_016" speedFactor="1.10" vaporized="">
        <emissions CO_abs="4848.005779" CO2_abs="285826.501744" HC_abs="28.641047" PMx_abs="5.049128" NOx_abs="115.080581" fuel_abs="122.865128" electricity_abs="0"/>
    </tripinfo>
    <tripinfo id="h317c2:1" depart="57707.00" departLane="-32978638#0_1" departPos="5.10" departSpeed="0.00" departDelay="0.10" arrival="57753.00" arrivalLane="-266565295#5_1" arrivalPos="172.76" arrivalSpeed="15.03" duration="46.00" routeLength="370.53" waitingTime="10.00" waitingCount="1" stopTime="0.00" timeLoss="22.17" rerouteNo="1" devices="tripinfo_h317c2:1 routing_h317c2:1 emissions_h317c2:1" vType="default_016" speedFactor="1.15" vaporized="">
        <emissions CO_abs="3108.792545" CO2_abs="145405.915358" HC_abs="17.589000" PMx_abs="2.862148" NOx_abs="61.254936" fuel_abs="62.504088" electricity_abs="0"/>
    </tripinfo>
    <tripinfo id="S5R_frequency1.2" depart="57624.00" departLane="315358250#0_1" departPos="12.10" departSpeed="0.00" departDelay="12.40" arrival="57757.00" arrivalLane="386687235_1" arrivalPos="80.84" arrivalSpeed="13.33" duration="133.00" routeLength="1115.62" waitingTime="25.00" waitingCount="2" stopTime="0.00" timeLoss="51.22" rerouteNo="1" devices="tripinfo_S5R_frequency1.2 routing_S5R_frequency1.2 emissions_S5R_frequency1.2" vType="bus" speedFactor="1.00" vaporized="">
        <emissions CO_abs="2761.077601" CO2_abs="1580927.978133" HC_abs="589.933050" PMx_abs="292.547031" NOx_abs="12672.369349" fuel_abs="674.197078" electricity_abs="0"/>
    </tripinfo>
    <tripinfo id="carIn27009:1" depart="57673.00" departLane="-447569998#1_1" departPos="5.10" departSpeed="0.00" departDelay="0.50" arrival="57757.00" arrivalLane="-26677539_1" arrivalPos="152.75" arrivalSpeed="8.73" duration="84.00" routeLength="699.63" waitingTime="0.00" waitingCount="0" stopTime="0.00" timeLoss="9.92" rerouteNo="1" devices="tripinfo_carIn27009:1 routing_carIn27009:1 emissions_carIn27009:1" vType="default_015" speedFactor="1.12" vaporized="">
        <emissions CO_abs="3205.173402" CO2_abs="174566.601454" HC_abs="18.608672" PMx_abs="2.755892" NOx_abs="70.046329" fuel_abs="75.039579" electricity_abs="0"/>
    </tripinfo>
    <tripinfo id="carIn22761:1" depart="57616.00" departLane="-306240162#1_0" departPos="5.10" departSpeed="0.00" departDelay="2.10" arrival="57758.00" arrivalLane="399835085#1_1" arrivalPos="212.23" arrivalSpeed="7.62" duration="142.00" routeLength="1093.26" waitingTime="32.00" waitingCount="2" stopTime="0.00" timeLoss="57.04" rerouteNo="1" devices="tripinfo_carIn22761:1 routing_carIn22761:1 emissions_carIn22761:1" vType="default_016" speedFactor="0.92" vaporized="">
        <emissions CO_abs="9266.533517" CO2_abs="381837.814213" HC_abs="51.188272" PMx_abs="7.451813" NOx_abs="159.882316" fuel_abs="164.137646" electricity_abs="0"/>
    </tripinfo>
    <tripinfo id="carIn107084:1" depart="57601.00" departLane="124812856#0_1" departPos="5.10" departSpeed="0.00" departDelay="0.70" arrival="57762.00" arrivalLane="-128361102#1_1" arrivalPos="274.68" arrivalSpeed="14.71" duration="161.00" routeLength="2250.49" waitingTime="0.00" waitingCount="0" stopTime="0.00" timeLoss="15.25" rerouteNo="1" devices="tripinfo_carIn107084:1 routing_carIn107084:1 emissions_carIn107084:1" vType="default_016" speedFactor="1.12" vaporized="">
        <emissions CO_abs="4730.735947" CO2_abs="450770.228361" HC_abs="31.909406" PMx_abs="7.497737" NOx_abs="177.173863" fuel_abs="193.766045" electricity_abs="0"/>
    </tripinfo>
    <tripinfo id="h5979c1:5" depart="57669.00" departLane="399835085#1_1" departPos="5.10" departSpeed="0.00" departDelay="0.00" arrival="57765.00" arrivalLane="-315358254#1_1" arrivalPos="137.16" arrivalSpeed="11.78" duration="96.00" routeLength="659.33" waitingTime="0.00" waitingCount="0" stopTime="0.00" timeLoss="11.49" rerouteNo="1" devices="tripinfo_h5979c1:5 routing_h5979c1:5 emissions_h5979c1:5" vType="default_016" speedFactor="0.87" vaporized="">
        <emissions CO_abs="3887.669297" CO2_abs="171795.727876" HC_abs="21.620688" PMx_abs="2.678119" NOx_abs="68.914135" fuel_abs="73.849144" electricity_abs="0"/>
    </tripinfo>
    <tripinfo id="carIn30817:1" depart="57681.00" departLane="315358244_1" departPos="5.10" departSpeed="0.00" departDelay="0.20" arrival="57771.00" arrivalLane="447569997#1_1" arrivalPos="180.93" arrivalSpeed="6.42" duration="90.00" routeLength="718.04" waitingTime="10.00" waitingCount="1" stopTime="0.00" timeLoss="22.81" rerouteNo="1" devices="tripinfo_carIn30817:1 routing_carIn30817:1 emissions_carIn30817:1" vType="default_016" speedFactor="0.92" vaporized="">
        <emissions CO_abs="3929.046968" CO2_abs="180658.669210" HC_abs="22.081889" PMx_abs="3.110599" NOx_abs="73.775842" fuel_abs="77.658497" electricity_abs="0"/>
    </tripinfo>
    <tripinfo id="h9563c2:5" depart="57631.00" departLane="315358244_1" departPos="5.10" departSpeed="0.00" departDelay="0.70" arrival="57775.00" arrivalLane="386687235_1" arrivalPos="80.84" arrivalSpeed="14.07" duration="144.00" routeLength="1186.14" waitingTime="41.00" waitingCount="4" stopTime="0.00" timeLoss="64.68" rerouteNo="1" devices="tripinfo_h9563c2:5 routing_h9563c2:5 emissions_h9563c2:5" vType="default_016" speedFactor="1.09" vaporized="">
        <emissions CO_abs="9217.203316" CO2_abs="364435.056777" HC_abs="50.368965" PMx_abs="6.940563" NOx_abs="151.157364" fuel_abs="156.657447" electricity_abs="0"/>
    </tripinfo>
    <tripinfo id="h3568c1:3" depart="57656.00" departLane="266565295#5_1" departPos="5.10" departSpeed="0.00" departDelay="0.80" arrival="57775.00" arrivalLane="-24634415_1" arrivalPos="62.03" arrivalSpeed="13.43" duration="119.00" routeLength="807.40" waitingTime="34.00" waitingCount="2" stopTime="0.00" timeLoss="54.14" rerouteNo="1" devices="tripinfo_h3568c1:3 routing_h3568c1:3 emissions_h3568c1:3" vType="default_016" speedFactor="0.99" vaporized="">
        <emissions CO_abs="8560.057113" CO2_abs="321556.270238" HC_abs="46.541608" PMx_abs="6.400247" NOx_abs="136.716400" fuel_abs="138.225215" electricity_abs="0"/>
    </tripinfo>
    <tripinfo id="h3154c1:1" depart="57658.00" departLane="24634507_1" departPos="5.10" departSpeed="0.00" departDelay="0.00" arrival="57787.00" arrivalLane="-266565295#5_1" arrivalPos="172.76" arrivalSpeed="12.91" duration="129.00" routeLength="1206.22" waitingTime="22.00" waitingCount="1" stopTime="0.00" timeLoss="40.01" rerouteNo="1" devices="tripinfo_h3154c1:1 routing_h3154c1:1 emissions_h3154c1:1" vType="default_016" speedFactor="1.01" vaporized="">
        <emissions CO_abs="6897.371057" CO2_abs="336633.852701" HC_abs="39.285678" PMx_abs="6.211928" NOx_abs="138.883892" fuel_abs="144.705601" electricity_abs="0"/>
    </tripinfo>
    <tripinfo id="carIn80064:1" depart="57603.00" departLane="128361109#1_1" departPos="5.10" departSpeed="0.00" departDelay="0.40" arrival="57799.00" arrivalLane="-315358254#1_1" arrivalPos="137.16" arrivalSpeed="12.88" duration="196.00" routeLength="1587.97" waitingTime="57.00" waitingCount="3" stopTime="0.00" timeLoss="106.36" rerouteNo="1" devices="tripinfo_carIn80064:1 routing_carIn80064:1 emissions_carIn80064:1" vType="default_016" speedFactor="0.99" vaporized="">
        <emissions CO_abs="15040.804842" CO2_abs="588676.322054" HC_abs="82.504716" PMx_abs="12.182409" NOx_abs="250.296971" fuel_abs="253.049366" electricity_abs="0"/>
    </tripinfo>
    <tripinfo id="carIn12365:1" depart="57713.00" departLane="315358244_1" departPos="5.10" departSpeed="0.00" departDelay="0.50" arrival="57799.00" arrivalLane="447569997#1_1" arrivalPos="180.93" arrivalSpeed="6.87" duration="86.00" routeLength="718.04" waitingTime="7.00" waitingCount="1" stopTime="0.00" timeLoss="20.05" rerouteNo="1" devices="tripinfo_carIn12365:1 routing_carIn12365:1 emissions_carIn12365:1" vType="default_016" speedFactor="0.93" vaporized="">
        <emissions CO_abs="3390.070501" CO2_abs="180184.092911" HC_abs="19.625997" PMx_abs="3.054985" NOx_abs="73.121509" fuel_abs="77.454131" electricity_abs="0"/>
    </tripinfo>
    <tripinfo id="h330c1:1" depart="57736.00" departLane="-32978638#0_1" departPos="5.10" departSpeed="0.00" departDelay="0.20" arrival="57804.00" arrivalLane="-266565295#5_1" arrivalPos="172.76" arrivalSpeed="13.54" duration="68.00" routeLength="370.53" waitingTime="32.00" waitingCount="1" stopTime="0.00" timeLoss="41.72" rerouteNo="1" devices="tripinfo_h330c1:1 routing_h330c1:1 emissions_h330c1:1" vType="default_016" speedFactor="1.07" vaporized="">
        <emissions CO_abs="6591.101185" CO2_abs="196161.045385" HC_abs="34.654553" PMx_abs="4.196505" NOx_abs="85.101387" fuel_abs="84.323166" electricity_abs="0"/>
    </tripinfo>
    <tripinfo id="carIn118591:1" depart="57689.00" departLane="315358244_1" departPos="5.10" departSpeed="0.00" departDelay="0.20" arrival="57807.00" arrivalLane="386687235_1" arrivalPos="80.84" arrivalSpeed="12.10" duration="118.00" routeLength="1186.14" waitingTime="4.00" waitingCount="2" stopTime="0.00" timeLoss="23.35" rerouteNo="1" devices="tripinfo_carIn118591:1 routing_carIn118591:1 emissions_carIn118591:1" vType="default_016" speedFactor="0.91" vaporized="">
        <emissions CO_abs="3983.861653" CO2_abs="274629.465300" HC_abs="24.519002" PMx_abs="4.372075" NOx_abs="108.821873" fuel_abs="118.052026" electricity_abs="0"/>
    </tripinfo>
    <tripinfo id="h645c1:1" depart="57622.00" departLane="266565295#5_1" departPos="5.10" departSpeed="0.00" departDelay="0.40" arrival="57810.00" arrivalLane="-315358244_1" arrivalPos="33.95" arrivalSpeed="15.98" duration="188.00" routeLength="1910.83" waitingTime="36.00" waitingCount="4" stopTime="0.00" timeLoss="69.56" rerouteNo="1" devices="tripinfo_h645c1:1 routing_h645c1:1 emissions_h645c1:1" vType="default_016" speedFactor="1.18" vaporized="">
        <emissions CO_abs="9610.850225" CO2_abs="523223.938202" HC_abs="55.803891" PMx_abs="9.686121" NOx_abs="213.814626" fuel_abs="224.912497" electricity_abs="0"/>
    </tripinfo>
    <tripinfo id="h3326c1:2" depart="57656.00" departLane="22716069#0_1" departPos="5.10" departSpeed="0.00" departDelay="0.00" arrival="57816.00" arrivalLane="24634517#13_1" arrivalPos="111.62" arrivalSpeed="8.98" duration="160.00" routeLength="1312.81" waitingTime="0.00" waitingCount="0" stopTime="0.00" timeLoss="17.52" rerouteNo="1" devices="tripinfo_h3326c1:2 routing_h3326c1:2 emissions_h3326c1:2" vType="default_016" speedFactor="0.68" vaporized="">
        <emissions CO_abs="5362.009629" CO2_abs="295832.018901" HC_abs="31.153037" PMx_abs="4.313125" NOx_abs="116.286854" fuel_abs="127.167493" electricity_abs="0"/>
    </tripinfo>
    <tripinfo id="carIn50326:1" depart="57651.00" departLane="128361102#0_1" departPos="5.10" departSpeed="0.00" departDelay="0.30" arrival="57822.00" arrivalLane="18809673#0_1" arrivalPos="473.56" arrivalSpeed="13.34" duration="171.00" routeLength="1591.07" waitingTime="27.00" waitingCount="1" stopTime="0.00" timeLoss="45.89" rerouteNo="1" devices="tripinfo_carIn50326:1 routing_carIn50326:1 emissions_carIn50326:1" vType="default_016" speedFactor="1.03" vaporized="">
        <emissions CO_abs="8824.222727" CO2_abs="410237.491549" HC_abs="49.725866" PMx_abs="7.202323" NOx_abs="166.656465" fuel_abs="176.345847" electricity_abs="0"/>
    </tripinfo>
    <tripinfo id="carIn107282:1" depart="57749.00" departLane="-447569998#1_1" departPos="5.10" departSpeed="0.00" departDelay="0.00" arrival="57826.00" arrivalLane="315358242#0_1" arrivalPos="165.37" arrivalSpeed="13.12" duration="77.00" routeLength="448.50" waitingTime="28.00" waitingCount="1" stopTime="0.00" timeLoss="35.62" rerouteNo="1" devices="tripinfo_carIn107282:1 routing_carIn107282:1 emissions_carIn107282:1" vType="default_016" speedFactor="1.01" vaporized="">
        <emissions CO_abs="5895.933045" CO2_abs="183947.002842" HC_abs="31.140106" PMx_abs="3.591751" NOx_abs="77.668665" fuel_abs="79.073024" electricity_abs="0"/>
    </tripinfo>
    <tripinfo id="h11737c1:1" depart="57665.00" departLane="272042143_1" departPos="5.10" departSpeed="0.00" departDelay="1.50" arrival="57827.00" arrivalLane="-315358254#1_1" arrivalPos="137.16" arrivalSpeed="13.24" duration="162.00" routeLength="1596.88" waitingTime="27.00" waitingCount="1" stopTime="0.00" timeLoss="42.84" rerouteNo="1" devices="tripinfo_h11737c1:1 routing_h11737c1:1 emissions_h11737c1:1" vType="default_016" speedFactor="0.98" vaporized="">
        <emissions CO_abs="8029.310873" CO2_abs="389920.792883" HC_abs="45.647347" PMx_abs="6.927258" NOx_abs="158.595907" fuel_abs="167.612054" electricity_abs="0"/>
    </tripinfo>
    <tripinfo id="carIn126288:1" depart="57674.00" departLane="272042143_1" departPos="5.10" departSpeed="0.00" departDelay="0.00" arrival="57830.00" arrivalLane="-315358254#1_1" arrivalPos="137.16" arrivalSpeed="12.68" duration="156.00" routeLength="1596.88" waitingTime="16.00" waitingCount="1" stopTime="0.00" timeLoss="32.21" rerouteNo="1" devices="tripinfo_carIn126288:1 routing_carIn126288:1 emissions_carIn126288:1" vType="default_016" speedFactor="0.94" vaporized="">
        <emissions CO_abs="6267.735308" CO2_abs="371833.765710" HC_abs="37.179742" PMx_abs="6.033868" NOx_abs="147.538022" fuel_abs="159.836826" electricity_abs="0"/>
    </tripinfo>
    <tripinfo id="carIn12152:1" depart="57647.00" departLane="24599188#0.94_1" departPos="5.10" departSpeed="0.00" departDelay="0.50" arrival="57832.00" arrivalLane="-315358254#1_1" arrivalPos="137.16" arrivalSpeed="12.74" duration="185.00" routeLength="2034.31" waitingTime="6.00" waitingCount="1" stopTime="0.00" timeLoss="27.82" rerouteNo="1" devices="tripinfo_carIn12152:1 routing_carIn12152:1 emissions_carIn12152:1" vType="default_016" speedFactor="1.01" vaporized="">
        <emissions CO_abs="5616.632177" CO2_abs="427916.055937" HC_abs="35.517411" PMx_abs="6.878552" NOx_abs="169.159466" fuel_abs="183.943162" electricity_abs="0"/>
    </tripinfo>
    <tripinfo id="carIn77943:1" depart="57608.00" departLane="124812856#0_1" departPos="5.10" departSpeed="0.00" departDelay="2.50" arrival="57841.00" arrivalLane="-128361102#1_1" arrivalPos="274.68" arrivalSpeed="15.42" duration="233.00" routeLength="2250.49" waitingTime="49.00" waitingCount="1" stopTime="0.00" timeLoss="86.21" rerouteNo="1" devices="tripinfo_carIn77943:1 routing_carIn77943:1 emissions_carIn77943:1" vType="default_016" speedFactor="1.12" vaporized="">
        <emissions CO_abs="13852.171326" CO2_abs="636902.836902" HC_abs="77.977699" PMx_abs="11.959242" NOx_abs="263.073390" fuel_abs="273.779853" electricity_abs="0"/>
    </tripinfo>
    <tripinfo id="carIn81046:1" depart="57611.00" departLane="124812856#0_1" departPos="5.10" departSpeed="0.00" departDelay="2.50" arrival="57845.00" arrivalLane="-128361102#1_1" arrivalPos="274.68" arrivalSpeed="14.56" duration="234.00" routeLength="2250.49" waitingTime="49.00" waitingCount="1" stopTime="0.00" timeLoss="79.16" rerouteNo="1" devices="tripinfo_carIn81046:1 routing_carIn81046:1 emissions_carIn81046:1" vType="default_016" speedFactor="1.06" vaporized="">
        <emissions CO_abs="12956.249393" CO2_abs="599629.619867" HC_abs="73.008054" PMx_abs="10.979131" NOx_abs="245.623817" fuel_abs="257.757928" electricity_abs="0"/>
    </tripinfo>
    <tripinfo id="carIn12858:1" depart="57661.00" departLane="128361109#1_1" departPos="5.10" departSpeed="0.00" departDelay="0.90" arrival="57846.00" arrivalLane="399835085#1_1" arrivalPos="212.23" arrivalSpeed="7.50" duration="185.00" routeLength="1738.12" waitingTime="33.00" waitingCount="1" stopTime="0.00" timeLoss="64.46" rerouteNo="1" devices="tripinfo_carIn12858:1 routing_carIn12858:1 emissions_carIn12858:1" vType="default_016" speedFactor="0.96" vaporized="">
        <emissions CO_abs="12230.958458" CO2_abs="564148.549680" HC_abs="69.097924" PMx_abs="11.049437" NOx_abs="235.171111" fuel_abs="242.504977" electricity_abs="0"/>
    </tripinfo>
    <tripinfo id="carIn82278:1" depart="57702.00" departLane="-306240162#1_0" departPos="5.10" departSpeed="0.00" departDelay="0.70" arrival="57849.00" arrivalLane="399835085#1_1" arrivalPos="212.23" arrivalSpeed="7.14" duration="147.00" routeLength="1093.26" waitingTime="38.00" waitingCount="2" stopTime="0.00" timeLoss="66.22" rerouteNo="1" devices="tripinfo_carIn82278:1 routing_carIn82278:1 emissions_carIn82278:1" vType="default_016" speedFactor="0.97" vaporized="">
        <emissions CO_abs="10525.949819" CO2_abs="412346.122287" HC_abs="57.507518" PMx_abs="8.194470" NOx_abs="173.375424" fuel_abs="177.252230" electricity_abs="0"/>
    </tripinfo>
    <tripinfo id="carIn81860:1" depart="57712.00" departLane="128361102#0_1" departPos="5.10" departSpeed="0.00" departDelay="0.60" arrival="57852.00" arrivalLane="-24634517#17_1" arrivalPos="6.43" arrivalSpeed="5.52" duration="140.00" routeLength="1229.64" waitingTime="16.00" waitingCount="1" stopTime="0.00" timeLoss="38.32" rerouteNo="1" devices="tripinfo_carIn81860:1 routing_carIn81860:1 emissions_carIn81860:1" vType="default_016" speedFactor="0.88" vaporized="">
        <emissions CO_abs="6052.226444" CO2_abs="301231.480429" HC_abs="34.583337" PMx_abs="5.254235" NOx_abs="122.911376" fuel_abs="129.487827" electricity_abs="0"/>
    </tripinfo>
    <tripinfo id="randUni31145:1" depart="57814.00" departLane="10425609#0_1" departPos="5.10" departSpeed="0.00" departDelay="0.30" arrival="57853.00" arrivalLane="201956810_1" arrivalPos="71.65" arrivalSpeed="14.38" duration="39.00" routeLength="255.78" waitingTime="10.00" waitingCount="1" stopTime="0.00" timeLoss="20.75" rerouteNo="1" devices="tripinfo_randUni31145:1 routing_randUni31145:1 emissions_randUni31145:1" vType="random_016" speedFactor="1.11" vaporized="">
        <emissions CO_abs="2878.545346" CO2_abs="131257.504913" HC_abs="16.230912" PMx_abs="2.672457" NOx_abs="56.289435" fuel_abs="56.422147" electricity_abs="0"/>
    </tripinfo>
    <tripinfo id="randUni15030:1" depart="57735.00" departLane="386687232#0_1" departPos="5.10" departSpeed="0.00" departDelay="0.10" arrival="57856.00" arrivalLane="26677539_1" arrivalPos="151.98" arrivalSpeed="7.92" duration="121.00" routeLength="919.89" waitingTime="19.00" waitingCount="2" stopTime="0.00" timeLoss="37.11" rerouteNo="1" devices="tripinfo_randUni15030:1 routing_randUni15030:1 emissions_randUni15030:1" vType="random_016" speedFactor="0.99" vaporized="">
        <emissions CO_abs="5934.231020" CO2_abs="270266.549049" HC_abs="33.334210" PMx_abs="4.871076" NOx_abs="111.596023" fuel_abs="116.177354" electricity_abs="0"/>
    </tripinfo>
    <tripinfo id="randUni2407:1" depart="57820.00" departLane="10425609#0_1" departPos="5.10" departSpeed="0.00" departDelay="0.80" arrival="57859.00" arrivalLane="201956810_1" arrivalPos="71.65" arrivalSpeed="11.59" duration="39.00" routeLength="255.78" waitingTime="5.00" waitingCount="1" stopTime="0.00" timeLoss="15.49" rerouteNo="1" devices="tripinfo_randUni2407:1 routing_randUni2407:1 emissions_randUni2407:1" vType="random_016" speedFactor="0.84" vaporized="">
        <emissions CO_abs="2120.437706" CO2_abs="98772.102012" HC_abs="11.966837" PMx_abs="1.818036" NOx_abs="41.320009" fuel_abs="42.458256" electricity_abs="0"/>
    </tripinfo>
    <tripinfo id="carIn46110:1" depart="57684.00" departLane="315358244_1" departPos="5.10" departSpeed="0.00" departDelay="1.20" arrival="57860.00" arrivalLane="32978638#0_1" arrivalPos="49.29" arrivalSpeed="14.44" duration="176.00" routeLength="1764.04" waitingTime="28.00" waitingCount="3" stopTime="0.00" timeLoss="56.39" rerouteNo="1" devices="tripinfo_carIn46110:1 routing_carIn46110:1 emissions_carIn46110:1" vType="default_016" speedFactor="1.08" vaporized="">
        <emissions CO_abs="7566.809926" CO2_abs="441296.423171" HC_abs="44.660586" PMx_abs="7.750265" NOx_abs="178.116873" fuel_abs="189.695372" electricity_abs="0"/>
    </tripinfo>
    <tripinfo id="carIn8642:1" depart="57774.00" departLane="-447569998#1_1" departPos="5.10" departSpeed="0.00" departDelay="0.90" arrival="57863.00" arrivalLane="-315358244_1" arrivalPos="33.95" arrivalSpeed="14.37" duration="89.00" routeLength="706.49" waitingTime="14.00" waitingCount="2" stopTime="0.00" timeLoss="31.79" rerouteNo="1" devices="tripinfo_carIn8642:1 routing_carIn8642:1 emissions_carIn8642:1" vType="default_016" speedFactor="1.06" vaporized="">
        <emissions CO_abs="4809.989441" CO2_abs="227606.006372" HC_abs="27.244149" PMx_abs="4.264356" NOx_abs="94.772782" fuel_abs="97.838818" electricity_abs="0"/>
    </tripinfo>
    <tripinfo id="carIn129809:1" depart="57729.00" departLane="-447569998#1_1" departPos="5.10" departSpeed="0.00" departDelay="1.00" arrival="57865.00" arrivalLane="-315358244_1" arrivalPos="33.95" arrivalSpeed="11.19" duration="136.00" routeLength="706.49" waitingTime="48.00" waitingCount="2" stopTime="0.00" timeLoss="66.69" rerouteNo="1" devices="tripinfo_carIn129809:1 routing_carIn129809:1 emissions_carIn129809:1" vType="default_015" speedFactor="0.87" vaporized="">
        <emissions CO_abs="9880.127186" CO2_abs="293438.033149" HC_abs="51.828357" PMx_abs="5.780925" NOx_abs="124.643865" fuel_abs="126.140055" electricity_abs="0"/>
    </tripinfo>
    <tripinfo id="carIn73855:1" depart="57743.00" departLane="386687232#0_1" departPos="5.10" departSpeed="0.00" departDelay="0.50" arrival="57866.00" arrivalLane="-315358244_1" arrivalPos="33.95" arrivalSpeed="12.07" duration="123.00" routeLength="1157.39" waitingTime="22.00" waitingCount="3" stopTime="0.00" timeLoss="48.85" rerouteNo="1" devices="tripinfo_carIn73855:1 routing_carIn73855:1 emissions_carIn73855:1" vType="default_016" speedFactor="1.14" vaporized="">
        <emissions CO_abs="5525.765679" CO2_abs="316787.706320" HC_abs="32.484943" PMx_abs="5.742651" NOx_abs="129.419799" fuel_abs="136.173901" electricity_abs="0"/>
    </tripinfo>
    <tripinfo id="carIn126378:1" depart="57746.00" departLane="386687232#0_1" departPos="5.10" departSpeed="0.00" departDelay="1.80" arrival="57866.00" arrivalLane="-315358244_2" arrivalPos="33.95" arrivalSpeed="12.86" duration="120.00" routeLength="1157.39" waitingTime="9.00" waitingCount="2" stopTime="0.00" timeLoss="30.80" rerouteNo="1" devices="tripinfo_carIn126378:1 routing_carIn126378:1 emissions_carIn126378:1" vType="default_016" speedFactor="0.95" vaporized="">
        <emissions CO_abs="4355.066490" CO2_abs="287446.941775" HC_abs="26.495531" PMx_abs="4.539047" NOx_abs="113.309216" fuel_abs="123.561988" electricity_abs="0"/>
    </tripinfo>
    <tripinfo id="carIn99509:1" depart="57720.00" departLane="-32978638#0_1" departPos="5.10" departSpeed="0.00" departDelay="0.20" arrival="57868.00" arrivalLane="-315358244_1" arrivalPos="33.95" arrivalSpeed="14.72" duration="148.00" routeLength="1785.24" waitingTime="7.00" waitingCount="1" stopTime="0.00" timeLoss="35.77" rerouteNo="1" devices="tripinfo_carIn99509:1 routing_carIn99509:1 emissions_carIn99509:1" vType="default_015" speedFactor="1.16" vaporized="">
        <emissions CO_abs="6218.251759" CO2_abs="435603.887932" HC_abs="38.304706" PMx_abs="7.820261" NOx_abs="176.464258" fuel_abs="187.247069" electricity_abs="0"/>