<?xml version="1.0" encoding="UTF-8"?>

<!-- generated on 2021-10-26 19:16:34 by Eclipse SUMO sumo Version 1.10.0
<configuration xmlns:xsi="http://www.w3.org/2001/XMLSchema-instance" xsi:noNamespaceSchemaLocation="http://sumo.dlr.de/xsd/sumoConfiguration.xsd">

    <input>
        <net-file value="/Users/behradkoohy/sumo-scratchpad/RESCO/environments/ingolstadt21/ingolstadt21.net.xml"/>
        <route-files value="/Users/behradkoohy/sumo-scratchpad/RESCO/environments/ingolstadt21/ingolstadt21.rou.xml"/>
    </input>

    <output>
        <tripinfo-output value="/Users/behradkoohy/sumo-scratchpad/RESCO/logs/MPLight-tr0-ingolstadt21-21-mplight-pressure/tripinfo_18.xml"/>
        <tripinfo-output.write-unfinished value="true"/>
    </output>

    <time>
        <begin value="57600"/>
        <end value="61200"/>
    </time>

    <processing>
        <time-to-teleport value="-1"/>
    </processing>

    <report>
        <no-warnings value="true"/>
        <no-step-log value="true"/>
    </report>

    <emissions>
        <device.emissions.probability value="1"/>
    </emissions>

    <traci_server>
        <remote-port value="63181"/>
    </traci_server>

    <random_number>
        <random value="true"/>
    </random_number>

</configuration>
-->

<tripinfos xmlns:xsi="http://www.w3.org/2001/XMLSchema-instance" xsi:noNamespaceSchemaLocation="http://sumo.dlr.de/xsd/tripinfo_file.xsd">
    <tripinfo id="h15454c2:3" depart="57612.00" departLane="24608844_1" departPos="5.10" departSpeed="0.00" departDelay="0.50" arrival="57662.00" arrivalLane="32978638#0_1" arrivalPos="49.29" arrivalSpeed="11.33" duration="50.00" routeLength="354.79" waitingTime="2.00" waitingCount="1" stopTime="0.00" timeLoss="10.46" rerouteNo="1" devices="tripinfo_h15454c2:3 routing_h15454c2:3 emissions_h15454c2:3" vType="default_016" speedFactor="0.87" vaporized="">
        <emissions CO_abs="2233.752618" CO2_abs="104615.915321" HC_abs="12.593538" PMx_abs="1.787725" NOx_abs="42.860774" fuel_abs="44.970484" electricity_abs="0"/>
    </tripinfo>
    <tripinfo id="carIn60260:1" depart="57606.00" departLane="315358254#0_1" departPos="5.10" departSpeed="0.00" departDelay="0.90" arrival="57663.00" arrivalLane="399835085#1_1" arrivalPos="212.23" arrivalSpeed="8.02" duration="57.00" routeLength="430.98" waitingTime="1.00" waitingCount="1" stopTime="0.00" timeLoss="10.89" rerouteNo="1" devices="tripinfo_carIn60260:1 routing_carIn60260:1 emissions_carIn60260:1" vType="default_016" speedFactor="1.01" vaporized="">
        <emissions CO_abs="2631.973980" CO2_abs="126138.280299" HC_abs="14.899972" PMx_abs="2.120262" NOx_abs="51.466830" fuel_abs="54.222147" electricity_abs="0"/>
    </tripinfo>
    <tripinfo id="carIn53971:1" depart="57640.00" departLane="272042143_1" departPos="5.10" departSpeed="0.00" departDelay="0.80" arrival="57697.00" arrivalLane="24634414#1_1" arrivalPos="162.19" arrivalSpeed="7.04" duration="57.00" routeLength="493.04" waitingTime="0.00" waitingCount="0" stopTime="0.00" timeLoss="8.78" rerouteNo="1" devices="tripinfo_carIn53971:1 routing_carIn53971:1 emissions_carIn53971:1" vType="default_016" speedFactor="0.94" vaporized="">
        <emissions CO_abs="2397.940443" CO2_abs="130952.956600" HC_abs="13.972883" PMx_abs="2.301433" NOx_abs="53.848476" fuel_abs="56.291380" electricity_abs="0"/>
    </tripinfo>
    <tripinfo id="h7800c1:5" depart="57696.00" departLane="-447569998#1_1" departPos="5.10" departSpeed="0.00" departDelay="0.00" arrival="57719.00" arrivalLane="-447569998#1_1" arrivalPos="180.76" arrivalSpeed="8.63" duration="23.00" routeLength="175.66" waitingTime="0.00" waitingCount="0" stopTime="0.00" timeLoss="3.06" rerouteNo="1" devices="tripinfo_h7800c1:5 routing_h7800c1:5 emissions_h7800c1:5" vType="default_016" speedFactor="1.11" vaporized="">
        <emissions CO_abs="1033.003849" CO2_abs="50409.280370" HC_abs="5.861721" PMx_abs="0.810547" NOx_abs="20.369221" fuel_abs="21.669107" electricity_abs="0"/>
    </tripinfo>
    <tripinfo id="carIn22761:1" depart="57616.00" departLane="-306240162#1_0" departPos="5.10" departSpeed="0.00" departDelay="2.10" arrival="57725.00" arrivalLane="399835085#1_1" arrivalPos="212.23" arrivalSpeed="6.96" duration="109.00" routeLength="1093.26" waitingTime="11.00" waitingCount="1" stopTime="0.00" timeLoss="28.78" rerouteNo="1" devices="tripinfo_carIn22761:1 routing_carIn22761:1 emissions_carIn22761:1" vType="default_016" speedFactor="0.97" vaporized="">
        <emissions CO_abs="5721.899350" CO2_abs="316650.045004" HC_abs="33.407932" PMx_abs="5.801579" NOx_abs="128.794467" fuel_abs="136.114906" electricity_abs="0"/>
    </tripinfo>
    <tripinfo id="h3688c1:1" depart="57625.00" departLane="201201950#1_1" departPos="5.10" departSpeed="0.00" departDelay="0.00" arrival="57732.00" arrivalLane="32978638#0_1" arrivalPos="49.29" arrivalSpeed="13.03" duration="107.00" routeLength="1089.75" waitingTime="9.00" waitingCount="1" stopTime="0.00" timeLoss="22.72" rerouteNo="1" devices="tripinfo_h3688c1:1 routing_h3688c1:1 emissions_h3688c1:1" vType="default_016" speedFactor="0.95" vaporized="">
        <emissions CO_abs="4447.626328" CO2_abs="270172.957971" HC_abs="26.563930" PMx_abs="4.640257" NOx_abs="109.194909" fuel_abs="116.136292" electricity_abs="0"/>
    </tripinfo>
    <tripinfo id="carIn121703:1" depart="57647.00" departLane="386687232#0_1" departPos="5.10" departSpeed="0.00" departDelay="0.30" arrival="57752.00" arrivalLane="-315358244_1" arrivalPos="33.95" arrivalSpeed="14.40" duration="105.00" routeLength="1157.39" waitingTime="14.00" waitingCount="1" stopTime="0.00" timeLoss="25.36" rerouteNo="1" devices="tripinfo_carIn121703:1 routing_carIn121703:1 emissions_carIn121703:1" vType="default_016" speedFactor="1.06" vaporized="">
        <emissions CO_abs="4284.677426" CO2_abs="268208.842919" HC_abs="25.655098" PMx_abs="4.453170" NOx_abs="106.029292" fuel_abs="115.292243" electricity_abs="0"/>
    </tripinfo>
    <tripinfo id="h3568c1:3" depart="57656.00" departLane="266565295#5_1" departPos="5.10" departSpeed="0.00" departDelay="0.80" arrival="57754.00" arrivalLane="-24634415_1" arrivalPos="62.03" arrivalSpeed="13.94" duration="98.00" routeLength="807.40" waitingTime="18.00" waitingCount="1" stopTime="0.00" timeLoss="34.61" rerouteNo="1" devices="tripinfo_h3568c1:3 routing_h3568c1:3 emissions_h3568c1:3" vType="default_016" speedFactor="1.01" vaporized="">
        <emissions CO_abs="5832.732245" CO2_abs="277368.118727" HC_abs="33.023409" PMx_abs="5.108291" NOx_abs="114.779526" fuel_abs="119.229700" electricity_abs="0"/>
    </tripinfo>
    <tripinfo id="carIn80064:1" depart="57603.00" departLane="128361109#1_1" departPos="5.10" departSpeed="0.00" departDelay="0.40" arrival="57758.00" arrivalLane="-315358254#1_1" arrivalPos="137.16" arrivalSpeed="14.14" duration="155.00" routeLength="1587.97" waitingTime="34.00" waitingCount="2" stopTime="0.00" timeLoss="67.44" rerouteNo="1" devices="tripinfo_carIn80064:1 routing_carIn80064:1 emissions_carIn80064:1" vType="default_016" speedFactor="1.03" vaporized="">
        <emissions CO_abs="11395.486092" CO2_abs="550857.171225" HC_abs="65.025318" PMx_abs="11.187582" NOx_abs="231.075833" fuel_abs="236.790571" electricity_abs="0"/>
    </tripinfo>
    <tripinfo id="h3154c1:1" depart="57658.00" departLane="24634507_1" departPos="5.10" departSpeed="0.00" departDelay="0.00" arrival="57762.00" arrivalLane="-266565295#5_1" arrivalPos="172.76" arrivalSpeed="12.26" duration="104.00" routeLength="1206.22" waitingTime="0.00" waitingCount="0" stopTime="0.00" timeLoss="11.68" rerouteNo="1" devices="tripinfo_h3154c1:1 routing_h3154c1:1 emissions_h3154c1:1" vType="default_016" speedFactor="0.96" vaporized="">
        <emissions CO_abs="3253.735170" CO2_abs="260754.978477" HC_abs="20.857140" PMx_abs="4.074090" NOx_abs="102.267131" fuel_abs="112.087668" electricity_abs="0"/>
    </tripinfo>
    <tripinfo id="carIn30817:1" depart="57681.00" departLane="315358244_1" departPos="5.10" departSpeed="0.00" departDelay="0.20" arrival="57763.00" arrivalLane="447569997#1_1" arrivalPos="180.93" arrivalSpeed="6.63" duration="82.00" routeLength="718.04" waitingTime="0.00" waitingCount="0" stopTime="0.00" timeLoss="11.41" rerouteNo="1" devices="tripinfo_carIn30817:1 routing_carIn30817:1 emissions_carIn30817:1" vType="default_016" speedFactor="0.87" vaporized="">
        <emissions CO_abs="3008.845355" CO2_abs="171913.071877" HC_abs="17.649266" PMx_abs="2.627707" NOx_abs="67.912888" fuel_abs="73.898986" electricity_abs="0"/>
    </tripinfo>
    <tripinfo id="h9563c2:5" depart="57631.00" departLane="315358244_1" departPos="5.10" departSpeed="0.00" departDelay="0.70" arrival="57768.00" arrivalLane="386687235_1" arrivalPos="80.84" arrivalSpeed="13.20" duration="137.00" routeLength="1186.14" waitingTime="36.00" waitingCount="1" stopTime="0.00" timeLoss="49.60" rerouteNo="1" devices="tripinfo_h9563c2:5 routing_h9563c2:5 emissions_h9563c2:5" vType="default_016" speedFactor="1.00" vaporized="">
        <emissions CO_abs="8361.491989" CO2_abs="326808.279763" HC_abs="45.670141" PMx_abs="5.996027" NOx_abs="134.133105" fuel_abs="140.483503" electricity_abs="0"/>
    </tripinfo>
    <tripinfo id="h5979c1:5" depart="57669.00" departLane="399835085#1_1" departPos="5.10" departSpeed="0.00" departDelay="0.00" arrival="57769.00" arrivalLane="-315358254#1_1" arrivalPos="137.16" arrivalSpeed="11.73" duration="100.00" routeLength="659.33" waitingTime="5.00" waitingCount="1" stopTime="0.00" timeLoss="19.46" rerouteNo="1" devices="tripinfo_h5979c1:5 routing_h5979c1:5 emissions_h5979c1:5" vType="default_016" speedFactor="0.91" vaporized="">
        <emissions CO_abs="3854.287471" CO2_abs="170119.292979" HC_abs="21.468167" PMx_abs="2.851463" NOx_abs="69.572257" fuel_abs="73.128196" electricity_abs="0"/>
    </tripinfo>
    <tripinfo id="h4538c1:1" depart="57701.00" departLane="-10427692#1_1" departPos="5.10" departSpeed="0.00" departDelay="0.00" arrival="57774.00" arrivalLane="-128361102#1_1" arrivalPos="274.68" arrivalSpeed="13.63" duration="73.00" routeLength="440.74" waitingTime="33.00" waitingCount="1" stopTime="0.00" timeLoss="42.81" rerouteNo="1" devices="tripinfo_h4538c1:1 routing_h4538c1:1 emissions_h4538c1:1" vType="default_016" speedFactor="1.04" vaporized="">
        <emissions CO_abs="6567.220829" CO2_abs="194863.777547" HC_abs="34.456412" PMx_abs="3.959209" NOx_abs="82.775812" fuel_abs="83.765888" electricity_abs="0"/>
    </tripinfo>
    <tripinfo id="h3326c1:2" depart="57656.00" departLane="22716069#0_1" departPos="5.10" departSpeed="0.00" departDelay="0.00" arrival="57778.00" arrivalLane="24634517#13_1" arrivalPos="111.62" arrivalSpeed="11.58" duration="122.00" routeLength="1312.81" waitingTime="0.00" waitingCount="0" stopTime="0.00" timeLoss="14.38" rerouteNo="1" devices="tripinfo_h3326c1:2 routing_h3326c1:2 emissions_h3326c1:2" vType="default_016" speedFactor="0.90" vaporized="">
        <emissions CO_abs="4218.979931" CO2_abs="299207.730337" HC_abs="26.199738" PMx_abs="4.968181" NOx_abs="120.146403" fuel_abs="128.616777" electricity_abs="0"/>
    </tripinfo>
    <tripinfo id="carIn12365:1" depart="57713.00" departLane="315358244_1" departPos="5.10" departSpeed="0.00" departDelay="0.50" arrival="57778.00" arrivalLane="447569997#1_1" arrivalPos="180.93" arrivalSpeed="8.06" duration="65.00" routeLength="718.04" waitingTime="0.00" waitingCount="0" stopTime="0.00" timeLoss="7.16" rerouteNo="1" devices="tripinfo_carIn12365:1 routing_carIn12365:1 emissions_carIn12365:1" vType="default_016" speedFactor="1.08" vaporized="">
        <emissions CO_abs="2002.847786" CO2_abs="145245.154376" HC_abs="12.430953" PMx_abs="2.250044" NOx_abs="56.833245" fuel_abs="62.435006" electricity_abs="0"/>
    </tripinfo>
    <tripinfo id="h7181c1:1" depart="57660.00" departLane="315358254#0_1" departPos="5.10" departSpeed="0.00" departDelay="0.10" arrival="57781.00" arrivalLane="306240162#0_0" arrivalPos="220.43" arrivalSpeed="16.85" duration="121.00" routeLength="932.35" waitingTime="43.00" waitingCount="3" stopTime="0.00" timeLoss="71.96" rerouteNo="1" devices="tripinfo_h7181c1:1 routing_h7181c1:1 emissions_h7181c1:1" vType="default_016" speedFactor="1.05" vaporized="">
        <emissions CO_abs="10787.101152" CO2_abs="416933.402120" HC_abs="59.109919" PMx_abs="8.953469" NOx_abs="179.816800" fuel_abs="179.223248" electricity_abs="0"/>
    </tripinfo>
    <tripinfo id="carIn27009:1" depart="57673.00" departLane="-447569998#1_1" departPos="5.10" departSpeed="0.00" departDelay="0.50" arrival="57781.00" arrivalLane="-26677539_1" arrivalPos="152.75" arrivalSpeed="6.55" duration="108.00" routeLength="699.63" waitingTime="0.00" waitingCount="0" stopTime="0.00" timeLoss="15.05" rerouteNo="1" devices="tripinfo_carIn27009:1 routing_carIn27009:1 emissions_carIn27009:1" vType="default_015" speedFactor="0.90" vaporized="">
        <emissions CO_abs="4728.717362" CO2_abs="198454.368125" HC_abs="26.080181" PMx_abs="3.269535" NOx_abs="81.067158" fuel_abs="85.308688" electricity_abs="0"/>
    </tripinfo>
    <tripinfo id="S5R_frequency1.2" depart="57616.00" departLane="315358250#0_1" departPos="12.10" departSpeed="0.00" departDelay="4.40" arrival="57787.00" arrivalLane="386687235_1" arrivalPos="80.84" arrivalSpeed="13.65" duration="171.00" routeLength="1115.62" waitingTime="54.00" waitingCount="3" stopTime="0.00" timeLoss="89.29" rerouteNo="1" devices="tripinfo_S5R_frequency1.2 routing_S5R_frequency1.2 emissions_S5R_frequency1.2" vType="bus" speedFactor="1.00" vaporized="">
        <emissions CO_abs="3478.637098" CO2_abs="1819140.085539" HC_abs="750.074107" PMx_abs="364.446652" NOx_abs="15098.489108" fuel_abs="775.717061" electricity_abs="0"/>
    </tripinfo>
    <tripinfo id="h12244c1:3" depart="57612.00" departLane="315358244_1" departPos="5.10" departSpeed="0.00" departDelay="0.40" arrival="57790.00" arrivalLane="386687235_1" arrivalPos="80.84" arrivalSpeed="11.52" duration="178.00" routeLength="1186.14" waitingTime="42.00" waitingCount="3" stopTime="0.00" timeLoss="76.05" rerouteNo="1" devices="tripinfo_h12244c1:3 routing_h12244c1:3 emissions_h12244c1:3" vType="default_016" speedFactor="0.85" vaporized="">
        <emissions CO_abs="10530.903586" CO2_abs="369509.894908" HC_abs="56.532936" PMx_abs="6.767559" NOx_abs="153.079879" fuel_abs="158.840233" electricity_abs="0"/>
    </tripinfo>
    <tripinfo id="h317c2:1" depart="57707.00" departLane="-32978638#0_1" departPos="5.10" departSpeed="0.00" departDelay="0.10" arrival="57794.00" arrivalLane="-266565295#5_1" arrivalPos="172.76" arrivalSpeed="13.50" duration="87.00" routeLength="370.53" waitingTime="52.00" waitingCount="1" stopTime="0.00" timeLoss="60.57" rerouteNo="1" devices="tripinfo_h317c2:1 routing_h317c2:1 emissions_h317c2:1" vType="default_016" speedFactor="1.03" vaporized="">
        <emissions CO_abs="9812.674030" CO2_abs="242893.716542" HC_abs="50.387884" PMx_abs="5.338895" NOx_abs="106.358764" fuel_abs="104.413186" electricity_abs="0"/>
    </tripinfo>
    <tripinfo id="h330c1:1" depart="57736.00" departLane="-32978638#0_1" departPos="5.10" departSpeed="0.00" departDelay="0.20" arrival="57797.00" arrivalLane="-266565295#5_1" arrivalPos="172.76" arrivalSpeed="12.89" duration="61.00" routeLength="370.53" waitingTime="25.00" waitingCount="1" stopTime="0.00" timeLoss="33.47" rerouteNo="1" devices="tripinfo_h330c1:1 routing_h330c1:1 emissions_h330c1:1" vType="default_016" speedFactor="1.01" vaporized="">
        <emissions CO_abs="5194.950694" CO2_abs="166793.065177" HC_abs="27.588962" PMx_abs="3.437379" NOx_abs="71.550243" fuel_abs="71.698686" electricity_abs="0"/>
    </tripinfo>
    <tripinfo id="carIn118591:1" depart="57689.00" departLane="315358244_1" departPos="5.10" departSpeed="0.00" departDelay="0.20" arrival="57798.00" arrivalLane="386687235_1" arrivalPos="80.84" arrivalSpeed="12.05" duration="109.00" routeLength="1186.14" waitingTime="0.00" waitingCount="0" stopTime="0.00" timeLoss="14.23" rerouteNo="1" devices="tripinfo_carIn118591:1 routing_carIn118591:1 emissions_carIn118591:1" vType="default_016" speedFactor="0.91" vaporized="">
        <emissions CO_abs="3198.360542" CO2_abs="236911.298849" HC_abs="20.056093" PMx_abs="3.668181" NOx_abs="93.037878" fuel_abs="101.838493" electricity_abs="0"/>
    </tripinfo>
    <tripinfo id="carIn12858:1" depart="57661.00" departLane="128361109#1_1" departPos="5.10" departSpeed="0.00" departDelay="0.90" arrival="57802.00" arrivalLane="399835085#1_1" arrivalPos="212.23" arrivalSpeed="7.44" duration="141.00" routeLength="1738.12" waitingTime="2.00" waitingCount="1" stopTime="0.00" timeLoss="26.25" rerouteNo="1" devices="tripinfo_carIn12858:1 routing_carIn12858:1 emissions_carIn12858:1" vType="default_016" speedFactor="1.01" vaporized="">
        <emissions CO_abs="7250.763158" CO2_abs="486136.380895" HC_abs="44.578174" PMx_abs="9.317998" NOx_abs="200.103980" fuel_abs="208.968267" electricity_abs="0"/>
    </tripinfo>
    <tripinfo id="carIn129809:1" depart="57729.00" departLane="-447569998#1_1" departPos="5.10" departSpeed="0.00" departDelay="1.00" arrival="57808.00" arrivalLane="-315358244_1" arrivalPos="33.95" arrivalSpeed="13.61" duration="79.00" routeLength="706.49" waitingTime="8.00" waitingCount="1" stopTime="0.00" timeLoss="18.19" rerouteNo="1" devices="tripinfo_carIn129809:1 routing_carIn129809:1 emissions_carIn129809:1" vType="default_015" speedFactor="1.00" vaporized="">
        <emissions CO_abs="3293.061697" CO2_abs="179508.697376" HC_abs="19.175037" PMx_abs="3.029639" NOx_abs="72.322424" fuel_abs="77.163799" electricity_abs="0"/>
    </tripinfo>
    <tripinfo id="h16072c2:3" depart="57663.00" departLane="315358254#0_1" departPos="5.10" departSpeed="0.00" departDelay="2.50" arrival="57813.00" arrivalLane="386687235_1" arrivalPos="80.84" arrivalSpeed="14.66" duration="150.00" routeLength="1611.92" waitingTime="17.00" waitingCount="3" stopTime="0.00" timeLoss="42.38" rerouteNo="1" devices="tripinfo_h16072c2:3 routing_h16072c2:3 emissions_h16072c2:3" vType="default_016" speedFactor="1.10" vaporized="">
        <emissions CO_abs="5106.885639" CO2_abs="377909.439081" HC_abs="32.063940" PMx_abs="6.532510" NOx_abs="151.607321" fuel_abs="162.446906" electricity_abs="0"/>
    </tripinfo>
    <tripinfo id="h11737c1:1" depart="57665.00" departLane="272042143_1" departPos="5.10" departSpeed="0.00" departDelay="1.50" arrival="57817.00" arrivalLane="-315358254#1_1" arrivalPos="137.16" arrivalSpeed="14.01" duration="152.00" routeLength="1596.88" waitingTime="19.00" waitingCount="2" stopTime="0.00" timeLoss="39.92" rerouteNo="1" devices="tripinfo_h11737c1:1 routing_h11737c1:1 emissions_h11737c1:1" vType="default_016" speedFactor="1.04" vaporized="">
        <emissions CO_abs="6579.212017" CO2_abs="377263.179194" HC_abs="38.660193" PMx_abs="6.507674" NOx_abs="151.581986" fuel_abs="162.170354" electricity_abs="0"/>
    </tripinfo>
    <tripinfo id="carIn126288:1" depart="57674.00" departLane="272042143_1" departPos="5.10" departSpeed="0.00" departDelay="0.00" arrival="57820.00" arrivalLane="-315358254#1_1" arrivalPos="137.16" arrivalSpeed="12.51" duration="146.00" routeLength="1596.88" waitingTime="7.00" waitingCount="1" stopTime="0.00" timeLoss="24.79" rerouteNo="1" devices="tripinfo_carIn126288:1 routing_carIn126288:1 emissions_carIn126288:1" vType="default_016" speedFactor="0.96" vaporized="">
        <emissions CO_abs="4637.644415" CO2_abs="333354.500211" HC_abs="28.855022" PMx_abs="5.314349" NOx_abs="131.445555" fuel_abs="143.295414" electricity_abs="0"/>
    </tripinfo>
    <tripinfo id="h17549c1:1" depart="57680.00" departLane="-447569998#1_1" departPos="5.10" departSpeed="0.00" departDelay="0.00" arrival="57822.00" arrivalLane="-315358254#1_1" arrivalPos="137.16" arrivalSpeed="14.77" duration="142.00" routeLength="1746.60" waitingTime="0.00" waitingCount="0" stopTime="0.00" timeLoss="14.65" rerouteNo="1" devices="tripinfo_h17549c1:1 routing_h17549c1:1 emissions_h17549c1:1" vType="default_016" speedFactor="1.07" vaporized="">
        <emissions CO_abs="4306.956635" CO2_abs="376051.764676" HC_abs="28.157965" PMx_abs="5.935891" NOx_abs="146.753009" fuel_abs="161.648593" electricity_abs="0"/>
    </tripinfo>
    <tripinfo id="carIn107282:1" depart="57749.00" departLane="-447569998#1_1" departPos="5.10" departSpeed="0.00" departDelay="0.00" arrival="57827.00" arrivalLane="315358242#0_1" arrivalPos="165.37" arrivalSpeed="11.80" duration="78.00" routeLength="448.50" waitingTime="24.00" waitingCount="1" stopTime="0.00" timeLoss="33.10" rerouteNo="1" devices="tripinfo_carIn107282:1 routing_carIn107282:1 emissions_carIn107282:1" vType="default_016" speedFactor="0.92" vaporized="">
        <emissions CO_abs="5716.344992" CO2_abs="170369.853603" HC_abs="30.000397" PMx_abs="3.360146" NOx_abs="72.468319" fuel_abs="73.236770" electricity_abs="0"/>
    </tripinfo>
    <tripinfo id="carIn86816:1" depart="57617.00" departLane="128361102#0_1" departPos="5.10" departSpeed="0.00" departDelay="0.80" arrival="57832.00" arrivalLane="201956811#0_1" arrivalPos="40.40" arrivalSpeed="12.39" duration="215.00" routeLength="2067.33" waitingTime="26.00" waitingCount="3" stopTime="0.00" timeLoss="59.82" rerouteNo="1" devices="tripinfo_carIn86816:1 routing_carIn86816:1 emissions_carIn86816:1" vType="default_016" speedFactor="0.97" vaporized="">
        <emissions CO_abs="9494.804016" CO2_abs="519797.379596" HC_abs="55.387400" PMx_abs="9.115820" NOx_abs="211.288035" fuel_abs="223.440125" electricity_abs="0"/>
    </tripinfo>
    <tripinfo id="carIn50326:1" depart="57651.00" departLane="128361102#0_1" departPos="5.10" departSpeed="0.00" departDelay="0.30" arrival="57834.00" arrivalLane="18809673#0_1" arrivalPos="473.56" arrivalSpeed="10.83" duration="183.00" routeLength="1591.07" waitingTime="13.00" waitingCount="1" stopTime="0.00" timeLoss="33.11" rerouteNo="1" devices="tripinfo_carIn50326:1 routing_carIn50326:1 emissions_carIn50326:1" vType="default_016" speedFactor="0.86" vaporized="">
        <emissions CO_abs="7346.601321" CO2_abs="382016.718629" HC_abs="42.249937" PMx_abs="6.061953" NOx_abs="152.334124" fuel_abs="164.214895" electricity_abs="0"/>
    </tripinfo>
    <tripinfo id="carIn102915:1" depart="57643.00" departLane="128361102#0_1" departPos="5.10" departSpeed="0.00" departDelay="0.40" arrival="57835.00" arrivalLane="201956811#0_1" arrivalPos="40.40" arrivalSpeed="13.22" duration="192.00" routeLength="2067.33" waitingTime="4.00" waitingCount="2" stopTime="0.00" timeLoss="44.63" rerouteNo="1" devices="tripinfo_carIn102915:1 routing_carIn102915:1 emissions_carIn102915:1" vType="default_016" speedFactor="1.03" vaporized="">
        <emissions CO_abs="7297.263872" CO2_abs="502711.063298" HC_abs="45.024494" PMx_abs="8.663753" NOx_abs="203.195731" fuel_abs="216.094039" electricity_abs="0"/>
    </tripinfo>
    <tripinfo id="randUni33724:1" depart="57646.00" departLane="128361102#0_1" departPos="5.10" departSpeed="0.00" departDelay="1.20" arrival="57837.00" arrivalLane="201956811#0_1" arrivalPos="40.40" arrivalSpeed="14.02" duration="191.00" routeLength="2067.33" waitingTime="4.00" waitingCount="2" stopTime="0.00" timeLoss="43.22" rerouteNo="1" devices="tripinfo_randUni33724:1 routing_randUni33724:1 emissions_randUni33724:1" vType="random_016" speedFactor="1.02" vaporized="">
        <emissions CO_abs="7533.580806" CO2_abs="520295.329638" HC_abs="46.494018" PMx_abs="9.089565" NOx_abs="211.095541" fuel_abs="223.652554" electricity_abs="0"/>
    </tripinfo>
    <tripinfo id="carIn81860:1" depart="57712.00" departLane="128361102#0_1" departPos="5.10" departSpeed="0.00" departDelay="0.60" arrival="57837.00" arrivalLane="-24634517#17_1" arrivalPos="6.43" arrivalSpeed="6.68" duration="125.00" routeLength="1229.64" waitingTime="1.00" waitingCount="1" stopTime="0.00" timeLoss="18.38" rerouteNo="1" devices="tripinfo_carIn81860:1 routing_carIn81860:1 emissions_carIn81860:1" vType="default_016" speedFactor="0.84" vaporized="">
        <emissions CO_abs="4127.730010" CO2_abs="272341.711969" HC_abs="25.088864" PMx_abs="4.238411" NOx_abs="107.811837" fuel_abs="117.068859" electricity_abs="0"/>
    </tripinfo>
    <tripinfo id="h3864c1:3" depart="57678.00" departLane="24693977#1_1" departPos="5.10" departSpeed="0.00" departDelay="0.00" arrival="57838.00" arrivalLane="201956820_1" arrivalPos="48.33" arrivalSpeed="14.97" duration="160.00" routeLength="1574.85" waitingTime="16.00" waitingCount="2" stopTime="0.00" timeLoss="46.33" rerouteNo="1" devices="tripinfo_h3864c1:3 routing_h3864c1:3 emissions_h3864c1:3" vType="default_016" speedFactor="1.14" vaporized="">
        <emissions CO_abs="8373.313342" CO2_abs="477953.326358" HC_abs="49.320087" PMx_abs="8.878735" NOx_abs="197.272643" fuel_abs="205.451979" electricity_abs="0"/>
    </tripinfo>
    <tripinfo id="carIn28951:1" depart="57606.00" departLane="10425609#0_1" departPos="5.10" departSpeed="0.00" departDelay="0.20" arrival="57839.00" arrivalLane="-128361102#1_1" arrivalPos="274.68" arrivalSpeed="11.80" duration="233.00" routeLength="2113.04" waitingTime="27.00" waitingCount="4" stopTime="0.00" timeLoss="62.52" rerouteNo="1" devices="tripinfo_carIn28951:1 routing_carIn28951:1 emissions_carIn28951:1" vType="default_016" speedFactor="0.91" vaporized="">
        <emissions CO_abs="9267.964460" CO2_abs="517217.994782" HC_abs="54.292310" PMx_abs="8.967105" NOx_abs="210.319368" fuel_abs="222.331282" electricity_abs="0"/>
    </tripinfo>
    <tripinfo id="randUni15030:1" depart="57735.00" departLane="386687232#0_1" departPos="5.10" departSpeed="0.00" departDelay="0.10" arrival="57840.00" arrivalLane="26677539_1" arrivalPos="151.98" arrivalSpeed="6.54" duration="105.00" routeLength="919.89" waitingTime="0.00" waitingCount="0" stopTime="0.00" timeLoss="13.55" rerouteNo="1" devices="tripinfo_randUni15030:1 routing_randUni15030:1 emissions_randUni15030:1" vType="random_016" speedFactor="0.91" vaporized="">
        <emissions CO_abs="4136.881733" CO2_abs="229357.931967" HC_abs="24.124916" PMx_abs="3.644565" NOx_abs="91.720257" fuel_abs="98.592248" electricity_abs="0"/>
    </tripinfo>
    <tripinfo id="carIn81046:1" depart="57610.00" departLane="124812856#0_1" departPos="5.10" departSpeed="0.00" departDelay="1.50" arrival="57841.00" arrivalLane="-128361102#1_1" arrivalPos="274.68" arrivalSpeed="14.79" duration="231.00" routeLength="2250.49" waitingTime="19.00" waitingCount="3" stopTime="0.00" timeLoss="76.53" rerouteNo="1" devices="tripinfo_carIn81046:1 routing_carIn81046:1 emissions_carIn81046:1" vType="default_016" speedFactor="1.07" vaporized="">
        <emissions CO_abs="10481.068230" CO2_abs="650975.534549" HC_abs="63.035775" PMx_abs="11.790222" NOx_abs="267.848008" fuel_abs="279.826507" electricity_abs="0"/>
    </tripinfo>
    <tripinfo id="carIn107084:1" depart="57601.00" departLane="124812856#0_1" departPos="5.10" departSpeed="0.00" departDelay="0.70" arrival="57842.00" arrivalLane="-128361102#1_1" arrivalPos="274.68" arrivalSpeed="12.75" duration="241.00" routeLength="2250.49" waitingTime="23.00" waitingCount="4" stopTime="0.00" timeLoss="77.98" rerouteNo="1" devices="tripinfo_carIn107084:1 routing_carIn107084:1 emissions_carIn107084:1" vType="default_016" speedFactor="1.01" vaporized="">
        <emissions CO_abs="10534.354758" CO2_abs="640265.670941" HC_abs="63.010276" PMx_abs="11.688593" NOx_abs="264.240203" fuel_abs="275.222822" electricity_abs="0"/>
    </tripinfo>
    <tripinfo id="carIn82220:1" depart="57619.00" departLane="-306240162#1_0" departPos="5.10" departSpeed="0.00" departDelay="3.50" arrival="57853.00" arrivalLane="386687235_1" arrivalPos="80.84" arrivalSpeed="15.21" duration="234.00" routeLength="2257.41" waitingTime="41.00" waitingCount="4" stopTime="0.00" timeLoss="100.27" rerouteNo="1" devices="tripinfo_carIn82220:1 routing_carIn82220:1 emissions_carIn82220:1" vType="default_016" speedFactor="1.12" vaporized="">
        <emissions CO_abs="12178.431257" CO2_abs="652475.881768" HC_abs="70.795344" PMx_abs="12.317480" NOx_abs="269.104935" fuel_abs="280.472363" electricity_abs="0"/>
    </tripinfo>
    <tripinfo id="carIn48184:1" depart="57613.00" departLane="-306240162#1_0" departPos="5.10" departSpeed="0.00" departDelay="0.70" arrival="57854.00" arrivalLane="386687235_2" arrivalPos="80.84" arrivalSpeed="11.33" duration="241.00" routeLength="2257.41" waitingTime="40.00" waitingCount="3" stopTime="0.00" timeLoss="69.56" rerouteNo="1" devices="tripinfo_carIn48184:1 routing_carIn48184:1 emissions_carIn48184:1" vType="default_016" speedFactor="0.87" vaporized="">
        <emissions CO_abs="11652.341588" CO2_abs="575836.777311" HC_abs="66.434781" PMx_abs="10.093784" NOx_abs="233.178646" fuel_abs="247.530278" electricity_abs="0"/>
    </tripinfo>
    <tripinfo id="carIn46110:1" depart="57684.00" departLane="315358244_1" departPos="5.10" departSpeed="0.00" departDelay="1.20" arrival="57855.00" arrivalLane="32978638#0_1" arrivalPos="49.29" arrivalSpeed="11.96" duration="171.00" routeLength="1764.04" waitingTime="12.00" waitingCount="2" stopTime="0.00" timeLoss="34.16" rerouteNo="1" devices="tripinfo_carIn46110:1 routing_carIn46110:1 emissions_carIn46110:1" vType="default_016" speedFactor="0.94" vaporized="">
        <emissions CO_abs="5642.933498" CO2_abs="389781.553101" HC_abs="34.755130" PMx_abs="6.208017" NOx_abs="154.015946" fuel_abs="167.551253" electricity_abs="0"/>
    </tripinfo>
    <tripinfo id="carIn12152:1" depart="57647.00" departLane="24599188#0.94_1" departPos="5.10" departSpeed="0.00" departDelay="0.50" arrival="57857.00" arrivalLane="-315358254#1_1" arrivalPos="137.16" arrivalSpeed="13.19" duration="210.00" routeLength="2034.31" waitingTime="27.00" waitingCount="2" stopTime="0.00" timeLoss="52.31" rerouteNo="1" devices="tripinfo_carIn12152:1 routing_carIn12152:1 emissions_carIn12152:1" vType="default_016" speedFactor="1.00" vaporized="">
        <emissions CO_abs="9220.709826" CO2_abs="496679.179461" HC_abs="53.608831" PMx_abs="8.649857" NOx_abs="201.199728" fuel_abs="213.502790" electricity_abs="0"/>