<?xml version="1.0" encoding="UTF-8"?>

<!-- generated on 2021-10-26 19:47:38 by Eclipse SUMO sumo Version 1.10.0
<configuration xmlns:xsi="http://www.w3.org/2001/XMLSchema-instance" xsi:noNamespaceSchemaLocation="http://sumo.dlr.de/xsd/sumoConfiguration.xsd">

    <input>
        <net-file value="/Users/behradkoohy/sumo-scratchpad/RESCO/environments/ingolstadt21/ingolstadt21.net.xml"/>
        <route-files value="/Users/behradkoohy/sumo-scratchpad/RESCO/environments/ingolstadt21/ingolstadt21.rou.xml"/>
    </input>

    <output>
        <tripinfo-output value="/Users/behradkoohy/sumo-scratchpad/RESCO/logs/MPLight-tr0-ingolstadt21-21-mplight-pressure/tripinfo_43.xml"/>
        <tripinfo-output.write-unfinished value="true"/>
    </output>

    <time>
        <begin value="57600"/>
        <end value="61200"/>
    </time>

    <processing>
        <time-to-teleport value="-1"/>
    </processing>

    <report>
        <no-warnings value="true"/>
        <no-step-log value="true"/>
    </report>

    <emissions>
        <device.emissions.probability value="1"/>
    </emissions>

    <traci_server>
        <remote-port value="63870"/>
    </traci_server>

    <random_number>
        <random value="true"/>
    </random_number>

</configuration>
-->

<tripinfos xmlns:xsi="http://www.w3.org/2001/XMLSchema-instance" xsi:noNamespaceSchemaLocation="http://sumo.dlr.de/xsd/tripinfo_file.xsd">
    <tripinfo id="h15454c2:3" depart="57612.00" departLane="24608844_1" departPos="5.10" departSpeed="0.00" departDelay="0.50" arrival="57652.00" arrivalLane="32978638#0_1" arrivalPos="49.29" arrivalSpeed="13.59" duration="40.00" routeLength="354.79" waitingTime="0.00" waitingCount="0" stopTime="0.00" timeLoss="5.81" rerouteNo="1" devices="tripinfo_h15454c2:3 routing_h15454c2:3 emissions_h15454c2:3" vType="default_016" speedFactor="1.02" vaporized="">
        <emissions CO_abs="1836.269025" CO2_abs="101428.259725" HC_abs="10.711085" PMx_abs="1.722839" NOx_abs="41.245857" fuel_abs="43.599987" electricity_abs="0"/>
    </tripinfo>
    <tripinfo id="carIn60260:1" depart="57606.00" departLane="315358254#0_1" departPos="5.10" departSpeed="0.00" departDelay="0.90" arrival="57659.00" arrivalLane="399835085#1_1" arrivalPos="212.23" arrivalSpeed="7.62" duration="53.00" routeLength="430.98" waitingTime="0.00" waitingCount="0" stopTime="0.00" timeLoss="7.49" rerouteNo="1" devices="tripinfo_carIn60260:1 routing_carIn60260:1 emissions_carIn60260:1" vType="default_016" speedFactor="1.02" vaporized="">
        <emissions CO_abs="2298.265052" CO2_abs="115329.324190" HC_abs="13.129209" PMx_abs="1.913011" NOx_abs="46.876997" fuel_abs="49.575727" electricity_abs="0"/>
    </tripinfo>
    <tripinfo id="carIn53971:1" depart="57640.00" departLane="272042143_1" departPos="5.10" departSpeed="0.00" departDelay="0.80" arrival="57709.00" arrivalLane="24634414#1_1" arrivalPos="162.19" arrivalSpeed="5.13" duration="69.00" routeLength="493.04" waitingTime="0.00" waitingCount="0" stopTime="0.00" timeLoss="9.46" rerouteNo="1" devices="tripinfo_carIn53971:1 routing_carIn53971:1 emissions_carIn53971:1" vType="default_016" speedFactor="0.77" vaporized="">
        <emissions CO_abs="3227.165249" CO2_abs="139690.277703" HC_abs="17.903040" PMx_abs="2.307809" NOx_abs="56.936291" fuel_abs="60.047954" electricity_abs="0"/>
    </tripinfo>
    <tripinfo id="h7800c1:5" depart="57696.00" departLane="-447569998#1_1" departPos="5.10" departSpeed="0.00" departDelay="0.00" arrival="57723.00" arrivalLane="-447569998#1_1" arrivalPos="180.76" arrivalSpeed="7.61" duration="27.00" routeLength="175.66" waitingTime="0.00" waitingCount="0" stopTime="0.00" timeLoss="3.09" rerouteNo="1" devices="tripinfo_h7800c1:5 routing_h7800c1:5 emissions_h7800c1:5" vType="default_016" speedFactor="0.92" vaporized="">
        <emissions CO_abs="1255.633926" CO2_abs="51731.786840" HC_abs="6.897467" PMx_abs="0.827018" NOx_abs="20.970094" fuel_abs="22.237769" electricity_abs="0"/>
    </tripinfo>
    <tripinfo id="h3688c1:1" depart="57625.00" departLane="201201950#1_1" departPos="5.10" departSpeed="0.00" departDelay="0.00" arrival="57734.00" arrivalLane="32978638#0_1" arrivalPos="49.29" arrivalSpeed="13.95" duration="109.00" routeLength="1089.75" waitingTime="13.00" waitingCount="2" stopTime="0.00" timeLoss="36.20" rerouteNo="1" devices="tripinfo_h3688c1:1 routing_h3688c1:1 emissions_h3688c1:1" vType="default_016" speedFactor="1.09" vaporized="">
        <emissions CO_abs="5061.089688" CO2_abs="308369.775843" HC_abs="30.177468" PMx_abs="5.508666" NOx_abs="125.369760" fuel_abs="132.555245" electricity_abs="0"/>
    </tripinfo>
    <tripinfo id="h317c2:1" depart="57707.00" departLane="-32978638#0_1" departPos="5.10" departSpeed="0.00" departDelay="0.10" arrival="57744.00" arrivalLane="-266565295#5_1" arrivalPos="172.76" arrivalSpeed="14.14" duration="37.00" routeLength="370.53" waitingTime="2.00" waitingCount="1" stopTime="0.00" timeLoss="11.62" rerouteNo="1" devices="tripinfo_h317c2:1 routing_h317c2:1 emissions_h317c2:1" vType="default_016" speedFactor="1.09" vaporized="">
        <emissions CO_abs="2140.152640" CO2_abs="127779.354908" HC_abs="12.773462" PMx_abs="2.398358" NOx_abs="53.050597" fuel_abs="54.926824" electricity_abs="0"/>
    </tripinfo>
    <tripinfo id="h12244c1:3" depart="57612.00" departLane="315358244_1" departPos="5.10" departSpeed="0.00" departDelay="0.40" arrival="57745.00" arrivalLane="386687235_1" arrivalPos="80.84" arrivalSpeed="15.60" duration="133.00" routeLength="1186.14" waitingTime="38.00" waitingCount="2" stopTime="0.00" timeLoss="59.60" rerouteNo="1" devices="tripinfo_h12244c1:3 routing_h12244c1:3 emissions_h12244c1:3" vType="default_016" speedFactor="1.18" vaporized="">
        <emissions CO_abs="8467.659235" CO2_abs="357419.927506" HC_abs="46.797431" PMx_abs="6.854848" NOx_abs="147.831578" fuel_abs="153.641403" electricity_abs="0"/>
    </tripinfo>
    <tripinfo id="h4538c1:1" depart="57701.00" departLane="-10427692#1_1" departPos="5.10" departSpeed="0.00" departDelay="0.00" arrival="57754.00" arrivalLane="-128361102#1_1" arrivalPos="274.68" arrivalSpeed="14.16" duration="53.00" routeLength="440.74" waitingTime="13.00" waitingCount="1" stopTime="0.00" timeLoss="23.30" rerouteNo="1" devices="tripinfo_h4538c1:1 routing_h4538c1:1 emissions_h4538c1:1" vType="default_016" speedFactor="1.06" vaporized="">
        <emissions CO_abs="3524.987452" CO2_abs="148532.747137" HC_abs="19.556454" PMx_abs="2.872375" NOx_abs="62.163811" fuel_abs="63.848575" electricity_abs="0"/>
    </tripinfo>
    <tripinfo id="h9563c2:5" depart="57631.00" departLane="315358244_1" departPos="5.10" departSpeed="0.00" departDelay="0.70" arrival="57755.00" arrivalLane="386687235_1" arrivalPos="80.84" arrivalSpeed="13.60" duration="124.00" routeLength="1186.14" waitingTime="15.00" waitingCount="3" stopTime="0.00" timeLoss="40.72" rerouteNo="1" devices="tripinfo_h9563c2:5 routing_h9563c2:5 emissions_h9563c2:5" vType="default_016" speedFactor="1.04" vaporized="">
        <emissions CO_abs="5822.134241" CO2_abs="315601.752933" HC_abs="33.902104" PMx_abs="5.689986" NOx_abs="129.127737" fuel_abs="135.664409" electricity_abs="0"/>
    </tripinfo>
    <tripinfo id="h3568c1:3" depart="57656.00" departLane="266565295#5_1" departPos="5.10" departSpeed="0.00" departDelay="0.80" arrival="57759.00" arrivalLane="-24634415_1" arrivalPos="62.03" arrivalSpeed="12.03" duration="103.00" routeLength="807.40" waitingTime="14.00" waitingCount="1" stopTime="0.00" timeLoss="30.68" rerouteNo="1" devices="tripinfo_h3568c1:3 routing_h3568c1:3 emissions_h3568c1:3" vType="default_016" speedFactor="0.89" vaporized="">
        <emissions CO_abs="5655.569951" CO2_abs="261098.246851" HC_abs="31.841096" PMx_abs="4.639611" NOx_abs="107.360856" fuel_abs="112.236285" electricity_abs="0"/>
    </tripinfo>
    <tripinfo id="h3326c1:2" depart="57656.00" departLane="22716069#0_1" departPos="5.10" departSpeed="0.00" departDelay="0.00" arrival="57763.00" arrivalLane="24634517#13_1" arrivalPos="111.62" arrivalSpeed="13.60" duration="107.00" routeLength="1312.81" waitingTime="0.00" waitingCount="0" stopTime="0.00" timeLoss="14.68" rerouteNo="1" devices="tripinfo_h3326c1:2 routing_h3326c1:2 emissions_h3326c1:2" vType="default_016" speedFactor="1.06" vaporized="">
        <emissions CO_abs="3790.445044" CO2_abs="287668.471298" HC_abs="23.962004" PMx_abs="4.962617" NOx_abs="115.863622" fuel_abs="123.656100" electricity_abs="0"/>
    </tripinfo>
    <tripinfo id="carIn30817:1" depart="57681.00" departLane="315358244_1" departPos="5.10" departSpeed="0.00" departDelay="0.20" arrival="57767.00" arrivalLane="447569997#1_1" arrivalPos="180.93" arrivalSpeed="7.17" duration="86.00" routeLength="718.04" waitingTime="9.00" waitingCount="1" stopTime="0.00" timeLoss="23.53" rerouteNo="1" devices="tripinfo_carIn30817:1 routing_carIn30817:1 emissions_carIn30817:1" vType="default_016" speedFactor="0.99" vaporized="">
        <emissions CO_abs="3913.793648" CO2_abs="205703.499700" HC_abs="22.585204" PMx_abs="3.516092" NOx_abs="83.444160" fuel_abs="88.423942" electricity_abs="0"/>
    </tripinfo>
    <tripinfo id="h330c1:1" depart="57736.00" departLane="-32978638#0_1" departPos="5.10" departSpeed="0.00" departDelay="0.20" arrival="57771.00" arrivalLane="-266565295#5_1" arrivalPos="172.76" arrivalSpeed="12.48" duration="35.00" routeLength="370.53" waitingTime="0.00" waitingCount="0" stopTime="0.00" timeLoss="5.72" rerouteNo="1" devices="tripinfo_h330c1:1 routing_h330c1:1 emissions_h330c1:1" vType="default_016" speedFactor="0.94" vaporized="">
        <emissions CO_abs="1592.253924" CO2_abs="106252.075389" HC_abs="9.735705" PMx_abs="1.796314" NOx_abs="42.850430" fuel_abs="45.673317" electricity_abs="0"/>
    </tripinfo>
    <tripinfo id="h645c1:1" depart="57622.00" departLane="266565295#5_1" departPos="5.10" departSpeed="0.00" departDelay="0.40" arrival="57772.00" arrivalLane="-315358244_2" arrivalPos="33.95" arrivalSpeed="15.04" duration="150.00" routeLength="1910.83" waitingTime="7.00" waitingCount="1" stopTime="0.00" timeLoss="24.30" rerouteNo="1" devices="tripinfo_h645c1:1 routing_h645c1:1 emissions_h645c1:1" vType="default_016" speedFactor="1.10" vaporized="">
        <emissions CO_abs="4380.510731" CO2_abs="366246.158065" HC_abs="28.422213" PMx_abs="6.009010" NOx_abs="143.734687" fuel_abs="157.433481" electricity_abs="0"/>
    </tripinfo>
    <tripinfo id="carIn22761:1" depart="57616.00" departLane="-306240162#1_0" departPos="5.10" departSpeed="0.00" departDelay="2.10" arrival="57775.00" arrivalLane="399835085#1_1" arrivalPos="212.23" arrivalSpeed="7.41" duration="159.00" routeLength="1093.26" waitingTime="54.00" waitingCount="2" stopTime="0.00" timeLoss="80.51" rerouteNo="1" devices="tripinfo_carIn22761:1 routing_carIn22761:1 emissions_carIn22761:1" vType="default_016" speedFactor="0.99" vaporized="">
        <emissions CO_abs="13447.261453" CO2_abs="460038.342380" HC_abs="72.029965" PMx_abs="9.506101" NOx_abs="196.563756" fuel_abs="197.754178" electricity_abs="0"/>
    </tripinfo>
    <tripinfo id="carIn121703:1" depart="57647.00" departLane="386687232#0_1" departPos="5.10" departSpeed="0.00" departDelay="0.30" arrival="57775.00" arrivalLane="-315358244_1" arrivalPos="33.95" arrivalSpeed="14.24" duration="128.00" routeLength="1157.39" waitingTime="27.00" waitingCount="2" stopTime="0.00" timeLoss="45.72" rerouteNo="1" devices="tripinfo_carIn121703:1 routing_carIn121703:1 emissions_carIn121703:1" vType="default_016" speedFactor="1.03" vaporized="">
        <emissions CO_abs="6598.168684" CO2_abs="324763.840061" HC_abs="37.657348" PMx_abs="5.903373" NOx_abs="132.881110" fuel_abs="139.603299" electricity_abs="0"/>
    </tripinfo>
    <tripinfo id="carIn27009:1" depart="57673.00" departLane="-447569998#1_1" departPos="5.10" departSpeed="0.00" departDelay="0.50" arrival="57777.00" arrivalLane="-26677539_1" arrivalPos="152.75" arrivalSpeed="8.44" duration="104.00" routeLength="699.63" waitingTime="15.00" waitingCount="1" stopTime="0.00" timeLoss="29.45" rerouteNo="1" devices="tripinfo_carIn27009:1 routing_carIn27009:1 emissions_carIn27009:1" vType="default_015" speedFactor="1.13" vaporized="">
        <emissions CO_abs="5190.991687" CO2_abs="208873.790011" HC_abs="28.462130" PMx_abs="3.635472" NOx_abs="86.097780" fuel_abs="89.787575" electricity_abs="0"/>
    </tripinfo>
    <tripinfo id="h7181c1:1" depart="57660.00" departLane="315358254#0_1" departPos="5.10" departSpeed="0.00" departDelay="0.10" arrival="57783.00" arrivalLane="306240162#0_0" arrivalPos="220.43" arrivalSpeed="13.99" duration="123.00" routeLength="932.35" waitingTime="39.00" waitingCount="3" stopTime="0.00" timeLoss="62.96" rerouteNo="1" devices="tripinfo_h7181c1:1 routing_h7181c1:1 emissions_h7181c1:1" vType="default_016" speedFactor="0.85" vaporized="">
        <emissions CO_abs="8706.223797" CO2_abs="347346.193349" HC_abs="47.852125" PMx_abs="6.907388" NOx_abs="146.352003" fuel_abs="149.311036" electricity_abs="0"/>
    </tripinfo>
    <tripinfo id="carIn80064:1" depart="57603.00" departLane="128361109#1_1" departPos="5.10" departSpeed="0.00" departDelay="0.40" arrival="57787.00" arrivalLane="-315358254#1_1" arrivalPos="137.16" arrivalSpeed="11.71" duration="184.00" routeLength="1587.97" waitingTime="60.00" waitingCount="2" stopTime="0.00" timeLoss="86.01" rerouteNo="1" devices="tripinfo_carIn80064:1 routing_carIn80064:1 emissions_carIn80064:1" vType="default_016" speedFactor="0.92" vaporized="">
        <emissions CO_abs="14607.097487" CO2_abs="566996.363267" HC_abs="80.037006" PMx_abs="11.744490" NOx_abs="240.546107" fuel_abs="243.730136" electricity_abs="0"/>
    </tripinfo>
    <tripinfo id="h3154c1:1" depart="57658.00" departLane="24634507_1" departPos="5.10" departSpeed="0.00" departDelay="0.00" arrival="57797.00" arrivalLane="-266565295#5_1" arrivalPos="172.76" arrivalSpeed="13.38" duration="139.00" routeLength="1206.22" waitingTime="28.00" waitingCount="2" stopTime="0.00" timeLoss="48.78" rerouteNo="1" devices="tripinfo_h3154c1:1 routing_h3154c1:1 emissions_h3154c1:1" vType="default_016" speedFactor="0.98" vaporized="">
        <emissions CO_abs="7487.676985" CO2_abs="343805.300925" HC_abs="42.152791" PMx_abs="6.305784" NOx_abs="141.909646" fuel_abs="147.788736" electricity_abs="0"/>
    </tripinfo>
    <tripinfo id="carIn107282:1" depart="57749.00" departLane="-447569998#1_1" departPos="5.10" departSpeed="0.00" departDelay="0.00" arrival="57804.00" arrivalLane="315358242#0_1" arrivalPos="165.37" arrivalSpeed="14.16" duration="55.00" routeLength="448.50" waitingTime="7.00" waitingCount="1" stopTime="0.00" timeLoss="16.85" rerouteNo="1" devices="tripinfo_carIn107282:1 routing_carIn107282:1 emissions_carIn107282:1" vType="default_016" speedFactor="1.10" vaporized="">
        <emissions CO_abs="2658.058947" CO2_abs="132873.733518" HC_abs="15.206004" PMx_abs="2.326573" NOx_abs="54.146542" fuel_abs="57.117297" electricity_abs="0"/>
    </tripinfo>
    <tripinfo id="carIn107084:1" depart="57601.00" departLane="124812856#0_1" departPos="5.10" departSpeed="0.00" departDelay="0.70" arrival="57807.00" arrivalLane="-128361102#1_1" arrivalPos="274.68" arrivalSpeed="13.69" duration="206.00" routeLength="2250.49" waitingTime="12.00" waitingCount="2" stopTime="0.00" timeLoss="39.30" rerouteNo="1" devices="tripinfo_carIn107084:1 routing_carIn107084:1 emissions_carIn107084:1" vType="default_016" speedFactor="0.99" vaporized="">
        <emissions CO_abs="6719.741680" CO2_abs="484294.329177" HC_abs="41.888084" PMx_abs="8.094446" NOx_abs="193.679407" fuel_abs="208.177629" electricity_abs="0"/>
    </tripinfo>
    <tripinfo id="carIn77943:1" depart="57608.00" departLane="124812856#0_1" departPos="5.10" departSpeed="0.00" departDelay="2.50" arrival="57811.00" arrivalLane="-128361102#1_1" arrivalPos="274.68" arrivalSpeed="11.87" duration="203.00" routeLength="2250.49" waitingTime="0.00" waitingCount="0" stopTime="0.00" timeLoss="27.68" rerouteNo="1" devices="tripinfo_carIn77943:1 routing_carIn77943:1 emissions_carIn77943:1" vType="default_016" speedFactor="0.94" vaporized="">
        <emissions CO_abs="5781.026142" CO2_abs="448526.255590" HC_abs="36.732302" PMx_abs="6.936938" NOx_abs="175.877043" fuel_abs="192.802922" electricity_abs="0"/>
    </tripinfo>
    <tripinfo id="carIn77438:1" depart="57614.00" departLane="124812856#0_1" departPos="5.10" departSpeed="0.00" departDelay="1.10" arrival="57813.00" arrivalLane="-128361102#1_1" arrivalPos="274.68" arrivalSpeed="14.12" duration="199.00" routeLength="2250.49" waitingTime="0.00" waitingCount="0" stopTime="0.00" timeLoss="48.27" rerouteNo="1" devices="tripinfo_carIn77438:1 routing_carIn77438:1 emissions_carIn77438:1" vType="default_016" speedFactor="1.09" vaporized="">
        <emissions CO_abs="7463.403027" CO2_abs="544390.658087" HC_abs="46.785793" PMx_abs="9.553543" NOx_abs="221.327140" fuel_abs="234.009660" electricity_abs="0"/>
    </tripinfo>
    <tripinfo id="h16072c2:3" depart="57662.00" departLane="315358254#0_1" departPos="5.10" departSpeed="0.00" departDelay="1.50" arrival="57814.00" arrivalLane="386687235_1" arrivalPos="80.84" arrivalSpeed="14.96" duration="152.00" routeLength="1611.92" waitingTime="11.00" waitingCount="3" stopTime="0.00" timeLoss="43.10" rerouteNo="1" devices="tripinfo_h16072c2:3 routing_h16072c2:3 emissions_h16072c2:3" vType="default_016" speedFactor="1.08" vaporized="">
        <emissions CO_abs="5960.356674" CO2_abs="400003.387017" HC_abs="36.368034" PMx_abs="7.000222" NOx_abs="161.415812" fuel_abs="171.944424" electricity_abs="0"/>
    </tripinfo>
    <tripinfo id="carIn12365:1" depart="57713.00" departLane="315358244_1" departPos="5.10" departSpeed="0.00" departDelay="0.50" arrival="57822.00" arrivalLane="447569997#1_1" arrivalPos="180.93" arrivalSpeed="6.67" duration="109.00" routeLength="718.04" waitingTime="29.00" waitingCount="2" stopTime="0.00" timeLoss="44.47" rerouteNo="1" devices="tripinfo_carIn12365:1 routing_carIn12365:1 emissions_carIn12365:1" vType="default_016" speedFactor="0.95" vaporized="">
        <emissions CO_abs="7105.604564" CO2_abs="251125.215432" HC_abs="38.198500" PMx_abs="4.656104" NOx_abs="104.456509" fuel_abs="107.950391" electricity_abs="0"/>
    </tripinfo>
    <tripinfo id="randUni15030:1" depart="57735.00" departLane="386687232#0_1" departPos="5.10" departSpeed="0.00" departDelay="0.10" arrival="57825.00" arrivalLane="26677539_1" arrivalPos="151.98" arrivalSpeed="7.82" duration="90.00" routeLength="919.89" waitingTime="0.00" waitingCount="0" stopTime="0.00" timeLoss="12.00" rerouteNo="1" devices="tripinfo_randUni15030:1 routing_randUni15030:1 emissions_randUni15030:1" vType="random_016" speedFactor="1.07" vaporized="">
        <emissions CO_abs="3453.190145" CO2_abs="214229.512244" HC_abs="20.722757" PMx_abs="3.698067" NOx_abs="87.115320" fuel_abs="92.088360" electricity_abs="0"/>
    </tripinfo>
    <tripinfo id="carIn81046:1" depart="57611.00" departLane="124812856#0_1" departPos="5.10" departSpeed="0.00" departDelay="2.50" arrival="57829.00" arrivalLane="-128361102#1_1" arrivalPos="274.68" arrivalSpeed="15.81" duration="218.00" routeLength="2232.46" waitingTime="5.00" waitingCount="1" stopTime="0.00" timeLoss="81.24" rerouteNo="1" devices="tripinfo_carIn81046:1 routing_carIn81046:1 emissions_carIn81046:1" vType="default_016" speedFactor="1.19" vaporized="">
        <emissions CO_abs="8444.499296" CO2_abs="557551.768726" HC_abs="51.419034" PMx_abs="9.837597" NOx_abs="227.378492" fuel_abs="239.667587" electricity_abs="0"/>
    </tripinfo>
    <tripinfo id="carIn129809:1" depart="57729.00" departLane="-447569998#1_1" departPos="5.10" departSpeed="0.00" departDelay="1.00" arrival="57832.00" arrivalLane="-315358244_1" arrivalPos="33.95" arrivalSpeed="12.32" duration="103.00" routeLength="706.49" waitingTime="26.00" waitingCount="1" stopTime="0.00" timeLoss="37.23" rerouteNo="1" devices="tripinfo_carIn129809:1 routing_carIn129809:1 emissions_carIn129809:1" vType="default_015" speedFactor="0.93" vaporized="">
        <emissions CO_abs="6519.779582" CO2_abs="235565.509017" HC_abs="35.151561" PMx_abs="4.244158" NOx_abs="97.053399" fuel_abs="101.261867" electricity_abs="0"/>
    </tripinfo>
    <tripinfo id="carIn81860:1" depart="57712.00" departLane="128361102#0_1" departPos="5.10" departSpeed="0.00" departDelay="0.60" arrival="57833.00" arrivalLane="-24634517#17_1" arrivalPos="6.43" arrivalSpeed="8.87" duration="121.00" routeLength="1229.64" waitingTime="14.00" waitingCount="2" stopTime="0.00" timeLoss="38.47" rerouteNo="1" devices="tripinfo_carIn81860:1 routing_carIn81860:1 emissions_carIn81860:1" vType="default_016" speedFactor="1.10" vaporized="">
        <emissions CO_abs="4575.971066" CO2_abs="292035.940723" HC_abs="27.684139" PMx_abs="5.215869" NOx_abs="118.782615" fuel_abs="125.533840" electricity_abs="0"/>
    </tripinfo>
    <tripinfo id="carIn73855:1" depart="57743.00" departLane="386687232#0_1" departPos="5.10" departSpeed="0.00" departDelay="0.50" arrival="57833.00" arrivalLane="-315358244_1" arrivalPos="33.95" arrivalSpeed="14.50" duration="90.00" routeLength="1157.39" waitingTime="0.00" waitingCount="0" stopTime="0.00" timeLoss="11.23" rerouteNo="1" devices="tripinfo_carIn73855:1 routing_carIn73855:1 emissions_carIn73855:1" vType="default_016" speedFactor="1.07" vaporized="">
        <emissions CO_abs="3141.029417" CO2_abs="254129.067766" HC_abs="20.217701" PMx_abs="4.352686" NOx_abs="101.790878" fuel_abs="109.238882" electricity_abs="0"/>
    </tripinfo>
    <tripinfo id="carIn50326:1" depart="57651.00" departLane="128361102#0_1" departPos="5.10" departSpeed="0.00" departDelay="0.30" arrival="57834.00" arrivalLane="18809673#0_1" arrivalPos="473.56" arrivalSpeed="12.83" duration="183.00" routeLength="1591.07" waitingTime="20.00" waitingCount="1" stopTime="0.00" timeLoss="45.09" rerouteNo="1" devices="tripinfo_carIn50326:1 routing_carIn50326:1 emissions_carIn50326:1" vType="default_016" speedFactor="0.94" vaporized="">
        <emissions CO_abs="7675.797462" CO2_abs="391267.869417" HC_abs="44.013722" PMx_abs="6.447665" NOx_abs="156.886066" fuel_abs="168.191459" electricity_abs="0"/>
    </tripinfo>
    <tripinfo id="h15382c1:3" depart="57626.00" departLane="124812856#0_1" departPos="5.10" departSpeed="0.00" departDelay="3.80" arrival="57837.00" arrivalLane="-128361102#1_1" arrivalPos="274.68" arrivalSpeed="13.09" duration="211.00" routeLength="2250.49" waitingTime="10.00" waitingCount="1" stopTime="0.00" timeLoss="45.85" rerouteNo="1" devices="tripinfo_h15382c1:3 routing_h15382c1:3 emissions_h15382c1:3" vType="default_016" speedFactor="0.99" vaporized="">
        <emissions CO_abs="7944.776092" CO2_abs="515871.317922" HC_abs="48.264988" PMx_abs="8.934650" NOx_abs="209.005499" fuel_abs="221.751372" electricity_abs="0"/>
    </tripinfo>
    <tripinfo id="h19804c1:3" depart="57617.00" departLane="124812856#0_1" departPos="5.10" departSpeed="0.00" departDelay="1.50" arrival="57839.00" arrivalLane="-128361102#1_1" arrivalPos="274.68" arrivalSpeed="16.42" duration="222.00" routeLength="2232.46" waitingTime="17.00" waitingCount="2" stopTime="0.00" timeLoss="85.40" rerouteNo="1" devices="tripinfo_h19804c1:3 routing_h19804c1:3 emissions_h19804c1:3" vType="default_016" speedFactor="1.20" vaporized="">
        <emissions CO_abs="11920.479504" CO2_abs="688972.504011" HC_abs="70.473792" PMx_abs="12.689764" NOx_abs="284.150460" fuel_abs="296.160229" electricity_abs="0"/>
    </tripinfo>
    <tripinfo id="carIn82278:1" depart="57702.00" departLane="-306240162#1_0" departPos="5.10" departSpeed="0.00" departDelay="0.70" arrival="57839.00" arrivalLane="399835085#1_1" arrivalPos="212.23" arrivalSpeed="7.50" duration="137.00" routeLength="1093.26" waitingTime="22.00" waitingCount="3" stopTime="0.00" timeLoss="51.44" rerouteNo="1" devices="tripinfo_carIn82278:1 routing_carIn82278:1 emissions_carIn82278:1" vType="default_016" speedFactor="0.91" vaporized="">
        <emissions CO_abs="7193.301028" CO2_abs="345980.969947" HC_abs="40.770557" PMx_abs="6.423777" NOx_abs="142.692126" fuel_abs="148.723602" electricity_abs="0"/>
    </tripinfo>
    <tripinfo id="h11737c1:1" depart="57665.00" departLane="272042143_1" departPos="5.10" departSpeed="0.00" departDelay="1.50" arrival="57840.00" arrivalLane="-315358254#1_1" arrivalPos="137.16" arrivalSpeed="10.34" duration="175.00" routeLength="1596.88" waitingTime="13.00" waitingCount="1" stopTime="0.00" timeLoss="29.96" rerouteNo="1" devices="tripinfo_h11737c1:1 routing_h11737c1:1 emissions_h11737c1:1" vType="default_016" speedFactor="0.81" vaporized="">
        <emissions CO_abs="6032.643162" CO2_abs="344123.101719" HC_abs="35.406802" PMx_abs="5.419334" NOx_abs="136.780299" fuel_abs="147.925408" electricity_abs="0"/>
    </tripinfo>
    <tripinfo id="carIn12858:1" depart="57661.00" departLane="128361109#1_1" departPos="5.10" departSpeed="0.00" departDelay="0.90" arrival="57841.00" arrivalLane="399835085#1_1" arrivalPos="212.23" arrivalSpeed="9.09" duration="180.00" routeLength="1738.12" waitingTime="30.00" waitingCount="2" stopTime="0.00" timeLoss="76.58" rerouteNo="1" devices="tripinfo_carIn12858:1 routing_carIn12858:1 emissions_carIn12858:1" vType="default_016" speedFactor="1.12" vaporized="">
        <emissions CO_abs="12936.261124" CO2_abs="622406.757599" HC_abs="73.756231" PMx_abs="12.662485" NOx_abs="261.709721" fuel_abs="267.546732" electricity_abs="0"/>
    </tripinfo>
    <tripinfo id="carIn126288:1" depart="57674.00" departLane="272042143_1" departPos="5.10" departSpeed="0.00" departDelay="0.00" arrival="57841.00" arrivalLane="-315358254#1_1" arrivalPos="137.16" arrivalSpeed="11.41" duration="167.00" routeLength="1596.88" waitingTime="10.00" waitingCount="1" stopTime="0.00" timeLoss="32.15" rerouteNo="1" devices="tripinfo_carIn126288:1 routing_carIn126288:1 emissions_carIn126288:1" vType="default_016" speedFactor="0.86" vaporized="">
        <emissions CO_abs="5664.158905" CO2_abs="342954.657775" HC_abs="33.764556" PMx_abs="5.656585" NOx_abs="137.793986" fuel_abs="147.422468" electricity_abs="0"/>
    </tripinfo>
    <tripinfo id="carIn86816:1" depart="57617.00" departLane="128361102#0_1" departPos="5.10" departSpeed="0.00" departDelay="0.80" arrival="57842.00" arrivalLane="201956811#0_1" arrivalPos="40.40" arrivalSpeed="13.04" duration="225.00" routeLength="2067.33" waitingTime="33.00" waitingCount="2" stopTime="0.00" timeLoss="65.60" rerouteNo="1" devices="tripinfo_carIn86816:1 routing_carIn86816:1 emissions_carIn86816:1" vType="default_016" speedFactor="0.95" vaporized="">
        <emissions CO_abs="10851.141341" CO2_abs="543830.803317" HC_abs="62.131058" PMx_abs="9.601721" NOx_abs="221.726297" fuel_abs="233.771799" electricity_abs="0"/>
    </tripinfo>
    <tripinfo id="randUni31145:1" depart="57814.00" departLane="10425609#0_1" departPos="5.10" departSpeed="0.00" departDelay="0.30" arrival="57842.00" arrivalLane="201956810_1" arrivalPos="71.65" arrivalSpeed="16.95" duration="28.00" routeLength="255.78" waitingTime="0.00" waitingCount="0" stopTime="0.00" timeLoss="11.15" rerouteNo="1" devices="tripinfo_randUni31145:1 routing_randUni31145:1 emissions_randUni31145:1" vType="random_016" speedFactor="1.22" vaporized="">
        <emissions CO_abs="2479.903288" CO2_abs="129958.779018" HC_abs="14.403053" PMx_abs="2.675738" NOx_abs="55.844894" fuel_abs="55.863525" electricity_abs="0"/>
    </tripinfo>
    <tripinfo id="carIn12152:1" depart="57647.00" departLane="24599188#0.94_1" departPos="5.10" departSpeed="0.00" departDelay="0.50" arrival="57843.00" arrivalLane="-315358254#1_1" arrivalPos="137.16" arrivalSpeed="14.94" duration="196.00" routeLength="2034.31" waitingTime="19.00" waitingCount="2" stopTime="0.00" timeLoss="55.04" rerouteNo="1" devices="tripinfo_carIn12152:1 routing_carIn12152:1 emissions_carIn12152:1" vType="default_016" speedFactor="1.13" vaporized="">
        <emissions CO_abs="7531.592366" CO2_abs="475091.790580" HC_abs="45.310741" PMx_abs="8.213463" NOx_abs="190.929134" fuel_abs="204.222303" electricity_abs="0"/>
    </tripinfo>
    <tripinfo id="randUni33724:1" depart="57646.00" departLane="128361102#0_1" departPos="5.10" departSpeed="0.00" departDelay="1.20" arrival="57844.00" arrivalLane="201956811#0_1" arrivalPos="40.40" arrivalSpeed="13.26" duration="198.00" routeLength="2067.33" waitingTime="4.00" waitingCount="1" stopTime="0.00" timeLoss="39.30" rerouteNo="1" devices="tripinfo_randUni33724:1 routing_randUni33724:1 emissions_randUni33724:1" vType="random_016" speedFactor="0.96" vaporized="">
        <emissions CO_abs="7114.924341" CO2_abs="488902.001592" HC_abs="43.840909" PMx_abs="8.244497" NOx_abs="196.729224" fuel_abs="210.158378" electricity_abs="0"/>
    </tripinfo>
    <tripinfo id="carIn102915:1" depart="57643.00" departLane="128361102#0_1" departPos="5.10" departSpeed="0.00" departDelay="0.40" arrival="57845.00" arrivalLane="201956811#0_1" arrivalPos="40.40" arrivalSpeed="14.34" duration="202.00" routeLength="2067.33" waitingTime="9.00" waitingCount="1" stopTime="0.00" timeLoss="60.52" rerouteNo="1" devices="tripinfo_carIn102915:1 routing_carIn102915:1 emissions_carIn102915:1" vType="default_016" speedFactor="1.07" vaporized="">
        <emissions CO_abs="8902.891406" CO2_abs="558301.026028" HC_abs="53.649957" PMx_abs="9.800176" NOx_abs="226.875522" fuel_abs="239.990198" electricity_abs="0"/>
    </tripinfo>
    <tripinfo id="h5979c1:5" depart="57669.00" departLane="399835085#1_1" departPos="5.10" departSpeed="0.00" departDelay="0.00" arrival="57846.00" arrivalLane="-315358254#1_1" arrivalPos="137.16" arrivalSpeed="11.11" duration="177.00" routeLength="659.33" waitingTime="72.00" waitingCount="2" stopTime="0.00" timeLoss="91.12" rerouteNo="1" devices="tripinfo_h5979c1:5 routing_h5979c1:5 emissions_h5979c1:5" vType="default_016" speedFactor="0.85" vaporized="">
        <emissions CO_abs="15034.166697" CO2_abs="356731.805701" HC_abs="76.724438" PMx_abs="7.303364" NOx_abs="153.885634" fuel_abs="153.350222" electricity_abs="0"/>
    </tripinfo>