<?xml version="1.0" encoding="UTF-8"?>

<!-- generated on 2021-10-26 19:43:15 by Eclipse SUMO sumo Version 1.10.0
<configuration xmlns:xsi="http://www.w3.org/2001/XMLSchema-instance" xsi:noNamespaceSchemaLocation="http://sumo.dlr.de/xsd/sumoConfiguration.xsd">

    <input>
        <net-file value="/Users/behradkoohy/sumo-scratchpad/RESCO/environments/ingolstadt21/ingolstadt21.net.xml"/>
        <route-files value="/Users/behradkoohy/sumo-scratchpad/RESCO/environments/ingolstadt21/ingolstadt21.rou.xml"/>
    </input>

    <output>
        <tripinfo-output value="/Users/behradkoohy/sumo-scratchpad/RESCO/logs/MPLight-tr0-ingolstadt21-21-mplight-pressure/tripinfo_39.xml"/>
        <tripinfo-output.write-unfinished value="true"/>
    </output>

    <time>
        <begin value="57600"/>
        <end value="61200"/>
    </time>

    <processing>
        <time-to-teleport value="-1"/>
    </processing>

    <report>
        <no-warnings value="true"/>
        <no-step-log value="true"/>
    </report>

    <emissions>
        <device.emissions.probability value="1"/>
    </emissions>

    <traci_server>
        <remote-port value="63806"/>
    </traci_server>

    <random_number>
        <random value="true"/>
    </random_number>

</configuration>
-->

<tripinfos xmlns:xsi="http://www.w3.org/2001/XMLSchema-instance" xsi:noNamespaceSchemaLocation="http://sumo.dlr.de/xsd/tripinfo_file.xsd">
    <tripinfo id="carIn60260:1" depart="57606.00" departLane="315358254#0_1" departPos="5.10" departSpeed="0.00" departDelay="0.90" arrival="57662.00" arrivalLane="399835085#1_1" arrivalPos="212.23" arrivalSpeed="7.12" duration="56.00" routeLength="430.98" waitingTime="0.00" waitingCount="0" stopTime="0.00" timeLoss="5.93" rerouteNo="1" devices="tripinfo_carIn60260:1 routing_carIn60260:1 emissions_carIn60260:1" vType="default_016" speedFactor="0.92" vaporized="">
        <emissions CO_abs="2367.807526" CO2_abs="115892.594150" HC_abs="13.453354" PMx_abs="1.906778" NOx_abs="47.054193" fuel_abs="49.817925" electricity_abs="0"/>
    </tripinfo>
    <tripinfo id="h15454c2:3" depart="57612.00" departLane="24608844_1" departPos="5.10" departSpeed="0.00" departDelay="0.50" arrival="57677.00" arrivalLane="32978638#0_1" arrivalPos="49.29" arrivalSpeed="13.51" duration="65.00" routeLength="354.79" waitingTime="21.00" waitingCount="1" stopTime="0.00" timeLoss="30.70" rerouteNo="1" devices="tripinfo_h15454c2:3 routing_h15454c2:3 emissions_h15454c2:3" vType="default_016" speedFactor="1.00" vaporized="">
        <emissions CO_abs="5400.424120" CO2_abs="172808.654910" HC_abs="28.634210" PMx_abs="3.424493" NOx_abs="73.596712" fuel_abs="74.284772" electricity_abs="0"/>
    </tripinfo>
    <tripinfo id="carIn53971:1" depart="57640.00" departLane="272042143_1" departPos="5.10" departSpeed="0.00" departDelay="0.80" arrival="57689.00" arrivalLane="24634414#1_1" arrivalPos="162.19" arrivalSpeed="8.66" duration="49.00" routeLength="493.04" waitingTime="0.00" waitingCount="0" stopTime="0.00" timeLoss="7.78" rerouteNo="1" devices="tripinfo_carIn53971:1 routing_carIn53971:1 emissions_carIn53971:1" vType="default_016" speedFactor="1.10" vaporized="">
        <emissions CO_abs="2454.848714" CO2_abs="148307.429736" HC_abs="14.661943" PMx_abs="2.642326" NOx_abs="60.965283" fuel_abs="63.751116" electricity_abs="0"/>
    </tripinfo>
    <tripinfo id="carIn80064:1" depart="57603.00" departLane="128361109#1_1" departPos="5.10" departSpeed="0.00" departDelay="0.40" arrival="57710.00" arrivalLane="-315358254#1_1" arrivalPos="137.16" arrivalSpeed="13.66" duration="107.00" routeLength="1587.97" waitingTime="0.00" waitingCount="0" stopTime="0.00" timeLoss="19.08" rerouteNo="1" devices="tripinfo_carIn80064:1 routing_carIn80064:1 emissions_carIn80064:1" vType="default_016" speedFactor="1.03" vaporized="">
        <emissions CO_abs="6152.813093" CO2_abs="446364.445525" HC_abs="38.773820" PMx_abs="8.801671" NOx_abs="184.253973" fuel_abs="191.871407" electricity_abs="0"/>
    </tripinfo>
    <tripinfo id="carIn22761:1" depart="57616.00" departLane="-306240162#1_0" departPos="5.10" departSpeed="0.00" departDelay="2.10" arrival="57711.00" arrivalLane="399835085#1_1" arrivalPos="212.23" arrivalSpeed="7.58" duration="95.00" routeLength="1093.26" waitingTime="4.00" waitingCount="1" stopTime="0.00" timeLoss="21.29" rerouteNo="1" devices="tripinfo_carIn22761:1 routing_carIn22761:1 emissions_carIn22761:1" vType="default_016" speedFactor="1.05" vaporized="">
        <emissions CO_abs="5059.753386" CO2_abs="316932.894050" HC_abs="30.551201" PMx_abs="6.052715" NOx_abs="130.474743" fuel_abs="136.235562" electricity_abs="0"/>
    </tripinfo>
    <tripinfo id="h12244c1:3" depart="57612.00" departLane="315358244_1" departPos="5.10" departSpeed="0.00" departDelay="0.40" arrival="57719.00" arrivalLane="386687235_1" arrivalPos="80.84" arrivalSpeed="13.48" duration="107.00" routeLength="1186.14" waitingTime="4.00" waitingCount="2" stopTime="0.00" timeLoss="23.19" rerouteNo="1" devices="tripinfo_h12244c1:3 routing_h12244c1:3 emissions_h12244c1:3" vType="default_016" speedFactor="1.04" vaporized="">
        <emissions CO_abs="3612.949953" CO2_abs="263656.239854" HC_abs="22.574934" PMx_abs="4.463175" NOx_abs="105.462433" fuel_abs="113.334558" electricity_abs="0"/>
    </tripinfo>
    <tripinfo id="S5R_frequency1.2" depart="57624.00" departLane="315358250#0_1" departPos="12.10" departSpeed="0.00" departDelay="12.40" arrival="57730.00" arrivalLane="386687235_1" arrivalPos="80.84" arrivalSpeed="13.72" duration="106.00" routeLength="1115.62" waitingTime="6.00" waitingCount="1" stopTime="0.00" timeLoss="24.29" rerouteNo="1" devices="tripinfo_S5R_frequency1.2 routing_S5R_frequency1.2 emissions_S5R_frequency1.2" vType="bus" speedFactor="1.00" vaporized="">
        <emissions CO_abs="2068.642864" CO2_abs="1280249.641953" HC_abs="438.653639" PMx_abs="221.500870" NOx_abs="9974.960001" fuel_abs="546.008561" electricity_abs="0"/>
    </tripinfo>
    <tripinfo id="h7181c1:1" depart="57660.00" departLane="315358254#0_1" departPos="5.10" departSpeed="0.00" departDelay="0.10" arrival="57731.00" arrivalLane="306240162#0_0" arrivalPos="220.43" arrivalSpeed="16.76" duration="71.00" routeLength="932.35" waitingTime="7.00" waitingCount="1" stopTime="0.00" timeLoss="21.71" rerouteNo="1" devices="tripinfo_h7181c1:1 routing_h7181c1:1 emissions_h7181c1:1" vType="default_016" speedFactor="1.05" vaporized="">
        <emissions CO_abs="4127.531244" CO2_abs="279946.790093" HC_abs="25.478486" PMx_abs="5.551246" NOx_abs="115.881903" fuel_abs="120.336321" electricity_abs="0"/>
    </tripinfo>
    <tripinfo id="h7800c1:5" depart="57696.00" departLane="-447569998#1_1" departPos="5.10" departSpeed="0.00" departDelay="0.00" arrival="57735.00" arrivalLane="-447569998#1_2" arrivalPos="180.76" arrivalSpeed="3.63" duration="39.00" routeLength="175.66" waitingTime="13.00" waitingCount="1" stopTime="0.00" timeLoss="19.13" rerouteNo="1" devices="tripinfo_h7800c1:5 routing_h7800c1:5 emissions_h7800c1:5" vType="default_016" speedFactor="1.07" vaporized="">
        <emissions CO_abs="2737.762576" CO2_abs="73724.088836" HC_abs="14.176701" PMx_abs="1.463107" NOx_abs="31.533527" fuel_abs="31.691923" electricity_abs="0"/>
    </tripinfo>
    <tripinfo id="carIn30817:1" depart="57681.00" departLane="315358244_1" departPos="5.10" departSpeed="0.00" departDelay="0.20" arrival="57736.00" arrivalLane="447569997#1_1" arrivalPos="180.93" arrivalSpeed="10.38" duration="55.00" routeLength="718.04" waitingTime="0.00" waitingCount="0" stopTime="0.00" timeLoss="7.74" rerouteNo="1" devices="tripinfo_carIn30817:1 routing_carIn30817:1 emissions_carIn30817:1" vType="default_016" speedFactor="1.30" vaporized="">
        <emissions CO_abs="2262.450258" CO2_abs="161816.387137" HC_abs="14.026754" PMx_abs="2.896036" NOx_abs="65.467461" fuel_abs="69.557769" electricity_abs="0"/>
    </tripinfo>
    <tripinfo id="h317c2:1" depart="57707.00" departLane="-32978638#0_1" departPos="5.10" departSpeed="0.00" departDelay="0.10" arrival="57738.00" arrivalLane="-266565295#5_1" arrivalPos="172.76" arrivalSpeed="14.40" duration="31.00" routeLength="370.53" waitingTime="0.00" waitingCount="0" stopTime="0.00" timeLoss="5.69" rerouteNo="1" devices="tripinfo_h317c2:1 routing_h317c2:1 emissions_h317c2:1" vType="default_016" speedFactor="1.10" vaporized="">
        <emissions CO_abs="1669.545999" CO2_abs="112534.700390" HC_abs="10.236499" PMx_abs="2.028564" NOx_abs="45.936963" fuel_abs="48.373770" electricity_abs="0"/>
    </tripinfo>
    <tripinfo id="h3688c1:1" depart="57625.00" departLane="201201950#1_1" departPos="5.10" departSpeed="0.00" departDelay="0.00" arrival="57741.00" arrivalLane="32978638#0_1" arrivalPos="49.29" arrivalSpeed="12.78" duration="116.00" routeLength="1089.75" waitingTime="24.00" waitingCount="1" stopTime="0.00" timeLoss="36.68" rerouteNo="1" devices="tripinfo_h3688c1:1 routing_h3688c1:1 emissions_h3688c1:1" vType="default_016" speedFactor="1.01" vaporized="">
        <emissions CO_abs="6527.892775" CO2_abs="309000.839937" HC_abs="36.942362" PMx_abs="5.629827" NOx_abs="126.581450" fuel_abs="132.827584" electricity_abs="0"/>
    </tripinfo>
    <tripinfo id="h5979c1:5" depart="57669.00" departLane="399835085#1_1" departPos="5.10" departSpeed="0.00" departDelay="0.00" arrival="57758.00" arrivalLane="-315358254#1_1" arrivalPos="137.16" arrivalSpeed="12.18" duration="89.00" routeLength="659.33" waitingTime="0.00" waitingCount="0" stopTime="0.00" timeLoss="10.60" rerouteNo="1" devices="tripinfo_h5979c1:5 routing_h5979c1:5 emissions_h5979c1:5" vType="default_016" speedFactor="0.94" vaporized="">
        <emissions CO_abs="3420.973625" CO2_abs="171159.984911" HC_abs="19.507553" PMx_abs="2.716474" NOx_abs="68.751712" fuel_abs="73.575422" electricity_abs="0"/>
    </tripinfo>
    <tripinfo id="h330c1:1" depart="57736.00" departLane="-32978638#0_1" departPos="5.10" departSpeed="0.00" departDelay="0.20" arrival="57768.00" arrivalLane="-266565295#5_1" arrivalPos="172.76" arrivalSpeed="13.77" duration="32.00" routeLength="370.53" waitingTime="0.00" waitingCount="0" stopTime="0.00" timeLoss="5.62" rerouteNo="1" devices="tripinfo_h330c1:1 routing_h330c1:1 emissions_h330c1:1" vType="default_016" speedFactor="1.06" vaporized="">
        <emissions CO_abs="1565.852407" CO2_abs="106247.096644" HC_abs="9.615255" PMx_abs="1.902004" NOx_abs="43.382735" fuel_abs="45.671004" electricity_abs="0"/>
    </tripinfo>
    <tripinfo id="h3326c1:2" depart="57656.00" departLane="22716069#0_1" departPos="5.10" departSpeed="0.00" departDelay="0.00" arrival="57769.00" arrivalLane="24634517#13_1" arrivalPos="111.62" arrivalSpeed="12.69" duration="113.00" routeLength="1312.81" waitingTime="0.00" waitingCount="0" stopTime="0.00" timeLoss="14.52" rerouteNo="1" devices="tripinfo_h3326c1:2 routing_h3326c1:2 emissions_h3326c1:2" vType="default_016" speedFactor="0.98" vaporized="">
        <emissions CO_abs="4108.347591" CO2_abs="316589.120151" HC_abs="26.079858" PMx_abs="5.206565" NOx_abs="126.040021" fuel_abs="136.088148" electricity_abs="0"/>
    </tripinfo>
    <tripinfo id="h3568c1:3" depart="57656.00" departLane="266565295#5_1" departPos="5.10" departSpeed="0.00" departDelay="0.80" arrival="57775.00" arrivalLane="-24634415_1" arrivalPos="62.03" arrivalSpeed="10.00" duration="119.00" routeLength="807.40" waitingTime="19.00" waitingCount="1" stopTime="0.00" timeLoss="37.26" rerouteNo="1" devices="tripinfo_h3568c1:3 routing_h3568c1:3 emissions_h3568c1:3" vType="default_016" speedFactor="0.80" vaporized="">
        <emissions CO_abs="6704.791952" CO2_abs="259631.490114" HC_abs="36.557648" PMx_abs="4.685442" NOx_abs="107.730367" fuel_abs="111.606544" electricity_abs="0"/>
    </tripinfo>
    <tripinfo id="h4538c1:1" depart="57701.00" departLane="-10427692#1_1" departPos="5.10" departSpeed="0.00" departDelay="0.00" arrival="57782.00" arrivalLane="-128361102#1_1" arrivalPos="274.68" arrivalSpeed="14.92" duration="81.00" routeLength="440.74" waitingTime="43.00" waitingCount="1" stopTime="0.00" timeLoss="53.44" rerouteNo="1" devices="tripinfo_h4538c1:1 routing_h4538c1:1 emissions_h4538c1:1" vType="default_016" speedFactor="1.15" vaporized="">
        <emissions CO_abs="8315.464801" CO2_abs="221554.573390" HC_abs="43.049642" PMx_abs="4.799522" NOx_abs="96.185336" fuel_abs="95.239685" electricity_abs="0"/>
    </tripinfo>
    <tripinfo id="carIn12365:1" depart="57713.00" departLane="315358244_1" departPos="5.10" departSpeed="0.00" departDelay="0.50" arrival="57789.00" arrivalLane="447569997#1_1" arrivalPos="180.93" arrivalSpeed="7.20" duration="76.00" routeLength="718.04" waitingTime="0.00" waitingCount="0" stopTime="0.00" timeLoss="7.71" rerouteNo="1" devices="tripinfo_carIn12365:1 routing_carIn12365:1 emissions_carIn12365:1" vType="default_016" speedFactor="0.90" vaporized="">
        <emissions CO_abs="2317.923744" CO2_abs="144793.533886" HC_abs="13.860881" PMx_abs="2.062667" NOx_abs="56.026465" fuel_abs="62.241379" electricity_abs="0"/>
    </tripinfo>
    <tripinfo id="h9563c2:5" depart="57631.00" departLane="315358244_1" departPos="5.10" departSpeed="0.00" departDelay="0.70" arrival="57799.00" arrivalLane="386687235_1" arrivalPos="80.84" arrivalSpeed="10.39" duration="168.00" routeLength="1186.14" waitingTime="46.00" waitingCount="2" stopTime="0.00" timeLoss="64.01" rerouteNo="1" devices="tripinfo_h9563c2:5 routing_h9563c2:5 emissions_h9563c2:5" vType="default_016" speedFactor="0.84" vaporized="">
        <emissions CO_abs="10225.319661" CO2_abs="362785.733744" HC_abs="54.978464" PMx_abs="6.581280" NOx_abs="149.764467" fuel_abs="155.949748" electricity_abs="0"/>
    </tripinfo>
    <tripinfo id="carIn27009:1" depart="57673.00" departLane="-447569998#1_1" departPos="5.10" departSpeed="0.00" departDelay="0.50" arrival="57800.00" arrivalLane="-26677539_1" arrivalPos="152.75" arrivalSpeed="7.70" duration="127.00" routeLength="699.63" waitingTime="34.00" waitingCount="1" stopTime="0.00" timeLoss="48.60" rerouteNo="1" devices="tripinfo_carIn27009:1 routing_carIn27009:1 emissions_carIn27009:1" vType="default_015" speedFactor="1.07" vaporized="">
        <emissions CO_abs="8375.570360" CO2_abs="259767.320797" HC_abs="44.152341" PMx_abs="4.887245" NOx_abs="109.326644" fuel_abs="111.666029" electricity_abs="0"/>
    </tripinfo>
    <tripinfo id="carIn118591:1" depart="57689.00" departLane="315358244_1" departPos="5.10" departSpeed="0.00" departDelay="0.20" arrival="57800.00" arrivalLane="386687235_1" arrivalPos="80.84" arrivalSpeed="12.35" duration="111.00" routeLength="1186.14" waitingTime="16.00" waitingCount="1" stopTime="0.00" timeLoss="31.17" rerouteNo="1" devices="tripinfo_carIn118591:1 routing_carIn118591:1 emissions_carIn118591:1" vType="default_016" speedFactor="1.08" vaporized="">
        <emissions CO_abs="4770.985396" CO2_abs="268782.846266" HC_abs="27.918621" PMx_abs="4.501839" NOx_abs="106.569640" fuel_abs="115.539335" electricity_abs="0"/>
    </tripinfo>
    <tripinfo id="carIn107282:1" depart="57749.00" departLane="-447569998#1_1" departPos="5.10" departSpeed="0.00" departDelay="0.00" arrival="57803.00" arrivalLane="315358242#0_1" arrivalPos="165.37" arrivalSpeed="16.22" duration="54.00" routeLength="448.50" waitingTime="9.00" waitingCount="1" stopTime="0.00" timeLoss="19.07" rerouteNo="1" devices="tripinfo_carIn107282:1 routing_carIn107282:1 emissions_carIn107282:1" vType="default_016" speedFactor="1.22" vaporized="">
        <emissions CO_abs="3429.157786" CO2_abs="151826.599891" HC_abs="19.112672" PMx_abs="2.867624" NOx_abs="63.136605" fuel_abs="65.264414" electricity_abs="0"/>
    </tripinfo>
    <tripinfo id="h645c1:1" depart="57622.00" departLane="266565295#5_1" departPos="5.10" departSpeed="0.00" departDelay="0.40" arrival="57804.00" arrivalLane="-315358244_1" arrivalPos="33.95" arrivalSpeed="14.47" duration="182.00" routeLength="1910.83" waitingTime="30.00" waitingCount="2" stopTime="0.00" timeLoss="51.14" rerouteNo="1" devices="tripinfo_h645c1:1 routing_h645c1:1 emissions_h645c1:1" vType="default_016" speedFactor="1.06" vaporized="">
        <emissions CO_abs="8374.605453" CO2_abs="470069.419026" HC_abs="49.070361" PMx_abs="8.333509" NOx_abs="190.123296" fuel_abs="202.063884" electricity_abs="0"/>
    </tripinfo>
    <tripinfo id="carIn86816:1" depart="57617.00" departLane="128361102#0_1" departPos="5.10" departSpeed="0.00" departDelay="0.80" arrival="57806.00" arrivalLane="201956811#0_1" arrivalPos="40.40" arrivalSpeed="13.01" duration="189.00" routeLength="2067.33" waitingTime="10.00" waitingCount="1" stopTime="0.00" timeLoss="31.30" rerouteNo="1" devices="tripinfo_carIn86816:1 routing_carIn86816:1 emissions_carIn86816:1" vType="default_016" speedFactor="0.96" vaporized="">
        <emissions CO_abs="6332.038124" CO2_abs="451548.758209" HC_abs="39.353117" PMx_abs="7.251432" NOx_abs="178.418317" fuel_abs="194.102239" electricity_abs="0"/>
    </tripinfo>
    <tripinfo id="carIn121703:1" depart="57647.00" departLane="386687232#0_1" departPos="5.10" departSpeed="0.00" departDelay="0.30" arrival="57812.00" arrivalLane="-315358244_1" arrivalPos="33.95" arrivalSpeed="12.69" duration="165.00" routeLength="1157.39" waitingTime="65.00" waitingCount="1" stopTime="0.00" timeLoss="75.99" rerouteNo="1" devices="tripinfo_carIn121703:1 routing_carIn121703:1 emissions_carIn121703:1" vType="default_016" speedFactor="0.95" vaporized="">
        <emissions CO_abs="12644.472648" CO2_abs="385195.398874" HC_abs="66.558801" PMx_abs="7.431810" NOx_abs="160.971571" fuel_abs="165.583878" electricity_abs="0"/>
    </tripinfo>
    <tripinfo id="carIn82220:1" depart="57619.00" departLane="-306240162#1_0" departPos="5.10" departSpeed="0.00" departDelay="3.50" arrival="57813.00" arrivalLane="386687235_2" arrivalPos="80.84" arrivalSpeed="15.04" duration="194.00" routeLength="2257.41" waitingTime="26.00" waitingCount="2" stopTime="0.00" timeLoss="65.13" rerouteNo="1" devices="tripinfo_carIn82220:1 routing_carIn82220:1 emissions_carIn82220:1" vType="default_016" speedFactor="1.15" vaporized="">
        <emissions CO_abs="10549.843960" CO2_abs="616681.477363" HC_abs="62.609706" PMx_abs="11.732799" NOx_abs="253.643846" fuel_abs="265.085005" electricity_abs="0"/>
    </tripinfo>
    <tripinfo id="carIn48184:1" depart="57613.00" departLane="-306240162#1_0" departPos="5.10" departSpeed="0.00" departDelay="0.70" arrival="57814.00" arrivalLane="386687235_1" arrivalPos="80.84" arrivalSpeed="13.44" duration="201.00" routeLength="2257.41" waitingTime="23.00" waitingCount="2" stopTime="0.00" timeLoss="50.52" rerouteNo="1" devices="tripinfo_carIn48184:1 routing_carIn48184:1 emissions_carIn48184:1" vType="default_016" speedFactor="0.98" vaporized="">
        <emissions CO_abs="9024.927272" CO2_abs="555168.958684" HC_abs="54.079320" PMx_abs="9.943485" NOx_abs="224.230271" fuel_abs="238.643950" electricity_abs="0"/>
    </tripinfo>
    <tripinfo id="carIn81860:1" depart="57712.00" departLane="128361102#0_1" departPos="5.10" departSpeed="0.00" departDelay="0.60" arrival="57814.00" arrivalLane="-24634517#17_1" arrivalPos="6.43" arrivalSpeed="7.80" duration="102.00" routeLength="1229.64" waitingTime="0.00" waitingCount="0" stopTime="0.00" timeLoss="12.20" rerouteNo="1" devices="tripinfo_carIn81860:1 routing_carIn81860:1 emissions_carIn81860:1" vType="default_016" speedFactor="1.00" vaporized="">
        <emissions CO_abs="2786.156524" CO2_abs="233618.583135" HC_abs="18.121039" PMx_abs="3.649429" NOx_abs="91.285169" fuel_abs="100.422793" electricity_abs="0"/>
    </tripinfo>
    <tripinfo id="carIn462:1" depart="57622.00" departLane="-306240162#1_0" departPos="5.10" departSpeed="0.00" departDelay="4.80" arrival="57815.00" arrivalLane="386687235_2" arrivalPos="80.84" arrivalSpeed="14.56" duration="193.00" routeLength="2257.41" waitingTime="21.00" waitingCount="2" stopTime="0.00" timeLoss="60.06" rerouteNo="1" devices="tripinfo_carIn462:1 routing_carIn462:1 emissions_carIn462:1" vType="default_016" speedFactor="1.12" vaporized="">
        <emissions CO_abs="9254.124124" CO2_abs="586265.262738" HC_abs="55.929560" PMx_abs="10.971111" NOx_abs="239.044335" fuel_abs="252.010073" electricity_abs="0"/>
    </tripinfo>
    <tripinfo id="h16072c2:3" depart="57663.00" departLane="315358254#0_1" departPos="5.10" departSpeed="0.00" departDelay="2.50" arrival="57816.00" arrivalLane="386687235_1" arrivalPos="80.84" arrivalSpeed="12.59" duration="153.00" routeLength="1611.92" waitingTime="10.00" waitingCount="2" stopTime="0.00" timeLoss="32.58" rerouteNo="1" devices="tripinfo_h16072c2:3 routing_h16072c2:3 emissions_h16072c2:3" vType="default_016" speedFactor="0.97" vaporized="">
        <emissions CO_abs="5589.415092" CO2_abs="367226.047673" HC_abs="34.001713" PMx_abs="5.995831" NOx_abs="145.828840" fuel_abs="157.855588" electricity_abs="0"/>
    </tripinfo>
    <tripinfo id="carIn50326:1" depart="57651.00" departLane="128361102#0_1" departPos="5.10" departSpeed="0.00" departDelay="0.30" arrival="57822.00" arrivalLane="18809673#0_1" arrivalPos="473.56" arrivalSpeed="14.05" duration="171.00" routeLength="1591.07" waitingTime="22.00" waitingCount="1" stopTime="0.00" timeLoss="42.54" rerouteNo="1" devices="tripinfo_carIn50326:1 routing_carIn50326:1 emissions_carIn50326:1" vType="default_016" speedFactor="1.02" vaporized="">
        <emissions CO_abs="7555.742349" CO2_abs="382037.396103" HC_abs="43.281637" PMx_abs="6.647742" NOx_abs="154.818469" fuel_abs="164.223195" electricity_abs="0"/>
    </tripinfo>
    <tripinfo id="carIn129809:1" depart="57729.00" departLane="-447569998#1_1" departPos="5.10" departSpeed="0.00" departDelay="1.00" arrival="57824.00" arrivalLane="-315358244_1" arrivalPos="33.95" arrivalSpeed="14.46" duration="95.00" routeLength="706.49" waitingTime="25.00" waitingCount="1" stopTime="0.00" timeLoss="40.53" rerouteNo="1" devices="tripinfo_carIn129809:1 routing_carIn129809:1 emissions_carIn129809:1" vType="default_015" speedFactor="1.11" vaporized="">
        <emissions CO_abs="6118.304343" CO2_abs="225181.373270" HC_abs="32.994678" PMx_abs="4.224670" NOx_abs="93.146185" fuel_abs="96.797764" electricity_abs="0"/>
    </tripinfo>
    <tripinfo id="carIn28951:1" depart="57606.00" departLane="10425609#0_1" departPos="5.10" departSpeed="0.00" departDelay="0.20" arrival="57826.00" arrivalLane="-128361102#1_1" arrivalPos="274.68" arrivalSpeed="12.26" duration="220.00" routeLength="2113.04" waitingTime="34.00" waitingCount="2" stopTime="0.00" timeLoss="59.81" rerouteNo="1" devices="tripinfo_carIn28951:1 routing_carIn28951:1 emissions_carIn28951:1" vType="default_016" speedFactor="0.97" vaporized="">
        <emissions CO_abs="10295.550128" CO2_abs="547371.325493" HC_abs="59.689870" PMx_abs="9.573791" NOx_abs="221.817544" fuel_abs="235.293413" electricity_abs="0"/>
    </tripinfo>
    <tripinfo id="carIn82278:1" depart="57702.00" departLane="-306240162#1_0" departPos="5.10" departSpeed="0.00" departDelay="0.70" arrival="57826.00" arrivalLane="399835085#1_1" arrivalPos="212.23" arrivalSpeed="5.76" duration="124.00" routeLength="1093.26" waitingTime="6.00" waitingCount="2" stopTime="0.00" timeLoss="29.26" rerouteNo="1" devices="tripinfo_carIn82278:1 routing_carIn82278:1 emissions_carIn82278:1" vType="default_016" speedFactor="0.82" vaporized="">
        <emissions CO_abs="5342.415228" CO2_abs="285955.917006" HC_abs="31.028921" PMx_abs="5.139208" NOx_abs="117.484155" fuel_abs="122.920890" electricity_abs="0"/>
    </tripinfo>
    <tripinfo id="carIn12858:1" depart="57661.00" departLane="128361109#1_1" departPos="5.10" departSpeed="0.00" departDelay="0.90" arrival="57828.00" arrivalLane="399835085#1_1" arrivalPos="212.23" arrivalSpeed="8.41" duration="167.00" routeLength="1738.12" waitingTime="23.00" waitingCount="1" stopTime="0.00" timeLoss="62.00" rerouteNo="1" devices="tripinfo_carIn12858:1 routing_carIn12858:1 emissions_carIn12858:1" vType="default_016" speedFactor="1.10" vaporized="">
        <emissions CO_abs="10750.061673" CO2_abs="553027.763613" HC_abs="62.081693" PMx_abs="11.070496" NOx_abs="230.986375" fuel_abs="237.723261" electricity_abs="0"/>
    </tripinfo>
    <tripinfo id="50R_frequency3.17" depart="57674.00" departLane="-18809673#6_1" departPos="12.10" departSpeed="0.00" departDelay="0.70" arrival="57833.00" arrivalLane="201956811#0_1" arrivalPos="40.40" arrivalSpeed="13.86" duration="159.00" routeLength="1954.47" waitingTime="0.00" waitingCount="0" stopTime="0.00" timeLoss="14.51" rerouteNo="1" devices="tripinfo_50R_frequency3.17 routing_50R_frequency3.17 emissions_50R_frequency3.17" vType="bus" speedFactor="1.00" vaporized="">
        <emissions CO_abs="3052.442871" CO2_abs="1960838.073579" HC_abs="650.260256" PMx_abs="328.931916" NOx_abs="15071.907451" fuel_abs="836.301944" electricity_abs="0"/>
    </tripinfo>
    <tripinfo id="h3154c1:1" depart="57658.00" departLane="24634507_1" departPos="5.10" departSpeed="0.00" departDelay="0.00" arrival="57836.00" arrivalLane="-266565295#5_1" arrivalPos="172.76" arrivalSpeed="13.07" duration="178.00" routeLength="1206.22" waitingTime="65.00" waitingCount="3" stopTime="0.00" timeLoss="89.83" rerouteNo="1" devices="tripinfo_h3154c1:1 routing_h3154c1:1 emissions_h3154c1:1" vType="default_016" speedFactor="1.00" vaporized="">
        <emissions CO_abs="13699.191931" CO2_abs="465556.549333" HC_abs="73.310417" PMx_abs="9.280833" NOx_abs="197.159416" fuel_abs="200.126826" electricity_abs="0"/>
    </tripinfo>
    <tripinfo id="carIn102915:1" depart="57643.00" departLane="128361102#0_1" departPos="5.10" departSpeed="0.00" departDelay="0.40" arrival="57837.00" arrivalLane="201956811#0_1" arrivalPos="40.40" arrivalSpeed="12.37" duration="194.00" routeLength="2067.33" waitingTime="6.00" waitingCount="2" stopTime="0.00" timeLoss="34.68" rerouteNo="1" devices="tripinfo_carIn102915:1 routing_carIn102915:1 emissions_carIn102915:1" vType="default_016" speedFactor="0.95" vaporized="">
        <emissions CO_abs="6294.969673" CO2_abs="448965.703421" HC_abs="39.149219" PMx_abs="7.418012" NOx_abs="179.349738" fuel_abs="192.991507" electricity_abs="0"/>
    </tripinfo>
    <tripinfo id="carIn46110:1" depart="57684.00" departLane="315358244_1" departPos="5.10" departSpeed="0.00" departDelay="1.20" arrival="57839.00" arrivalLane="32978638#0_1" arrivalPos="49.29" arrivalSpeed="13.92" duration="155.00" routeLength="1764.04" waitingTime="17.00" waitingCount="1" stopTime="0.00" timeLoss="33.15" rerouteNo="1" devices="tripinfo_carIn46110:1 routing_carIn46110:1 emissions_carIn46110:1" vType="default_016" speedFactor="1.06" vaporized="">
        <emissions CO_abs="5853.269644" CO2_abs="381672.829847" HC_abs="35.490219" PMx_abs="6.444217" NOx_abs="151.806175" fuel_abs="164.065485" electricity_abs="0"/>
    </tripinfo>
    <tripinfo id="carIn107084:1" depart="57601.00" departLane="124812856#0_1" departPos="5.10" departSpeed="0.00" departDelay="0.70" arrival="57849.00" arrivalLane="-128361102#1_1" arrivalPos="274.68" arrivalSpeed="11.88" duration="248.00" routeLength="2250.49" waitingTime="35.00" waitingCount="3" stopTime="0.00" timeLoss="67.98" rerouteNo="1" devices="tripinfo_carIn107084:1 routing_carIn107084:1 emissions_carIn107084:1" vType="default_016" speedFactor="0.91" vaporized="">
        <emissions CO_abs="10826.413795" CO2_abs="574070.541349" HC_abs="62.678973" PMx_abs="9.803070" NOx_abs="232.029689" fuel_abs="246.770649" electricity_abs="0"/>
    </tripinfo>
    <tripinfo id="randUni14624:1" depart="57606.00" departLane="315358244_1" departPos="5.10" departSpeed="0.00" departDelay="0.80" arrival="57851.00" arrivalLane="-25149001#4_1" arrivalPos="105.67" arrivalSpeed="9.53" duration="245.00" routeLength="2803.98" waitingTime="18.00" waitingCount="5" stopTime="0.00" timeLoss="70.46" rerouteNo="1" devices="tripinfo_randUni14624:1 routing_randUni14624:1 emissions_randUni14624:1" vType="random_016" speedFactor="1.21" vaporized="">
        <emissions CO_abs="10213.872859" CO2_abs="679043.251420" HC_abs="62.255063" PMx_abs="12.335044" NOx_abs="275.899650" fuel_abs="291.891276" electricity_abs="0"/>
    </tripinfo>
    <tripinfo id="h3864c1:3" depart="57678.00" departLane="24693977#1_1" departPos="5.10" departSpeed="0.00" departDelay="0.00" arrival="57851.00" arrivalLane="201956820_1" arrivalPos="48.33" arrivalSpeed="13.82" duration="173.00" routeLength="1574.85" waitingTime="20.00" waitingCount="1" stopTime="0.00" timeLoss="44.57" rerouteNo="1" devices="tripinfo_h3864c1:3 routing_h3864c1:3 emissions_h3864c1:3" vType="default_016" speedFactor="1.01" vaporized="">
        <emissions CO_abs="7978.795539" CO2_abs="420353.846780" HC_abs="46.182529" PMx_abs="7.490207" NOx_abs="172.253650" fuel_abs="180.693339" electricity_abs="0"/>
    </tripinfo>
    <tripinfo id="randUni33724:1" depart="57646.00" departLane="128361102#0_1" departPos="5.10" departSpeed="0.00" departDelay="1.20" arrival="57853.00" arrivalLane="201956811#0_1" arrivalPos="40.40" arrivalSpeed="11.81" duration="207.00" routeLength="2067.33" waitingTime="6.00" waitingCount="1" stopTime="0.00" timeLoss="29.51" rerouteNo="1" devices="tripinfo_randUni33724:1 routing_randUni33724:1 emissions_randUni33724:1" vType="random_016" speedFactor="0.86" vaporized="">
        <emissions CO_abs="5747.522744" CO2_abs="414059.570933" HC_abs="35.722352" PMx_abs="6.230476" NOx_abs="162.005703" fuel_abs="177.987654" electricity_abs="0"/>
    </tripinfo>
    <tripinfo id="carIn100288:1" depart="57664.00" departLane="128361102#0_1" departPos="5.10" departSpeed="0.00" departDelay="0.60" arrival="57854.00" arrivalLane="201956811#0_1" arrivalPos="40.40" arrivalSpeed="12.96" duration="190.00" routeLength="2067.33" waitingTime="12.00" waitingCount="2" stopTime="0.00" timeLoss="39.41" rerouteNo="1" devices="tripinfo_carIn100288:1 routing_carIn100288:1 emissions_carIn100288:1" vType="default_016" speedFactor="1.00" vaporized="">
        <emissions CO_abs="6823.411925" CO2_abs="459546.789895" HC_abs="41.795424" PMx_abs="7.765963" NOx_abs="184.371981" fuel_abs="197.539960" electricity_abs="0"/>