<?xml version="1.0" encoding="UTF-8"?>

<!-- generated on 2021-10-26 20:13:17 by Eclipse SUMO sumo Version 1.10.0
<configuration xmlns:xsi="http://www.w3.org/2001/XMLSchema-instance" xsi:noNamespaceSchemaLocation="http://sumo.dlr.de/xsd/sumoConfiguration.xsd">

    <input>
        <net-file value="/Users/behradkoohy/sumo-scratchpad/RESCO/environments/ingolstadt21/ingolstadt21.net.xml"/>
        <route-files value="/Users/behradkoohy/sumo-scratchpad/RESCO/environments/ingolstadt21/ingolstadt21.rou.xml"/>
    </input>

    <output>
        <tripinfo-output value="/Users/behradkoohy/sumo-scratchpad/RESCO/logs/MPLight-tr0-ingolstadt21-21-mplight-pressure/tripinfo_76.xml"/>
        <tripinfo-output.write-unfinished value="true"/>
    </output>

    <time>
        <begin value="57600"/>
        <end value="61200"/>
    </time>

    <processing>
        <time-to-teleport value="-1"/>
    </processing>

    <report>
        <no-warnings value="true"/>
        <no-step-log value="true"/>
    </report>

    <emissions>
        <device.emissions.probability value="1"/>
    </emissions>

    <traci_server>
        <remote-port value="64139"/>
    </traci_server>

    <random_number>
        <random value="true"/>
    </random_number>

</configuration>
-->

<tripinfos xmlns:xsi="http://www.w3.org/2001/XMLSchema-instance" xsi:noNamespaceSchemaLocation="http://sumo.dlr.de/xsd/tripinfo_file.xsd">
    <tripinfo id="h15454c2:3" depart="57612.00" departLane="24608844_1" departPos="5.10" departSpeed="0.00" departDelay="0.50" arrival="57657.00" arrivalLane="32978638#0_1" arrivalPos="49.29" arrivalSpeed="11.16" duration="45.00" routeLength="354.79" waitingTime="0.00" waitingCount="0" stopTime="0.00" timeLoss="5.68" rerouteNo="1" devices="tripinfo_h15454c2:3 routing_h15454c2:3 emissions_h15454c2:3" vType="default_016" speedFactor="0.88" vaporized="">
        <emissions CO_abs="2179.119317" CO2_abs="110779.448108" HC_abs="12.480294" PMx_abs="1.823686" NOx_abs="44.903929" fuel_abs="47.619908" electricity_abs="0"/>
    </tripinfo>
    <tripinfo id="carIn60260:1" depart="57606.00" departLane="315358254#0_1" departPos="5.10" departSpeed="0.00" departDelay="0.90" arrival="57683.00" arrivalLane="399835085#1_1" arrivalPos="212.23" arrivalSpeed="5.68" duration="77.00" routeLength="430.98" waitingTime="9.00" waitingCount="1" stopTime="0.00" timeLoss="19.51" rerouteNo="1" devices="tripinfo_carIn60260:1 routing_carIn60260:1 emissions_carIn60260:1" vType="default_016" speedFactor="0.81" vaporized="">
        <emissions CO_abs="3533.432136" CO2_abs="128814.254902" HC_abs="19.039765" PMx_abs="2.179321" NOx_abs="52.893804" fuel_abs="55.373125" electricity_abs="0"/>
    </tripinfo>
    <tripinfo id="carIn53971:1" depart="57640.00" departLane="272042143_1" departPos="5.10" departSpeed="0.00" departDelay="0.80" arrival="57696.00" arrivalLane="24634414#1_1" arrivalPos="162.19" arrivalSpeed="7.60" duration="56.00" routeLength="493.04" waitingTime="0.00" waitingCount="0" stopTime="0.00" timeLoss="7.53" rerouteNo="1" devices="tripinfo_carIn53971:1 routing_carIn53971:1 emissions_carIn53971:1" vType="default_016" speedFactor="0.95" vaporized="">
        <emissions CO_abs="2433.075542" CO2_abs="136267.111910" HC_abs="14.235811" PMx_abs="2.239954" NOx_abs="54.966222" fuel_abs="58.575912" electricity_abs="0"/>
    </tripinfo>
    <tripinfo id="carIn22761:1" depart="57616.00" departLane="-306240162#1_0" departPos="5.10" departSpeed="0.00" departDelay="2.10" arrival="57720.00" arrivalLane="399835085#1_1" arrivalPos="212.23" arrivalSpeed="8.77" duration="104.00" routeLength="1093.26" waitingTime="6.00" waitingCount="2" stopTime="0.00" timeLoss="33.96" rerouteNo="1" devices="tripinfo_carIn22761:1 routing_carIn22761:1 emissions_carIn22761:1" vType="default_016" speedFactor="1.11" vaporized="">
        <emissions CO_abs="5917.869896" CO2_abs="357136.017658" HC_abs="35.448707" PMx_abs="6.817641" NOx_abs="147.744610" fuel_abs="153.517247" electricity_abs="0"/>
    </tripinfo>
    <tripinfo id="h7800c1:5" depart="57696.00" departLane="-447569998#1_1" departPos="5.10" departSpeed="0.00" departDelay="0.00" arrival="57725.00" arrivalLane="-447569998#1_2" arrivalPos="180.76" arrivalSpeed="6.26" duration="29.00" routeLength="175.66" waitingTime="0.00" waitingCount="0" stopTime="0.00" timeLoss="3.42" rerouteNo="1" devices="tripinfo_h7800c1:5 routing_h7800c1:5 emissions_h7800c1:5" vType="default_016" speedFactor="0.85" vaporized="">
        <emissions CO_abs="1341.883570" CO2_abs="50774.868131" HC_abs="7.261549" PMx_abs="0.796080" NOx_abs="20.511726" fuel_abs="21.826536" electricity_abs="0"/>
    </tripinfo>
    <tripinfo id="S5R_frequency1.2" depart="57615.00" departLane="315358250#0_1" departPos="12.10" departSpeed="0.00" departDelay="3.40" arrival="57729.00" arrivalLane="386687235_1" arrivalPos="80.84" arrivalSpeed="13.75" duration="114.00" routeLength="1115.62" waitingTime="15.00" waitingCount="1" stopTime="0.00" timeLoss="32.55" rerouteNo="1" devices="tripinfo_S5R_frequency1.2 routing_S5R_frequency1.2 emissions_S5R_frequency1.2" vType="bus" speedFactor="1.00" vaporized="">
        <emissions CO_abs="2248.580778" CO2_abs="1329189.105697" HC_abs="482.451161" PMx_abs="239.479146" NOx_abs="10525.129167" fuel_abs="566.861481" electricity_abs="0"/>
    </tripinfo>
    <tripinfo id="h3688c1:1" depart="57625.00" departLane="201201950#1_1" departPos="5.10" departSpeed="0.00" departDelay="0.00" arrival="57731.00" arrivalLane="32978638#0_1" arrivalPos="49.29" arrivalSpeed="12.79" duration="106.00" routeLength="1089.75" waitingTime="12.00" waitingCount="1" stopTime="0.00" timeLoss="26.39" rerouteNo="1" devices="tripinfo_h3688c1:1 routing_h3688c1:1 emissions_h3688c1:1" vType="default_016" speedFactor="1.00" vaporized="">
        <emissions CO_abs="4561.373722" CO2_abs="261123.548539" HC_abs="26.858772" PMx_abs="4.604956" NOx_abs="106.131204" fuel_abs="112.246376" electricity_abs="0"/>
    </tripinfo>
    <tripinfo id="h3568c1:3" depart="57656.00" departLane="266565295#5_1" departPos="5.10" departSpeed="0.00" departDelay="0.80" arrival="57737.00" arrivalLane="-24634415_1" arrivalPos="62.03" arrivalSpeed="12.81" duration="81.00" routeLength="807.40" waitingTime="0.00" waitingCount="0" stopTime="0.00" timeLoss="11.28" rerouteNo="1" devices="tripinfo_h3568c1:3 routing_h3568c1:3 emissions_h3568c1:3" vType="default_016" speedFactor="0.93" vaporized="">
        <emissions CO_abs="3331.354136" CO2_abs="214668.905707" HC_abs="20.185446" PMx_abs="3.636016" NOx_abs="86.821322" fuel_abs="92.277238" electricity_abs="0"/>
    </tripinfo>
    <tripinfo id="h4538c1:1" depart="57701.00" departLane="-10427692#1_1" departPos="5.10" departSpeed="0.00" departDelay="0.00" arrival="57745.00" arrivalLane="-128361102#1_1" arrivalPos="274.68" arrivalSpeed="11.15" duration="44.00" routeLength="440.74" waitingTime="0.00" waitingCount="0" stopTime="0.00" timeLoss="6.45" rerouteNo="1" devices="tripinfo_h4538c1:1 routing_h4538c1:1 emissions_h4538c1:1" vType="default_016" speedFactor="0.87" vaporized="">
        <emissions CO_abs="1656.360912" CO2_abs="111443.195459" HC_abs="10.139988" PMx_abs="1.843630" NOx_abs="44.793230" fuel_abs="47.904801" electricity_abs="0"/>
    </tripinfo>
    <tripinfo id="h5979c1:5" depart="57669.00" departLane="399835085#1_1" departPos="5.10" departSpeed="0.00" departDelay="0.00" arrival="57746.00" arrivalLane="-315358254#1_1" arrivalPos="137.16" arrivalSpeed="14.84" duration="77.00" routeLength="659.33" waitingTime="0.00" waitingCount="0" stopTime="0.00" timeLoss="10.31" rerouteNo="1" devices="tripinfo_h5979c1:5 routing_h5979c1:5 emissions_h5979c1:5" vType="default_016" speedFactor="1.10" vaporized="">
        <emissions CO_abs="3047.482764" CO2_abs="168089.092159" HC_abs="17.777610" PMx_abs="2.809446" NOx_abs="68.144517" fuel_abs="72.254904" electricity_abs="0"/>
    </tripinfo>
    <tripinfo id="h12244c1:3" depart="57612.00" departLane="315358244_1" departPos="5.10" departSpeed="0.00" departDelay="0.40" arrival="57748.00" arrivalLane="386687235_1" arrivalPos="80.84" arrivalSpeed="11.98" duration="136.00" routeLength="1186.14" waitingTime="26.00" waitingCount="2" stopTime="0.00" timeLoss="45.01" rerouteNo="1" devices="tripinfo_h12244c1:3 routing_h12244c1:3 emissions_h12244c1:3" vType="default_016" speedFactor="0.96" vaporized="">
        <emissions CO_abs="6109.395832" CO2_abs="302289.104503" HC_abs="34.843914" PMx_abs="5.110896" NOx_abs="121.367122" fuel_abs="129.942833" electricity_abs="0"/>
    </tripinfo>
    <tripinfo id="carIn121703:1" depart="57647.00" departLane="386687232#0_1" departPos="5.10" departSpeed="0.00" departDelay="0.30" arrival="57752.00" arrivalLane="-315358244_1" arrivalPos="33.95" arrivalSpeed="12.02" duration="105.00" routeLength="1157.39" waitingTime="0.00" waitingCount="0" stopTime="0.00" timeLoss="8.81" rerouteNo="1" devices="tripinfo_carIn121703:1 routing_carIn121703:1 emissions_carIn121703:1" vType="default_016" speedFactor="0.87" vaporized="">
        <emissions CO_abs="2635.786452" CO2_abs="221154.904750" HC_abs="17.081558" PMx_abs="3.111440" NOx_abs="84.691966" fuel_abs="95.065656" electricity_abs="0"/>
    </tripinfo>
    <tripinfo id="h317c2:1" depart="57707.00" departLane="-32978638#0_1" departPos="5.10" departSpeed="0.00" departDelay="0.10" arrival="57755.00" arrivalLane="-266565295#5_1" arrivalPos="172.76" arrivalSpeed="13.71" duration="48.00" routeLength="370.53" waitingTime="11.00" waitingCount="1" stopTime="0.00" timeLoss="21.41" rerouteNo="1" devices="tripinfo_h317c2:1 routing_h317c2:1 emissions_h317c2:1" vType="default_016" speedFactor="1.04" vaporized="">
        <emissions CO_abs="3059.357324" CO2_abs="136228.999517" HC_abs="17.157682" PMx_abs="2.690248" NOx_abs="57.655236" fuel_abs="58.559399" electricity_abs="0"/>
    </tripinfo>
    <tripinfo id="h7181c1:1" depart="57660.00" departLane="315358254#0_1" departPos="5.10" departSpeed="0.00" departDelay="0.10" arrival="57761.00" arrivalLane="306240162#0_0" arrivalPos="220.43" arrivalSpeed="15.83" duration="101.00" routeLength="932.35" waitingTime="28.00" waitingCount="2" stopTime="0.00" timeLoss="49.00" rerouteNo="1" devices="tripinfo_h7181c1:1 routing_h7181c1:1 emissions_h7181c1:1" vType="default_016" speedFactor="0.99" vaporized="">
        <emissions CO_abs="7486.284911" CO2_abs="321807.541225" HC_abs="41.728287" PMx_abs="6.505644" NOx_abs="135.083655" fuel_abs="138.332394" electricity_abs="0"/>
    </tripinfo>
    <tripinfo id="h9563c2:5" depart="57631.00" departLane="315358244_1" departPos="5.10" departSpeed="0.00" departDelay="0.70" arrival="57770.00" arrivalLane="386687235_1" arrivalPos="80.84" arrivalSpeed="13.69" duration="139.00" routeLength="1186.14" waitingTime="27.00" waitingCount="4" stopTime="0.00" timeLoss="56.56" rerouteNo="1" devices="tripinfo_h9563c2:5 routing_h9563c2:5 emissions_h9563c2:5" vType="default_016" speedFactor="1.05" vaporized="">
        <emissions CO_abs="5911.666835" CO2_abs="285818.923855" HC_abs="33.581091" PMx_abs="5.086185" NOx_abs="116.205097" fuel_abs="122.862657" electricity_abs="0"/>
    </tripinfo>
    <tripinfo id="carIn12365:1" depart="57713.00" departLane="315358244_1" departPos="5.10" departSpeed="0.00" departDelay="0.50" arrival="57784.00" arrivalLane="447569997#1_2" arrivalPos="180.93" arrivalSpeed="7.79" duration="71.00" routeLength="718.04" waitingTime="0.00" waitingCount="0" stopTime="0.00" timeLoss="8.32" rerouteNo="1" devices="tripinfo_carIn12365:1 routing_carIn12365:1 emissions_carIn12365:1" vType="default_016" speedFactor="0.98" vaporized="">
        <emissions CO_abs="2372.893985" CO2_abs="152019.024395" HC_abs="14.333058" PMx_abs="2.446441" NOx_abs="60.581274" fuel_abs="65.346874" electricity_abs="0"/>
    </tripinfo>
    <tripinfo id="carIn30817:1" depart="57681.00" departLane="315358244_1" departPos="5.10" departSpeed="0.00" departDelay="0.20" arrival="57785.00" arrivalLane="447569997#1_1" arrivalPos="180.93" arrivalSpeed="6.83" duration="104.00" routeLength="718.04" waitingTime="15.00" waitingCount="2" stopTime="0.00" timeLoss="32.36" rerouteNo="1" devices="tripinfo_carIn30817:1 routing_carIn30817:1 emissions_carIn30817:1" vType="default_016" speedFactor="0.86" vaporized="">
        <emissions CO_abs="4437.387633" CO2_abs="204354.908787" HC_abs="24.937152" PMx_abs="3.480615" NOx_abs="83.343859" fuel_abs="87.844674" electricity_abs="0"/>
    </tripinfo>
    <tripinfo id="carIn107084:1" depart="57601.00" departLane="124812856#0_1" departPos="5.10" departSpeed="0.00" departDelay="0.70" arrival="57786.00" arrivalLane="-128361102#1_1" arrivalPos="274.68" arrivalSpeed="15.66" duration="185.00" routeLength="2250.49" waitingTime="12.00" waitingCount="1" stopTime="0.00" timeLoss="39.76" rerouteNo="1" devices="tripinfo_carIn107084:1 routing_carIn107084:1 emissions_carIn107084:1" vType="default_016" speedFactor="1.13" vaporized="">
        <emissions CO_abs="7400.622134" CO2_abs="521299.547598" HC_abs="45.759479" PMx_abs="9.314601" NOx_abs="210.908278" fuel_abs="224.083939" electricity_abs="0"/>
    </tripinfo>
    <tripinfo id="h3154c1:1" depart="57658.00" departLane="24634507_1" departPos="5.10" departSpeed="0.00" departDelay="0.00" arrival="57786.00" arrivalLane="-266565295#5_1" arrivalPos="172.76" arrivalSpeed="13.50" duration="128.00" routeLength="1206.22" waitingTime="23.00" waitingCount="2" stopTime="0.00" timeLoss="41.76" rerouteNo="1" devices="tripinfo_h3154c1:1 routing_h3154c1:1 emissions_h3154c1:1" vType="default_016" speedFactor="1.03" vaporized="">
        <emissions CO_abs="6228.083437" CO2_abs="340257.575664" HC_abs="36.295924" PMx_abs="6.096443" NOx_abs="138.882828" fuel_abs="146.262969" electricity_abs="0"/>
    </tripinfo>
    <tripinfo id="h3326c1:2" depart="57656.00" departLane="22716069#0_1" departPos="5.10" departSpeed="0.00" departDelay="0.00" arrival="57788.00" arrivalLane="24634517#13_1" arrivalPos="111.62" arrivalSpeed="10.55" duration="132.00" routeLength="1312.81" waitingTime="0.00" waitingCount="0" stopTime="0.00" timeLoss="15.76" rerouteNo="1" devices="tripinfo_h3326c1:2 routing_h3326c1:2 emissions_h3326c1:2" vType="default_016" speedFactor="0.84" vaporized="">
        <emissions CO_abs="4235.745937" CO2_abs="276972.583304" HC_abs="25.721343" PMx_abs="4.503699" NOx_abs="111.059221" fuel_abs="119.059206" electricity_abs="0"/>
    </tripinfo>
    <tripinfo id="h330c1:1" depart="57736.00" departLane="-32978638#0_1" departPos="5.10" departSpeed="0.00" departDelay="0.20" arrival="57796.00" arrivalLane="-266565295#5_1" arrivalPos="172.76" arrivalSpeed="12.45" duration="60.00" routeLength="370.53" waitingTime="21.00" waitingCount="1" stopTime="0.00" timeLoss="31.67" rerouteNo="1" devices="tripinfo_h330c1:1 routing_h330c1:1 emissions_h330c1:1" vType="default_016" speedFactor="0.97" vaporized="">
        <emissions CO_abs="4733.976360" CO2_abs="156833.334392" HC_abs="25.233843" PMx_abs="3.097985" NOx_abs="66.404938" fuel_abs="67.417411" electricity_abs="0"/>
    </tripinfo>
    <tripinfo id="carIn86816:1" depart="57617.00" departLane="128361102#0_1" departPos="5.10" departSpeed="0.00" departDelay="0.80" arrival="57800.00" arrivalLane="201956811#0_1" arrivalPos="40.40" arrivalSpeed="13.51" duration="183.00" routeLength="2067.33" waitingTime="11.00" waitingCount="1" stopTime="0.00" timeLoss="33.64" rerouteNo="1" devices="tripinfo_carIn86816:1 routing_carIn86816:1 emissions_carIn86816:1" vType="default_016" speedFactor="1.01" vaporized="">
        <emissions CO_abs="6496.846718" CO2_abs="460810.313251" HC_abs="40.337412" PMx_abs="7.752120" NOx_abs="184.083600" fuel_abs="198.082911" electricity_abs="0"/>
    </tripinfo>
    <tripinfo id="carIn77943:1" depart="57608.00" departLane="124812856#0_1" departPos="5.10" departSpeed="0.00" departDelay="2.50" arrival="57804.00" arrivalLane="-128361102#1_1" arrivalPos="274.68" arrivalSpeed="14.50" duration="196.00" routeLength="2250.49" waitingTime="9.00" waitingCount="2" stopTime="0.00" timeLoss="44.19" rerouteNo="1" devices="tripinfo_carIn77943:1 routing_carIn77943:1 emissions_carIn77943:1" vType="default_016" speedFactor="1.08" vaporized="">
        <emissions CO_abs="7374.986382" CO2_abs="536076.928893" HC_abs="46.131315" PMx_abs="9.499691" NOx_abs="217.584734" fuel_abs="230.435917" electricity_abs="0"/>
    </tripinfo>
    <tripinfo id="carIn81046:1" depart="57611.00" departLane="124812856#0_1" departPos="5.10" departSpeed="0.00" departDelay="2.50" arrival="57810.00" arrivalLane="-128361102#1_1" arrivalPos="274.68" arrivalSpeed="13.08" duration="199.00" routeLength="2250.49" waitingTime="2.00" waitingCount="1" stopTime="0.00" timeLoss="26.55" rerouteNo="1" devices="tripinfo_carIn81046:1 routing_carIn81046:1 emissions_carIn81046:1" vType="default_016" speedFactor="0.95" vaporized="">
        <emissions CO_abs="6045.107889" CO2_abs="474526.679582" HC_abs="38.582459" PMx_abs="7.552710" NOx_abs="187.279293" fuel_abs="203.979061" electricity_abs="0"/>
    </tripinfo>
    <tripinfo id="carIn80064:1" depart="57603.00" departLane="128361109#1_1" departPos="5.10" departSpeed="0.00" departDelay="0.40" arrival="57812.00" arrivalLane="-315358254#1_1" arrivalPos="137.16" arrivalSpeed="12.97" duration="209.00" routeLength="1587.97" waitingTime="84.00" waitingCount="3" stopTime="0.00" timeLoss="121.40" rerouteNo="1" devices="tripinfo_carIn80064:1 routing_carIn80064:1 emissions_carIn80064:1" vType="default_016" speedFactor="1.03" vaporized="">
        <emissions CO_abs="18930.627067" CO2_abs="670411.610485" HC_abs="102.190784" PMx_abs="14.273067" NOx_abs="287.059417" fuel_abs="288.185221" electricity_abs="0"/>
    </tripinfo>
    <tripinfo id="carIn102915:1" depart="57643.00" departLane="128361102#0_1" departPos="5.10" departSpeed="0.00" departDelay="0.40" arrival="57812.00" arrivalLane="201956811#0_1" arrivalPos="40.40" arrivalSpeed="14.28" duration="169.00" routeLength="2067.33" waitingTime="6.00" waitingCount="1" stopTime="0.00" timeLoss="30.49" rerouteNo="1" devices="tripinfo_carIn102915:1 routing_carIn102915:1 emissions_carIn102915:1" vType="default_016" speedFactor="1.09" vaporized="">
        <emissions CO_abs="5681.883560" CO2_abs="451429.465484" HC_abs="36.373103" PMx_abs="7.737240" NOx_abs="180.601602" fuel_abs="194.049729" electricity_abs="0"/>
    </tripinfo>
    <tripinfo id="carIn129809:1" depart="57729.00" departLane="-447569998#1_1" departPos="5.10" departSpeed="0.00" departDelay="1.00" arrival="57814.00" arrivalLane="-315358244_1" arrivalPos="33.95" arrivalSpeed="15.29" duration="85.00" routeLength="706.49" waitingTime="15.00" waitingCount="2" stopTime="0.00" timeLoss="32.18" rerouteNo="1" devices="tripinfo_carIn129809:1 routing_carIn129809:1 emissions_carIn129809:1" vType="default_015" speedFactor="1.15" vaporized="">
        <emissions CO_abs="3918.668229" CO2_abs="210881.200449" HC_abs="22.679733" PMx_abs="3.851028" NOx_abs="86.712779" fuel_abs="90.649202" electricity_abs="0"/>
    </tripinfo>
    <tripinfo id="carIn82278:1" depart="57702.00" departLane="-306240162#1_0" departPos="5.10" departSpeed="0.00" departDelay="0.70" arrival="57815.00" arrivalLane="399835085#1_1" arrivalPos="212.23" arrivalSpeed="10.56" duration="113.00" routeLength="1093.26" waitingTime="18.00" waitingCount="2" stopTime="0.00" timeLoss="52.13" rerouteNo="1" devices="tripinfo_carIn82278:1 routing_carIn82278:1 emissions_carIn82278:1" vType="default_016" speedFactor="1.30" vaporized="">
        <emissions CO_abs="8331.946057" CO2_abs="439890.448683" HC_abs="48.505175" PMx_abs="9.039493" NOx_abs="186.431157" fuel_abs="189.089659" electricity_abs="0"/>
    </tripinfo>
    <tripinfo id="h11737c1:1" depart="57665.00" departLane="272042143_1" departPos="5.10" departSpeed="0.00" departDelay="1.50" arrival="57816.00" arrivalLane="-315358254#1_1" arrivalPos="137.16" arrivalSpeed="14.12" duration="151.00" routeLength="1596.88" waitingTime="25.00" waitingCount="1" stopTime="0.00" timeLoss="41.72" rerouteNo="1" devices="tripinfo_h11737c1:1 routing_h11737c1:1 emissions_h11737c1:1" vType="default_016" speedFactor="1.06" vaporized="">
        <emissions CO_abs="7140.691471" CO2_abs="384204.763617" HC_abs="41.389458" PMx_abs="6.690725" NOx_abs="154.321298" fuel_abs="165.154593" electricity_abs="0"/>
    </tripinfo>
    <tripinfo id="randUni33724:1" depart="57646.00" departLane="128361102#0_1" departPos="5.10" departSpeed="0.00" departDelay="1.20" arrival="57819.00" arrivalLane="201956811#0_1" arrivalPos="40.40" arrivalSpeed="14.20" duration="173.00" routeLength="2067.33" waitingTime="5.00" waitingCount="1" stopTime="0.00" timeLoss="28.27" rerouteNo="1" devices="tripinfo_randUni33724:1 routing_randUni33724:1 emissions_randUni33724:1" vType="random_016" speedFactor="1.05" vaporized="">
        <emissions CO_abs="5616.050632" CO2_abs="445255.266395" HC_abs="35.893116" PMx_abs="7.435513" NOx_abs="177.121740" fuel_abs="191.395995" electricity_abs="0"/>
    </tripinfo>
    <tripinfo id="carIn12858:1" depart="57661.00" departLane="128361109#1_1" departPos="5.10" departSpeed="0.00" departDelay="0.90" arrival="57821.00" arrivalLane="399835085#1_1" arrivalPos="212.23" arrivalSpeed="9.27" duration="160.00" routeLength="1738.12" waitingTime="25.00" waitingCount="1" stopTime="0.00" timeLoss="58.30" rerouteNo="1" devices="tripinfo_carIn12858:1 routing_carIn12858:1 emissions_carIn12858:1" vType="default_016" speedFactor="1.15" vaporized="">
        <emissions CO_abs="10877.576010" CO2_abs="569811.903816" HC_abs="63.172510" PMx_abs="11.427798" NOx_abs="238.020836" fuel_abs="244.937882" electricity_abs="0"/>
    </tripinfo>
    <tripinfo id="h3864c1:3" depart="57678.00" departLane="24693977#1_1" departPos="5.10" departSpeed="0.00" departDelay="0.00" arrival="57823.00" arrivalLane="201956820_2" arrivalPos="48.33" arrivalSpeed="13.80" duration="145.00" routeLength="1574.85" waitingTime="0.00" waitingCount="0" stopTime="0.00" timeLoss="18.62" rerouteNo="1" devices="tripinfo_h3864c1:3 routing_h3864c1:3 emissions_h3864c1:3" vType="default_016" speedFactor="1.02" vaporized="">
        <emissions CO_abs="5400.877042" CO2_abs="383259.113033" HC_abs="33.479810" PMx_abs="6.385406" NOx_abs="153.581624" fuel_abs="164.746917" electricity_abs="0"/>
    </tripinfo>
    <tripinfo id="carIn126288:1" depart="57674.00" departLane="272042143_1" departPos="5.10" departSpeed="0.00" departDelay="0.00" arrival="57824.00" arrivalLane="-315358254#1_1" arrivalPos="137.16" arrivalSpeed="10.78" duration="150.00" routeLength="1596.88" waitingTime="0.00" waitingCount="0" stopTime="0.00" timeLoss="14.44" rerouteNo="1" devices="tripinfo_carIn126288:1 routing_carIn126288:1 emissions_carIn126288:1" vType="default_016" speedFactor="0.86" vaporized="">
        <emissions CO_abs="4083.038097" CO2_abs="319826.823280" HC_abs="25.969046" PMx_abs="4.737602" NOx_abs="124.445440" fuel_abs="137.480594" electricity_abs="0"/>
    </tripinfo>
    <tripinfo id="carIn27009:1" depart="57673.00" departLane="-447569998#1_1" departPos="5.10" departSpeed="0.00" departDelay="0.50" arrival="57825.00" arrivalLane="-26677539_1" arrivalPos="152.75" arrivalSpeed="4.87" duration="152.00" routeLength="699.63" waitingTime="11.00" waitingCount="1" stopTime="0.00" timeLoss="31.36" rerouteNo="1" devices="tripinfo_carIn27009:1 routing_carIn27009:1 emissions_carIn27009:1" vType="default_015" speedFactor="0.70" vaporized="">
        <emissions CO_abs="7769.646914" CO2_abs="240928.988200" HC_abs="40.875100" PMx_abs="4.180736" NOx_abs="100.052886" fuel_abs="103.568448" electricity_abs="0"/>
    </tripinfo>
    <tripinfo id="carIn50326:1" depart="57651.00" departLane="128361102#0_1" departPos="5.10" departSpeed="0.00" departDelay="0.30" arrival="57828.00" arrivalLane="18809673#0_1" arrivalPos="473.56" arrivalSpeed="11.52" duration="177.00" routeLength="1591.07" waitingTime="5.00" waitingCount="1" stopTime="0.00" timeLoss="27.93" rerouteNo="1" devices="tripinfo_carIn50326:1 routing_carIn50326:1 emissions_carIn50326:1" vType="default_016" speedFactor="0.87" vaporized="">
        <emissions CO_abs="5834.416104" CO2_abs="351177.373766" HC_abs="34.654526" PMx_abs="5.400800" NOx_abs="138.560844" fuel_abs="150.957712" electricity_abs="0"/>
    </tripinfo>
    <tripinfo id="carIn81860:1" depart="57712.00" departLane="128361102#0_1" departPos="5.10" departSpeed="0.00" departDelay="0.60" arrival="57830.00" arrivalLane="-24634517#17_1" arrivalPos="6.43" arrivalSpeed="7.76" duration="118.00" routeLength="1229.64" waitingTime="13.00" waitingCount="2" stopTime="0.00" timeLoss="33.37" rerouteNo="1" devices="tripinfo_carIn81860:1 routing_carIn81860:1 emissions_carIn81860:1" vType="default_016" speedFactor="1.08" vaporized="">
        <emissions CO_abs="4918.624164" CO2_abs="305570.275840" HC_abs="29.506998" PMx_abs="5.376873" NOx_abs="123.684789" fuel_abs="131.351912" electricity_abs="0"/>
    </tripinfo>
    <tripinfo id="randUni15030:1" depart="57735.00" departLane="386687232#0_1" departPos="5.10" departSpeed="0.00" departDelay="0.10" arrival="57831.00" arrivalLane="26677539_1" arrivalPos="151.98" arrivalSpeed="7.34" duration="96.00" routeLength="919.89" waitingTime="0.00" waitingCount="0" stopTime="0.00" timeLoss="10.96" rerouteNo="1" devices="tripinfo_randUni15030:1 routing_randUni15030:1 emissions_randUni15030:1" vType="random_016" speedFactor="0.99" vaporized="">
        <emissions CO_abs="3392.941995" CO2_abs="212770.404402" HC_abs="20.341437" PMx_abs="3.288840" NOx_abs="83.969911" fuel_abs="91.461713" electricity_abs="0"/>
    </tripinfo>
    <tripinfo id="carIn118591:1" depart="57689.00" departLane="315358244_1" departPos="5.10" departSpeed="0.00" departDelay="0.20" arrival="57832.00" arrivalLane="386687235_1" arrivalPos="80.84" arrivalSpeed="13.06" duration="143.00" routeLength="1186.14" waitingTime="22.00" waitingCount="3" stopTime="0.00" timeLoss="51.69" rerouteNo="1" devices="tripinfo_carIn118591:1 routing_carIn118591:1 emissions_carIn118591:1" vType="default_016" speedFactor="0.95" vaporized="">
        <emissions CO_abs="6803.446007" CO2_abs="357389.077049" HC_abs="39.324945" PMx_abs="6.261838" NOx_abs="145.751812" fuel_abs="153.627477" electricity_abs="0"/>
    </tripinfo>
    <tripinfo id="h645c1:1" depart="57622.00" departLane="266565295#5_1" departPos="5.10" departSpeed="0.00" departDelay="0.40" arrival="57834.00" arrivalLane="-315358244_1" arrivalPos="33.95" arrivalSpeed="12.93" duration="212.00" routeLength="1910.83" waitingTime="34.00" waitingCount="3" stopTime="0.00" timeLoss="63.00" rerouteNo="1" devices="tripinfo_h645c1:1 routing_h645c1:1 emissions_h645c1:1" vType="default_016" speedFactor="0.93" vaporized="">
        <emissions CO_abs="8740.258574" CO2_abs="470152.278989" HC_abs="50.772845" PMx_abs="8.063604" NOx_abs="189.939657" fuel_abs="202.100092" electricity_abs="0"/>
    </tripinfo>
    <tripinfo id="h16072c2:3" depart="57663.00" departLane="315358254#0_1" departPos="5.10" departSpeed="0.00" departDelay="2.50" arrival="57834.00" arrivalLane="386687235_1" arrivalPos="80.84" arrivalSpeed="12.19" duration="171.00" routeLength="1611.92" waitingTime="21.00" waitingCount="3" stopTime="0.00" timeLoss="47.14" rerouteNo="1" devices="tripinfo_h16072c2:3 routing_h16072c2:3 emissions_h16072c2:3" vType="default_016" speedFactor="0.95" vaporized="">
        <emissions CO_abs="6270.949735" CO2_abs="371479.399828" HC_abs="37.198288" PMx_abs="6.157951" NOx_abs="148.610606" fuel_abs="159.684267" electricity_abs="0"/>
    </tripinfo>
    <tripinfo id="carIn73855:1" depart="57743.00" departLane="386687232#0_1" departPos="5.10" departSpeed="0.00" departDelay="0.50" arrival="57835.00" arrivalLane="-315358244_1" arrivalPos="33.95" arrivalSpeed="13.60" duration="92.00" routeLength="1157.39" waitingTime="0.00" waitingCount="0" stopTime="0.00" timeLoss="10.91" rerouteNo="1" devices="tripinfo_carIn73855:1 routing_carIn73855:1 emissions_carIn73855:1" vType="default_016" speedFactor="1.04" vaporized="">
        <emissions CO_abs="2720.259647" CO2_abs="237335.271972" HC_abs="17.868036" PMx_abs="3.818547" NOx_abs="93.256584" fuel_abs="102.020185" electricity_abs="0"/>
    </tripinfo>
    <tripinfo id="carIn48184:1" depart="57613.00" departLane="-306240162#1_0" departPos="5.10" departSpeed="0.00" departDelay="0.70" arrival="57836.00" arrivalLane="386687235_1" arrivalPos="80.84" arrivalSpeed="12.52" duration="223.00" routeLength="2257.41" waitingTime="32.00" waitingCount="4" stopTime="0.00" timeLoss="69.91" rerouteNo="1" devices="tripinfo_carIn48184:1 routing_carIn48184:1 emissions_carIn48184:1" vType="default_016" speedFactor="0.97" vaporized="">
        <emissions CO_abs="10690.867566" CO2_abs="613737.599387" HC_abs="63.063418" PMx_abs="11.078761" NOx_abs="249.932190" fuel_abs="263.820498" electricity_abs="0"/>
    </tripinfo>
    <tripinfo id="carIn107282:1" depart="57749.00" departLane="-447569998#1_1" departPos="5.10" departSpeed="0.00" departDelay="0.00" arrival="57836.00" arrivalLane="315358242#0_1" arrivalPos="165.37" arrivalSpeed="13.35" duration="87.00" routeLength="448.50" waitingTime="36.00" waitingCount="1" stopTime="0.00" timeLoss="44.75" rerouteNo="1" devices="tripinfo_carIn107282:1 routing_carIn107282:1 emissions_carIn107282:1" vType="default_016" speedFactor="0.99" vaporized="">
        <emissions CO_abs="7259.870154" CO2_abs="198788.969034" HC_abs="37.677875" PMx_abs="3.970155" NOx_abs="84.556015" fuel_abs="85.453736" electricity_abs="0"/>
    </tripinfo>
    <tripinfo id="carIn126378:1" depart="57746.00" departLane="386687232#0_1" departPos="5.10" departSpeed="0.00" departDelay="1.80" arrival="57837.00" arrivalLane="-315358244_1" arrivalPos="33.95" arrivalSpeed="13.46" duration="91.00" routeLength="1157.39" waitingTime="0.00" waitingCount="0" stopTime="0.00" timeLoss="10.30" rerouteNo="1" devices="tripinfo_carIn126378:1 routing_carIn126378:1 emissions_carIn126378:1" vType="default_016" speedFactor="1.05" vaporized="">
        <emissions CO_abs="2705.908115" CO2_abs="229470.103846" HC_abs="17.659101" PMx_abs="3.799705" NOx_abs="90.874165" fuel_abs="98.639192" electricity_abs="0"/>
    </tripinfo>