<?xml version="1.0" encoding="UTF-8"?>

<!-- generated on 2021-10-26 20:17:55 by Eclipse SUMO sumo Version 1.10.0
<configuration xmlns:xsi="http://www.w3.org/2001/XMLSchema-instance" xsi:noNamespaceSchemaLocation="http://sumo.dlr.de/xsd/sumoConfiguration.xsd">

    <input>
        <net-file value="/Users/behradkoohy/sumo-scratchpad/RESCO/environments/ingolstadt21/ingolstadt21.net.xml"/>
        <route-files value="/Users/behradkoohy/sumo-scratchpad/RESCO/environments/ingolstadt21/ingolstadt21.rou.xml"/>
    </input>

    <output>
        <tripinfo-output value="/Users/behradkoohy/sumo-scratchpad/RESCO/logs/MPLight-tr0-ingolstadt21-21-mplight-pressure/tripinfo_82.xml"/>
        <tripinfo-output.write-unfinished value="true"/>
    </output>

    <time>
        <begin value="57600"/>
        <end value="61200"/>
    </time>

    <processing>
        <time-to-teleport value="-1"/>
    </processing>

    <report>
        <no-warnings value="true"/>
        <no-step-log value="true"/>
    </report>

    <emissions>
        <device.emissions.probability value="1"/>
    </emissions>

    <traci_server>
        <remote-port value="64185"/>
    </traci_server>

    <random_number>
        <random value="true"/>
    </random_number>

</configuration>
-->

<tripinfos xmlns:xsi="http://www.w3.org/2001/XMLSchema-instance" xsi:noNamespaceSchemaLocation="http://sumo.dlr.de/xsd/tripinfo_file.xsd">
    <tripinfo id="h15454c2:3" depart="57612.00" departLane="24608844_1" departPos="5.10" departSpeed="0.00" departDelay="0.50" arrival="57651.00" arrivalLane="32978638#0_1" arrivalPos="49.29" arrivalSpeed="13.74" duration="39.00" routeLength="354.79" waitingTime="0.00" waitingCount="0" stopTime="0.00" timeLoss="5.31" rerouteNo="1" devices="tripinfo_h15454c2:3 routing_h15454c2:3 emissions_h15454c2:3" vType="default_016" speedFactor="1.02" vaporized="">
        <emissions CO_abs="1880.295339" CO2_abs="107381.126903" HC_abs="11.075113" PMx_abs="1.892074" NOx_abs="44.138591" fuel_abs="46.158729" electricity_abs="0"/>
    </tripinfo>
    <tripinfo id="carIn60260:1" depart="57606.00" departLane="315358254#0_1" departPos="5.10" departSpeed="0.00" departDelay="0.90" arrival="57683.00" arrivalLane="399835085#1_1" arrivalPos="212.23" arrivalSpeed="5.46" duration="77.00" routeLength="430.98" waitingTime="9.00" waitingCount="1" stopTime="0.00" timeLoss="19.92" rerouteNo="1" devices="tripinfo_carIn60260:1 routing_carIn60260:1 emissions_carIn60260:1" vType="default_016" speedFactor="0.80" vaporized="">
        <emissions CO_abs="3546.813531" CO2_abs="130052.612298" HC_abs="19.146241" PMx_abs="2.282701" NOx_abs="53.892003" fuel_abs="55.905316" electricity_abs="0"/>
    </tripinfo>
    <tripinfo id="carIn53971:1" depart="57640.00" departLane="272042143_1" departPos="5.10" departSpeed="0.00" departDelay="0.80" arrival="57692.00" arrivalLane="24634414#1_1" arrivalPos="162.19" arrivalSpeed="7.76" duration="52.00" routeLength="493.04" waitingTime="0.00" waitingCount="0" stopTime="0.00" timeLoss="7.60" rerouteNo="1" devices="tripinfo_carIn53971:1 routing_carIn53971:1 emissions_carIn53971:1" vType="default_016" speedFactor="1.03" vaporized="">
        <emissions CO_abs="2394.315241" CO2_abs="136481.298190" HC_abs="14.112132" PMx_abs="2.486717" NOx_abs="56.649464" fuel_abs="58.667572" electricity_abs="0"/>
    </tripinfo>
    <tripinfo id="carIn22761:1" depart="57616.00" departLane="-306240162#1_0" departPos="5.10" departSpeed="0.00" departDelay="2.10" arrival="57713.00" arrivalLane="399835085#1_1" arrivalPos="212.23" arrivalSpeed="7.36" duration="97.00" routeLength="1093.26" waitingTime="6.00" waitingCount="1" stopTime="0.00" timeLoss="20.83" rerouteNo="1" devices="tripinfo_carIn22761:1 routing_carIn22761:1 emissions_carIn22761:1" vType="default_016" speedFactor="1.02" vaporized="">
        <emissions CO_abs="5040.494099" CO2_abs="288106.984556" HC_abs="29.808201" PMx_abs="5.555301" NOx_abs="119.244695" fuel_abs="123.844839" electricity_abs="0"/>
    </tripinfo>
    <tripinfo id="h12244c1:3" depart="57612.00" departLane="315358244_1" departPos="5.10" departSpeed="0.00" departDelay="0.40" arrival="57717.00" arrivalLane="386687235_1" arrivalPos="80.84" arrivalSpeed="12.88" duration="105.00" routeLength="1186.14" waitingTime="6.00" waitingCount="1" stopTime="0.00" timeLoss="19.29" rerouteNo="1" devices="tripinfo_h12244c1:3 routing_h12244c1:3 emissions_h12244c1:3" vType="default_016" speedFactor="1.01" vaporized="">
        <emissions CO_abs="3473.947973" CO2_abs="253139.241926" HC_abs="21.681430" PMx_abs="4.073786" NOx_abs="99.603087" fuel_abs="108.814111" electricity_abs="0"/>
    </tripinfo>
    <tripinfo id="h3688c1:1" depart="57625.00" departLane="201201950#1_1" departPos="5.10" departSpeed="0.00" departDelay="0.00" arrival="57720.00" arrivalLane="32978638#0_1" arrivalPos="49.29" arrivalSpeed="14.57" duration="95.00" routeLength="1089.75" waitingTime="5.00" waitingCount="1" stopTime="0.00" timeLoss="19.80" rerouteNo="1" devices="tripinfo_h3688c1:1 routing_h3688c1:1 emissions_h3688c1:1" vType="default_016" speedFactor="1.06" vaporized="">
        <emissions CO_abs="3677.278166" CO2_abs="266282.261419" HC_abs="22.951922" PMx_abs="4.712042" NOx_abs="107.967195" fuel_abs="114.463068" electricity_abs="0"/>
    </tripinfo>
    <tripinfo id="h3568c1:3" depart="57656.00" departLane="266565295#5_1" departPos="5.10" departSpeed="0.00" departDelay="0.80" arrival="57723.00" arrivalLane="-24634415_1" arrivalPos="62.03" arrivalSpeed="16.08" duration="67.00" routeLength="807.40" waitingTime="0.00" waitingCount="0" stopTime="0.00" timeLoss="12.99" rerouteNo="1" devices="tripinfo_h3568c1:3 routing_h3568c1:3 emissions_h3568c1:3" vType="default_016" speedFactor="1.20" vaporized="">
        <emissions CO_abs="3721.002561" CO2_abs="241706.329142" HC_abs="22.635056" PMx_abs="4.543468" NOx_abs="99.965209" fuel_abs="103.898852" electricity_abs="0"/>
    </tripinfo>
    <tripinfo id="h7800c1:5" depart="57696.00" departLane="-447569998#1_1" departPos="5.10" departSpeed="0.00" departDelay="0.00" arrival="57725.00" arrivalLane="-447569998#1_2" arrivalPos="180.76" arrivalSpeed="4.88" duration="29.00" routeLength="175.66" waitingTime="0.00" waitingCount="0" stopTime="0.00" timeLoss="5.99" rerouteNo="1" devices="tripinfo_h7800c1:5 routing_h7800c1:5 emissions_h7800c1:5" vType="default_016" speedFactor="0.94" vaporized="">
        <emissions CO_abs="1377.927514" CO2_abs="55883.786024" HC_abs="7.565537" PMx_abs="0.982825" NOx_abs="23.237115" fuel_abs="24.022456" electricity_abs="0"/>
    </tripinfo>
    <tripinfo id="S5R_frequency1.2" depart="57615.00" departLane="315358250#0_1" departPos="12.10" departSpeed="0.00" departDelay="3.40" arrival="57727.00" arrivalLane="386687235_1" arrivalPos="80.84" arrivalSpeed="13.47" duration="112.00" routeLength="1115.62" waitingTime="6.00" waitingCount="1" stopTime="0.00" timeLoss="30.92" rerouteNo="1" devices="tripinfo_S5R_frequency1.2 routing_S5R_frequency1.2 emissions_S5R_frequency1.2" vType="bus" speedFactor="1.00" vaporized="">
        <emissions CO_abs="2115.791242" CO2_abs="1297768.546938" HC_abs="437.189610" PMx_abs="225.503741" NOx_abs="10158.528710" fuel_abs="553.463338" electricity_abs="0"/>
    </tripinfo>
    <tripinfo id="carIn121703:1" depart="57647.00" departLane="386687232#0_1" departPos="5.10" departSpeed="0.00" departDelay="0.30" arrival="57738.00" arrivalLane="-315358244_1" arrivalPos="33.95" arrivalSpeed="13.31" duration="91.00" routeLength="1157.39" waitingTime="0.00" waitingCount="0" stopTime="0.00" timeLoss="8.52" rerouteNo="1" devices="tripinfo_carIn121703:1 routing_carIn121703:1 emissions_carIn121703:1" vType="default_016" speedFactor="1.02" vaporized="">
        <emissions CO_abs="2514.944611" CO2_abs="225381.507548" HC_abs="16.726083" PMx_abs="3.591889" NOx_abs="88.286768" fuel_abs="96.881791" electricity_abs="0"/>
    </tripinfo>
    <tripinfo id="h4538c1:1" depart="57701.00" departLane="-10427692#1_1" departPos="5.10" departSpeed="0.00" departDelay="0.00" arrival="57742.00" arrivalLane="-128361102#1_1" arrivalPos="274.68" arrivalSpeed="12.40" duration="41.00" routeLength="440.74" waitingTime="0.00" waitingCount="0" stopTime="0.00" timeLoss="6.19" rerouteNo="1" devices="tripinfo_h4538c1:1 routing_h4538c1:1 emissions_h4538c1:1" vType="default_016" speedFactor="0.93" vaporized="">
        <emissions CO_abs="1611.701397" CO2_abs="114668.446394" HC_abs="10.012197" PMx_abs="1.867654" NOx_abs="45.687464" fuel_abs="49.291190" electricity_abs="0"/>
    </tripinfo>
    <tripinfo id="h7181c1:1" depart="57660.00" departLane="315358254#0_1" departPos="5.10" departSpeed="0.00" departDelay="0.10" arrival="57752.00" arrivalLane="306240162#0_0" arrivalPos="220.43" arrivalSpeed="14.87" duration="92.00" routeLength="932.35" waitingTime="17.00" waitingCount="2" stopTime="0.00" timeLoss="34.57" rerouteNo="1" devices="tripinfo_h7181c1:1 routing_h7181c1:1 emissions_h7181c1:1" vType="default_016" speedFactor="0.89" vaporized="">
        <emissions CO_abs="5190.626360" CO2_abs="285268.086713" HC_abs="30.310329" PMx_abs="5.367351" NOx_abs="116.878528" fuel_abs="122.624911" electricity_abs="0"/>
    </tripinfo>
    <tripinfo id="h3326c1:2" depart="57656.00" departLane="22716069#0_1" departPos="5.10" departSpeed="0.00" departDelay="0.00" arrival="57753.00" arrivalLane="24634517#13_1" arrivalPos="111.62" arrivalSpeed="16.22" duration="97.00" routeLength="1312.81" waitingTime="0.00" waitingCount="0" stopTime="0.00" timeLoss="14.45" rerouteNo="1" devices="tripinfo_h3326c1:2 routing_h3326c1:2 emissions_h3326c1:2" vType="default_016" speedFactor="1.18" vaporized="">
        <emissions CO_abs="4059.959663" CO2_abs="330058.376747" HC_abs="26.082286" PMx_abs="5.837765" NOx_abs="132.638323" fuel_abs="141.877299" electricity_abs="0"/>
    </tripinfo>
    <tripinfo id="h317c2:1" depart="57707.00" departLane="-32978638#0_1" departPos="5.10" departSpeed="0.00" departDelay="0.10" arrival="57753.00" arrivalLane="-266565295#5_1" arrivalPos="172.76" arrivalSpeed="16.67" duration="46.00" routeLength="370.53" waitingTime="12.00" waitingCount="1" stopTime="0.00" timeLoss="22.98" rerouteNo="1" devices="tripinfo_h317c2:1 routing_h317c2:1 emissions_h317c2:1" vType="default_016" speedFactor="1.21" vaporized="">
        <emissions CO_abs="3680.823281" CO2_abs="163484.513840" HC_abs="20.610721" PMx_abs="3.293799" NOx_abs="69.259885" fuel_abs="70.275392" electricity_abs="0"/>
    </tripinfo>
    <tripinfo id="carIn30817:1" depart="57681.00" departLane="315358244_1" departPos="5.10" departSpeed="0.00" departDelay="0.20" arrival="57767.00" arrivalLane="447569997#1_1" arrivalPos="180.93" arrivalSpeed="6.56" duration="86.00" routeLength="718.04" waitingTime="0.00" waitingCount="0" stopTime="0.00" timeLoss="8.07" rerouteNo="1" devices="tripinfo_carIn30817:1 routing_carIn30817:1 emissions_carIn30817:1" vType="default_016" speedFactor="0.79" vaporized="">
        <emissions CO_abs="2805.203266" CO2_abs="149806.656784" HC_abs="16.204474" PMx_abs="2.290601" NOx_abs="59.470696" fuel_abs="64.396392" electricity_abs="0"/>
    </tripinfo>
    <tripinfo id="h5979c1:5" depart="57669.00" departLane="399835085#1_1" departPos="5.10" departSpeed="0.00" departDelay="0.00" arrival="57784.00" arrivalLane="-315358254#1_1" arrivalPos="137.16" arrivalSpeed="9.42" duration="115.00" routeLength="659.33" waitingTime="0.00" waitingCount="0" stopTime="0.00" timeLoss="15.46" rerouteNo="1" devices="tripinfo_h5979c1:5 routing_h5979c1:5 emissions_h5979c1:5" vType="default_016" speedFactor="0.74" vaporized="">
        <emissions CO_abs="5245.318392" CO2_abs="189979.489529" HC_abs="28.197046" PMx_abs="3.034197" NOx_abs="77.040377" fuel_abs="81.666386" electricity_abs="0"/>
    </tripinfo>
    <tripinfo id="h3154c1:1" depart="57658.00" departLane="24634507_1" departPos="5.10" departSpeed="0.00" departDelay="0.00" arrival="57786.00" arrivalLane="-266565295#5_1" arrivalPos="172.76" arrivalSpeed="13.67" duration="128.00" routeLength="1206.22" waitingTime="19.00" waitingCount="2" stopTime="0.00" timeLoss="39.51" rerouteNo="1" devices="tripinfo_h3154c1:1 routing_h3154c1:1 emissions_h3154c1:1" vType="default_016" speedFactor="1.01" vaporized="">
        <emissions CO_abs="6222.286440" CO2_abs="329166.455883" HC_abs="36.064392" PMx_abs="6.037866" NOx_abs="135.656969" fuel_abs="141.495266" electricity_abs="0"/>
    </tripinfo>
    <tripinfo id="carIn12365:1" depart="57713.00" departLane="315358244_1" departPos="5.10" departSpeed="0.00" departDelay="0.50" arrival="57789.00" arrivalLane="447569997#1_1" arrivalPos="180.93" arrivalSpeed="7.61" duration="76.00" routeLength="718.04" waitingTime="1.00" waitingCount="1" stopTime="0.00" timeLoss="11.27" rerouteNo="1" devices="tripinfo_carIn12365:1 routing_carIn12365:1 emissions_carIn12365:1" vType="default_016" speedFactor="0.96" vaporized="">
        <emissions CO_abs="2709.472724" CO2_abs="168185.246567" HC_abs="16.221692" PMx_abs="2.620313" NOx_abs="66.462148" fuel_abs="72.296288" electricity_abs="0"/>
    </tripinfo>
    <tripinfo id="carIn107282:1" depart="57749.00" departLane="-447569998#1_1" departPos="5.10" departSpeed="0.00" departDelay="0.00" arrival="57792.00" arrivalLane="315358242#0_1" arrivalPos="165.37" arrivalSpeed="14.90" duration="43.00" routeLength="448.50" waitingTime="0.00" waitingCount="0" stopTime="0.00" timeLoss="4.83" rerouteNo="1" devices="tripinfo_carIn107282:1 routing_carIn107282:1 emissions_carIn107282:1" vType="default_016" speedFactor="1.11" vaporized="">
        <emissions CO_abs="1833.311802" CO2_abs="112854.933223" HC_abs="10.987218" PMx_abs="1.928941" NOx_abs="45.668701" fuel_abs="48.511697" electricity_abs="0"/>
    </tripinfo>
    <tripinfo id="h330c1:1" depart="57736.00" departLane="-32978638#0_1" departPos="5.10" departSpeed="0.00" departDelay="0.20" arrival="57795.00" arrivalLane="-266565295#5_1" arrivalPos="172.76" arrivalSpeed="12.46" duration="59.00" routeLength="370.53" waitingTime="23.00" waitingCount="1" stopTime="0.00" timeLoss="31.06" rerouteNo="1" devices="tripinfo_h330c1:1 routing_h330c1:1 emissions_h330c1:1" vType="default_016" speedFactor="0.98" vaporized="">
        <emissions CO_abs="4750.564872" CO2_abs="158955.244809" HC_abs="25.375060" PMx_abs="3.217462" NOx_abs="67.837184" fuel_abs="68.329387" electricity_abs="0"/>
    </tripinfo>
    <tripinfo id="h11737c1:1" depart="57665.00" departLane="272042143_1" departPos="5.10" departSpeed="0.00" departDelay="1.50" arrival="57796.00" arrivalLane="-315358254#1_1" arrivalPos="137.16" arrivalSpeed="14.38" duration="131.00" routeLength="1596.88" waitingTime="9.00" waitingCount="1" stopTime="0.00" timeLoss="25.98" rerouteNo="1" devices="tripinfo_h11737c1:1 routing_h11737c1:1 emissions_h11737c1:1" vType="default_016" speedFactor="1.11" vaporized="">
        <emissions CO_abs="4841.469415" CO2_abs="358964.123961" HC_abs="30.453402" PMx_abs="6.191885" NOx_abs="143.547235" fuel_abs="154.303194" electricity_abs="0"/>
    </tripinfo>
    <tripinfo id="carIn107084:1" depart="57601.00" departLane="124812856#0_1" departPos="5.10" departSpeed="0.00" departDelay="0.70" arrival="57798.00" arrivalLane="-128361102#1_1" arrivalPos="274.68" arrivalSpeed="13.22" duration="197.00" routeLength="2250.49" waitingTime="2.00" waitingCount="1" stopTime="0.00" timeLoss="24.44" rerouteNo="1" devices="tripinfo_carIn107084:1 routing_carIn107084:1 emissions_carIn107084:1" vType="default_016" speedFactor="0.95" vaporized="">
        <emissions CO_abs="5689.509850" CO2_abs="462238.689327" HC_abs="36.638100" PMx_abs="7.312276" NOx_abs="181.888398" fuel_abs="198.696888" electricity_abs="0"/>
    </tripinfo>
    <tripinfo id="h9563c2:5" depart="57631.00" departLane="315358244_1" departPos="5.10" departSpeed="0.00" departDelay="0.70" arrival="57798.00" arrivalLane="386687235_1" arrivalPos="80.84" arrivalSpeed="12.59" duration="167.00" routeLength="1186.14" waitingTime="59.00" waitingCount="1" stopTime="0.00" timeLoss="72.75" rerouteNo="1" devices="tripinfo_h9563c2:5 routing_h9563c2:5 emissions_h9563c2:5" vType="default_016" speedFactor="0.92" vaporized="">
        <emissions CO_abs="11883.194188" CO2_abs="374156.113933" HC_abs="62.844481" PMx_abs="7.224464" NOx_abs="156.640396" fuel_abs="160.838047" electricity_abs="0"/>
    </tripinfo>
    <tripinfo id="carIn77943:1" depart="57608.00" departLane="124812856#0_1" departPos="5.10" departSpeed="0.00" departDelay="2.50" arrival="57800.00" arrivalLane="-128361102#1_1" arrivalPos="274.68" arrivalSpeed="16.70" duration="192.00" routeLength="2232.46" waitingTime="1.00" waitingCount="1" stopTime="0.00" timeLoss="56.19" rerouteNo="1" devices="tripinfo_carIn77943:1 routing_carIn77943:1 emissions_carIn77943:1" vType="default_016" speedFactor="1.21" vaporized="">
        <emissions CO_abs="8501.519533" CO2_abs="604594.931844" HC_abs="53.048718" PMx_abs="11.070026" NOx_abs="248.388003" fuel_abs="259.888362" electricity_abs="0"/>
    </tripinfo>
    <tripinfo id="carIn118591:1" depart="57689.00" departLane="315358244_1" departPos="5.10" departSpeed="0.00" departDelay="0.20" arrival="57800.00" arrivalLane="386687235_1" arrivalPos="80.84" arrivalSpeed="13.21" duration="111.00" routeLength="1186.14" waitingTime="6.00" waitingCount="1" stopTime="0.00" timeLoss="21.39" rerouteNo="1" devices="tripinfo_carIn118591:1 routing_carIn118591:1 emissions_carIn118591:1" vType="default_016" speedFactor="0.97" vaporized="">
        <emissions CO_abs="3423.970525" CO2_abs="267034.626711" HC_abs="21.776429" PMx_abs="4.150666" NOx_abs="104.427787" fuel_abs="114.787155" electricity_abs="0"/>
    </tripinfo>
    <tripinfo id="carIn81046:1" depart="57611.00" departLane="124812856#0_1" departPos="5.10" departSpeed="0.00" departDelay="2.50" arrival="57801.00" arrivalLane="-128361102#1_1" arrivalPos="274.68" arrivalSpeed="13.87" duration="190.00" routeLength="2250.49" waitingTime="0.00" waitingCount="0" stopTime="0.00" timeLoss="31.94" rerouteNo="1" devices="tripinfo_carIn81046:1 routing_carIn81046:1 emissions_carIn81046:1" vType="default_016" speedFactor="1.04" vaporized="">
        <emissions CO_abs="6977.680332" CO2_abs="539343.013393" HC_abs="44.364446" PMx_abs="9.150626" NOx_abs="216.465385" fuel_abs="231.840094" electricity_abs="0"/>
    </tripinfo>
    <tripinfo id="carIn27009:1" depart="57673.00" departLane="-447569998#1_1" departPos="5.10" departSpeed="0.00" departDelay="0.50" arrival="57802.00" arrivalLane="-26677539_1" arrivalPos="152.75" arrivalSpeed="6.26" duration="129.00" routeLength="699.63" waitingTime="20.00" waitingCount="1" stopTime="0.00" timeLoss="35.20" rerouteNo="1" devices="tripinfo_carIn27009:1 routing_carIn27009:1 emissions_carIn27009:1" vType="default_015" speedFactor="0.90" vaporized="">
        <emissions CO_abs="7084.213559" CO2_abs="230278.520236" HC_abs="37.528275" PMx_abs="3.998326" NOx_abs="95.226772" fuel_abs="98.989865" electricity_abs="0"/>
    </tripinfo>
    <tripinfo id="carIn48184:1" depart="57613.00" departLane="-306240162#1_0" departPos="5.10" departSpeed="0.00" departDelay="0.70" arrival="57813.00" arrivalLane="386687235_2" arrivalPos="80.84" arrivalSpeed="14.93" duration="200.00" routeLength="2257.41" waitingTime="35.00" waitingCount="3" stopTime="0.00" timeLoss="66.51" rerouteNo="1" devices="tripinfo_carIn48184:1 routing_carIn48184:1 emissions_carIn48184:1" vType="default_016" speedFactor="1.11" vaporized="">
        <emissions CO_abs="11565.720167" CO2_abs="621443.532573" HC_abs="67.316366" PMx_abs="11.975668" NOx_abs="255.941146" fuel_abs="267.132635" electricity_abs="0"/>
    </tripinfo>
    <tripinfo id="carIn129809:1" depart="57729.00" departLane="-447569998#1_1" departPos="5.10" departSpeed="0.00" departDelay="1.00" arrival="57813.00" arrivalLane="-315358244_2" arrivalPos="33.95" arrivalSpeed="13.58" duration="84.00" routeLength="706.49" waitingTime="6.00" waitingCount="1" stopTime="0.00" timeLoss="26.44" rerouteNo="1" devices="tripinfo_carIn129809:1 routing_carIn129809:1 emissions_carIn129809:1" vType="default_015" speedFactor="1.06" vaporized="">
        <emissions CO_abs="3537.633796" CO2_abs="202856.066138" HC_abs="20.846551" PMx_abs="3.595027" NOx_abs="83.271184" fuel_abs="87.199456" electricity_abs="0"/>
    </tripinfo>
    <tripinfo id="h16072c2:3" depart="57663.00" departLane="315358254#0_1" departPos="5.10" departSpeed="0.00" departDelay="2.50" arrival="57814.00" arrivalLane="386687235_1" arrivalPos="80.84" arrivalSpeed="13.46" duration="151.00" routeLength="1611.92" waitingTime="13.00" waitingCount="2" stopTime="0.00" timeLoss="36.29" rerouteNo="1" devices="tripinfo_h16072c2:3 routing_h16072c2:3 emissions_h16072c2:3" vType="default_016" speedFactor="1.03" vaporized="">
        <emissions CO_abs="5567.547807" CO2_abs="365475.631788" HC_abs="33.857498" PMx_abs="6.283082" NOx_abs="147.023834" fuel_abs="157.102680" electricity_abs="0"/>
    </tripinfo>
    <tripinfo id="h645c1:1" depart="57622.00" departLane="266565295#5_1" departPos="5.10" departSpeed="0.00" departDelay="0.40" arrival="57815.00" arrivalLane="-315358244_1" arrivalPos="33.95" arrivalSpeed="10.93" duration="193.00" routeLength="1910.83" waitingTime="0.00" waitingCount="0" stopTime="0.00" timeLoss="18.11" rerouteNo="1" devices="tripinfo_h645c1:1 routing_h645c1:1 emissions_h645c1:1" vType="default_016" speedFactor="0.79" vaporized="">
        <emissions CO_abs="5393.300577" CO2_abs="375461.779882" HC_abs="33.204466" PMx_abs="5.646352" NOx_abs="147.439177" fuel_abs="161.396109" electricity_abs="0"/>
    </tripinfo>
    <tripinfo id="carIn50326:1" depart="57651.00" departLane="128361102#0_1" departPos="5.10" departSpeed="0.00" departDelay="0.30" arrival="57822.00" arrivalLane="18809673#0_1" arrivalPos="473.56" arrivalSpeed="13.88" duration="171.00" routeLength="1591.07" waitingTime="17.00" waitingCount="2" stopTime="0.00" timeLoss="43.43" rerouteNo="1" devices="tripinfo_carIn50326:1 routing_carIn50326:1 emissions_carIn50326:1" vType="default_016" speedFactor="1.02" vaporized="">
        <emissions CO_abs="6524.743075" CO2_abs="380245.278470" HC_abs="38.603424" PMx_abs="6.545213" NOx_abs="154.015384" fuel_abs="163.452058" electricity_abs="0"/>
    </tripinfo>
    <tripinfo id="carIn80064:1" depart="57603.00" departLane="128361109#1_1" departPos="5.10" departSpeed="0.00" departDelay="0.40" arrival="57828.00" arrivalLane="-315358254#1_1" arrivalPos="137.16" arrivalSpeed="12.80" duration="225.00" routeLength="1587.97" waitingTime="101.00" waitingCount="3" stopTime="0.00" timeLoss="130.45" rerouteNo="1" devices="tripinfo_carIn80064:1 routing_carIn80064:1 emissions_carIn80064:1" vType="default_016" speedFactor="0.94" vaporized="">
        <emissions CO_abs="20737.595102" CO2_abs="681157.154263" HC_abs="110.618301" PMx_abs="14.472068" NOx_abs="291.857476" fuel_abs="292.805626" electricity_abs="0"/>
    </tripinfo>
    <tripinfo id="carIn8642:1" depart="57774.00" departLane="-447569998#1_1" departPos="5.10" departSpeed="0.00" departDelay="0.90" arrival="57831.00" arrivalLane="-315358244_1" arrivalPos="33.95" arrivalSpeed="15.86" duration="57.00" routeLength="706.49" waitingTime="0.00" waitingCount="0" stopTime="0.00" timeLoss="5.36" rerouteNo="1" devices="tripinfo_carIn8642:1 routing_carIn8642:1 emissions_carIn8642:1" vType="default_016" speedFactor="1.17" vaporized="">
        <emissions CO_abs="1862.635000" CO2_abs="144747.457659" HC_abs="11.720624" PMx_abs="2.356455" NOx_abs="56.898941" fuel_abs="62.220810" electricity_abs="0"/>
    </tripinfo>
    <tripinfo id="carIn86816:1" depart="57617.00" departLane="128361102#0_1" departPos="5.10" departSpeed="0.00" departDelay="0.80" arrival="57832.00" arrivalLane="201956811#0_1" arrivalPos="40.40" arrivalSpeed="10.98" duration="215.00" routeLength="2067.33" waitingTime="9.00" waitingCount="2" stopTime="0.00" timeLoss="34.98" rerouteNo="1" devices="tripinfo_carIn86816:1 routing_carIn86816:1 emissions_carIn86816:1" vType="default_016" speedFactor="0.84" vaporized="">
        <emissions CO_abs="6933.792810" CO2_abs="445527.259945" HC_abs="41.900806" PMx_abs="7.129937" NOx_abs="177.621986" fuel_abs="191.514288" electricity_abs="0"/>
    </tripinfo>
    <tripinfo id="h3864c1:3" depart="57678.00" departLane="24693977#1_1" departPos="5.10" departSpeed="0.00" departDelay="0.00" arrival="57834.00" arrivalLane="201956820_2" arrivalPos="48.33" arrivalSpeed="12.24" duration="156.00" routeLength="1574.85" waitingTime="0.00" waitingCount="0" stopTime="0.00" timeLoss="17.21" rerouteNo="1" devices="tripinfo_h3864c1:3 routing_h3864c1:3 emissions_h3864c1:3" vType="default_016" speedFactor="0.93" vaporized="">
        <emissions CO_abs="5535.071980" CO2_abs="360631.227549" HC_abs="33.586450" PMx_abs="5.869462" NOx_abs="144.317911" fuel_abs="155.020684" electricity_abs="0"/>
    </tripinfo>
    <tripinfo id="carIn462:1" depart="57622.00" departLane="-306240162#1_0" departPos="5.10" departSpeed="0.00" departDelay="4.80" arrival="57835.00" arrivalLane="386687235_2" arrivalPos="80.84" arrivalSpeed="13.08" duration="213.00" routeLength="2257.41" waitingTime="13.00" waitingCount="2" stopTime="0.00" timeLoss="57.96" rerouteNo="1" devices="tripinfo_carIn462:1 routing_carIn462:1 emissions_carIn462:1" vType="default_016" speedFactor="0.96" vaporized="">
        <emissions CO_abs="8211.825106" CO2_abs="541319.565793" HC_abs="49.988127" PMx_abs="9.557344" NOx_abs="219.625046" fuel_abs="232.690181" electricity_abs="0"/>
    </tripinfo>
    <tripinfo id="carIn82220:1" depart="57619.00" departLane="-306240162#1_0" departPos="5.10" departSpeed="0.00" departDelay="3.50" arrival="57836.00" arrivalLane="386687235_1" arrivalPos="80.84" arrivalSpeed="11.28" duration="217.00" routeLength="2257.41" waitingTime="17.00" waitingCount="2" stopTime="0.00" timeLoss="42.76" rerouteNo="1" devices="tripinfo_carIn82220:1 routing_carIn82220:1 emissions_carIn82220:1" vType="default_016" speedFactor="0.85" vaporized="">
        <emissions CO_abs="7180.244298" CO2_abs="482686.900409" HC_abs="43.965756" PMx_abs="7.956918" NOx_abs="192.097731" fuel_abs="207.487279" electricity_abs="0"/>
    </tripinfo>
    <tripinfo id="carIn126288:1" depart="57674.00" departLane="272042143_1" departPos="5.10" departSpeed="0.00" departDelay="0.00" arrival="57839.00" arrivalLane="-315358254#1_1" arrivalPos="137.16" arrivalSpeed="10.62" duration="165.00" routeLength="1596.88" waitingTime="9.00" waitingCount="1" stopTime="0.00" timeLoss="26.59" rerouteNo="1" devices="tripinfo_carIn126288:1 routing_carIn126288:1 emissions_carIn126288:1" vType="default_016" speedFactor="0.84" vaporized="">
        <emissions CO_abs="5671.420893" CO2_abs="347216.426898" HC_abs="33.877444" PMx_abs="5.605331" NOx_abs="138.570970" fuel_abs="149.254579" electricity_abs="0"/>
    </tripinfo>
    <tripinfo id="randUni15030:1" depart="57735.00" departLane="386687232#0_1" departPos="5.10" departSpeed="0.00" departDelay="0.10" arrival="57839.00" arrivalLane="26677539_1" arrivalPos="151.98" arrivalSpeed="7.46" duration="104.00" routeLength="919.89" waitingTime="0.00" waitingCount="0" stopTime="0.00" timeLoss="12.67" rerouteNo="1" devices="tripinfo_randUni15030:1 routing_randUni15030:1 emissions_randUni15030:1" vType="random_016" speedFactor="0.92" vaporized="">
        <emissions CO_abs="3697.406685" CO2_abs="204456.925158" HC_abs="21.558862" PMx_abs="3.300593" NOx_abs="82.130730" fuel_abs="87.888179" electricity_abs="0"/>
    </tripinfo>
    <tripinfo id="carIn77438:1" depart="57614.00" departLane="124812856#0_1" departPos="5.10" departSpeed="0.00" departDelay="1.10" arrival="57841.00" arrivalLane="-128361102#1_1" arrivalPos="274.68" arrivalSpeed="11.47" duration="227.00" routeLength="2250.49" waitingTime="13.00" waitingCount="1" stopTime="0.00" timeLoss="35.66" rerouteNo="1" devices="tripinfo_carIn77438:1 routing_carIn77438:1 emissions_carIn77438:1" vType="default_016" speedFactor="0.86" vaporized="">
        <emissions CO_abs="7190.247238" CO2_abs="456482.827298" HC_abs="43.307777" PMx_abs="7.196850" NOx_abs="180.707329" fuel_abs="196.223947" electricity_abs="0"/>
    </tripinfo>
    <tripinfo id="carIn82278:1" depart="57702.00" departLane="-306240162#1_0" departPos="5.10" departSpeed="0.00" departDelay="0.70" arrival="57842.00" arrivalLane="399835085#1_1" arrivalPos="212.23" arrivalSpeed="6.67" duration="140.00" routeLength="1093.26" waitingTime="40.00" waitingCount="2" stopTime="0.00" timeLoss="71.70" rerouteNo="1" devices="tripinfo_carIn82278:1 routing_carIn82278:1 emissions_carIn82278:1" vType="default_016" speedFactor="1.14" vaporized="">
        <emissions CO_abs="12004.458447" CO2_abs="474852.392978" HC_abs="66.011837" PMx_abs="9.992202" NOx_abs="203.355766" fuel_abs="204.120426" electricity_abs="0"/>
    </tripinfo>
    <tripinfo id="h19804c1:3" depart="57617.00" departLane="124812856#0_1" departPos="5.10" departSpeed="0.00" departDelay="1.50" arrival="57843.00" arrivalLane="-128361102#1_1" arrivalPos="274.68" arrivalSpeed="11.92" duration="226.00" routeLength="2250.49" waitingTime="13.00" waitingCount="1" stopTime="0.00" timeLoss="52.41" rerouteNo="1" devices="tripinfo_h19804c1:3 routing_h19804c1:3 emissions_h19804c1:3" vType="default_016" speedFactor="0.95" vaporized="">
        <emissions CO_abs="8823.073405" CO2_abs="548009.295165" HC_abs="52.994101" PMx_abs="9.384734" NOx_abs="222.106207" fuel_abs="235.566550" electricity_abs="0"/>
    </tripinfo>
    <tripinfo id="carIn107842:1" depart="57623.00" departLane="124812856#0_1" departPos="5.10" departSpeed="0.00" departDelay="1.90" arrival="57844.00" arrivalLane="-128361102#1_1" arrivalPos="274.68" arrivalSpeed="11.86" duration="221.00" routeLength="2250.49" waitingTime="11.00" waitingCount="1" stopTime="0.00" timeLoss="47.39" rerouteNo="1" devices="tripinfo_carIn107842:1 routing_carIn107842:1 emissions_carIn107842:1" vType="default_016" speedFactor="0.94" vaporized="">
        <emissions CO_abs="7992.483565" CO2_abs="549765.696498" HC_abs="49.265130" PMx_abs="9.325260" NOx_abs="222.038300" fuel_abs="236.320978" electricity_abs="0"/>
    </tripinfo>