<?xml version="1.0" encoding="UTF-8"?>

<!-- generated on 2021-10-26 19:59:12 by Eclipse SUMO sumo Version 1.10.0
<configuration xmlns:xsi="http://www.w3.org/2001/XMLSchema-instance" xsi:noNamespaceSchemaLocation="http://sumo.dlr.de/xsd/sumoConfiguration.xsd">

    <input>
        <net-file value="/Users/behradkoohy/sumo-scratchpad/RESCO/environments/ingolstadt21/ingolstadt21.net.xml"/>
        <route-files value="/Users/behradkoohy/sumo-scratchpad/RESCO/environments/ingolstadt21/ingolstadt21.rou.xml"/>
    </input>

    <output>
        <tripinfo-output value="/Users/behradkoohy/sumo-scratchpad/RESCO/logs/MPLight-tr0-ingolstadt21-21-mplight-pressure/tripinfo_58.xml"/>
        <tripinfo-output.write-unfinished value="true"/>
    </output>

    <time>
        <begin value="57600"/>
        <end value="61200"/>
    </time>

    <processing>
        <time-to-teleport value="-1"/>
    </processing>

    <report>
        <no-warnings value="true"/>
        <no-step-log value="true"/>
    </report>

    <emissions>
        <device.emissions.probability value="1"/>
    </emissions>

    <traci_server>
        <remote-port value="64005"/>
    </traci_server>

    <random_number>
        <random value="true"/>
    </random_number>

</configuration>
-->

<tripinfos xmlns:xsi="http://www.w3.org/2001/XMLSchema-instance" xsi:noNamespaceSchemaLocation="http://sumo.dlr.de/xsd/tripinfo_file.xsd">
    <tripinfo id="h15454c2:3" depart="57612.00" departLane="24608844_1" departPos="5.10" departSpeed="0.00" departDelay="0.50" arrival="57650.00" arrivalLane="32978638#0_1" arrivalPos="49.29" arrivalSpeed="13.36" duration="38.00" routeLength="354.79" waitingTime="0.00" waitingCount="0" stopTime="0.00" timeLoss="5.32" rerouteNo="1" devices="tripinfo_h15454c2:3 routing_h15454c2:3 emissions_h15454c2:3" vType="default_016" speedFactor="1.05" vaporized="">
        <emissions CO_abs="1645.085664" CO2_abs="92874.858588" HC_abs="9.644246" PMx_abs="1.530645" NOx_abs="37.448132" fuel_abs="39.923263" electricity_abs="0"/>
    </tripinfo>
    <tripinfo id="carIn60260:1" depart="57606.00" departLane="315358254#0_1" departPos="5.10" departSpeed="0.00" departDelay="0.90" arrival="57663.00" arrivalLane="399835085#1_1" arrivalPos="212.23" arrivalSpeed="7.57" duration="57.00" routeLength="430.98" waitingTime="0.00" waitingCount="0" stopTime="0.00" timeLoss="11.23" rerouteNo="1" devices="tripinfo_carIn60260:1 routing_carIn60260:1 emissions_carIn60260:1" vType="default_016" speedFactor="1.02" vaporized="">
        <emissions CO_abs="2408.295785" CO2_abs="113824.789312" HC_abs="13.601940" PMx_abs="1.949332" NOx_abs="46.732836" fuel_abs="48.929003" electricity_abs="0"/>
    </tripinfo>
    <tripinfo id="carIn53971:1" depart="57640.00" departLane="272042143_1" departPos="5.10" departSpeed="0.00" departDelay="0.80" arrival="57694.00" arrivalLane="24634414#1_1" arrivalPos="162.19" arrivalSpeed="8.19" duration="54.00" routeLength="493.04" waitingTime="0.00" waitingCount="0" stopTime="0.00" timeLoss="7.71" rerouteNo="1" devices="tripinfo_carIn53971:1 routing_carIn53971:1 emissions_carIn53971:1" vType="default_016" speedFactor="0.99" vaporized="">
        <emissions CO_abs="2365.314070" CO2_abs="135724.045608" HC_abs="13.919976" PMx_abs="2.246529" NOx_abs="54.812258" fuel_abs="58.342400" electricity_abs="0"/>
    </tripinfo>
    <tripinfo id="carIn80064:1" depart="57603.00" departLane="128361109#1_1" departPos="5.10" departSpeed="0.00" departDelay="0.40" arrival="57720.00" arrivalLane="-315358254#1_1" arrivalPos="137.16" arrivalSpeed="15.60" duration="117.00" routeLength="1587.97" waitingTime="7.00" waitingCount="1" stopTime="0.00" timeLoss="36.92" rerouteNo="1" devices="tripinfo_carIn80064:1 routing_carIn80064:1 emissions_carIn80064:1" vType="default_016" speedFactor="1.13" vaporized="">
        <emissions CO_abs="7011.400537" CO2_abs="465564.701976" HC_abs="43.158696" PMx_abs="9.365969" NOx_abs="193.796419" fuel_abs="200.124890" electricity_abs="0"/>
    </tripinfo>
    <tripinfo id="h7800c1:5" depart="57696.00" departLane="-447569998#1_1" departPos="5.10" departSpeed="0.00" departDelay="0.00" arrival="57725.00" arrivalLane="-447569998#1_2" arrivalPos="180.76" arrivalSpeed="6.35" duration="29.00" routeLength="175.66" waitingTime="0.00" waitingCount="0" stopTime="0.00" timeLoss="4.40" rerouteNo="1" devices="tripinfo_h7800c1:5 routing_h7800c1:5 emissions_h7800c1:5" vType="default_016" speedFactor="0.86" vaporized="">
        <emissions CO_abs="1568.677259" CO2_abs="58426.784499" HC_abs="8.472336" PMx_abs="0.943821" NOx_abs="23.784026" fuel_abs="25.115835" electricity_abs="0"/>
    </tripinfo>
    <tripinfo id="S5R_frequency1.2" depart="57612.00" departLane="315358250#0_1" departPos="12.10" departSpeed="0.00" departDelay="0.40" arrival="57730.00" arrivalLane="386687235_1" arrivalPos="80.84" arrivalSpeed="13.43" duration="118.00" routeLength="1115.62" waitingTime="13.00" waitingCount="2" stopTime="0.00" timeLoss="36.19" rerouteNo="1" devices="tripinfo_S5R_frequency1.2 routing_S5R_frequency1.2 emissions_S5R_frequency1.2" vType="bus" speedFactor="1.00" vaporized="">
        <emissions CO_abs="2065.155944" CO2_abs="1241809.271794" HC_abs="442.065617" PMx_abs="220.434551" NOx_abs="9772.523895" fuel_abs="529.604114" electricity_abs="0"/>
    </tripinfo>
    <tripinfo id="carIn22761:1" depart="57616.00" departLane="-306240162#1_0" departPos="5.10" departSpeed="0.00" departDelay="2.10" arrival="57733.00" arrivalLane="399835085#1_1" arrivalPos="212.23" arrivalSpeed="7.29" duration="117.00" routeLength="1093.26" waitingTime="19.00" waitingCount="1" stopTime="0.00" timeLoss="41.29" rerouteNo="1" devices="tripinfo_carIn22761:1 routing_carIn22761:1 emissions_carIn22761:1" vType="default_016" speedFactor="1.02" vaporized="">
        <emissions CO_abs="6784.206455" CO2_abs="318539.148465" HC_abs="38.374948" PMx_abs="5.929675" NOx_abs="130.600984" fuel_abs="136.927666" electricity_abs="0"/>
    </tripinfo>
    <tripinfo id="h3688c1:1" depart="57625.00" departLane="201201950#1_1" departPos="5.10" departSpeed="0.00" departDelay="0.00" arrival="57745.00" arrivalLane="32978638#0_1" arrivalPos="49.29" arrivalSpeed="11.73" duration="120.00" routeLength="1089.75" waitingTime="12.00" waitingCount="2" stopTime="0.00" timeLoss="32.77" rerouteNo="1" devices="tripinfo_h3688c1:1 routing_h3688c1:1 emissions_h3688c1:1" vType="default_016" speedFactor="0.91" vaporized="">
        <emissions CO_abs="4179.395082" CO2_abs="265956.420138" HC_abs="25.211615" PMx_abs="4.319403" NOx_abs="106.132666" fuel_abs="114.323961" electricity_abs="0"/>
    </tripinfo>
    <tripinfo id="h7181c1:1" depart="57660.00" departLane="315358254#0_1" departPos="5.10" departSpeed="0.00" departDelay="0.10" arrival="57750.00" arrivalLane="306240162#0_0" arrivalPos="220.43" arrivalSpeed="16.36" duration="90.00" routeLength="932.35" waitingTime="14.00" waitingCount="2" stopTime="0.00" timeLoss="39.18" rerouteNo="1" devices="tripinfo_h7181c1:1 routing_h7181c1:1 emissions_h7181c1:1" vType="default_016" speedFactor="1.02" vaporized="">
        <emissions CO_abs="6185.040418" CO2_abs="348706.877990" HC_abs="36.540309" PMx_abs="7.088852" NOx_abs="147.079167" fuel_abs="149.893612" electricity_abs="0"/>
    </tripinfo>
    <tripinfo id="h4538c1:1" depart="57701.00" departLane="-10427692#1_1" departPos="5.10" departSpeed="0.00" departDelay="0.00" arrival="57750.00" arrivalLane="-128361102#1_1" arrivalPos="274.68" arrivalSpeed="11.09" duration="49.00" routeLength="440.74" waitingTime="2.00" waitingCount="1" stopTime="0.00" timeLoss="13.17" rerouteNo="1" devices="tripinfo_h4538c1:1 routing_h4538c1:1 emissions_h4538c1:1" vType="default_016" speedFactor="0.88" vaporized="">
        <emissions CO_abs="1932.983000" CO2_abs="111371.333550" HC_abs="11.389654" PMx_abs="1.849312" NOx_abs="44.880694" fuel_abs="47.874130" electricity_abs="0"/>
    </tripinfo>
    <tripinfo id="carIn30817:1" depart="57681.00" departLane="315358244_1" departPos="5.10" departSpeed="0.00" departDelay="0.20" arrival="57751.00" arrivalLane="447569997#1_1" arrivalPos="180.93" arrivalSpeed="7.23" duration="70.00" routeLength="718.04" waitingTime="0.00" waitingCount="0" stopTime="0.00" timeLoss="7.37" rerouteNo="1" devices="tripinfo_carIn30817:1 routing_carIn30817:1 emissions_carIn30817:1" vType="default_016" speedFactor="0.99" vaporized="">
        <emissions CO_abs="2157.955143" CO2_abs="141816.822125" HC_abs="13.127530" PMx_abs="2.322280" NOx_abs="56.738138" fuel_abs="60.961252" electricity_abs="0"/>
    </tripinfo>
    <tripinfo id="h3568c1:3" depart="57656.00" departLane="266565295#5_1" departPos="5.10" departSpeed="0.00" departDelay="0.80" arrival="57754.00" arrivalLane="-24634415_1" arrivalPos="62.03" arrivalSpeed="15.63" duration="98.00" routeLength="807.40" waitingTime="14.00" waitingCount="2" stopTime="0.00" timeLoss="42.46" rerouteNo="1" devices="tripinfo_h3568c1:3 routing_h3568c1:3 emissions_h3568c1:3" vType="default_016" speedFactor="1.17" vaporized="">
        <emissions CO_abs="6212.226606" CO2_abs="315742.923147" HC_abs="35.791153" PMx_abs="6.239990" NOx_abs="133.865600" fuel_abs="135.724475" electricity_abs="0"/>
    </tripinfo>
    <tripinfo id="carIn121703:1" depart="57647.00" departLane="386687232#0_1" departPos="5.10" departSpeed="0.00" departDelay="0.30" arrival="57756.00" arrivalLane="-315358244_1" arrivalPos="33.95" arrivalSpeed="13.66" duration="109.00" routeLength="1157.39" waitingTime="8.00" waitingCount="1" stopTime="0.00" timeLoss="23.94" rerouteNo="1" devices="tripinfo_carIn121703:1 routing_carIn121703:1 emissions_carIn121703:1" vType="default_016" speedFactor="1.00" vaporized="">
        <emissions CO_abs="3857.535344" CO2_abs="260151.157417" HC_abs="23.643857" PMx_abs="4.349608" NOx_abs="103.958411" fuel_abs="111.828192" electricity_abs="0"/>
    </tripinfo>
    <tripinfo id="h317c2:1" depart="57707.00" departLane="-32978638#0_1" departPos="5.10" departSpeed="0.00" departDelay="0.10" arrival="57756.00" arrivalLane="-266565295#5_1" arrivalPos="172.76" arrivalSpeed="12.65" duration="49.00" routeLength="370.53" waitingTime="11.00" waitingCount="1" stopTime="0.00" timeLoss="20.75" rerouteNo="1" devices="tripinfo_h317c2:1 routing_h317c2:1 emissions_h317c2:1" vType="default_016" speedFactor="0.98" vaporized="">
        <emissions CO_abs="2810.233179" CO2_abs="130925.942201" HC_abs="15.867831" PMx_abs="2.402751" NOx_abs="54.134791" fuel_abs="56.280004" electricity_abs="0"/>
    </tripinfo>
    <tripinfo id="h5979c1:5" depart="57669.00" departLane="399835085#1_1" departPos="5.10" departSpeed="0.00" departDelay="0.00" arrival="57757.00" arrivalLane="-315358254#1_1" arrivalPos="137.16" arrivalSpeed="12.89" duration="88.00" routeLength="659.33" waitingTime="1.00" waitingCount="1" stopTime="0.00" timeLoss="13.60" rerouteNo="1" devices="tripinfo_h5979c1:5 routing_h5979c1:5 emissions_h5979c1:5" vType="default_016" speedFactor="0.98" vaporized="">
        <emissions CO_abs="3708.224984" CO2_abs="174969.557861" HC_abs="20.922100" PMx_abs="2.913432" NOx_abs="71.217092" fuel_abs="75.212985" electricity_abs="0"/>
    </tripinfo>
    <tripinfo id="h12244c1:3" depart="57612.00" departLane="315358244_1" departPos="5.10" departSpeed="0.00" departDelay="0.40" arrival="57759.00" arrivalLane="386687235_1" arrivalPos="80.84" arrivalSpeed="11.10" duration="147.00" routeLength="1186.14" waitingTime="21.00" waitingCount="1" stopTime="0.00" timeLoss="48.83" rerouteNo="1" devices="tripinfo_h12244c1:3 routing_h12244c1:3 emissions_h12244c1:3" vType="default_016" speedFactor="0.88" vaporized="">
        <emissions CO_abs="6795.835228" CO2_abs="296671.324209" HC_abs="37.841224" PMx_abs="5.199690" NOx_abs="121.282685" fuel_abs="127.528260" electricity_abs="0"/>
    </tripinfo>
    <tripinfo id="h9563c2:5" depart="57631.00" departLane="315358244_1" departPos="5.10" departSpeed="0.00" departDelay="0.70" arrival="57760.00" arrivalLane="386687235_1" arrivalPos="80.84" arrivalSpeed="13.70" duration="129.00" routeLength="1186.14" waitingTime="19.00" waitingCount="1" stopTime="0.00" timeLoss="43.98" rerouteNo="1" devices="tripinfo_h9563c2:5 routing_h9563c2:5 emissions_h9563c2:5" vType="default_016" speedFactor="1.01" vaporized="">
        <emissions CO_abs="5780.525843" CO2_abs="283185.854152" HC_abs="32.927204" PMx_abs="4.916726" NOx_abs="114.478840" fuel_abs="121.730914" electricity_abs="0"/>
    </tripinfo>
    <tripinfo id="h3154c1:1" depart="57658.00" departLane="24634507_1" departPos="5.10" departSpeed="0.00" departDelay="0.00" arrival="57764.00" arrivalLane="-266565295#5_1" arrivalPos="172.76" arrivalSpeed="16.31" duration="106.00" routeLength="1206.22" waitingTime="11.00" waitingCount="1" stopTime="0.00" timeLoss="31.03" rerouteNo="1" devices="tripinfo_h3154c1:1 routing_h3154c1:1 emissions_h3154c1:1" vType="default_016" speedFactor="1.20" vaporized="">
        <emissions CO_abs="5626.614943" CO2_abs="352350.171426" HC_abs="33.795880" PMx_abs="6.590994" NOx_abs="144.692224" fuel_abs="151.460028" electricity_abs="0"/>
    </tripinfo>
    <tripinfo id="h3326c1:2" depart="57656.00" departLane="22716069#0_1" departPos="5.10" departSpeed="0.00" departDelay="0.00" arrival="57767.00" arrivalLane="24634517#13_1" arrivalPos="111.62" arrivalSpeed="14.28" duration="111.00" routeLength="1312.81" waitingTime="0.00" waitingCount="0" stopTime="0.00" timeLoss="17.06" rerouteNo="1" devices="tripinfo_h3326c1:2 routing_h3326c1:2 emissions_h3326c1:2" vType="default_016" speedFactor="1.05" vaporized="">
        <emissions CO_abs="4408.899401" CO2_abs="326280.111964" HC_abs="27.698830" PMx_abs="5.641104" NOx_abs="131.606198" fuel_abs="140.253624" electricity_abs="0"/>
    </tripinfo>
    <tripinfo id="carIn118591:1" depart="57689.00" departLane="315358244_1" departPos="5.10" departSpeed="0.00" departDelay="0.20" arrival="57776.00" arrivalLane="386687235_1" arrivalPos="80.84" arrivalSpeed="14.81" duration="87.00" routeLength="1186.14" waitingTime="0.00" waitingCount="0" stopTime="0.00" timeLoss="7.64" rerouteNo="1" devices="tripinfo_carIn118591:1 routing_carIn118591:1 emissions_carIn118591:1" vType="default_016" speedFactor="1.09" vaporized="">
        <emissions CO_abs="2435.554814" CO2_abs="229972.901501" HC_abs="16.304829" PMx_abs="3.674569" NOx_abs="89.536836" fuel_abs="98.855336" electricity_abs="0"/>
    </tripinfo>
    <tripinfo id="carIn27009:1" depart="57673.00" departLane="-447569998#1_1" departPos="5.10" departSpeed="0.00" departDelay="0.50" arrival="57777.00" arrivalLane="-26677539_1" arrivalPos="152.75" arrivalSpeed="6.98" duration="104.00" routeLength="699.63" waitingTime="0.00" waitingCount="0" stopTime="0.00" timeLoss="13.25" rerouteNo="1" devices="tripinfo_carIn27009:1 routing_carIn27009:1 emissions_carIn27009:1" vType="default_015" speedFactor="0.93" vaporized="">
        <emissions CO_abs="4472.414787" CO2_abs="192860.203357" HC_abs="24.784910" PMx_abs="3.155190" NOx_abs="78.604242" fuel_abs="82.903882" electricity_abs="0"/>
    </tripinfo>
    <tripinfo id="carIn28951:1" depart="57606.00" departLane="10425609#0_1" departPos="5.10" departSpeed="0.00" departDelay="0.20" arrival="57785.00" arrivalLane="-128361102#1_1" arrivalPos="274.68" arrivalSpeed="13.24" duration="179.00" routeLength="2113.04" waitingTime="3.00" waitingCount="1" stopTime="0.00" timeLoss="30.00" rerouteNo="1" devices="tripinfo_carIn28951:1 routing_carIn28951:1 emissions_carIn28951:1" vType="default_016" speedFactor="1.04" vaporized="">
        <emissions CO_abs="5625.277546" CO2_abs="440100.069330" HC_abs="35.923720" PMx_abs="7.327943" NOx_abs="175.253434" fuel_abs="189.180084" electricity_abs="0"/>
    </tripinfo>
    <tripinfo id="h330c1:1" depart="57736.00" departLane="-32978638#0_1" departPos="5.10" departSpeed="0.00" departDelay="0.20" arrival="57786.00" arrivalLane="-266565295#5_1" arrivalPos="172.76" arrivalSpeed="13.14" duration="50.00" routeLength="370.53" waitingTime="11.00" waitingCount="1" stopTime="0.00" timeLoss="21.73" rerouteNo="1" devices="tripinfo_h330c1:1 routing_h330c1:1 emissions_h330c1:1" vType="default_016" speedFactor="0.97" vaporized="">
        <emissions CO_abs="3247.937030" CO2_abs="133433.565592" HC_abs="17.937252" PMx_abs="2.614152" NOx_abs="56.415939" fuel_abs="57.357992" electricity_abs="0"/>
    </tripinfo>
    <tripinfo id="carIn107084:1" depart="57601.00" departLane="124812856#0_1" departPos="5.10" departSpeed="0.00" departDelay="0.70" arrival="57787.00" arrivalLane="-128361102#1_1" arrivalPos="274.68" arrivalSpeed="15.36" duration="186.00" routeLength="2232.46" waitingTime="4.00" waitingCount="2" stopTime="0.00" timeLoss="46.94" rerouteNo="1" devices="tripinfo_carIn107084:1 routing_carIn107084:1 emissions_carIn107084:1" vType="default_016" speedFactor="1.18" vaporized="">
        <emissions CO_abs="7821.902960" CO2_abs="565318.701091" HC_abs="48.803383" PMx_abs="10.252889" NOx_abs="230.228263" fuel_abs="243.005407" electricity_abs="0"/>
    </tripinfo>
    <tripinfo id="carIn12365:1" depart="57713.00" departLane="315358244_1" departPos="5.10" departSpeed="0.00" departDelay="0.50" arrival="57800.00" arrivalLane="447569997#1_1" arrivalPos="180.93" arrivalSpeed="7.68" duration="87.00" routeLength="718.04" waitingTime="16.00" waitingCount="1" stopTime="0.00" timeLoss="26.84" rerouteNo="1" devices="tripinfo_carIn12365:1 routing_carIn12365:1 emissions_carIn12365:1" vType="default_016" speedFactor="1.02" vaporized="">
        <emissions CO_abs="4492.487221" CO2_abs="196187.092599" HC_abs="24.948330" PMx_abs="3.467320" NOx_abs="80.055096" fuel_abs="84.333702" electricity_abs="0"/>
    </tripinfo>
    <tripinfo id="carIn50326:1" depart="57651.00" departLane="128361102#0_1" departPos="5.10" departSpeed="0.00" departDelay="0.30" arrival="57801.00" arrivalLane="18809673#0_1" arrivalPos="473.56" arrivalSpeed="14.28" duration="150.00" routeLength="1591.07" waitingTime="11.00" waitingCount="1" stopTime="0.00" timeLoss="31.93" rerouteNo="1" devices="tripinfo_carIn50326:1 routing_carIn50326:1 emissions_carIn50326:1" vType="default_016" speedFactor="1.09" vaporized="">
        <emissions CO_abs="5535.020337" CO2_abs="351497.607576" HC_abs="33.393402" PMx_abs="5.989569" NOx_abs="141.062869" fuel_abs="151.094352" electricity_abs="0"/>
    </tripinfo>
    <tripinfo id="carIn129809:1" depart="57729.00" departLane="-447569998#1_1" departPos="5.10" departSpeed="0.00" departDelay="1.00" arrival="57803.00" arrivalLane="-315358244_1" arrivalPos="33.95" arrivalSpeed="12.48" duration="74.00" routeLength="706.49" waitingTime="0.00" waitingCount="0" stopTime="0.00" timeLoss="11.88" rerouteNo="1" devices="tripinfo_carIn129809:1 routing_carIn129809:1 emissions_carIn129809:1" vType="default_015" speedFactor="0.97" vaporized="">
        <emissions CO_abs="2936.422597" CO2_abs="170136.420922" HC_abs="17.324799" PMx_abs="2.827808" NOx_abs="68.612904" fuel_abs="73.134895" electricity_abs="0"/>
    </tripinfo>
    <tripinfo id="carIn107282:1" depart="57749.00" departLane="-447569998#1_1" departPos="5.10" departSpeed="0.00" departDelay="0.00" arrival="57804.00" arrivalLane="315358242#0_1" arrivalPos="165.37" arrivalSpeed="15.19" duration="55.00" routeLength="448.50" waitingTime="8.00" waitingCount="1" stopTime="0.00" timeLoss="16.67" rerouteNo="1" devices="tripinfo_carIn107282:1 routing_carIn107282:1 emissions_carIn107282:1" vType="default_016" speedFactor="1.11" vaporized="">
        <emissions CO_abs="2747.408507" CO2_abs="147498.559310" HC_abs="15.945774" PMx_abs="2.581485" NOx_abs="59.964350" fuel_abs="63.403785" electricity_abs="0"/>
    </tripinfo>
    <tripinfo id="carIn77943:1" depart="57608.00" departLane="124812856#0_1" departPos="5.10" departSpeed="0.00" departDelay="2.50" arrival="57818.00" arrivalLane="-128361102#1_1" arrivalPos="274.68" arrivalSpeed="11.85" duration="210.00" routeLength="2250.49" waitingTime="5.00" waitingCount="1" stopTime="0.00" timeLoss="31.90" rerouteNo="1" devices="tripinfo_carIn77943:1 routing_carIn77943:1 emissions_carIn77943:1" vType="default_016" speedFactor="0.92" vaporized="">
        <emissions CO_abs="6393.622427" CO2_abs="466585.830690" HC_abs="39.965783" PMx_abs="7.436422" NOx_abs="184.773169" fuel_abs="200.565935" electricity_abs="0"/>
    </tripinfo>
    <tripinfo id="h11737c1:1" depart="57665.00" departLane="272042143_1" departPos="5.10" departSpeed="0.00" departDelay="1.50" arrival="57818.00" arrivalLane="-315358254#1_1" arrivalPos="137.16" arrivalSpeed="12.25" duration="153.00" routeLength="1596.88" waitingTime="5.00" waitingCount="1" stopTime="0.00" timeLoss="26.60" rerouteNo="1" devices="tripinfo_h11737c1:1 routing_h11737c1:1 emissions_h11737c1:1" vType="default_016" speedFactor="0.92" vaporized="">
        <emissions CO_abs="4558.899677" CO2_abs="326985.451216" HC_abs="28.347513" PMx_abs="5.138630" NOx_abs="129.046724" fuel_abs="140.557686" electricity_abs="0"/>
    </tripinfo>
    <tripinfo id="carIn82278:1" depart="57702.00" departLane="-306240162#1_0" departPos="5.10" departSpeed="0.00" departDelay="0.70" arrival="57819.00" arrivalLane="399835085#1_1" arrivalPos="212.23" arrivalSpeed="6.70" duration="117.00" routeLength="1093.26" waitingTime="7.00" waitingCount="2" stopTime="0.00" timeLoss="33.02" rerouteNo="1" devices="tripinfo_carIn82278:1 routing_carIn82278:1 emissions_carIn82278:1" vType="default_016" speedFactor="0.93" vaporized="">
        <emissions CO_abs="5663.186284" CO2_abs="318099.678766" HC_abs="33.236282" PMx_abs="5.865875" NOx_abs="131.184993" fuel_abs="136.737766" electricity_abs="0"/>
    </tripinfo>
    <tripinfo id="carIn81046:1" depart="57611.00" departLane="124812856#0_1" departPos="5.10" departSpeed="0.00" departDelay="2.50" arrival="57820.00" arrivalLane="-128361102#1_1" arrivalPos="274.68" arrivalSpeed="15.29" duration="209.00" routeLength="2250.49" waitingTime="4.00" waitingCount="1" stopTime="0.00" timeLoss="61.43" rerouteNo="1" devices="tripinfo_carIn81046:1 routing_carIn81046:1 emissions_carIn81046:1" vType="default_016" speedFactor="1.12" vaporized="">
        <emissions CO_abs="7727.589329" CO2_abs="544259.698601" HC_abs="47.962317" PMx_abs="9.334428" NOx_abs="220.023954" fuel_abs="233.953915" electricity_abs="0"/>
    </tripinfo>
    <tripinfo id="carIn126288:1" depart="57674.00" departLane="272042143_1" departPos="5.10" departSpeed="0.00" departDelay="0.00" arrival="57820.00" arrivalLane="-315358254#1_1" arrivalPos="137.16" arrivalSpeed="12.21" duration="146.00" routeLength="1596.88" waitingTime="1.00" waitingCount="1" stopTime="0.00" timeLoss="20.06" rerouteNo="1" devices="tripinfo_carIn126288:1 routing_carIn126288:1 emissions_carIn126288:1" vType="default_016" speedFactor="0.93" vaporized="">
        <emissions CO_abs="4239.745759" CO2_abs="320030.936805" HC_abs="26.754982" PMx_abs="5.092202" NOx_abs="126.495943" fuel_abs="137.567960" electricity_abs="0"/>
    </tripinfo>
    <tripinfo id="carIn77438:1" depart="57614.00" departLane="124812856#0_1" departPos="5.10" departSpeed="0.00" departDelay="1.10" arrival="57822.00" arrivalLane="-128361102#1_1" arrivalPos="274.68" arrivalSpeed="13.78" duration="208.00" routeLength="2250.49" waitingTime="11.00" waitingCount="2" stopTime="0.00" timeLoss="50.21" rerouteNo="1" devices="tripinfo_carIn77438:1 routing_carIn77438:1 emissions_carIn77438:1" vType="default_016" speedFactor="1.04" vaporized="">
        <emissions CO_abs="7493.950207" CO2_abs="537609.995369" HC_abs="46.691488" PMx_abs="9.267331" NOx_abs="216.790573" fuel_abs="231.095375" electricity_abs="0"/>
    </tripinfo>
    <tripinfo id="carIn82220:1" depart="57619.00" departLane="-306240162#1_0" departPos="5.10" departSpeed="0.00" departDelay="3.50" arrival="57823.00" arrivalLane="386687235_1" arrivalPos="80.84" arrivalSpeed="13.33" duration="204.00" routeLength="2257.41" waitingTime="20.00" waitingCount="3" stopTime="0.00" timeLoss="59.22" rerouteNo="1" devices="tripinfo_carIn82220:1 routing_carIn82220:1 emissions_carIn82220:1" vType="default_016" speedFactor="1.02" vaporized="">
        <emissions CO_abs="8021.118377" CO2_abs="536836.326592" HC_abs="48.992807" PMx_abs="9.363800" NOx_abs="215.408081" fuel_abs="230.763265" electricity_abs="0"/>
    </tripinfo>
    <tripinfo id="carIn86816:1" depart="57617.00" departLane="128361102#0_1" departPos="5.10" departSpeed="0.00" departDelay="0.80" arrival="57823.00" arrivalLane="201956811#0_1" arrivalPos="40.40" arrivalSpeed="14.17" duration="206.00" routeLength="2067.33" waitingTime="34.00" waitingCount="2" stopTime="0.00" timeLoss="65.32" rerouteNo="1" devices="tripinfo_carIn86816:1 routing_carIn86816:1 emissions_carIn86816:1" vType="default_016" speedFactor="1.08" vaporized="">
        <emissions CO_abs="9639.304851" CO2_abs="509968.168669" HC_abs="55.747065" PMx_abs="9.179848" NOx_abs="207.655306" fuel_abs="219.214955" electricity_abs="0"/>
    </tripinfo>
    <tripinfo id="carIn48184:1" depart="57613.00" departLane="-306240162#1_0" departPos="5.10" departSpeed="0.00" departDelay="0.70" arrival="57824.00" arrivalLane="386687235_2" arrivalPos="80.84" arrivalSpeed="11.45" duration="211.00" routeLength="2257.41" waitingTime="5.00" waitingCount="2" stopTime="0.00" timeLoss="34.74" rerouteNo="1" devices="tripinfo_carIn48184:1 routing_carIn48184:1 emissions_carIn48184:1" vType="default_016" speedFactor="0.84" vaporized="">
        <emissions CO_abs="6477.332070" CO2_abs="480906.694108" HC_abs="40.586722" PMx_abs="7.713406" NOx_abs="189.719611" fuel_abs="206.721796" electricity_abs="0"/>
    </tripinfo>
    <tripinfo id="carIn462:1" depart="57622.00" departLane="-306240162#1_0" departPos="5.10" departSpeed="0.00" departDelay="4.80" arrival="57826.00" arrivalLane="386687235_1" arrivalPos="80.84" arrivalSpeed="13.06" duration="204.00" routeLength="2257.41" waitingTime="12.00" waitingCount="4" stopTime="0.00" timeLoss="58.34" rerouteNo="1" devices="tripinfo_carIn462:1 routing_carIn462:1 emissions_carIn462:1" vType="default_016" speedFactor="1.03" vaporized="">
        <emissions CO_abs="7951.534601" CO2_abs="544442.383158" HC_abs="49.029849" PMx_abs="9.707041" NOx_abs="220.312213" fuel_abs="234.032284" electricity_abs="0"/>
    </tripinfo>
    <tripinfo id="carIn116184:1" depart="57627.00" departLane="-306240162#1_0" departPos="5.10" departSpeed="0.00" departDelay="0.10" arrival="57826.00" arrivalLane="386687235_2" arrivalPos="80.84" arrivalSpeed="15.16" duration="199.00" routeLength="2257.41" waitingTime="18.00" waitingCount="3" stopTime="0.00" timeLoss="75.45" rerouteNo="1" devices="tripinfo_carIn116184:1 routing_carIn116184:1 emissions_carIn116184:1" vType="default_016" speedFactor="1.20" vaporized="">
        <emissions CO_abs="10294.130888" CO2_abs="640690.410182" HC_abs="62.033927" PMx_abs="12.195195" NOx_abs="264.234670" fuel_abs="275.404771" electricity_abs="0"/>
    </tripinfo>
    <tripinfo id="randUni15030:1" depart="57735.00" departLane="386687232#0_1" departPos="5.10" departSpeed="0.00" departDelay="0.10" arrival="57829.00" arrivalLane="26677539_1" arrivalPos="151.98" arrivalSpeed="8.84" duration="94.00" routeLength="919.89" waitingTime="5.00" waitingCount="1" stopTime="0.00" timeLoss="20.90" rerouteNo="1" devices="tripinfo_randUni15030:1 routing_randUni15030:1 emissions_randUni15030:1" vType="random_016" speedFactor="1.14" vaporized="">
        <emissions CO_abs="3346.948718" CO2_abs="209891.226020" HC_abs="20.110082" PMx_abs="3.556518" NOx_abs="84.518237" fuel_abs="90.223619" electricity_abs="0"/>
    </tripinfo>
    <tripinfo id="carIn81860:1" depart="57712.00" departLane="128361102#0_1" departPos="5.10" departSpeed="0.00" departDelay="0.60" arrival="57831.00" arrivalLane="-24634517#17_1" arrivalPos="6.43" arrivalSpeed="6.78" duration="119.00" routeLength="1229.64" waitingTime="5.00" waitingCount="1" stopTime="0.00" timeLoss="24.58" rerouteNo="1" devices="tripinfo_carIn81860:1 routing_carIn81860:1 emissions_carIn81860:1" vType="default_016" speedFactor="0.95" vaporized="">
        <emissions CO_abs="3807.831582" CO2_abs="257155.496779" HC_abs="23.347926" PMx_abs="4.292835" NOx_abs="103.162793" fuel_abs="110.540443" electricity_abs="0"/>
    </tripinfo>
    <tripinfo id="carIn102915:1" depart="57643.00" departLane="128361102#0_1" departPos="5.10" departSpeed="0.00" departDelay="0.40" arrival="57836.00" arrivalLane="201956811#0_1" arrivalPos="40.40" arrivalSpeed="13.85" duration="193.00" routeLength="2067.33" waitingTime="17.00" waitingCount="2" stopTime="0.00" timeLoss="44.09" rerouteNo="1" devices="tripinfo_carIn102915:1 routing_carIn102915:1 emissions_carIn102915:1" vType="default_016" speedFactor="1.02" vaporized="">
        <emissions CO_abs="7816.141183" CO2_abs="476748.583357" HC_abs="46.767706" PMx_abs="8.279648" NOx_abs="192.471734" fuel_abs="204.934612" electricity_abs="0"/>
    </tripinfo>
    <tripinfo id="randUni33724:1" depart="57646.00" departLane="128361102#0_1" departPos="5.10" departSpeed="0.00" departDelay="1.20" arrival="57838.00" arrivalLane="201956811#0_1" arrivalPos="40.40" arrivalSpeed="13.90" duration="192.00" routeLength="2067.33" waitingTime="13.00" waitingCount="1" stopTime="0.00" timeLoss="42.51" rerouteNo="1" devices="tripinfo_randUni33724:1 routing_randUni33724:1 emissions_randUni33724:1" vType="random_016" speedFactor="1.01" vaporized="">
        <emissions CO_abs="7419.730773" CO2_abs="482218.921469" HC_abs="45.048475" PMx_abs="8.097349" NOx_abs="192.700803" fuel_abs="207.286112" electricity_abs="0"/>
    </tripinfo>
    <tripinfo id="carIn126378:1" depart="57746.00" departLane="386687232#0_1" departPos="5.10" departSpeed="0.00" departDelay="1.80" arrival="57839.00" arrivalLane="-315358244_2" arrivalPos="33.95" arrivalSpeed="13.65" duration="93.00" routeLength="1157.39" waitingTime="0.00" waitingCount="0" stopTime="0.00" timeLoss="12.14" rerouteNo="1" devices="tripinfo_carIn126378:1 routing_carIn126378:1 emissions_carIn126378:1" vType="default_016" speedFactor="1.05" vaporized="">
        <emissions CO_abs="2884.157183" CO2_abs="244127.776669" HC_abs="18.793578" PMx_abs="3.870183" NOx_abs="95.379907" fuel_abs="104.940176" electricity_abs="0"/>