<?xml version="1.0" encoding="UTF-8"?>

<!-- generated on 2021-10-26 19:21:53 by Eclipse SUMO sumo Version 1.10.0
<configuration xmlns:xsi="http://www.w3.org/2001/XMLSchema-instance" xsi:noNamespaceSchemaLocation="http://sumo.dlr.de/xsd/sumoConfiguration.xsd">

    <input>
        <net-file value="/Users/behradkoohy/sumo-scratchpad/RESCO/environments/ingolstadt21/ingolstadt21.net.xml"/>
        <route-files value="/Users/behradkoohy/sumo-scratchpad/RESCO/environments/ingolstadt21/ingolstadt21.rou.xml"/>
    </input>

    <output>
        <tripinfo-output value="/Users/behradkoohy/sumo-scratchpad/RESCO/logs/MPLight-tr0-ingolstadt21-21-mplight-pressure/tripinfo_22.xml"/>
        <tripinfo-output.write-unfinished value="true"/>
    </output>

    <time>
        <begin value="57600"/>
        <end value="61200"/>
    </time>

    <processing>
        <time-to-teleport value="-1"/>
    </processing>

    <report>
        <no-warnings value="true"/>
        <no-step-log value="true"/>
    </report>

    <emissions>
        <device.emissions.probability value="1"/>
    </emissions>

    <traci_server>
        <remote-port value="63312"/>
    </traci_server>

    <random_number>
        <random value="true"/>
    </random_number>

</configuration>
-->

<tripinfos xmlns:xsi="http://www.w3.org/2001/XMLSchema-instance" xsi:noNamespaceSchemaLocation="http://sumo.dlr.de/xsd/tripinfo_file.xsd">
    <tripinfo id="h15454c2:3" depart="57612.00" departLane="24608844_1" departPos="5.10" departSpeed="0.00" departDelay="0.50" arrival="57657.00" arrivalLane="32978638#0_1" arrivalPos="49.29" arrivalSpeed="12.20" duration="45.00" routeLength="354.79" waitingTime="1.00" waitingCount="1" stopTime="0.00" timeLoss="9.54" rerouteNo="1" devices="tripinfo_h15454c2:3 routing_h15454c2:3 emissions_h15454c2:3" vType="default_016" speedFactor="0.96" vaporized="">
        <emissions CO_abs="2343.862108" CO2_abs="114573.338054" HC_abs="13.335323" PMx_abs="1.987194" NOx_abs="47.058980" fuel_abs="49.250684" electricity_abs="0"/>
    </tripinfo>
    <tripinfo id="carIn60260:1" depart="57606.00" departLane="315358254#0_1" departPos="5.10" departSpeed="0.00" departDelay="0.90" arrival="57670.00" arrivalLane="399835085#1_1" arrivalPos="212.23" arrivalSpeed="5.50" duration="64.00" routeLength="430.98" waitingTime="11.00" waitingCount="1" stopTime="0.00" timeLoss="24.28" rerouteNo="1" devices="tripinfo_carIn60260:1 routing_carIn60260:1 emissions_carIn60260:1" vType="default_016" speedFactor="1.15" vaporized="">
        <emissions CO_abs="4218.681996" CO2_abs="160847.123877" HC_abs="22.969388" PMx_abs="3.045020" NOx_abs="67.656237" fuel_abs="69.142421" electricity_abs="0"/>
    </tripinfo>
    <tripinfo id="carIn53971:1" depart="57640.00" departLane="272042143_1" departPos="5.10" departSpeed="0.00" departDelay="0.80" arrival="57707.00" arrivalLane="24634414#1_1" arrivalPos="162.19" arrivalSpeed="5.52" duration="67.00" routeLength="493.04" waitingTime="0.00" waitingCount="0" stopTime="0.00" timeLoss="9.63" rerouteNo="1" devices="tripinfo_carIn53971:1 routing_carIn53971:1 emissions_carIn53971:1" vType="default_016" speedFactor="0.79" vaporized="">
        <emissions CO_abs="2996.696992" CO2_abs="138040.379711" HC_abs="16.810241" PMx_abs="2.211104" NOx_abs="55.679756" fuel_abs="59.338676" electricity_abs="0"/>
    </tripinfo>
    <tripinfo id="h7800c1:5" depart="57696.00" departLane="-447569998#1_1" departPos="5.10" departSpeed="0.00" departDelay="0.00" arrival="57720.00" arrivalLane="-447569998#1_1" arrivalPos="180.76" arrivalSpeed="7.97" duration="24.00" routeLength="175.66" waitingTime="0.00" waitingCount="0" stopTime="0.00" timeLoss="2.97" rerouteNo="1" devices="tripinfo_h7800c1:5 routing_h7800c1:5 emissions_h7800c1:5" vType="default_016" speedFactor="1.03" vaporized="">
        <emissions CO_abs="1118.750782" CO2_abs="50859.693048" HC_abs="6.257883" PMx_abs="0.807849" NOx_abs="20.511748" fuel_abs="21.862801" electricity_abs="0"/>
    </tripinfo>
    <tripinfo id="h3688c1:1" depart="57625.00" departLane="201201950#1_1" departPos="5.10" departSpeed="0.00" departDelay="0.00" arrival="57721.00" arrivalLane="32978638#0_1" arrivalPos="49.29" arrivalSpeed="12.79" duration="96.00" routeLength="1089.75" waitingTime="0.00" waitingCount="0" stopTime="0.00" timeLoss="9.88" rerouteNo="1" devices="tripinfo_h3688c1:1 routing_h3688c1:1 emissions_h3688c1:1" vType="default_016" speedFactor="0.92" vaporized="">
        <emissions CO_abs="3065.667350" CO2_abs="246459.700362" HC_abs="19.692862" PMx_abs="3.864994" NOx_abs="96.960240" fuel_abs="105.942678" electricity_abs="0"/>
    </tripinfo>
    <tripinfo id="h12244c1:3" depart="57612.00" departLane="315358244_1" departPos="5.10" departSpeed="0.00" departDelay="0.40" arrival="57727.00" arrivalLane="386687235_1" arrivalPos="80.84" arrivalSpeed="11.84" duration="115.00" routeLength="1186.14" waitingTime="6.00" waitingCount="2" stopTime="0.00" timeLoss="23.57" rerouteNo="1" devices="tripinfo_h12244c1:3 routing_h12244c1:3 emissions_h12244c1:3" vType="default_016" speedFactor="0.94" vaporized="">
        <emissions CO_abs="4011.886459" CO2_abs="261401.184243" HC_abs="24.362133" PMx_abs="4.300675" NOx_abs="104.305458" fuel_abs="112.365720" electricity_abs="0"/>
    </tripinfo>
    <tripinfo id="h9563c2:5" depart="57631.00" departLane="315358244_1" departPos="5.10" departSpeed="0.00" departDelay="0.70" arrival="57729.00" arrivalLane="386687235_1" arrivalPos="80.84" arrivalSpeed="14.51" duration="98.00" routeLength="1186.14" waitingTime="0.00" waitingCount="0" stopTime="0.00" timeLoss="17.56" rerouteNo="1" devices="tripinfo_h9563c2:5 routing_h9563c2:5 emissions_h9563c2:5" vType="default_016" speedFactor="1.08" vaporized="">
        <emissions CO_abs="3419.783499" CO2_abs="260600.771054" HC_abs="21.664528" PMx_abs="4.356559" NOx_abs="103.612935" fuel_abs="112.021134" electricity_abs="0"/>
    </tripinfo>
    <tripinfo id="carIn121703:1" depart="57647.00" departLane="386687232#0_1" departPos="5.10" departSpeed="0.00" departDelay="0.30" arrival="57737.00" arrivalLane="-315358244_1" arrivalPos="33.95" arrivalSpeed="13.75" duration="90.00" routeLength="1157.39" waitingTime="0.00" waitingCount="0" stopTime="0.00" timeLoss="8.27" rerouteNo="1" devices="tripinfo_carIn121703:1 routing_carIn121703:1 emissions_carIn121703:1" vType="default_016" speedFactor="1.03" vaporized="">
        <emissions CO_abs="2497.951984" CO2_abs="219684.349221" HC_abs="16.443456" PMx_abs="3.505133" NOx_abs="85.991266" fuel_abs="94.432858" electricity_abs="0"/>
    </tripinfo>
    <tripinfo id="h7181c1:1" depart="57660.00" departLane="315358254#0_1" departPos="5.10" departSpeed="0.00" departDelay="0.10" arrival="57743.00" arrivalLane="306240162#0_0" arrivalPos="220.43" arrivalSpeed="13.97" duration="83.00" routeLength="932.35" waitingTime="6.00" waitingCount="1" stopTime="0.00" timeLoss="24.17" rerouteNo="1" devices="tripinfo_h7181c1:1 routing_h7181c1:1 emissions_h7181c1:1" vType="default_016" speedFactor="0.88" vaporized="">
        <emissions CO_abs="3596.166642" CO2_abs="244928.237827" HC_abs="22.103474" PMx_abs="4.498016" NOx_abs="99.656088" fuel_abs="105.283914" electricity_abs="0"/>
    </tripinfo>
    <tripinfo id="carIn22761:1" depart="57616.00" departLane="-306240162#1_0" departPos="5.10" departSpeed="0.00" departDelay="2.10" arrival="57746.00" arrivalLane="399835085#1_1" arrivalPos="212.23" arrivalSpeed="6.81" duration="130.00" routeLength="1093.26" waitingTime="28.00" waitingCount="1" stopTime="0.00" timeLoss="49.04" rerouteNo="1" devices="tripinfo_carIn22761:1 routing_carIn22761:1 emissions_carIn22761:1" vType="default_016" speedFactor="0.96" vaporized="">
        <emissions CO_abs="8971.840269" CO2_abs="364310.308491" HC_abs="49.430249" PMx_abs="7.012627" NOx_abs="151.797346" fuel_abs="156.603510" electricity_abs="0"/>
    </tripinfo>
    <tripinfo id="h317c2:1" depart="57707.00" departLane="-32978638#0_1" departPos="5.10" departSpeed="0.00" departDelay="0.10" arrival="57753.00" arrivalLane="-266565295#5_1" arrivalPos="172.76" arrivalSpeed="15.52" duration="46.00" routeLength="370.53" waitingTime="12.00" waitingCount="1" stopTime="0.00" timeLoss="21.43" rerouteNo="1" devices="tripinfo_h317c2:1 routing_h317c2:1 emissions_h317c2:1" vType="default_016" speedFactor="1.13" vaporized="">
        <emissions CO_abs="3174.146541" CO2_abs="146021.257770" HC_abs="17.891857" PMx_abs="2.892858" NOx_abs="61.650118" fuel_abs="62.768611" electricity_abs="0"/>
    </tripinfo>
    <tripinfo id="h4538c1:1" depart="57701.00" departLane="-10427692#1_1" departPos="5.10" departSpeed="0.00" departDelay="0.00" arrival="57755.00" arrivalLane="-128361102#1_1" arrivalPos="274.68" arrivalSpeed="14.09" duration="54.00" routeLength="440.74" waitingTime="13.00" waitingCount="1" stopTime="0.00" timeLoss="23.19" rerouteNo="1" devices="tripinfo_h4538c1:1 routing_h4538c1:1 emissions_h4538c1:1" vType="default_016" speedFactor="1.03" vaporized="">
        <emissions CO_abs="3186.632928" CO2_abs="140210.709804" HC_abs="17.776705" PMx_abs="2.602287" NOx_abs="57.920702" fuel_abs="60.271294" electricity_abs="0"/>
    </tripinfo>
    <tripinfo id="carIn30817:1" depart="57681.00" departLane="315358244_1" departPos="5.10" departSpeed="0.00" departDelay="0.20" arrival="57757.00" arrivalLane="447569997#1_1" arrivalPos="180.93" arrivalSpeed="8.72" duration="76.00" routeLength="718.04" waitingTime="12.00" waitingCount="1" stopTime="0.00" timeLoss="23.50" rerouteNo="1" devices="tripinfo_carIn30817:1 routing_carIn30817:1 emissions_carIn30817:1" vType="default_016" speedFactor="1.18" vaporized="">
        <emissions CO_abs="3311.921640" CO2_abs="171272.816974" HC_abs="19.070439" PMx_abs="3.140435" NOx_abs="70.100951" fuel_abs="73.623323" electricity_abs="0"/>
    </tripinfo>
    <tripinfo id="h3154c1:1" depart="57658.00" departLane="24634507_1" departPos="5.10" departSpeed="0.00" departDelay="0.00" arrival="57764.00" arrivalLane="-266565295#5_1" arrivalPos="172.76" arrivalSpeed="16.43" duration="106.00" routeLength="1206.22" waitingTime="10.00" waitingCount="2" stopTime="0.00" timeLoss="30.82" rerouteNo="1" devices="tripinfo_h3154c1:1 routing_h3154c1:1 emissions_h3154c1:1" vType="default_016" speedFactor="1.18" vaporized="">
        <emissions CO_abs="5155.720161" CO2_abs="351024.255940" HC_abs="31.771725" PMx_abs="6.602837" NOx_abs="144.661068" fuel_abs="150.889631" electricity_abs="0"/>
    </tripinfo>
    <tripinfo id="h3568c1:3" depart="57656.00" departLane="266565295#5_1" departPos="5.10" departSpeed="0.00" departDelay="0.80" arrival="57768.00" arrivalLane="-24634415_1" arrivalPos="62.03" arrivalSpeed="11.79" duration="112.00" routeLength="807.40" waitingTime="25.00" waitingCount="1" stopTime="0.00" timeLoss="41.62" rerouteNo="1" devices="tripinfo_h3568c1:3 routing_h3568c1:3 emissions_h3568c1:3" vType="default_016" speedFactor="0.91" vaporized="">
        <emissions CO_abs="7036.484301" CO2_abs="277542.542727" HC_abs="38.506894" PMx_abs="5.060228" NOx_abs="114.891302" fuel_abs="119.305754" electricity_abs="0"/>
    </tripinfo>
    <tripinfo id="h5979c1:5" depart="57669.00" departLane="399835085#1_1" departPos="5.10" departSpeed="0.00" departDelay="0.00" arrival="57769.00" arrivalLane="-315358254#1_1" arrivalPos="137.16" arrivalSpeed="11.36" duration="100.00" routeLength="659.33" waitingTime="5.00" waitingCount="1" stopTime="0.00" timeLoss="18.92" rerouteNo="1" devices="tripinfo_h5979c1:5 routing_h5979c1:5 emissions_h5979c1:5" vType="default_016" speedFactor="0.90" vaporized="">
        <emissions CO_abs="4031.398521" CO2_abs="176391.780912" HC_abs="22.410584" PMx_abs="2.919953" NOx_abs="71.924864" fuel_abs="75.824598" electricity_abs="0"/>
    </tripinfo>
    <tripinfo id="h3326c1:2" depart="57656.00" departLane="22716069#0_1" departPos="5.10" departSpeed="0.00" departDelay="0.00" arrival="57772.00" arrivalLane="24634517#13_1" arrivalPos="111.62" arrivalSpeed="13.23" duration="116.00" routeLength="1312.81" waitingTime="0.00" waitingCount="0" stopTime="0.00" timeLoss="14.76" rerouteNo="1" devices="tripinfo_h3326c1:2 routing_h3326c1:2 emissions_h3326c1:2" vType="default_016" speedFactor="0.96" vaporized="">
        <emissions CO_abs="4021.440863" CO2_abs="290683.027986" HC_abs="25.115351" PMx_abs="4.894480" NOx_abs="116.831993" fuel_abs="124.952231" electricity_abs="0"/>
    </tripinfo>
    <tripinfo id="carIn27009:1" depart="57673.00" departLane="-447569998#1_1" departPos="5.10" departSpeed="0.00" departDelay="0.50" arrival="57780.00" arrivalLane="-26677539_1" arrivalPos="152.75" arrivalSpeed="8.60" duration="107.00" routeLength="699.63" waitingTime="14.00" waitingCount="1" stopTime="0.00" timeLoss="28.99" rerouteNo="1" devices="tripinfo_carIn27009:1 routing_carIn27009:1 emissions_carIn27009:1" vType="default_015" speedFactor="1.08" vaporized="">
        <emissions CO_abs="5798.701314" CO2_abs="228521.829824" HC_abs="31.667745" PMx_abs="3.919088" NOx_abs="93.855646" fuel_abs="98.233771" electricity_abs="0"/>
    </tripinfo>
    <tripinfo id="h330c1:1" depart="57736.00" departLane="-32978638#0_1" departPos="5.10" departSpeed="0.00" departDelay="0.20" arrival="57785.00" arrivalLane="-266565295#5_1" arrivalPos="172.76" arrivalSpeed="13.66" duration="49.00" routeLength="370.53" waitingTime="11.00" waitingCount="1" stopTime="0.00" timeLoss="21.50" rerouteNo="1" devices="tripinfo_h330c1:1 routing_h330c1:1 emissions_h330c1:1" vType="default_016" speedFactor="1.01" vaporized="">
        <emissions CO_abs="3311.215916" CO2_abs="141492.215957" HC_abs="18.419445" PMx_abs="2.763586" NOx_abs="59.668675" fuel_abs="60.822008" electricity_abs="0"/>
    </tripinfo>
    <tripinfo id="carIn12365:1" depart="57713.00" departLane="315358244_1" departPos="5.10" departSpeed="0.00" departDelay="0.50" arrival="57795.00" arrivalLane="447569997#1_1" arrivalPos="180.93" arrivalSpeed="8.25" duration="82.00" routeLength="718.04" waitingTime="6.00" waitingCount="1" stopTime="0.00" timeLoss="19.58" rerouteNo="1" devices="tripinfo_carIn12365:1 routing_carIn12365:1 emissions_carIn12365:1" vType="default_016" speedFactor="0.99" vaporized="">
        <emissions CO_abs="3183.584211" CO2_abs="178727.613993" HC_abs="18.642787" PMx_abs="2.936500" NOx_abs="71.692351" fuel_abs="76.828061" electricity_abs="0"/>
    </tripinfo>
    <tripinfo id="carIn80064:1" depart="57603.00" departLane="128361109#1_1" departPos="5.10" departSpeed="0.00" departDelay="0.40" arrival="57796.00" arrivalLane="-315358254#1_1" arrivalPos="137.16" arrivalSpeed="14.77" duration="193.00" routeLength="1587.97" waitingTime="74.00" waitingCount="3" stopTime="0.00" timeLoss="111.62" rerouteNo="1" devices="tripinfo_carIn80064:1 routing_carIn80064:1 emissions_carIn80064:1" vType="default_016" speedFactor="1.09" vaporized="">
        <emissions CO_abs="17343.715937" CO2_abs="651430.540490" HC_abs="94.474313" PMx_abs="13.755977" NOx_abs="277.647213" fuel_abs="280.025280" electricity_abs="0"/>
    </tripinfo>
    <tripinfo id="carIn12858:1" depart="57661.00" departLane="128361109#1_1" departPos="5.10" departSpeed="0.00" departDelay="0.90" arrival="57801.00" arrivalLane="399835085#1_1" arrivalPos="212.23" arrivalSpeed="8.18" duration="140.00" routeLength="1738.12" waitingTime="8.00" waitingCount="1" stopTime="0.00" timeLoss="35.18" rerouteNo="1" devices="tripinfo_carIn12858:1 routing_carIn12858:1 emissions_carIn12858:1" vType="default_016" speedFactor="1.10" vaporized="">
        <emissions CO_abs="7998.235369" CO2_abs="495538.085253" HC_abs="48.240875" PMx_abs="9.749324" NOx_abs="205.241056" fuel_abs="213.009811" electricity_abs="0"/>
    </tripinfo>
    <tripinfo id="carIn107282:1" depart="57749.00" departLane="-447569998#1_1" departPos="5.10" departSpeed="0.00" departDelay="0.00" arrival="57805.00" arrivalLane="315358242#0_1" arrivalPos="165.37" arrivalSpeed="14.28" duration="56.00" routeLength="448.50" waitingTime="6.00" waitingCount="1" stopTime="0.00" timeLoss="14.91" rerouteNo="1" devices="tripinfo_carIn107282:1 routing_carIn107282:1 emissions_carIn107282:1" vType="default_016" speedFactor="1.03" vaporized="">
        <emissions CO_abs="2824.826048" CO2_abs="139676.399658" HC_abs="16.125912" PMx_abs="2.471789" NOx_abs="57.246327" fuel_abs="60.041471" electricity_abs="0"/>
    </tripinfo>
    <tripinfo id="carIn28951:1" depart="57606.00" departLane="10425609#0_1" departPos="5.10" departSpeed="0.00" departDelay="0.20" arrival="57814.00" arrivalLane="-128361102#1_1" arrivalPos="274.68" arrivalSpeed="13.28" duration="208.00" routeLength="2113.04" waitingTime="28.00" waitingCount="1" stopTime="0.00" timeLoss="53.58" rerouteNo="1" devices="tripinfo_carIn28951:1 routing_carIn28951:1 emissions_carIn28951:1" vType="default_016" speedFactor="1.00" vaporized="">
        <emissions CO_abs="9769.052798" CO2_abs="531518.523713" HC_abs="56.926198" PMx_abs="9.350599" NOx_abs="215.656641" fuel_abs="228.478645" electricity_abs="0"/>
    </tripinfo>
    <tripinfo id="carIn129809:1" depart="57729.00" departLane="-447569998#1_1" departPos="5.10" departSpeed="0.00" departDelay="1.00" arrival="57814.00" arrivalLane="-315358244_1" arrivalPos="33.95" arrivalSpeed="12.00" duration="85.00" routeLength="706.49" waitingTime="9.00" waitingCount="1" stopTime="0.00" timeLoss="21.29" rerouteNo="1" devices="tripinfo_carIn129809:1 routing_carIn129809:1 emissions_carIn129809:1" vType="default_015" speedFactor="0.96" vaporized="">
        <emissions CO_abs="3242.507217" CO2_abs="175590.095781" HC_abs="18.841985" PMx_abs="2.925392" NOx_abs="70.735503" fuel_abs="75.479396" electricity_abs="0"/>
    </tripinfo>
    <tripinfo id="carIn107084:1" depart="57601.00" departLane="124812856#0_1" departPos="5.10" departSpeed="0.00" departDelay="0.70" arrival="57816.00" arrivalLane="-128361102#1_1" arrivalPos="274.68" arrivalSpeed="14.81" duration="215.00" routeLength="2250.49" waitingTime="12.00" waitingCount="3" stopTime="0.00" timeLoss="68.16" rerouteNo="1" devices="tripinfo_carIn107084:1 routing_carIn107084:1 emissions_carIn107084:1" vType="default_016" speedFactor="1.12" vaporized="">
        <emissions CO_abs="8308.417041" CO2_abs="573100.480329" HC_abs="51.289249" PMx_abs="9.997256" NOx_abs="232.428236" fuel_abs="246.351251" electricity_abs="0"/>
    </tripinfo>
    <tripinfo id="S5R_frequency1.2" depart="57616.00" departLane="315358250#0_1" departPos="12.10" departSpeed="0.00" departDelay="4.40" arrival="57819.00" arrivalLane="386687235_1" arrivalPos="80.84" arrivalSpeed="13.62" duration="203.00" routeLength="1115.62" waitingTime="90.00" waitingCount="2" stopTime="0.00" timeLoss="121.35" rerouteNo="1" devices="tripinfo_S5R_frequency1.2 routing_S5R_frequency1.2 emissions_S5R_frequency1.2" vType="bus" speedFactor="1.00" vaporized="">
        <emissions CO_abs="4274.237690" CO2_abs="2094981.070946" HC_abs="919.498488" PMx_abs="443.953080" NOx_abs="17856.864344" fuel_abs="893.273276" electricity_abs="0"/>
    </tripinfo>
    <tripinfo id="carIn50326:1" depart="57651.00" departLane="128361102#0_1" departPos="5.10" departSpeed="0.00" departDelay="0.30" arrival="57821.00" arrivalLane="18809673#0_1" arrivalPos="473.56" arrivalSpeed="13.29" duration="170.00" routeLength="1591.07" waitingTime="23.00" waitingCount="2" stopTime="0.00" timeLoss="45.73" rerouteNo="1" devices="tripinfo_carIn50326:1 routing_carIn50326:1 emissions_carIn50326:1" vType="default_016" speedFactor="1.05" vaporized="">
        <emissions CO_abs="8010.947366" CO2_abs="409393.934127" HC_abs="45.920503" PMx_abs="7.154505" NOx_abs="166.073200" fuel_abs="175.982587" electricity_abs="0"/>
    </tripinfo>
    <tripinfo id="h11737c1:1" depart="57665.00" departLane="272042143_1" departPos="5.10" departSpeed="0.00" departDelay="1.50" arrival="57828.00" arrivalLane="-315358254#1_1" arrivalPos="137.16" arrivalSpeed="13.26" duration="163.00" routeLength="1596.88" waitingTime="30.00" waitingCount="1" stopTime="0.00" timeLoss="48.89" rerouteNo="1" devices="tripinfo_h11737c1:1 routing_h11737c1:1 emissions_h11737c1:1" vType="default_016" speedFactor="1.02" vaporized="">
        <emissions CO_abs="8531.065612" CO2_abs="395909.297048" HC_abs="48.069399" PMx_abs="7.197402" NOx_abs="162.109467" fuel_abs="170.186351" electricity_abs="0"/>
    </tripinfo>
    <tripinfo id="carIn126288:1" depart="57674.00" departLane="272042143_1" departPos="5.10" departSpeed="0.00" departDelay="0.00" arrival="57830.00" arrivalLane="-315358254#1_1" arrivalPos="137.16" arrivalSpeed="13.96" duration="156.00" routeLength="1596.88" waitingTime="23.00" waitingCount="1" stopTime="0.00" timeLoss="45.74" rerouteNo="1" devices="tripinfo_carIn126288:1 routing_carIn126288:1 emissions_carIn126288:1" vType="default_016" speedFactor="1.06" vaporized="">
        <emissions CO_abs="7420.793468" CO2_abs="406943.907963" HC_abs="43.287910" PMx_abs="7.111939" NOx_abs="164.256856" fuel_abs="174.929053" electricity_abs="0"/>
    </tripinfo>
    <tripinfo id="h8343c1:5" depart="57679.00" departLane="315358254#0_1" departPos="5.10" departSpeed="0.00" departDelay="0.60" arrival="57833.00" arrivalLane="-24634510#5_1" arrivalPos="236.88" arrivalSpeed="13.05" duration="154.00" routeLength="2056.84" waitingTime="2.00" waitingCount="1" stopTime="0.00" timeLoss="23.27" rerouteNo="1" devices="tripinfo_h8343c1:5 routing_h8343c1:5 emissions_h8343c1:5" vType="default_016" speedFactor="0.96" vaporized="">
        <emissions CO_abs="6590.263640" CO2_abs="498808.397919" HC_abs="41.837173" PMx_abs="9.145034" NOx_abs="202.161027" fuel_abs="214.415359" electricity_abs="0"/>
    </tripinfo>
    <tripinfo id="carIn8642:1" depart="57774.00" departLane="-447569998#1_1" departPos="5.10" departSpeed="0.00" departDelay="0.90" arrival="57839.00" arrivalLane="-315358244_1" arrivalPos="33.95" arrivalSpeed="14.19" duration="65.00" routeLength="706.49" waitingTime="0.00" waitingCount="0" stopTime="0.00" timeLoss="5.99" rerouteNo="1" devices="tripinfo_carIn8642:1 routing_carIn8642:1 emissions_carIn8642:1" vType="default_016" speedFactor="1.03" vaporized="">
        <emissions CO_abs="1995.411661" CO2_abs="143563.547336" HC_abs="12.411126" PMx_abs="2.286250" NOx_abs="56.650905" fuel_abs="61.712070" electricity_abs="0"/>
    </tripinfo>
    <tripinfo id="carIn48184:1" depart="57613.00" departLane="-306240162#1_0" departPos="5.10" departSpeed="0.00" departDelay="0.70" arrival="57840.00" arrivalLane="386687235_1" arrivalPos="80.84" arrivalSpeed="10.87" duration="227.00" routeLength="2257.41" waitingTime="15.00" waitingCount="2" stopTime="0.00" timeLoss="42.93" rerouteNo="1" devices="tripinfo_carIn48184:1 routing_carIn48184:1 emissions_carIn48184:1" vType="default_016" speedFactor="0.80" vaporized="">
        <emissions CO_abs="7096.144892" CO2_abs="455968.590379" HC_abs="42.907702" PMx_abs="7.462984" NOx_abs="181.908708" fuel_abs="196.002438" electricity_abs="0"/>
    </tripinfo>
    <tripinfo id="carIn12152:1" depart="57647.00" departLane="24599188#0.94_1" departPos="5.10" departSpeed="0.00" departDelay="0.50" arrival="57845.00" arrivalLane="-315358254#1_1" arrivalPos="137.16" arrivalSpeed="15.65" duration="198.00" routeLength="2034.31" waitingTime="33.00" waitingCount="2" stopTime="0.00" timeLoss="58.24" rerouteNo="1" devices="tripinfo_carIn12152:1 routing_carIn12152:1 emissions_carIn12152:1" vType="default_016" speedFactor="1.14" vaporized="">
        <emissions CO_abs="10015.440393" CO2_abs="514583.826335" HC_abs="57.291542" PMx_abs="9.175883" NOx_abs="208.347891" fuel_abs="221.199438" electricity_abs="0"/>
    </tripinfo>
    <tripinfo id="randUni15030:1" depart="57735.00" departLane="386687232#0_1" departPos="5.10" departSpeed="0.00" departDelay="0.10" arrival="57846.00" arrivalLane="26677539_1" arrivalPos="151.98" arrivalSpeed="6.81" duration="111.00" routeLength="919.89" waitingTime="5.00" waitingCount="1" stopTime="0.00" timeLoss="20.48" rerouteNo="1" devices="tripinfo_randUni15030:1 routing_randUni15030:1 emissions_randUni15030:1" vType="random_016" speedFactor="0.92" vaporized="">
        <emissions CO_abs="4090.692311" CO2_abs="221908.399762" HC_abs="23.731845" PMx_abs="3.481333" NOx_abs="88.428424" fuel_abs="95.390124" electricity_abs="0"/>
    </tripinfo>
    <tripinfo id="carIn81046:1" depart="57611.00" departLane="124812856#0_1" departPos="5.10" departSpeed="0.00" departDelay="2.50" arrival="57849.00" arrivalLane="-128361102#1_1" arrivalPos="274.68" arrivalSpeed="12.47" duration="238.00" routeLength="2250.49" waitingTime="21.00" waitingCount="3" stopTime="0.00" timeLoss="58.21" rerouteNo="1" devices="tripinfo_carIn81046:1 routing_carIn81046:1 emissions_carIn81046:1" vType="default_016" speedFactor="0.91" vaporized="">
        <emissions CO_abs="8553.989634" CO2_abs="525201.192236" HC_abs="51.146047" PMx_abs="8.500741" NOx_abs="209.084250" fuel_abs="225.763189" electricity_abs="0"/>
    </tripinfo>
    <tripinfo id="h20540c1:1" depart="57634.00" departLane="10425609#0_1" departPos="5.10" departSpeed="0.00" departDelay="0.50" arrival="57851.00" arrivalLane="-128361102#1_1" arrivalPos="274.68" arrivalSpeed="13.58" duration="217.00" routeLength="2113.04" waitingTime="13.00" waitingCount="1" stopTime="0.00" timeLoss="69.69" rerouteNo="1" devices="tripinfo_h20540c1:1 routing_h20540c1:1 emissions_h20540c1:1" vType="default_016" speedFactor="1.06" vaporized="">
        <emissions CO_abs="10009.972339" CO2_abs="600041.997136" HC_abs="59.652858" PMx_abs="10.722992" NOx_abs="246.011468" fuel_abs="257.932874" electricity_abs="0"/>
    </tripinfo>
    <tripinfo id="carIn77943:1" depart="57608.00" departLane="124812856#0_1" departPos="5.10" departSpeed="0.00" departDelay="2.50" arrival="57853.00" arrivalLane="-128361102#1_1" arrivalPos="274.68" arrivalSpeed="13.17" duration="245.00" routeLength="2250.49" waitingTime="26.00" waitingCount="3" stopTime="0.00" timeLoss="76.22" rerouteNo="1" devices="tripinfo_carIn77943:1 routing_carIn77943:1 emissions_carIn77943:1" vType="default_016" speedFactor="0.98" vaporized="">
        <emissions CO_abs="10833.199005" CO2_abs="618101.036610" HC_abs="63.832649" PMx_abs="11.006832" NOx_abs="253.246466" fuel_abs="265.696201" electricity_abs="0"/>
    </tripinfo>
    <tripinfo id="carIn126378:1" depart="57746.00" departLane="386687232#0_1" departPos="5.10" departSpeed="0.00" departDelay="1.80" arrival="57854.00" arrivalLane="-315358244_1" arrivalPos="33.95" arrivalSpeed="13.43" duration="108.00" routeLength="1157.39" waitingTime="8.00" waitingCount="1" stopTime="0.00" timeLoss="27.48" rerouteNo="1" devices="tripinfo_carIn126378:1 routing_carIn126378:1 emissions_carIn126378:1" vType="default_016" speedFactor="1.05" vaporized="">
        <emissions CO_abs="4208.525310" CO2_abs="282162.822925" HC_abs="25.756896" PMx_abs="4.830131" NOx_abs="113.467352" fuel_abs="121.289941" electricity_abs="0"/>
    </tripinfo>
    <tripinfo id="h17549c1:1" depart="57680.00" departLane="-447569998#1_1" departPos="5.10" departSpeed="0.00" departDelay="0.00" arrival="57856.00" arrivalLane="-315358254#1_1" arrivalPos="137.16" arrivalSpeed="11.21" duration="176.00" routeLength="1746.60" waitingTime="2.00" waitingCount="1" stopTime="0.00" timeLoss="21.59" rerouteNo="1" devices="tripinfo_h17549c1:1 routing_h17549c1:1 emissions_h17549c1:1" vType="default_016" speedFactor="0.88" vaporized="">
        <emissions CO_abs="5148.343143" CO2_abs="345179.018087" HC_abs="31.418404" PMx_abs="5.336142" NOx_abs="136.187886" fuel_abs="148.378724" electricity_abs="0"/>
    </tripinfo>
    <tripinfo id="carIn86816:1" depart="57617.00" departLane="128361102#0_1" departPos="5.10" departSpeed="0.00" departDelay="0.80" arrival="57857.00" arrivalLane="201956811#0_1" arrivalPos="40.40" arrivalSpeed="11.15" duration="240.00" routeLength="2067.33" waitingTime="29.00" waitingCount="2" stopTime="0.00" timeLoss="55.50" rerouteNo="1" devices="tripinfo_carIn86816:1 routing_carIn86816:1 emissions_carIn86816:1" vType="default_016" speedFactor="0.82" vaporized="">
        <emissions CO_abs="10306.603859" CO2_abs="497840.112959" HC_abs="58.436250" PMx_abs="8.207363" NOx_abs="200.254552" fuel_abs="214.003283" electricity_abs="0"/>
    </tripinfo>
    <tripinfo id="h645c1:1" depart="57622.00" departLane="266565295#5_1" departPos="5.10" departSpeed="0.00" departDelay="0.40" arrival="57858.00" arrivalLane="-315358244_1" arrivalPos="33.95" arrivalSpeed="12.88" duration="236.00" routeLength="1910.83" waitingTime="70.00" waitingCount="2" stopTime="0.00" timeLoss="90.21" rerouteNo="1" devices="tripinfo_h645c1:1 routing_h645c1:1 emissions_h645c1:1" vType="default_016" speedFactor="0.95" vaporized="">
        <emissions CO_abs="14786.785151" CO2_abs="552292.029629" HC_abs="80.187752" PMx_abs="9.995698" NOx_abs="226.082922" fuel_abs="237.411871" electricity_abs="0"/>
    </tripinfo>
    <tripinfo id="randUni31145:1" depart="57814.00" departLane="10425609#0_1" departPos="5.10" departSpeed="0.00" departDelay="0.30" arrival="57858.00" arrivalLane="201956810_1" arrivalPos="71.65" arrivalSpeed="11.07" duration="44.00" routeLength="255.78" waitingTime="9.00" waitingCount="1" stopTime="0.00" timeLoss="19.60" rerouteNo="1" devices="tripinfo_randUni31145:1 routing_randUni31145:1 emissions_randUni31145:1" vType="random_016" speedFactor="0.83" vaporized="">
        <emissions CO_abs="2371.062625" CO2_abs="102460.236090" HC_abs="13.203889" PMx_abs="1.965618" NOx_abs="43.418084" fuel_abs="44.043661" electricity_abs="0"/>
    </tripinfo>
    <tripinfo id="50R_frequency3.17" depart="57674.00" departLane="-18809673#6_1" departPos="12.10" departSpeed="0.00" departDelay="0.70" arrival="57859.00" arrivalLane="201956811#0_1" arrivalPos="40.40" arrivalSpeed="12.11" duration="185.00" routeLength="1954.47" waitingTime="7.00" waitingCount="2" stopTime="0.00" timeLoss="40.38" rerouteNo="1" devices="tripinfo_50R_frequency3.17 routing_50R_frequency3.17 emissions_50R_frequency3.17" vType="bus" speedFactor="1.00" vaporized="">
        <emissions CO_abs="3555.418671" CO2_abs="2228958.100439" HC_abs="743.525236" PMx_abs="380.785214" NOx_abs="17299.161732" fuel_abs="950.619917" electricity_abs="0"/>
    </tripinfo>