<?xml version="1.0" encoding="UTF-8"?>

<!-- generated on 2021-10-26 19:05:52 by Eclipse SUMO sumo Version 1.10.0
<configuration xmlns:xsi="http://www.w3.org/2001/XMLSchema-instance" xsi:noNamespaceSchemaLocation="http://sumo.dlr.de/xsd/sumoConfiguration.xsd">

    <input>
        <net-file value="/Users/behradkoohy/sumo-scratchpad/RESCO/environments/ingolstadt21/ingolstadt21.net.xml"/>
        <route-files value="/Users/behradkoohy/sumo-scratchpad/RESCO/environments/ingolstadt21/ingolstadt21.rou.xml"/>
    </input>

    <output>
        <tripinfo-output value="/Users/behradkoohy/sumo-scratchpad/RESCO/logs/MPLight-tr0-ingolstadt21-21-mplight-pressure/tripinfo_11.xml"/>
        <tripinfo-output.write-unfinished value="true"/>
    </output>

    <time>
        <begin value="57600"/>
        <end value="61200"/>
    </time>

    <processing>
        <time-to-teleport value="-1"/>
    </processing>

    <report>
        <no-warnings value="true"/>
        <no-step-log value="true"/>
    </report>

    <emissions>
        <device.emissions.probability value="1"/>
    </emissions>

    <traci_server>
        <remote-port value="62935"/>
    </traci_server>

    <random_number>
        <random value="true"/>
    </random_number>

</configuration>
-->

<tripinfos xmlns:xsi="http://www.w3.org/2001/XMLSchema-instance" xsi:noNamespaceSchemaLocation="http://sumo.dlr.de/xsd/tripinfo_file.xsd">
    <tripinfo id="h15454c2:3" depart="57612.00" departLane="24608844_1" departPos="5.10" departSpeed="0.00" departDelay="0.50" arrival="57651.00" arrivalLane="32978638#0_1" arrivalPos="49.29" arrivalSpeed="14.34" duration="39.00" routeLength="354.79" waitingTime="0.00" waitingCount="0" stopTime="0.00" timeLoss="6.56" rerouteNo="1" devices="tripinfo_h15454c2:3 routing_h15454c2:3 emissions_h15454c2:3" vType="default_016" speedFactor="1.07" vaporized="">
        <emissions CO_abs="1993.613486" CO2_abs="108929.245557" HC_abs="11.643654" PMx_abs="2.025899" NOx_abs="45.569614" fuel_abs="46.824101" electricity_abs="0"/>
    </tripinfo>
    <tripinfo id="carIn60260:1" depart="57606.00" departLane="315358254#0_1" departPos="5.10" departSpeed="0.00" departDelay="0.90" arrival="57659.00" arrivalLane="399835085#1_1" arrivalPos="212.23" arrivalSpeed="9.24" duration="53.00" routeLength="430.98" waitingTime="1.00" waitingCount="1" stopTime="0.00" timeLoss="11.89" rerouteNo="1" devices="tripinfo_carIn60260:1 routing_carIn60260:1 emissions_carIn60260:1" vType="default_016" speedFactor="1.14" vaporized="">
        <emissions CO_abs="2397.418961" CO2_abs="126365.281509" HC_abs="13.856817" PMx_abs="2.171991" NOx_abs="51.665189" fuel_abs="54.319470" electricity_abs="0"/>
    </tripinfo>
    <tripinfo id="carIn53971:1" depart="57640.00" departLane="272042143_1" departPos="5.10" departSpeed="0.00" departDelay="0.80" arrival="57692.00" arrivalLane="24634414#1_1" arrivalPos="162.19" arrivalSpeed="8.40" duration="52.00" routeLength="493.04" waitingTime="0.00" waitingCount="0" stopTime="0.00" timeLoss="8.15" rerouteNo="1" devices="tripinfo_carIn53971:1 routing_carIn53971:1 emissions_carIn53971:1" vType="default_016" speedFactor="1.04" vaporized="">
        <emissions CO_abs="2210.248238" CO2_abs="135000.727649" HC_abs="13.223124" PMx_abs="2.336494" NOx_abs="55.046452" fuel_abs="58.031210" electricity_abs="0"/>
    </tripinfo>
    <tripinfo id="h7800c1:5" depart="57696.00" departLane="-447569998#1_1" departPos="5.10" departSpeed="0.00" departDelay="0.00" arrival="57720.00" arrivalLane="-447569998#1_1" arrivalPos="180.76" arrivalSpeed="8.32" duration="24.00" routeLength="175.66" waitingTime="0.00" waitingCount="0" stopTime="0.00" timeLoss="3.49" rerouteNo="1" devices="tripinfo_h7800c1:5 routing_h7800c1:5 emissions_h7800c1:5" vType="default_016" speedFactor="1.05" vaporized="">
        <emissions CO_abs="1152.535650" CO2_abs="52300.962845" HC_abs="6.447637" PMx_abs="0.846669" NOx_abs="21.200573" fuel_abs="22.482330" electricity_abs="0"/>
    </tripinfo>
    <tripinfo id="carIn22761:1" depart="57616.00" departLane="-306240162#1_0" departPos="5.10" departSpeed="0.00" departDelay="2.10" arrival="57731.00" arrivalLane="399835085#1_1" arrivalPos="212.23" arrivalSpeed="7.25" duration="115.00" routeLength="1093.26" waitingTime="7.00" waitingCount="1" stopTime="0.00" timeLoss="28.01" rerouteNo="1" devices="tripinfo_carIn22761:1 routing_carIn22761:1 emissions_carIn22761:1" vType="default_016" speedFactor="0.90" vaporized="">
        <emissions CO_abs="5282.454250" CO2_abs="286243.727831" HC_abs="30.808613" PMx_abs="5.288962" NOx_abs="118.149356" fuel_abs="123.044373" electricity_abs="0"/>
    </tripinfo>
    <tripinfo id="h7181c1:1" depart="57660.00" departLane="315358254#0_1" departPos="5.10" departSpeed="0.00" departDelay="0.10" arrival="57731.00" arrivalLane="306240162#0_0" arrivalPos="220.43" arrivalSpeed="14.87" duration="71.00" routeLength="932.35" waitingTime="5.00" waitingCount="1" stopTime="0.00" timeLoss="17.83" rerouteNo="1" devices="tripinfo_h7181c1:1 routing_h7181c1:1 emissions_h7181c1:1" vType="default_016" speedFactor="0.97" vaporized="">
        <emissions CO_abs="3155.365759" CO2_abs="222194.660315" HC_abs="19.651364" PMx_abs="4.182866" NOx_abs="90.452575" fuel_abs="95.511571" electricity_abs="0"/>
    </tripinfo>
    <tripinfo id="h3154c1:1" depart="57658.00" departLane="24634507_1" departPos="5.10" departSpeed="0.00" departDelay="0.00" arrival="57745.00" arrivalLane="-266565295#5_1" arrivalPos="172.76" arrivalSpeed="15.31" duration="87.00" routeLength="1206.22" waitingTime="0.00" waitingCount="0" stopTime="0.00" timeLoss="12.26" rerouteNo="1" devices="tripinfo_h3154c1:1 routing_h3154c1:1 emissions_h3154c1:1" vType="default_016" speedFactor="1.19" vaporized="">
        <emissions CO_abs="3408.915789" CO2_abs="293042.618911" HC_abs="22.150462" PMx_abs="5.036045" NOx_abs="116.475416" fuel_abs="125.965958" electricity_abs="0"/>
    </tripinfo>
    <tripinfo id="h3568c1:3" depart="57656.00" departLane="266565295#5_1" departPos="5.10" departSpeed="0.00" departDelay="0.80" arrival="57746.00" arrivalLane="-24634415_1" arrivalPos="62.03" arrivalSpeed="13.50" duration="90.00" routeLength="807.40" waitingTime="7.00" waitingCount="1" stopTime="0.00" timeLoss="23.62" rerouteNo="1" devices="tripinfo_h3568c1:3 routing_h3568c1:3 emissions_h3568c1:3" vType="default_016" speedFactor="0.97" vaporized="">
        <emissions CO_abs="4501.941031" CO2_abs="253201.283909" HC_abs="26.440052" PMx_abs="4.509567" NOx_abs="103.908264" fuel_abs="108.840850" electricity_abs="0"/>
    </tripinfo>
    <tripinfo id="h317c2:1" depart="57707.00" departLane="-32978638#0_1" departPos="5.10" departSpeed="0.00" departDelay="0.10" arrival="57753.00" arrivalLane="-266565295#5_1" arrivalPos="172.76" arrivalSpeed="16.06" duration="46.00" routeLength="370.53" waitingTime="11.00" waitingCount="1" stopTime="0.00" timeLoss="22.94" rerouteNo="1" devices="tripinfo_h317c2:1 routing_h317c2:1 emissions_h317c2:1" vType="default_016" speedFactor="1.21" vaporized="">
        <emissions CO_abs="3153.736513" CO2_abs="152447.606347" HC_abs="17.982065" PMx_abs="2.990134" NOx_abs="63.981571" fuel_abs="65.530972" electricity_abs="0"/>
    </tripinfo>
    <tripinfo id="h5979c1:5" depart="57669.00" departLane="399835085#1_1" departPos="5.10" departSpeed="0.00" departDelay="0.00" arrival="57758.00" arrivalLane="-315358254#1_1" arrivalPos="137.16" arrivalSpeed="14.22" duration="89.00" routeLength="659.33" waitingTime="5.00" waitingCount="1" stopTime="0.00" timeLoss="19.45" rerouteNo="1" devices="tripinfo_h5979c1:5 routing_h5979c1:5 emissions_h5979c1:5" vType="default_016" speedFactor="1.05" vaporized="">
        <emissions CO_abs="3524.035507" CO2_abs="185031.263654" HC_abs="20.328060" PMx_abs="3.067982" NOx_abs="75.037785" fuel_abs="79.537842" electricity_abs="0"/>
    </tripinfo>
    <tripinfo id="h3326c1:2" depart="57656.00" departLane="22716069#0_1" departPos="5.10" departSpeed="0.00" departDelay="0.00" arrival="57770.00" arrivalLane="24634517#13_1" arrivalPos="111.62" arrivalSpeed="12.59" duration="114.00" routeLength="1312.81" waitingTime="0.00" waitingCount="0" stopTime="0.00" timeLoss="15.41" rerouteNo="1" devices="tripinfo_h3326c1:2 routing_h3326c1:2 emissions_h3326c1:2" vType="default_016" speedFactor="0.99" vaporized="">
        <emissions CO_abs="3972.549291" CO2_abs="297770.183283" HC_abs="25.069193" PMx_abs="4.996204" NOx_abs="119.360217" fuel_abs="127.998620" electricity_abs="0"/>
    </tripinfo>
    <tripinfo id="carIn30817:1" depart="57681.00" departLane="315358244_1" departPos="5.10" departSpeed="0.00" departDelay="0.20" arrival="57773.00" arrivalLane="447569997#1_1" arrivalPos="180.93" arrivalSpeed="8.13" duration="92.00" routeLength="718.04" waitingTime="20.00" waitingCount="1" stopTime="0.00" timeLoss="33.66" rerouteNo="1" devices="tripinfo_carIn30817:1 routing_carIn30817:1 emissions_carIn30817:1" vType="default_016" speedFactor="1.06" vaporized="">
        <emissions CO_abs="5383.593784" CO2_abs="227864.419799" HC_abs="29.844998" PMx_abs="4.197742" NOx_abs="94.151146" fuel_abs="97.950524" electricity_abs="0"/>
    </tripinfo>
    <tripinfo id="carIn121703:1" depart="57647.00" departLane="386687232#0_1" departPos="5.10" departSpeed="0.00" departDelay="0.30" arrival="57776.00" arrivalLane="-315358244_1" arrivalPos="33.95" arrivalSpeed="12.74" duration="129.00" routeLength="1157.39" waitingTime="25.00" waitingCount="2" stopTime="0.00" timeLoss="44.82" rerouteNo="1" devices="tripinfo_carIn121703:1 routing_carIn121703:1 emissions_carIn121703:1" vType="default_016" speedFactor="1.00" vaporized="">
        <emissions CO_abs="5930.339458" CO2_abs="288762.708995" HC_abs="33.730129" PMx_abs="5.109567" NOx_abs="117.363360" fuel_abs="124.128071" electricity_abs="0"/>
    </tripinfo>
    <tripinfo id="carIn27009:1" depart="57673.00" departLane="-447569998#1_1" departPos="5.10" departSpeed="0.00" departDelay="0.50" arrival="57780.00" arrivalLane="-26677539_1" arrivalPos="152.75" arrivalSpeed="8.61" duration="107.00" routeLength="699.63" waitingTime="13.00" waitingCount="1" stopTime="0.00" timeLoss="28.44" rerouteNo="1" devices="tripinfo_carIn27009:1 routing_carIn27009:1 emissions_carIn27009:1" vType="default_015" speedFactor="1.08" vaporized="">
        <emissions CO_abs="5023.835994" CO2_abs="213773.210275" HC_abs="27.799318" PMx_abs="3.606526" NOx_abs="87.488252" fuel_abs="91.893581" electricity_abs="0"/>
    </tripinfo>
    <tripinfo id="h3688c1:1" depart="57625.00" departLane="201201950#1_1" departPos="5.10" departSpeed="0.00" departDelay="0.00" arrival="57782.00" arrivalLane="32978638#0_1" arrivalPos="49.29" arrivalSpeed="12.73" duration="157.00" routeLength="1089.75" waitingTime="61.00" waitingCount="1" stopTime="0.00" timeLoss="77.35" rerouteNo="1" devices="tripinfo_h3688c1:1 routing_h3688c1:1 emissions_h3688c1:1" vType="default_016" speedFactor="1.01" vaporized="">
        <emissions CO_abs="12659.785355" CO2_abs="394083.740349" HC_abs="66.921264" PMx_abs="8.036864" NOx_abs="167.926641" fuel_abs="169.403763" electricity_abs="0"/>
    </tripinfo>
    <tripinfo id="h330c1:1" depart="57736.00" departLane="-32978638#0_1" departPos="5.10" departSpeed="0.00" departDelay="0.20" arrival="57784.00" arrivalLane="-266565295#5_1" arrivalPos="172.76" arrivalSpeed="13.50" duration="48.00" routeLength="370.53" waitingTime="14.00" waitingCount="1" stopTime="0.00" timeLoss="21.93" rerouteNo="1" devices="tripinfo_h330c1:1 routing_h330c1:1 emissions_h330c1:1" vType="default_016" speedFactor="1.06" vaporized="">
        <emissions CO_abs="3173.300690" CO2_abs="143020.266619" HC_abs="17.815784" PMx_abs="2.726051" NOx_abs="59.632080" fuel_abs="61.478836" electricity_abs="0"/>
    </tripinfo>
    <tripinfo id="h4538c1:1" depart="57701.00" departLane="-10427692#1_1" departPos="5.10" departSpeed="0.00" departDelay="0.00" arrival="57789.00" arrivalLane="-128361102#1_1" arrivalPos="274.68" arrivalSpeed="11.86" duration="88.00" routeLength="440.74" waitingTime="43.00" waitingCount="1" stopTime="0.00" timeLoss="53.60" rerouteNo="1" devices="tripinfo_h4538c1:1 routing_h4538c1:1 emissions_h4538c1:1" vType="default_016" speedFactor="0.91" vaporized="">
        <emissions CO_abs="8069.821698" CO2_abs="211950.192563" HC_abs="41.706981" PMx_abs="4.408981" NOx_abs="91.232677" fuel_abs="91.111393" electricity_abs="0"/>
    </tripinfo>
    <tripinfo id="carIn12365:1" depart="57713.00" departLane="315358244_1" departPos="5.10" departSpeed="0.00" departDelay="0.50" arrival="57802.00" arrivalLane="447569997#1_1" arrivalPos="180.93" arrivalSpeed="7.30" duration="89.00" routeLength="718.04" waitingTime="8.00" waitingCount="1" stopTime="0.00" timeLoss="23.92" rerouteNo="1" devices="tripinfo_carIn12365:1 routing_carIn12365:1 emissions_carIn12365:1" vType="default_016" speedFactor="0.95" vaporized="">
        <emissions CO_abs="3492.813185" CO2_abs="188666.626675" HC_abs="20.293052" PMx_abs="3.189694" NOx_abs="76.371649" fuel_abs="81.100421" electricity_abs="0"/>
    </tripinfo>
    <tripinfo id="h16072c2:3" depart="57663.00" departLane="315358254#0_1" departPos="5.10" departSpeed="0.00" departDelay="2.50" arrival="57803.00" arrivalLane="386687235_1" arrivalPos="80.84" arrivalSpeed="13.78" duration="140.00" routeLength="1611.92" waitingTime="3.00" waitingCount="1" stopTime="0.00" timeLoss="24.01" rerouteNo="1" devices="tripinfo_h16072c2:3 routing_h16072c2:3 emissions_h16072c2:3" vType="default_016" speedFactor="1.02" vaporized="">
        <emissions CO_abs="4496.567905" CO2_abs="344912.502176" HC_abs="28.509543" PMx_abs="5.668748" NOx_abs="136.693064" fuel_abs="148.263246" electricity_abs="0"/>
    </tripinfo>
    <tripinfo id="carIn82278:1" depart="57702.00" departLane="-306240162#1_0" departPos="5.10" departSpeed="0.00" departDelay="0.70" arrival="57806.00" arrivalLane="399835085#1_1" arrivalPos="212.23" arrivalSpeed="7.76" duration="104.00" routeLength="1093.26" waitingTime="5.00" waitingCount="1" stopTime="0.00" timeLoss="22.03" rerouteNo="1" devices="tripinfo_carIn82278:1 routing_carIn82278:1 emissions_carIn82278:1" vType="default_016" speedFactor="0.95" vaporized="">
        <emissions CO_abs="4667.444095" CO2_abs="282374.676471" HC_abs="27.934728" PMx_abs="5.176253" NOx_abs="115.250317" fuel_abs="121.380932" electricity_abs="0"/>
    </tripinfo>
    <tripinfo id="carIn107282:1" depart="57749.00" departLane="-447569998#1_1" departPos="5.10" departSpeed="0.00" departDelay="0.00" arrival="57806.00" arrivalLane="315358242#0_1" arrivalPos="165.37" arrivalSpeed="12.60" duration="57.00" routeLength="448.50" waitingTime="6.00" waitingCount="1" stopTime="0.00" timeLoss="14.77" rerouteNo="1" devices="tripinfo_carIn107282:1 routing_carIn107282:1 emissions_carIn107282:1" vType="default_016" speedFactor="0.99" vaporized="">
        <emissions CO_abs="2572.675095" CO2_abs="126228.880573" HC_abs="14.645809" PMx_abs="2.155154" NOx_abs="51.358616" fuel_abs="54.261027" electricity_abs="0"/>
    </tripinfo>
    <tripinfo id="h645c1:1" depart="57622.00" departLane="266565295#5_1" departPos="5.10" departSpeed="0.00" departDelay="0.40" arrival="57813.00" arrivalLane="-315358244_1" arrivalPos="33.95" arrivalSpeed="14.92" duration="191.00" routeLength="1910.83" waitingTime="39.00" waitingCount="3" stopTime="0.00" timeLoss="70.12" rerouteNo="1" devices="tripinfo_h645c1:1 routing_h645c1:1 emissions_h645c1:1" vType="default_016" speedFactor="1.15" vaporized="">
        <emissions CO_abs="10787.134945" CO2_abs="507539.161969" HC_abs="60.924632" PMx_abs="9.458214" NOx_abs="208.190725" fuel_abs="218.171404" electricity_abs="0"/>
    </tripinfo>
    <tripinfo id="carIn81860:1" depart="57712.00" departLane="128361102#0_1" departPos="5.10" departSpeed="0.00" departDelay="0.60" arrival="57822.00" arrivalLane="-24634517#17_1" arrivalPos="6.43" arrivalSpeed="7.46" duration="110.00" routeLength="1229.64" waitingTime="0.00" waitingCount="0" stopTime="0.00" timeLoss="13.10" rerouteNo="1" devices="tripinfo_carIn81860:1 routing_carIn81860:1 emissions_carIn81860:1" vType="default_016" speedFactor="0.93" vaporized="">
        <emissions CO_abs="3019.925585" CO2_abs="236244.881923" HC_abs="19.225625" PMx_abs="3.609144" NOx_abs="92.258839" fuel_abs="101.551978" electricity_abs="0"/>
    </tripinfo>
    <tripinfo id="carIn86816:1" depart="57617.00" departLane="128361102#0_1" departPos="5.10" departSpeed="0.00" departDelay="0.80" arrival="57825.00" arrivalLane="201956811#0_1" arrivalPos="40.40" arrivalSpeed="11.82" duration="208.00" routeLength="2067.33" waitingTime="18.00" waitingCount="1" stopTime="0.00" timeLoss="46.62" rerouteNo="1" devices="tripinfo_carIn86816:1 routing_carIn86816:1 emissions_carIn86816:1" vType="default_016" speedFactor="0.94" vaporized="">
        <emissions CO_abs="7812.175678" CO2_abs="475824.202527" HC_abs="46.669407" PMx_abs="7.940311" NOx_abs="190.730854" fuel_abs="204.537690" electricity_abs="0"/>
    </tripinfo>
    <tripinfo id="carIn102915:1" depart="57643.00" departLane="128361102#0_1" departPos="5.10" departSpeed="0.00" departDelay="0.40" arrival="57827.00" arrivalLane="201956811#0_1" arrivalPos="40.40" arrivalSpeed="13.79" duration="184.00" routeLength="2067.33" waitingTime="0.00" waitingCount="0" stopTime="0.00" timeLoss="31.75" rerouteNo="1" devices="tripinfo_carIn102915:1 routing_carIn102915:1 emissions_carIn102915:1" vType="default_016" speedFactor="1.00" vaporized="">
        <emissions CO_abs="6607.467046" CO2_abs="463193.201318" HC_abs="40.941846" PMx_abs="8.012633" NOx_abs="187.494138" fuel_abs="199.106839" electricity_abs="0"/>
    </tripinfo>
    <tripinfo id="randUni33724:1" depart="57646.00" departLane="128361102#0_1" departPos="5.10" departSpeed="0.00" departDelay="1.20" arrival="57829.00" arrivalLane="201956811#0_1" arrivalPos="40.40" arrivalSpeed="11.67" duration="183.00" routeLength="2067.33" waitingTime="0.00" waitingCount="0" stopTime="0.00" timeLoss="19.77" rerouteNo="1" devices="tripinfo_randUni33724:1 routing_randUni33724:1 emissions_randUni33724:1" vType="random_016" speedFactor="0.92" vaporized="">
        <emissions CO_abs="4954.186051" CO2_abs="400208.780442" HC_abs="31.837111" PMx_abs="6.107293" NOx_abs="156.350996" fuel_abs="172.033190" electricity_abs="0"/>
    </tripinfo>
    <tripinfo id="carIn77943:1" depart="57608.00" departLane="124812856#0_1" departPos="5.10" departSpeed="0.00" departDelay="2.50" arrival="57833.00" arrivalLane="-128361102#1_1" arrivalPos="274.68" arrivalSpeed="14.93" duration="225.00" routeLength="2250.49" waitingTime="25.00" waitingCount="3" stopTime="0.00" timeLoss="80.21" rerouteNo="1" devices="tripinfo_carIn77943:1 routing_carIn77943:1 emissions_carIn77943:1" vType="default_016" speedFactor="1.14" vaporized="">
        <emissions CO_abs="9760.003197" CO2_abs="601172.671013" HC_abs="58.507461" PMx_abs="10.762795" NOx_abs="245.102097" fuel_abs="258.418787" electricity_abs="0"/>
    </tripinfo>
    <tripinfo id="S5R_frequency1.2" depart="57624.00" departLane="315358250#0_1" departPos="12.10" departSpeed="0.00" departDelay="12.40" arrival="57836.00" arrivalLane="386687235_1" arrivalPos="80.84" arrivalSpeed="13.15" duration="212.00" routeLength="1115.62" waitingTime="94.00" waitingCount="4" stopTime="0.00" timeLoss="130.20" rerouteNo="1" devices="tripinfo_S5R_frequency1.2 routing_S5R_frequency1.2 emissions_S5R_frequency1.2" vType="bus" speedFactor="1.00" vaporized="">
        <emissions CO_abs="4202.985574" CO2_abs="1967594.684932" HC_abs="927.696120" PMx_abs="435.618909" NOx_abs="17070.082277" fuel_abs="838.935985" electricity_abs="0"/>
    </tripinfo>
    <tripinfo id="h12244c1:3" depart="57612.00" departLane="315358244_1" departPos="5.10" departSpeed="0.00" departDelay="0.40" arrival="57838.00" arrivalLane="386687235_1" arrivalPos="80.84" arrivalSpeed="10.66" duration="226.00" routeLength="1186.14" waitingTime="91.00" waitingCount="3" stopTime="0.00" timeLoss="125.50" rerouteNo="1" devices="tripinfo_h12244c1:3 routing_h12244c1:3 emissions_h12244c1:3" vType="default_016" speedFactor="0.86" vaporized="">
        <emissions CO_abs="18384.305811" CO2_abs="508957.129479" HC_abs="95.580725" PMx_abs="10.216304" NOx_abs="216.946869" fuel_abs="218.785964" electricity_abs="0"/>
    </tripinfo>
    <tripinfo id="h11737c1:1" depart="57665.00" departLane="272042143_1" departPos="5.10" departSpeed="0.00" departDelay="1.50" arrival="57838.00" arrivalLane="-315358254#1_1" arrivalPos="137.16" arrivalSpeed="11.60" duration="173.00" routeLength="1596.88" waitingTime="24.00" waitingCount="1" stopTime="0.00" timeLoss="44.89" rerouteNo="1" devices="tripinfo_h11737c1:1 routing_h11737c1:1 emissions_h11737c1:1" vType="default_016" speedFactor="0.91" vaporized="">
        <emissions CO_abs="8136.664696" CO2_abs="405009.452346" HC_abs="46.496009" PMx_abs="7.021572" NOx_abs="164.357815" fuel_abs="174.098115" electricity_abs="0"/>
    </tripinfo>
    <tripinfo id="carIn126288:1" depart="57674.00" departLane="272042143_1" departPos="5.10" departSpeed="0.00" departDelay="0.00" arrival="57839.00" arrivalLane="-315358254#1_1" arrivalPos="137.16" arrivalSpeed="14.58" duration="165.00" routeLength="1596.88" waitingTime="23.00" waitingCount="1" stopTime="0.00" timeLoss="67.18" rerouteNo="1" devices="tripinfo_carIn126288:1 routing_carIn126288:1 emissions_carIn126288:1" vType="default_016" speedFactor="1.19" vaporized="">
        <emissions CO_abs="8802.170523" CO2_abs="460621.828779" HC_abs="50.873803" PMx_abs="8.440416" NOx_abs="189.343593" fuel_abs="198.002716" electricity_abs="0"/>
    </tripinfo>
    <tripinfo id="carIn118591:1" depart="57689.00" departLane="315358244_1" departPos="5.10" departSpeed="0.00" departDelay="0.20" arrival="57840.00" arrivalLane="386687235_1" arrivalPos="80.84" arrivalSpeed="14.12" duration="151.00" routeLength="1186.14" waitingTime="36.00" waitingCount="3" stopTime="0.00" timeLoss="68.21" rerouteNo="1" devices="tripinfo_carIn118591:1 routing_carIn118591:1 emissions_carIn118591:1" vType="default_016" speedFactor="1.04" vaporized="">
        <emissions CO_abs="7607.468395" CO2_abs="341217.842040" HC_abs="42.543274" PMx_abs="6.000245" NOx_abs="138.105026" fuel_abs="146.677133" electricity_abs="0"/>
    </tripinfo>
    <tripinfo id="h17549c1:1" depart="57680.00" departLane="-447569998#1_1" departPos="5.10" departSpeed="0.00" departDelay="0.00" arrival="57841.00" arrivalLane="-315358254#1_1" arrivalPos="137.16" arrivalSpeed="15.83" duration="161.00" routeLength="1746.60" waitingTime="17.00" waitingCount="2" stopTime="0.00" timeLoss="41.04" rerouteNo="1" devices="tripinfo_h17549c1:1 routing_h17549c1:1 emissions_h17549c1:1" vType="default_016" speedFactor="1.14" vaporized="">
        <emissions CO_abs="6400.903722" CO2_abs="419862.336181" HC_abs="38.982455" PMx_abs="7.313907" NOx_abs="168.680037" fuel_abs="180.481200" electricity_abs="0"/>
    </tripinfo>
    <tripinfo id="carIn129809:1" depart="57729.00" departLane="-447569998#1_1" departPos="5.10" departSpeed="0.00" departDelay="1.00" arrival="57843.00" arrivalLane="-315358244_1" arrivalPos="33.95" arrivalSpeed="15.20" duration="114.00" routeLength="706.49" waitingTime="41.00" waitingCount="2" stopTime="0.00" timeLoss="60.14" rerouteNo="1" devices="tripinfo_carIn129809:1 routing_carIn129809:1 emissions_carIn129809:1" vType="default_015" speedFactor="1.13" vaporized="">
        <emissions CO_abs="8646.933974" CO2_abs="289944.784061" HC_abs="46.059746" PMx_abs="5.735590" NOx_abs="122.346513" fuel_abs="124.637500" electricity_abs="0"/>
    </tripinfo>
    <tripinfo id="randUni15030:1" depart="57735.00" departLane="386687232#0_1" departPos="5.10" departSpeed="0.00" departDelay="0.10" arrival="57844.00" arrivalLane="26677539_1" arrivalPos="151.98" arrivalSpeed="6.11" duration="109.00" routeLength="919.89" waitingTime="0.00" waitingCount="0" stopTime="0.00" timeLoss="13.30" rerouteNo="1" devices="tripinfo_randUni15030:1 routing_randUni15030:1 emissions_randUni15030:1" vType="random_016" speedFactor="0.87" vaporized="">
        <emissions CO_abs="4052.612092" CO2_abs="218777.994755" HC_abs="23.478523" PMx_abs="3.402556" NOx_abs="87.094330" fuel_abs="94.044531" electricity_abs="0"/>
    </tripinfo>
    <tripinfo id="carIn8642:1" depart="57774.00" departLane="-447569998#1_1" departPos="5.10" departSpeed="0.00" departDelay="0.90" arrival="57844.00" arrivalLane="-315358244_2" arrivalPos="33.95" arrivalSpeed="13.02" duration="70.00" routeLength="706.49" waitingTime="0.00" waitingCount="0" stopTime="0.00" timeLoss="9.98" rerouteNo="1" devices="tripinfo_carIn8642:1 routing_carIn8642:1 emissions_carIn8642:1" vType="default_016" speedFactor="1.01" vaporized="">
        <emissions CO_abs="2846.335244" CO2_abs="174117.799107" HC_abs="17.012494" PMx_abs="2.995033" NOx_abs="70.727044" fuel_abs="74.846052" electricity_abs="0"/>
    </tripinfo>
    <tripinfo id="h9563c2:5" depart="57631.00" departLane="315358244_1" departPos="5.10" departSpeed="0.00" departDelay="0.70" arrival="57847.00" arrivalLane="386687235_1" arrivalPos="80.84" arrivalSpeed="13.20" duration="216.00" routeLength="1186.14" waitingTime="94.00" waitingCount="4" stopTime="0.00" timeLoss="126.85" rerouteNo="1" devices="tripinfo_h9563c2:5 routing_h9563c2:5 emissions_h9563c2:5" vType="default_016" speedFactor="0.97" vaporized="">
        <emissions CO_abs="17993.201802" CO2_abs="515928.997107" HC_abs="94.017920" PMx_abs="10.494228" NOx_abs="219.910310" fuel_abs="221.782300" electricity_abs="0"/>
    </tripinfo>
    <tripinfo id="carIn50326:1" depart="57651.00" departLane="128361102#0_1" departPos="5.10" departSpeed="0.00" departDelay="0.30" arrival="57847.00" arrivalLane="18809673#0_1" arrivalPos="473.56" arrivalSpeed="11.19" duration="196.00" routeLength="1591.07" waitingTime="28.00" waitingCount="1" stopTime="0.00" timeLoss="48.68" rerouteNo="1" devices="tripinfo_carIn50326:1 routing_carIn50326:1 emissions_carIn50326:1" vType="default_016" speedFactor="0.88" vaporized="">
        <emissions CO_abs="9351.235423" CO2_abs="413223.177553" HC_abs="52.143077" PMx_abs="7.008202" NOx_abs="167.536946" fuel_abs="177.629929" electricity_abs="0"/>
    </tripinfo>
    <tripinfo id="h17600c1:1" depart="57662.00" departLane="272042143_1" departPos="5.10" departSpeed="0.00" departDelay="0.30" arrival="57853.00" arrivalLane="201238729#3_1" arrivalPos="431.02" arrivalSpeed="12.53" duration="191.00" routeLength="2100.26" waitingTime="10.00" waitingCount="2" stopTime="0.00" timeLoss="34.07" rerouteNo="1" devices="tripinfo_h17600c1:1 routing_h17600c1:1 emissions_h17600c1:1" vType="default_016" speedFactor="0.96" vaporized="">
        <emissions CO_abs="5475.425055" CO2_abs="420120.543616" HC_abs="34.753954" PMx_abs="6.860611" NOx_abs="166.806126" fuel_abs="180.592005" electricity_abs="0"/>
    </tripinfo>
    <tripinfo id="randUni31145:1" depart="57814.00" departLane="10425609#0_1" departPos="5.10" departSpeed="0.00" departDelay="0.30" arrival="57855.00" arrivalLane="201956810_1" arrivalPos="71.65" arrivalSpeed="13.40" duration="41.00" routeLength="255.78" waitingTime="10.00" waitingCount="1" stopTime="0.00" timeLoss="20.66" rerouteNo="1" devices="tripinfo_randUni31145:1 routing_randUni31145:1 emissions_randUni31145:1" vType="random_016" speedFactor="0.99" vaporized="">
        <emissions CO_abs="2815.050625" CO2_abs="120473.262342" HC_abs="15.667801" PMx_abs="2.396360" NOx_abs="51.376378" fuel_abs="51.786676" electricity_abs="0"/>
    </tripinfo>
    <tripinfo id="randUni2407:1" depart="57820.00" departLane="10425609#0_1" departPos="5.10" departSpeed="0.00" departDelay="0.80" arrival="57857.00" arrivalLane="201956810_1" arrivalPos="71.65" arrivalSpeed="14.31" duration="37.00" routeLength="255.78" waitingTime="6.00" waitingCount="1" stopTime="0.00" timeLoss="17.69" rerouteNo="1" devices="tripinfo_randUni2407:1 routing_randUni2407:1 emissions_randUni2407:1" vType="random_016" speedFactor="1.06" vaporized="">
        <emissions CO_abs="2557.301599" CO2_abs="116638.701690" HC_abs="14.400989" PMx_abs="2.279113" NOx_abs="49.456143" fuel_abs="50.138271" electricity_abs="0"/>
    </tripinfo>
    <tripinfo id="carIn100288:1" depart="57664.00" departLane="128361102#0_1" departPos="5.10" departSpeed="0.00" departDelay="0.60" arrival="57861.00" arrivalLane="201956811#0_1" arrivalPos="40.40" arrivalSpeed="13.39" duration="197.00" routeLength="2067.33" waitingTime="15.00" waitingCount="2" stopTime="0.00" timeLoss="43.09" rerouteNo="1" devices="tripinfo_carIn100288:1 routing_carIn100288:1 emissions_carIn100288:1" vType="default_016" speedFactor="0.98" vaporized="">
        <emissions CO_abs="7603.776928" CO2_abs="482977.110409" HC_abs="45.886040" PMx_abs="7.977259" NOx_abs="192.386404" fuel_abs="207.612355" electricity_abs="0"/>
    </tripinfo>
    <tripinfo id="carIn107084:1" depart="57601.00" departLane="124812856#0_1" departPos="5.10" departSpeed="0.00" departDelay="0.70" arrival="57864.00" arrivalLane="-128361102#1_1" arrivalPos="274.68" arrivalSpeed="10.40" duration="263.00" routeLength="2232.46" waitingTime="30.00" waitingCount="3" stopTime="0.00" timeLoss="60.73" rerouteNo="1" devices="tripinfo_carIn107084:1 routing_carIn107084:1 emissions_carIn107084:1" vType="default_016" speedFactor="0.81" vaporized="">
        <emissions CO_abs="10042.617553" CO2_abs="535608.364007" HC_abs="58.098085" PMx_abs="8.630877" NOx_abs="214.326154" fuel_abs="230.237867" electricity_abs="0"/>
    </tripinfo>
    <tripinfo id="carIn77438:1" depart="57614.00" departLane="124812856#0_1" departPos="5.10" departSpeed="0.00" departDelay="1.10" arrival="57866.00" arrivalLane="-128361102#1_1" arrivalPos="274.68" arrivalSpeed="12.63" duration="252.00" routeLength="2232.46" waitingTime="19.00" waitingCount="3" stopTime="0.00" timeLoss="118.54" rerouteNo="1" devices="tripinfo_carIn77438:1 routing_carIn77438:1 emissions_carIn77438:1" vType="default_016" speedFactor="1.22" vaporized="">
        <emissions CO_abs="10603.987090" CO2_abs="627485.140499" HC_abs="63.048042" PMx_abs="11.377384" NOx_abs="259.478302" fuel_abs="269.729283" electricity_abs="0"/>
    </tripinfo>