<?xml version="1.0" encoding="UTF-8"?>

<!-- generated on 2021-10-26 19:35:45 by Eclipse SUMO sumo Version 1.10.0
<configuration xmlns:xsi="http://www.w3.org/2001/XMLSchema-instance" xsi:noNamespaceSchemaLocation="http://sumo.dlr.de/xsd/sumoConfiguration.xsd">

    <input>
        <net-file value="/Users/behradkoohy/sumo-scratchpad/RESCO/environments/ingolstadt21/ingolstadt21.net.xml"/>
        <route-files value="/Users/behradkoohy/sumo-scratchpad/RESCO/environments/ingolstadt21/ingolstadt21.rou.xml"/>
    </input>

    <output>
        <tripinfo-output value="/Users/behradkoohy/sumo-scratchpad/RESCO/logs/MPLight-tr0-ingolstadt21-21-mplight-pressure/tripinfo_33.xml"/>
        <tripinfo-output.write-unfinished value="true"/>
    </output>

    <time>
        <begin value="57600"/>
        <end value="61200"/>
    </time>

    <processing>
        <time-to-teleport value="-1"/>
    </processing>

    <report>
        <no-warnings value="true"/>
        <no-step-log value="true"/>
    </report>

    <emissions>
        <device.emissions.probability value="1"/>
    </emissions>

    <traci_server>
        <remote-port value="63609"/>
    </traci_server>

    <random_number>
        <random value="true"/>
    </random_number>

</configuration>
-->

<tripinfos xmlns:xsi="http://www.w3.org/2001/XMLSchema-instance" xsi:noNamespaceSchemaLocation="http://sumo.dlr.de/xsd/tripinfo_file.xsd">
    <tripinfo id="h15454c2:3" depart="57612.00" departLane="24608844_1" departPos="5.10" departSpeed="0.00" departDelay="0.50" arrival="57658.00" arrivalLane="32978638#0_1" arrivalPos="49.29" arrivalSpeed="13.30" duration="46.00" routeLength="354.79" waitingTime="1.00" waitingCount="1" stopTime="0.00" timeLoss="10.66" rerouteNo="1" devices="tripinfo_h15454c2:3 routing_h15454c2:3 emissions_h15454c2:3" vType="default_016" speedFactor="0.99" vaporized="">
        <emissions CO_abs="2446.060625" CO2_abs="124074.210735" HC_abs="14.036209" PMx_abs="2.210580" NOx_abs="51.299535" fuel_abs="53.334581" electricity_abs="0"/>
    </tripinfo>
    <tripinfo id="carIn60260:1" depart="57606.00" departLane="315358254#0_1" departPos="5.10" departSpeed="0.00" departDelay="0.90" arrival="57666.00" arrivalLane="399835085#1_1" arrivalPos="212.23" arrivalSpeed="7.25" duration="60.00" routeLength="430.98" waitingTime="1.00" waitingCount="1" stopTime="0.00" timeLoss="9.76" rerouteNo="1" devices="tripinfo_carIn60260:1 routing_carIn60260:1 emissions_carIn60260:1" vType="default_016" speedFactor="0.91" vaporized="">
        <emissions CO_abs="2732.743204" CO2_abs="125181.355613" HC_abs="15.328695" PMx_abs="2.090403" NOx_abs="51.097409" fuel_abs="53.810914" electricity_abs="0"/>
    </tripinfo>
    <tripinfo id="carIn53971:1" depart="57640.00" departLane="272042143_1" departPos="5.10" departSpeed="0.00" departDelay="0.80" arrival="57689.00" arrivalLane="24634414#1_1" arrivalPos="162.19" arrivalSpeed="8.86" duration="49.00" routeLength="493.04" waitingTime="0.00" waitingCount="0" stopTime="0.00" timeLoss="7.33" rerouteNo="1" devices="tripinfo_carIn53971:1 routing_carIn53971:1 emissions_carIn53971:1" vType="default_016" speedFactor="1.10" vaporized="">
        <emissions CO_abs="2346.990744" CO2_abs="137350.093686" HC_abs="13.933603" PMx_abs="2.568127" NOx_abs="57.303792" fuel_abs="59.040890" electricity_abs="0"/>
    </tripinfo>
    <tripinfo id="carIn22761:1" depart="57616.00" departLane="-306240162#1_0" departPos="5.10" departSpeed="0.00" departDelay="2.10" arrival="57721.00" arrivalLane="399835085#1_1" arrivalPos="212.23" arrivalSpeed="8.79" duration="105.00" routeLength="1093.26" waitingTime="8.00" waitingCount="2" stopTime="0.00" timeLoss="31.90" rerouteNo="1" devices="tripinfo_carIn22761:1 routing_carIn22761:1 emissions_carIn22761:1" vType="default_016" speedFactor="1.06" vaporized="">
        <emissions CO_abs="6275.902998" CO2_abs="352729.521501" HC_abs="36.966230" PMx_abs="6.888940" NOx_abs="147.365359" fuel_abs="151.623168" electricity_abs="0"/>
    </tripinfo>
    <tripinfo id="h7800c1:5" depart="57696.00" departLane="-447569998#1_1" departPos="5.10" departSpeed="0.00" departDelay="0.00" arrival="57725.00" arrivalLane="-447569998#1_2" arrivalPos="180.76" arrivalSpeed="4.47" duration="29.00" routeLength="175.66" waitingTime="0.00" waitingCount="0" stopTime="0.00" timeLoss="8.26" rerouteNo="1" devices="tripinfo_h7800c1:5 routing_h7800c1:5 emissions_h7800c1:5" vType="default_016" speedFactor="1.03" vaporized="">
        <emissions CO_abs="1388.037404" CO2_abs="56327.605000" HC_abs="7.616849" PMx_abs="0.960451" NOx_abs="23.172385" fuel_abs="24.213289" electricity_abs="0"/>
    </tripinfo>
    <tripinfo id="h12244c1:3" depart="57612.00" departLane="315358244_1" departPos="5.10" departSpeed="0.00" departDelay="0.40" arrival="57726.00" arrivalLane="386687235_1" arrivalPos="80.84" arrivalSpeed="12.87" duration="114.00" routeLength="1186.14" waitingTime="14.00" waitingCount="1" stopTime="0.00" timeLoss="26.22" rerouteNo="1" devices="tripinfo_h12244c1:3 routing_h12244c1:3 emissions_h12244c1:3" vType="default_016" speedFactor="0.99" vaporized="">
        <emissions CO_abs="3955.845537" CO2_abs="259246.577090" HC_abs="24.035622" PMx_abs="4.160328" NOx_abs="102.004281" fuel_abs="111.439760" electricity_abs="0"/>
    </tripinfo>
    <tripinfo id="h4538c1:1" depart="57701.00" departLane="-10427692#1_1" departPos="5.10" departSpeed="0.00" departDelay="0.00" arrival="57743.00" arrivalLane="-128361102#1_1" arrivalPos="274.68" arrivalSpeed="12.01" duration="42.00" routeLength="440.74" waitingTime="0.00" waitingCount="0" stopTime="0.00" timeLoss="6.80" rerouteNo="1" devices="tripinfo_h4538c1:1 routing_h4538c1:1 emissions_h4538c1:1" vType="default_016" speedFactor="0.91" vaporized="">
        <emissions CO_abs="1470.138601" CO2_abs="97943.922333" HC_abs="8.972216" PMx_abs="1.590130" NOx_abs="39.097961" fuel_abs="42.102090" electricity_abs="0"/>
    </tripinfo>
    <tripinfo id="h3688c1:1" depart="57625.00" departLane="201201950#1_1" departPos="5.10" departSpeed="0.00" departDelay="0.00" arrival="57744.00" arrivalLane="32978638#0_1" arrivalPos="49.29" arrivalSpeed="13.44" duration="119.00" routeLength="1089.75" waitingTime="24.00" waitingCount="2" stopTime="0.00" timeLoss="41.52" rerouteNo="1" devices="tripinfo_h3688c1:1 routing_h3688c1:1 emissions_h3688c1:1" vType="default_016" speedFactor="1.03" vaporized="">
        <emissions CO_abs="7069.210690" CO2_abs="328582.075404" HC_abs="39.822317" PMx_abs="6.104701" NOx_abs="135.608917" fuel_abs="141.244697" electricity_abs="0"/>
    </tripinfo>
    <tripinfo id="h5979c1:5" depart="57669.00" departLane="399835085#1_1" departPos="5.10" departSpeed="0.00" departDelay="0.00" arrival="57747.00" arrivalLane="-315358254#1_1" arrivalPos="137.16" arrivalSpeed="14.06" duration="78.00" routeLength="659.33" waitingTime="0.00" waitingCount="0" stopTime="0.00" timeLoss="9.01" rerouteNo="1" devices="tripinfo_h5979c1:5 routing_h5979c1:5 emissions_h5979c1:5" vType="default_016" speedFactor="1.06" vaporized="">
        <emissions CO_abs="3221.318832" CO2_abs="178250.340834" HC_abs="18.773274" PMx_abs="2.845822" NOx_abs="71.443209" fuel_abs="76.623015" electricity_abs="0"/>
    </tripinfo>
    <tripinfo id="S5R_frequency1.2" depart="57615.00" departLane="315358250#0_1" departPos="12.10" departSpeed="0.00" departDelay="3.40" arrival="57751.00" arrivalLane="386687235_1" arrivalPos="80.84" arrivalSpeed="13.64" duration="136.00" routeLength="1115.62" waitingTime="22.00" waitingCount="2" stopTime="0.00" timeLoss="54.42" rerouteNo="1" devices="tripinfo_S5R_frequency1.2 routing_S5R_frequency1.2 emissions_S5R_frequency1.2" vType="bus" speedFactor="1.00" vaporized="">
        <emissions CO_abs="2627.083120" CO2_abs="1555725.442183" HC_abs="545.402887" PMx_abs="278.690308" NOx_abs="12333.372551" fuel_abs="663.454671" electricity_abs="0"/>
    </tripinfo>
    <tripinfo id="h9563c2:5" depart="57631.00" departLane="315358244_1" departPos="5.10" departSpeed="0.00" departDelay="0.70" arrival="57753.00" arrivalLane="386687235_1" arrivalPos="80.84" arrivalSpeed="14.78" duration="122.00" routeLength="1186.14" waitingTime="17.00" waitingCount="2" stopTime="0.00" timeLoss="44.70" rerouteNo="1" devices="tripinfo_h9563c2:5 routing_h9563c2:5 emissions_h9563c2:5" vType="default_016" speedFactor="1.12" vaporized="">
        <emissions CO_abs="6034.491462" CO2_abs="295171.529752" HC_abs="34.278702" PMx_abs="5.357113" NOx_abs="120.330529" fuel_abs="126.882782" electricity_abs="0"/>
    </tripinfo>
    <tripinfo id="carIn121703:1" depart="57647.00" departLane="386687232#0_1" departPos="5.10" departSpeed="0.00" departDelay="0.30" arrival="57754.00" arrivalLane="-315358244_1" arrivalPos="33.95" arrivalSpeed="11.36" duration="107.00" routeLength="1157.39" waitingTime="0.00" waitingCount="0" stopTime="0.00" timeLoss="8.54" rerouteNo="1" devices="tripinfo_carIn121703:1 routing_carIn121703:1 emissions_carIn121703:1" vType="default_016" speedFactor="0.86" vaporized="">
        <emissions CO_abs="2726.267413" CO2_abs="219463.592176" HC_abs="17.478597" PMx_abs="3.242779" NOx_abs="85.223144" fuel_abs="94.338467" electricity_abs="0"/>
    </tripinfo>
    <tripinfo id="carIn80064:1" depart="57603.00" departLane="128361109#1_1" departPos="5.10" departSpeed="0.00" departDelay="0.40" arrival="57757.00" arrivalLane="-315358254#1_1" arrivalPos="137.16" arrivalSpeed="14.60" duration="154.00" routeLength="1587.97" waitingTime="26.00" waitingCount="4" stopTime="0.00" timeLoss="71.86" rerouteNo="1" devices="tripinfo_carIn80064:1 routing_carIn80064:1 emissions_carIn80064:1" vType="default_016" speedFactor="1.09" vaporized="">
        <emissions CO_abs="9787.101719" CO2_abs="537711.664162" HC_abs="57.455619" PMx_abs="11.008066" NOx_abs="226.419410" fuel_abs="231.138560" electricity_abs="0"/>
    </tripinfo>
    <tripinfo id="h3568c1:3" depart="57656.00" departLane="266565295#5_1" departPos="5.10" departSpeed="0.00" departDelay="0.80" arrival="57757.00" arrivalLane="-24634415_1" arrivalPos="62.03" arrivalSpeed="12.35" duration="101.00" routeLength="807.40" waitingTime="17.00" waitingCount="1" stopTime="0.00" timeLoss="33.55" rerouteNo="1" devices="tripinfo_h3568c1:3 routing_h3568c1:3 emissions_h3568c1:3" vType="default_016" speedFactor="0.96" vaporized="">
        <emissions CO_abs="6017.090941" CO2_abs="273975.714591" HC_abs="33.809580" PMx_abs="4.979819" NOx_abs="113.173725" fuel_abs="117.771744" electricity_abs="0"/>
    </tripinfo>
    <tripinfo id="h317c2:1" depart="57707.00" departLane="-32978638#0_1" departPos="5.10" departSpeed="0.00" departDelay="0.10" arrival="57757.00" arrivalLane="-266565295#5_1" arrivalPos="172.76" arrivalSpeed="12.16" duration="50.00" routeLength="370.53" waitingTime="10.00" waitingCount="1" stopTime="0.00" timeLoss="19.08" rerouteNo="1" devices="tripinfo_h317c2:1 routing_h317c2:1 emissions_h317c2:1" vType="default_016" speedFactor="0.88" vaporized="">
        <emissions CO_abs="2680.760532" CO2_abs="122779.884037" HC_abs="15.077941" PMx_abs="2.227614" NOx_abs="50.792843" fuel_abs="52.778387" electricity_abs="0"/>
    </tripinfo>
    <tripinfo id="h3326c1:2" depart="57656.00" departLane="22716069#0_1" departPos="5.10" departSpeed="0.00" departDelay="0.00" arrival="57766.00" arrivalLane="24634517#13_1" arrivalPos="111.62" arrivalSpeed="14.06" duration="110.00" routeLength="1312.81" waitingTime="0.00" waitingCount="0" stopTime="0.00" timeLoss="14.54" rerouteNo="1" devices="tripinfo_h3326c1:2 routing_h3326c1:2 emissions_h3326c1:2" vType="default_016" speedFactor="1.02" vaporized="">
        <emissions CO_abs="4096.503426" CO2_abs="309341.576588" HC_abs="25.908260" PMx_abs="5.313328" NOx_abs="124.554975" fuel_abs="132.972472" electricity_abs="0"/>
    </tripinfo>
    <tripinfo id="h3154c1:1" depart="57658.00" departLane="24634507_1" departPos="5.10" departSpeed="0.00" departDelay="0.00" arrival="57767.00" arrivalLane="-266565295#5_1" arrivalPos="172.76" arrivalSpeed="13.60" duration="109.00" routeLength="1206.22" waitingTime="1.00" waitingCount="1" stopTime="0.00" timeLoss="20.17" rerouteNo="1" devices="tripinfo_h3154c1:1 routing_h3154c1:1 emissions_h3154c1:1" vType="default_016" speedFactor="1.01" vaporized="">
        <emissions CO_abs="4580.432691" CO2_abs="313619.296357" HC_abs="28.219482" PMx_abs="5.563142" NOx_abs="127.878225" fuel_abs="134.811324" electricity_abs="0"/>
    </tripinfo>
    <tripinfo id="carIn30817:1" depart="57681.00" departLane="315358244_1" departPos="5.10" departSpeed="0.00" departDelay="0.20" arrival="57770.00" arrivalLane="447569997#1_1" arrivalPos="180.93" arrivalSpeed="7.40" duration="89.00" routeLength="718.04" waitingTime="11.00" waitingCount="1" stopTime="0.00" timeLoss="22.05" rerouteNo="1" devices="tripinfo_carIn30817:1 routing_carIn30817:1 emissions_carIn30817:1" vType="default_016" speedFactor="0.92" vaporized="">
        <emissions CO_abs="3924.119606" CO2_abs="187374.418142" HC_abs="22.230752" PMx_abs="3.281620" NOx_abs="76.862979" fuel_abs="80.545138" electricity_abs="0"/>
    </tripinfo>
    <tripinfo id="h7181c1:1" depart="57660.00" departLane="315358254#0_1" departPos="5.10" departSpeed="0.00" departDelay="0.10" arrival="57784.00" arrivalLane="306240162#0_0" arrivalPos="220.43" arrivalSpeed="12.64" duration="124.00" routeLength="932.35" waitingTime="44.00" waitingCount="2" stopTime="0.00" timeLoss="60.12" rerouteNo="1" devices="tripinfo_h7181c1:1 routing_h7181c1:1 emissions_h7181c1:1" vType="default_016" speedFactor="0.80" vaporized="">
        <emissions CO_abs="8238.775205" CO2_abs="307799.363023" HC_abs="44.713056" PMx_abs="6.039459" NOx_abs="128.985229" fuel_abs="132.311927" electricity_abs="0"/>
    </tripinfo>
    <tripinfo id="carIn27009:1" depart="57673.00" departLane="-447569998#1_1" departPos="5.10" departSpeed="0.00" departDelay="0.50" arrival="57791.00" arrivalLane="-26677539_1" arrivalPos="152.75" arrivalSpeed="8.74" duration="118.00" routeLength="699.63" waitingTime="25.00" waitingCount="1" stopTime="0.00" timeLoss="38.43" rerouteNo="1" devices="tripinfo_carIn27009:1 routing_carIn27009:1 emissions_carIn27009:1" vType="default_015" speedFactor="1.06" vaporized="">
        <emissions CO_abs="7493.031456" CO2_abs="250041.517827" HC_abs="39.925961" PMx_abs="4.713991" NOx_abs="105.418606" fuel_abs="107.484689" electricity_abs="0"/>
    </tripinfo>
    <tripinfo id="carIn107282:1" depart="57749.00" departLane="-447569998#1_1" departPos="5.10" departSpeed="0.00" departDelay="0.00" arrival="57793.00" arrivalLane="315358242#0_1" arrivalPos="165.37" arrivalSpeed="13.59" duration="44.00" routeLength="448.50" waitingTime="0.00" waitingCount="0" stopTime="0.00" timeLoss="4.44" rerouteNo="1" devices="tripinfo_carIn107282:1 routing_carIn107282:1 emissions_carIn107282:1" vType="default_016" speedFactor="1.07" vaporized="">
        <emissions CO_abs="1580.327477" CO2_abs="106793.039787" HC_abs="9.662733" PMx_abs="1.699854" NOx_abs="42.226751" fuel_abs="45.906013" electricity_abs="0"/>
    </tripinfo>
    <tripinfo id="h330c1:1" depart="57736.00" departLane="-32978638#0_1" departPos="5.10" departSpeed="0.00" departDelay="0.20" arrival="57801.00" arrivalLane="-266565295#5_1" arrivalPos="172.76" arrivalSpeed="9.68" duration="65.00" routeLength="370.53" waitingTime="21.00" waitingCount="1" stopTime="0.00" timeLoss="29.14" rerouteNo="1" devices="tripinfo_h330c1:1 routing_h330c1:1 emissions_h330c1:1" vType="default_016" speedFactor="0.77" vaporized="">
        <emissions CO_abs="4262.551518" CO2_abs="138864.005287" HC_abs="22.641786" PMx_abs="2.653724" NOx_abs="58.527106" fuel_abs="59.693162" electricity_abs="0"/>
    </tripinfo>
    <tripinfo id="carIn12365:1" depart="57713.00" departLane="315358244_1" departPos="5.10" departSpeed="0.00" departDelay="0.50" arrival="57811.00" arrivalLane="447569997#1_1" arrivalPos="180.93" arrivalSpeed="7.41" duration="98.00" routeLength="718.04" waitingTime="21.00" waitingCount="2" stopTime="0.00" timeLoss="37.14" rerouteNo="1" devices="tripinfo_carIn12365:1 routing_carIn12365:1 emissions_carIn12365:1" vType="default_016" speedFactor="1.01" vaporized="">
        <emissions CO_abs="5322.143762" CO2_abs="223178.306729" HC_abs="29.439850" PMx_abs="4.035559" NOx_abs="92.039394" fuel_abs="95.936263" electricity_abs="0"/>
    </tripinfo>
    <tripinfo id="carIn129809:1" depart="57729.00" departLane="-447569998#1_1" departPos="5.10" departSpeed="0.00" departDelay="1.00" arrival="57813.00" arrivalLane="-315358244_1" arrivalPos="33.95" arrivalSpeed="14.02" duration="84.00" routeLength="706.49" waitingTime="12.00" waitingCount="2" stopTime="0.00" timeLoss="26.84" rerouteNo="1" devices="tripinfo_carIn129809:1 routing_carIn129809:1 emissions_carIn129809:1" vType="default_015" speedFactor="1.06" vaporized="">
        <emissions CO_abs="3514.381676" CO2_abs="201294.351863" HC_abs="20.622606" PMx_abs="3.498258" NOx_abs="81.691243" fuel_abs="86.528285" electricity_abs="0"/>
    </tripinfo>
    <tripinfo id="carIn118591:1" depart="57689.00" departLane="315358244_1" departPos="5.10" departSpeed="0.00" departDelay="0.20" arrival="57820.00" arrivalLane="386687235_1" arrivalPos="80.84" arrivalSpeed="12.34" duration="131.00" routeLength="1186.14" waitingTime="22.00" waitingCount="2" stopTime="0.00" timeLoss="41.72" rerouteNo="1" devices="tripinfo_carIn118591:1 routing_carIn118591:1 emissions_carIn118591:1" vType="default_016" speedFactor="0.98" vaporized="">
        <emissions CO_abs="6199.712314" CO2_abs="314028.708560" HC_abs="35.540722" PMx_abs="5.475919" NOx_abs="127.386564" fuel_abs="134.988843" electricity_abs="0"/>
    </tripinfo>
    <tripinfo id="h11737c1:1" depart="57665.00" departLane="272042143_1" departPos="5.10" departSpeed="0.00" departDelay="1.50" arrival="57821.00" arrivalLane="-315358254#1_1" arrivalPos="137.16" arrivalSpeed="12.41" duration="156.00" routeLength="1596.88" waitingTime="7.00" waitingCount="1" stopTime="0.00" timeLoss="25.96" rerouteNo="1" devices="tripinfo_h11737c1:1 routing_h11737c1:1 emissions_h11737c1:1" vType="default_016" speedFactor="0.90" vaporized="">
        <emissions CO_abs="4811.417245" CO2_abs="338612.538172" HC_abs="29.762087" PMx_abs="5.306467" NOx_abs="133.503733" fuel_abs="145.555800" electricity_abs="0"/>
    </tripinfo>
    <tripinfo id="carIn126288:1" depart="57674.00" departLane="272042143_1" departPos="5.10" departSpeed="0.00" departDelay="0.00" arrival="57823.00" arrivalLane="-315358254#1_1" arrivalPos="137.16" arrivalSpeed="13.03" duration="149.00" routeLength="1596.88" waitingTime="3.00" waitingCount="1" stopTime="0.00" timeLoss="25.00" rerouteNo="1" devices="tripinfo_carIn126288:1 routing_carIn126288:1 emissions_carIn126288:1" vType="default_016" speedFactor="0.94" vaporized="">
        <emissions CO_abs="5063.080183" CO2_abs="363007.748290" HC_abs="31.525859" PMx_abs="5.948484" NOx_abs="144.864840" fuel_abs="156.041826" electricity_abs="0"/>
    </tripinfo>
    <tripinfo id="carIn50326:1" depart="57651.00" departLane="128361102#0_1" departPos="5.10" departSpeed="0.00" departDelay="0.30" arrival="57828.00" arrivalLane="18809673#0_1" arrivalPos="473.56" arrivalSpeed="14.89" duration="177.00" routeLength="1591.07" waitingTime="37.00" waitingCount="2" stopTime="0.00" timeLoss="64.10" rerouteNo="1" devices="tripinfo_carIn50326:1 routing_carIn50326:1 emissions_carIn50326:1" vType="default_016" speedFactor="1.15" vaporized="">
        <emissions CO_abs="9866.154702" CO2_abs="466185.824135" HC_abs="55.663271" PMx_abs="8.390522" NOx_abs="189.708736" fuel_abs="200.395576" electricity_abs="0"/>
    </tripinfo>
    <tripinfo id="carIn86816:1" depart="57617.00" departLane="128361102#0_1" departPos="5.10" departSpeed="0.00" departDelay="0.80" arrival="57832.00" arrivalLane="201956811#0_1" arrivalPos="40.40" arrivalSpeed="11.76" duration="215.00" routeLength="2067.33" waitingTime="20.00" waitingCount="2" stopTime="0.00" timeLoss="46.22" rerouteNo="1" devices="tripinfo_carIn86816:1 routing_carIn86816:1 emissions_carIn86816:1" vType="default_016" speedFactor="0.89" vaporized="">
        <emissions CO_abs="8452.419580" CO2_abs="481362.988464" HC_abs="49.689032" PMx_abs="8.038391" NOx_abs="193.595210" fuel_abs="206.918990" electricity_abs="0"/>
    </tripinfo>
    <tripinfo id="carIn12152:1" depart="57647.00" departLane="24599188#0.94_1" departPos="5.10" departSpeed="0.00" departDelay="0.50" arrival="57837.00" arrivalLane="-315358254#1_1" arrivalPos="137.16" arrivalSpeed="13.42" duration="190.00" routeLength="2034.31" waitingTime="6.00" waitingCount="2" stopTime="0.00" timeLoss="29.71" rerouteNo="1" devices="tripinfo_carIn12152:1 routing_carIn12152:1 emissions_carIn12152:1" vType="default_016" speedFactor="0.99" vaporized="">
        <emissions CO_abs="6038.632781" CO2_abs="441646.242712" HC_abs="37.756524" PMx_abs="7.094046" NOx_abs="174.793394" fuel_abs="189.845385" electricity_abs="0"/>
    </tripinfo>
    <tripinfo id="carIn8642:1" depart="57774.00" departLane="-447569998#1_1" departPos="5.10" departSpeed="0.00" departDelay="0.90" arrival="57839.00" arrivalLane="-315358244_1" arrivalPos="33.95" arrivalSpeed="13.82" duration="65.00" routeLength="706.49" waitingTime="0.00" waitingCount="0" stopTime="0.00" timeLoss="6.85" rerouteNo="1" devices="tripinfo_carIn8642:1 routing_carIn8642:1 emissions_carIn8642:1" vType="default_016" speedFactor="1.04" vaporized="">
        <emissions CO_abs="2017.968942" CO2_abs="143170.200053" HC_abs="12.486697" PMx_abs="2.212096" NOx_abs="56.050557" fuel_abs="61.543114" electricity_abs="0"/>
    </tripinfo>
    <tripinfo id="carIn12775:1" depart="57676.00" departLane="10425609#0_1" departPos="5.10" departSpeed="0.00" departDelay="0.60" arrival="57841.00" arrivalLane="18809673#0_1" arrivalPos="473.56" arrivalSpeed="14.27" duration="165.00" routeLength="1959.45" waitingTime="6.00" waitingCount="1" stopTime="0.00" timeLoss="25.25" rerouteNo="1" devices="tripinfo_carIn12775:1 routing_carIn12775:1 emissions_carIn12775:1" vType="default_016" speedFactor="1.05" vaporized="">
        <emissions CO_abs="4898.775606" CO2_abs="416990.898560" HC_abs="31.988575" PMx_abs="6.700380" NOx_abs="163.726177" fuel_abs="179.246515" electricity_abs="0"/>
    </tripinfo>
    <tripinfo id="carIn73855:1" depart="57743.00" departLane="386687232#0_1" departPos="5.10" departSpeed="0.00" departDelay="0.50" arrival="57842.00" arrivalLane="-315358244_1" arrivalPos="33.95" arrivalSpeed="14.43" duration="99.00" routeLength="1157.39" waitingTime="5.00" waitingCount="1" stopTime="0.00" timeLoss="22.80" rerouteNo="1" devices="tripinfo_carIn73855:1 routing_carIn73855:1 emissions_carIn73855:1" vType="default_016" speedFactor="1.11" vaporized="">
        <emissions CO_abs="3641.083766" CO2_abs="275000.803207" HC_abs="22.817993" PMx_abs="4.677948" NOx_abs="109.595262" fuel_abs="118.210984" electricity_abs="0"/>
    </tripinfo>
    <tripinfo id="carIn107084:1" depart="57601.00" departLane="124812856#0_1" departPos="5.10" departSpeed="0.00" departDelay="0.70" arrival="57844.00" arrivalLane="-128361102#1_1" arrivalPos="274.68" arrivalSpeed="10.54" duration="243.00" routeLength="2232.46" waitingTime="16.00" waitingCount="1" stopTime="0.00" timeLoss="37.98" rerouteNo="1" devices="tripinfo_carIn107084:1 routing_carIn107084:1 emissions_carIn107084:1" vType="default_016" speedFactor="0.80" vaporized="">
        <emissions CO_abs="8143.641038" CO2_abs="467385.634255" HC_abs="47.852911" PMx_abs="7.306316" NOx_abs="185.452177" fuel_abs="200.911310" electricity_abs="0"/>
    </tripinfo>
    <tripinfo id="carIn28951:1" depart="57606.00" departLane="10425609#0_1" departPos="5.10" departSpeed="0.00" departDelay="0.20" arrival="57846.00" arrivalLane="-128361102#1_1" arrivalPos="274.68" arrivalSpeed="13.64" duration="240.00" routeLength="2095.01" waitingTime="23.00" waitingCount="2" stopTime="0.00" timeLoss="108.08" rerouteNo="1" devices="tripinfo_carIn28951:1 routing_carIn28951:1 emissions_carIn28951:1" vType="default_016" speedFactor="1.17" vaporized="">
        <emissions CO_abs="10447.129891" CO2_abs="547423.920868" HC_abs="60.398048" PMx_abs="9.846761" NOx_abs="226.150489" fuel_abs="235.315470" electricity_abs="0"/>
    </tripinfo>
    <tripinfo id="randUni15030:1" depart="57735.00" departLane="386687232#0_1" departPos="5.10" departSpeed="0.00" departDelay="0.10" arrival="57847.00" arrivalLane="26677539_1" arrivalPos="151.98" arrivalSpeed="6.63" duration="112.00" routeLength="919.89" waitingTime="6.00" waitingCount="1" stopTime="0.00" timeLoss="20.41" rerouteNo="1" devices="tripinfo_randUni15030:1 routing_randUni15030:1 emissions_randUni15030:1" vType="random_016" speedFactor="0.91" vaporized="">
        <emissions CO_abs="4030.032170" CO2_abs="215723.323377" HC_abs="23.340903" PMx_abs="3.525612" NOx_abs="86.749311" fuel_abs="92.731234" electricity_abs="0"/>
    </tripinfo>
    <tripinfo id="carIn77943:1" depart="57608.00" departLane="124812856#0_1" departPos="5.10" departSpeed="0.00" departDelay="2.50" arrival="57848.00" arrivalLane="-128361102#1_1" arrivalPos="274.68" arrivalSpeed="10.79" duration="240.00" routeLength="2250.49" waitingTime="13.00" waitingCount="2" stopTime="0.00" timeLoss="46.35" rerouteNo="1" devices="tripinfo_carIn77943:1 routing_carIn77943:1 emissions_carIn77943:1" vType="default_016" speedFactor="0.85" vaporized="">
        <emissions CO_abs="9015.849731" CO2_abs="540048.138392" HC_abs="53.593407" PMx_abs="8.860228" NOx_abs="216.872714" fuel_abs="232.145194" electricity_abs="0"/>
    </tripinfo>
    <tripinfo id="carIn81046:1" depart="57611.00" departLane="124812856#0_1" departPos="5.10" departSpeed="0.00" departDelay="2.50" arrival="57850.00" arrivalLane="-128361102#1_1" arrivalPos="274.68" arrivalSpeed="14.43" duration="239.00" routeLength="2250.49" waitingTime="11.00" waitingCount="2" stopTime="0.00" timeLoss="85.25" rerouteNo="1" devices="tripinfo_carIn81046:1 routing_carIn81046:1 emissions_carIn81046:1" vType="default_016" speedFactor="1.07" vaporized="">
        <emissions CO_abs="9555.389106" CO2_abs="583002.483373" HC_abs="57.206897" PMx_abs="10.388350" NOx_abs="239.772616" fuel_abs="250.608112" electricity_abs="0"/>
    </tripinfo>
    <tripinfo id="h3864c1:3" depart="57678.00" departLane="24693977#1_1" departPos="5.10" departSpeed="0.00" departDelay="0.00" arrival="57850.00" arrivalLane="201956820_1" arrivalPos="48.33" arrivalSpeed="14.69" duration="172.00" routeLength="1574.85" waitingTime="21.00" waitingCount="3" stopTime="0.00" timeLoss="61.83" rerouteNo="1" devices="tripinfo_h3864c1:3 routing_h3864c1:3 emissions_h3864c1:3" vType="default_016" speedFactor="1.17" vaporized="">
        <emissions CO_abs="10290.720144" CO2_abs="537000.220805" HC_abs="59.533937" PMx_abs="10.494153" NOx_abs="226.347431" fuel_abs="230.833580" electricity_abs="0"/>
    </tripinfo>
    <tripinfo id="carIn77438:1" depart="57614.00" departLane="124812856#0_1" departPos="5.10" departSpeed="0.00" departDelay="1.10" arrival="57851.00" arrivalLane="-128361102#1_1" arrivalPos="274.68" arrivalSpeed="14.48" duration="237.00" routeLength="2250.49" waitingTime="6.00" waitingCount="2" stopTime="0.00" timeLoss="83.10" rerouteNo="1" devices="tripinfo_carIn77438:1 routing_carIn77438:1 emissions_carIn77438:1" vType="default_016" speedFactor="1.06" vaporized="">
        <emissions CO_abs="10949.030225" CO2_abs="668686.960970" HC_abs="65.634698" PMx_abs="12.383304" NOx_abs="278.242434" fuel_abs="287.439496" electricity_abs="0"/>
    </tripinfo>
    <tripinfo id="h16072c2:3" depart="57663.00" departLane="315358254#0_1" departPos="5.10" departSpeed="0.00" departDelay="2.50" arrival="57853.00" arrivalLane="386687235_1" arrivalPos="80.84" arrivalSpeed="14.69" duration="190.00" routeLength="1611.92" waitingTime="52.00" waitingCount="3" stopTime="0.00" timeLoss="81.55" rerouteNo="1" devices="tripinfo_h16072c2:3 routing_h16072c2:3 emissions_h16072c2:3" vType="default_016" speedFactor="1.08" vaporized="">
        <emissions CO_abs="11484.418347" CO2_abs="487189.799214" HC_abs="63.658491" PMx_abs="9.154213" NOx_abs="201.031952" fuel_abs="209.424793" electricity_abs="0"/>
    </tripinfo>
    <tripinfo id="randUni31145:1" depart="57814.00" departLane="10425609#0_1" departPos="5.10" departSpeed="0.00" departDelay="0.30" arrival="57853.00" arrivalLane="201956810_1" arrivalPos="71.65" arrivalSpeed="16.32" duration="39.00" routeLength="255.78" waitingTime="10.00" waitingCount="1" stopTime="0.00" timeLoss="22.39" rerouteNo="1" devices="tripinfo_randUni31145:1 routing_randUni31145:1 emissions_randUni31145:1" vType="random_016" speedFactor="1.21" vaporized="">
        <emissions CO_abs="3492.069979" CO2_abs="149530.679000" HC_abs="19.428858" PMx_abs="3.085400" NOx_abs="64.175988" fuel_abs="64.277161" electricity_abs="0"/>
    </tripinfo>
    <tripinfo id="carIn48184:1" depart="57613.00" departLane="-306240162#1_0" departPos="5.10" departSpeed="0.00" departDelay="0.70" arrival="57854.00" arrivalLane="386687235_1" arrivalPos="80.84" arrivalSpeed="13.17" duration="241.00" routeLength="2257.41" waitingTime="56.00" waitingCount="4" stopTime="0.00" timeLoss="97.68" rerouteNo="1" devices="tripinfo_carIn48184:1 routing_carIn48184:1 emissions_carIn48184:1" vType="default_016" speedFactor="1.04" vaporized="">
        <emissions CO_abs="14840.128396" CO2_abs="691287.499070" HC_abs="83.930339" PMx_abs="13.535165" NOx_abs="288.581177" fuel_abs="297.156766" electricity_abs="0"/>
    </tripinfo>
    <tripinfo id="h19804c1:3" depart="57617.00" departLane="124812856#0_1" departPos="5.10" departSpeed="0.00" departDelay="1.50" arrival="57854.00" arrivalLane="-128361102#1_1" arrivalPos="274.68" arrivalSpeed="11.02" duration="237.00" routeLength="2250.49" waitingTime="2.00" waitingCount="1" stopTime="0.00" timeLoss="43.35" rerouteNo="1" devices="tripinfo_h19804c1:3 routing_h19804c1:3 emissions_h19804c1:3" vType="default_016" speedFactor="0.85" vaporized="">
        <emissions CO_abs="8363.146919" CO2_abs="523514.842960" HC_abs="50.235104" PMx_abs="8.537999" NOx_abs="210.169472" fuel_abs="225.037916" electricity_abs="0"/>
    </tripinfo>