<?xml version="1.0" encoding="UTF-8"?>

<!-- generated on 2021-10-26 20:29:03 by Eclipse SUMO sumo Version 1.10.0
<configuration xmlns:xsi="http://www.w3.org/2001/XMLSchema-instance" xsi:noNamespaceSchemaLocation="http://sumo.dlr.de/xsd/sumoConfiguration.xsd">

    <input>
        <net-file value="/Users/behradkoohy/sumo-scratchpad/RESCO/environments/ingolstadt21/ingolstadt21.net.xml"/>
        <route-files value="/Users/behradkoohy/sumo-scratchpad/RESCO/environments/ingolstadt21/ingolstadt21.rou.xml"/>
    </input>

    <output>
        <tripinfo-output value="/Users/behradkoohy/sumo-scratchpad/RESCO/logs/MPLight-tr0-ingolstadt21-21-mplight-pressure/tripinfo_95.xml"/>
        <tripinfo-output.write-unfinished value="true"/>
    </output>

    <time>
        <begin value="57600"/>
        <end value="61200"/>
    </time>

    <processing>
        <time-to-teleport value="-1"/>
    </processing>

    <report>
        <no-warnings value="true"/>
        <no-step-log value="true"/>
    </report>

    <emissions>
        <device.emissions.probability value="1"/>
    </emissions>

    <traci_server>
        <remote-port value="64313"/>
    </traci_server>

    <random_number>
        <random value="true"/>
    </random_number>

</configuration>
-->

<tripinfos xmlns:xsi="http://www.w3.org/2001/XMLSchema-instance" xsi:noNamespaceSchemaLocation="http://sumo.dlr.de/xsd/tripinfo_file.xsd">
    <tripinfo id="h15454c2:3" depart="57612.00" departLane="24608844_1" departPos="5.10" departSpeed="0.00" departDelay="0.50" arrival="57662.00" arrivalLane="32978638#0_1" arrivalPos="49.29" arrivalSpeed="10.65" duration="50.00" routeLength="354.79" waitingTime="2.00" waitingCount="1" stopTime="0.00" timeLoss="9.88" rerouteNo="1" devices="tripinfo_h15454c2:3 routing_h15454c2:3 emissions_h15454c2:3" vType="default_016" speedFactor="0.85" vaporized="">
        <emissions CO_abs="2678.503653" CO2_abs="123244.201755" HC_abs="15.041094" PMx_abs="2.073524" NOx_abs="50.361925" fuel_abs="52.978172" electricity_abs="0"/>
    </tripinfo>
    <tripinfo id="carIn60260:1" depart="57606.00" departLane="315358254#0_1" departPos="5.10" departSpeed="0.00" departDelay="0.90" arrival="57667.00" arrivalLane="399835085#1_1" arrivalPos="212.23" arrivalSpeed="9.41" duration="61.00" routeLength="430.98" waitingTime="11.00" waitingCount="1" stopTime="0.00" timeLoss="21.48" rerouteNo="1" devices="tripinfo_carIn60260:1 routing_carIn60260:1 emissions_carIn60260:1" vType="default_016" speedFactor="1.18" vaporized="">
        <emissions CO_abs="3052.989677" CO2_abs="139788.401169" HC_abs="17.173720" PMx_abs="2.566406" NOx_abs="58.202738" fuel_abs="60.089635" electricity_abs="0"/>
    </tripinfo>
    <tripinfo id="carIn53971:1" depart="57640.00" departLane="272042143_1" departPos="5.10" departSpeed="0.00" departDelay="0.80" arrival="57699.00" arrivalLane="24634414#1_1" arrivalPos="162.19" arrivalSpeed="6.90" duration="59.00" routeLength="493.04" waitingTime="0.00" waitingCount="0" stopTime="0.00" timeLoss="8.46" rerouteNo="1" devices="tripinfo_carIn53971:1 routing_carIn53971:1 emissions_carIn53971:1" vType="default_016" speedFactor="0.90" vaporized="">
        <emissions CO_abs="2463.713270" CO2_abs="134849.975343" HC_abs="14.340178" PMx_abs="2.218175" NOx_abs="54.463551" fuel_abs="57.966780" electricity_abs="0"/>
    </tripinfo>
    <tripinfo id="h7800c1:5" depart="57696.00" departLane="-447569998#1_1" departPos="5.10" departSpeed="0.00" departDelay="0.00" arrival="57725.00" arrivalLane="-447569998#1_2" arrivalPos="180.76" arrivalSpeed="4.88" duration="29.00" routeLength="175.66" waitingTime="1.00" waitingCount="1" stopTime="0.00" timeLoss="8.18" rerouteNo="1" devices="tripinfo_h7800c1:5 routing_h7800c1:5 emissions_h7800c1:5" vType="default_016" speedFactor="1.03" vaporized="">
        <emissions CO_abs="1315.594123" CO2_abs="55058.233217" HC_abs="7.254136" PMx_abs="0.913385" NOx_abs="22.484673" fuel_abs="23.667634" electricity_abs="0"/>
    </tripinfo>
    <tripinfo id="h3568c1:3" depart="57656.00" departLane="266565295#5_1" departPos="5.10" departSpeed="0.00" departDelay="0.80" arrival="57729.00" arrivalLane="-24634415_1" arrivalPos="62.03" arrivalSpeed="13.92" duration="73.00" routeLength="807.40" waitingTime="0.00" waitingCount="0" stopTime="0.00" timeLoss="11.12" rerouteNo="1" devices="tripinfo_h3568c1:3 routing_h3568c1:3 emissions_h3568c1:3" vType="default_016" speedFactor="1.03" vaporized="">
        <emissions CO_abs="3028.652835" CO2_abs="210432.016323" HC_abs="18.738050" PMx_abs="3.658276" NOx_abs="85.295567" fuel_abs="90.455673" electricity_abs="0"/>
    </tripinfo>
    <tripinfo id="carIn22761:1" depart="57616.00" departLane="-306240162#1_0" departPos="5.10" departSpeed="0.00" departDelay="2.10" arrival="57738.00" arrivalLane="399835085#1_1" arrivalPos="212.23" arrivalSpeed="6.91" duration="122.00" routeLength="1093.26" waitingTime="22.00" waitingCount="1" stopTime="0.00" timeLoss="37.36" rerouteNo="1" devices="tripinfo_carIn22761:1 routing_carIn22761:1 emissions_carIn22761:1" vType="default_016" speedFactor="0.92" vaporized="">
        <emissions CO_abs="7317.476452" CO2_abs="321915.414943" HC_abs="40.929194" PMx_abs="6.153107" NOx_abs="133.213983" fuel_abs="138.379128" electricity_abs="0"/>
    </tripinfo>
    <tripinfo id="S5R_frequency1.2" depart="57615.00" departLane="315358250#0_1" departPos="12.10" departSpeed="0.00" departDelay="3.40" arrival="57740.00" arrivalLane="386687235_1" arrivalPos="80.84" arrivalSpeed="13.33" duration="125.00" routeLength="1115.62" waitingTime="18.00" waitingCount="2" stopTime="0.00" timeLoss="43.05" rerouteNo="1" devices="tripinfo_S5R_frequency1.2 routing_S5R_frequency1.2 emissions_S5R_frequency1.2" vType="bus" speedFactor="1.00" vaporized="">
        <emissions CO_abs="2529.134921" CO2_abs="1449324.576982" HC_abs="547.806244" PMx_abs="268.481385" NOx_abs="11604.592589" fuel_abs="618.082317" electricity_abs="0"/>
    </tripinfo>
    <tripinfo id="h12244c1:3" depart="57612.00" departLane="315358244_1" departPos="5.10" departSpeed="0.00" departDelay="0.40" arrival="57742.00" arrivalLane="386687235_1" arrivalPos="80.84" arrivalSpeed="12.75" duration="130.00" routeLength="1186.14" waitingTime="16.00" waitingCount="2" stopTime="0.00" timeLoss="40.90" rerouteNo="1" devices="tripinfo_h12244c1:3 routing_h12244c1:3 emissions_h12244c1:3" vType="default_016" speedFactor="0.97" vaporized="">
        <emissions CO_abs="6144.842205" CO2_abs="310535.168164" HC_abs="35.223375" PMx_abs="5.352999" NOx_abs="125.587251" fuel_abs="133.487215" electricity_abs="0"/>
    </tripinfo>
    <tripinfo id="h9563c2:5" depart="57631.00" departLane="315358244_1" departPos="5.10" departSpeed="0.00" departDelay="0.70" arrival="57744.00" arrivalLane="386687235_1" arrivalPos="80.84" arrivalSpeed="16.01" duration="113.00" routeLength="1186.14" waitingTime="12.00" waitingCount="1" stopTime="0.00" timeLoss="39.56" rerouteNo="1" devices="tripinfo_h9563c2:5 routing_h9563c2:5 emissions_h9563c2:5" vType="default_016" speedFactor="1.19" vaporized="">
        <emissions CO_abs="6007.235755" CO2_abs="316261.051724" HC_abs="34.583053" PMx_abs="5.693680" NOx_abs="127.920591" fuel_abs="135.948088" electricity_abs="0"/>
    </tripinfo>
    <tripinfo id="carIn121703:1" depart="57647.00" departLane="386687232#0_1" departPos="5.10" departSpeed="0.00" departDelay="0.30" arrival="57744.00" arrivalLane="-315358244_1" arrivalPos="33.95" arrivalSpeed="12.89" duration="97.00" routeLength="1157.39" waitingTime="0.00" waitingCount="0" stopTime="0.00" timeLoss="7.90" rerouteNo="1" devices="tripinfo_carIn121703:1 routing_carIn121703:1 emissions_carIn121703:1" vType="default_016" speedFactor="0.94" vaporized="">
        <emissions CO_abs="2499.647931" CO2_abs="227309.166755" HC_abs="16.647838" PMx_abs="3.360530" NOx_abs="87.630621" fuel_abs="97.710748" electricity_abs="0"/>
    </tripinfo>
    <tripinfo id="h4538c1:1" depart="57701.00" departLane="-10427692#1_1" departPos="5.10" departSpeed="0.00" departDelay="0.00" arrival="57745.00" arrivalLane="-128361102#1_1" arrivalPos="274.68" arrivalSpeed="13.36" duration="44.00" routeLength="440.74" waitingTime="3.00" waitingCount="1" stopTime="0.00" timeLoss="12.84" rerouteNo="1" devices="tripinfo_h4538c1:1 routing_h4538c1:1 emissions_h4538c1:1" vType="default_016" speedFactor="1.02" vaporized="">
        <emissions CO_abs="1938.931742" CO2_abs="117461.425120" HC_abs="11.592315" PMx_abs="2.092949" NOx_abs="48.022939" fuel_abs="50.491741" electricity_abs="0"/>
    </tripinfo>
    <tripinfo id="h3688c1:1" depart="57625.00" departLane="201201950#1_1" departPos="5.10" departSpeed="0.00" departDelay="0.00" arrival="57747.00" arrivalLane="32978638#0_1" arrivalPos="49.29" arrivalSpeed="10.20" duration="122.00" routeLength="1089.75" waitingTime="7.00" waitingCount="1" stopTime="0.00" timeLoss="20.84" rerouteNo="1" devices="tripinfo_h3688c1:1 routing_h3688c1:1 emissions_h3688c1:1" vType="default_016" speedFactor="0.79" vaporized="">
        <emissions CO_abs="4226.680179" CO2_abs="256397.384719" HC_abs="25.153873" PMx_abs="3.972786" NOx_abs="101.607131" fuel_abs="110.215323" electricity_abs="0"/>
    </tripinfo>
    <tripinfo id="h5979c1:5" depart="57669.00" departLane="399835085#1_1" departPos="5.10" departSpeed="0.00" departDelay="0.00" arrival="57750.00" arrivalLane="-315358254#1_1" arrivalPos="137.16" arrivalSpeed="14.28" duration="81.00" routeLength="659.33" waitingTime="0.00" waitingCount="0" stopTime="0.00" timeLoss="9.98" rerouteNo="1" devices="tripinfo_h5979c1:5 routing_h5979c1:5 emissions_h5979c1:5" vType="default_016" speedFactor="1.04" vaporized="">
        <emissions CO_abs="3451.853090" CO2_abs="184085.364189" HC_abs="19.961741" PMx_abs="2.957018" NOx_abs="73.973941" fuel_abs="79.131342" electricity_abs="0"/>
    </tripinfo>
    <tripinfo id="carIn30817:1" depart="57681.00" departLane="315358244_1" departPos="5.10" departSpeed="0.00" departDelay="0.20" arrival="57759.00" arrivalLane="447569997#1_1" arrivalPos="180.93" arrivalSpeed="8.72" duration="78.00" routeLength="718.04" waitingTime="9.00" waitingCount="1" stopTime="0.00" timeLoss="19.80" rerouteNo="1" devices="tripinfo_carIn30817:1 routing_carIn30817:1 emissions_carIn30817:1" vType="default_016" speedFactor="1.06" vaporized="">
        <emissions CO_abs="2968.016421" CO2_abs="171096.120386" HC_abs="17.451495" PMx_abs="2.875416" NOx_abs="68.646494" fuel_abs="73.547444" electricity_abs="0"/>
    </tripinfo>
    <tripinfo id="h3326c1:2" depart="57656.00" departLane="22716069#0_1" departPos="5.10" departSpeed="0.00" departDelay="0.00" arrival="57763.00" arrivalLane="24634517#13_1" arrivalPos="111.62" arrivalSpeed="13.59" duration="107.00" routeLength="1312.81" waitingTime="0.00" waitingCount="0" stopTime="0.00" timeLoss="13.70" rerouteNo="1" devices="tripinfo_h3326c1:2 routing_h3326c1:2 emissions_h3326c1:2" vType="default_016" speedFactor="1.05" vaporized="">
        <emissions CO_abs="3748.027076" CO2_abs="296294.776805" HC_abs="24.004199" PMx_abs="5.133001" NOx_abs="119.336967" fuel_abs="127.364024" electricity_abs="0"/>
    </tripinfo>
    <tripinfo id="h317c2:1" depart="57707.00" departLane="-32978638#0_1" departPos="5.10" departSpeed="0.00" departDelay="0.10" arrival="57766.00" arrivalLane="-266565295#5_1" arrivalPos="172.76" arrivalSpeed="12.97" duration="59.00" routeLength="370.53" waitingTime="21.00" waitingCount="1" stopTime="0.00" timeLoss="29.39" rerouteNo="1" devices="tripinfo_h317c2:1 routing_h317c2:1 emissions_h317c2:1" vType="default_016" speedFactor="0.94" vaporized="">
        <emissions CO_abs="4533.942431" CO2_abs="155925.280327" HC_abs="24.321383" PMx_abs="3.161808" NOx_abs="66.639300" fuel_abs="67.026787" electricity_abs="0"/>
    </tripinfo>
    <tripinfo id="h330c1:1" depart="57736.00" departLane="-32978638#0_1" departPos="5.10" departSpeed="0.00" departDelay="0.20" arrival="57770.00" arrivalLane="-266565295#5_1" arrivalPos="172.76" arrivalSpeed="13.22" duration="34.00" routeLength="370.53" waitingTime="0.00" waitingCount="0" stopTime="0.00" timeLoss="6.05" rerouteNo="1" devices="tripinfo_h330c1:1 routing_h330c1:1 emissions_h330c1:1" vType="default_016" speedFactor="0.98" vaporized="">
        <emissions CO_abs="1732.534239" CO2_abs="106288.241069" HC_abs="10.391825" PMx_abs="1.909485" NOx_abs="43.654177" fuel_abs="45.688805" electricity_abs="0"/>
    </tripinfo>
    <tripinfo id="carIn50326:1" depart="57651.00" departLane="128361102#0_1" departPos="5.10" departSpeed="0.00" departDelay="0.30" arrival="57787.00" arrivalLane="18809673#0_1" arrivalPos="473.56" arrivalSpeed="14.79" duration="136.00" routeLength="1591.07" waitingTime="0.00" waitingCount="0" stopTime="0.00" timeLoss="21.71" rerouteNo="1" devices="tripinfo_carIn50326:1 routing_carIn50326:1 emissions_carIn50326:1" vType="default_016" speedFactor="1.14" vaporized="">
        <emissions CO_abs="4604.569411" CO2_abs="362386.865605" HC_abs="29.215637" PMx_abs="5.850511" NOx_abs="142.364143" fuel_abs="155.774816" electricity_abs="0"/>
    </tripinfo>
    <tripinfo id="h11737c1:1" depart="57665.00" departLane="272042143_1" departPos="5.10" departSpeed="0.00" departDelay="1.50" arrival="57792.00" arrivalLane="-315358254#1_1" arrivalPos="137.16" arrivalSpeed="14.09" duration="127.00" routeLength="1596.88" waitingTime="0.00" waitingCount="0" stopTime="0.00" timeLoss="12.40" rerouteNo="1" devices="tripinfo_h11737c1:1 routing_h11737c1:1 emissions_h11737c1:1" vType="default_016" speedFactor="1.02" vaporized="">
        <emissions CO_abs="3660.367505" CO2_abs="332988.374542" HC_abs="24.414206" PMx_abs="5.197822" NOx_abs="129.624935" fuel_abs="143.137468" electricity_abs="0"/>
    </tripinfo>
    <tripinfo id="carIn27009:1" depart="57673.00" departLane="-447569998#1_1" departPos="5.10" departSpeed="0.00" departDelay="0.50" arrival="57795.00" arrivalLane="-26677539_1" arrivalPos="152.75" arrivalSpeed="7.69" duration="122.00" routeLength="699.63" waitingTime="22.00" waitingCount="1" stopTime="0.00" timeLoss="35.69" rerouteNo="1" devices="tripinfo_carIn27009:1 routing_carIn27009:1 emissions_carIn27009:1" vType="default_015" speedFactor="0.97" vaporized="">
        <emissions CO_abs="6657.453203" CO2_abs="222772.216748" HC_abs="35.450816" PMx_abs="4.018495" NOx_abs="92.925711" fuel_abs="95.762749" electricity_abs="0"/>
    </tripinfo>
    <tripinfo id="carIn107084:1" depart="57601.00" departLane="124812856#0_1" departPos="5.10" departSpeed="0.00" departDelay="0.70" arrival="57797.00" arrivalLane="-128361102#1_1" arrivalPos="274.68" arrivalSpeed="12.87" duration="196.00" routeLength="2250.49" waitingTime="6.00" waitingCount="1" stopTime="0.00" timeLoss="28.19" rerouteNo="1" devices="tripinfo_carIn107084:1 routing_carIn107084:1 emissions_carIn107084:1" vType="default_016" speedFactor="0.98" vaporized="">
        <emissions CO_abs="5670.781382" CO2_abs="458717.214048" HC_abs="36.524555" PMx_abs="7.459852" NOx_abs="181.676506" fuel_abs="197.182882" electricity_abs="0"/>
    </tripinfo>
    <tripinfo id="carIn86816:1" depart="57617.00" departLane="128361102#0_1" departPos="5.10" departSpeed="0.00" departDelay="0.80" arrival="57798.00" arrivalLane="201956811#0_1" arrivalPos="40.40" arrivalSpeed="13.76" duration="181.00" routeLength="2067.33" waitingTime="11.00" waitingCount="1" stopTime="0.00" timeLoss="33.99" rerouteNo="1" devices="tripinfo_carIn86816:1 routing_carIn86816:1 emissions_carIn86816:1" vType="default_016" speedFactor="1.02" vaporized="">
        <emissions CO_abs="6650.518569" CO2_abs="463383.471164" HC_abs="41.099162" PMx_abs="7.782675" NOx_abs="184.918935" fuel_abs="199.189135" electricity_abs="0"/>
    </tripinfo>
    <tripinfo id="carIn77943:1" depart="57608.00" departLane="124812856#0_1" departPos="5.10" departSpeed="0.00" departDelay="2.50" arrival="57799.00" arrivalLane="-128361102#1_1" arrivalPos="274.68" arrivalSpeed="12.79" duration="191.00" routeLength="2250.49" waitingTime="2.00" waitingCount="1" stopTime="0.00" timeLoss="25.62" rerouteNo="1" devices="tripinfo_carIn77943:1 routing_carIn77943:1 emissions_carIn77943:1" vType="default_016" speedFactor="0.99" vaporized="">
        <emissions CO_abs="5523.350688" CO2_abs="460534.361926" HC_abs="35.875047" PMx_abs="7.323832" NOx_abs="180.905370" fuel_abs="197.964147" electricity_abs="0"/>
    </tripinfo>
    <tripinfo id="carIn12365:1" depart="57713.00" departLane="315358244_1" departPos="5.10" departSpeed="0.00" departDelay="0.50" arrival="57799.00" arrivalLane="447569997#1_1" arrivalPos="180.93" arrivalSpeed="6.30" duration="86.00" routeLength="718.04" waitingTime="0.00" waitingCount="0" stopTime="0.00" timeLoss="9.11" rerouteNo="1" devices="tripinfo_carIn12365:1 routing_carIn12365:1 emissions_carIn12365:1" vType="default_016" speedFactor="0.80" vaporized="">
        <emissions CO_abs="3052.528725" CO2_abs="159941.354901" HC_abs="17.571015" PMx_abs="2.496412" NOx_abs="63.810477" fuel_abs="68.752901" electricity_abs="0"/>
    </tripinfo>
    <tripinfo id="carIn81046:1" depart="57611.00" departLane="124812856#0_1" departPos="5.10" departSpeed="0.00" departDelay="2.50" arrival="57800.00" arrivalLane="-128361102#1_1" arrivalPos="274.68" arrivalSpeed="14.84" duration="189.00" routeLength="2250.49" waitingTime="2.00" waitingCount="1" stopTime="0.00" timeLoss="40.70" rerouteNo="1" devices="tripinfo_carIn81046:1 routing_carIn81046:1 emissions_carIn81046:1" vType="default_016" speedFactor="1.11" vaporized="">
        <emissions CO_abs="6775.455493" CO2_abs="509245.025533" HC_abs="42.852565" PMx_abs="8.819914" NOx_abs="205.289862" fuel_abs="218.902205" electricity_abs="0"/>
    </tripinfo>
    <tripinfo id="carIn126288:1" depart="57674.00" departLane="272042143_1" departPos="5.10" departSpeed="0.00" departDelay="0.00" arrival="57800.00" arrivalLane="-315358254#1_1" arrivalPos="137.16" arrivalSpeed="13.57" duration="126.00" routeLength="1596.88" waitingTime="0.00" waitingCount="0" stopTime="0.00" timeLoss="11.49" rerouteNo="1" devices="tripinfo_carIn126288:1 routing_carIn126288:1 emissions_carIn126288:1" vType="default_016" speedFactor="1.02" vaporized="">
        <emissions CO_abs="3407.032755" CO2_abs="311723.595666" HC_abs="22.774551" PMx_abs="4.936581" NOx_abs="121.896529" fuel_abs="133.996514" electricity_abs="0"/>
    </tripinfo>
    <tripinfo id="h645c1:1" depart="57622.00" departLane="266565295#5_1" departPos="5.10" departSpeed="0.00" departDelay="0.40" arrival="57804.00" arrivalLane="-315358244_2" arrivalPos="33.95" arrivalSpeed="14.57" duration="182.00" routeLength="1910.83" waitingTime="30.00" waitingCount="2" stopTime="0.00" timeLoss="52.63" rerouteNo="1" devices="tripinfo_h645c1:1 routing_h645c1:1 emissions_h645c1:1" vType="default_016" speedFactor="1.08" vaporized="">
        <emissions CO_abs="7873.862666" CO2_abs="446024.798754" HC_abs="46.136109" PMx_abs="7.778512" NOx_abs="179.086200" fuel_abs="191.728241" electricity_abs="0"/>
    </tripinfo>
    <tripinfo id="h17600c1:1" depart="57662.00" departLane="272042143_1" departPos="5.10" departSpeed="0.00" departDelay="0.30" arrival="57809.00" arrivalLane="201238729#3_1" arrivalPos="431.02" arrivalSpeed="15.39" duration="147.00" routeLength="2100.26" waitingTime="0.00" waitingCount="0" stopTime="0.00" timeLoss="12.32" rerouteNo="1" devices="tripinfo_h17600c1:1 routing_h17600c1:1 emissions_h17600c1:1" vType="default_016" speedFactor="1.13" vaporized="">
        <emissions CO_abs="3146.270926" CO2_abs="384772.659571" HC_abs="22.981640" PMx_abs="5.651759" NOx_abs="144.690857" fuel_abs="165.397168" electricity_abs="0"/>
    </tripinfo>
    <tripinfo id="carIn129809:1" depart="57729.00" departLane="-447569998#1_1" departPos="5.10" departSpeed="0.00" departDelay="1.00" arrival="57809.00" arrivalLane="-315358244_1" arrivalPos="33.95" arrivalSpeed="10.61" duration="80.00" routeLength="706.49" waitingTime="0.00" waitingCount="0" stopTime="0.00" timeLoss="7.64" rerouteNo="1" devices="tripinfo_carIn129809:1 routing_carIn129809:1 emissions_carIn129809:1" vType="default_015" speedFactor="0.84" vaporized="">
        <emissions CO_abs="2463.360921" CO2_abs="138485.183441" HC_abs="14.401167" PMx_abs="2.149003" NOx_abs="55.013540" fuel_abs="59.529564" electricity_abs="0"/>
    </tripinfo>
    <tripinfo id="carIn81860:1" depart="57712.00" departLane="128361102#0_1" departPos="5.10" departSpeed="0.00" departDelay="0.60" arrival="57813.00" arrivalLane="-24634517#17_1" arrivalPos="6.43" arrivalSpeed="7.92" duration="101.00" routeLength="1229.64" waitingTime="0.00" waitingCount="0" stopTime="0.00" timeLoss="17.38" rerouteNo="1" devices="tripinfo_carIn81860:1 routing_carIn81860:1 emissions_carIn81860:1" vType="default_016" speedFactor="1.08" vaporized="">
        <emissions CO_abs="3728.626361" CO2_abs="281376.744323" HC_abs="23.537336" PMx_abs="4.828584" NOx_abs="112.850720" fuel_abs="120.951652" electricity_abs="0"/>
    </tripinfo>
    <tripinfo id="carIn77438:1" depart="57614.00" departLane="124812856#0_1" departPos="5.10" departSpeed="0.00" departDelay="1.10" arrival="57817.00" arrivalLane="-128361102#1_1" arrivalPos="274.68" arrivalSpeed="12.66" duration="203.00" routeLength="2250.49" waitingTime="8.00" waitingCount="1" stopTime="0.00" timeLoss="31.42" rerouteNo="1" devices="tripinfo_carIn77438:1 routing_carIn77438:1 emissions_carIn77438:1" vType="default_016" speedFactor="0.96" vaporized="">
        <emissions CO_abs="5903.271310" CO2_abs="453348.256740" HC_abs="37.453999" PMx_abs="7.301413" NOx_abs="179.357720" fuel_abs="194.875338" electricity_abs="0"/>
    </tripinfo>
    <tripinfo id="carIn102915:1" depart="57643.00" departLane="128361102#0_1" departPos="5.10" departSpeed="0.00" departDelay="0.40" arrival="57817.00" arrivalLane="201956811#0_1" arrivalPos="40.40" arrivalSpeed="13.23" duration="174.00" routeLength="2067.33" waitingTime="6.00" waitingCount="1" stopTime="0.00" timeLoss="26.06" rerouteNo="1" devices="tripinfo_carIn102915:1 routing_carIn102915:1 emissions_carIn102915:1" vType="default_016" speedFactor="1.02" vaporized="">
        <emissions CO_abs="5463.024235" CO2_abs="429426.653113" HC_abs="34.918819" PMx_abs="7.206689" NOx_abs="171.327078" fuel_abs="184.591932" electricity_abs="0"/>
    </tripinfo>
    <tripinfo id="h19804c1:3" depart="57617.00" departLane="124812856#0_1" departPos="5.10" departSpeed="0.00" departDelay="1.50" arrival="57819.00" arrivalLane="-128361102#1_1" arrivalPos="274.68" arrivalSpeed="14.13" duration="202.00" routeLength="2250.49" waitingTime="8.00" waitingCount="1" stopTime="0.00" timeLoss="46.20" rerouteNo="1" devices="tripinfo_h19804c1:3 routing_h19804c1:3 emissions_h19804c1:3" vType="default_016" speedFactor="1.06" vaporized="">
        <emissions CO_abs="7361.010518" CO2_abs="522325.894385" HC_abs="45.787825" PMx_abs="9.021592" NOx_abs="210.935904" fuel_abs="224.525432" electricity_abs="0"/>
    </tripinfo>
    <tripinfo id="carIn107842:1" depart="57623.00" departLane="124812856#0_1" departPos="5.10" departSpeed="0.00" departDelay="1.90" arrival="57820.00" arrivalLane="-128361102#1_1" arrivalPos="274.68" arrivalSpeed="13.94" duration="197.00" routeLength="2250.49" waitingTime="0.00" waitingCount="0" stopTime="0.00" timeLoss="42.85" rerouteNo="1" devices="tripinfo_carIn107842:1 routing_carIn107842:1 emissions_carIn107842:1" vType="default_016" speedFactor="1.06" vaporized="">
        <emissions CO_abs="7763.631230" CO2_abs="556759.957080" HC_abs="48.452986" PMx_abs="9.713412" NOx_abs="226.013227" fuel_abs="239.326880" electricity_abs="0"/>
    </tripinfo>
    <tripinfo id="randUni15030:1" depart="57735.00" departLane="386687232#0_1" departPos="5.10" departSpeed="0.00" departDelay="0.10" arrival="57823.00" arrivalLane="26677539_1" arrivalPos="151.98" arrivalSpeed="8.40" duration="88.00" routeLength="919.89" waitingTime="0.00" waitingCount="0" stopTime="0.00" timeLoss="10.97" rerouteNo="1" devices="tripinfo_randUni15030:1 routing_randUni15030:1 emissions_randUni15030:1" vType="random_016" speedFactor="1.08" vaporized="">
        <emissions CO_abs="3381.738283" CO2_abs="215459.895646" HC_abs="20.423891" PMx_abs="3.637642" NOx_abs="86.876694" fuel_abs="92.617321" electricity_abs="0"/>
    </tripinfo>
    <tripinfo id="carIn12152:1" depart="57647.00" departLane="24599188#0.94_1" departPos="5.10" departSpeed="0.00" departDelay="0.50" arrival="57826.00" arrivalLane="-315358254#1_1" arrivalPos="137.16" arrivalSpeed="15.64" duration="179.00" routeLength="2034.31" waitingTime="11.00" waitingCount="3" stopTime="0.00" timeLoss="40.69" rerouteNo="1" devices="tripinfo_carIn12152:1 routing_carIn12152:1 emissions_carIn12152:1" vType="default_016" speedFactor="1.14" vaporized="">
        <emissions CO_abs="6958.409653" CO2_abs="488631.173877" HC_abs="42.972207" PMx_abs="8.405273" NOx_abs="195.638950" fuel_abs="210.041749" electricity_abs="0"/>
    </tripinfo>
    <tripinfo id="carIn126378:1" depart="57746.00" departLane="386687232#0_1" departPos="5.10" departSpeed="0.00" departDelay="1.80" arrival="57830.00" arrivalLane="-315358244_2" arrivalPos="33.95" arrivalSpeed="15.64" duration="84.00" routeLength="1157.39" waitingTime="0.00" waitingCount="0" stopTime="0.00" timeLoss="9.77" rerouteNo="1" devices="tripinfo_carIn126378:1 routing_carIn126378:1 emissions_carIn126378:1" vType="default_016" speedFactor="1.14" vaporized="">
        <emissions CO_abs="2699.599312" CO2_abs="246449.967062" HC_abs="17.972406" PMx_abs="4.065624" NOx_abs="96.653038" fuel_abs="105.938017" electricity_abs="0"/>
    </tripinfo>
    <tripinfo id="randUni10474:1" depart="57605.00" departLane="124812856#0_1" departPos="5.10" departSpeed="0.00" departDelay="0.20" arrival="57833.00" arrivalLane="306240162#0_0" arrivalPos="220.43" arrivalSpeed="16.91" duration="228.00" routeLength="3049.32" waitingTime="4.00" waitingCount="1" stopTime="0.00" timeLoss="35.26" rerouteNo="1" devices="tripinfo_randUni10474:1 routing_randUni10474:1 emissions_randUni10474:1" vType="random_016" speedFactor="1.02" vaporized="">
        <emissions CO_abs="9375.293191" CO2_abs="732809.533763" HC_abs="60.024192" PMx_abs="13.385080" NOx_abs="296.347254" fuel_abs="315.001792" electricity_abs="0"/>
    </tripinfo>
    <tripinfo id="carIn82220:1" depart="57619.00" departLane="-306240162#1_0" departPos="5.10" departSpeed="0.00" departDelay="3.50" arrival="57833.00" arrivalLane="386687235_2" arrivalPos="80.84" arrivalSpeed="14.12" duration="214.00" routeLength="2257.41" waitingTime="30.00" waitingCount="4" stopTime="0.00" timeLoss="71.73" rerouteNo="1" devices="tripinfo_carIn82220:1 routing_carIn82220:1 emissions_carIn82220:1" vType="default_016" speedFactor="1.04" vaporized="">
        <emissions CO_abs="11144.034993" CO2_abs="628567.879990" HC_abs="65.535538" PMx_abs="11.765201" NOx_abs="257.907675" fuel_abs="270.195026" electricity_abs="0"/>
    </tripinfo>
    <tripinfo id="carIn48184:1" depart="57613.00" departLane="-306240162#1_0" departPos="5.10" departSpeed="0.00" departDelay="0.70" arrival="57834.00" arrivalLane="386687235_1" arrivalPos="80.84" arrivalSpeed="12.75" duration="221.00" routeLength="2257.41" waitingTime="35.00" waitingCount="4" stopTime="0.00" timeLoss="69.84" rerouteNo="1" devices="tripinfo_carIn48184:1 routing_carIn48184:1 emissions_carIn48184:1" vType="default_016" speedFactor="0.98" vaporized="">
        <emissions CO_abs="10213.228436" CO2_abs="579682.771741" HC_abs="60.148388" PMx_abs="10.468495" NOx_abs="235.002712" fuel_abs="249.181945" electricity_abs="0"/>
    </tripinfo>
    <tripinfo id="h15382c1:3" depart="57626.00" departLane="124812856#0_1" departPos="5.10" departSpeed="0.00" departDelay="3.80" arrival="57834.00" arrivalLane="-128361102#1_1" arrivalPos="274.68" arrivalSpeed="14.38" duration="208.00" routeLength="2250.49" waitingTime="10.00" waitingCount="1" stopTime="0.00" timeLoss="55.50" rerouteNo="1" devices="tripinfo_h15382c1:3 routing_h15382c1:3 emissions_h15382c1:3" vType="default_016" speedFactor="1.08" vaporized="">
        <emissions CO_abs="8846.606868" CO2_abs="586894.648279" HC_abs="54.107329" PMx_abs="10.519776" NOx_abs="239.645349" fuel_abs="252.280649" electricity_abs="0"/>
    </tripinfo>
    <tripinfo id="carIn73855:1" depart="57743.00" departLane="386687232#0_1" departPos="5.10" departSpeed="0.00" departDelay="0.50" arrival="57834.00" arrivalLane="-315358244_1" arrivalPos="33.95" arrivalSpeed="13.33" duration="91.00" routeLength="1157.39" waitingTime="0.00" waitingCount="0" stopTime="0.00" timeLoss="8.19" rerouteNo="1" devices="tripinfo_carIn73855:1 routing_carIn73855:1 emissions_carIn73855:1" vType="default_016" speedFactor="1.02" vaporized="">
        <emissions CO_abs="2424.150630" CO2_abs="214219.218703" HC_abs="16.036591" PMx_abs="3.407685" NOx_abs="83.874580" fuel_abs="92.083641" electricity_abs="0"/>
    </tripinfo>
    <tripinfo id="h16072c2:3" depart="57663.00" departLane="315358254#0_1" departPos="5.10" departSpeed="0.00" departDelay="2.50" arrival="57835.00" arrivalLane="386687235_2" arrivalPos="80.84" arrivalSpeed="13.77" duration="172.00" routeLength="1611.92" waitingTime="20.00" waitingCount="5" stopTime="0.00" timeLoss="60.42" rerouteNo="1" devices="tripinfo_h16072c2:3 routing_h16072c2:3 emissions_h16072c2:3" vType="default_016" speedFactor="1.05" vaporized="">
        <emissions CO_abs="6978.654134" CO2_abs="390038.211284" HC_abs="40.908458" PMx_abs="6.930087" NOx_abs="158.991793" fuel_abs="167.661593" electricity_abs="0"/>
    </tripinfo>
    <tripinfo id="carIn3969:1" depart="57629.00" departLane="124812856#0_1" departPos="5.10" departSpeed="0.00" departDelay="5.30" arrival="57836.00" arrivalLane="-128361102#1_1" arrivalPos="274.68" arrivalSpeed="13.98" duration="207.00" routeLength="2250.49" waitingTime="9.00" waitingCount="1" stopTime="0.00" timeLoss="55.88" rerouteNo="1" devices="tripinfo_carIn3969:1 routing_carIn3969:1 emissions_carIn3969:1" vType="default_016" speedFactor="1.09" vaporized="">
        <emissions CO_abs="9030.824291" CO2_abs="576558.751391" HC_abs="54.677156" PMx_abs="10.491410" NOx_abs="236.845967" fuel_abs="247.837695" electricity_abs="0"/>
    </tripinfo>