<?xml version="1.0" encoding="UTF-8"?>

<!-- generated on 2021-10-26 19:30:50 by Eclipse SUMO sumo Version 1.10.0
<configuration xmlns:xsi="http://www.w3.org/2001/XMLSchema-instance" xsi:noNamespaceSchemaLocation="http://sumo.dlr.de/xsd/sumoConfiguration.xsd">

    <input>
        <net-file value="/Users/behradkoohy/sumo-scratchpad/RESCO/environments/ingolstadt21/ingolstadt21.net.xml"/>
        <route-files value="/Users/behradkoohy/sumo-scratchpad/RESCO/environments/ingolstadt21/ingolstadt21.rou.xml"/>
    </input>

    <output>
        <tripinfo-output value="/Users/behradkoohy/sumo-scratchpad/RESCO/logs/MPLight-tr0-ingolstadt21-21-mplight-pressure/tripinfo_29.xml"/>
        <tripinfo-output.write-unfinished value="true"/>
    </output>

    <time>
        <begin value="57600"/>
        <end value="61200"/>
    </time>

    <processing>
        <time-to-teleport value="-1"/>
    </processing>

    <report>
        <no-warnings value="true"/>
        <no-step-log value="true"/>
    </report>

    <emissions>
        <device.emissions.probability value="1"/>
    </emissions>

    <traci_server>
        <remote-port value="63528"/>
    </traci_server>

    <random_number>
        <random value="true"/>
    </random_number>

</configuration>
-->

<tripinfos xmlns:xsi="http://www.w3.org/2001/XMLSchema-instance" xsi:noNamespaceSchemaLocation="http://sumo.dlr.de/xsd/tripinfo_file.xsd">
    <tripinfo id="h15454c2:3" depart="57612.00" departLane="24608844_1" departPos="5.10" departSpeed="0.00" departDelay="0.50" arrival="57657.00" arrivalLane="32978638#0_1" arrivalPos="49.29" arrivalSpeed="10.87" duration="45.00" routeLength="354.79" waitingTime="0.00" waitingCount="0" stopTime="0.00" timeLoss="4.81" rerouteNo="1" devices="tripinfo_h15454c2:3 routing_h15454c2:3 emissions_h15454c2:3" vType="default_016" speedFactor="0.85" vaporized="">
        <emissions CO_abs="1870.054065" CO2_abs="89890.041289" HC_abs="10.582215" PMx_abs="1.455225" NOx_abs="36.317389" fuel_abs="38.640460" electricity_abs="0"/>
    </tripinfo>
    <tripinfo id="carIn60260:1" depart="57606.00" departLane="315358254#0_1" departPos="5.10" departSpeed="0.00" departDelay="0.90" arrival="57663.00" arrivalLane="399835085#1_1" arrivalPos="212.23" arrivalSpeed="7.25" duration="57.00" routeLength="430.98" waitingTime="0.00" waitingCount="0" stopTime="0.00" timeLoss="6.76" rerouteNo="1" devices="tripinfo_carIn60260:1 routing_carIn60260:1 emissions_carIn60260:1" vType="default_016" speedFactor="0.93" vaporized="">
        <emissions CO_abs="2413.897472" CO2_abs="115176.403379" HC_abs="13.639552" PMx_abs="1.869003" NOx_abs="46.614720" fuel_abs="49.510150" electricity_abs="0"/>
    </tripinfo>
    <tripinfo id="h12244c1:3" depart="57612.00" departLane="315358244_1" departPos="5.10" departSpeed="0.00" departDelay="0.40" arrival="57694.00" arrivalLane="386687235_1" arrivalPos="80.84" arrivalSpeed="16.29" duration="82.00" routeLength="1186.14" waitingTime="0.00" waitingCount="0" stopTime="0.00" timeLoss="8.92" rerouteNo="1" devices="tripinfo_h12244c1:3 routing_h12244c1:3 emissions_h12244c1:3" vType="default_016" speedFactor="1.19" vaporized="">
        <emissions CO_abs="2736.958602" CO2_abs="254840.298917" HC_abs="18.270103" PMx_abs="4.297306" NOx_abs="100.114222" fuel_abs="109.544490" electricity_abs="0"/>
    </tripinfo>
    <tripinfo id="carIn53971:1" depart="57640.00" departLane="272042143_1" departPos="5.10" departSpeed="0.00" departDelay="0.80" arrival="57700.00" arrivalLane="24634414#1_1" arrivalPos="162.19" arrivalSpeed="6.79" duration="60.00" routeLength="493.04" waitingTime="0.00" waitingCount="0" stopTime="0.00" timeLoss="8.28" rerouteNo="1" devices="tripinfo_carIn53971:1 routing_carIn53971:1 emissions_carIn53971:1" vType="default_016" speedFactor="0.89" vaporized="">
        <emissions CO_abs="2553.235733" CO2_abs="133524.713870" HC_abs="14.722508" PMx_abs="2.250502" NOx_abs="54.383610" fuel_abs="57.397105" electricity_abs="0"/>
    </tripinfo>
    <tripinfo id="S5R_frequency1.2" depart="57615.00" departLane="315358250#0_1" departPos="12.10" departSpeed="0.00" departDelay="3.40" arrival="57721.00" arrivalLane="386687235_1" arrivalPos="80.84" arrivalSpeed="13.63" duration="106.00" routeLength="1115.62" waitingTime="4.00" waitingCount="2" stopTime="0.00" timeLoss="24.35" rerouteNo="1" devices="tripinfo_S5R_frequency1.2 routing_S5R_frequency1.2 emissions_S5R_frequency1.2" vType="bus" speedFactor="1.00" vaporized="">
        <emissions CO_abs="2029.887094" CO2_abs="1238584.934888" HC_abs="437.313964" PMx_abs="217.325665" NOx_abs="9691.607645" fuel_abs="528.239325" electricity_abs="0"/>
    </tripinfo>
    <tripinfo id="h3688c1:1" depart="57625.00" departLane="201201950#1_1" departPos="5.10" departSpeed="0.00" departDelay="0.00" arrival="57721.00" arrivalLane="32978638#0_1" arrivalPos="49.29" arrivalSpeed="12.15" duration="96.00" routeLength="1089.75" waitingTime="0.00" waitingCount="0" stopTime="0.00" timeLoss="10.81" rerouteNo="1" devices="tripinfo_h3688c1:1 routing_h3688c1:1 emissions_h3688c1:1" vType="default_016" speedFactor="0.94" vaporized="">
        <emissions CO_abs="3280.758460" CO2_abs="245077.377575" HC_abs="20.667560" PMx_abs="4.038691" NOx_abs="97.887350" fuel_abs="105.348354" electricity_abs="0"/>
    </tripinfo>
    <tripinfo id="h7800c1:5" depart="57696.00" departLane="-447569998#1_1" departPos="5.10" departSpeed="0.00" departDelay="0.00" arrival="57725.00" arrivalLane="-447569998#1_2" arrivalPos="180.76" arrivalSpeed="4.57" duration="29.00" routeLength="175.66" waitingTime="0.00" waitingCount="0" stopTime="0.00" timeLoss="5.55" rerouteNo="1" devices="tripinfo_h7800c1:5 routing_h7800c1:5 emissions_h7800c1:5" vType="default_016" speedFactor="0.92" vaporized="">
        <emissions CO_abs="1464.313550" CO2_abs="56067.395106" HC_abs="7.958651" PMx_abs="0.975887" NOx_abs="23.249107" fuel_abs="24.101469" electricity_abs="0"/>
    </tripinfo>
    <tripinfo id="h4538c1:1" depart="57701.00" departLane="-10427692#1_1" departPos="5.10" departSpeed="0.00" departDelay="0.00" arrival="57737.00" arrivalLane="-128361102#1_1" arrivalPos="274.68" arrivalSpeed="14.63" duration="36.00" routeLength="440.74" waitingTime="0.00" waitingCount="0" stopTime="0.00" timeLoss="6.50" rerouteNo="1" devices="tripinfo_h4538c1:1 routing_h4538c1:1 emissions_h4538c1:1" vType="default_016" speedFactor="1.09" vaporized="">
        <emissions CO_abs="1380.159403" CO2_abs="103163.143262" HC_abs="8.661260" PMx_abs="1.723660" NOx_abs="40.967440" fuel_abs="44.345448" electricity_abs="0"/>
    </tripinfo>
    <tripinfo id="carIn121703:1" depart="57647.00" departLane="386687232#0_1" departPos="5.10" departSpeed="0.00" departDelay="0.30" arrival="57739.00" arrivalLane="-315358244_1" arrivalPos="33.95" arrivalSpeed="13.39" duration="92.00" routeLength="1157.39" waitingTime="0.00" waitingCount="0" stopTime="0.00" timeLoss="8.00" rerouteNo="1" devices="tripinfo_carIn121703:1 routing_carIn121703:1 emissions_carIn121703:1" vType="default_016" speedFactor="1.01" vaporized="">
        <emissions CO_abs="2230.309719" CO2_abs="208118.497990" HC_abs="14.988352" PMx_abs="3.192426" NOx_abs="80.602028" fuel_abs="89.461288" electricity_abs="0"/>
    </tripinfo>
    <tripinfo id="h3568c1:3" depart="57656.00" departLane="266565295#5_1" departPos="5.10" departSpeed="0.00" departDelay="0.80" arrival="57748.00" arrivalLane="-24634415_1" arrivalPos="62.03" arrivalSpeed="12.36" duration="92.00" routeLength="807.40" waitingTime="6.00" waitingCount="1" stopTime="0.00" timeLoss="22.59" rerouteNo="1" devices="tripinfo_h3568c1:3 routing_h3568c1:3 emissions_h3568c1:3" vType="default_016" speedFactor="0.93" vaporized="">
        <emissions CO_abs="4260.472302" CO2_abs="233732.228020" HC_abs="24.879634" PMx_abs="4.178321" NOx_abs="96.277360" fuel_abs="100.471941" electricity_abs="0"/>
    </tripinfo>
    <tripinfo id="carIn22761:1" depart="57616.00" departLane="-306240162#1_0" departPos="5.10" departSpeed="0.00" departDelay="2.10" arrival="57750.00" arrivalLane="399835085#1_1" arrivalPos="212.23" arrivalSpeed="8.99" duration="134.00" routeLength="1093.26" waitingTime="38.00" waitingCount="2" stopTime="0.00" timeLoss="64.42" rerouteNo="1" devices="tripinfo_carIn22761:1 routing_carIn22761:1 emissions_carIn22761:1" vType="default_016" speedFactor="1.12" vaporized="">
        <emissions CO_abs="11128.816434" CO2_abs="437485.143561" HC_abs="61.058741" PMx_abs="9.063337" NOx_abs="186.730960" fuel_abs="188.057949" electricity_abs="0"/>
    </tripinfo>
    <tripinfo id="carIn80064:1" depart="57603.00" departLane="128361109#1_1" departPos="5.10" departSpeed="0.00" departDelay="0.40" arrival="57755.00" arrivalLane="-315358254#1_1" arrivalPos="137.16" arrivalSpeed="13.06" duration="152.00" routeLength="1587.97" waitingTime="42.00" waitingCount="1" stopTime="0.00" timeLoss="64.58" rerouteNo="1" devices="tripinfo_carIn80064:1 routing_carIn80064:1 emissions_carIn80064:1" vType="default_016" speedFactor="1.03" vaporized="">
        <emissions CO_abs="12524.834253" CO2_abs="557224.280823" HC_abs="70.306530" PMx_abs="11.455128" NOx_abs="234.185245" fuel_abs="239.528213" electricity_abs="0"/>
    </tripinfo>
    <tripinfo id="h317c2:1" depart="57707.00" departLane="-32978638#0_1" departPos="5.10" departSpeed="0.00" departDelay="0.10" arrival="57758.00" arrivalLane="-266565295#5_1" arrivalPos="172.76" arrivalSpeed="12.09" duration="51.00" routeLength="370.53" waitingTime="9.00" waitingCount="1" stopTime="0.00" timeLoss="19.26" rerouteNo="1" devices="tripinfo_h317c2:1 routing_h317c2:1 emissions_h317c2:1" vType="default_016" speedFactor="0.87" vaporized="">
        <emissions CO_abs="3127.619319" CO2_abs="126118.957883" HC_abs="17.184876" PMx_abs="2.318707" NOx_abs="52.395444" fuel_abs="54.213998" electricity_abs="0"/>
    </tripinfo>
    <tripinfo id="h7181c1:1" depart="57660.00" departLane="315358254#0_1" departPos="5.10" departSpeed="0.00" departDelay="0.10" arrival="57763.00" arrivalLane="306240162#0_0" arrivalPos="220.43" arrivalSpeed="14.41" duration="103.00" routeLength="932.35" waitingTime="29.00" waitingCount="2" stopTime="0.00" timeLoss="43.45" rerouteNo="1" devices="tripinfo_h7181c1:1 routing_h7181c1:1 emissions_h7181c1:1" vType="default_016" speedFactor="0.87" vaporized="">
        <emissions CO_abs="7101.986281" CO2_abs="294251.437843" HC_abs="39.263450" PMx_abs="5.905070" NOx_abs="123.932009" fuel_abs="126.487317" electricity_abs="0"/>
    </tripinfo>
    <tripinfo id="h5979c1:5" depart="57669.00" departLane="399835085#1_1" departPos="5.10" departSpeed="0.00" departDelay="0.00" arrival="57769.00" arrivalLane="-315358254#1_1" arrivalPos="137.16" arrivalSpeed="11.76" duration="100.00" routeLength="659.33" waitingTime="1.00" waitingCount="1" stopTime="0.00" timeLoss="14.85" rerouteNo="1" devices="tripinfo_h5979c1:5 routing_h5979c1:5 emissions_h5979c1:5" vType="default_016" speedFactor="0.86" vaporized="">
        <emissions CO_abs="4353.862643" CO2_abs="185636.373071" HC_abs="24.083247" PMx_abs="3.053491" NOx_abs="75.632118" fuel_abs="79.798640" electricity_abs="0"/>
    </tripinfo>
    <tripinfo id="h330c1:1" depart="57736.00" departLane="-32978638#0_1" departPos="5.10" departSpeed="0.00" departDelay="0.20" arrival="57771.00" arrivalLane="-266565295#5_1" arrivalPos="172.76" arrivalSpeed="12.76" duration="35.00" routeLength="370.53" waitingTime="0.00" waitingCount="0" stopTime="0.00" timeLoss="5.86" rerouteNo="1" devices="tripinfo_h330c1:1 routing_h330c1:1 emissions_h330c1:1" vType="default_016" speedFactor="0.94" vaporized="">
        <emissions CO_abs="1672.738267" CO2_abs="97672.509350" HC_abs="9.917782" PMx_abs="1.784151" NOx_abs="40.445190" fuel_abs="41.985277" electricity_abs="0"/>
    </tripinfo>
    <tripinfo id="h3326c1:2" depart="57656.00" departLane="22716069#0_1" departPos="5.10" departSpeed="0.00" departDelay="0.00" arrival="57776.00" arrivalLane="24634517#13_1" arrivalPos="111.62" arrivalSpeed="11.78" duration="120.00" routeLength="1312.81" waitingTime="0.00" waitingCount="0" stopTime="0.00" timeLoss="14.36" rerouteNo="1" devices="tripinfo_h3326c1:2 routing_h3326c1:2 emissions_h3326c1:2" vType="default_016" speedFactor="0.92" vaporized="">
        <emissions CO_abs="4019.171166" CO2_abs="297327.440783" HC_abs="25.238241" PMx_abs="4.845734" NOx_abs="118.500833" fuel_abs="127.808542" electricity_abs="0"/>
    </tripinfo>
    <tripinfo id="carIn30817:1" depart="57681.00" departLane="315358244_1" departPos="5.10" departSpeed="0.00" departDelay="0.20" arrival="57781.00" arrivalLane="447569997#1_1" arrivalPos="180.93" arrivalSpeed="6.10" duration="100.00" routeLength="718.04" waitingTime="10.00" waitingCount="1" stopTime="0.00" timeLoss="22.02" rerouteNo="1" devices="tripinfo_carIn30817:1 routing_carIn30817:1 emissions_carIn30817:1" vType="default_016" speedFactor="0.79" vaporized="">
        <emissions CO_abs="4572.345206" CO2_abs="189275.692259" HC_abs="25.177665" PMx_abs="3.176463" NOx_abs="76.994467" fuel_abs="81.363130" electricity_abs="0"/>
    </tripinfo>
    <tripinfo id="h9563c2:5" depart="57631.00" departLane="315358244_1" departPos="5.10" departSpeed="0.00" departDelay="0.70" arrival="57788.00" arrivalLane="386687235_1" arrivalPos="80.84" arrivalSpeed="12.14" duration="157.00" routeLength="1186.14" waitingTime="52.00" waitingCount="1" stopTime="0.00" timeLoss="64.85" rerouteNo="1" devices="tripinfo_h9563c2:5 routing_h9563c2:5 emissions_h9563c2:5" vType="default_016" speedFactor="0.94" vaporized="">
        <emissions CO_abs="10480.196670" CO2_abs="359764.558571" HC_abs="56.117367" PMx_abs="6.774018" NOx_abs="149.319171" fuel_abs="154.651039" electricity_abs="0"/>
    </tripinfo>
    <tripinfo id="h3154c1:1" depart="57658.00" departLane="24634507_1" departPos="5.10" departSpeed="0.00" departDelay="0.00" arrival="57792.00" arrivalLane="-266565295#5_1" arrivalPos="172.76" arrivalSpeed="13.60" duration="134.00" routeLength="1206.22" waitingTime="19.00" waitingCount="2" stopTime="0.00" timeLoss="42.58" rerouteNo="1" devices="tripinfo_h3154c1:1 routing_h3154c1:1 emissions_h3154c1:1" vType="default_016" speedFactor="0.98" vaporized="">
        <emissions CO_abs="7070.584378" CO2_abs="341119.735836" HC_abs="40.203576" PMx_abs="6.373033" NOx_abs="141.733222" fuel_abs="146.633808" electricity_abs="0"/>
    </tripinfo>
    <tripinfo id="carIn27009:1" depart="57673.00" departLane="-447569998#1_1" departPos="5.10" departSpeed="0.00" departDelay="0.50" arrival="57792.00" arrivalLane="-26677539_1" arrivalPos="152.75" arrivalSpeed="8.08" duration="119.00" routeLength="699.63" waitingTime="22.00" waitingCount="1" stopTime="0.00" timeLoss="36.07" rerouteNo="1" devices="tripinfo_carIn27009:1 routing_carIn27009:1 emissions_carIn27009:1" vType="default_015" speedFactor="1.01" vaporized="">
        <emissions CO_abs="6784.146838" CO2_abs="236872.881530" HC_abs="36.356082" PMx_abs="4.234255" NOx_abs="98.445659" fuel_abs="101.823999" electricity_abs="0"/>
    </tripinfo>
    <tripinfo id="carIn129809:1" depart="57729.00" departLane="-447569998#1_1" departPos="5.10" departSpeed="0.00" departDelay="1.00" arrival="57803.00" arrivalLane="-315358244_1" arrivalPos="33.95" arrivalSpeed="15.06" duration="74.00" routeLength="706.49" waitingTime="9.00" waitingCount="1" stopTime="0.00" timeLoss="20.85" rerouteNo="1" devices="tripinfo_carIn129809:1 routing_carIn129809:1 emissions_carIn129809:1" vType="default_015" speedFactor="1.15" vaporized="">
        <emissions CO_abs="3391.049031" CO2_abs="186739.441711" HC_abs="19.692823" PMx_abs="3.253912" NOx_abs="75.397890" fuel_abs="80.271857" electricity_abs="0"/>
    </tripinfo>
    <tripinfo id="carIn82278:1" depart="57702.00" departLane="-306240162#1_0" departPos="5.10" departSpeed="0.00" departDelay="0.70" arrival="57804.00" arrivalLane="399835085#1_1" arrivalPos="212.23" arrivalSpeed="7.62" duration="102.00" routeLength="1093.26" waitingTime="2.00" waitingCount="1" stopTime="0.00" timeLoss="23.50" rerouteNo="1" devices="tripinfo_carIn82278:1 routing_carIn82278:1 emissions_carIn82278:1" vType="default_016" speedFactor="0.99" vaporized="">
        <emissions CO_abs="5489.334459" CO2_abs="323876.260722" HC_abs="32.580472" PMx_abs="6.028073" NOx_abs="133.278040" fuel_abs="139.220617" electricity_abs="0"/>
    </tripinfo>
    <tripinfo id="carIn12365:1" depart="57713.00" departLane="315358244_1" departPos="5.10" departSpeed="0.00" departDelay="0.50" arrival="57805.00" arrivalLane="447569997#1_1" arrivalPos="180.93" arrivalSpeed="6.34" duration="92.00" routeLength="718.04" waitingTime="11.00" waitingCount="1" stopTime="0.00" timeLoss="20.74" rerouteNo="1" devices="tripinfo_carIn12365:1 routing_carIn12365:1 emissions_carIn12365:1" vType="default_016" speedFactor="0.87" vaporized="">
        <emissions CO_abs="4618.424616" CO2_abs="194798.879087" HC_abs="25.518272" PMx_abs="3.243963" NOx_abs="78.693294" fuel_abs="83.737362" electricity_abs="0"/>
    </tripinfo>
    <tripinfo id="carIn12858:1" depart="57661.00" departLane="128361109#1_1" departPos="5.10" departSpeed="0.00" departDelay="0.90" arrival="57806.00" arrivalLane="399835085#1_1" arrivalPos="212.23" arrivalSpeed="8.58" duration="145.00" routeLength="1738.12" waitingTime="16.00" waitingCount="2" stopTime="0.00" timeLoss="46.54" rerouteNo="1" devices="tripinfo_carIn12858:1 routing_carIn12858:1 emissions_carIn12858:1" vType="default_016" speedFactor="1.18" vaporized="">
        <emissions CO_abs="8916.712356" CO2_abs="524052.573984" HC_abs="53.128948" PMx_abs="10.537644" NOx_abs="217.593138" fuel_abs="225.267061" electricity_abs="0"/>
    </tripinfo>
    <tripinfo id="carIn86816:1" depart="57617.00" departLane="128361102#0_1" departPos="5.10" departSpeed="0.00" departDelay="0.80" arrival="57809.00" arrivalLane="201956811#0_1" arrivalPos="40.40" arrivalSpeed="13.15" duration="192.00" routeLength="2067.33" waitingTime="12.00" waitingCount="2" stopTime="0.00" timeLoss="38.51" rerouteNo="1" devices="tripinfo_carIn86816:1 routing_carIn86816:1 emissions_carIn86816:1" vType="default_016" speedFactor="0.98" vaporized="">
        <emissions CO_abs="7054.851609" CO2_abs="471988.174546" HC_abs="43.144931" PMx_abs="7.944128" NOx_abs="189.151924" fuel_abs="202.888083" electricity_abs="0"/>
    </tripinfo>
    <tripinfo id="carIn107282:1" depart="57749.00" departLane="-447569998#1_1" departPos="5.10" departSpeed="0.00" departDelay="0.00" arrival="57809.00" arrivalLane="315358242#0_1" arrivalPos="165.37" arrivalSpeed="11.19" duration="60.00" routeLength="448.50" waitingTime="3.00" waitingCount="1" stopTime="0.00" timeLoss="12.65" rerouteNo="1" devices="tripinfo_carIn107282:1 routing_carIn107282:1 emissions_carIn107282:1" vType="default_016" speedFactor="0.89" vaporized="">
        <emissions CO_abs="2488.981379" CO2_abs="120374.561905" HC_abs="14.100747" PMx_abs="1.931053" NOx_abs="48.371676" fuel_abs="51.744676" electricity_abs="0"/>
    </tripinfo>
    <tripinfo id="carIn50326:1" depart="57651.00" departLane="128361102#0_1" departPos="5.10" departSpeed="0.00" departDelay="0.30" arrival="57810.00" arrivalLane="18809673#0_1" arrivalPos="473.56" arrivalSpeed="14.47" duration="159.00" routeLength="1591.07" waitingTime="15.00" waitingCount="2" stopTime="0.00" timeLoss="39.16" rerouteNo="1" devices="tripinfo_carIn50326:1 routing_carIn50326:1 emissions_carIn50326:1" vType="default_016" speedFactor="1.09" vaporized="">
        <emissions CO_abs="7013.130717" CO2_abs="384227.918354" HC_abs="40.892681" PMx_abs="6.826534" NOx_abs="156.454520" fuel_abs="165.164113" electricity_abs="0"/>
    </tripinfo>
    <tripinfo id="carIn118591:1" depart="57689.00" departLane="315358244_1" departPos="5.10" departSpeed="0.00" departDelay="0.20" arrival="57821.00" arrivalLane="386687235_1" arrivalPos="80.84" arrivalSpeed="14.96" duration="132.00" routeLength="1186.14" waitingTime="22.00" waitingCount="3" stopTime="0.00" timeLoss="54.46" rerouteNo="1" devices="tripinfo_carIn118591:1 routing_carIn118591:1 emissions_carIn118591:1" vType="default_016" speedFactor="1.11" vaporized="">
        <emissions CO_abs="7333.350476" CO2_abs="357261.079085" HC_abs="41.703174" PMx_abs="6.624891" NOx_abs="147.279378" fuel_abs="153.572416" electricity_abs="0"/>
    </tripinfo>
    <tripinfo id="randUni15030:1" depart="57735.00" departLane="386687232#0_1" departPos="5.10" departSpeed="0.00" departDelay="0.10" arrival="57830.00" arrivalLane="26677539_1" arrivalPos="151.98" arrivalSpeed="8.26" duration="95.00" routeLength="919.89" waitingTime="5.00" waitingCount="1" stopTime="0.00" timeLoss="19.38" rerouteNo="1" devices="tripinfo_randUni15030:1 routing_randUni15030:1 emissions_randUni15030:1" vType="random_016" speedFactor="1.10" vaporized="">
        <emissions CO_abs="3633.661172" CO2_abs="222308.292088" HC_abs="21.639119" PMx_abs="3.776955" NOx_abs="89.694112" fuel_abs="95.561244" electricity_abs="0"/>
    </tripinfo>
    <tripinfo id="carIn102915:1" depart="57643.00" departLane="128361102#0_1" departPos="5.10" departSpeed="0.00" departDelay="0.40" arrival="57831.00" arrivalLane="201956811#0_1" arrivalPos="40.40" arrivalSpeed="12.91" duration="188.00" routeLength="2067.33" waitingTime="8.00" waitingCount="2" stopTime="0.00" timeLoss="36.61" rerouteNo="1" devices="tripinfo_carIn102915:1 routing_carIn102915:1 emissions_carIn102915:1" vType="default_016" speedFactor="1.00" vaporized="">
        <emissions CO_abs="5890.214446" CO2_abs="447611.548135" HC_abs="37.273250" PMx_abs="7.400360" NOx_abs="178.253260" fuel_abs="192.409132" electricity_abs="0"/>
    </tripinfo>
    <tripinfo id="carIn48184:1" depart="57613.00" departLane="-306240162#1_0" departPos="5.10" departSpeed="0.00" departDelay="0.70" arrival="57834.00" arrivalLane="386687235_1" arrivalPos="80.84" arrivalSpeed="13.05" duration="221.00" routeLength="2257.41" waitingTime="31.00" waitingCount="4" stopTime="0.00" timeLoss="66.78" rerouteNo="1" devices="tripinfo_carIn48184:1 routing_carIn48184:1 emissions_carIn48184:1" vType="default_016" speedFactor="0.97" vaporized="">
        <emissions CO_abs="10949.678440" CO2_abs="606643.693038" HC_abs="64.180771" PMx_abs="11.118984" NOx_abs="248.317835" fuel_abs="260.771187" electricity_abs="0"/>
    </tripinfo>
    <tripinfo id="carIn82220:1" depart="57619.00" departLane="-306240162#1_0" departPos="5.10" departSpeed="0.00" departDelay="3.50" arrival="57834.00" arrivalLane="386687235_2" arrivalPos="80.84" arrivalSpeed="12.94" duration="215.00" routeLength="2257.41" waitingTime="26.00" waitingCount="3" stopTime="0.00" timeLoss="70.01" rerouteNo="1" devices="tripinfo_carIn82220:1 routing_carIn82220:1 emissions_carIn82220:1" vType="default_016" speedFactor="1.02" vaporized="">
        <emissions CO_abs="11337.803849" CO2_abs="645422.233406" HC_abs="66.785167" PMx_abs="12.189330" NOx_abs="266.768755" fuel_abs="277.439615" electricity_abs="0"/>
    </tripinfo>
    <tripinfo id="carIn462:1" depart="57622.00" departLane="-306240162#1_0" departPos="5.10" departSpeed="0.00" departDelay="4.80" arrival="57836.00" arrivalLane="386687235_1" arrivalPos="80.84" arrivalSpeed="14.38" duration="214.00" routeLength="2257.41" waitingTime="20.00" waitingCount="2" stopTime="0.00" timeLoss="75.67" rerouteNo="1" devices="tripinfo_carIn462:1 routing_carIn462:1 emissions_carIn462:1" vType="default_016" speedFactor="1.08" vaporized="">
        <emissions CO_abs="11117.734566" CO2_abs="657651.109674" HC_abs="66.195856" PMx_abs="12.347918" NOx_abs="271.274169" fuel_abs="282.696061" electricity_abs="0"/>
    </tripinfo>
    <tripinfo id="carIn116184:1" depart="57627.00" departLane="-306240162#1_0" departPos="5.10" departSpeed="0.00" departDelay="0.10" arrival="57836.00" arrivalLane="386687235_2" arrivalPos="80.84" arrivalSpeed="13.67" duration="209.00" routeLength="2257.41" waitingTime="18.00" waitingCount="3" stopTime="0.00" timeLoss="70.61" rerouteNo="1" devices="tripinfo_carIn116184:1 routing_carIn116184:1 emissions_carIn116184:1" vType="default_016" speedFactor="1.07" vaporized="">
        <emissions CO_abs="10937.188240" CO2_abs="620196.189419" HC_abs="64.508912" PMx_abs="11.823761" NOx_abs="255.968755" fuel_abs="266.596010" electricity_abs="0"/>
    </tripinfo>
    <tripinfo id="randUni14624:1" depart="57606.00" departLane="315358244_1" departPos="5.10" departSpeed="0.00" departDelay="0.80" arrival="57837.00" arrivalLane="-25149001#4_1" arrivalPos="105.67" arrivalSpeed="9.41" duration="231.00" routeLength="2803.98" waitingTime="13.00" waitingCount="3" stopTime="0.00" timeLoss="47.77" rerouteNo="1" devices="tripinfo_randUni14624:1 routing_randUni14624:1 emissions_randUni14624:1" vType="random_016" speedFactor="1.15" vaporized="">
        <emissions CO_abs="7667.934411" CO2_abs="608477.882121" HC_abs="48.712234" PMx_abs="10.474745" NOx_abs="242.575167" fuel_abs="261.557941" electricity_abs="0"/>
    </tripinfo>
    <tripinfo id="carIn12152:1" depart="57647.00" departLane="24599188#0.94_1" departPos="5.10" departSpeed="0.00" departDelay="0.50" arrival="57837.00" arrivalLane="-315358254#1_1" arrivalPos="137.16" arrivalSpeed="12.50" duration="190.00" routeLength="2034.31" waitingTime="6.00" waitingCount="1" stopTime="0.00" timeLoss="24.24" rerouteNo="1" devices="tripinfo_carIn12152:1 routing_carIn12152:1 emissions_carIn12152:1" vType="default_016" speedFactor="0.96" vaporized="">
        <emissions CO_abs="5164.724979" CO2_abs="393531.397269" HC_abs="32.643359" PMx_abs="6.111925" NOx_abs="154.292257" fuel_abs="169.162960" electricity_abs="0"/>
    </tripinfo>
    <tripinfo id="h11737c1:1" depart="57664.00" departLane="272042143_1" departPos="5.10" departSpeed="0.00" departDelay="0.50" arrival="57838.00" arrivalLane="-315358254#1_1" arrivalPos="137.16" arrivalSpeed="14.45" duration="174.00" routeLength="1596.88" waitingTime="42.00" waitingCount="2" stopTime="0.00" timeLoss="67.35" rerouteNo="1" devices="tripinfo_h11737c1:1 routing_h11737c1:1 emissions_h11737c1:1" vType="default_016" speedFactor="1.09" vaporized="">
        <emissions CO_abs="9905.813067" CO2_abs="431685.873825" HC_abs="55.089031" PMx_abs="8.091998" NOx_abs="177.935522" fuel_abs="185.565505" electricity_abs="0"/>
    </tripinfo>
    <tripinfo id="carIn85747:1" depart="57673.00" departLane="128361109#1_1" departPos="5.10" departSpeed="0.00" departDelay="0.70" arrival="57838.00" arrivalLane="386687235_1" arrivalPos="80.84" arrivalSpeed="15.74" duration="165.00" routeLength="2088.57" waitingTime="6.00" waitingCount="2" stopTime="0.00" timeLoss="32.88" rerouteNo="1" devices="tripinfo_carIn85747:1 routing_carIn85747:1 emissions_carIn85747:1" vType="default_016" speedFactor="1.15" vaporized="">
        <emissions CO_abs="5370.602121" CO2_abs="441688.108118" HC_abs="34.498673" PMx_abs="7.412508" NOx_abs="174.285708" fuel_abs="189.862529" electricity_abs="0"/>
    </tripinfo>
    <tripinfo id="carIn126288:1" depart="57674.00" departLane="272042143_1" departPos="5.10" departSpeed="0.00" departDelay="0.00" arrival="57842.00" arrivalLane="-315358254#1_1" arrivalPos="137.16" arrivalSpeed="12.15" duration="168.00" routeLength="1596.88" waitingTime="26.00" waitingCount="1" stopTime="0.00" timeLoss="46.13" rerouteNo="1" devices="tripinfo_carIn126288:1 routing_carIn126288:1 emissions_carIn126288:1" vType="default_016" speedFactor="0.96" vaporized="">
        <emissions CO_abs="8054.686245" CO2_abs="395311.389576" HC_abs="45.893924" PMx_abs="6.819511" NOx_abs="159.714340" fuel_abs="169.929487" electricity_abs="0"/>
    </tripinfo>
    <tripinfo id="carIn81860:1" depart="57712.00" departLane="128361102#0_1" departPos="5.10" departSpeed="0.00" departDelay="0.60" arrival="57849.00" arrivalLane="-24634517#17_1" arrivalPos="6.43" arrivalSpeed="6.92" duration="137.00" routeLength="1229.64" waitingTime="9.00" waitingCount="1" stopTime="0.00" timeLoss="26.57" rerouteNo="1" devices="tripinfo_carIn81860:1 routing_carIn81860:1 emissions_carIn81860:1" vType="default_016" speedFactor="0.81" vaporized="">
        <emissions CO_abs="4898.527821" CO2_abs="285752.976071" HC_abs="28.901009" PMx_abs="4.514066" NOx_abs="113.761337" fuel_abs="122.834189" electricity_abs="0"/>
    </tripinfo>
    <tripinfo id="randUni31145:1" depart="57814.00" departLane="10425609#0_1" departPos="5.10" departSpeed="0.00" departDelay="0.30" arrival="57853.00" arrivalLane="201956810_1" arrivalPos="71.65" arrivalSpeed="14.36" duration="39.00" routeLength="255.78" waitingTime="9.00" waitingCount="1" stopTime="0.00" timeLoss="21.00" rerouteNo="1" devices="tripinfo_randUni31145:1 routing_randUni31145:1 emissions_randUni31145:1" vType="random_016" speedFactor="1.09" vaporized="">
        <emissions CO_abs="3020.800551" CO2_abs="136088.886576" HC_abs="16.980610" PMx_abs="2.706066" NOx_abs="57.871259" fuel_abs="58.499095" electricity_abs="0"/>
    </tripinfo>
    <tripinfo id="carIn8642:1" depart="57774.00" departLane="-447569998#1_1" departPos="5.10" departSpeed="0.00" departDelay="0.90" arrival="57854.00" arrivalLane="-315358244_1" arrivalPos="33.95" arrivalSpeed="12.58" duration="80.00" routeLength="706.49" waitingTime="0.00" waitingCount="0" stopTime="0.00" timeLoss="13.43" rerouteNo="1" devices="tripinfo_carIn8642:1 routing_carIn8642:1 emissions_carIn8642:1" vType="default_016" speedFactor="0.92" vaporized="">
        <emissions CO_abs="3063.930714" CO2_abs="181763.494094" HC_abs="18.152144" PMx_abs="2.884374" NOx_abs="72.374475" fuel_abs="78.133063" electricity_abs="0"/>
    </tripinfo>
    <tripinfo id="carIn126378:1" depart="57746.00" departLane="386687232#0_1" departPos="5.10" departSpeed="0.00" departDelay="1.80" arrival="57855.00" arrivalLane="-315358244_1" arrivalPos="33.95" arrivalSpeed="14.25" duration="109.00" routeLength="1157.39" waitingTime="11.00" waitingCount="1" stopTime="0.00" timeLoss="27.88" rerouteNo="1" devices="tripinfo_carIn126378:1 routing_carIn126378:1 emissions_carIn126378:1" vType="default_016" speedFactor="1.04" vaporized="">
        <emissions CO_abs="4603.202196" CO2_abs="278439.246228" HC_abs="27.474413" PMx_abs="4.906291" NOx_abs="112.930373" fuel_abs="119.689496" electricity_abs="0"/>
    </tripinfo>