<?xml version="1.0" encoding="UTF-8"?>

<!-- generated on 2021-10-26 19:26:58 by Eclipse SUMO sumo Version 1.10.0
<configuration xmlns:xsi="http://www.w3.org/2001/XMLSchema-instance" xsi:noNamespaceSchemaLocation="http://sumo.dlr.de/xsd/sumoConfiguration.xsd">

    <input>
        <net-file value="/Users/behradkoohy/sumo-scratchpad/RESCO/environments/ingolstadt21/ingolstadt21.net.xml"/>
        <route-files value="/Users/behradkoohy/sumo-scratchpad/RESCO/environments/ingolstadt21/ingolstadt21.rou.xml"/>
    </input>

    <output>
        <tripinfo-output value="/Users/behradkoohy/sumo-scratchpad/RESCO/logs/MPLight-tr0-ingolstadt21-21-mplight-pressure/tripinfo_26.xml"/>
        <tripinfo-output.write-unfinished value="true"/>
    </output>

    <time>
        <begin value="57600"/>
        <end value="61200"/>
    </time>

    <processing>
        <time-to-teleport value="-1"/>
    </processing>

    <report>
        <no-warnings value="true"/>
        <no-step-log value="true"/>
    </report>

    <emissions>
        <device.emissions.probability value="1"/>
    </emissions>

    <traci_server>
        <remote-port value="63421"/>
    </traci_server>

    <random_number>
        <random value="true"/>
    </random_number>

</configuration>
-->

<tripinfos xmlns:xsi="http://www.w3.org/2001/XMLSchema-instance" xsi:noNamespaceSchemaLocation="http://sumo.dlr.de/xsd/tripinfo_file.xsd">
    <tripinfo id="h15454c2:3" depart="57612.00" departLane="24608844_1" departPos="5.10" departSpeed="0.00" departDelay="0.50" arrival="57656.00" arrivalLane="32978638#0_1" arrivalPos="49.29" arrivalSpeed="15.44" duration="44.00" routeLength="354.79" waitingTime="4.00" waitingCount="1" stopTime="0.00" timeLoss="13.18" rerouteNo="1" devices="tripinfo_h15454c2:3 routing_h15454c2:3 emissions_h15454c2:3" vType="default_016" speedFactor="1.12" vaporized="">
        <emissions CO_abs="2377.141296" CO2_abs="131109.366135" HC_abs="13.918070" PMx_abs="2.449206" NOx_abs="54.731543" fuel_abs="56.358386" electricity_abs="0"/>
    </tripinfo>
    <tripinfo id="carIn53971:1" depart="57640.00" departLane="272042143_1" departPos="5.10" departSpeed="0.00" departDelay="0.80" arrival="57693.00" arrivalLane="24634414#1_1" arrivalPos="162.19" arrivalSpeed="7.67" duration="53.00" routeLength="493.04" waitingTime="0.00" waitingCount="0" stopTime="0.00" timeLoss="7.79" rerouteNo="1" devices="tripinfo_carIn53971:1 routing_carIn53971:1 emissions_carIn53971:1" vType="default_016" speedFactor="1.02" vaporized="">
        <emissions CO_abs="2389.775997" CO2_abs="138775.065927" HC_abs="14.122214" PMx_abs="2.460494" NOx_abs="57.097867" fuel_abs="59.653636" electricity_abs="0"/>
    </tripinfo>
    <tripinfo id="carIn60260:1" depart="57606.00" departLane="315358254#0_1" departPos="5.10" departSpeed="0.00" departDelay="0.90" arrival="57711.00" arrivalLane="399835085#1_1" arrivalPos="212.23" arrivalSpeed="8.09" duration="105.00" routeLength="430.98" waitingTime="51.00" waitingCount="1" stopTime="0.00" timeLoss="60.95" rerouteNo="1" devices="tripinfo_carIn60260:1 routing_carIn60260:1 emissions_carIn60260:1" vType="default_016" speedFactor="1.05" vaporized="">
        <emissions CO_abs="10106.316930" CO2_abs="248694.565086" HC_abs="51.798210" PMx_abs="5.198044" NOx_abs="107.617283" fuel_abs="106.907221" electricity_abs="0"/>
    </tripinfo>
    <tripinfo id="h7800c1:5" depart="57696.00" departLane="-447569998#1_1" departPos="5.10" departSpeed="0.00" departDelay="0.00" arrival="57721.00" arrivalLane="-447569998#1_1" arrivalPos="180.76" arrivalSpeed="7.28" duration="25.00" routeLength="175.66" waitingTime="0.00" waitingCount="0" stopTime="0.00" timeLoss="2.57" rerouteNo="1" devices="tripinfo_h7800c1:5 routing_h7800c1:5 emissions_h7800c1:5" vType="default_016" speedFactor="0.95" vaporized="">
        <emissions CO_abs="1155.353417" CO2_abs="49589.786019" HC_abs="6.386731" PMx_abs="0.755425" NOx_abs="19.828942" fuel_abs="21.317013" electricity_abs="0"/>
    </tripinfo>
    <tripinfo id="h3688c1:1" depart="57625.00" departLane="201201950#1_1" departPos="5.10" departSpeed="0.00" departDelay="0.00" arrival="57728.00" arrivalLane="32978638#0_1" arrivalPos="49.29" arrivalSpeed="10.76" duration="103.00" routeLength="1089.75" waitingTime="0.00" waitingCount="0" stopTime="0.00" timeLoss="9.52" rerouteNo="1" devices="tripinfo_h3688c1:1 routing_h3688c1:1 emissions_h3688c1:1" vType="default_016" speedFactor="0.85" vaporized="">
        <emissions CO_abs="3134.335346" CO2_abs="235730.769423" HC_abs="19.733377" PMx_abs="3.648278" NOx_abs="92.892496" fuel_abs="101.330959" electricity_abs="0"/>
    </tripinfo>
    <tripinfo id="h317c2:1" depart="57707.00" departLane="-32978638#0_1" departPos="5.10" departSpeed="0.00" departDelay="0.10" arrival="57739.00" arrivalLane="-266565295#5_1" arrivalPos="172.76" arrivalSpeed="15.67" duration="32.00" routeLength="370.53" waitingTime="0.00" waitingCount="0" stopTime="0.00" timeLoss="7.22" rerouteNo="1" devices="tripinfo_h317c2:1 routing_h317c2:1 emissions_h317c2:1" vType="default_016" speedFactor="1.13" vaporized="">
        <emissions CO_abs="1876.249515" CO2_abs="121177.346219" HC_abs="11.420318" PMx_abs="2.264144" NOx_abs="50.091028" fuel_abs="52.088806" electricity_abs="0"/>
    </tripinfo>
    <tripinfo id="h3568c1:3" depart="57656.00" departLane="266565295#5_1" departPos="5.10" departSpeed="0.00" departDelay="0.80" arrival="57742.00" arrivalLane="-24634415_1" arrivalPos="62.03" arrivalSpeed="15.95" duration="86.00" routeLength="807.40" waitingTime="12.00" waitingCount="1" stopTime="0.00" timeLoss="31.58" rerouteNo="1" devices="tripinfo_h3568c1:3 routing_h3568c1:3 emissions_h3568c1:3" vType="default_016" speedFactor="1.19" vaporized="">
        <emissions CO_abs="5721.083662" CO2_abs="296570.741628" HC_abs="32.974939" PMx_abs="5.798736" NOx_abs="124.608303" fuel_abs="127.483218" electricity_abs="0"/>
    </tripinfo>
    <tripinfo id="h4538c1:1" depart="57701.00" departLane="-10427692#1_1" departPos="5.10" departSpeed="0.00" departDelay="0.00" arrival="57746.00" arrivalLane="-128361102#1_1" arrivalPos="274.68" arrivalSpeed="12.69" duration="45.00" routeLength="440.74" waitingTime="3.00" waitingCount="1" stopTime="0.00" timeLoss="12.76" rerouteNo="1" devices="tripinfo_h4538c1:1 routing_h4538c1:1 emissions_h4538c1:1" vType="default_016" speedFactor="0.98" vaporized="">
        <emissions CO_abs="1931.242453" CO2_abs="118041.587342" HC_abs="11.535329" PMx_abs="2.028085" NOx_abs="47.775243" fuel_abs="50.741224" electricity_abs="0"/>
    </tripinfo>
    <tripinfo id="h5979c1:5" depart="57669.00" departLane="399835085#1_1" departPos="5.10" departSpeed="0.00" departDelay="0.00" arrival="57757.00" arrivalLane="-315358254#1_1" arrivalPos="137.16" arrivalSpeed="12.66" duration="88.00" routeLength="659.33" waitingTime="0.00" waitingCount="0" stopTime="0.00" timeLoss="12.55" rerouteNo="1" devices="tripinfo_h5979c1:5 routing_h5979c1:5 emissions_h5979c1:5" vType="default_016" speedFactor="0.97" vaporized="">
        <emissions CO_abs="3518.037641" CO2_abs="171283.678487" HC_abs="19.975003" PMx_abs="2.855115" NOx_abs="69.740637" fuel_abs="73.628459" electricity_abs="0"/>
    </tripinfo>
    <tripinfo id="h3154c1:1" depart="57658.00" departLane="24634507_1" departPos="5.10" departSpeed="0.00" departDelay="0.00" arrival="57758.00" arrivalLane="-266565295#5_1" arrivalPos="172.76" arrivalSpeed="14.41" duration="100.00" routeLength="1206.22" waitingTime="1.00" waitingCount="1" stopTime="0.00" timeLoss="17.51" rerouteNo="1" devices="tripinfo_h3154c1:1 routing_h3154c1:1 emissions_h3154c1:1" vType="default_016" speedFactor="1.08" vaporized="">
        <emissions CO_abs="4197.300215" CO2_abs="313230.917528" HC_abs="26.411479" PMx_abs="5.500917" NOx_abs="126.650878" fuel_abs="134.644200" electricity_abs="0"/>
    </tripinfo>
    <tripinfo id="carIn30817:1" depart="57681.00" departLane="315358244_1" departPos="5.10" departSpeed="0.00" departDelay="0.20" arrival="57766.00" arrivalLane="447569997#1_1" arrivalPos="180.93" arrivalSpeed="7.89" duration="85.00" routeLength="718.04" waitingTime="10.00" waitingCount="1" stopTime="0.00" timeLoss="23.08" rerouteNo="1" devices="tripinfo_carIn30817:1 routing_carIn30817:1 emissions_carIn30817:1" vType="default_016" speedFactor="1.00" vaporized="">
        <emissions CO_abs="3670.751978" CO2_abs="183400.685575" HC_abs="20.980312" PMx_abs="3.138223" NOx_abs="74.437280" fuel_abs="78.836982" electricity_abs="0"/>
    </tripinfo>
    <tripinfo id="S5R_frequency1.2" depart="57615.00" departLane="315358250#0_1" departPos="12.10" departSpeed="0.00" departDelay="3.40" arrival="57770.00" arrivalLane="386687235_1" arrivalPos="80.84" arrivalSpeed="13.66" duration="155.00" routeLength="1115.62" waitingTime="56.00" waitingCount="1" stopTime="0.00" timeLoss="73.83" rerouteNo="1" devices="tripinfo_S5R_frequency1.2 routing_S5R_frequency1.2 emissions_S5R_frequency1.2" vType="bus" speedFactor="1.00" vaporized="">
        <emissions CO_abs="3077.756671" CO2_abs="1547131.259519" HC_abs="677.447464" PMx_abs="321.685694" NOx_abs="13031.159141" fuel_abs="659.712595" electricity_abs="0"/>
    </tripinfo>
    <tripinfo id="carIn22761:1" depart="57616.00" departLane="-306240162#1_0" departPos="5.10" departSpeed="0.00" departDelay="2.10" arrival="57772.00" arrivalLane="399835085#1_1" arrivalPos="212.23" arrivalSpeed="8.57" duration="156.00" routeLength="1093.26" waitingTime="56.00" waitingCount="2" stopTime="0.00" timeLoss="81.71" rerouteNo="1" devices="tripinfo_carIn22761:1 routing_carIn22761:1 emissions_carIn22761:1" vType="default_016" speedFactor="1.04" vaporized="">
        <emissions CO_abs="13409.795666" CO2_abs="471287.475390" HC_abs="72.234833" PMx_abs="9.887492" NOx_abs="201.978931" fuel_abs="202.589290" electricity_abs="0"/>
    </tripinfo>
    <tripinfo id="h9563c2:5" depart="57631.00" departLane="315358244_1" departPos="5.10" departSpeed="0.00" departDelay="0.70" arrival="57774.00" arrivalLane="386687235_1" arrivalPos="80.84" arrivalSpeed="13.07" duration="143.00" routeLength="1186.14" waitingTime="31.00" waitingCount="2" stopTime="0.00" timeLoss="56.68" rerouteNo="1" devices="tripinfo_h9563c2:5 routing_h9563c2:5 emissions_h9563c2:5" vType="default_016" speedFactor="1.00" vaporized="">
        <emissions CO_abs="8750.281192" CO2_abs="358433.069911" HC_abs="48.260105" PMx_abs="6.866827" NOx_abs="149.941745" fuel_abs="154.077002" electricity_abs="0"/>
    </tripinfo>
    <tripinfo id="h3326c1:2" depart="57656.00" departLane="22716069#0_1" departPos="5.10" departSpeed="0.00" departDelay="0.00" arrival="57775.00" arrivalLane="24634517#13_1" arrivalPos="111.62" arrivalSpeed="12.83" duration="119.00" routeLength="1312.81" waitingTime="0.00" waitingCount="0" stopTime="0.00" timeLoss="15.07" rerouteNo="1" devices="tripinfo_h3326c1:2 routing_h3326c1:2 emissions_h3326c1:2" vType="default_016" speedFactor="0.94" vaporized="">
        <emissions CO_abs="4105.781386" CO2_abs="300030.292082" HC_abs="25.694258" PMx_abs="4.890258" NOx_abs="119.579957" fuel_abs="128.970427" electricity_abs="0"/>
    </tripinfo>
    <tripinfo id="h12244c1:3" depart="57612.00" departLane="315358244_1" departPos="5.10" departSpeed="0.00" departDelay="0.40" arrival="57778.00" arrivalLane="386687235_1" arrivalPos="80.84" arrivalSpeed="13.29" duration="166.00" routeLength="1186.14" waitingTime="46.00" waitingCount="3" stopTime="0.00" timeLoss="77.48" rerouteNo="1" devices="tripinfo_h12244c1:3 routing_h12244c1:3 emissions_h12244c1:3" vType="default_016" speedFactor="0.98" vaporized="">
        <emissions CO_abs="10823.728268" CO2_abs="421629.230181" HC_abs="59.165142" PMx_abs="8.037480" NOx_abs="176.216725" fuel_abs="181.243179" electricity_abs="0"/>
    </tripinfo>
    <tripinfo id="carIn27009:1" depart="57673.00" departLane="-447569998#1_1" departPos="5.10" departSpeed="0.00" departDelay="0.50" arrival="57779.00" arrivalLane="-26677539_1" arrivalPos="152.75" arrivalSpeed="6.46" duration="106.00" routeLength="699.63" waitingTime="1.00" waitingCount="1" stopTime="0.00" timeLoss="15.32" rerouteNo="1" devices="tripinfo_carIn27009:1 routing_carIn27009:1 emissions_carIn27009:1" vType="default_015" speedFactor="0.92" vaporized="">
        <emissions CO_abs="4599.110877" CO2_abs="195758.132418" HC_abs="25.421507" PMx_abs="3.177863" NOx_abs="79.634265" fuel_abs="84.149689" electricity_abs="0"/>
    </tripinfo>
    <tripinfo id="h7181c1:1" depart="57660.00" departLane="315358254#0_1" departPos="5.10" departSpeed="0.00" departDelay="0.10" arrival="57782.00" arrivalLane="306240162#0_0" arrivalPos="220.43" arrivalSpeed="14.33" duration="122.00" routeLength="932.35" waitingTime="50.00" waitingCount="1" stopTime="0.00" timeLoss="64.44" rerouteNo="1" devices="tripinfo_h7181c1:1 routing_h7181c1:1 emissions_h7181c1:1" vType="default_016" speedFactor="0.89" vaporized="">
        <emissions CO_abs="10947.487597" CO2_abs="359228.823317" HC_abs="58.256732" PMx_abs="7.505922" NOx_abs="153.205070" fuel_abs="154.420073" electricity_abs="0"/>
    </tripinfo>
    <tripinfo id="carIn121703:1" depart="57647.00" departLane="386687232#0_1" departPos="5.10" departSpeed="0.00" departDelay="0.30" arrival="57784.00" arrivalLane="-315358244_1" arrivalPos="33.95" arrivalSpeed="13.55" duration="137.00" routeLength="1157.39" waitingTime="32.00" waitingCount="2" stopTime="0.00" timeLoss="51.11" rerouteNo="1" devices="tripinfo_carIn121703:1 routing_carIn121703:1 emissions_carIn121703:1" vType="default_016" speedFactor="0.98" vaporized="">
        <emissions CO_abs="8371.394260" CO2_abs="365260.175864" HC_abs="46.666286" PMx_abs="6.626742" NOx_abs="149.765199" fuel_abs="157.011889" electricity_abs="0"/>
    </tripinfo>
    <tripinfo id="h330c1:1" depart="57736.00" departLane="-32978638#0_1" departPos="5.10" departSpeed="0.00" departDelay="0.20" arrival="57784.00" arrivalLane="-266565295#5_1" arrivalPos="172.76" arrivalSpeed="13.19" duration="48.00" routeLength="370.53" waitingTime="13.00" waitingCount="1" stopTime="0.00" timeLoss="21.86" rerouteNo="1" devices="tripinfo_h330c1:1 routing_h330c1:1 emissions_h330c1:1" vType="default_016" speedFactor="1.04" vaporized="">
        <emissions CO_abs="3909.450467" CO2_abs="152175.866703" HC_abs="21.401643" PMx_abs="3.052435" NOx_abs="64.626604" fuel_abs="65.414677" electricity_abs="0"/>
    </tripinfo>
    <tripinfo id="carIn12365:1" depart="57713.00" departLane="315358244_1" departPos="5.10" departSpeed="0.00" departDelay="0.50" arrival="57792.00" arrivalLane="447569997#1_1" arrivalPos="180.93" arrivalSpeed="6.13" duration="79.00" routeLength="718.04" waitingTime="0.00" waitingCount="0" stopTime="0.00" timeLoss="7.35" rerouteNo="1" devices="tripinfo_carIn12365:1 routing_carIn12365:1 emissions_carIn12365:1" vType="default_016" speedFactor="0.86" vaporized="">
        <emissions CO_abs="2393.026342" CO2_abs="146710.434290" HC_abs="14.262818" PMx_abs="2.191502" NOx_abs="57.559393" fuel_abs="63.065252" electricity_abs="0"/>
    </tripinfo>
    <tripinfo id="carIn50326:1" depart="57651.00" departLane="128361102#0_1" departPos="5.10" departSpeed="0.00" departDelay="0.30" arrival="57807.00" arrivalLane="18809673#0_1" arrivalPos="473.56" arrivalSpeed="13.21" duration="156.00" routeLength="1591.07" waitingTime="6.00" waitingCount="1" stopTime="0.00" timeLoss="27.69" rerouteNo="1" devices="tripinfo_carIn50326:1 routing_carIn50326:1 emissions_carIn50326:1" vType="default_016" speedFactor="1.01" vaporized="">
        <emissions CO_abs="5501.521397" CO2_abs="354263.785065" HC_abs="33.307149" PMx_abs="6.038543" NOx_abs="143.053819" fuel_abs="152.283261" electricity_abs="0"/>
    </tripinfo>
    <tripinfo id="carIn48184:1" depart="57613.00" departLane="-306240162#1_0" departPos="5.10" departSpeed="0.00" departDelay="0.70" arrival="57813.00" arrivalLane="386687235_1" arrivalPos="80.84" arrivalSpeed="13.91" duration="200.00" routeLength="2257.41" waitingTime="24.00" waitingCount="3" stopTime="0.00" timeLoss="57.35" rerouteNo="1" devices="tripinfo_carIn48184:1 routing_carIn48184:1 emissions_carIn48184:1" vType="default_016" speedFactor="1.04" vaporized="">
        <emissions CO_abs="9136.330228" CO2_abs="560243.647779" HC_abs="54.710780" PMx_abs="10.362542" NOx_abs="228.559374" fuel_abs="240.824844" electricity_abs="0"/>
    </tripinfo>
    <tripinfo id="h645c1:1" depart="57622.00" departLane="266565295#5_1" departPos="5.10" departSpeed="0.00" departDelay="0.40" arrival="57813.00" arrivalLane="-315358244_1" arrivalPos="33.95" arrivalSpeed="14.39" duration="191.00" routeLength="1910.83" waitingTime="37.00" waitingCount="2" stopTime="0.00" timeLoss="57.85" rerouteNo="1" devices="tripinfo_h645c1:1 routing_h645c1:1 emissions_h645c1:1" vType="default_016" speedFactor="1.04" vaporized="">
        <emissions CO_abs="9073.714080" CO2_abs="472702.273096" HC_abs="52.103366" PMx_abs="8.198334" NOx_abs="189.687219" fuel_abs="203.196481" electricity_abs="0"/>
    </tripinfo>
    <tripinfo id="h16072c2:3" depart="57663.00" departLane="315358254#0_1" departPos="5.10" departSpeed="0.00" departDelay="2.50" arrival="57813.00" arrivalLane="386687235_2" arrivalPos="80.84" arrivalSpeed="13.82" duration="150.00" routeLength="1611.92" waitingTime="7.00" waitingCount="3" stopTime="0.00" timeLoss="32.13" rerouteNo="1" devices="tripinfo_h16072c2:3 routing_h16072c2:3 emissions_h16072c2:3" vType="default_016" speedFactor="1.00" vaporized="">
        <emissions CO_abs="5764.206465" CO2_abs="385055.998386" HC_abs="35.191670" PMx_abs="6.549538" NOx_abs="154.687686" fuel_abs="165.519455" electricity_abs="0"/>
    </tripinfo>
    <tripinfo id="carIn82278:1" depart="57702.00" departLane="-306240162#1_0" departPos="5.10" departSpeed="0.00" departDelay="0.70" arrival="57814.00" arrivalLane="399835085#1_1" arrivalPos="212.23" arrivalSpeed="7.21" duration="112.00" routeLength="1093.26" waitingTime="6.00" waitingCount="1" stopTime="0.00" timeLoss="32.34" rerouteNo="1" devices="tripinfo_carIn82278:1 routing_carIn82278:1 emissions_carIn82278:1" vType="default_016" speedFactor="0.98" vaporized="">
        <emissions CO_abs="5659.097785" CO2_abs="328659.401053" HC_abs="33.571111" PMx_abs="6.280177" NOx_abs="136.575624" fuel_abs="141.276499" electricity_abs="0"/>
    </tripinfo>
    <tripinfo id="carIn12858:1" depart="57661.00" departLane="128361109#1_1" departPos="5.10" departSpeed="0.00" departDelay="0.90" arrival="57816.00" arrivalLane="399835085#1_1" arrivalPos="212.23" arrivalSpeed="8.33" duration="155.00" routeLength="1738.12" waitingTime="11.00" waitingCount="1" stopTime="0.00" timeLoss="46.37" rerouteNo="1" devices="tripinfo_carIn12858:1 routing_carIn12858:1 emissions_carIn12858:1" vType="default_016" speedFactor="1.07" vaporized="">
        <emissions CO_abs="9169.439899" CO2_abs="531329.792867" HC_abs="54.483944" PMx_abs="10.601805" NOx_abs="222.453379" fuel_abs="228.395222" electricity_abs="0"/>
    </tripinfo>
    <tripinfo id="carIn107282:1" depart="57749.00" departLane="-447569998#1_1" departPos="5.10" departSpeed="0.00" departDelay="0.00" arrival="57817.00" arrivalLane="315358242#0_1" arrivalPos="165.37" arrivalSpeed="11.69" duration="68.00" routeLength="448.50" waitingTime="13.00" waitingCount="1" stopTime="0.00" timeLoss="22.80" rerouteNo="1" devices="tripinfo_carIn107282:1 routing_carIn107282:1 emissions_carIn107282:1" vType="default_016" speedFactor="0.92" vaporized="">
        <emissions CO_abs="3624.779822" CO2_abs="142546.973459" HC_abs="19.812580" PMx_abs="2.540892" NOx_abs="58.793664" fuel_abs="61.276000" electricity_abs="0"/>
    </tripinfo>
    <tripinfo id="randUni15030:1" depart="57735.00" departLane="386687232#0_1" departPos="5.10" departSpeed="0.00" departDelay="0.10" arrival="57820.00" arrivalLane="26677539_1" arrivalPos="151.98" arrivalSpeed="8.97" duration="85.00" routeLength="919.89" waitingTime="0.00" waitingCount="0" stopTime="0.00" timeLoss="9.84" rerouteNo="1" devices="tripinfo_randUni15030:1 routing_randUni15030:1 emissions_randUni15030:1" vType="random_016" speedFactor="1.11" vaporized="">
        <emissions CO_abs="3247.769124" CO2_abs="224044.565130" HC_abs="19.997892" PMx_abs="3.784542" NOx_abs="89.979944" fuel_abs="96.307316" electricity_abs="0"/>
    </tripinfo>
    <tripinfo id="carIn77943:1" depart="57608.00" departLane="124812856#0_1" departPos="5.10" departSpeed="0.00" departDelay="2.50" arrival="57824.00" arrivalLane="-128361102#1_1" arrivalPos="274.68" arrivalSpeed="14.45" duration="216.00" routeLength="2250.49" waitingTime="21.00" waitingCount="2" stopTime="0.00" timeLoss="62.88" rerouteNo="1" devices="tripinfo_carIn77943:1 routing_carIn77943:1 emissions_carIn77943:1" vType="default_016" speedFactor="1.08" vaporized="">
        <emissions CO_abs="9139.694955" CO2_abs="576400.327430" HC_abs="55.097176" PMx_abs="10.075469" NOx_abs="233.402650" fuel_abs="247.770396" electricity_abs="0"/>
    </tripinfo>
    <tripinfo id="carIn107084:1" depart="57601.00" departLane="124812856#0_1" departPos="5.10" departSpeed="0.00" departDelay="0.70" arrival="57826.00" arrivalLane="-128361102#1_1" arrivalPos="274.68" arrivalSpeed="14.63" duration="225.00" routeLength="2250.49" waitingTime="32.00" waitingCount="4" stopTime="0.00" timeLoss="73.04" rerouteNo="1" devices="tripinfo_carIn107084:1 routing_carIn107084:1 emissions_carIn107084:1" vType="default_016" speedFactor="1.08" vaporized="">
        <emissions CO_abs="10824.875593" CO2_abs="611615.271798" HC_abs="63.640197" PMx_abs="11.156148" NOx_abs="250.551973" fuel_abs="262.908091" electricity_abs="0"/>
    </tripinfo>
    <tripinfo id="carIn80064:1" depart="57603.00" departLane="128361109#1_1" departPos="5.10" departSpeed="0.00" departDelay="0.40" arrival="57827.00" arrivalLane="-315358254#1_1" arrivalPos="137.16" arrivalSpeed="12.99" duration="224.00" routeLength="1587.97" waitingTime="88.00" waitingCount="3" stopTime="0.00" timeLoss="131.07" rerouteNo="1" devices="tripinfo_carIn80064:1 routing_carIn80064:1 emissions_carIn80064:1" vType="default_016" speedFactor="0.96" vaporized="">
        <emissions CO_abs="19196.726094" CO2_abs="671772.201617" HC_abs="103.399799" PMx_abs="14.105699" NOx_abs="286.899979" fuel_abs="288.770532" electricity_abs="0"/>
    </tripinfo>
    <tripinfo id="carIn81860:1" depart="57712.00" departLane="128361102#0_1" departPos="5.10" departSpeed="0.00" departDelay="0.60" arrival="57827.00" arrivalLane="-24634517#17_1" arrivalPos="6.43" arrivalSpeed="8.10" duration="115.00" routeLength="1229.64" waitingTime="5.00" waitingCount="1" stopTime="0.00" timeLoss="23.93" rerouteNo="1" devices="tripinfo_carIn81860:1 routing_carIn81860:1 emissions_carIn81860:1" vType="default_016" speedFactor="0.99" vaporized="">
        <emissions CO_abs="3986.233608" CO2_abs="271560.107782" HC_abs="24.488211" PMx_abs="4.507691" NOx_abs="108.401525" fuel_abs="116.732431" electricity_abs="0"/>
    </tripinfo>
    <tripinfo id="carIn86816:1" depart="57617.00" departLane="128361102#0_1" departPos="5.10" departSpeed="0.00" departDelay="0.80" arrival="57832.00" arrivalLane="201956811#0_1" arrivalPos="40.40" arrivalSpeed="11.94" duration="215.00" routeLength="2067.33" waitingTime="23.00" waitingCount="3" stopTime="0.00" timeLoss="55.89" rerouteNo="1" devices="tripinfo_carIn86816:1 routing_carIn86816:1 emissions_carIn86816:1" vType="default_016" speedFactor="0.95" vaporized="">
        <emissions CO_abs="9139.087095" CO2_abs="511388.368430" HC_abs="53.573092" PMx_abs="8.866236" NOx_abs="207.453336" fuel_abs="219.825389" electricity_abs="0"/>
    </tripinfo>
    <tripinfo id="carIn102915:1" depart="57643.00" departLane="128361102#0_1" departPos="5.10" departSpeed="0.00" departDelay="0.40" arrival="57834.00" arrivalLane="201956811#0_1" arrivalPos="40.40" arrivalSpeed="12.69" duration="191.00" routeLength="2067.33" waitingTime="1.00" waitingCount="1" stopTime="0.00" timeLoss="37.53" rerouteNo="1" devices="tripinfo_carIn102915:1 routing_carIn102915:1 emissions_carIn102915:1" vType="default_016" speedFactor="0.99" vaporized="">
        <emissions CO_abs="6807.007151" CO2_abs="491019.306547" HC_abs="42.478261" PMx_abs="8.139865" NOx_abs="196.236994" fuel_abs="211.068488" electricity_abs="0"/>
    </tripinfo>
    <tripinfo id="h11737c1:1" depart="57665.00" departLane="272042143_1" departPos="5.10" departSpeed="0.00" departDelay="1.50" arrival="57837.00" arrivalLane="-315358254#1_1" arrivalPos="137.16" arrivalSpeed="14.17" duration="172.00" routeLength="1596.88" waitingTime="39.00" waitingCount="2" stopTime="0.00" timeLoss="60.41" rerouteNo="1" devices="tripinfo_h11737c1:1 routing_h11737c1:1 emissions_h11737c1:1" vType="default_016" speedFactor="1.04" vaporized="">
        <emissions CO_abs="9944.479693" CO2_abs="437399.697545" HC_abs="55.515707" PMx_abs="8.040291" NOx_abs="179.452856" fuel_abs="188.021835" electricity_abs="0"/>
    </tripinfo>
    <tripinfo id="carIn126288:1" depart="57674.00" departLane="272042143_1" departPos="5.10" departSpeed="0.00" departDelay="0.00" arrival="57839.00" arrivalLane="-315358254#1_1" arrivalPos="137.16" arrivalSpeed="14.61" duration="165.00" routeLength="1596.88" waitingTime="34.00" waitingCount="2" stopTime="0.00" timeLoss="57.95" rerouteNo="1" devices="tripinfo_carIn126288:1 routing_carIn126288:1 emissions_carIn126288:1" vType="default_016" speedFactor="1.09" vaporized="">
        <emissions CO_abs="9593.523886" CO2_abs="465613.786391" HC_abs="54.647444" PMx_abs="8.728614" NOx_abs="192.154196" fuel_abs="200.148911" electricity_abs="0"/>
    </tripinfo>
    <tripinfo id="carIn118591:1" depart="57689.00" departLane="315358244_1" departPos="5.10" departSpeed="0.00" departDelay="0.20" arrival="57839.00" arrivalLane="386687235_1" arrivalPos="80.84" arrivalSpeed="12.40" duration="150.00" routeLength="1186.14" waitingTime="34.00" waitingCount="4" stopTime="0.00" timeLoss="59.31" rerouteNo="1" devices="tripinfo_carIn118591:1 routing_carIn118591:1 emissions_carIn118591:1" vType="default_016" speedFactor="0.96" vaporized="">
        <emissions CO_abs="7943.257237" CO2_abs="334759.857301" HC_abs="43.986566" PMx_abs="6.046672" NOx_abs="137.420609" fuel_abs="143.901164" electricity_abs="0"/>
    </tripinfo>
    <tripinfo id="h17549c1:1" depart="57680.00" departLane="-447569998#1_1" departPos="5.10" departSpeed="0.00" departDelay="0.00" arrival="57842.00" arrivalLane="-315358254#1_1" arrivalPos="137.16" arrivalSpeed="13.24" duration="162.00" routeLength="1746.60" waitingTime="6.00" waitingCount="1" stopTime="0.00" timeLoss="24.88" rerouteNo="1" devices="tripinfo_h17549c1:1 routing_h17549c1:1 emissions_h17549c1:1" vType="default_016" speedFactor="1.00" vaporized="">
        <emissions CO_abs="4894.123851" CO2_abs="365936.433214" HC_abs="30.814123" PMx_abs="5.909197" NOx_abs="144.835770" fuel_abs="157.300763" electricity_abs="0"/>
    </tripinfo>
    <tripinfo id="carIn12152:1" depart="57647.00" departLane="24599188#0.94_1" departPos="5.10" departSpeed="0.00" departDelay="0.50" arrival="57844.00" arrivalLane="-315358254#1_1" arrivalPos="137.16" arrivalSpeed="12.51" duration="197.00" routeLength="2034.31" waitingTime="13.00" waitingCount="2" stopTime="0.00" timeLoss="36.47" rerouteNo="1" devices="tripinfo_carIn12152:1 routing_carIn12152:1 emissions_carIn12152:1" vType="default_016" speedFactor="0.99" vaporized="">
        <emissions CO_abs="6306.778339" CO2_abs="423668.439949" HC_abs="38.551948" PMx_abs="6.778561" NOx_abs="167.347346" fuel_abs="182.117973" electricity_abs="0"/>
    </tripinfo>
    <tripinfo id="carIn8642:1" depart="57774.00" departLane="-447569998#1_1" departPos="5.10" departSpeed="0.00" departDelay="0.90" arrival="57844.00" arrivalLane="-315358244_2" arrivalPos="33.95" arrivalSpeed="13.56" duration="70.00" routeLength="706.49" waitingTime="0.00" waitingCount="0" stopTime="0.00" timeLoss="8.47" rerouteNo="1" devices="tripinfo_carIn8642:1 routing_carIn8642:1 emissions_carIn8642:1" vType="default_016" speedFactor="0.99" vaporized="">
        <emissions CO_abs="2394.074239" CO2_abs="163244.067082" HC_abs="14.669589" PMx_abs="2.507929" NOx_abs="64.033474" fuel_abs="70.172145" electricity_abs="0"/>
    </tripinfo>
    <tripinfo id="carIn129809:1" depart="57729.00" departLane="-447569998#1_1" departPos="5.10" departSpeed="0.00" departDelay="1.00" arrival="57847.00" arrivalLane="-315358244_1" arrivalPos="33.95" arrivalSpeed="11.08" duration="118.00" routeLength="706.49" waitingTime="33.00" waitingCount="1" stopTime="0.00" timeLoss="43.86" rerouteNo="1" devices="tripinfo_carIn129809:1 routing_carIn129809:1 emissions_carIn129809:1" vType="default_015" speedFactor="0.81" vaporized="">
        <emissions CO_abs="7812.685354" CO2_abs="240977.444196" HC_abs="41.142015" PMx_abs="4.435308" NOx_abs="100.246379" fuel_abs="103.589078" electricity_abs="0"/>
    </tripinfo>
    <tripinfo id="h8343c1:5" depart="57679.00" departLane="315358254#0_1" departPos="5.10" departSpeed="0.00" departDelay="0.60" arrival="57856.00" arrivalLane="-24634510#5_1" arrivalPos="236.88" arrivalSpeed="11.29" duration="177.00" routeLength="2056.84" waitingTime="11.00" waitingCount="2" stopTime="0.00" timeLoss="37.26" rerouteNo="1" devices="tripinfo_h8343c1:5 routing_h8343c1:5 emissions_h8343c1:5" vType="default_016" speedFactor="0.89" vaporized="">
        <emissions CO_abs="7984.937480" CO2_abs="525282.738098" HC_abs="48.615784" PMx_abs="9.404279" NOx_abs="212.444524" fuel_abs="225.796604" electricity_abs="0"/>
    </tripinfo>
    <tripinfo id="carIn73855:1" depart="57743.00" departLane="386687232#0_1" departPos="5.10" departSpeed="0.00" departDelay="0.50" arrival="57861.00" arrivalLane="-315358244_1" arrivalPos="33.95" arrivalSpeed="15.54" duration="118.00" routeLength="1157.39" waitingTime="26.00" waitingCount="2" stopTime="0.00" timeLoss="43.90" rerouteNo="1" devices="tripinfo_carIn73855:1 routing_carIn73855:1 emissions_carIn73855:1" vType="default_016" speedFactor="1.14" vaporized="">
        <emissions CO_abs="6601.441010" CO2_abs="335137.460970" HC_abs="37.834406" PMx_abs="6.143117" NOx_abs="136.591347" fuel_abs="144.062327" electricity_abs="0"/>
    </tripinfo>