<?xml version="1.0" encoding="UTF-8"?>

<!-- generated on 2021-10-26 19:02:54 by Eclipse SUMO sumo Version 1.10.0
<configuration xmlns:xsi="http://www.w3.org/2001/XMLSchema-instance" xsi:noNamespaceSchemaLocation="http://sumo.dlr.de/xsd/sumoConfiguration.xsd">

    <input>
        <net-file value="/Users/behradkoohy/sumo-scratchpad/RESCO/environments/ingolstadt21/ingolstadt21.net.xml"/>
        <route-files value="/Users/behradkoohy/sumo-scratchpad/RESCO/environments/ingolstadt21/ingolstadt21.rou.xml"/>
    </input>

    <output>
        <tripinfo-output value="/Users/behradkoohy/sumo-scratchpad/RESCO/logs/MPLight-tr0-ingolstadt21-21-mplight-pressure/tripinfo_9.xml"/>
        <tripinfo-output.write-unfinished value="true"/>
    </output>

    <time>
        <begin value="57600"/>
        <end value="61200"/>
    </time>

    <processing>
        <time-to-teleport value="-1"/>
    </processing>

    <report>
        <no-warnings value="true"/>
        <no-step-log value="true"/>
    </report>

    <emissions>
        <device.emissions.probability value="1"/>
    </emissions>

    <traci_server>
        <remote-port value="62858"/>
    </traci_server>

    <random_number>
        <random value="true"/>
    </random_number>

</configuration>
-->

<tripinfos xmlns:xsi="http://www.w3.org/2001/XMLSchema-instance" xsi:noNamespaceSchemaLocation="http://sumo.dlr.de/xsd/tripinfo_file.xsd">
    <tripinfo id="carIn60260:1" depart="57606.00" departLane="315358254#0_1" departPos="5.10" departSpeed="0.00" departDelay="0.90" arrival="57657.00" arrivalLane="399835085#1_1" arrivalPos="212.23" arrivalSpeed="7.56" duration="51.00" routeLength="430.98" waitingTime="0.00" waitingCount="0" stopTime="0.00" timeLoss="6.50" rerouteNo="1" devices="tripinfo_carIn60260:1 routing_carIn60260:1 emissions_carIn60260:1" vType="default_016" speedFactor="1.03" vaporized="">
        <emissions CO_abs="1906.187144" CO2_abs="102352.140770" HC_abs="11.047414" PMx_abs="1.684959" NOx_abs="41.408143" fuel_abs="43.997243" electricity_abs="0"/>
    </tripinfo>
    <tripinfo id="h15454c2:3" depart="57612.00" departLane="24608844_1" departPos="5.10" departSpeed="0.00" departDelay="0.50" arrival="57669.00" arrivalLane="32978638#0_1" arrivalPos="49.29" arrivalSpeed="10.26" duration="57.00" routeLength="354.79" waitingTime="2.00" waitingCount="1" stopTime="0.00" timeLoss="15.26" rerouteNo="1" devices="tripinfo_h15454c2:3 routing_h15454c2:3 emissions_h15454c2:3" vType="default_016" speedFactor="0.82" vaporized="">
        <emissions CO_abs="2585.834629" CO2_abs="109936.240403" HC_abs="14.318550" PMx_abs="1.921206" NOx_abs="45.467071" fuel_abs="47.257617" electricity_abs="0"/>
    </tripinfo>
    <tripinfo id="carIn53971:1" depart="57640.00" departLane="272042143_1" departPos="5.10" departSpeed="0.00" departDelay="0.80" arrival="57691.00" arrivalLane="24634414#1_1" arrivalPos="162.19" arrivalSpeed="8.77" duration="51.00" routeLength="493.04" waitingTime="0.00" waitingCount="0" stopTime="0.00" timeLoss="8.52" rerouteNo="1" devices="tripinfo_carIn53971:1 routing_carIn53971:1 emissions_carIn53971:1" vType="default_016" speedFactor="1.09" vaporized="">
        <emissions CO_abs="2426.000846" CO2_abs="139992.931866" HC_abs="14.337136" PMx_abs="2.532539" NOx_abs="57.941398" fuel_abs="60.177083" electricity_abs="0"/>
    </tripinfo>
    <tripinfo id="h3688c1:1" depart="57625.00" departLane="201201950#1_1" departPos="5.10" departSpeed="0.00" departDelay="0.00" arrival="57707.00" arrivalLane="32978638#0_1" arrivalPos="49.29" arrivalSpeed="15.89" duration="82.00" routeLength="1089.75" waitingTime="0.00" waitingCount="0" stopTime="0.00" timeLoss="15.22" rerouteNo="1" devices="tripinfo_h3688c1:1 routing_h3688c1:1 emissions_h3688c1:1" vType="default_016" speedFactor="1.20" vaporized="">
        <emissions CO_abs="4088.176588" CO2_abs="296744.885333" HC_abs="25.445997" PMx_abs="5.506063" NOx_abs="121.398543" fuel_abs="127.557249" electricity_abs="0"/>
    </tripinfo>
    <tripinfo id="h7800c1:5" depart="57696.00" departLane="-447569998#1_1" departPos="5.10" departSpeed="0.00" departDelay="0.00" arrival="57725.00" arrivalLane="-447569998#1_2" arrivalPos="180.76" arrivalSpeed="4.13" duration="29.00" routeLength="175.66" waitingTime="5.00" waitingCount="1" stopTime="0.00" timeLoss="10.50" rerouteNo="1" devices="tripinfo_h7800c1:5 routing_h7800c1:5 emissions_h7800c1:5" vType="default_016" speedFactor="1.16" vaporized="">
        <emissions CO_abs="1548.029793" CO2_abs="65036.210621" HC_abs="8.556286" PMx_abs="1.149085" NOx_abs="26.944055" fuel_abs="27.956717" electricity_abs="0"/>
    </tripinfo>
    <tripinfo id="h3568c1:3" depart="57656.00" departLane="266565295#5_1" departPos="5.10" departSpeed="0.00" departDelay="0.80" arrival="57738.00" arrivalLane="-24634415_1" arrivalPos="62.03" arrivalSpeed="11.92" duration="82.00" routeLength="807.40" waitingTime="0.00" waitingCount="0" stopTime="0.00" timeLoss="11.96" rerouteNo="1" devices="tripinfo_h3568c1:3 routing_h3568c1:3 emissions_h3568c1:3" vType="default_016" speedFactor="0.92" vaporized="">
        <emissions CO_abs="3159.367848" CO2_abs="195559.546097" HC_abs="18.954385" PMx_abs="3.336854" NOx_abs="79.404261" fuel_abs="84.062972" electricity_abs="0"/>
    </tripinfo>
    <tripinfo id="h7181c1:1" depart="57660.00" departLane="315358254#0_1" departPos="5.10" departSpeed="0.00" departDelay="0.10" arrival="57744.00" arrivalLane="306240162#0_0" arrivalPos="220.43" arrivalSpeed="15.77" duration="84.00" routeLength="932.35" waitingTime="15.00" waitingCount="1" stopTime="0.00" timeLoss="31.13" rerouteNo="1" devices="tripinfo_h7181c1:1 routing_h7181c1:1 emissions_h7181c1:1" vType="default_016" speedFactor="0.98" vaporized="">
        <emissions CO_abs="5483.647296" CO2_abs="286074.916251" HC_abs="31.611407" PMx_abs="5.589473" NOx_abs="118.186756" fuel_abs="122.971677" electricity_abs="0"/>
    </tripinfo>
    <tripinfo id="carIn121703:1" depart="57647.00" departLane="386687232#0_1" departPos="5.10" departSpeed="0.00" departDelay="0.30" arrival="57746.00" arrivalLane="-315358244_1" arrivalPos="33.95" arrivalSpeed="13.02" duration="99.00" routeLength="1157.39" waitingTime="0.00" waitingCount="0" stopTime="0.00" timeLoss="12.58" rerouteNo="1" devices="tripinfo_carIn121703:1 routing_carIn121703:1 emissions_carIn121703:1" vType="default_016" speedFactor="0.98" vaporized="">
        <emissions CO_abs="3461.942363" CO2_abs="259359.618670" HC_abs="21.825430" PMx_abs="4.318899" NOx_abs="103.654559" fuel_abs="111.487626" electricity_abs="0"/>
    </tripinfo>
    <tripinfo id="h317c2:1" depart="57707.00" departLane="-32978638#0_1" departPos="5.10" departSpeed="0.00" departDelay="0.10" arrival="57754.00" arrivalLane="-266565295#5_1" arrivalPos="172.76" arrivalSpeed="14.37" duration="47.00" routeLength="370.53" waitingTime="11.00" waitingCount="1" stopTime="0.00" timeLoss="20.81" rerouteNo="1" devices="tripinfo_h317c2:1 routing_h317c2:1 emissions_h317c2:1" vType="default_016" speedFactor="1.06" vaporized="">
        <emissions CO_abs="3111.228327" CO2_abs="139268.737489" HC_abs="17.465038" PMx_abs="2.735080" NOx_abs="58.738314" fuel_abs="59.866081" electricity_abs="0"/>
    </tripinfo>
    <tripinfo id="carIn30817:1" depart="57681.00" departLane="315358244_1" departPos="5.10" departSpeed="0.00" departDelay="0.20" arrival="57759.00" arrivalLane="447569997#1_1" arrivalPos="180.93" arrivalSpeed="8.15" duration="78.00" routeLength="718.04" waitingTime="10.00" waitingCount="1" stopTime="0.00" timeLoss="22.19" rerouteNo="1" devices="tripinfo_carIn30817:1 routing_carIn30817:1 emissions_carIn30817:1" vType="default_016" speedFactor="1.10" vaporized="">
        <emissions CO_abs="4017.335272" CO2_abs="195124.497198" HC_abs="22.855762" PMx_abs="3.589926" NOx_abs="80.755046" fuel_abs="83.876317" electricity_abs="0"/>
    </tripinfo>
    <tripinfo id="h3326c1:2" depart="57656.00" departLane="22716069#0_1" departPos="5.10" departSpeed="0.00" departDelay="0.00" arrival="57760.00" arrivalLane="24634517#13_1" arrivalPos="111.62" arrivalSpeed="15.07" duration="104.00" routeLength="1312.81" waitingTime="0.00" waitingCount="0" stopTime="0.00" timeLoss="15.07" rerouteNo="1" devices="tripinfo_h3326c1:2 routing_h3326c1:2 emissions_h3326c1:2" vType="default_016" speedFactor="1.10" vaporized="">
        <emissions CO_abs="4318.776963" CO2_abs="319302.674993" HC_abs="27.131210" PMx_abs="5.696276" NOx_abs="129.730900" fuel_abs="137.254077" electricity_abs="0"/>
    </tripinfo>
    <tripinfo id="h3154c1:1" depart="57658.00" departLane="24634507_1" departPos="5.10" departSpeed="0.00" departDelay="0.00" arrival="57763.00" arrivalLane="-266565295#5_1" arrivalPos="172.76" arrivalSpeed="15.32" duration="105.00" routeLength="1206.22" waitingTime="9.00" waitingCount="2" stopTime="0.00" timeLoss="31.00" rerouteNo="1" devices="tripinfo_h3154c1:1 routing_h3154c1:1 emissions_h3154c1:1" vType="default_016" speedFactor="1.20" vaporized="">
        <emissions CO_abs="5263.882404" CO2_abs="351076.526843" HC_abs="32.158164" PMx_abs="6.529608" NOx_abs="143.983458" fuel_abs="150.912310" electricity_abs="0"/>
    </tripinfo>
    <tripinfo id="h12244c1:3" depart="57612.00" departLane="315358244_1" departPos="5.10" departSpeed="0.00" departDelay="0.40" arrival="57766.00" arrivalLane="386687235_1" arrivalPos="80.84" arrivalSpeed="13.19" duration="154.00" routeLength="1186.14" waitingTime="44.00" waitingCount="3" stopTime="0.00" timeLoss="66.71" rerouteNo="1" devices="tripinfo_h12244c1:3 routing_h12244c1:3 emissions_h12244c1:3" vType="default_016" speedFactor="0.99" vaporized="">
        <emissions CO_abs="9066.566522" CO2_abs="374412.622156" HC_abs="50.015891" PMx_abs="6.904644" NOx_abs="154.367269" fuel_abs="160.946413" electricity_abs="0"/>
    </tripinfo>
    <tripinfo id="carIn22761:1" depart="57616.00" departLane="-306240162#1_0" departPos="5.10" departSpeed="0.00" departDelay="2.10" arrival="57766.00" arrivalLane="399835085#1_1" arrivalPos="212.23" arrivalSpeed="7.76" duration="150.00" routeLength="1093.26" waitingTime="43.00" waitingCount="2" stopTime="0.00" timeLoss="69.11" rerouteNo="1" devices="tripinfo_carIn22761:1 routing_carIn22761:1 emissions_carIn22761:1" vType="default_016" speedFactor="0.96" vaporized="">
        <emissions CO_abs="11205.512845" CO2_abs="415588.615452" HC_abs="60.732420" PMx_abs="8.125777" NOx_abs="174.313899" fuel_abs="178.646746" electricity_abs="0"/>
    </tripinfo>
    <tripinfo id="h9563c2:5" depart="57631.00" departLane="315358244_1" departPos="5.10" departSpeed="0.00" departDelay="0.70" arrival="57768.00" arrivalLane="386687235_1" arrivalPos="80.84" arrivalSpeed="13.95" duration="137.00" routeLength="1186.14" waitingTime="30.00" waitingCount="2" stopTime="0.00" timeLoss="53.58" rerouteNo="1" devices="tripinfo_h9563c2:5 routing_h9563c2:5 emissions_h9563c2:5" vType="default_016" speedFactor="1.04" vaporized="">
        <emissions CO_abs="7558.588064" CO2_abs="330172.523547" HC_abs="42.151424" PMx_abs="6.277120" NOx_abs="137.442397" fuel_abs="141.928524" electricity_abs="0"/>
    </tripinfo>
    <tripinfo id="h5979c1:5" depart="57669.00" departLane="399835085#1_1" departPos="5.10" departSpeed="0.00" departDelay="0.00" arrival="57773.00" arrivalLane="-315358254#1_1" arrivalPos="137.16" arrivalSpeed="12.04" duration="104.00" routeLength="659.33" waitingTime="10.00" waitingCount="1" stopTime="0.00" timeLoss="24.91" rerouteNo="1" devices="tripinfo_h5979c1:5 routing_h5979c1:5 emissions_h5979c1:5" vType="default_016" speedFactor="0.93" vaporized="">
        <emissions CO_abs="5189.203968" CO2_abs="204830.983761" HC_abs="28.333226" PMx_abs="3.442572" NOx_abs="83.686894" fuel_abs="88.049980" electricity_abs="0"/>
    </tripinfo>
    <tripinfo id="carIn12365:1" depart="57713.00" departLane="315358244_1" departPos="5.10" departSpeed="0.00" departDelay="0.50" arrival="57774.00" arrivalLane="447569997#1_1" arrivalPos="180.93" arrivalSpeed="8.85" duration="61.00" routeLength="718.04" waitingTime="0.00" waitingCount="0" stopTime="0.00" timeLoss="8.32" rerouteNo="1" devices="tripinfo_carIn12365:1 routing_carIn12365:1 emissions_carIn12365:1" vType="default_016" speedFactor="1.17" vaporized="">
        <emissions CO_abs="2462.124874" CO2_abs="168692.647152" HC_abs="15.202657" PMx_abs="3.047981" NOx_abs="68.928819" fuel_abs="72.513587" electricity_abs="0"/>
    </tripinfo>
    <tripinfo id="h330c1:1" depart="57736.00" departLane="-32978638#0_1" departPos="5.10" departSpeed="0.00" departDelay="0.20" arrival="57775.00" arrivalLane="-266565295#5_1" arrivalPos="172.76" arrivalSpeed="13.00" duration="39.00" routeLength="370.53" waitingTime="3.00" waitingCount="1" stopTime="0.00" timeLoss="11.08" rerouteNo="1" devices="tripinfo_h330c1:1 routing_h330c1:1 emissions_h330c1:1" vType="default_016" speedFactor="0.98" vaporized="">
        <emissions CO_abs="1998.454469" CO2_abs="120824.310288" HC_abs="11.943607" PMx_abs="2.173777" NOx_abs="49.665168" fuel_abs="51.937262" electricity_abs="0"/>
    </tripinfo>
    <tripinfo id="carIn27009:1" depart="57673.00" departLane="-447569998#1_1" departPos="5.10" departSpeed="0.00" departDelay="0.50" arrival="57796.00" arrivalLane="-26677539_1" arrivalPos="152.75" arrivalSpeed="7.26" duration="123.00" routeLength="699.63" waitingTime="21.00" waitingCount="1" stopTime="0.00" timeLoss="37.18" rerouteNo="1" devices="tripinfo_carIn27009:1 routing_carIn27009:1 emissions_carIn27009:1" vType="default_015" speedFactor="0.98" vaporized="">
        <emissions CO_abs="7232.433013" CO2_abs="242525.369920" HC_abs="38.503311" PMx_abs="4.260208" NOx_abs="100.388467" fuel_abs="104.254172" electricity_abs="0"/>
    </tripinfo>
    <tripinfo id="carIn80064:1" depart="57603.00" departLane="128361109#1_1" departPos="5.10" departSpeed="0.00" departDelay="0.40" arrival="57798.00" arrivalLane="-315358254#1_1" arrivalPos="137.16" arrivalSpeed="12.90" duration="195.00" routeLength="1587.97" waitingTime="72.00" waitingCount="2" stopTime="0.00" timeLoss="99.10" rerouteNo="1" devices="tripinfo_carIn80064:1 routing_carIn80064:1 emissions_carIn80064:1" vType="default_016" speedFactor="0.93" vaporized="">
        <emissions CO_abs="16444.092548" CO2_abs="601912.193762" HC_abs="89.030674" PMx_abs="12.384523" NOx_abs="254.677703" fuel_abs="258.740035" electricity_abs="0"/>
    </tripinfo>
    <tripinfo id="h645c1:1" depart="57622.00" departLane="266565295#5_1" departPos="5.10" departSpeed="0.00" departDelay="0.40" arrival="57798.00" arrivalLane="-315358244_1" arrivalPos="33.95" arrivalSpeed="12.55" duration="176.00" routeLength="1910.83" waitingTime="11.00" waitingCount="2" stopTime="0.00" timeLoss="36.44" rerouteNo="1" devices="tripinfo_h645c1:1 routing_h645c1:1 emissions_h645c1:1" vType="default_016" speedFactor="0.99" vaporized="">
        <emissions CO_abs="5630.059999" CO2_abs="428271.168025" HC_abs="35.603325" PMx_abs="6.905698" NOx_abs="169.051922" fuel_abs="184.095826" electricity_abs="0"/>
    </tripinfo>
    <tripinfo id="S5R_frequency1.2" depart="57634.00" departLane="315358250#0_1" departPos="12.10" departSpeed="0.00" departDelay="22.40" arrival="57800.00" arrivalLane="386687235_1" arrivalPos="80.84" arrivalSpeed="13.64" duration="166.00" routeLength="1115.62" waitingTime="48.00" waitingCount="4" stopTime="0.00" timeLoss="83.95" rerouteNo="1" devices="tripinfo_S5R_frequency1.2 routing_S5R_frequency1.2 emissions_S5R_frequency1.2" vType="bus" speedFactor="1.00" vaporized="">
        <emissions CO_abs="3246.908262" CO2_abs="1705059.117304" HC_abs="702.003017" PMx_abs="340.478820" NOx_abs="14125.674482" fuel_abs="727.076018" electricity_abs="0"/>
    </tripinfo>
    <tripinfo id="carIn129809:1" depart="57729.00" departLane="-447569998#1_1" departPos="5.10" departSpeed="0.00" departDelay="1.00" arrival="57807.00" arrivalLane="-315358244_1" arrivalPos="33.95" arrivalSpeed="13.21" duration="78.00" routeLength="706.49" waitingTime="8.00" waitingCount="1" stopTime="0.00" timeLoss="18.16" rerouteNo="1" devices="tripinfo_carIn129809:1 routing_carIn129809:1 emissions_carIn129809:1" vType="default_015" speedFactor="1.01" vaporized="">
        <emissions CO_abs="2929.248616" CO2_abs="164172.898742" HC_abs="17.143691" PMx_abs="2.687476" NOx_abs="65.457795" fuel_abs="70.571607" electricity_abs="0"/>
    </tripinfo>
    <tripinfo id="carIn107084:1" depart="57601.00" departLane="124812856#0_1" departPos="5.10" departSpeed="0.00" departDelay="0.70" arrival="57808.00" arrivalLane="-128361102#1_1" arrivalPos="274.68" arrivalSpeed="13.07" duration="207.00" routeLength="2250.49" waitingTime="9.00" waitingCount="1" stopTime="0.00" timeLoss="35.16" rerouteNo="1" devices="tripinfo_carIn107084:1 routing_carIn107084:1 emissions_carIn107084:1" vType="default_016" speedFactor="0.95" vaporized="">
        <emissions CO_abs="6866.108456" CO2_abs="494505.742653" HC_abs="42.773098" PMx_abs="7.881792" NOx_abs="195.146679" fuel_abs="212.567698" electricity_abs="0"/>
    </tripinfo>
    <tripinfo id="carIn28951:1" depart="57606.00" departLane="10425609#0_1" departPos="5.10" departSpeed="0.00" departDelay="0.20" arrival="57810.00" arrivalLane="-128361102#1_1" arrivalPos="274.68" arrivalSpeed="14.73" duration="204.00" routeLength="2113.04" waitingTime="13.00" waitingCount="2" stopTime="0.00" timeLoss="61.43" rerouteNo="1" devices="tripinfo_carIn28951:1 routing_carIn28951:1 emissions_carIn28951:1" vType="default_016" speedFactor="1.09" vaporized="">
        <emissions CO_abs="9002.561151" CO2_abs="587374.347483" HC_abs="54.813429" PMx_abs="10.424807" NOx_abs="239.334599" fuel_abs="252.487122" electricity_abs="0"/>
    </tripinfo>
    <tripinfo id="randUni15030:1" depart="57735.00" departLane="386687232#0_1" departPos="5.10" departSpeed="0.00" departDelay="0.10" arrival="57828.00" arrivalLane="26677539_1" arrivalPos="151.98" arrivalSpeed="8.27" duration="93.00" routeLength="919.89" waitingTime="0.00" waitingCount="0" stopTime="0.00" timeLoss="9.92" rerouteNo="1" devices="tripinfo_randUni15030:1 routing_randUni15030:1 emissions_randUni15030:1" vType="random_016" speedFactor="1.00" vaporized="">
        <emissions CO_abs="3273.204362" CO2_abs="206197.829994" HC_abs="19.658388" PMx_abs="3.337013" NOx_abs="82.351111" fuel_abs="88.636173" electricity_abs="0"/>
    </tripinfo>
    <tripinfo id="h4538c1:1" depart="57701.00" departLane="-10427692#1_1" departPos="5.10" departSpeed="0.00" departDelay="0.00" arrival="57830.00" arrivalLane="-128361102#1_1" arrivalPos="274.68" arrivalSpeed="11.94" duration="129.00" routeLength="440.74" waitingTime="83.00" waitingCount="1" stopTime="0.00" timeLoss="93.02" rerouteNo="1" devices="tripinfo_h4538c1:1 routing_h4538c1:1 emissions_h4538c1:1" vType="default_016" speedFactor="0.89" vaporized="">
        <emissions CO_abs="14958.723146" CO2_abs="317269.367937" HC_abs="75.542094" PMx_abs="7.069543" NOx_abs="139.682328" fuel_abs="136.386865" electricity_abs="0"/>
    </tripinfo>
    <tripinfo id="h11737c1:1" depart="57665.00" departLane="272042143_1" departPos="5.10" departSpeed="0.00" departDelay="1.50" arrival="57834.00" arrivalLane="-315358254#1_1" arrivalPos="137.16" arrivalSpeed="14.97" duration="169.00" routeLength="1596.88" waitingTime="46.00" waitingCount="1" stopTime="0.00" timeLoss="65.62" rerouteNo="1" devices="tripinfo_h11737c1:1 routing_h11737c1:1 emissions_h11737c1:1" vType="default_016" speedFactor="1.13" vaporized="">
        <emissions CO_abs="11404.260011" CO2_abs="453367.111207" HC_abs="62.524735" PMx_abs="8.947147" NOx_abs="189.854699" fuel_abs="194.885626" electricity_abs="0"/>
    </tripinfo>
    <tripinfo id="carIn107282:1" depart="57749.00" departLane="-447569998#1_1" departPos="5.10" departSpeed="0.00" departDelay="0.00" arrival="57835.00" arrivalLane="315358242#0_1" arrivalPos="165.37" arrivalSpeed="14.57" duration="86.00" routeLength="448.50" waitingTime="38.00" waitingCount="1" stopTime="0.00" timeLoss="45.94" rerouteNo="1" devices="tripinfo_carIn107282:1 routing_carIn107282:1 emissions_carIn107282:1" vType="default_016" speedFactor="1.06" vaporized="">
        <emissions CO_abs="7385.461579" CO2_abs="205786.612029" HC_abs="38.440595" PMx_abs="4.185335" NOx_abs="88.044328" fuel_abs="88.461597" electricity_abs="0"/>
    </tripinfo>
    <tripinfo id="carIn86816:1" depart="57617.00" departLane="128361102#0_1" departPos="5.10" departSpeed="0.00" departDelay="0.80" arrival="57843.00" arrivalLane="201956811#0_1" arrivalPos="40.40" arrivalSpeed="13.59" duration="226.00" routeLength="2067.33" waitingTime="49.00" waitingCount="1" stopTime="0.00" timeLoss="75.54" rerouteNo="1" devices="tripinfo_carIn86816:1 routing_carIn86816:1 emissions_carIn86816:1" vType="default_016" speedFactor="1.01" vaporized="">
        <emissions CO_abs="12884.007064" CO2_abs="571389.141817" HC_abs="71.996752" PMx_abs="10.401504" NOx_abs="234.090743" fuel_abs="245.618933" electricity_abs="0"/>
    </tripinfo>
    <tripinfo id="carIn126288:1" depart="57674.00" departLane="272042143_1" departPos="5.10" departSpeed="0.00" departDelay="0.00" arrival="57843.00" arrivalLane="-315358254#1_1" arrivalPos="137.16" arrivalSpeed="13.88" duration="169.00" routeLength="1596.88" waitingTime="37.00" waitingCount="1" stopTime="0.00" timeLoss="52.99" rerouteNo="1" devices="tripinfo_carIn126288:1 routing_carIn126288:1 emissions_carIn126288:1" vType="default_016" speedFactor="1.01" vaporized="">
        <emissions CO_abs="9266.908944" CO2_abs="417063.936119" HC_abs="51.907441" PMx_abs="7.357696" NOx_abs="168.915028" fuel_abs="179.280558" electricity_abs="0"/>
    </tripinfo>
    <tripinfo id="carIn77943:1" depart="57608.00" departLane="124812856#0_1" departPos="5.10" departSpeed="0.00" departDelay="2.50" arrival="57846.00" arrivalLane="-128361102#1_1" arrivalPos="274.68" arrivalSpeed="13.09" duration="238.00" routeLength="2250.49" waitingTime="33.00" waitingCount="3" stopTime="0.00" timeLoss="71.64" rerouteNo="1" devices="tripinfo_carIn77943:1 routing_carIn77943:1 emissions_carIn77943:1" vType="default_016" speedFactor="0.99" vaporized="">
        <emissions CO_abs="10160.773181" CO2_abs="585386.970908" HC_abs="59.939618" PMx_abs="10.078068" NOx_abs="236.439415" fuel_abs="251.634333" electricity_abs="0"/>
    </tripinfo>
    <tripinfo id="carIn118591:1" depart="57689.00" departLane="315358244_1" departPos="5.10" departSpeed="0.00" departDelay="0.20" arrival="57849.00" arrivalLane="386687235_1" arrivalPos="80.84" arrivalSpeed="14.55" duration="160.00" routeLength="1186.14" waitingTime="52.00" waitingCount="3" stopTime="0.00" timeLoss="82.28" rerouteNo="1" devices="tripinfo_carIn118591:1 routing_carIn118591:1 emissions_carIn118591:1" vType="default_016" speedFactor="1.12" vaporized="">
        <emissions CO_abs="11404.288570" CO2_abs="408342.696275" HC_abs="61.372875" PMx_abs="7.879235" NOx_abs="169.888811" fuel_abs="175.532541" electricity_abs="0"/>
    </tripinfo>
    <tripinfo id="carIn81046:1" depart="57611.00" departLane="124812856#0_1" departPos="5.10" departSpeed="0.00" departDelay="2.50" arrival="57850.00" arrivalLane="-128361102#1_1" arrivalPos="274.68" arrivalSpeed="12.98" duration="239.00" routeLength="2250.49" waitingTime="27.00" waitingCount="3" stopTime="0.00" timeLoss="63.27" rerouteNo="1" devices="tripinfo_carIn81046:1 routing_carIn81046:1 emissions_carIn81046:1" vType="default_016" speedFactor="0.94" vaporized="">
        <emissions CO_abs="9790.501269" CO2_abs="564052.861573" HC_abs="57.735344" PMx_abs="9.516479" NOx_abs="227.017465" fuel_abs="242.463911" electricity_abs="0"/>
    </tripinfo>
    <tripinfo id="carIn102915:1" depart="57643.00" departLane="128361102#0_1" departPos="5.10" departSpeed="0.00" departDelay="0.40" arrival="57850.00" arrivalLane="201956811#0_1" arrivalPos="40.40" arrivalSpeed="14.22" duration="207.00" routeLength="2067.33" waitingTime="32.00" waitingCount="2" stopTime="0.00" timeLoss="61.13" rerouteNo="1" devices="tripinfo_carIn102915:1 routing_carIn102915:1 emissions_carIn102915:1" vType="default_016" speedFactor="1.04" vaporized="">
        <emissions CO_abs="9607.367970" CO2_abs="520401.691077" HC_abs="55.959597" PMx_abs="9.374475" NOx_abs="212.355256" fuel_abs="223.699682" electricity_abs="0"/>
    </tripinfo>
    <tripinfo id="carIn77438:1" depart="57614.00" departLane="124812856#0_1" departPos="5.10" departSpeed="0.00" departDelay="1.10" arrival="57852.00" arrivalLane="-128361102#1_1" arrivalPos="274.68" arrivalSpeed="13.40" duration="238.00" routeLength="2250.49" waitingTime="24.00" waitingCount="3" stopTime="0.00" timeLoss="76.26" rerouteNo="1" devices="tripinfo_carIn77438:1 routing_carIn77438:1 emissions_carIn77438:1" vType="default_016" speedFactor="1.02" vaporized="">
        <emissions CO_abs="10658.176707" CO2_abs="598347.314166" HC_abs="62.583535" PMx_abs="10.675697" NOx_abs="244.984820" fuel_abs="257.205037" electricity_abs="0"/>
    </tripinfo>
    <tripinfo id="randUni33724:1" depart="57646.00" departLane="128361102#0_1" departPos="5.10" departSpeed="0.00" departDelay="1.20" arrival="57852.00" arrivalLane="201956811#0_1" arrivalPos="40.40" arrivalSpeed="15.95" duration="206.00" routeLength="2067.33" waitingTime="31.00" waitingCount="2" stopTime="0.00" timeLoss="75.36" rerouteNo="1" devices="tripinfo_randUni33724:1 routing_randUni33724:1 emissions_randUni33724:1" vType="random_016" speedFactor="1.16" vaporized="">
        <emissions CO_abs="10142.139725" CO2_abs="560951.245211" HC_abs="59.398229" PMx_abs="10.359760" NOx_abs="230.591589" fuel_abs="241.129721" electricity_abs="0"/>
    </tripinfo>
    <tripinfo id="carIn81860:1" depart="57712.00" departLane="128361102#0_1" departPos="5.10" departSpeed="0.00" departDelay="0.60" arrival="57852.00" arrivalLane="-24634517#17_1" arrivalPos="6.43" arrivalSpeed="7.14" duration="140.00" routeLength="1229.64" waitingTime="14.00" waitingCount="1" stopTime="0.00" timeLoss="30.33" rerouteNo="1" devices="tripinfo_carIn81860:1 routing_carIn81860:1 emissions_carIn81860:1" vType="default_016" speedFactor="0.82" vaporized="">
        <emissions CO_abs="5381.225575" CO2_abs="284438.911107" HC_abs="31.074035" PMx_abs="4.597604" NOx_abs="113.864017" fuel_abs="122.269601" electricity_abs="0"/>
    </tripinfo>
    <tripinfo id="h2831c1:1" depart="57600.00" departLane="201089423#0_1" departPos="5.10" departSpeed="0.00" departDelay="0.00" arrival="57853.00" arrivalLane="-315358244_1" arrivalPos="33.95" arrivalSpeed="13.46" duration="253.00" routeLength="2672.18" waitingTime="21.00" waitingCount="4" stopTime="0.00" timeLoss="63.23" rerouteNo="1" devices="tripinfo_h2831c1:1 routing_h2831c1:1 emissions_h2831c1:1" vType="default_016" speedFactor="1.02" vaporized="">
        <emissions CO_abs="9125.625934" CO2_abs="602832.455116" HC_abs="55.430193" PMx_abs="10.055200" NOx_abs="240.021680" fuel_abs="259.132900" electricity_abs="0"/>
    </tripinfo>
    <tripinfo id="carIn50326:1" depart="57651.00" departLane="128361102#0_1" departPos="5.10" departSpeed="0.00" departDelay="0.30" arrival="57853.00" arrivalLane="18809673#0_1" arrivalPos="473.56" arrivalSpeed="12.54" duration="202.00" routeLength="1591.07" waitingTime="46.00" waitingCount="2" stopTime="0.00" timeLoss="70.52" rerouteNo="1" devices="tripinfo_carIn50326:1 routing_carIn50326:1 emissions_carIn50326:1" vType="default_016" speedFactor="0.99" vaporized="">
        <emissions CO_abs="11168.498815" CO2_abs="453869.613282" HC_abs="61.406413" PMx_abs="8.187007" NOx_abs="186.360756" fuel_abs="195.102484" electricity_abs="0"/>
    </tripinfo>
    <tripinfo id="carIn48184:1" depart="57613.00" departLane="-306240162#1_0" departPos="5.10" departSpeed="0.00" departDelay="0.70" arrival="57854.00" arrivalLane="386687235_1" arrivalPos="80.84" arrivalSpeed="10.99" duration="241.00" routeLength="2257.41" waitingTime="35.00" waitingCount="4" stopTime="0.00" timeLoss="70.86" rerouteNo="1" devices="tripinfo_carIn48184:1 routing_carIn48184:1 emissions_carIn48184:1" vType="default_016" speedFactor="0.87" vaporized="">
        <emissions CO_abs="10154.751041" CO2_abs="573216.705323" HC_abs="59.640991" PMx_abs="10.088280" NOx_abs="232.783707" fuel_abs="246.402677" electricity_abs="0"/>
    </tripinfo>
    <tripinfo id="carIn82220:1" depart="57619.00" departLane="-306240162#1_0" departPos="5.10" departSpeed="0.00" departDelay="3.50" arrival="57854.00" arrivalLane="386687235_2" arrivalPos="80.84" arrivalSpeed="10.16" duration="235.00" routeLength="2257.41" waitingTime="16.00" waitingCount="3" stopTime="0.00" timeLoss="53.48" rerouteNo="1" devices="tripinfo_carIn82220:1 routing_carIn82220:1 emissions_carIn82220:1" vType="default_016" speedFactor="0.82" vaporized="">
        <emissions CO_abs="8437.302071" CO2_abs="532167.578351" HC_abs="50.677526" PMx_abs="8.724539" NOx_abs="212.156208" fuel_abs="228.757414" electricity_abs="0"/>
    </tripinfo>
    <tripinfo id="carIn8642:1" depart="57774.00" departLane="-447569998#1_1" departPos="5.10" departSpeed="0.00" departDelay="0.90" arrival="57855.00" arrivalLane="-315358244_1" arrivalPos="33.95" arrivalSpeed="14.88" duration="81.00" routeLength="706.49" waitingTime="17.00" waitingCount="1" stopTime="0.00" timeLoss="28.83" rerouteNo="1" devices="tripinfo_carIn8642:1 routing_carIn8642:1 emissions_carIn8642:1" vType="default_016" speedFactor="1.16" vaporized="">
        <emissions CO_abs="4767.931386" CO2_abs="219429.488586" HC_abs="26.823913" PMx_abs="4.176989" NOx_abs="91.255598" fuel_abs="94.324113" electricity_abs="0"/>
    </tripinfo>
    <tripinfo id="carIn12152:1" depart="57647.00" departLane="24599188#0.94_1" departPos="5.10" departSpeed="0.00" departDelay="0.50" arrival="57862.00" arrivalLane="-315358254#1_1" arrivalPos="137.16" arrivalSpeed="13.70" duration="215.00" routeLength="2034.31" waitingTime="34.00" waitingCount="1" stopTime="0.00" timeLoss="56.14" rerouteNo="1" devices="tripinfo_carIn12152:1 routing_carIn12152:1 emissions_carIn12152:1" vType="default_016" speedFactor="0.99" vaporized="">
        <emissions CO_abs="10107.412552" CO2_abs="499047.792892" HC_abs="57.634151" PMx_abs="8.537361" NOx_abs="200.866602" fuel_abs="214.521947" electricity_abs="0"/>