<?xml version="1.0" encoding="UTF-8"?>

<!-- generated on 2021-10-26 20:02:57 by Eclipse SUMO sumo Version 1.10.0
<configuration xmlns:xsi="http://www.w3.org/2001/XMLSchema-instance" xsi:noNamespaceSchemaLocation="http://sumo.dlr.de/xsd/sumoConfiguration.xsd">

    <input>
        <net-file value="/Users/behradkoohy/sumo-scratchpad/RESCO/environments/ingolstadt21/ingolstadt21.net.xml"/>
        <route-files value="/Users/behradkoohy/sumo-scratchpad/RESCO/environments/ingolstadt21/ingolstadt21.rou.xml"/>
    </input>

    <output>
        <tripinfo-output value="/Users/behradkoohy/sumo-scratchpad/RESCO/logs/MPLight-tr0-ingolstadt21-21-mplight-pressure/tripinfo_63.xml"/>
        <tripinfo-output.write-unfinished value="true"/>
    </output>

    <time>
        <begin value="57600"/>
        <end value="61200"/>
    </time>

    <processing>
        <time-to-teleport value="-1"/>
    </processing>

    <report>
        <no-warnings value="true"/>
        <no-step-log value="true"/>
    </report>

    <emissions>
        <device.emissions.probability value="1"/>
    </emissions>

    <traci_server>
        <remote-port value="64050"/>
    </traci_server>

    <random_number>
        <random value="true"/>
    </random_number>

</configuration>
-->

<tripinfos xmlns:xsi="http://www.w3.org/2001/XMLSchema-instance" xsi:noNamespaceSchemaLocation="http://sumo.dlr.de/xsd/tripinfo_file.xsd">
    <tripinfo id="h15454c2:3" depart="57612.00" departLane="24608844_1" departPos="5.10" departSpeed="0.00" departDelay="0.50" arrival="57655.00" arrivalLane="32978638#0_1" arrivalPos="49.29" arrivalSpeed="11.55" duration="43.00" routeLength="354.79" waitingTime="0.00" waitingCount="0" stopTime="0.00" timeLoss="5.80" rerouteNo="1" devices="tripinfo_h15454c2:3 routing_h15454c2:3 emissions_h15454c2:3" vType="default_016" speedFactor="0.92" vaporized="">
        <emissions CO_abs="2156.518771" CO2_abs="114144.981855" HC_abs="12.466757" PMx_abs="1.922535" NOx_abs="46.510938" fuel_abs="49.066485" electricity_abs="0"/>
    </tripinfo>
    <tripinfo id="carIn60260:1" depart="57606.00" departLane="315358254#0_1" departPos="5.10" departSpeed="0.00" departDelay="0.90" arrival="57669.00" arrivalLane="399835085#1_1" arrivalPos="212.23" arrivalSpeed="8.19" duration="63.00" routeLength="430.98" waitingTime="13.00" waitingCount="1" stopTime="0.00" timeLoss="21.44" rerouteNo="1" devices="tripinfo_carIn60260:1 routing_carIn60260:1 emissions_carIn60260:1" vType="default_016" speedFactor="1.11" vaporized="">
        <emissions CO_abs="3781.833902" CO2_abs="149574.587003" HC_abs="20.678868" PMx_abs="2.796895" NOx_abs="62.619317" fuel_abs="64.296693" electricity_abs="0"/>
    </tripinfo>
    <tripinfo id="carIn53971:1" depart="57640.00" departLane="272042143_1" departPos="5.10" departSpeed="0.00" departDelay="0.80" arrival="57691.00" arrivalLane="24634414#1_1" arrivalPos="162.19" arrivalSpeed="8.05" duration="51.00" routeLength="493.04" waitingTime="0.00" waitingCount="0" stopTime="0.00" timeLoss="7.84" rerouteNo="1" devices="tripinfo_carIn53971:1 routing_carIn53971:1 emissions_carIn53971:1" vType="default_016" speedFactor="1.05" vaporized="">
        <emissions CO_abs="2512.274136" CO2_abs="147342.484892" HC_abs="14.856796" PMx_abs="2.669704" NOx_abs="60.944330" fuel_abs="63.336303" electricity_abs="0"/>
    </tripinfo>
    <tripinfo id="h7800c1:5" depart="57696.00" departLane="-447569998#1_1" departPos="5.10" departSpeed="0.00" departDelay="0.00" arrival="57718.00" arrivalLane="-447569998#1_1" arrivalPos="180.76" arrivalSpeed="8.59" duration="22.00" routeLength="175.66" waitingTime="0.00" waitingCount="0" stopTime="0.00" timeLoss="3.00" rerouteNo="1" devices="tripinfo_h7800c1:5 routing_h7800c1:5 emissions_h7800c1:5" vType="default_016" speedFactor="1.12" vaporized="">
        <emissions CO_abs="1021.189540" CO2_abs="49848.470622" HC_abs="5.794322" PMx_abs="0.796428" NOx_abs="20.092863" fuel_abs="21.428045" electricity_abs="0"/>
    </tripinfo>
    <tripinfo id="h12244c1:3" depart="57612.00" departLane="315358244_1" departPos="5.10" departSpeed="0.00" departDelay="0.40" arrival="57726.00" arrivalLane="386687235_1" arrivalPos="80.84" arrivalSpeed="15.67" duration="114.00" routeLength="1186.14" waitingTime="23.00" waitingCount="2" stopTime="0.00" timeLoss="42.68" rerouteNo="1" devices="tripinfo_h12244c1:3 routing_h12244c1:3 emissions_h12244c1:3" vType="default_016" speedFactor="1.21" vaporized="">
        <emissions CO_abs="7051.558936" CO2_abs="358660.349390" HC_abs="40.240467" PMx_abs="6.716646" NOx_abs="146.894781" fuel_abs="154.173637" electricity_abs="0"/>
    </tripinfo>
    <tripinfo id="carIn22761:1" depart="57616.00" departLane="-306240162#1_0" departPos="5.10" departSpeed="0.00" departDelay="2.10" arrival="57734.00" arrivalLane="399835085#1_1" arrivalPos="212.23" arrivalSpeed="5.80" duration="118.00" routeLength="1093.26" waitingTime="7.00" waitingCount="1" stopTime="0.00" timeLoss="22.04" rerouteNo="1" devices="tripinfo_carIn22761:1 routing_carIn22761:1 emissions_carIn22761:1" vType="default_016" speedFactor="0.81" vaporized="">
        <emissions CO_abs="5271.188973" CO2_abs="278042.551100" HC_abs="30.352393" PMx_abs="4.764997" NOx_abs="111.857404" fuel_abs="119.519740" electricity_abs="0"/>
    </tripinfo>
    <tripinfo id="h3568c1:3" depart="57656.00" departLane="266565295#5_1" departPos="5.10" departSpeed="0.00" departDelay="0.80" arrival="57734.00" arrivalLane="-24634415_1" arrivalPos="62.03" arrivalSpeed="14.08" duration="78.00" routeLength="807.40" waitingTime="0.00" waitingCount="0" stopTime="0.00" timeLoss="14.66" rerouteNo="1" devices="tripinfo_h3568c1:3 routing_h3568c1:3 emissions_h3568c1:3" vType="default_016" speedFactor="1.02" vaporized="">
        <emissions CO_abs="3961.056033" CO2_abs="248782.404030" HC_abs="23.874180" PMx_abs="4.410037" NOx_abs="101.782734" fuel_abs="106.941008" electricity_abs="0"/>
    </tripinfo>
    <tripinfo id="h9563c2:5" depart="57631.00" departLane="315358244_1" departPos="5.10" departSpeed="0.00" departDelay="0.70" arrival="57735.00" arrivalLane="386687235_1" arrivalPos="80.84" arrivalSpeed="15.30" duration="104.00" routeLength="1186.14" waitingTime="8.00" waitingCount="2" stopTime="0.00" timeLoss="28.62" rerouteNo="1" devices="tripinfo_h9563c2:5 routing_h9563c2:5 emissions_h9563c2:5" vType="default_016" speedFactor="1.14" vaporized="">
        <emissions CO_abs="4245.166473" CO2_abs="291166.355592" HC_abs="26.018163" PMx_abs="5.125972" NOx_abs="117.026429" fuel_abs="125.159952" electricity_abs="0"/>
    </tripinfo>
    <tripinfo id="h4538c1:1" depart="57701.00" departLane="-10427692#1_1" departPos="5.10" departSpeed="0.00" departDelay="0.00" arrival="57737.00" arrivalLane="-128361102#1_1" arrivalPos="274.68" arrivalSpeed="14.61" duration="36.00" routeLength="440.74" waitingTime="0.00" waitingCount="0" stopTime="0.00" timeLoss="6.28" rerouteNo="1" devices="tripinfo_h4538c1:1 routing_h4538c1:1 emissions_h4538c1:1" vType="default_016" speedFactor="1.10" vaporized="">
        <emissions CO_abs="1627.285904" CO2_abs="119180.120975" HC_abs="10.171529" PMx_abs="2.085342" NOx_abs="48.031297" fuel_abs="51.230340" electricity_abs="0"/>
    </tripinfo>
    <tripinfo id="h317c2:1" depart="57707.00" departLane="-32978638#0_1" departPos="5.10" departSpeed="0.00" departDelay="0.10" arrival="57741.00" arrivalLane="-266565295#5_1" arrivalPos="172.76" arrivalSpeed="12.59" duration="34.00" routeLength="370.53" waitingTime="0.00" waitingCount="0" stopTime="0.00" timeLoss="5.65" rerouteNo="1" devices="tripinfo_h317c2:1 routing_h317c2:1 emissions_h317c2:1" vType="default_016" speedFactor="0.96" vaporized="">
        <emissions CO_abs="1577.806047" CO2_abs="105714.509647" HC_abs="9.670659" PMx_abs="1.854380" NOx_abs="43.056637" fuel_abs="45.442133" electricity_abs="0"/>
    </tripinfo>
    <tripinfo id="h3688c1:1" depart="57625.00" departLane="201201950#1_1" departPos="5.10" departSpeed="0.00" departDelay="0.00" arrival="57744.00" arrivalLane="32978638#0_1" arrivalPos="49.29" arrivalSpeed="11.71" duration="119.00" routeLength="1089.75" waitingTime="14.00" waitingCount="1" stopTime="0.00" timeLoss="29.35" rerouteNo="1" devices="tripinfo_h3688c1:1 routing_h3688c1:1 emissions_h3688c1:1" vType="default_016" speedFactor="0.89" vaporized="">
        <emissions CO_abs="5139.187640" CO2_abs="284154.224852" HC_abs="30.004831" PMx_abs="4.721313" NOx_abs="114.082975" fuel_abs="122.146879" electricity_abs="0"/>
    </tripinfo>
    <tripinfo id="carIn30817:1" depart="57681.00" departLane="315358244_1" departPos="5.10" departSpeed="0.00" departDelay="0.20" arrival="57749.00" arrivalLane="447569997#1_1" arrivalPos="180.93" arrivalSpeed="7.25" duration="68.00" routeLength="718.04" waitingTime="0.00" waitingCount="0" stopTime="0.00" timeLoss="7.81" rerouteNo="1" devices="tripinfo_carIn30817:1 routing_carIn30817:1 emissions_carIn30817:1" vType="default_016" speedFactor="1.02" vaporized="">
        <emissions CO_abs="2297.550424" CO2_abs="158201.772622" HC_abs="14.089702" PMx_abs="2.521548" NOx_abs="62.588416" fuel_abs="68.004502" electricity_abs="0"/>
    </tripinfo>
    <tripinfo id="h5979c1:5" depart="57669.00" departLane="399835085#1_1" departPos="5.10" departSpeed="0.00" departDelay="0.00" arrival="57756.00" arrivalLane="-315358254#1_1" arrivalPos="137.16" arrivalSpeed="15.78" duration="87.00" routeLength="659.33" waitingTime="7.00" waitingCount="1" stopTime="0.00" timeLoss="22.61" rerouteNo="1" devices="tripinfo_h5979c1:5 routing_h5979c1:5 emissions_h5979c1:5" vType="default_016" speedFactor="1.15" vaporized="">
        <emissions CO_abs="4020.019686" CO2_abs="203017.858693" HC_abs="22.994276" PMx_abs="3.581431" NOx_abs="83.574382" fuel_abs="87.269398" electricity_abs="0"/>
    </tripinfo>
    <tripinfo id="carIn121703:1" depart="57647.00" departLane="386687232#0_1" departPos="5.10" departSpeed="0.00" departDelay="0.30" arrival="57757.00" arrivalLane="-315358244_1" arrivalPos="33.95" arrivalSpeed="13.24" duration="110.00" routeLength="1157.39" waitingTime="8.00" waitingCount="2" stopTime="0.00" timeLoss="22.81" rerouteNo="1" devices="tripinfo_carIn121703:1 routing_carIn121703:1 emissions_carIn121703:1" vType="default_016" speedFactor="0.97" vaporized="">
        <emissions CO_abs="3549.602698" CO2_abs="256275.117441" HC_abs="22.156030" PMx_abs="4.244875" NOx_abs="102.321049" fuel_abs="110.161874" electricity_abs="0"/>
    </tripinfo>
    <tripinfo id="h3326c1:2" depart="57656.00" departLane="22716069#0_1" departPos="5.10" departSpeed="0.00" departDelay="0.00" arrival="57767.00" arrivalLane="24634517#13_1" arrivalPos="111.62" arrivalSpeed="13.41" duration="111.00" routeLength="1312.81" waitingTime="0.00" waitingCount="0" stopTime="0.00" timeLoss="15.54" rerouteNo="1" devices="tripinfo_h3326c1:2 routing_h3326c1:2 emissions_h3326c1:2" vType="default_016" speedFactor="1.02" vaporized="">
        <emissions CO_abs="3943.161777" CO2_abs="302180.432061" HC_abs="24.995371" PMx_abs="5.119581" NOx_abs="121.200384" fuel_abs="129.894260" electricity_abs="0"/>
    </tripinfo>
    <tripinfo id="carIn27009:1" depart="57673.00" departLane="-447569998#1_1" departPos="5.10" departSpeed="0.00" departDelay="0.50" arrival="57769.00" arrivalLane="-26677539_1" arrivalPos="152.75" arrivalSpeed="7.36" duration="96.00" routeLength="699.63" waitingTime="0.00" waitingCount="0" stopTime="0.00" timeLoss="10.98" rerouteNo="1" devices="tripinfo_carIn27009:1 routing_carIn27009:1 emissions_carIn27009:1" vType="default_015" speedFactor="0.98" vaporized="">
        <emissions CO_abs="4040.786332" CO2_abs="191388.761784" HC_abs="22.768466" PMx_abs="2.966219" NOx_abs="76.783441" fuel_abs="82.271289" electricity_abs="0"/>
    </tripinfo>
    <tripinfo id="h7181c1:1" depart="57660.00" departLane="315358254#0_1" departPos="5.10" departSpeed="0.00" departDelay="0.10" arrival="57772.00" arrivalLane="306240162#0_0" arrivalPos="220.43" arrivalSpeed="15.50" duration="112.00" routeLength="932.35" waitingTime="31.00" waitingCount="3" stopTime="0.00" timeLoss="57.66" rerouteNo="1" devices="tripinfo_h7181c1:1 routing_h7181c1:1 emissions_h7181c1:1" vType="default_016" speedFactor="0.95" vaporized="">
        <emissions CO_abs="7341.973152" CO2_abs="350955.888927" HC_abs="41.785223" PMx_abs="7.068579" NOx_abs="147.860877" fuel_abs="150.861386" electricity_abs="0"/>
    </tripinfo>
    <tripinfo id="carIn12365:1" depart="57713.00" departLane="315358244_1" departPos="5.10" departSpeed="0.00" departDelay="0.50" arrival="57786.00" arrivalLane="447569997#1_1" arrivalPos="180.93" arrivalSpeed="7.93" duration="73.00" routeLength="718.04" waitingTime="0.00" waitingCount="0" stopTime="0.00" timeLoss="9.83" rerouteNo="1" devices="tripinfo_carIn12365:1 routing_carIn12365:1 emissions_carIn12365:1" vType="default_016" speedFactor="0.97" vaporized="">
        <emissions CO_abs="2468.922739" CO2_abs="152796.026285" HC_abs="14.786220" PMx_abs="2.456777" NOx_abs="60.820823" fuel_abs="65.680957" electricity_abs="0"/>
    </tripinfo>
    <tripinfo id="h3154c1:1" depart="57658.00" departLane="24634507_1" departPos="5.10" departSpeed="0.00" departDelay="0.00" arrival="57787.00" arrivalLane="-266565295#5_1" arrivalPos="172.76" arrivalSpeed="13.09" duration="129.00" routeLength="1206.22" waitingTime="20.00" waitingCount="2" stopTime="0.00" timeLoss="40.61" rerouteNo="1" devices="tripinfo_h3154c1:1 routing_h3154c1:1 emissions_h3154c1:1" vType="default_016" speedFactor="1.01" vaporized="">
        <emissions CO_abs="6385.421151" CO2_abs="351300.457126" HC_abs="37.309649" PMx_abs="6.323963" NOx_abs="143.842615" fuel_abs="151.009753" electricity_abs="0"/>
    </tripinfo>
    <tripinfo id="carIn107282:1" depart="57749.00" departLane="-447569998#1_1" departPos="5.10" departSpeed="0.00" departDelay="0.00" arrival="57795.00" arrivalLane="315358242#0_1" arrivalPos="165.37" arrivalSpeed="13.93" duration="46.00" routeLength="448.50" waitingTime="0.00" waitingCount="0" stopTime="0.00" timeLoss="5.19" rerouteNo="1" devices="tripinfo_carIn107282:1 routing_carIn107282:1 emissions_carIn107282:1" vType="default_016" speedFactor="1.03" vaporized="">
        <emissions CO_abs="1864.600063" CO2_abs="112529.653767" HC_abs="11.080088" PMx_abs="1.746117" NOx_abs="44.468013" fuel_abs="48.372166" electricity_abs="0"/>
    </tripinfo>
    <tripinfo id="h645c1:1" depart="57622.00" departLane="266565295#5_1" departPos="5.10" departSpeed="0.00" departDelay="0.40" arrival="57797.00" arrivalLane="-315358244_1" arrivalPos="33.95" arrivalSpeed="12.61" duration="175.00" routeLength="1910.83" waitingTime="20.00" waitingCount="1" stopTime="0.00" timeLoss="36.07" rerouteNo="1" devices="tripinfo_h645c1:1 routing_h645c1:1 emissions_h645c1:1" vType="default_016" speedFactor="1.00" vaporized="">
        <emissions CO_abs="6726.311067" CO2_abs="395013.656810" HC_abs="39.749395" PMx_abs="6.492925" NOx_abs="156.347429" fuel_abs="169.800968" electricity_abs="0"/>
    </tripinfo>
    <tripinfo id="h330c1:1" depart="57736.00" departLane="-32978638#0_1" departPos="5.10" departSpeed="0.00" departDelay="0.20" arrival="57798.00" arrivalLane="-266565295#5_1" arrivalPos="172.76" arrivalSpeed="11.08" duration="62.00" routeLength="370.53" waitingTime="22.00" waitingCount="1" stopTime="0.00" timeLoss="29.43" rerouteNo="1" devices="tripinfo_h330c1:1 routing_h330c1:1 emissions_h330c1:1" vType="default_016" speedFactor="0.84" vaporized="">
        <emissions CO_abs="4851.855771" CO2_abs="152500.004958" HC_abs="25.649955" PMx_abs="2.966132" NOx_abs="64.437031" fuel_abs="65.554924" electricity_abs="0"/>
    </tripinfo>
    <tripinfo id="S5R_frequency1.2" depart="57615.00" departLane="315358250#0_1" departPos="12.10" departSpeed="0.00" departDelay="3.40" arrival="57800.00" arrivalLane="386687235_1" arrivalPos="80.84" arrivalSpeed="13.69" duration="185.00" routeLength="1115.62" waitingTime="70.00" waitingCount="3" stopTime="0.00" timeLoss="103.90" rerouteNo="1" devices="tripinfo_S5R_frequency1.2 routing_S5R_frequency1.2 emissions_S5R_frequency1.2" vType="bus" speedFactor="1.00" vaporized="">
        <emissions CO_abs="3616.482668" CO2_abs="1796726.788178" HC_abs="784.930410" PMx_abs="376.718311" NOx_abs="15220.370403" fuel_abs="766.120837" electricity_abs="0"/>
    </tripinfo>
    <tripinfo id="carIn82278:1" depart="57702.00" departLane="-306240162#1_0" departPos="5.10" departSpeed="0.00" departDelay="0.70" arrival="57802.00" arrivalLane="399835085#1_1" arrivalPos="212.23" arrivalSpeed="8.55" duration="100.00" routeLength="1093.26" waitingTime="0.00" waitingCount="0" stopTime="0.00" timeLoss="24.10" rerouteNo="1" devices="tripinfo_carIn82278:1 routing_carIn82278:1 emissions_carIn82278:1" vType="default_016" speedFactor="1.03" vaporized="">
        <emissions CO_abs="5824.968865" CO2_abs="345187.063757" HC_abs="34.705877" PMx_abs="6.642258" NOx_abs="143.391161" fuel_abs="148.380887" electricity_abs="0"/>
    </tripinfo>
    <tripinfo id="h11737c1:1" depart="57665.00" departLane="272042143_1" departPos="5.10" departSpeed="0.00" departDelay="1.50" arrival="57807.00" arrivalLane="-315358254#1_1" arrivalPos="137.16" arrivalSpeed="13.78" duration="142.00" routeLength="1596.88" waitingTime="3.00" waitingCount="2" stopTime="0.00" timeLoss="24.62" rerouteNo="1" devices="tripinfo_h11737c1:1 routing_h11737c1:1 emissions_h11737c1:1" vType="default_016" speedFactor="0.99" vaporized="">
        <emissions CO_abs="4737.995899" CO2_abs="352811.170393" HC_abs="29.798732" PMx_abs="5.779530" NOx_abs="140.078204" fuel_abs="151.658660" electricity_abs="0"/>
    </tripinfo>
    <tripinfo id="carIn129809:1" depart="57729.00" departLane="-447569998#1_1" departPos="5.10" departSpeed="0.00" departDelay="1.00" arrival="57808.00" arrivalLane="-315358244_1" arrivalPos="33.95" arrivalSpeed="13.31" duration="79.00" routeLength="706.49" waitingTime="7.00" waitingCount="1" stopTime="0.00" timeLoss="18.61" rerouteNo="1" devices="tripinfo_carIn129809:1 routing_carIn129809:1 emissions_carIn129809:1" vType="default_015" speedFactor="1.00" vaporized="">
        <emissions CO_abs="2860.279818" CO2_abs="169970.629756" HC_abs="16.942828" PMx_abs="2.641671" NOx_abs="66.793227" fuel_abs="73.063903" electricity_abs="0"/>
    </tripinfo>
    <tripinfo id="carIn50326:1" depart="57651.00" departLane="128361102#0_1" departPos="5.10" departSpeed="0.00" departDelay="0.30" arrival="57814.00" arrivalLane="18809673#0_1" arrivalPos="473.56" arrivalSpeed="12.69" duration="163.00" routeLength="1591.07" waitingTime="6.00" waitingCount="1" stopTime="0.00" timeLoss="28.59" rerouteNo="1" devices="tripinfo_carIn50326:1 routing_carIn50326:1 emissions_carIn50326:1" vType="default_016" speedFactor="0.96" vaporized="">
        <emissions CO_abs="5322.868129" CO2_abs="351218.050111" HC_abs="32.385664" PMx_abs="5.635817" NOx_abs="139.495569" fuel_abs="150.974461" electricity_abs="0"/>
    </tripinfo>
    <tripinfo id="randUni15030:1" depart="57735.00" departLane="386687232#0_1" departPos="5.10" departSpeed="0.00" departDelay="0.10" arrival="57815.00" arrivalLane="26677539_1" arrivalPos="151.98" arrivalSpeed="10.66" duration="80.00" routeLength="919.89" waitingTime="1.00" waitingCount="1" stopTime="0.00" timeLoss="15.07" rerouteNo="1" devices="tripinfo_randUni15030:1 routing_randUni15030:1 emissions_randUni15030:1" vType="random_016" speedFactor="1.29" vaporized="">
        <emissions CO_abs="3756.936887" CO2_abs="247507.753465" HC_abs="22.837924" PMx_abs="4.456398" NOx_abs="100.925496" fuel_abs="106.392888" electricity_abs="0"/>
    </tripinfo>
    <tripinfo id="carIn86816:1" depart="57617.00" departLane="128361102#0_1" departPos="5.10" departSpeed="0.00" departDelay="0.80" arrival="57816.00" arrivalLane="201956811#0_1" arrivalPos="40.40" arrivalSpeed="10.42" duration="199.00" routeLength="2067.33" waitingTime="0.00" waitingCount="0" stopTime="0.00" timeLoss="17.17" rerouteNo="1" devices="tripinfo_carIn86816:1 routing_carIn86816:1 emissions_carIn86816:1" vType="default_016" speedFactor="0.83" vaporized="">
        <emissions CO_abs="5599.619062" CO2_abs="417727.162081" HC_abs="35.146546" PMx_abs="6.329585" NOx_abs="163.822574" fuel_abs="179.563957" electricity_abs="0"/>
    </tripinfo>
    <tripinfo id="carIn77943:1" depart="57608.00" departLane="124812856#0_1" departPos="5.10" departSpeed="0.00" departDelay="2.50" arrival="57817.00" arrivalLane="-128361102#1_1" arrivalPos="274.68" arrivalSpeed="12.80" duration="209.00" routeLength="2250.49" waitingTime="3.00" waitingCount="1" stopTime="0.00" timeLoss="35.93" rerouteNo="1" devices="tripinfo_carIn77943:1 routing_carIn77943:1 emissions_carIn77943:1" vType="default_016" speedFactor="0.95" vaporized="">
        <emissions CO_abs="7577.826865" CO2_abs="537766.139965" HC_abs="47.106944" PMx_abs="9.115681" NOx_abs="216.841259" fuel_abs="231.162713" electricity_abs="0"/>
    </tripinfo>
    <tripinfo id="carIn81860:1" depart="57712.00" departLane="128361102#0_1" departPos="5.10" departSpeed="0.00" departDelay="0.60" arrival="57817.00" arrivalLane="-24634517#17_1" arrivalPos="6.43" arrivalSpeed="7.68" duration="105.00" routeLength="1229.64" waitingTime="0.00" waitingCount="0" stopTime="0.00" timeLoss="15.45" rerouteNo="1" devices="tripinfo_carIn81860:1 routing_carIn81860:1 emissions_carIn81860:1" vType="default_016" speedFactor="1.00" vaporized="">
        <emissions CO_abs="3450.931526" CO2_abs="266692.295015" HC_abs="21.921350" PMx_abs="4.328480" NOx_abs="105.610045" fuel_abs="114.639733" electricity_abs="0"/>
    </tripinfo>
    <tripinfo id="carIn102915:1" depart="57643.00" departLane="128361102#0_1" departPos="5.10" departSpeed="0.00" departDelay="0.40" arrival="57818.00" arrivalLane="201956811#0_1" arrivalPos="40.40" arrivalSpeed="9.73" duration="175.00" routeLength="2067.33" waitingTime="4.00" waitingCount="1" stopTime="0.00" timeLoss="27.71" rerouteNo="1" devices="tripinfo_carIn102915:1 routing_carIn102915:1 emissions_carIn102915:1" vType="default_016" speedFactor="1.03" vaporized="">
        <emissions CO_abs="5745.212914" CO2_abs="471654.524071" HC_abs="37.186789" PMx_abs="7.729375" NOx_abs="186.695305" fuel_abs="202.743965" electricity_abs="0"/>
    </tripinfo>
    <tripinfo id="carIn107084:1" depart="57601.00" departLane="124812856#0_1" departPos="5.10" departSpeed="0.00" departDelay="0.70" arrival="57819.00" arrivalLane="-128361102#1_1" arrivalPos="274.68" arrivalSpeed="13.42" duration="218.00" routeLength="2250.49" waitingTime="6.00" waitingCount="2" stopTime="0.00" timeLoss="47.76" rerouteNo="1" devices="tripinfo_carIn107084:1 routing_carIn107084:1 emissions_carIn107084:1" vType="default_016" speedFactor="0.97" vaporized="">
        <emissions CO_abs="8961.154140" CO2_abs="592424.783537" HC_abs="54.760912" PMx_abs="10.578585" NOx_abs="242.988608" fuel_abs="254.657769" electricity_abs="0"/>
    </tripinfo>
    <tripinfo id="carIn81046:1" depart="57611.00" departLane="124812856#0_1" departPos="5.10" departSpeed="0.00" departDelay="2.50" arrival="57822.00" arrivalLane="-128361102#1_1" arrivalPos="274.68" arrivalSpeed="11.95" duration="211.00" routeLength="2250.49" waitingTime="0.00" waitingCount="0" stopTime="0.00" timeLoss="31.32" rerouteNo="1" devices="tripinfo_carIn81046:1 routing_carIn81046:1 emissions_carIn81046:1" vType="default_016" speedFactor="0.91" vaporized="">
        <emissions CO_abs="7026.648247" CO2_abs="517839.132859" HC_abs="44.033664" PMx_abs="8.223438" NOx_abs="205.080611" fuel_abs="222.597574" electricity_abs="0"/>
    </tripinfo>
    <tripinfo id="randUni33724:1" depart="57646.00" departLane="128361102#0_1" departPos="5.10" departSpeed="0.00" departDelay="1.20" arrival="57822.00" arrivalLane="201956811#0_1" arrivalPos="40.40" arrivalSpeed="12.89" duration="176.00" routeLength="2067.33" waitingTime="4.00" waitingCount="1" stopTime="0.00" timeLoss="25.15" rerouteNo="1" devices="tripinfo_randUni33724:1 routing_randUni33724:1 emissions_randUni33724:1" vType="random_016" speedFactor="1.00" vaporized="">
        <emissions CO_abs="5394.873271" CO2_abs="429247.458362" HC_abs="34.611932" PMx_abs="7.142580" NOx_abs="170.982642" fuel_abs="184.514932" electricity_abs="0"/>
    </tripinfo>
    <tripinfo id="carIn100288:1" depart="57664.00" departLane="128361102#0_1" departPos="5.10" departSpeed="0.00" departDelay="0.60" arrival="57824.00" arrivalLane="201956811#0_1" arrivalPos="40.40" arrivalSpeed="9.97" duration="160.00" routeLength="2067.33" waitingTime="0.00" waitingCount="0" stopTime="0.00" timeLoss="19.63" rerouteNo="1" devices="tripinfo_carIn100288:1 routing_carIn100288:1 emissions_carIn100288:1" vType="default_016" speedFactor="1.08" vaporized="">
        <emissions CO_abs="4679.202159" CO2_abs="405542.855053" HC_abs="30.575005" PMx_abs="6.617704" NOx_abs="159.617257" fuel_abs="174.325259" electricity_abs="0"/>
    </tripinfo>
    <tripinfo id="carIn29531:1" depart="57667.00" departLane="128361102#0_1" departPos="5.10" departSpeed="0.00" departDelay="1.60" arrival="57825.00" arrivalLane="201956811#0_1" arrivalPos="40.40" arrivalSpeed="12.56" duration="158.00" routeLength="2067.33" waitingTime="0.00" waitingCount="0" stopTime="0.00" timeLoss="30.27" rerouteNo="1" devices="tripinfo_carIn29531:1 routing_carIn29531:1 emissions_carIn29531:1" vType="default_016" speedFactor="1.18" vaporized="">
        <emissions CO_abs="5771.342622" CO2_abs="456473.241236" HC_abs="36.963425" PMx_abs="8.047614" NOx_abs="184.153860" fuel_abs="196.217502" electricity_abs="0"/>
    </tripinfo>
    <tripinfo id="h17549c1:1" depart="57680.00" departLane="-447569998#1_1" departPos="5.10" departSpeed="0.00" departDelay="0.00" arrival="57826.00" arrivalLane="-315358254#1_1" arrivalPos="137.16" arrivalSpeed="13.79" duration="146.00" routeLength="1746.60" waitingTime="2.00" waitingCount="1" stopTime="0.00" timeLoss="19.36" rerouteNo="1" devices="tripinfo_h17549c1:1 routing_h17549c1:1 emissions_h17549c1:1" vType="default_016" speedFactor="1.08" vaporized="">
        <emissions CO_abs="4727.920969" CO2_abs="379377.437210" HC_abs="30.183289" PMx_abs="6.193144" NOx_abs="149.637043" fuel_abs="163.078147" electricity_abs="0"/>
    </tripinfo>
    <tripinfo id="carIn126288:1" depart="57674.00" departLane="272042143_1" departPos="5.10" departSpeed="0.00" departDelay="0.00" arrival="57831.00" arrivalLane="-315358254#1_1" arrivalPos="137.16" arrivalSpeed="11.78" duration="157.00" routeLength="1596.88" waitingTime="7.00" waitingCount="1" stopTime="0.00" timeLoss="26.12" rerouteNo="1" devices="tripinfo_carIn126288:1 routing_carIn126288:1 emissions_carIn126288:1" vType="default_016" speedFactor="0.89" vaporized="">
        <emissions CO_abs="4438.462002" CO2_abs="332494.180630" HC_abs="27.910603" PMx_abs="5.106617" NOx_abs="130.421192" fuel_abs="142.925680" electricity_abs="0"/>
    </tripinfo>
    <tripinfo id="h16072c2:3" depart="57663.00" departLane="315358254#0_1" departPos="5.10" departSpeed="0.00" departDelay="2.50" arrival="57834.00" arrivalLane="386687235_1" arrivalPos="80.84" arrivalSpeed="13.51" duration="171.00" routeLength="1611.92" waitingTime="28.00" waitingCount="3" stopTime="0.00" timeLoss="52.61" rerouteNo="1" devices="tripinfo_h16072c2:3 routing_h16072c2:3 emissions_h16072c2:3" vType="default_016" speedFactor="1.00" vaporized="">
        <emissions CO_abs="7222.086254" CO2_abs="405932.706313" HC_abs="42.371133" PMx_abs="7.046444" NOx_abs="164.124307" fuel_abs="174.494240" electricity_abs="0"/>
    </tripinfo>
    <tripinfo id="carIn48184:1" depart="57613.00" departLane="-306240162#1_0" departPos="5.10" departSpeed="0.00" departDelay="0.70" arrival="57835.00" arrivalLane="386687235_2" arrivalPos="80.84" arrivalSpeed="11.05" duration="222.00" routeLength="2257.41" waitingTime="22.00" waitingCount="1" stopTime="0.00" timeLoss="45.96" rerouteNo="1" devices="tripinfo_carIn48184:1 routing_carIn48184:1 emissions_carIn48184:1" vType="default_016" speedFactor="0.85" vaporized="">
        <emissions CO_abs="9173.216781" CO2_abs="528312.049338" HC_abs="53.991724" PMx_abs="8.924369" NOx_abs="211.814866" fuel_abs="227.100413" electricity_abs="0"/>
    </tripinfo>
    <tripinfo id="carIn77438:1" depart="57614.00" departLane="124812856#0_1" departPos="5.10" departSpeed="0.00" departDelay="1.10" arrival="57835.00" arrivalLane="-128361102#1_1" arrivalPos="274.68" arrivalSpeed="14.52" duration="221.00" routeLength="2250.49" waitingTime="11.00" waitingCount="1" stopTime="0.00" timeLoss="65.53" rerouteNo="1" devices="tripinfo_carIn77438:1 routing_carIn77438:1 emissions_carIn77438:1" vType="default_016" speedFactor="1.06" vaporized="">
        <emissions CO_abs="10183.411854" CO2_abs="618064.541600" HC_abs="60.888429" PMx_abs="10.971989" NOx_abs="252.632822" fuel_abs="265.680049" electricity_abs="0"/>
    </tripinfo>
    <tripinfo id="h19804c1:3" depart="57617.00" departLane="124812856#0_1" departPos="5.10" departSpeed="0.00" departDelay="1.50" arrival="57836.00" arrivalLane="-128361102#1_1" arrivalPos="274.68" arrivalSpeed="14.91" duration="219.00" routeLength="2250.49" waitingTime="10.00" waitingCount="1" stopTime="0.00" timeLoss="66.81" rerouteNo="1" devices="tripinfo_h19804c1:3 routing_h19804c1:3 emissions_h19804c1:3" vType="default_016" speedFactor="1.08" vaporized="">
        <emissions CO_abs="9806.494079" CO2_abs="618554.723676" HC_abs="59.234711" PMx_abs="11.159341" NOx_abs="254.025502" fuel_abs="265.890152" electricity_abs="0"/>
    </tripinfo>
    <tripinfo id="carIn462:1" depart="57622.00" departLane="-306240162#1_0" departPos="5.10" departSpeed="0.00" departDelay="4.80" arrival="57836.00" arrivalLane="386687235_2" arrivalPos="80.84" arrivalSpeed="14.91" duration="214.00" routeLength="2257.41" waitingTime="24.00" waitingCount="2" stopTime="0.00" timeLoss="88.66" rerouteNo="1" devices="tripinfo_carIn462:1 routing_carIn462:1 emissions_carIn462:1" vType="default_016" speedFactor="1.19" vaporized="">
        <emissions CO_abs="10595.724365" CO2_abs="631252.357730" HC_abs="63.134333" PMx_abs="11.795645" NOx_abs="260.001752" fuel_abs="271.348381" electricity_abs="0"/>
    </tripinfo>