<?xml version="1.0" encoding="UTF-8"?>

<!-- generated on 2021-10-26 18:55:04 by Eclipse SUMO sumo Version 1.10.0
<configuration xmlns:xsi="http://www.w3.org/2001/XMLSchema-instance" xsi:noNamespaceSchemaLocation="http://sumo.dlr.de/xsd/sumoConfiguration.xsd">

    <input>
        <net-file value="/Users/behradkoohy/sumo-scratchpad/RESCO/environments/ingolstadt21/ingolstadt21.net.xml"/>
        <route-files value="/Users/behradkoohy/sumo-scratchpad/RESCO/environments/ingolstadt21/ingolstadt21.rou.xml"/>
    </input>

    <output>
        <tripinfo-output value="/Users/behradkoohy/sumo-scratchpad/RESCO/logs/MPLight-tr0-ingolstadt21-21-mplight-pressure/tripinfo_3.xml"/>
        <tripinfo-output.write-unfinished value="true"/>
    </output>

    <time>
        <begin value="57600"/>
        <end value="61200"/>
    </time>

    <processing>
        <time-to-teleport value="-1"/>
    </processing>

    <report>
        <no-warnings value="true"/>
        <no-step-log value="true"/>
    </report>

    <emissions>
        <device.emissions.probability value="1"/>
    </emissions>

    <traci_server>
        <remote-port value="62669"/>
    </traci_server>

    <random_number>
        <random value="true"/>
    </random_number>

</configuration>
-->

<tripinfos xmlns:xsi="http://www.w3.org/2001/XMLSchema-instance" xsi:noNamespaceSchemaLocation="http://sumo.dlr.de/xsd/tripinfo_file.xsd">
    <tripinfo id="h15454c2:3" depart="57612.00" departLane="24608844_1" departPos="5.10" departSpeed="0.00" departDelay="0.50" arrival="57651.00" arrivalLane="32978638#0_1" arrivalPos="49.29" arrivalSpeed="13.83" duration="39.00" routeLength="354.79" waitingTime="0.00" waitingCount="0" stopTime="0.00" timeLoss="5.55" rerouteNo="1" devices="tripinfo_h15454c2:3 routing_h15454c2:3 emissions_h15454c2:3" vType="default_016" speedFactor="1.02" vaporized="">
        <emissions CO_abs="2048.833082" CO2_abs="117329.846376" HC_abs="12.082362" PMx_abs="2.105433" NOx_abs="48.510167" fuel_abs="50.435207" electricity_abs="0"/>
    </tripinfo>
    <tripinfo id="carIn60260:1" depart="57606.00" departLane="315358254#0_1" departPos="5.10" departSpeed="0.00" departDelay="0.90" arrival="57663.00" arrivalLane="399835085#1_1" arrivalPos="212.23" arrivalSpeed="7.21" duration="57.00" routeLength="430.98" waitingTime="2.00" waitingCount="1" stopTime="0.00" timeLoss="10.01" rerouteNo="1" devices="tripinfo_carIn60260:1 routing_carIn60260:1 emissions_carIn60260:1" vType="default_016" speedFactor="0.99" vaporized="">
        <emissions CO_abs="2411.541333" CO2_abs="117701.372579" HC_abs="13.698685" PMx_abs="1.957786" NOx_abs="47.886103" fuel_abs="50.595429" electricity_abs="0"/>
    </tripinfo>
    <tripinfo id="carIn53971:1" depart="57640.00" departLane="272042143_1" departPos="5.10" departSpeed="0.00" departDelay="0.80" arrival="57690.00" arrivalLane="24634414#1_1" arrivalPos="162.19" arrivalSpeed="8.65" duration="50.00" routeLength="493.04" waitingTime="0.00" waitingCount="0" stopTime="0.00" timeLoss="7.29" rerouteNo="1" devices="tripinfo_carIn53971:1 routing_carIn53971:1 emissions_carIn53971:1" vType="default_016" speedFactor="1.07" vaporized="">
        <emissions CO_abs="2402.186792" CO2_abs="149777.885404" HC_abs="14.452049" PMx_abs="2.624046" NOx_abs="61.177346" fuel_abs="64.383216" electricity_abs="0"/>
    </tripinfo>
    <tripinfo id="h3688c1:1" depart="57625.00" departLane="201201950#1_1" departPos="5.10" departSpeed="0.00" departDelay="0.00" arrival="57693.00" arrivalLane="32978638#0_1" arrivalPos="49.29" arrivalSpeed="17.78" duration="68.00" routeLength="1089.75" waitingTime="0.00" waitingCount="0" stopTime="0.00" timeLoss="9.19" rerouteNo="1" devices="tripinfo_h3688c1:1 routing_h3688c1:1 emissions_h3688c1:1" vType="default_016" speedFactor="1.35" vaporized="">
        <emissions CO_abs="3748.002517" CO2_abs="291335.900006" HC_abs="23.885909" PMx_abs="5.672898" NOx_abs="119.682719" fuel_abs="125.231669" electricity_abs="0"/>
    </tripinfo>
    <tripinfo id="h7800c1:5" depart="57696.00" departLane="-447569998#1_1" departPos="5.10" departSpeed="0.00" departDelay="0.00" arrival="57722.00" arrivalLane="-447569998#1_1" arrivalPos="180.76" arrivalSpeed="7.02" duration="26.00" routeLength="175.66" waitingTime="0.00" waitingCount="0" stopTime="0.00" timeLoss="3.55" rerouteNo="1" devices="tripinfo_h7800c1:5 routing_h7800c1:5 emissions_h7800c1:5" vType="default_016" speedFactor="0.97" vaporized="">
        <emissions CO_abs="1319.863915" CO2_abs="55824.449076" HC_abs="7.278164" PMx_abs="0.856916" NOx_abs="22.355913" fuel_abs="23.997097" electricity_abs="0"/>
    </tripinfo>
    <tripinfo id="h12244c1:3" depart="57612.00" departLane="315358244_1" departPos="5.10" departSpeed="0.00" departDelay="0.40" arrival="57736.00" arrivalLane="386687235_1" arrivalPos="80.84" arrivalSpeed="12.38" duration="124.00" routeLength="1186.14" waitingTime="19.00" waitingCount="2" stopTime="0.00" timeLoss="36.56" rerouteNo="1" devices="tripinfo_h12244c1:3 routing_h12244c1:3 emissions_h12244c1:3" vType="default_016" speedFactor="0.98" vaporized="">
        <emissions CO_abs="6173.917252" CO2_abs="304340.454800" HC_abs="35.258720" PMx_abs="5.629332" NOx_abs="125.704290" fuel_abs="130.823869" electricity_abs="0"/>
    </tripinfo>
    <tripinfo id="h7181c1:1" depart="57660.00" departLane="315358254#0_1" departPos="5.10" departSpeed="0.00" departDelay="0.10" arrival="57737.00" arrivalLane="306240162#0_0" arrivalPos="220.43" arrivalSpeed="14.58" duration="77.00" routeLength="932.35" waitingTime="7.00" waitingCount="1" stopTime="0.00" timeLoss="22.11" rerouteNo="1" devices="tripinfo_h7181c1:1 routing_h7181c1:1 emissions_h7181c1:1" vType="default_016" speedFactor="0.95" vaporized="">
        <emissions CO_abs="4584.996065" CO2_abs="291684.899998" HC_abs="27.860476" PMx_abs="5.713114" NOx_abs="121.252855" fuel_abs="125.382259" electricity_abs="0"/>
    </tripinfo>
    <tripinfo id="h317c2:1" depart="57707.00" departLane="-32978638#0_1" departPos="5.10" departSpeed="0.00" departDelay="0.10" arrival="57738.00" arrivalLane="-266565295#5_1" arrivalPos="172.76" arrivalSpeed="15.14" duration="31.00" routeLength="370.53" waitingTime="0.00" waitingCount="0" stopTime="0.00" timeLoss="6.34" rerouteNo="1" devices="tripinfo_h317c2:1 routing_h317c2:1 emissions_h317c2:1" vType="default_016" speedFactor="1.14" vaporized="">
        <emissions CO_abs="1752.992282" CO2_abs="118880.788737" HC_abs="10.718846" PMx_abs="2.180604" NOx_abs="48.738241" fuel_abs="51.101603" electricity_abs="0"/>
    </tripinfo>
    <tripinfo id="h9563c2:5" depart="57631.00" departLane="315358244_1" departPos="5.10" departSpeed="0.00" departDelay="0.70" arrival="57739.00" arrivalLane="386687235_1" arrivalPos="80.84" arrivalSpeed="13.27" duration="108.00" routeLength="1186.14" waitingTime="9.00" waitingCount="1" stopTime="0.00" timeLoss="21.84" rerouteNo="1" devices="tripinfo_h9563c2:5 routing_h9563c2:5 emissions_h9563c2:5" vType="default_016" speedFactor="1.01" vaporized="">
        <emissions CO_abs="3596.346817" CO2_abs="247736.677795" HC_abs="22.100476" PMx_abs="4.135269" NOx_abs="98.640851" fuel_abs="106.491686" electricity_abs="0"/>
    </tripinfo>
    <tripinfo id="carIn22761:1" depart="57616.00" departLane="-306240162#1_0" departPos="5.10" departSpeed="0.00" departDelay="2.10" arrival="57748.00" arrivalLane="399835085#1_1" arrivalPos="212.23" arrivalSpeed="6.71" duration="132.00" routeLength="1093.26" waitingTime="32.00" waitingCount="1" stopTime="0.00" timeLoss="47.92" rerouteNo="1" devices="tripinfo_carIn22761:1 routing_carIn22761:1 emissions_carIn22761:1" vType="default_016" speedFactor="0.93" vaporized="">
        <emissions CO_abs="8585.816548" CO2_abs="327619.553642" HC_abs="46.731912" PMx_abs="6.409695" NOx_abs="136.907899" fuel_abs="140.831810" electricity_abs="0"/>
    </tripinfo>
    <tripinfo id="h4538c1:1" depart="57701.00" departLane="-10427692#1_1" departPos="5.10" departSpeed="0.00" departDelay="0.00" arrival="57761.00" arrivalLane="-128361102#1_1" arrivalPos="274.68" arrivalSpeed="11.15" duration="60.00" routeLength="440.74" waitingTime="12.00" waitingCount="1" stopTime="0.00" timeLoss="23.01" rerouteNo="1" devices="tripinfo_h4538c1:1 routing_h4538c1:1 emissions_h4538c1:1" vType="default_016" speedFactor="0.87" vaporized="">
        <emissions CO_abs="3466.940842" CO2_abs="138788.959769" HC_abs="19.022786" PMx_abs="2.533999" NOx_abs="57.458963" fuel_abs="59.660433" electricity_abs="0"/>
    </tripinfo>
    <tripinfo id="carIn80064:1" depart="57603.00" departLane="128361109#1_1" departPos="5.10" departSpeed="0.00" departDelay="0.40" arrival="57771.00" arrivalLane="-315358254#1_1" arrivalPos="137.16" arrivalSpeed="13.26" duration="168.00" routeLength="1587.97" waitingTime="36.00" waitingCount="3" stopTime="0.00" timeLoss="75.05" rerouteNo="1" devices="tripinfo_carIn80064:1 routing_carIn80064:1 emissions_carIn80064:1" vType="default_016" speedFactor="0.97" vaporized="">
        <emissions CO_abs="11686.487556" CO2_abs="553411.103644" HC_abs="66.403285" PMx_abs="11.046821" NOx_abs="231.615124" fuel_abs="237.888833" electricity_abs="0"/>
    </tripinfo>
    <tripinfo id="h3326c1:2" depart="57656.00" departLane="22716069#0_1" departPos="5.10" departSpeed="0.00" departDelay="0.00" arrival="57773.00" arrivalLane="24634517#13_1" arrivalPos="111.62" arrivalSpeed="12.52" duration="117.00" routeLength="1312.81" waitingTime="0.00" waitingCount="0" stopTime="0.00" timeLoss="13.80" rerouteNo="1" devices="tripinfo_h3326c1:2 routing_h3326c1:2 emissions_h3326c1:2" vType="default_016" speedFactor="0.95" vaporized="">
        <emissions CO_abs="4142.463009" CO2_abs="303613.849289" HC_abs="25.992302" PMx_abs="5.192663" NOx_abs="122.586835" fuel_abs="130.510464" electricity_abs="0"/>
    </tripinfo>
    <tripinfo id="carIn121703:1" depart="57647.00" departLane="386687232#0_1" departPos="5.10" departSpeed="0.00" departDelay="0.30" arrival="57776.00" arrivalLane="-315358244_1" arrivalPos="33.95" arrivalSpeed="12.74" duration="129.00" routeLength="1157.39" waitingTime="28.00" waitingCount="2" stopTime="0.00" timeLoss="44.58" rerouteNo="1" devices="tripinfo_carIn121703:1 routing_carIn121703:1 emissions_carIn121703:1" vType="default_016" speedFactor="1.01" vaporized="">
        <emissions CO_abs="7051.866852" CO2_abs="327982.921556" HC_abs="39.802591" PMx_abs="5.954364" NOx_abs="134.303475" fuel_abs="140.987388" electricity_abs="0"/>
    </tripinfo>
    <tripinfo id="h3568c1:3" depart="57656.00" departLane="266565295#5_1" departPos="5.10" departSpeed="0.00" departDelay="0.80" arrival="57776.00" arrivalLane="-24634415_1" arrivalPos="62.03" arrivalSpeed="13.28" duration="120.00" routeLength="807.40" waitingTime="37.00" waitingCount="1" stopTime="0.00" timeLoss="55.76" rerouteNo="1" devices="tripinfo_h3568c1:3 routing_h3568c1:3 emissions_h3568c1:3" vType="default_016" speedFactor="1.01" vaporized="">
        <emissions CO_abs="9676.317032" CO2_abs="334255.616372" HC_abs="51.932723" PMx_abs="6.713139" NOx_abs="142.196926" fuel_abs="143.684806" electricity_abs="0"/>
    </tripinfo>
    <tripinfo id="carIn30817:1" depart="57681.00" departLane="315358244_1" departPos="5.10" departSpeed="0.00" departDelay="0.20" arrival="57777.00" arrivalLane="447569997#1_1" arrivalPos="180.93" arrivalSpeed="6.96" duration="96.00" routeLength="718.04" waitingTime="21.00" waitingCount="1" stopTime="0.00" timeLoss="32.27" rerouteNo="1" devices="tripinfo_carIn30817:1 routing_carIn30817:1 emissions_carIn30817:1" vType="default_016" speedFactor="0.96" vaporized="">
        <emissions CO_abs="5722.971253" CO2_abs="225336.657233" HC_abs="31.305413" PMx_abs="4.153623" NOx_abs="93.654231" fuel_abs="96.864214" electricity_abs="0"/>
    </tripinfo>
    <tripinfo id="carIn12365:1" depart="57713.00" departLane="315358244_1" departPos="5.10" departSpeed="0.00" departDelay="0.50" arrival="57777.00" arrivalLane="447569997#1_2" arrivalPos="180.93" arrivalSpeed="9.00" duration="64.00" routeLength="718.04" waitingTime="0.00" waitingCount="0" stopTime="0.00" timeLoss="7.59" rerouteNo="1" devices="tripinfo_carIn12365:1 routing_carIn12365:1 emissions_carIn12365:1" vType="default_016" speedFactor="1.09" vaporized="">
        <emissions CO_abs="2214.455479" CO2_abs="157172.478588" HC_abs="13.735805" PMx_abs="2.523325" NOx_abs="62.083914" fuel_abs="67.561994" electricity_abs="0"/>
    </tripinfo>
    <tripinfo id="S5R_frequency1.2" depart="57634.00" departLane="315358250#0_1" departPos="12.10" departSpeed="0.00" departDelay="22.40" arrival="57779.00" arrivalLane="386687235_1" arrivalPos="80.84" arrivalSpeed="13.44" duration="145.00" routeLength="1115.62" waitingTime="38.00" waitingCount="2" stopTime="0.00" timeLoss="63.75" rerouteNo="1" devices="tripinfo_S5R_frequency1.2 routing_S5R_frequency1.2 emissions_S5R_frequency1.2" vType="bus" speedFactor="1.00" vaporized="">
        <emissions CO_abs="2800.674468" CO2_abs="1492042.580747" HC_abs="611.860375" PMx_abs="294.657032" NOx_abs="12282.499214" fuel_abs="636.257514" electricity_abs="0"/>
    </tripinfo>
    <tripinfo id="h11737c1:1" depart="57665.00" departLane="272042143_1" departPos="5.10" departSpeed="0.00" departDelay="1.50" arrival="57779.00" arrivalLane="-315358254#1_1" arrivalPos="137.16" arrivalSpeed="16.14" duration="114.00" routeLength="1596.88" waitingTime="0.00" waitingCount="0" stopTime="0.00" timeLoss="13.53" rerouteNo="1" devices="tripinfo_h11737c1:1 routing_h11737c1:1 emissions_h11737c1:1" vType="default_016" speedFactor="1.17" vaporized="">
        <emissions CO_abs="3890.251484" CO2_abs="344328.415130" HC_abs="25.740201" PMx_abs="5.959407" NOx_abs="137.072125" fuel_abs="148.011322" electricity_abs="0"/>
    </tripinfo>
    <tripinfo id="carIn86816:1" depart="57617.00" departLane="128361102#0_1" departPos="5.10" departSpeed="0.00" departDelay="0.80" arrival="57782.00" arrivalLane="201956811#0_1" arrivalPos="40.40" arrivalSpeed="14.94" duration="165.00" routeLength="2067.33" waitingTime="10.00" waitingCount="1" stopTime="0.00" timeLoss="31.03" rerouteNo="1" devices="tripinfo_carIn86816:1 routing_carIn86816:1 emissions_carIn86816:1" vType="default_016" speedFactor="1.14" vaporized="">
        <emissions CO_abs="6513.061571" CO2_abs="487804.150893" HC_abs="41.065605" PMx_abs="8.556632" NOx_abs="195.340679" fuel_abs="209.685747" electricity_abs="0"/>
    </tripinfo>
    <tripinfo id="h5979c1:5" depart="57669.00" departLane="399835085#1_1" departPos="5.10" departSpeed="0.00" departDelay="0.00" arrival="57782.00" arrivalLane="-315358254#1_1" arrivalPos="137.16" arrivalSpeed="14.85" duration="113.00" routeLength="659.33" waitingTime="30.00" waitingCount="2" stopTime="0.00" timeLoss="48.82" rerouteNo="1" devices="tripinfo_h5979c1:5 routing_h5979c1:5 emissions_h5979c1:5" vType="default_016" speedFactor="1.14" vaporized="">
        <emissions CO_abs="7579.999857" CO2_abs="250378.610457" HC_abs="40.343233" PMx_abs="4.903268" NOx_abs="106.434415" fuel_abs="107.629408" electricity_abs="0"/>
    </tripinfo>
    <tripinfo id="carIn27009:1" depart="57673.00" departLane="-447569998#1_1" departPos="5.10" departSpeed="0.00" departDelay="0.50" arrival="57790.00" arrivalLane="-26677539_1" arrivalPos="152.75" arrivalSpeed="6.95" duration="117.00" routeLength="699.63" waitingTime="12.00" waitingCount="1" stopTime="0.00" timeLoss="25.70" rerouteNo="1" devices="tripinfo_carIn27009:1 routing_carIn27009:1 emissions_carIn27009:1" vType="default_015" speedFactor="0.92" vaporized="">
        <emissions CO_abs="5423.013706" CO2_abs="208705.195793" HC_abs="29.462474" PMx_abs="3.430513" NOx_abs="85.124635" fuel_abs="89.715571" electricity_abs="0"/>
    </tripinfo>
    <tripinfo id="h330c1:1" depart="57736.00" departLane="-32978638#0_1" departPos="5.10" departSpeed="0.00" departDelay="0.20" arrival="57794.00" arrivalLane="-266565295#5_1" arrivalPos="172.76" arrivalSpeed="13.94" duration="58.00" routeLength="370.53" waitingTime="22.00" waitingCount="1" stopTime="0.00" timeLoss="31.79" rerouteNo="1" devices="tripinfo_h330c1:1 routing_h330c1:1 emissions_h330c1:1" vType="default_016" speedFactor="1.07" vaporized="">
        <emissions CO_abs="4968.305581" CO2_abs="174096.758909" HC_abs="26.733966" PMx_abs="3.525149" NOx_abs="74.079900" fuel_abs="74.838024" electricity_abs="0"/>
    </tripinfo>
    <tripinfo id="carIn107282:1" depart="57749.00" departLane="-447569998#1_1" departPos="5.10" departSpeed="0.00" departDelay="0.00" arrival="57800.00" arrivalLane="315358242#0_1" arrivalPos="165.37" arrivalSpeed="12.04" duration="51.00" routeLength="448.50" waitingTime="0.00" waitingCount="0" stopTime="0.00" timeLoss="5.40" rerouteNo="1" devices="tripinfo_carIn107282:1 routing_carIn107282:1 emissions_carIn107282:1" vType="default_016" speedFactor="0.92" vaporized="">
        <emissions CO_abs="1857.293969" CO2_abs="103646.514044" HC_abs="10.850496" PMx_abs="1.664282" NOx_abs="41.551704" fuel_abs="44.553657" electricity_abs="0"/>
    </tripinfo>
    <tripinfo id="carIn48184:1" depart="57613.00" departLane="-306240162#1_0" departPos="5.10" departSpeed="0.00" departDelay="0.70" arrival="57803.00" arrivalLane="386687235_1" arrivalPos="80.84" arrivalSpeed="15.01" duration="190.00" routeLength="2257.41" waitingTime="23.00" waitingCount="2" stopTime="0.00" timeLoss="54.47" rerouteNo="1" devices="tripinfo_carIn48184:1 routing_carIn48184:1 emissions_carIn48184:1" vType="default_016" speedFactor="1.10" vaporized="">
        <emissions CO_abs="10320.259754" CO2_abs="600964.533283" HC_abs="61.095203" PMx_abs="11.421720" NOx_abs="245.817137" fuel_abs="258.329127" electricity_abs="0"/>
    </tripinfo>
    <tripinfo id="carIn82220:1" depart="57619.00" departLane="-306240162#1_0" departPos="5.10" departSpeed="0.00" departDelay="3.50" arrival="57808.00" arrivalLane="386687235_1" arrivalPos="80.84" arrivalSpeed="13.63" duration="189.00" routeLength="2257.41" waitingTime="14.00" waitingCount="2" stopTime="0.00" timeLoss="43.20" rerouteNo="1" devices="tripinfo_carIn82220:1 routing_carIn82220:1 emissions_carIn82220:1" vType="default_016" speedFactor="1.02" vaporized="">
        <emissions CO_abs="8113.620182" CO2_abs="528001.888141" HC_abs="49.322157" PMx_abs="9.378433" NOx_abs="212.530390" fuel_abs="226.965707" electricity_abs="0"/>
    </tripinfo>
    <tripinfo id="h3154c1:1" depart="57658.00" departLane="24634507_1" departPos="5.10" departSpeed="0.00" departDelay="0.00" arrival="57817.00" arrivalLane="-266565295#5_1" arrivalPos="172.76" arrivalSpeed="12.77" duration="159.00" routeLength="1206.22" waitingTime="50.00" waitingCount="2" stopTime="0.00" timeLoss="70.44" rerouteNo="1" devices="tripinfo_h3154c1:1 routing_h3154c1:1 emissions_h3154c1:1" vType="default_016" speedFactor="1.01" vaporized="">
        <emissions CO_abs="11148.365368" CO2_abs="408607.827788" HC_abs="60.361647" PMx_abs="7.992270" NOx_abs="171.780741" fuel_abs="175.646034" electricity_abs="0"/>
    </tripinfo>
    <tripinfo id="carIn12858:1" depart="57661.00" departLane="128361109#1_1" departPos="5.10" departSpeed="0.00" departDelay="0.90" arrival="57826.00" arrivalLane="399835085#1_1" arrivalPos="212.23" arrivalSpeed="6.94" duration="165.00" routeLength="1738.12" waitingTime="10.00" waitingCount="3" stopTime="0.00" timeLoss="45.62" rerouteNo="1" devices="tripinfo_carIn12858:1 routing_carIn12858:1 emissions_carIn12858:1" vType="default_016" speedFactor="0.96" vaporized="">
        <emissions CO_abs="7925.421464" CO2_abs="487584.438763" HC_abs="47.709028" PMx_abs="9.321805" NOx_abs="201.808183" fuel_abs="209.591198" electricity_abs="0"/>
    </tripinfo>
    <tripinfo id="carIn126288:1" depart="57674.00" departLane="272042143_1" departPos="5.10" departSpeed="0.00" departDelay="0.00" arrival="57827.00" arrivalLane="-315358254#1_1" arrivalPos="137.16" arrivalSpeed="13.96" duration="153.00" routeLength="1596.88" waitingTime="24.00" waitingCount="2" stopTime="0.00" timeLoss="42.90" rerouteNo="1" devices="tripinfo_carIn126288:1 routing_carIn126288:1 emissions_carIn126288:1" vType="default_016" speedFactor="1.06" vaporized="">
        <emissions CO_abs="6895.833906" CO2_abs="400076.552343" HC_abs="40.638820" PMx_abs="6.932979" NOx_abs="160.695694" fuel_abs="171.976819" electricity_abs="0"/>
    </tripinfo>
    <tripinfo id="carIn12152:1" depart="57647.00" departLane="24599188#0.94_1" departPos="5.10" departSpeed="0.00" departDelay="0.50" arrival="57828.00" arrivalLane="-315358254#1_1" arrivalPos="137.16" arrivalSpeed="16.37" duration="181.00" routeLength="2034.31" waitingTime="19.00" waitingCount="3" stopTime="0.00" timeLoss="48.63" rerouteNo="1" devices="tripinfo_carIn12152:1 routing_carIn12152:1 emissions_carIn12152:1" vType="default_016" speedFactor="1.20" vaporized="">
        <emissions CO_abs="8219.154884" CO2_abs="494632.434793" HC_abs="48.979373" PMx_abs="9.083832" NOx_abs="201.956996" fuel_abs="212.621553" electricity_abs="0"/>
    </tripinfo>
    <tripinfo id="carIn118591:1" depart="57689.00" departLane="315358244_1" departPos="5.10" departSpeed="0.00" departDelay="0.20" arrival="57829.00" arrivalLane="386687235_1" arrivalPos="80.84" arrivalSpeed="15.99" duration="140.00" routeLength="1186.14" waitingTime="37.00" waitingCount="4" stopTime="0.00" timeLoss="65.83" rerouteNo="1" devices="tripinfo_carIn118591:1 routing_carIn118591:1 emissions_carIn118591:1" vType="default_016" speedFactor="1.17" vaporized="">
        <emissions CO_abs="7999.760257" CO2_abs="354026.098789" HC_abs="44.711024" PMx_abs="6.847364" NOx_abs="147.394355" fuel_abs="152.182062" electricity_abs="0"/>
    </tripinfo>
    <tripinfo id="carIn12775:1" depart="57676.00" departLane="10425609#0_1" departPos="5.10" departSpeed="0.00" departDelay="0.60" arrival="57832.00" arrivalLane="18809673#0_1" arrivalPos="473.56" arrivalSpeed="13.57" duration="156.00" routeLength="1959.45" waitingTime="0.00" waitingCount="0" stopTime="0.00" timeLoss="13.17" rerouteNo="1" devices="tripinfo_carIn12775:1 routing_carIn12775:1 emissions_carIn12775:1" vType="default_016" speedFactor="1.02" vaporized="">
        <emissions CO_abs="4073.027148" CO2_abs="358388.623904" HC_abs="26.927328" PMx_abs="5.762577" NOx_abs="140.812623" fuel_abs="154.055788" electricity_abs="0"/>
    </tripinfo>
    <tripinfo id="carIn129809:1" depart="57729.00" departLane="-447569998#1_1" departPos="5.10" departSpeed="0.00" departDelay="1.00" arrival="57834.00" arrivalLane="-315358244_1" arrivalPos="33.95" arrivalSpeed="11.95" duration="105.00" routeLength="706.49" waitingTime="23.00" waitingCount="2" stopTime="0.00" timeLoss="39.50" rerouteNo="1" devices="tripinfo_carIn129809:1 routing_carIn129809:1 emissions_carIn129809:1" vType="default_015" speedFactor="0.92" vaporized="">
        <emissions CO_abs="5750.825646" CO2_abs="223816.710955" HC_abs="31.391227" PMx_abs="4.055673" NOx_abs="92.657281" fuel_abs="96.211000" electricity_abs="0"/>
    </tripinfo>
    <tripinfo id="h16072c2:3" depart="57663.00" departLane="315358254#0_1" departPos="5.10" departSpeed="0.00" departDelay="2.50" arrival="57840.00" arrivalLane="386687235_1" arrivalPos="80.84" arrivalSpeed="13.66" duration="177.00" routeLength="1611.92" waitingTime="24.00" waitingCount="2" stopTime="0.00" timeLoss="60.78" rerouteNo="1" devices="tripinfo_h16072c2:3 routing_h16072c2:3 emissions_h16072c2:3" vType="default_016" speedFactor="1.01" vaporized="">
        <emissions CO_abs="8496.658374" CO2_abs="423859.195668" HC_abs="48.605806" PMx_abs="7.649665" NOx_abs="174.123445" fuel_abs="182.200402" electricity_abs="0"/>
    </tripinfo>
    <tripinfo id="carIn50326:1" depart="57651.00" departLane="128361102#0_1" departPos="5.10" departSpeed="0.00" departDelay="0.30" arrival="57845.00" arrivalLane="18809673#0_1" arrivalPos="473.56" arrivalSpeed="12.93" duration="194.00" routeLength="1591.07" waitingTime="31.00" waitingCount="2" stopTime="0.00" timeLoss="55.83" rerouteNo="1" devices="tripinfo_carIn50326:1 routing_carIn50326:1 emissions_carIn50326:1" vType="default_016" speedFactor="0.94" vaporized="">
        <emissions CO_abs="9656.473156" CO2_abs="429109.744661" HC_abs="53.927423" PMx_abs="7.368403" NOx_abs="174.058230" fuel_abs="184.458866" electricity_abs="0"/>
    </tripinfo>
    <tripinfo id="carIn462:1" depart="57622.00" departLane="-306240162#1_0" departPos="5.10" departSpeed="0.00" departDelay="4.80" arrival="57846.00" arrivalLane="386687235_1" arrivalPos="80.84" arrivalSpeed="11.29" duration="224.00" routeLength="2257.41" waitingTime="25.00" waitingCount="2" stopTime="0.00" timeLoss="48.91" rerouteNo="1" devices="tripinfo_carIn462:1 routing_carIn462:1 emissions_carIn462:1" vType="default_016" speedFactor="0.85" vaporized="">
        <emissions CO_abs="9288.719898" CO2_abs="527048.512571" HC_abs="54.479773" PMx_abs="8.866077" NOx_abs="210.927015" fuel_abs="226.557458" electricity_abs="0"/>
    </tripinfo>
    <tripinfo id="carIn102915:1" depart="57643.00" departLane="128361102#0_1" departPos="5.10" departSpeed="0.00" departDelay="0.40" arrival="57849.00" arrivalLane="201956811#0_1" arrivalPos="40.40" arrivalSpeed="14.24" duration="206.00" routeLength="2067.33" waitingTime="36.00" waitingCount="1" stopTime="0.00" timeLoss="63.04" rerouteNo="1" devices="tripinfo_carIn102915:1 routing_carIn102915:1 emissions_carIn102915:1" vType="default_016" speedFactor="1.06" vaporized="">
        <emissions CO_abs="11420.254942" CO2_abs="566974.532542" HC_abs="65.258479" PMx_abs="10.262273" NOx_abs="231.260291" fuel_abs="243.720244" electricity_abs="0"/>
    </tripinfo>
    <tripinfo id="randUni33724:1" depart="57646.00" departLane="128361102#0_1" departPos="5.10" departSpeed="0.00" departDelay="1.20" arrival="57850.00" arrivalLane="201956811#0_1" arrivalPos="40.40" arrivalSpeed="15.36" duration="204.00" routeLength="2067.33" waitingTime="34.00" waitingCount="1" stopTime="0.00" timeLoss="73.18" rerouteNo="1" devices="tripinfo_randUni33724:1 routing_randUni33724:1 emissions_randUni33724:1" vType="random_016" speedFactor="1.16" vaporized="">
        <emissions CO_abs="12099.710934" CO2_abs="620867.283150" HC_abs="69.758475" PMx_abs="11.740767" NOx_abs="256.753444" fuel_abs="266.885501" electricity_abs="0"/>
    </tripinfo>
    <tripinfo id="h17600c1:1" depart="57662.00" departLane="272042143_1" departPos="5.10" departSpeed="0.00" departDelay="0.30" arrival="57872.00" arrivalLane="201238729#3_1" arrivalPos="431.02" arrivalSpeed="13.74" duration="210.00" routeLength="2100.26" waitingTime="41.00" waitingCount="1" stopTime="0.00" timeLoss="57.73" rerouteNo="1" devices="tripinfo_h17600c1:1 routing_h17600c1:1 emissions_h17600c1:1" vType="default_016" speedFactor="1.00" vaporized="">
        <emissions CO_abs="10169.394781" CO2_abs="490657.557278" HC_abs="57.681718" PMx_abs="8.488911" NOx_abs="197.217569" fuel_abs="210.915433" electricity_abs="0"/>
    </tripinfo>
    <tripinfo id="h7097c1:1" depart="57670.00" departLane="315358242#0_1" departPos="5.10" departSpeed="0.00" departDelay="0.60" arrival="57872.00" arrivalLane="306240162#0_0" arrivalPos="220.43" arrivalSpeed="16.32" duration="202.00" routeLength="2586.94" waitingTime="14.00" waitingCount="1" stopTime="0.00" timeLoss="35.30" rerouteNo="1" devices="tripinfo_h7097c1:1 routing_h7097c1:1 emissions_h7097c1:1" vType="default_016" speedFactor="1.04" vaporized="">
        <emissions CO_abs="8091.963520" CO2_abs="587874.456632" HC_abs="50.565361" PMx_abs="10.515840" NOx_abs="236.330564" fuel_abs="252.701535" electricity_abs="0"/>
    </tripinfo>
    <tripinfo id="carIn8642:1" depart="57774.00" departLane="-447569998#1_1" departPos="5.10" departSpeed="0.00" departDelay="0.90" arrival="57873.00" arrivalLane="-315358244_1" arrivalPos="33.95" arrivalSpeed="16.96" duration="99.00" routeLength="706.49" waitingTime="33.00" waitingCount="2" stopTime="0.00" timeLoss="49.64" rerouteNo="1" devices="tripinfo_carIn8642:1 routing_carIn8642:1 emissions_carIn8642:1" vType="default_016" speedFactor="1.23" vaporized="">
        <emissions CO_abs="7563.751719" CO2_abs="280229.282009" HC_abs="41.030689" PMx_abs="5.630346" NOx_abs="118.558517" fuel_abs="120.460363" electricity_abs="0"/>
    </tripinfo>
    <tripinfo id="carIn53503:1" depart="57765.00" departLane="-306240162#1_0" departPos="5.10" departSpeed="0.00" departDelay="4.40" arrival="57875.00" arrivalLane="24634510#6_1" arrivalPos="76.64" arrivalSpeed="14.30" duration="110.00" routeLength="1440.47" waitingTime="0.00" waitingCount="0" stopTime="0.00" timeLoss="18.08" rerouteNo="1" devices="tripinfo_carIn53503:1 routing_carIn53503:1 emissions_carIn53503:1" vType="default_016" speedFactor="1.08" vaporized="">
        <emissions CO_abs="4134.078497" CO2_abs="335229.853583" HC_abs="26.601507" PMx_abs="5.846106" NOx_abs="134.587645" fuel_abs="144.100395" electricity_abs="0"/>
    </tripinfo>
    <tripinfo id="randUni15030:1" depart="57735.00" departLane="386687232#0_1" departPos="5.10" departSpeed="0.00" departDelay="0.10" arrival="57879.00" arrivalLane="26677539_1" arrivalPos="151.98" arrivalSpeed="8.22" duration="144.00" routeLength="919.89" waitingTime="46.00" waitingCount="1" stopTime="0.00" timeLoss="60.84" rerouteNo="1" devices="tripinfo_randUni15030:1 routing_randUni15030:1 emissions_randUni15030:1" vType="random_016" speedFactor="1.00" vaporized="">
        <emissions CO_abs="10542.425454" CO2_abs="321363.959963" HC_abs="55.492621" PMx_abs="6.302008" NOx_abs="135.935960" fuel_abs="138.144403" electricity_abs="0"/>
    </tripinfo>
    <tripinfo id="randUni14624:1" depart="57606.00" departLane="315358244_1" departPos="5.10" departSpeed="0.00" departDelay="0.80" arrival="57880.00" arrivalLane="-25149001#4_1" arrivalPos="105.67" arrivalSpeed="7.82" duration="274.00" routeLength="2803.98" waitingTime="28.00" waitingCount="2" stopTime="0.00" timeLoss="61.05" rerouteNo="1" devices="tripinfo_randUni14624:1 routing_randUni14624:1 emissions_randUni14624:1" vType="random_016" speedFactor="0.99" vaporized="">
        <emissions CO_abs="10854.976169" CO2_abs="655149.404677" HC_abs="64.480267" PMx_abs="10.579790" NOx_abs="258.857713" fuel_abs="281.623127" electricity_abs="0"/>
    </tripinfo>