<?xml version="1.0" encoding="UTF-8"?>

<!-- generated on 2021-10-26 19:33:19 by Eclipse SUMO sumo Version 1.10.0
<configuration xmlns:xsi="http://www.w3.org/2001/XMLSchema-instance" xsi:noNamespaceSchemaLocation="http://sumo.dlr.de/xsd/sumoConfiguration.xsd">

    <input>
        <net-file value="/Users/behradkoohy/sumo-scratchpad/RESCO/environments/ingolstadt21/ingolstadt21.net.xml"/>
        <route-files value="/Users/behradkoohy/sumo-scratchpad/RESCO/environments/ingolstadt21/ingolstadt21.rou.xml"/>
    </input>

    <output>
        <tripinfo-output value="/Users/behradkoohy/sumo-scratchpad/RESCO/logs/MPLight-tr0-ingolstadt21-21-mplight-pressure/tripinfo_31.xml"/>
        <tripinfo-output.write-unfinished value="true"/>
    </output>

    <time>
        <begin value="57600"/>
        <end value="61200"/>
    </time>

    <processing>
        <time-to-teleport value="-1"/>
    </processing>

    <report>
        <no-warnings value="true"/>
        <no-step-log value="true"/>
    </report>

    <emissions>
        <device.emissions.probability value="1"/>
    </emissions>

    <traci_server>
        <remote-port value="63569"/>
    </traci_server>

    <random_number>
        <random value="true"/>
    </random_number>

</configuration>
-->

<tripinfos xmlns:xsi="http://www.w3.org/2001/XMLSchema-instance" xsi:noNamespaceSchemaLocation="http://sumo.dlr.de/xsd/tripinfo_file.xsd">
    <tripinfo id="h15454c2:3" depart="57612.00" departLane="24608844_1" departPos="5.10" departSpeed="0.00" departDelay="0.50" arrival="57660.00" arrivalLane="32978638#0_1" arrivalPos="49.29" arrivalSpeed="11.69" duration="48.00" routeLength="354.79" waitingTime="0.00" waitingCount="0" stopTime="0.00" timeLoss="9.13" rerouteNo="1" devices="tripinfo_h15454c2:3 routing_h15454c2:3 emissions_h15454c2:3" vType="default_016" speedFactor="0.87" vaporized="">
        <emissions CO_abs="2056.801391" CO2_abs="95023.857531" HC_abs="11.583112" PMx_abs="1.722213" NOx_abs="39.615047" fuel_abs="40.847085" electricity_abs="0"/>
    </tripinfo>
    <tripinfo id="carIn60260:1" depart="57606.00" departLane="315358254#0_1" departPos="5.10" departSpeed="0.00" departDelay="0.90" arrival="57679.00" arrivalLane="399835085#1_1" arrivalPos="212.23" arrivalSpeed="6.21" duration="73.00" routeLength="430.98" waitingTime="9.00" waitingCount="1" stopTime="0.00" timeLoss="20.49" rerouteNo="1" devices="tripinfo_carIn60260:1 routing_carIn60260:1 emissions_carIn60260:1" vType="default_016" speedFactor="0.88" vaporized="">
        <emissions CO_abs="3675.036032" CO2_abs="135512.756829" HC_abs="19.861231" PMx_abs="2.397060" NOx_abs="56.198490" fuel_abs="58.252414" electricity_abs="0"/>
    </tripinfo>
    <tripinfo id="carIn53971:1" depart="57640.00" departLane="272042143_1" departPos="5.10" departSpeed="0.00" departDelay="0.80" arrival="57696.00" arrivalLane="24634414#1_1" arrivalPos="162.19" arrivalSpeed="6.69" duration="56.00" routeLength="493.04" waitingTime="0.00" waitingCount="0" stopTime="0.00" timeLoss="7.94" rerouteNo="1" devices="tripinfo_carIn53971:1 routing_carIn53971:1 emissions_carIn53971:1" vType="default_016" speedFactor="0.95" vaporized="">
        <emissions CO_abs="2240.313567" CO2_abs="118442.583009" HC_abs="12.964010" PMx_abs="2.073207" NOx_abs="48.701328" fuel_abs="50.913746" electricity_abs="0"/>
    </tripinfo>
    <tripinfo id="h7800c1:5" depart="57696.00" departLane="-447569998#1_1" departPos="5.10" departSpeed="0.00" departDelay="0.00" arrival="57719.00" arrivalLane="-447569998#1_1" arrivalPos="180.76" arrivalSpeed="8.70" duration="23.00" routeLength="175.66" waitingTime="0.00" waitingCount="0" stopTime="0.00" timeLoss="3.43" rerouteNo="1" devices="tripinfo_h7800c1:5 routing_h7800c1:5 emissions_h7800c1:5" vType="default_016" speedFactor="1.10" vaporized="">
        <emissions CO_abs="982.781699" CO2_abs="44330.208065" HC_abs="5.504297" PMx_abs="0.782274" NOx_abs="18.376695" fuel_abs="19.055892" electricity_abs="0"/>
    </tripinfo>
    <tripinfo id="carIn22761:1" depart="57616.00" departLane="-306240162#1_0" departPos="5.10" departSpeed="0.00" departDelay="2.10" arrival="57729.00" arrivalLane="399835085#1_1" arrivalPos="212.23" arrivalSpeed="8.29" duration="113.00" routeLength="1093.26" waitingTime="19.00" waitingCount="2" stopTime="0.00" timeLoss="44.11" rerouteNo="1" devices="tripinfo_carIn22761:1 routing_carIn22761:1 emissions_carIn22761:1" vType="default_016" speedFactor="1.14" vaporized="">
        <emissions CO_abs="7340.532059" CO2_abs="377383.508270" HC_abs="42.448866" PMx_abs="7.599314" NOx_abs="159.240400" fuel_abs="162.221031" electricity_abs="0"/>
    </tripinfo>
    <tripinfo id="h12244c1:3" depart="57612.00" departLane="315358244_1" departPos="5.10" departSpeed="0.00" departDelay="0.40" arrival="57737.00" arrivalLane="386687235_1" arrivalPos="80.84" arrivalSpeed="15.52" duration="125.00" routeLength="1186.14" waitingTime="20.00" waitingCount="2" stopTime="0.00" timeLoss="47.05" rerouteNo="1" devices="tripinfo_h12244c1:3 routing_h12244c1:3 emissions_h12244c1:3" vType="default_016" speedFactor="1.12" vaporized="">
        <emissions CO_abs="6637.163186" CO2_abs="339558.452186" HC_abs="38.168284" PMx_abs="6.320011" NOx_abs="139.959512" fuel_abs="145.962459" electricity_abs="0"/>
    </tripinfo>
    <tripinfo id="h7181c1:1" depart="57660.00" departLane="315358254#0_1" departPos="5.10" departSpeed="0.00" departDelay="0.10" arrival="57740.00" arrivalLane="306240162#0_0" arrivalPos="220.43" arrivalSpeed="15.99" duration="80.00" routeLength="932.35" waitingTime="18.00" waitingCount="1" stopTime="0.00" timeLoss="30.24" rerouteNo="1" devices="tripinfo_h7181c1:1 routing_h7181c1:1 emissions_h7181c1:1" vType="default_016" speedFactor="1.04" vaporized="">
        <emissions CO_abs="5618.445290" CO2_abs="284886.978201" HC_abs="32.337321" PMx_abs="5.705584" NOx_abs="118.096120" fuel_abs="122.461026" electricity_abs="0"/>
    </tripinfo>
    <tripinfo id="carIn121703:1" depart="57647.00" departLane="386687232#0_1" departPos="5.10" departSpeed="0.00" departDelay="0.30" arrival="57741.00" arrivalLane="-315358244_1" arrivalPos="33.95" arrivalSpeed="13.55" duration="94.00" routeLength="1157.39" waitingTime="0.00" waitingCount="0" stopTime="0.00" timeLoss="8.23" rerouteNo="1" devices="tripinfo_carIn121703:1 routing_carIn121703:1 emissions_carIn121703:1" vType="default_016" speedFactor="0.99" vaporized="">
        <emissions CO_abs="2486.491016" CO2_abs="222649.684062" HC_abs="16.454964" PMx_abs="3.413351" NOx_abs="86.376350" fuel_abs="95.707693" electricity_abs="0"/>
    </tripinfo>
    <tripinfo id="h3688c1:1" depart="57625.00" departLane="201201950#1_1" departPos="5.10" departSpeed="0.00" departDelay="0.00" arrival="57745.00" arrivalLane="32978638#0_1" arrivalPos="49.29" arrivalSpeed="12.46" duration="120.00" routeLength="1089.75" waitingTime="18.00" waitingCount="1" stopTime="0.00" timeLoss="36.52" rerouteNo="1" devices="tripinfo_h3688c1:1 routing_h3688c1:1 emissions_h3688c1:1" vType="default_016" speedFactor="0.96" vaporized="">
        <emissions CO_abs="6460.984304" CO2_abs="309656.390190" HC_abs="36.658939" PMx_abs="5.529717" NOx_abs="126.696627" fuel_abs="133.109429" electricity_abs="0"/>
    </tripinfo>
    <tripinfo id="h3568c1:3" depart="57656.00" departLane="266565295#5_1" departPos="5.10" departSpeed="0.00" departDelay="0.80" arrival="57749.00" arrivalLane="-24634415_1" arrivalPos="62.03" arrivalSpeed="13.57" duration="93.00" routeLength="807.40" waitingTime="13.00" waitingCount="1" stopTime="0.00" timeLoss="31.43" rerouteNo="1" devices="tripinfo_h3568c1:3 routing_h3568c1:3 emissions_h3568c1:3" vType="default_016" speedFactor="1.05" vaporized="">
        <emissions CO_abs="5495.356048" CO2_abs="275873.178213" HC_abs="31.490597" PMx_abs="5.058372" NOx_abs="113.852226" fuel_abs="118.586879" electricity_abs="0"/>
    </tripinfo>
    <tripinfo id="h5979c1:5" depart="57669.00" departLane="399835085#1_1" departPos="5.10" departSpeed="0.00" departDelay="0.00" arrival="57752.00" arrivalLane="-315358254#1_1" arrivalPos="137.16" arrivalSpeed="14.07" duration="83.00" routeLength="659.33" waitingTime="0.00" waitingCount="0" stopTime="0.00" timeLoss="10.48" rerouteNo="1" devices="tripinfo_h5979c1:5 routing_h5979c1:5 emissions_h5979c1:5" vType="default_016" speedFactor="1.02" vaporized="">
        <emissions CO_abs="3325.435064" CO2_abs="174235.209295" HC_abs="19.151534" PMx_abs="2.791493" NOx_abs="70.015244" fuel_abs="74.897188" electricity_abs="0"/>
    </tripinfo>
    <tripinfo id="h317c2:1" depart="57707.00" departLane="-32978638#0_1" departPos="5.10" departSpeed="0.00" departDelay="0.10" arrival="57754.00" arrivalLane="-266565295#5_1" arrivalPos="172.76" arrivalSpeed="13.26" duration="47.00" routeLength="370.53" waitingTime="10.00" waitingCount="1" stopTime="0.00" timeLoss="20.11" rerouteNo="1" devices="tripinfo_h317c2:1 routing_h317c2:1 emissions_h317c2:1" vType="default_016" speedFactor="1.02" vaporized="">
        <emissions CO_abs="2525.122179" CO2_abs="128456.767547" HC_abs="14.528075" PMx_abs="2.414173" NOx_abs="53.448092" fuel_abs="55.218319" electricity_abs="0"/>
    </tripinfo>
    <tripinfo id="h9563c2:5" depart="57631.00" departLane="315358244_1" departPos="5.10" departSpeed="0.00" departDelay="0.70" arrival="57757.00" arrivalLane="386687235_1" arrivalPos="80.84" arrivalSpeed="15.05" duration="126.00" routeLength="1186.14" waitingTime="20.00" waitingCount="4" stopTime="0.00" timeLoss="50.97" rerouteNo="1" devices="tripinfo_h9563c2:5 routing_h9563c2:5 emissions_h9563c2:5" vType="default_016" speedFactor="1.15" vaporized="">
        <emissions CO_abs="6160.092041" CO2_abs="339196.024121" HC_abs="35.932187" PMx_abs="6.255768" NOx_abs="138.999425" fuel_abs="145.806385" electricity_abs="0"/>
    </tripinfo>
    <tripinfo id="carIn27009:1" depart="57673.00" departLane="-447569998#1_1" departPos="5.10" departSpeed="0.00" departDelay="0.50" arrival="57764.00" arrivalLane="-26677539_1" arrivalPos="152.75" arrivalSpeed="9.14" duration="91.00" routeLength="699.63" waitingTime="6.00" waitingCount="1" stopTime="0.00" timeLoss="19.29" rerouteNo="1" devices="tripinfo_carIn27009:1 routing_carIn27009:1 emissions_carIn27009:1" vType="default_015" speedFactor="1.17" vaporized="">
        <emissions CO_abs="3778.979741" CO2_abs="193017.986906" HC_abs="21.672803" PMx_abs="3.225358" NOx_abs="78.611016" fuel_abs="82.971060" electricity_abs="0"/>
    </tripinfo>
    <tripinfo id="S5R_frequency1.2" depart="57624.00" departLane="315358250#0_1" departPos="12.10" departSpeed="0.00" departDelay="12.40" arrival="57780.00" arrivalLane="386687235_1" arrivalPos="80.84" arrivalSpeed="13.46" duration="156.00" routeLength="1115.62" waitingTime="39.00" waitingCount="3" stopTime="0.00" timeLoss="73.96" rerouteNo="1" devices="tripinfo_S5R_frequency1.2 routing_S5R_frequency1.2 emissions_S5R_frequency1.2" vType="bus" speedFactor="1.00" vaporized="">
        <emissions CO_abs="3075.045567" CO2_abs="1651537.911556" HC_abs="665.777803" PMx_abs="323.488594" NOx_abs="13559.525013" fuel_abs="704.271400" electricity_abs="0"/>
    </tripinfo>
    <tripinfo id="h3154c1:1" depart="57658.00" departLane="24634507_1" departPos="5.10" departSpeed="0.00" departDelay="0.00" arrival="57781.00" arrivalLane="-266565295#5_1" arrivalPos="172.76" arrivalSpeed="13.56" duration="123.00" routeLength="1206.22" waitingTime="19.00" waitingCount="1" stopTime="0.00" timeLoss="34.91" rerouteNo="1" devices="tripinfo_h3154c1:1 routing_h3154c1:1 emissions_h3154c1:1" vType="default_016" speedFactor="1.01" vaporized="">
        <emissions CO_abs="6405.336810" CO2_abs="316088.162448" HC_abs="36.549072" PMx_abs="5.761823" NOx_abs="129.799201" fuel_abs="135.873883" electricity_abs="0"/>
    </tripinfo>
    <tripinfo id="h330c1:1" depart="57736.00" departLane="-32978638#0_1" departPos="5.10" departSpeed="0.00" departDelay="0.20" arrival="57786.00" arrivalLane="-266565295#5_1" arrivalPos="172.76" arrivalSpeed="13.15" duration="50.00" routeLength="370.53" waitingTime="12.00" waitingCount="1" stopTime="0.00" timeLoss="21.19" rerouteNo="1" devices="tripinfo_h330c1:1 routing_h330c1:1 emissions_h330c1:1" vType="default_016" speedFactor="0.97" vaporized="">
        <emissions CO_abs="3297.548266" CO2_abs="130352.028177" HC_abs="18.088822" PMx_abs="2.566153" NOx_abs="55.207152" fuel_abs="56.033443" electricity_abs="0"/>
    </tripinfo>
    <tripinfo id="carIn30817:1" depart="57681.00" departLane="315358244_1" departPos="5.10" departSpeed="0.00" departDelay="0.20" arrival="57791.00" arrivalLane="447569997#1_1" arrivalPos="180.93" arrivalSpeed="6.32" duration="110.00" routeLength="718.04" waitingTime="29.00" waitingCount="1" stopTime="0.00" timeLoss="42.47" rerouteNo="1" devices="tripinfo_carIn30817:1 routing_carIn30817:1 emissions_carIn30817:1" vType="default_016" speedFactor="0.91" vaporized="">
        <emissions CO_abs="6831.635601" CO2_abs="232049.195119" HC_abs="36.495866" PMx_abs="4.293753" NOx_abs="96.562599" fuel_abs="99.750473" electricity_abs="0"/>
    </tripinfo>
    <tripinfo id="h645c1:1" depart="57622.00" departLane="266565295#5_1" departPos="5.10" departSpeed="0.00" departDelay="0.40" arrival="57793.00" arrivalLane="-315358244_1" arrivalPos="33.95" arrivalSpeed="14.16" duration="171.00" routeLength="1910.83" waitingTime="25.00" waitingCount="1" stopTime="0.00" timeLoss="41.63" rerouteNo="1" devices="tripinfo_h645c1:1 routing_h645c1:1 emissions_h645c1:1" vType="default_016" speedFactor="1.07" vaporized="">
        <emissions CO_abs="7338.520534" CO2_abs="399646.072758" HC_abs="42.718633" PMx_abs="6.901871" NOx_abs="159.827241" fuel_abs="171.792267" electricity_abs="0"/>
    </tripinfo>
    <tripinfo id="carIn107282:1" depart="57749.00" departLane="-447569998#1_1" departPos="5.10" departSpeed="0.00" departDelay="0.00" arrival="57793.00" arrivalLane="315358242#0_1" arrivalPos="165.37" arrivalSpeed="16.86" duration="44.00" routeLength="448.50" waitingTime="0.00" waitingCount="0" stopTime="0.00" timeLoss="9.89" rerouteNo="1" devices="tripinfo_carIn107282:1 routing_carIn107282:1 emissions_carIn107282:1" vType="default_016" speedFactor="1.24" vaporized="">
        <emissions CO_abs="2319.725065" CO2_abs="141724.155510" HC_abs="13.762921" PMx_abs="2.558314" NOx_abs="57.811321" fuel_abs="60.921212" electricity_abs="0"/>
    </tripinfo>
    <tripinfo id="carIn12365:1" depart="57713.00" departLane="315358244_1" departPos="5.10" departSpeed="0.00" departDelay="0.50" arrival="57794.00" arrivalLane="447569997#1_1" arrivalPos="180.93" arrivalSpeed="6.92" duration="81.00" routeLength="718.04" waitingTime="1.00" waitingCount="1" stopTime="0.00" timeLoss="13.37" rerouteNo="1" devices="tripinfo_carIn12365:1 routing_carIn12365:1 emissions_carIn12365:1" vType="default_016" speedFactor="0.91" vaporized="">
        <emissions CO_abs="3305.317820" CO2_abs="183084.298559" HC_abs="19.291023" PMx_abs="3.009027" NOx_abs="73.842042" fuel_abs="78.700826" electricity_abs="0"/>
    </tripinfo>
    <tripinfo id="carIn28951:1" depart="57606.00" departLane="10425609#0_1" departPos="5.10" departSpeed="0.00" departDelay="0.20" arrival="57796.00" arrivalLane="-128361102#1_1" arrivalPos="274.68" arrivalSpeed="12.62" duration="190.00" routeLength="2113.04" waitingTime="5.00" waitingCount="1" stopTime="0.00" timeLoss="30.42" rerouteNo="1" devices="tripinfo_carIn28951:1 routing_carIn28951:1 emissions_carIn28951:1" vType="default_016" speedFactor="0.98" vaporized="">
        <emissions CO_abs="5702.777874" CO2_abs="435210.869400" HC_abs="36.113132" PMx_abs="7.156106" NOx_abs="173.247829" fuel_abs="187.078627" electricity_abs="0"/>
    </tripinfo>
    <tripinfo id="h17600c1:1" depart="57662.00" departLane="272042143_1" departPos="5.10" departSpeed="0.00" departDelay="0.30" arrival="57801.00" arrivalLane="201238729#3_1" arrivalPos="431.02" arrivalSpeed="15.46" duration="139.00" routeLength="2100.26" waitingTime="0.00" waitingCount="0" stopTime="0.00" timeLoss="10.99" rerouteNo="1" devices="tripinfo_h17600c1:1 routing_h17600c1:1 emissions_h17600c1:1" vType="default_016" speedFactor="1.18" vaporized="">
        <emissions CO_abs="3456.406978" CO2_abs="368821.807512" HC_abs="24.105978" PMx_abs="5.991129" NOx_abs="142.493084" fuel_abs="158.540071" electricity_abs="0"/>
    </tripinfo>
    <tripinfo id="carIn86816:1" depart="57617.00" departLane="128361102#0_1" departPos="5.10" departSpeed="0.00" departDelay="0.80" arrival="57805.00" arrivalLane="201956811#0_1" arrivalPos="40.40" arrivalSpeed="14.37" duration="188.00" routeLength="2067.33" waitingTime="13.00" waitingCount="2" stopTime="0.00" timeLoss="43.72" rerouteNo="1" devices="tripinfo_carIn86816:1 routing_carIn86816:1 emissions_carIn86816:1" vType="default_016" speedFactor="1.05" vaporized="">
        <emissions CO_abs="7922.246037" CO2_abs="491594.174674" HC_abs="47.520076" PMx_abs="8.641960" NOx_abs="199.191111" fuel_abs="211.315820" electricity_abs="0"/>
    </tripinfo>
    <tripinfo id="h3326c1:2" depart="57656.00" departLane="22716069#0_1" departPos="5.10" departSpeed="0.00" departDelay="0.00" arrival="57809.00" arrivalLane="24634517#13_1" arrivalPos="111.62" arrivalSpeed="9.49" duration="153.00" routeLength="1312.81" waitingTime="6.00" waitingCount="1" stopTime="0.00" timeLoss="24.19" rerouteNo="1" devices="tripinfo_h3326c1:2 routing_h3326c1:2 emissions_h3326c1:2" vType="default_016" speedFactor="0.76" vaporized="">
        <emissions CO_abs="5079.399694" CO2_abs="293825.309674" HC_abs="29.908680" PMx_abs="4.675354" NOx_abs="117.687342" fuel_abs="126.304108" electricity_abs="0"/>
    </tripinfo>
    <tripinfo id="carIn107084:1" depart="57601.00" departLane="124812856#0_1" departPos="5.10" departSpeed="0.00" departDelay="0.70" arrival="57811.00" arrivalLane="-128361102#1_1" arrivalPos="274.68" arrivalSpeed="13.62" duration="210.00" routeLength="2250.49" waitingTime="20.00" waitingCount="2" stopTime="0.00" timeLoss="47.83" rerouteNo="1" devices="tripinfo_carIn107084:1 routing_carIn107084:1 emissions_carIn107084:1" vType="default_016" speedFactor="1.02" vaporized="">
        <emissions CO_abs="8054.788291" CO2_abs="537482.063742" HC_abs="49.176638" PMx_abs="9.090584" NOx_abs="215.016037" fuel_abs="231.041189" electricity_abs="0"/>
    </tripinfo>
    <tripinfo id="carIn77943:1" depart="57608.00" departLane="124812856#0_1" departPos="5.10" departSpeed="0.00" departDelay="2.50" arrival="57813.00" arrivalLane="-128361102#1_1" arrivalPos="274.68" arrivalSpeed="13.76" duration="205.00" routeLength="2250.49" waitingTime="14.00" waitingCount="2" stopTime="0.00" timeLoss="51.32" rerouteNo="1" devices="tripinfo_carIn77943:1 routing_carIn77943:1 emissions_carIn77943:1" vType="default_016" speedFactor="1.07" vaporized="">
        <emissions CO_abs="8071.630008" CO2_abs="536862.133106" HC_abs="49.368903" PMx_abs="9.673592" NOx_abs="219.370756" fuel_abs="230.773747" electricity_abs="0"/>
    </tripinfo>
    <tripinfo id="h11737c1:1" depart="57665.00" departLane="272042143_1" departPos="5.10" departSpeed="0.00" departDelay="1.50" arrival="57813.00" arrivalLane="-315358254#1_1" arrivalPos="137.16" arrivalSpeed="11.20" duration="148.00" routeLength="1596.88" waitingTime="0.00" waitingCount="0" stopTime="0.00" timeLoss="13.03" rerouteNo="1" devices="tripinfo_h11737c1:1 routing_h11737c1:1 emissions_h11737c1:1" vType="default_016" speedFactor="0.86" vaporized="">
        <emissions CO_abs="3836.228387" CO2_abs="310208.521592" HC_abs="24.613122" PMx_abs="4.510597" NOx_abs="120.005252" fuel_abs="133.346115" electricity_abs="0"/>
    </tripinfo>
    <tripinfo id="carIn12858:1" depart="57661.00" departLane="128361109#1_1" departPos="5.10" departSpeed="0.00" departDelay="0.90" arrival="57822.00" arrivalLane="399835085#1_1" arrivalPos="212.23" arrivalSpeed="8.31" duration="161.00" routeLength="1738.12" waitingTime="24.00" waitingCount="1" stopTime="0.00" timeLoss="51.36" rerouteNo="1" devices="tripinfo_carIn12858:1 routing_carIn12858:1 emissions_carIn12858:1" vType="default_016" speedFactor="1.05" vaporized="">
        <emissions CO_abs="9904.290288" CO2_abs="527784.560529" HC_abs="57.700301" PMx_abs="10.313166" NOx_abs="218.635709" fuel_abs="226.872395" electricity_abs="0"/>
    </tripinfo>
    <tripinfo id="carIn80064:1" depart="57603.00" departLane="128361109#1_1" departPos="5.10" departSpeed="0.00" departDelay="0.40" arrival="57824.00" arrivalLane="-315358254#1_1" arrivalPos="137.16" arrivalSpeed="12.41" duration="221.00" routeLength="1587.97" waitingTime="89.00" waitingCount="3" stopTime="0.00" timeLoss="129.77" rerouteNo="1" devices="tripinfo_carIn80064:1 routing_carIn80064:1 emissions_carIn80064:1" vType="default_016" speedFactor="0.98" vaporized="">
        <emissions CO_abs="19609.508696" CO2_abs="664327.557092" HC_abs="105.098956" PMx_abs="14.061191" NOx_abs="283.914696" fuel_abs="285.570766" electricity_abs="0"/>
    </tripinfo>
    <tripinfo id="h4538c1:1" depart="57701.00" departLane="-10427692#1_1" departPos="5.10" departSpeed="0.00" departDelay="0.00" arrival="57824.00" arrivalLane="-128361102#1_1" arrivalPos="274.68" arrivalSpeed="14.42" duration="123.00" routeLength="440.74" waitingTime="83.00" waitingCount="1" stopTime="0.00" timeLoss="92.88" rerouteNo="1" devices="tripinfo_h4538c1:1 routing_h4538c1:1 emissions_h4538c1:1" vType="default_016" speedFactor="1.05" vaporized="">
        <emissions CO_abs="14665.434848" CO2_abs="319014.061813" HC_abs="74.265493" PMx_abs="7.140671" NOx_abs="140.288690" fuel_abs="137.136536" electricity_abs="0"/>
    </tripinfo>
    <tripinfo id="50R_frequency3.17" depart="57674.00" departLane="-18809673#6_1" departPos="12.10" departSpeed="0.00" departDelay="0.70" arrival="57834.00" arrivalLane="201956811#0_1" arrivalPos="40.40" arrivalSpeed="13.85" duration="160.00" routeLength="1954.47" waitingTime="0.00" waitingCount="0" stopTime="0.00" timeLoss="15.03" rerouteNo="1" devices="tripinfo_50R_frequency3.17 routing_50R_frequency3.17 emissions_50R_frequency3.17" vType="bus" speedFactor="1.00" vaporized="">
        <emissions CO_abs="3013.293018" CO2_abs="1935579.266815" HC_abs="642.836882" PMx_abs="324.769168" NOx_abs="14876.916547" fuel_abs="825.529931" electricity_abs="0"/>
    </tripinfo>
    <tripinfo id="carIn129809:1" depart="57729.00" departLane="-447569998#1_1" departPos="5.10" departSpeed="0.00" departDelay="1.00" arrival="57834.00" arrivalLane="-315358244_1" arrivalPos="33.95" arrivalSpeed="12.14" duration="105.00" routeLength="706.49" waitingTime="21.00" waitingCount="2" stopTime="0.00" timeLoss="36.04" rerouteNo="1" devices="tripinfo_carIn129809:1 routing_carIn129809:1 emissions_carIn129809:1" vType="default_015" speedFactor="0.88" vaporized="">
        <emissions CO_abs="5330.918997" CO2_abs="219366.422186" HC_abs="29.352571" PMx_abs="3.804642" NOx_abs="89.687086" fuel_abs="94.297977" electricity_abs="0"/>
    </tripinfo>
    <tripinfo id="carIn118591:1" depart="57689.00" departLane="315358244_1" departPos="5.10" departSpeed="0.00" departDelay="0.20" arrival="57837.00" arrivalLane="386687235_1" arrivalPos="80.84" arrivalSpeed="14.47" duration="148.00" routeLength="1186.14" waitingTime="47.00" waitingCount="2" stopTime="0.00" timeLoss="68.85" rerouteNo="1" devices="tripinfo_carIn118591:1 routing_carIn118591:1 emissions_carIn118591:1" vType="default_016" speedFactor="1.10" vaporized="">
        <emissions CO_abs="10390.328117" CO2_abs="392088.409555" HC_abs="56.317376" PMx_abs="7.389139" NOx_abs="161.925682" fuel_abs="168.545167" electricity_abs="0"/>
    </tripinfo>
    <tripinfo id="randUni15030:1" depart="57735.00" departLane="386687232#0_1" departPos="5.10" departSpeed="0.00" departDelay="0.10" arrival="57837.00" arrivalLane="26677539_1" arrivalPos="151.98" arrivalSpeed="8.53" duration="102.00" routeLength="919.89" waitingTime="7.00" waitingCount="1" stopTime="0.00" timeLoss="21.19" rerouteNo="1" devices="tripinfo_randUni15030:1 routing_randUni15030:1 emissions_randUni15030:1" vType="random_016" speedFactor="1.04" vaporized="">
        <emissions CO_abs="4355.440133" CO2_abs="241525.116497" HC_abs="25.418603" PMx_abs="4.042169" NOx_abs="97.515905" fuel_abs="103.822180" electricity_abs="0"/>
    </tripinfo>
    <tripinfo id="carIn50326:1" depart="57651.00" departLane="128361102#0_1" departPos="5.10" departSpeed="0.00" departDelay="0.30" arrival="57840.00" arrivalLane="18809673#0_1" arrivalPos="473.56" arrivalSpeed="15.20" duration="189.00" routeLength="1591.07" waitingTime="49.00" waitingCount="1" stopTime="0.00" timeLoss="73.47" rerouteNo="1" devices="tripinfo_carIn50326:1 routing_carIn50326:1 emissions_carIn50326:1" vType="default_016" speedFactor="1.12" vaporized="">
        <emissions CO_abs="12174.722819" CO2_abs="486730.671521" HC_abs="66.835251" PMx_abs="9.226256" NOx_abs="201.863044" fuel_abs="209.227866" electricity_abs="0"/>
    </tripinfo>
    <tripinfo id="carIn126288:1" depart="57674.00" departLane="272042143_1" departPos="5.10" departSpeed="0.00" departDelay="0.00" arrival="57848.00" arrivalLane="-315358254#1_1" arrivalPos="137.16" arrivalSpeed="11.59" duration="174.00" routeLength="1596.88" waitingTime="26.00" waitingCount="2" stopTime="0.00" timeLoss="47.02" rerouteNo="1" devices="tripinfo_carIn126288:1 routing_carIn126288:1 emissions_carIn126288:1" vType="default_016" speedFactor="0.92" vaporized="">
        <emissions CO_abs="6979.676386" CO2_abs="377311.468386" HC_abs="40.582940" PMx_abs="6.444395" NOx_abs="152.385513" fuel_abs="162.191453" electricity_abs="0"/>
    </tripinfo>
    <tripinfo id="carIn81046:1" depart="57611.00" departLane="124812856#0_1" departPos="5.10" departSpeed="0.00" departDelay="2.50" arrival="57850.00" arrivalLane="-128361102#1_1" arrivalPos="274.68" arrivalSpeed="11.39" duration="239.00" routeLength="2250.49" waitingTime="20.00" waitingCount="2" stopTime="0.00" timeLoss="51.19" rerouteNo="1" devices="tripinfo_carIn81046:1 routing_carIn81046:1 emissions_carIn81046:1" vType="default_016" speedFactor="0.88" vaporized="">
        <emissions CO_abs="8375.544183" CO2_abs="505723.138869" HC_abs="49.901197" PMx_abs="8.356289" NOx_abs="203.010679" fuel_abs="217.390143" electricity_abs="0"/>
    </tripinfo>
    <tripinfo id="h17549c1:1" depart="57680.00" departLane="-447569998#1_1" departPos="5.10" departSpeed="0.00" departDelay="0.00" arrival="57850.00" arrivalLane="-315358254#1_1" arrivalPos="137.16" arrivalSpeed="14.67" duration="170.00" routeLength="1746.60" waitingTime="17.00" waitingCount="2" stopTime="0.00" timeLoss="40.87" rerouteNo="1" devices="tripinfo_h17549c1:1 routing_h17549c1:1 emissions_h17549c1:1" vType="default_016" speedFactor="1.06" vaporized="">
        <emissions CO_abs="6707.520118" CO2_abs="424033.490712" HC_abs="40.333857" PMx_abs="7.095140" NOx_abs="169.153883" fuel_abs="182.274774" electricity_abs="0"/>
    </tripinfo>
    <tripinfo id="carIn12152:1" depart="57647.00" departLane="24599188#0.94_1" departPos="5.10" departSpeed="0.00" departDelay="0.50" arrival="57852.00" arrivalLane="-315358254#1_1" arrivalPos="137.16" arrivalSpeed="12.45" duration="205.00" routeLength="2034.31" waitingTime="15.00" waitingCount="2" stopTime="0.00" timeLoss="41.88" rerouteNo="1" devices="tripinfo_carIn12152:1 routing_carIn12152:1 emissions_carIn12152:1" vType="default_016" speedFactor="0.97" vaporized="">
        <emissions CO_abs="7352.811205" CO2_abs="445809.163516" HC_abs="43.853993" PMx_abs="7.377538" NOx_abs="178.195770" fuel_abs="191.635564" electricity_abs="0"/>
    </tripinfo>
    <tripinfo id="h8343c1:5" depart="57679.00" departLane="315358254#0_1" departPos="5.10" departSpeed="0.00" departDelay="0.60" arrival="57854.00" arrivalLane="-24634510#5_1" arrivalPos="236.88" arrivalSpeed="15.45" duration="175.00" routeLength="2056.84" waitingTime="26.00" waitingCount="3" stopTime="0.00" timeLoss="63.59" rerouteNo="1" devices="tripinfo_h8343c1:5 routing_h8343c1:5 emissions_h8343c1:5" vType="default_016" speedFactor="1.13" vaporized="">
        <emissions CO_abs="10391.697218" CO2_abs="636959.596245" HC_abs="62.429716" PMx_abs="12.519382" NOx_abs="263.143969" fuel_abs="273.800796" electricity_abs="0"/>
    </tripinfo>
    <tripinfo id="carIn8642:1" depart="57774.00" departLane="-447569998#1_1" departPos="5.10" departSpeed="0.00" departDelay="0.90" arrival="57854.00" arrivalLane="-315358244_1" arrivalPos="33.95" arrivalSpeed="12.61" duration="80.00" routeLength="706.49" waitingTime="2.00" waitingCount="1" stopTime="0.00" timeLoss="15.52" rerouteNo="1" devices="tripinfo_carIn8642:1 routing_carIn8642:1 emissions_carIn8642:1" vType="default_016" speedFactor="0.94" vaporized="">
        <emissions CO_abs="3146.770302" CO2_abs="184890.335320" HC_abs="18.622328" PMx_abs="3.045616" NOx_abs="74.334241" fuel_abs="79.477026" electricity_abs="0"/>
    </tripinfo>
    <tripinfo id="h2831c1:1" depart="57600.00" departLane="201089423#0_1" departPos="5.10" departSpeed="0.00" departDelay="0.00" arrival="57856.00" arrivalLane="-315358244_1" arrivalPos="33.95" arrivalSpeed="14.74" duration="256.00" routeLength="2672.18" waitingTime="36.00" waitingCount="3" stopTime="0.00" timeLoss="76.46" rerouteNo="1" devices="tripinfo_h2831c1:1 routing_h2831c1:1 emissions_h2831c1:1" vType="default_016" speedFactor="1.09" vaporized="">
        <emissions CO_abs="11303.466197" CO2_abs="667615.893365" HC_abs="66.974554" PMx_abs="11.854520" NOx_abs="270.369859" fuel_abs="286.980579" electricity_abs="0"/>
    </tripinfo>
    <tripinfo id="carIn126378:1" depart="57746.00" departLane="386687232#0_1" departPos="5.10" departSpeed="0.00" departDelay="1.80" arrival="57857.00" arrivalLane="-315358244_1" arrivalPos="33.95" arrivalSpeed="12.35" duration="111.00" routeLength="1157.39" waitingTime="7.00" waitingCount="1" stopTime="0.00" timeLoss="24.48" rerouteNo="1" devices="tripinfo_carIn126378:1 routing_carIn126378:1 emissions_carIn126378:1" vType="default_016" speedFactor="0.97" vaporized="">
        <emissions CO_abs="3912.798369" CO2_abs="267107.380873" HC_abs="24.052826" PMx_abs="4.427831" NOx_abs="106.682613" fuel_abs="114.818382" electricity_abs="0"/>
    </tripinfo>