<?xml version="1.0" encoding="UTF-8"?>

<!-- generated on 2021-10-26 19:44:29 by Eclipse SUMO sumo Version 1.10.0
<configuration xmlns:xsi="http://www.w3.org/2001/XMLSchema-instance" xsi:noNamespaceSchemaLocation="http://sumo.dlr.de/xsd/sumoConfiguration.xsd">

    <input>
        <net-file value="/Users/behradkoohy/sumo-scratchpad/RESCO/environments/ingolstadt21/ingolstadt21.net.xml"/>
        <route-files value="/Users/behradkoohy/sumo-scratchpad/RESCO/environments/ingolstadt21/ingolstadt21.rou.xml"/>
    </input>

    <output>
        <tripinfo-output value="/Users/behradkoohy/sumo-scratchpad/RESCO/logs/MPLight-tr0-ingolstadt21-21-mplight-pressure/tripinfo_40.xml"/>
        <tripinfo-output.write-unfinished value="true"/>
    </output>

    <time>
        <begin value="57600"/>
        <end value="61200"/>
    </time>

    <processing>
        <time-to-teleport value="-1"/>
    </processing>

    <report>
        <no-warnings value="true"/>
        <no-step-log value="true"/>
    </report>

    <emissions>
        <device.emissions.probability value="1"/>
    </emissions>

    <traci_server>
        <remote-port value="63815"/>
    </traci_server>

    <random_number>
        <random value="true"/>
    </random_number>

</configuration>
-->

<tripinfos xmlns:xsi="http://www.w3.org/2001/XMLSchema-instance" xsi:noNamespaceSchemaLocation="http://sumo.dlr.de/xsd/tripinfo_file.xsd">
    <tripinfo id="h15454c2:3" depart="57612.00" departLane="24608844_1" departPos="5.10" departSpeed="0.00" departDelay="0.50" arrival="57655.00" arrivalLane="32978638#0_1" arrivalPos="49.29" arrivalSpeed="11.78" duration="43.00" routeLength="354.79" waitingTime="0.00" waitingCount="0" stopTime="0.00" timeLoss="5.94" rerouteNo="1" devices="tripinfo_h15454c2:3 routing_h15454c2:3 emissions_h15454c2:3" vType="default_016" speedFactor="0.92" vaporized="">
        <emissions CO_abs="2055.248357" CO2_abs="109755.111982" HC_abs="11.911841" PMx_abs="1.880293" NOx_abs="44.837996" fuel_abs="47.179396" electricity_abs="0"/>
    </tripinfo>
    <tripinfo id="carIn60260:1" depart="57606.00" departLane="315358254#0_1" departPos="5.10" departSpeed="0.00" departDelay="0.90" arrival="57683.00" arrivalLane="399835085#1_1" arrivalPos="212.23" arrivalSpeed="5.32" duration="77.00" routeLength="430.98" waitingTime="0.00" waitingCount="0" stopTime="0.00" timeLoss="11.39" rerouteNo="1" devices="tripinfo_carIn60260:1 routing_carIn60260:1 emissions_carIn60260:1" vType="default_016" speedFactor="0.70" vaporized="">
        <emissions CO_abs="3673.826932" CO2_abs="131388.046762" HC_abs="19.720883" PMx_abs="2.157383" NOx_abs="53.682980" fuel_abs="56.479660" electricity_abs="0"/>
    </tripinfo>
    <tripinfo id="carIn53971:1" depart="57640.00" departLane="272042143_1" departPos="5.10" departSpeed="0.00" departDelay="0.80" arrival="57690.00" arrivalLane="24634414#1_1" arrivalPos="162.19" arrivalSpeed="8.22" duration="50.00" routeLength="493.04" waitingTime="0.00" waitingCount="0" stopTime="0.00" timeLoss="9.60" rerouteNo="1" devices="tripinfo_carIn53971:1 routing_carIn53971:1 emissions_carIn53971:1" vType="default_016" speedFactor="1.14" vaporized="">
        <emissions CO_abs="2459.729651" CO2_abs="146990.907536" HC_abs="14.668191" PMx_abs="2.693593" NOx_abs="60.817730" fuel_abs="63.185116" electricity_abs="0"/>
    </tripinfo>
    <tripinfo id="h7800c1:5" depart="57696.00" departLane="-447569998#1_1" departPos="5.10" departSpeed="0.00" departDelay="0.00" arrival="57721.00" arrivalLane="-447569998#1_1" arrivalPos="180.76" arrivalSpeed="7.94" duration="25.00" routeLength="175.66" waitingTime="0.00" waitingCount="0" stopTime="0.00" timeLoss="3.51" rerouteNo="1" devices="tripinfo_h7800c1:5 routing_h7800c1:5 emissions_h7800c1:5" vType="default_016" speedFactor="1.00" vaporized="">
        <emissions CO_abs="1125.274915" CO2_abs="48758.633214" HC_abs="6.242754" PMx_abs="0.802607" NOx_abs="19.884486" fuel_abs="20.959628" electricity_abs="0"/>
    </tripinfo>
    <tripinfo id="h3688c1:1" depart="57625.00" departLane="201201950#1_1" departPos="5.10" departSpeed="0.00" departDelay="0.00" arrival="57732.00" arrivalLane="32978638#0_1" arrivalPos="49.29" arrivalSpeed="12.55" duration="107.00" routeLength="1089.75" waitingTime="10.00" waitingCount="1" stopTime="0.00" timeLoss="26.23" rerouteNo="1" devices="tripinfo_h3688c1:1 routing_h3688c1:1 emissions_h3688c1:1" vType="default_016" speedFactor="0.99" vaporized="">
        <emissions CO_abs="4642.863733" CO2_abs="277148.044820" HC_abs="27.594660" PMx_abs="4.737827" NOx_abs="111.677513" fuel_abs="119.134715" electricity_abs="0"/>
    </tripinfo>
    <tripinfo id="h3568c1:3" depart="57656.00" departLane="266565295#5_1" departPos="5.10" departSpeed="0.00" departDelay="0.80" arrival="57739.00" arrivalLane="-24634415_1" arrivalPos="62.03" arrivalSpeed="13.81" duration="83.00" routeLength="807.40" waitingTime="4.00" waitingCount="1" stopTime="0.00" timeLoss="21.83" rerouteNo="1" devices="tripinfo_h3568c1:3 routing_h3568c1:3 emissions_h3568c1:3" vType="default_016" speedFactor="1.06" vaporized="">
        <emissions CO_abs="4403.422188" CO2_abs="260131.177928" HC_abs="26.093700" PMx_abs="4.660947" NOx_abs="106.703832" fuel_abs="111.819505" electricity_abs="0"/>
    </tripinfo>
    <tripinfo id="h7181c1:1" depart="57660.00" departLane="315358254#0_1" departPos="5.10" departSpeed="0.00" departDelay="0.10" arrival="57740.00" arrivalLane="306240162#0_0" arrivalPos="220.43" arrivalSpeed="17.74" duration="80.00" routeLength="932.35" waitingTime="11.00" waitingCount="2" stopTime="0.00" timeLoss="32.78" rerouteNo="1" devices="tripinfo_h7181c1:1 routing_h7181c1:1 emissions_h7181c1:1" vType="default_016" speedFactor="1.10" vaporized="">
        <emissions CO_abs="4972.363224" CO2_abs="309983.072904" HC_abs="30.074747" PMx_abs="6.115928" NOx_abs="127.682639" fuel_abs="133.247990" electricity_abs="0"/>
    </tripinfo>
    <tripinfo id="h317c2:1" depart="57707.00" departLane="-32978638#0_1" departPos="5.10" departSpeed="0.00" departDelay="0.10" arrival="57743.00" arrivalLane="-266565295#5_1" arrivalPos="172.76" arrivalSpeed="14.98" duration="36.00" routeLength="370.53" waitingTime="1.00" waitingCount="1" stopTime="0.00" timeLoss="11.84" rerouteNo="1" devices="tripinfo_h317c2:1 routing_h317c2:1 emissions_h317c2:1" vType="default_016" speedFactor="1.12" vaporized="">
        <emissions CO_abs="2227.485722" CO2_abs="130659.409144" HC_abs="13.208029" PMx_abs="2.482187" NOx_abs="54.398926" fuel_abs="56.164820" electricity_abs="0"/>
    </tripinfo>
    <tripinfo id="h12244c1:3" depart="57612.00" departLane="315358244_1" departPos="5.10" departSpeed="0.00" departDelay="0.40" arrival="57748.00" arrivalLane="386687235_1" arrivalPos="80.84" arrivalSpeed="11.65" duration="136.00" routeLength="1186.14" waitingTime="16.00" waitingCount="2" stopTime="0.00" timeLoss="42.82" rerouteNo="1" devices="tripinfo_h12244c1:3 routing_h12244c1:3 emissions_h12244c1:3" vType="default_016" speedFactor="0.93" vaporized="">
        <emissions CO_abs="5929.355834" CO2_abs="315802.418799" HC_abs="34.361014" PMx_abs="5.411889" NOx_abs="128.015722" fuel_abs="135.751127" electricity_abs="0"/>
    </tripinfo>
    <tripinfo id="h9563c2:5" depart="57631.00" departLane="315358244_1" departPos="5.10" departSpeed="0.00" departDelay="0.70" arrival="57750.00" arrivalLane="386687235_1" arrivalPos="80.84" arrivalSpeed="14.73" duration="119.00" routeLength="1186.14" waitingTime="9.00" waitingCount="2" stopTime="0.00" timeLoss="37.17" rerouteNo="1" devices="tripinfo_h9563c2:5 routing_h9563c2:5 emissions_h9563c2:5" vType="default_016" speedFactor="1.07" vaporized="">
        <emissions CO_abs="5208.041630" CO2_abs="326236.005264" HC_abs="31.355851" PMx_abs="5.790351" NOx_abs="133.004776" fuel_abs="140.235077" electricity_abs="0"/>
    </tripinfo>
    <tripinfo id="carIn22761:1" depart="57616.00" departLane="-306240162#1_0" departPos="5.10" departSpeed="0.00" departDelay="2.10" arrival="57751.00" arrivalLane="399835085#1_1" arrivalPos="212.23" arrivalSpeed="8.55" duration="135.00" routeLength="1093.26" waitingTime="28.00" waitingCount="3" stopTime="0.00" timeLoss="64.06" rerouteNo="1" devices="tripinfo_carIn22761:1 routing_carIn22761:1 emissions_carIn22761:1" vType="default_016" speedFactor="1.10" vaporized="">
        <emissions CO_abs="7629.742982" CO2_abs="355396.069463" HC_abs="43.170549" PMx_abs="6.958080" NOx_abs="149.293304" fuel_abs="152.770424" electricity_abs="0"/>
    </tripinfo>
    <tripinfo id="carIn30817:1" depart="57681.00" departLane="315358244_1" departPos="5.10" departSpeed="0.00" departDelay="0.20" arrival="57754.00" arrivalLane="447569997#1_1" arrivalPos="180.93" arrivalSpeed="8.46" duration="73.00" routeLength="718.04" waitingTime="5.00" waitingCount="2" stopTime="0.00" timeLoss="18.54" rerouteNo="1" devices="tripinfo_carIn30817:1 routing_carIn30817:1 emissions_carIn30817:1" vType="default_016" speedFactor="1.14" vaporized="">
        <emissions CO_abs="2662.218599" CO2_abs="173064.588396" HC_abs="16.095851" PMx_abs="2.866436" NOx_abs="68.987574" fuel_abs="74.393399" electricity_abs="0"/>
    </tripinfo>
    <tripinfo id="S5R_frequency1.2" depart="57612.00" departLane="315358250#0_1" departPos="12.10" departSpeed="0.00" departDelay="0.40" arrival="57758.00" arrivalLane="386687235_1" arrivalPos="80.84" arrivalSpeed="13.69" duration="146.00" routeLength="1115.62" waitingTime="22.00" waitingCount="3" stopTime="0.00" timeLoss="64.99" rerouteNo="1" devices="tripinfo_S5R_frequency1.2 routing_S5R_frequency1.2 emissions_S5R_frequency1.2" vType="bus" speedFactor="1.00" vaporized="">
        <emissions CO_abs="2765.726058" CO2_abs="1660251.791636" HC_abs="563.276443" PMx_abs="293.289736" NOx_abs="13109.332995" fuel_abs="708.029026" electricity_abs="0"/>
    </tripinfo>
    <tripinfo id="carIn80064:1" depart="57603.00" departLane="128361109#1_1" departPos="5.10" departSpeed="0.00" departDelay="0.40" arrival="57759.00" arrivalLane="-315358254#1_1" arrivalPos="137.16" arrivalSpeed="13.95" duration="156.00" routeLength="1587.97" waitingTime="43.00" waitingCount="1" stopTime="0.00" timeLoss="73.59" rerouteNo="1" devices="tripinfo_carIn80064:1 routing_carIn80064:1 emissions_carIn80064:1" vType="default_016" speedFactor="1.09" vaporized="">
        <emissions CO_abs="13245.136055" CO2_abs="574716.659711" HC_abs="73.993567" PMx_abs="12.052311" NOx_abs="243.371920" fuel_abs="247.047359" electricity_abs="0"/>
    </tripinfo>
    <tripinfo id="h5979c1:5" depart="57669.00" departLane="399835085#1_1" departPos="5.10" departSpeed="0.00" departDelay="0.00" arrival="57769.00" arrivalLane="-315358254#1_1" arrivalPos="137.16" arrivalSpeed="11.94" duration="100.00" routeLength="659.33" waitingTime="10.00" waitingCount="1" stopTime="0.00" timeLoss="21.91" rerouteNo="1" devices="tripinfo_h5979c1:5 routing_h5979c1:5 emissions_h5979c1:5" vType="default_016" speedFactor="0.94" vaporized="">
        <emissions CO_abs="4811.629471" CO2_abs="188204.672831" HC_abs="26.222714" PMx_abs="3.110614" NOx_abs="76.416627" fuel_abs="80.903018" electricity_abs="0"/>
    </tripinfo>
    <tripinfo id="carIn86816:1" depart="57617.00" departLane="128361102#0_1" departPos="5.10" departSpeed="0.00" departDelay="0.80" arrival="57771.00" arrivalLane="201956811#0_1" arrivalPos="40.40" arrivalSpeed="16.02" duration="154.00" routeLength="2067.33" waitingTime="2.00" waitingCount="1" stopTime="0.00" timeLoss="23.08" rerouteNo="1" devices="tripinfo_carIn86816:1 routing_carIn86816:1 emissions_carIn86816:1" vType="default_016" speedFactor="1.16" vaporized="">
        <emissions CO_abs="5269.354117" CO2_abs="438035.369741" HC_abs="34.014314" PMx_abs="7.591268" NOx_abs="174.602601" fuel_abs="188.291941" electricity_abs="0"/>
    </tripinfo>
    <tripinfo id="h645c1:1" depart="57622.00" departLane="266565295#5_1" departPos="5.10" departSpeed="0.00" departDelay="0.40" arrival="57771.00" arrivalLane="-315358244_2" arrivalPos="33.95" arrivalSpeed="13.28" duration="149.00" routeLength="1910.83" waitingTime="0.00" waitingCount="0" stopTime="0.00" timeLoss="14.51" rerouteNo="1" devices="tripinfo_h645c1:1 routing_h645c1:1 emissions_h645c1:1" vType="default_016" speedFactor="1.03" vaporized="">
        <emissions CO_abs="3659.373987" CO2_abs="336317.103275" HC_abs="24.469496" PMx_abs="5.268091" NOx_abs="130.943188" fuel_abs="144.568292" electricity_abs="0"/>
    </tripinfo>
    <tripinfo id="carIn121703:1" depart="57647.00" departLane="386687232#0_1" departPos="5.10" departSpeed="0.00" departDelay="0.30" arrival="57773.00" arrivalLane="-315358244_1" arrivalPos="33.95" arrivalSpeed="13.78" duration="126.00" routeLength="1157.39" waitingTime="18.00" waitingCount="3" stopTime="0.00" timeLoss="42.57" rerouteNo="1" devices="tripinfo_carIn121703:1 routing_carIn121703:1 emissions_carIn121703:1" vType="default_016" speedFactor="1.00" vaporized="">
        <emissions CO_abs="6267.279476" CO2_abs="317541.343669" HC_abs="35.954395" PMx_abs="5.675866" NOx_abs="129.730420" fuel_abs="136.498574" electricity_abs="0"/>
    </tripinfo>
    <tripinfo id="carIn27009:1" depart="57673.00" departLane="-447569998#1_1" departPos="5.10" departSpeed="0.00" departDelay="0.50" arrival="57774.00" arrivalLane="-26677539_1" arrivalPos="152.75" arrivalSpeed="8.30" duration="101.00" routeLength="699.63" waitingTime="2.00" waitingCount="1" stopTime="0.00" timeLoss="17.79" rerouteNo="1" devices="tripinfo_carIn27009:1 routing_carIn27009:1 emissions_carIn27009:1" vType="default_015" speedFactor="1.01" vaporized="">
        <emissions CO_abs="4190.229783" CO2_abs="190187.375345" HC_abs="23.458099" PMx_abs="3.167679" NOx_abs="77.759715" fuel_abs="81.754665" electricity_abs="0"/>
    </tripinfo>
    <tripinfo id="h330c1:1" depart="57736.00" departLane="-32978638#0_1" departPos="5.10" departSpeed="0.00" departDelay="0.20" arrival="57774.00" arrivalLane="-266565295#5_1" arrivalPos="172.76" arrivalSpeed="14.11" duration="38.00" routeLength="370.53" waitingTime="1.00" waitingCount="1" stopTime="0.00" timeLoss="12.18" rerouteNo="1" devices="tripinfo_h330c1:1 routing_h330c1:1 emissions_h330c1:1" vType="default_016" speedFactor="1.09" vaporized="">
        <emissions CO_abs="2223.984758" CO2_abs="129814.982141" HC_abs="13.200103" PMx_abs="2.427978" NOx_abs="53.850368" fuel_abs="55.801907" electricity_abs="0"/>
    </tripinfo>
    <tripinfo id="carIn12365:1" depart="57713.00" departLane="315358244_1" departPos="5.10" departSpeed="0.00" departDelay="0.50" arrival="57791.00" arrivalLane="447569997#1_1" arrivalPos="180.93" arrivalSpeed="7.93" duration="78.00" routeLength="718.04" waitingTime="0.00" waitingCount="0" stopTime="0.00" timeLoss="17.13" rerouteNo="1" devices="tripinfo_carIn12365:1 routing_carIn12365:1 emissions_carIn12365:1" vType="default_016" speedFactor="1.02" vaporized="">
        <emissions CO_abs="3435.251765" CO2_abs="193626.651549" HC_abs="20.091614" PMx_abs="3.231241" NOx_abs="78.152070" fuel_abs="83.232465" electricity_abs="0"/>
    </tripinfo>
    <tripinfo id="carIn107282:1" depart="57749.00" departLane="-447569998#1_1" departPos="5.10" departSpeed="0.00" departDelay="0.00" arrival="57792.00" arrivalLane="315358242#0_1" arrivalPos="165.37" arrivalSpeed="15.38" duration="43.00" routeLength="448.50" waitingTime="0.00" waitingCount="0" stopTime="0.00" timeLoss="6.87" rerouteNo="1" devices="tripinfo_carIn107282:1 routing_carIn107282:1 emissions_carIn107282:1" vType="default_016" speedFactor="1.15" vaporized="">
        <emissions CO_abs="2019.969531" CO2_abs="125092.951212" HC_abs="12.093682" PMx_abs="2.198429" NOx_abs="50.898436" fuel_abs="53.772219" electricity_abs="0"/>
    </tripinfo>
    <tripinfo id="h3326c1:2" depart="57656.00" departLane="22716069#0_1" departPos="5.10" departSpeed="0.00" departDelay="0.00" arrival="57793.00" arrivalLane="24634517#13_1" arrivalPos="111.62" arrivalSpeed="10.83" duration="137.00" routeLength="1312.81" waitingTime="0.00" waitingCount="0" stopTime="0.00" timeLoss="15.09" rerouteNo="1" devices="tripinfo_h3326c1:2 routing_h3326c1:2 emissions_h3326c1:2" vType="default_016" speedFactor="0.80" vaporized="">
        <emissions CO_abs="4403.432403" CO2_abs="288228.244890" HC_abs="26.698138" PMx_abs="4.447747" NOx_abs="114.177583" fuel_abs="123.897901" electricity_abs="0"/>
    </tripinfo>
    <tripinfo id="h4538c1:1" depart="57701.00" departLane="-10427692#1_1" departPos="5.10" departSpeed="0.00" departDelay="0.00" arrival="57793.00" arrivalLane="-128361102#1_1" arrivalPos="274.68" arrivalSpeed="14.96" duration="92.00" routeLength="440.74" waitingTime="54.00" waitingCount="1" stopTime="0.00" timeLoss="63.07" rerouteNo="1" devices="tripinfo_h4538c1:1 routing_h4538c1:1 emissions_h4538c1:1" vType="default_016" speedFactor="1.12" vaporized="">
        <emissions CO_abs="10076.047093" CO2_abs="252110.405509" HC_abs="51.735351" PMx_abs="5.405409" NOx_abs="108.929312" fuel_abs="108.375347" electricity_abs="0"/>
    </tripinfo>
    <tripinfo id="carIn129809:1" depart="57729.00" departLane="-447569998#1_1" departPos="5.10" departSpeed="0.00" departDelay="1.00" arrival="57793.00" arrivalLane="-315358244_1" arrivalPos="33.95" arrivalSpeed="13.45" duration="64.00" routeLength="706.49" waitingTime="0.00" waitingCount="0" stopTime="0.00" timeLoss="6.73" rerouteNo="1" devices="tripinfo_carIn129809:1 routing_carIn129809:1 emissions_carIn129809:1" vType="default_015" speedFactor="1.06" vaporized="">
        <emissions CO_abs="2470.248356" CO2_abs="170522.013481" HC_abs="15.192962" PMx_abs="2.829023" NOx_abs="68.070043" fuel_abs="73.300310" electricity_abs="0"/>
    </tripinfo>
    <tripinfo id="carIn107084:1" depart="57601.00" departLane="124812856#0_1" departPos="5.10" departSpeed="0.00" departDelay="0.70" arrival="57801.00" arrivalLane="-128361102#1_1" arrivalPos="274.68" arrivalSpeed="15.16" duration="200.00" routeLength="2250.49" waitingTime="8.00" waitingCount="2" stopTime="0.00" timeLoss="50.77" rerouteNo="1" devices="tripinfo_carIn107084:1 routing_carIn107084:1 emissions_carIn107084:1" vType="default_016" speedFactor="1.10" vaporized="">
        <emissions CO_abs="7598.335686" CO2_abs="555034.251220" HC_abs="47.567109" PMx_abs="9.524211" NOx_abs="223.114172" fuel_abs="238.585302" electricity_abs="0"/>
    </tripinfo>
    <tripinfo id="h3154c1:1" depart="57658.00" departLane="24634507_1" departPos="5.10" departSpeed="0.00" departDelay="0.00" arrival="57802.00" arrivalLane="-266565295#5_1" arrivalPos="172.76" arrivalSpeed="10.64" duration="144.00" routeLength="1206.22" waitingTime="16.00" waitingCount="2" stopTime="0.00" timeLoss="35.98" rerouteNo="1" devices="tripinfo_h3154c1:1 routing_h3154c1:1 emissions_h3154c1:1" vType="default_016" speedFactor="0.83" vaporized="">
        <emissions CO_abs="5939.915481" CO2_abs="293876.079555" HC_abs="33.894165" PMx_abs="5.129203" NOx_abs="120.314229" fuel_abs="126.326008" electricity_abs="0"/>
    </tripinfo>
    <tripinfo id="carIn50326:1" depart="57651.00" departLane="128361102#0_1" departPos="5.10" departSpeed="0.00" departDelay="0.30" arrival="57808.00" arrivalLane="18809673#0_1" arrivalPos="473.56" arrivalSpeed="15.93" duration="157.00" routeLength="1591.07" waitingTime="16.00" waitingCount="2" stopTime="0.00" timeLoss="44.54" rerouteNo="1" devices="tripinfo_carIn50326:1 routing_carIn50326:1 emissions_carIn50326:1" vType="default_016" speedFactor="1.16" vaporized="">
        <emissions CO_abs="6632.549910" CO2_abs="400894.148328" HC_abs="39.573284" PMx_abs="7.180155" NOx_abs="163.111195" fuel_abs="172.327630" electricity_abs="0"/>
    </tripinfo>
    <tripinfo id="h16072c2:3" depart="57663.00" departLane="315358254#0_1" departPos="5.10" departSpeed="0.00" departDelay="2.50" arrival="57814.00" arrivalLane="386687235_1" arrivalPos="80.84" arrivalSpeed="14.01" duration="151.00" routeLength="1611.92" waitingTime="9.00" waitingCount="3" stopTime="0.00" timeLoss="36.46" rerouteNo="1" devices="tripinfo_h16072c2:3 routing_h16072c2:3 emissions_h16072c2:3" vType="default_016" speedFactor="1.03" vaporized="">
        <emissions CO_abs="5141.805060" CO2_abs="359018.102920" HC_abs="31.791642" PMx_abs="6.128767" NOx_abs="144.293315" fuel_abs="154.326634" electricity_abs="0"/>
    </tripinfo>
    <tripinfo id="carIn102915:1" depart="57643.00" departLane="128361102#0_1" departPos="5.10" departSpeed="0.00" departDelay="0.40" arrival="57822.00" arrivalLane="201956811#0_1" arrivalPos="40.40" arrivalSpeed="14.55" duration="179.00" routeLength="2067.33" waitingTime="19.00" waitingCount="2" stopTime="0.00" timeLoss="44.32" rerouteNo="1" devices="tripinfo_carIn102915:1 routing_carIn102915:1 emissions_carIn102915:1" vType="default_016" speedFactor="1.12" vaporized="">
        <emissions CO_abs="7664.102842" CO2_abs="474456.853619" HC_abs="45.972551" PMx_abs="8.375385" NOx_abs="191.201215" fuel_abs="203.949296" electricity_abs="0"/>
    </tripinfo>
    <tripinfo id="randUni15030:1" depart="57735.00" departLane="386687232#0_1" departPos="5.10" departSpeed="0.00" departDelay="0.10" arrival="57830.00" arrivalLane="26677539_1" arrivalPos="151.98" arrivalSpeed="9.17" duration="95.00" routeLength="919.89" waitingTime="5.00" waitingCount="1" stopTime="0.00" timeLoss="20.77" rerouteNo="1" devices="tripinfo_randUni15030:1 routing_randUni15030:1 emissions_randUni15030:1" vType="random_016" speedFactor="1.12" vaporized="">
        <emissions CO_abs="4084.729857" CO2_abs="245188.452813" HC_abs="24.277175" PMx_abs="4.232990" NOx_abs="99.381317" fuel_abs="105.396459" electricity_abs="0"/>
    </tripinfo>
    <tripinfo id="carIn118591:1" depart="57689.00" departLane="315358244_1" departPos="5.10" departSpeed="0.00" departDelay="0.20" arrival="57831.00" arrivalLane="386687235_1" arrivalPos="80.84" arrivalSpeed="14.52" duration="142.00" routeLength="1186.14" waitingTime="35.00" waitingCount="4" stopTime="0.00" timeLoss="63.53" rerouteNo="1" devices="tripinfo_carIn118591:1 routing_carIn118591:1 emissions_carIn118591:1" vType="default_016" speedFactor="1.10" vaporized="">
        <emissions CO_abs="7953.407414" CO2_abs="351255.779306" HC_abs="44.445497" PMx_abs="6.721569" NOx_abs="146.304128" fuel_abs="150.991285" electricity_abs="0"/>
    </tripinfo>
    <tripinfo id="50R_frequency3.17" depart="57674.00" departLane="-18809673#6_1" departPos="12.10" departSpeed="0.00" departDelay="0.70" arrival="57833.00" arrivalLane="201956811#0_1" arrivalPos="40.40" arrivalSpeed="13.73" duration="159.00" routeLength="1954.47" waitingTime="0.00" waitingCount="0" stopTime="0.00" timeLoss="14.66" rerouteNo="1" devices="tripinfo_50R_frequency3.17 routing_50R_frequency3.17 emissions_50R_frequency3.17" vType="bus" speedFactor="1.00" vaporized="">
        <emissions CO_abs="2881.667576" CO2_abs="1855037.873165" HC_abs="611.817457" PMx_abs="310.499753" NOx_abs="14250.650914" fuel_abs="791.177237" electricity_abs="0"/>
    </tripinfo>
    <tripinfo id="carIn8642:1" depart="57774.00" departLane="-447569998#1_1" departPos="5.10" departSpeed="0.00" departDelay="0.90" arrival="57849.00" arrivalLane="-315358244_1" arrivalPos="33.95" arrivalSpeed="12.05" duration="75.00" routeLength="706.49" waitingTime="0.00" waitingCount="0" stopTime="0.00" timeLoss="7.39" rerouteNo="1" devices="tripinfo_carIn8642:1 routing_carIn8642:1 emissions_carIn8642:1" vType="default_016" speedFactor="0.89" vaporized="">
        <emissions CO_abs="2511.690526" CO2_abs="153946.789698" HC_abs="14.977915" PMx_abs="2.339698" NOx_abs="60.590848" fuel_abs="66.175833" electricity_abs="0"/>
    </tripinfo>
    <tripinfo id="carIn81860:1" depart="57712.00" departLane="128361102#0_1" departPos="5.10" departSpeed="0.00" departDelay="0.60" arrival="57852.00" arrivalLane="-24634517#17_1" arrivalPos="6.43" arrivalSpeed="7.66" duration="140.00" routeLength="1229.64" waitingTime="15.00" waitingCount="2" stopTime="0.00" timeLoss="37.26" rerouteNo="1" devices="tripinfo_carIn81860:1 routing_carIn81860:1 emissions_carIn81860:1" vType="default_016" speedFactor="0.88" vaporized="">
        <emissions CO_abs="6137.670334" CO2_abs="306750.408294" HC_abs="35.093812" PMx_abs="5.315338" NOx_abs="125.021166" fuel_abs="131.860225" electricity_abs="0"/>
    </tripinfo>
    <tripinfo id="randUni33724:1" depart="57646.00" departLane="128361102#0_1" departPos="5.10" departSpeed="0.00" departDelay="1.20" arrival="57854.00" arrivalLane="201956811#0_1" arrivalPos="40.40" arrivalSpeed="12.71" duration="208.00" routeLength="2067.33" waitingTime="24.00" waitingCount="3" stopTime="0.00" timeLoss="56.91" rerouteNo="1" devices="tripinfo_randUni33724:1 routing_randUni33724:1 emissions_randUni33724:1" vType="random_016" speedFactor="1.00" vaporized="">
        <emissions CO_abs="7462.270544" CO2_abs="491289.227846" HC_abs="45.404279" PMx_abs="8.076199" NOx_abs="195.183909" fuel_abs="211.185245" electricity_abs="0"/>
    </tripinfo>
    <tripinfo id="h17600c1:1" depart="57662.00" departLane="272042143_1" departPos="5.10" departSpeed="0.00" departDelay="0.30" arrival="57855.00" arrivalLane="201238729#3_1" arrivalPos="431.02" arrivalSpeed="17.00" duration="193.00" routeLength="2100.26" waitingTime="45.00" waitingCount="2" stopTime="0.00" timeLoss="71.55" rerouteNo="1" devices="tripinfo_h17600c1:1 routing_h17600c1:1 emissions_h17600c1:1" vType="default_016" speedFactor="1.25" vaporized="">
        <emissions CO_abs="11007.378871" CO2_abs="531017.864341" HC_abs="62.539351" PMx_abs="10.169878" NOx_abs="218.156415" fuel_abs="228.263477" electricity_abs="0"/>
    </tripinfo>
    <tripinfo id="h3864c1:3" depart="57678.00" departLane="24693977#1_1" departPos="5.10" departSpeed="0.00" departDelay="0.00" arrival="57860.00" arrivalLane="201956820_1" arrivalPos="48.33" arrivalSpeed="12.35" duration="182.00" routeLength="1574.85" waitingTime="19.00" waitingCount="2" stopTime="0.00" timeLoss="50.35" rerouteNo="1" devices="tripinfo_h3864c1:3 routing_h3864c1:3 emissions_h3864c1:3" vType="default_016" speedFactor="0.98" vaporized="">
        <emissions CO_abs="8313.433702" CO2_abs="448852.659102" HC_abs="48.318975" PMx_abs="7.725808" NOx_abs="182.295636" fuel_abs="192.944066" electricity_abs="0"/>
    </tripinfo>
    <tripinfo id="carIn73855:1" depart="57743.00" departLane="386687232#0_1" departPos="5.10" departSpeed="0.00" departDelay="0.50" arrival="57863.00" arrivalLane="-315358244_1" arrivalPos="33.95" arrivalSpeed="12.74" duration="120.00" routeLength="1157.39" waitingTime="13.00" waitingCount="2" stopTime="0.00" timeLoss="35.11" rerouteNo="1" devices="tripinfo_carIn73855:1 routing_carIn73855:1 emissions_carIn73855:1" vType="default_016" speedFactor="0.99" vaporized="">
        <emissions CO_abs="5078.484984" CO2_abs="300787.168696" HC_abs="30.150495" PMx_abs="5.129864" NOx_abs="121.196723" fuel_abs="129.296267" electricity_abs="0"/>
    </tripinfo>
    <tripinfo id="carIn126378:1" depart="57746.00" departLane="386687232#0_1" departPos="5.10" departSpeed="0.00" departDelay="1.80" arrival="57863.00" arrivalLane="-315358244_2" arrivalPos="33.95" arrivalSpeed="14.01" duration="117.00" routeLength="1157.39" waitingTime="13.00" waitingCount="2" stopTime="0.00" timeLoss="33.73" rerouteNo="1" devices="tripinfo_carIn126378:1 routing_carIn126378:1 emissions_carIn126378:1" vType="default_016" speedFactor="1.02" vaporized="">
        <emissions CO_abs="4894.759835" CO2_abs="289455.728358" HC_abs="29.088678" PMx_abs="5.201594" NOx_abs="118.502088" fuel_abs="124.424921" electricity_abs="0"/>
    </tripinfo>
    <tripinfo id="h9953c2:3" depart="57682.00" departLane="-54169231#2_1" departPos="5.10" departSpeed="0.00" departDelay="0.00" arrival="57864.00" arrivalLane="386687235_1" arrivalPos="80.84" arrivalSpeed="12.43" duration="182.00" routeLength="1535.60" waitingTime="21.00" waitingCount="2" stopTime="0.00" timeLoss="48.79" rerouteNo="1" devices="tripinfo_h9953c2:3 routing_h9953c2:3 emissions_h9953c2:3" vType="default_016" speedFactor="0.94" vaporized="">
        <emissions CO_abs="8712.808220" CO2_abs="429137.600100" HC_abs="49.680321" PMx_abs="7.506863" NOx_abs="175.376865" fuel_abs="184.469778" electricity_abs="0"/>
    </tripinfo>
    <tripinfo id="h11868c1:5" depart="57700.00" departLane="315358254#0_1" departPos="5.10" departSpeed="0.00" departDelay="0.10" arrival="57867.00" arrivalLane="386687235_1" arrivalPos="80.84" arrivalSpeed="11.03" duration="167.00" routeLength="1611.92" waitingTime="0.00" waitingCount="0" stopTime="0.00" timeLoss="18.62" rerouteNo="1" devices="tripinfo_h11868c1:5 routing_h11868c1:5 emissions_h11868c1:5" vType="default_016" speedFactor="0.79" vaporized="">
        <emissions CO_abs="4959.910639" CO2_abs="328584.512906" HC_abs="30.139417" PMx_abs="4.926694" NOx_abs="129.065012" fuel_abs="141.245648" electricity_abs="0"/>
    </tripinfo>
    <tripinfo id="carIn99509:1" depart="57720.00" departLane="-32978638#0_1" departPos="5.10" departSpeed="0.00" departDelay="0.20" arrival="57868.00" arrivalLane="-315358244_1" arrivalPos="33.95" arrivalSpeed="13.37" duration="148.00" routeLength="1785.24" waitingTime="3.00" waitingCount="1" stopTime="0.00" timeLoss="17.00" rerouteNo="1" devices="tripinfo_carIn99509:1 routing_carIn99509:1 emissions_carIn99509:1" vType="default_015" speedFactor="0.99" vaporized="">
        <emissions CO_abs="3840.706246" CO2_abs="332939.542075" HC_abs="25.254133" PMx_abs="5.205201" NOx_abs="129.935952" fuel_abs="143.116596" electricity_abs="0"/>
    </tripinfo>
    <tripinfo id="h23116c2:5" depart="57698.00" departLane="128361102#0_1" departPos="5.10" departSpeed="0.00" departDelay="0.40" arrival="57874.00" arrivalLane="30482615#1_0" arrivalPos="424.01" arrivalSpeed="5.63" duration="176.00" routeLength="1599.26" waitingTime="0.00" waitingCount="0" stopTime="0.00" timeLoss="21.02" rerouteNo="1" devices="tripinfo_h23116c2:5 routing_h23116c2:5 emissions_h23116c2:5" vType="default_016" speedFactor="1.15" vaporized="">
        <emissions CO_abs="6500.942176" CO2_abs="367246.973668" HC_abs="37.978932" PMx_abs="5.995508" NOx_abs="147.004135" fuel_abs="157.865218" electricity_abs="0"/>
    </tripinfo>