<?xml version="1.0" encoding="UTF-8"?>

<!-- generated on 2021-10-26 19:45:43 by Eclipse SUMO sumo Version 1.10.0
<configuration xmlns:xsi="http://www.w3.org/2001/XMLSchema-instance" xsi:noNamespaceSchemaLocation="http://sumo.dlr.de/xsd/sumoConfiguration.xsd">

    <input>
        <net-file value="/Users/behradkoohy/sumo-scratchpad/RESCO/environments/ingolstadt21/ingolstadt21.net.xml"/>
        <route-files value="/Users/behradkoohy/sumo-scratchpad/RESCO/environments/ingolstadt21/ingolstadt21.rou.xml"/>
    </input>

    <output>
        <tripinfo-output value="/Users/behradkoohy/sumo-scratchpad/RESCO/logs/MPLight-tr0-ingolstadt21-21-mplight-pressure/tripinfo_41.xml"/>
        <tripinfo-output.write-unfinished value="true"/>
    </output>

    <time>
        <begin value="57600"/>
        <end value="61200"/>
    </time>

    <processing>
        <time-to-teleport value="-1"/>
    </processing>

    <report>
        <no-warnings value="true"/>
        <no-step-log value="true"/>
    </report>

    <emissions>
        <device.emissions.probability value="1"/>
    </emissions>

    <traci_server>
        <remote-port value="63854"/>
    </traci_server>

    <random_number>
        <random value="true"/>
    </random_number>

</configuration>
-->

<tripinfos xmlns:xsi="http://www.w3.org/2001/XMLSchema-instance" xsi:noNamespaceSchemaLocation="http://sumo.dlr.de/xsd/tripinfo_file.xsd">
    <tripinfo id="h15454c2:3" depart="57612.00" departLane="24608844_1" departPos="5.10" departSpeed="0.00" departDelay="0.50" arrival="57651.00" arrivalLane="32978638#0_1" arrivalPos="49.29" arrivalSpeed="13.81" duration="39.00" routeLength="354.79" waitingTime="0.00" waitingCount="0" stopTime="0.00" timeLoss="5.93" rerouteNo="1" devices="tripinfo_h15454c2:3 routing_h15454c2:3 emissions_h15454c2:3" vType="default_016" speedFactor="1.04" vaporized="">
        <emissions CO_abs="1987.695202" CO2_abs="112411.905337" HC_abs="11.667950" PMx_abs="2.060250" NOx_abs="46.721664" fuel_abs="48.321143" electricity_abs="0"/>
    </tripinfo>
    <tripinfo id="carIn60260:1" depart="57606.00" departLane="315358254#0_1" departPos="5.10" departSpeed="0.00" departDelay="0.90" arrival="57677.00" arrivalLane="399835085#1_1" arrivalPos="212.23" arrivalSpeed="7.17" duration="71.00" routeLength="430.98" waitingTime="11.00" waitingCount="1" stopTime="0.00" timeLoss="20.37" rerouteNo="1" devices="tripinfo_carIn60260:1 routing_carIn60260:1 emissions_carIn60260:1" vType="default_016" speedFactor="0.91" vaporized="">
        <emissions CO_abs="3558.075419" CO2_abs="139992.497006" HC_abs="19.428410" PMx_abs="2.416874" NOx_abs="57.635229" fuel_abs="60.177995" electricity_abs="0"/>
    </tripinfo>
    <tripinfo id="carIn53971:1" depart="57640.00" departLane="272042143_1" departPos="5.10" departSpeed="0.00" departDelay="0.80" arrival="57687.00" arrivalLane="24634414#1_1" arrivalPos="162.19" arrivalSpeed="10.00" duration="47.00" routeLength="493.04" waitingTime="0.00" waitingCount="0" stopTime="0.00" timeLoss="10.03" rerouteNo="1" devices="tripinfo_carIn53971:1 routing_carIn53971:1 emissions_carIn53971:1" vType="default_016" speedFactor="1.24" vaporized="">
        <emissions CO_abs="2642.394968" CO2_abs="165634.212521" HC_abs="15.927386" PMx_abs="3.021422" NOx_abs="68.294298" fuel_abs="71.199000" electricity_abs="0"/>
    </tripinfo>
    <tripinfo id="carIn22761:1" depart="57616.00" departLane="-306240162#1_0" departPos="5.10" departSpeed="0.00" departDelay="2.10" arrival="57716.00" arrivalLane="399835085#1_1" arrivalPos="212.23" arrivalSpeed="7.41" duration="100.00" routeLength="1093.26" waitingTime="0.00" waitingCount="0" stopTime="0.00" timeLoss="11.84" rerouteNo="1" devices="tripinfo_carIn22761:1 routing_carIn22761:1 emissions_carIn22761:1" vType="default_016" speedFactor="0.89" vaporized="">
        <emissions CO_abs="4068.789851" CO2_abs="249679.143847" HC_abs="24.343555" PMx_abs="4.423921" NOx_abs="101.136148" fuel_abs="107.326655" electricity_abs="0"/>
    </tripinfo>
    <tripinfo id="h3568c1:3" depart="57656.00" departLane="266565295#5_1" departPos="5.10" departSpeed="0.00" departDelay="0.80" arrival="57725.00" arrivalLane="-24634415_1" arrivalPos="62.03" arrivalSpeed="15.21" duration="69.00" routeLength="807.40" waitingTime="0.00" waitingCount="0" stopTime="0.00" timeLoss="13.34" rerouteNo="1" devices="tripinfo_h3568c1:3 routing_h3568c1:3 emissions_h3568c1:3" vType="default_016" speedFactor="1.16" vaporized="">
        <emissions CO_abs="3342.185889" CO2_abs="226384.172331" HC_abs="20.450876" PMx_abs="4.085055" NOx_abs="92.316426" fuel_abs="97.312682" electricity_abs="0"/>
    </tripinfo>
    <tripinfo id="h12244c1:3" depart="57612.00" departLane="315358244_1" departPos="5.10" departSpeed="0.00" departDelay="0.40" arrival="57726.00" arrivalLane="386687235_1" arrivalPos="80.84" arrivalSpeed="15.78" duration="114.00" routeLength="1186.14" waitingTime="23.00" waitingCount="2" stopTime="0.00" timeLoss="42.94" rerouteNo="1" devices="tripinfo_h12244c1:3 routing_h12244c1:3 emissions_h12244c1:3" vType="default_016" speedFactor="1.22" vaporized="">
        <emissions CO_abs="6499.825375" CO2_abs="325590.779519" HC_abs="37.155707" PMx_abs="6.236352" NOx_abs="134.583427" fuel_abs="139.958228" electricity_abs="0"/>
    </tripinfo>
    <tripinfo id="S5R_frequency1.2" depart="57634.00" departLane="315358250#0_1" departPos="12.10" departSpeed="0.00" departDelay="22.40" arrival="57730.00" arrivalLane="386687235_1" arrivalPos="80.84" arrivalSpeed="13.49" duration="96.00" routeLength="1115.62" waitingTime="0.00" waitingCount="0" stopTime="0.00" timeLoss="14.33" rerouteNo="1" devices="tripinfo_S5R_frequency1.2 routing_S5R_frequency1.2 emissions_S5R_frequency1.2" vType="bus" speedFactor="1.00" vaporized="">
        <emissions CO_abs="1853.515166" CO2_abs="1178961.026679" HC_abs="388.253992" PMx_abs="199.001120" NOx_abs="9101.977826" fuel_abs="502.818107" electricity_abs="0"/>
    </tripinfo>
    <tripinfo id="h9563c2:5" depart="57631.00" departLane="315358244_1" departPos="5.10" departSpeed="0.00" departDelay="0.70" arrival="57733.00" arrivalLane="386687235_1" arrivalPos="80.84" arrivalSpeed="12.29" duration="102.00" routeLength="1186.14" waitingTime="0.00" waitingCount="0" stopTime="0.00" timeLoss="10.27" rerouteNo="1" devices="tripinfo_h9563c2:5 routing_h9563c2:5 emissions_h9563c2:5" vType="default_016" speedFactor="0.94" vaporized="">
        <emissions CO_abs="2696.901758" CO2_abs="230581.835806" HC_abs="17.622550" PMx_abs="3.478339" NOx_abs="89.540205" fuel_abs="99.117543" electricity_abs="0"/>
    </tripinfo>
    <tripinfo id="h7800c1:5" depart="57696.00" departLane="-447569998#1_1" departPos="5.10" departSpeed="0.00" departDelay="0.00" arrival="57745.00" arrivalLane="-447569998#1_2" arrivalPos="180.76" arrivalSpeed="4.13" duration="49.00" routeLength="175.66" waitingTime="21.00" waitingCount="1" stopTime="0.00" timeLoss="26.23" rerouteNo="1" devices="tripinfo_h7800c1:5 routing_h7800c1:5 emissions_h7800c1:5" vType="default_016" speedFactor="0.94" vaporized="">
        <emissions CO_abs="3866.185487" CO2_abs="96912.447932" HC_abs="19.853916" PMx_abs="1.973933" NOx_abs="41.817887" fuel_abs="41.660096" electricity_abs="0"/>
    </tripinfo>
    <tripinfo id="h4538c1:1" depart="57701.00" departLane="-10427692#1_1" departPos="5.10" departSpeed="0.00" departDelay="0.00" arrival="57746.00" arrivalLane="-128361102#1_1" arrivalPos="274.68" arrivalSpeed="12.92" duration="45.00" routeLength="440.74" waitingTime="4.00" waitingCount="1" stopTime="0.00" timeLoss="13.10" rerouteNo="1" devices="tripinfo_h4538c1:1 routing_h4538c1:1 emissions_h4538c1:1" vType="default_016" speedFactor="0.99" vaporized="">
        <emissions CO_abs="2062.638456" CO2_abs="118831.121449" HC_abs="12.177605" PMx_abs="2.083411" NOx_abs="48.402645" fuel_abs="51.080650" electricity_abs="0"/>
    </tripinfo>
    <tripinfo id="carIn30817:1" depart="57681.00" departLane="315358244_1" departPos="5.10" departSpeed="0.00" departDelay="0.20" arrival="57749.00" arrivalLane="447569997#1_1" arrivalPos="180.93" arrivalSpeed="7.81" duration="68.00" routeLength="718.04" waitingTime="0.00" waitingCount="0" stopTime="0.00" timeLoss="7.24" rerouteNo="1" devices="tripinfo_carIn30817:1 routing_carIn30817:1 emissions_carIn30817:1" vType="default_016" speedFactor="1.01" vaporized="">
        <emissions CO_abs="2020.323021" CO2_abs="146138.166989" HC_abs="12.535998" PMx_abs="2.127150" NOx_abs="56.368290" fuel_abs="62.819089" electricity_abs="0"/>
    </tripinfo>
    <tripinfo id="carIn121703:1" depart="57647.00" departLane="386687232#0_1" departPos="5.10" departSpeed="0.00" departDelay="0.30" arrival="57751.00" arrivalLane="-315358244_1" arrivalPos="33.95" arrivalSpeed="12.74" duration="104.00" routeLength="1157.39" waitingTime="4.00" waitingCount="1" stopTime="0.00" timeLoss="15.13" rerouteNo="1" devices="tripinfo_carIn121703:1 routing_carIn121703:1 emissions_carIn121703:1" vType="default_016" speedFactor="0.95" vaporized="">
        <emissions CO_abs="3091.623624" CO2_abs="243050.142265" HC_abs="19.737379" PMx_abs="3.846748" NOx_abs="95.667333" fuel_abs="104.477075" electricity_abs="0"/>
    </tripinfo>
    <tripinfo id="h317c2:1" depart="57707.00" departLane="-32978638#0_1" departPos="5.10" departSpeed="0.00" departDelay="0.10" arrival="57756.00" arrivalLane="-266565295#5_1" arrivalPos="172.76" arrivalSpeed="12.93" duration="49.00" routeLength="370.53" waitingTime="11.00" waitingCount="1" stopTime="0.00" timeLoss="20.07" rerouteNo="1" devices="tripinfo_h317c2:1 routing_h317c2:1 emissions_h317c2:1" vType="default_016" speedFactor="0.95" vaporized="">
        <emissions CO_abs="3013.338619" CO2_abs="130458.881527" HC_abs="16.797448" PMx_abs="2.521108" NOx_abs="54.909775" fuel_abs="56.079206" electricity_abs="0"/>
    </tripinfo>
    <tripinfo id="h5979c1:5" depart="57669.00" departLane="399835085#1_1" departPos="5.10" departSpeed="0.00" departDelay="0.00" arrival="57769.00" arrivalLane="-315358254#1_1" arrivalPos="137.16" arrivalSpeed="10.76" duration="100.00" routeLength="659.33" waitingTime="0.00" waitingCount="0" stopTime="0.00" timeLoss="11.09" rerouteNo="1" devices="tripinfo_h5979c1:5 routing_h5979c1:5 emissions_h5979c1:5" vType="default_016" speedFactor="0.82" vaporized="">
        <emissions CO_abs="3884.898278" CO2_abs="159819.869059" HC_abs="21.346621" PMx_abs="2.610981" NOx_abs="65.092622" fuel_abs="68.701154" electricity_abs="0"/>
    </tripinfo>
    <tripinfo id="h3326c1:2" depart="57656.00" departLane="22716069#0_1" departPos="5.10" departSpeed="0.00" departDelay="0.00" arrival="57772.00" arrivalLane="24634517#13_1" arrivalPos="111.62" arrivalSpeed="12.92" duration="116.00" routeLength="1312.81" waitingTime="0.00" waitingCount="0" stopTime="0.00" timeLoss="14.26" rerouteNo="1" devices="tripinfo_h3326c1:2 routing_h3326c1:2 emissions_h3326c1:2" vType="default_016" speedFactor="0.96" vaporized="">
        <emissions CO_abs="4072.896922" CO2_abs="304978.514245" HC_abs="25.677196" PMx_abs="5.058559" NOx_abs="121.994197" fuel_abs="131.097252" electricity_abs="0"/>
    </tripinfo>
    <tripinfo id="h645c1:1" depart="57622.00" departLane="266565295#5_1" departPos="5.10" departSpeed="0.00" departDelay="0.40" arrival="57773.00" arrivalLane="-315358244_1" arrivalPos="33.95" arrivalSpeed="16.04" duration="151.00" routeLength="1910.83" waitingTime="19.00" waitingCount="1" stopTime="0.00" timeLoss="36.13" rerouteNo="1" devices="tripinfo_h645c1:1 routing_h645c1:1 emissions_h645c1:1" vType="default_016" speedFactor="1.21" vaporized="">
        <emissions CO_abs="7053.200742" CO2_abs="433355.535638" HC_abs="42.122772" PMx_abs="7.743855" NOx_abs="173.340350" fuel_abs="186.281617" electricity_abs="0"/>
    </tripinfo>
    <tripinfo id="h3688c1:1" depart="57625.00" departLane="201201950#1_1" departPos="5.10" departSpeed="0.00" departDelay="0.00" arrival="57775.00" arrivalLane="32978638#0_1" arrivalPos="49.29" arrivalSpeed="12.64" duration="150.00" routeLength="1089.75" waitingTime="50.00" waitingCount="2" stopTime="0.00" timeLoss="67.38" rerouteNo="1" devices="tripinfo_h3688c1:1 routing_h3688c1:1 emissions_h3688c1:1" vType="default_016" speedFactor="0.96" vaporized="">
        <emissions CO_abs="11121.979080" CO2_abs="373128.164584" HC_abs="59.398570" PMx_abs="7.332684" NOx_abs="157.217637" fuel_abs="160.395326" electricity_abs="0"/>
    </tripinfo>
    <tripinfo id="h7181c1:1" depart="57660.00" departLane="315358254#0_1" departPos="5.10" departSpeed="0.00" departDelay="0.10" arrival="57780.00" arrivalLane="306240162#0_0" arrivalPos="220.43" arrivalSpeed="17.11" duration="120.00" routeLength="932.35" waitingTime="51.00" waitingCount="2" stopTime="0.00" timeLoss="70.46" rerouteNo="1" devices="tripinfo_h7181c1:1 routing_h7181c1:1 emissions_h7181c1:1" vType="default_016" speedFactor="1.04" vaporized="">
        <emissions CO_abs="10682.160863" CO2_abs="378899.817178" HC_abs="57.618885" PMx_abs="8.078674" NOx_abs="161.889822" fuel_abs="162.875053" electricity_abs="0"/>
    </tripinfo>
    <tripinfo id="h3154c1:1" depart="57658.00" departLane="24634507_1" departPos="5.10" departSpeed="0.00" departDelay="0.00" arrival="57787.00" arrivalLane="-266565295#5_1" arrivalPos="172.76" arrivalSpeed="13.89" duration="129.00" routeLength="1206.22" waitingTime="20.00" waitingCount="2" stopTime="0.00" timeLoss="42.04" rerouteNo="1" devices="tripinfo_h3154c1:1 routing_h3154c1:1 emissions_h3154c1:1" vType="default_016" speedFactor="1.02" vaporized="">
        <emissions CO_abs="6195.276008" CO2_abs="330808.731371" HC_abs="35.965292" PMx_abs="6.028991" NOx_abs="136.007768" fuel_abs="142.201229" electricity_abs="0"/>
    </tripinfo>
    <tripinfo id="carIn48184:1" depart="57613.00" departLane="-306240162#1_0" departPos="5.10" departSpeed="0.00" departDelay="0.70" arrival="57794.00" arrivalLane="386687235_1" arrivalPos="80.84" arrivalSpeed="13.36" duration="181.00" routeLength="2257.41" waitingTime="13.00" waitingCount="1" stopTime="0.00" timeLoss="35.69" rerouteNo="1" devices="tripinfo_carIn48184:1 routing_carIn48184:1 emissions_carIn48184:1" vType="default_016" speedFactor="1.02" vaporized="">
        <emissions CO_abs="7642.544128" CO2_abs="515245.070081" HC_abs="46.962443" PMx_abs="9.333366" NOx_abs="208.798428" fuel_abs="221.481562" electricity_abs="0"/>
    </tripinfo>
    <tripinfo id="carIn129809:1" depart="57729.00" departLane="-447569998#1_1" departPos="5.10" departSpeed="0.00" departDelay="1.00" arrival="57796.00" arrivalLane="-315358244_1" arrivalPos="33.95" arrivalSpeed="14.93" duration="67.00" routeLength="706.49" waitingTime="0.00" waitingCount="0" stopTime="0.00" timeLoss="13.16" rerouteNo="1" devices="tripinfo_carIn129809:1 routing_carIn129809:1 emissions_carIn129809:1" vType="default_015" speedFactor="1.13" vaporized="">
        <emissions CO_abs="2770.047434" CO2_abs="179069.516181" HC_abs="16.701675" PMx_abs="2.913399" NOx_abs="70.979467" fuel_abs="76.974770" electricity_abs="0"/>
    </tripinfo>
    <tripinfo id="carIn80064:1" depart="57603.00" departLane="128361109#1_1" departPos="5.10" departSpeed="0.00" departDelay="0.40" arrival="57804.00" arrivalLane="-315358254#1_1" arrivalPos="137.16" arrivalSpeed="13.88" duration="201.00" routeLength="1587.97" waitingTime="83.00" waitingCount="3" stopTime="0.00" timeLoss="112.83" rerouteNo="1" devices="tripinfo_carIn80064:1 routing_carIn80064:1 emissions_carIn80064:1" vType="default_016" speedFactor="1.01" vaporized="">
        <emissions CO_abs="18731.928533" CO2_abs="667077.061687" HC_abs="101.218922" PMx_abs="14.132538" NOx_abs="284.614587" fuel_abs="286.751900" electricity_abs="0"/>
    </tripinfo>
    <tripinfo id="carIn86816:1" depart="57617.00" departLane="128361102#0_1" departPos="5.10" departSpeed="0.00" departDelay="0.80" arrival="57805.00" arrivalLane="201956811#0_1" arrivalPos="40.40" arrivalSpeed="12.32" duration="188.00" routeLength="2067.33" waitingTime="10.00" waitingCount="1" stopTime="0.00" timeLoss="32.16" rerouteNo="1" devices="tripinfo_carIn86816:1 routing_carIn86816:1 emissions_carIn86816:1" vType="default_016" speedFactor="0.97" vaporized="">
        <emissions CO_abs="6778.949836" CO2_abs="463309.319664" HC_abs="41.707490" PMx_abs="7.793021" NOx_abs="185.694168" fuel_abs="199.157285" electricity_abs="0"/>
    </tripinfo>
    <tripinfo id="h330c1:1" depart="57736.00" departLane="-32978638#0_1" departPos="5.10" departSpeed="0.00" departDelay="0.20" arrival="57808.00" arrivalLane="-266565295#5_1" arrivalPos="172.76" arrivalSpeed="11.74" duration="72.00" routeLength="370.53" waitingTime="30.00" waitingCount="1" stopTime="0.00" timeLoss="40.28" rerouteNo="1" devices="tripinfo_h330c1:1 routing_h330c1:1 emissions_h330c1:1" vType="default_016" speedFactor="0.88" vaporized="">
        <emissions CO_abs="6114.221276" CO2_abs="182466.529693" HC_abs="32.098033" PMx_abs="3.591058" NOx_abs="77.220769" fuel_abs="78.436800" electricity_abs="0"/>
    </tripinfo>
    <tripinfo id="carIn27009:1" depart="57673.00" departLane="-447569998#1_1" departPos="5.10" departSpeed="0.00" departDelay="0.50" arrival="57809.00" arrivalLane="-26677539_1" arrivalPos="152.75" arrivalSpeed="8.18" duration="136.00" routeLength="699.63" waitingTime="44.00" waitingCount="1" stopTime="0.00" timeLoss="56.69" rerouteNo="1" devices="tripinfo_carIn27009:1 routing_carIn27009:1 emissions_carIn27009:1" vType="default_015" speedFactor="1.06" vaporized="">
        <emissions CO_abs="10543.660224" CO2_abs="289067.735083" HC_abs="54.723351" PMx_abs="5.729079" NOx_abs="123.429130" fuel_abs="124.261995" electricity_abs="0"/>
    </tripinfo>
    <tripinfo id="carIn12365:1" depart="57713.00" departLane="315358244_1" departPos="5.10" departSpeed="0.00" departDelay="0.50" arrival="57809.00" arrivalLane="447569997#1_1" arrivalPos="180.93" arrivalSpeed="5.70" duration="96.00" routeLength="718.04" waitingTime="7.00" waitingCount="1" stopTime="0.00" timeLoss="19.80" rerouteNo="1" devices="tripinfo_carIn12365:1 routing_carIn12365:1 emissions_carIn12365:1" vType="default_016" speedFactor="0.81" vaporized="">
        <emissions CO_abs="3764.657350" CO2_abs="181618.851111" HC_abs="21.325997" PMx_abs="2.962236" NOx_abs="73.332297" fuel_abs="78.071314" electricity_abs="0"/>
    </tripinfo>
    <tripinfo id="carIn118591:1" depart="57689.00" departLane="315358244_1" departPos="5.10" departSpeed="0.00" departDelay="0.20" arrival="57816.00" arrivalLane="386687235_1" arrivalPos="80.84" arrivalSpeed="13.37" duration="127.00" routeLength="1186.14" waitingTime="31.00" waitingCount="1" stopTime="0.00" timeLoss="42.59" rerouteNo="1" devices="tripinfo_carIn118591:1 routing_carIn118591:1 emissions_carIn118591:1" vType="default_016" speedFactor="1.03" vaporized="">
        <emissions CO_abs="7625.650496" CO2_abs="311929.843324" HC_abs="42.056037" PMx_abs="5.875963" NOx_abs="129.012852" fuel_abs="134.087251" electricity_abs="0"/>
    </tripinfo>
    <tripinfo id="carIn50326:1" depart="57651.00" departLane="128361102#0_1" departPos="5.10" departSpeed="0.00" departDelay="0.30" arrival="57820.00" arrivalLane="18809673#0_1" arrivalPos="473.56" arrivalSpeed="14.60" duration="169.00" routeLength="1591.07" waitingTime="20.00" waitingCount="2" stopTime="0.00" timeLoss="46.72" rerouteNo="1" devices="tripinfo_carIn50326:1 routing_carIn50326:1 emissions_carIn50326:1" vType="default_016" speedFactor="1.06" vaporized="">
        <emissions CO_abs="7701.230086" CO2_abs="416197.447433" HC_abs="44.742490" PMx_abs="7.175488" NOx_abs="168.032744" fuel_abs="178.906957" electricity_abs="0"/>
    </tripinfo>
    <tripinfo id="carIn107084:1" depart="57601.00" departLane="124812856#0_1" departPos="5.10" departSpeed="0.00" departDelay="0.70" arrival="57822.00" arrivalLane="-128361102#1_1" arrivalPos="274.68" arrivalSpeed="11.18" duration="221.00" routeLength="2250.49" waitingTime="4.00" waitingCount="1" stopTime="0.00" timeLoss="27.09" rerouteNo="1" devices="tripinfo_carIn107084:1 routing_carIn107084:1 emissions_carIn107084:1" vType="default_016" speedFactor="0.85" vaporized="">
        <emissions CO_abs="5769.344911" CO2_abs="433458.184774" HC_abs="36.249831" PMx_abs="6.378195" NOx_abs="168.604736" fuel_abs="186.326357" electricity_abs="0"/>
    </tripinfo>
    <tripinfo id="h19804c1:3" depart="57617.00" departLane="124812856#0_1" departPos="5.10" departSpeed="0.00" departDelay="1.50" arrival="57823.00" arrivalLane="-128361102#1_1" arrivalPos="274.68" arrivalSpeed="14.08" duration="206.00" routeLength="2232.46" waitingTime="17.00" waitingCount="2" stopTime="0.00" timeLoss="63.45" rerouteNo="1" devices="tripinfo_h19804c1:3 routing_h19804c1:3 emissions_h19804c1:3" vType="default_016" speedFactor="1.14" vaporized="">
        <emissions CO_abs="8127.447803" CO2_abs="547591.221052" HC_abs="49.819482" PMx_abs="9.637398" NOx_abs="221.732001" fuel_abs="235.386029" electricity_abs="0"/>
    </tripinfo>
    <tripinfo id="randUni15030:1" depart="57735.00" departLane="386687232#0_1" departPos="5.10" departSpeed="0.00" departDelay="0.10" arrival="57824.00" arrivalLane="26677539_1" arrivalPos="151.98" arrivalSpeed="8.68" duration="89.00" routeLength="919.89" waitingTime="0.00" waitingCount="0" stopTime="0.00" timeLoss="11.42" rerouteNo="1" devices="tripinfo_randUni15030:1 routing_randUni15030:1 emissions_randUni15030:1" vType="random_016" speedFactor="1.08" vaporized="">
        <emissions CO_abs="3399.430491" CO2_abs="214121.088236" HC_abs="20.463882" PMx_abs="3.683905" NOx_abs="86.867058" fuel_abs="92.041738" electricity_abs="0"/>
    </tripinfo>
    <tripinfo id="carIn462:1" depart="57622.00" departLane="-306240162#1_0" departPos="5.10" departSpeed="0.00" departDelay="4.80" arrival="57833.00" arrivalLane="386687235_1" arrivalPos="80.84" arrivalSpeed="15.77" duration="211.00" routeLength="2257.41" waitingTime="28.00" waitingCount="3" stopTime="0.00" timeLoss="83.55" rerouteNo="1" devices="tripinfo_carIn462:1 routing_carIn462:1 emissions_carIn462:1" vType="default_016" speedFactor="1.17" vaporized="">
        <emissions CO_abs="10532.190022" CO2_abs="610362.104040" HC_abs="62.411483" PMx_abs="11.686427" NOx_abs="253.024986" fuel_abs="262.368393" electricity_abs="0"/>
    </tripinfo>
    <tripinfo id="carIn82220:1" depart="57619.00" departLane="-306240162#1_0" departPos="5.10" departSpeed="0.00" departDelay="3.50" arrival="57834.00" arrivalLane="386687235_1" arrivalPos="80.84" arrivalSpeed="12.90" duration="215.00" routeLength="2257.41" waitingTime="23.00" waitingCount="3" stopTime="0.00" timeLoss="55.01" rerouteNo="1" devices="tripinfo_carIn82220:1 routing_carIn82220:1 emissions_carIn82220:1" vType="default_016" speedFactor="0.93" vaporized="">
        <emissions CO_abs="8188.813686" CO2_abs="535543.760556" HC_abs="49.822536" PMx_abs="9.203917" NOx_abs="214.257743" fuel_abs="230.208014" electricity_abs="0"/>
    </tripinfo>
    <tripinfo id="carIn116184:1" depart="57627.00" departLane="-306240162#1_0" departPos="5.10" departSpeed="0.00" departDelay="0.10" arrival="57835.00" arrivalLane="386687235_2" arrivalPos="80.84" arrivalSpeed="14.83" duration="208.00" routeLength="2257.41" waitingTime="22.00" waitingCount="3" stopTime="0.00" timeLoss="70.41" rerouteNo="1" devices="tripinfo_carIn116184:1 routing_carIn116184:1 emissions_carIn116184:1" vType="default_016" speedFactor="1.08" vaporized="">
        <emissions CO_abs="9908.502820" CO2_abs="635081.943400" HC_abs="60.193255" PMx_abs="11.758224" NOx_abs="259.653409" fuel_abs="272.994221" electricity_abs="0"/>
    </tripinfo>
    <tripinfo id="carIn7949:1" depart="57676.00" departLane="128361109#1_1" departPos="5.10" departSpeed="0.00" departDelay="2.10" arrival="57837.00" arrivalLane="386687235_1" arrivalPos="80.84" arrivalSpeed="15.45" duration="161.00" routeLength="2088.57" waitingTime="7.00" waitingCount="2" stopTime="0.00" timeLoss="34.55" rerouteNo="1" devices="tripinfo_carIn7949:1 routing_carIn7949:1 emissions_carIn7949:1" vType="default_016" speedFactor="1.19" vaporized="">
        <emissions CO_abs="6036.361371" CO2_abs="459152.254711" HC_abs="38.171167" PMx_abs="8.185668" NOx_abs="184.664371" fuel_abs="197.369253" electricity_abs="0"/>
    </tripinfo>
    <tripinfo id="h11737c1:1" depart="57665.00" departLane="272042143_1" departPos="5.10" departSpeed="0.00" departDelay="1.50" arrival="57839.00" arrivalLane="-315358254#1_1" arrivalPos="137.16" arrivalSpeed="11.70" duration="174.00" routeLength="1596.88" waitingTime="19.00" waitingCount="2" stopTime="0.00" timeLoss="40.21" rerouteNo="1" devices="tripinfo_h11737c1:1 routing_h11737c1:1 emissions_h11737c1:1" vType="default_016" speedFactor="0.87" vaporized="">
        <emissions CO_abs="6447.431723" CO2_abs="369754.909719" HC_abs="37.920020" PMx_abs="5.941377" NOx_abs="147.111989" fuel_abs="158.943399" electricity_abs="0"/>
    </tripinfo>
    <tripinfo id="carIn126288:1" depart="57674.00" departLane="272042143_1" departPos="5.10" departSpeed="0.00" departDelay="0.00" arrival="57840.00" arrivalLane="-315358254#1_1" arrivalPos="137.16" arrivalSpeed="12.63" duration="166.00" routeLength="1596.88" waitingTime="18.00" waitingCount="2" stopTime="0.00" timeLoss="54.09" rerouteNo="1" devices="tripinfo_carIn126288:1 routing_carIn126288:1 emissions_carIn126288:1" vType="default_016" speedFactor="1.04" vaporized="">
        <emissions CO_abs="6650.213516" CO2_abs="397447.646880" HC_abs="39.574076" PMx_abs="6.790666" NOx_abs="160.551042" fuel_abs="170.846603" electricity_abs="0"/>
    </tripinfo>
    <tripinfo id="carIn107282:1" depart="57749.00" departLane="-447569998#1_1" departPos="5.10" departSpeed="0.00" departDelay="0.00" arrival="57840.00" arrivalLane="315358242#0_1" arrivalPos="165.37" arrivalSpeed="10.92" duration="91.00" routeLength="448.50" waitingTime="30.00" waitingCount="1" stopTime="0.00" timeLoss="40.31" rerouteNo="1" devices="tripinfo_carIn107282:1 routing_carIn107282:1 emissions_carIn107282:1" vType="default_016" speedFactor="0.83" vaporized="">
        <emissions CO_abs="6710.857461" CO2_abs="189111.429551" HC_abs="34.943233" PMx_abs="3.671289" NOx_abs="80.064668" fuel_abs="81.293600" electricity_abs="0"/>
    </tripinfo>
    <tripinfo id="carIn12775:1" depart="57676.00" departLane="10425609#0_1" departPos="5.10" departSpeed="0.00" departDelay="0.60" arrival="57841.00" arrivalLane="18809673#0_1" arrivalPos="473.56" arrivalSpeed="14.45" duration="165.00" routeLength="1959.45" waitingTime="7.00" waitingCount="1" stopTime="0.00" timeLoss="31.81" rerouteNo="1" devices="tripinfo_carIn12775:1 routing_carIn12775:1 emissions_carIn12775:1" vType="default_016" speedFactor="1.10" vaporized="">
        <emissions CO_abs="5550.364037" CO2_abs="425246.777349" HC_abs="35.170566" PMx_abs="7.206732" NOx_abs="169.427770" fuel_abs="182.795256" electricity_abs="0"/>
    </tripinfo>
    <tripinfo id="carIn82278:1" depart="57702.00" departLane="-306240162#1_0" departPos="5.10" departSpeed="0.00" departDelay="0.70" arrival="57843.00" arrivalLane="399835085#1_1" arrivalPos="212.23" arrivalSpeed="7.74" duration="141.00" routeLength="1093.26" waitingTime="32.00" waitingCount="2" stopTime="0.00" timeLoss="64.46" rerouteNo="1" devices="tripinfo_carIn82278:1 routing_carIn82278:1 emissions_carIn82278:1" vType="default_016" speedFactor="1.02" vaporized="">
        <emissions CO_abs="9922.468698" CO2_abs="408989.122869" HC_abs="54.907423" PMx_abs="8.329859" NOx_abs="173.978903" fuel_abs="175.808390" electricity_abs="0"/>
    </tripinfo>
    <tripinfo id="carIn12152:1" depart="57647.00" departLane="24599188#0.94_1" departPos="5.10" departSpeed="0.00" departDelay="0.50" arrival="57845.00" arrivalLane="-315358254#1_1" arrivalPos="137.16" arrivalSpeed="12.16" duration="198.00" routeLength="2034.31" waitingTime="9.00" waitingCount="1" stopTime="0.00" timeLoss="29.52" rerouteNo="1" devices="tripinfo_carIn12152:1 routing_carIn12152:1 emissions_carIn12152:1" vType="default_016" speedFactor="0.94" vaporized="">
        <emissions CO_abs="6383.002764" CO2_abs="430426.866885" HC_abs="39.041533" PMx_abs="6.770786" NOx_abs="169.864156" fuel_abs="185.023246" electricity_abs="0"/>
    </tripinfo>
    <tripinfo id="carIn12858:1" depart="57661.00" departLane="128361109#1_1" departPos="5.10" departSpeed="0.00" departDelay="0.90" arrival="57846.00" arrivalLane="399835085#1_1" arrivalPos="212.23" arrivalSpeed="8.59" duration="185.00" routeLength="1738.12" waitingTime="36.00" waitingCount="3" stopTime="0.00" timeLoss="82.01" rerouteNo="1" devices="tripinfo_carIn12858:1 routing_carIn12858:1 emissions_carIn12858:1" vType="default_016" speedFactor="1.13" vaporized="">
        <emissions CO_abs="12708.134218" CO2_abs="609259.095948" HC_abs="72.401306" PMx_abs="12.409609" NOx_abs="256.894430" fuel_abs="261.895053" electricity_abs="0"/>
    </tripinfo>
    <tripinfo id="carIn106665:1" depart="57659.00" departLane="266565295#5_1" departPos="5.10" departSpeed="0.00" departDelay="1.80" arrival="57847.00" arrivalLane="201238729#3_2" arrivalPos="431.02" arrivalSpeed="16.37" duration="188.00" routeLength="2840.38" waitingTime="1.00" waitingCount="1" stopTime="0.00" timeLoss="18.70" rerouteNo="1" devices="tripinfo_carIn106665:1 routing_carIn106665:1 emissions_carIn106665:1" vType="default_016" speedFactor="1.22" vaporized="">
        <emissions CO_abs="4950.275636" CO2_abs="507377.682906" HC_abs="33.773402" PMx_abs="8.328409" NOx_abs="196.119558" fuel_abs="218.099099" electricity_abs="0"/>
    </tripinfo>
    <tripinfo id="h17600c1:1" depart="57662.00" departLane="272042143_1" departPos="5.10" departSpeed="0.00" departDelay="0.30" arrival="57852.00" arrivalLane="201238729#3_1" arrivalPos="431.02" arrivalSpeed="13.23" duration="190.00" routeLength="2100.26" waitingTime="15.00" waitingCount="2" stopTime="0.00" timeLoss="38.33" rerouteNo="1" devices="tripinfo_h17600c1:1 routing_h17600c1:1 emissions_h17600c1:1" vType="default_016" speedFactor="1.00" vaporized="">
        <emissions CO_abs="6751.243065" CO2_abs="435477.557883" HC_abs="40.937400" PMx_abs="7.420147" NOx_abs="174.630385" fuel_abs="187.193808" electricity_abs="0"/>
    </tripinfo>