<?xml version="1.0" encoding="UTF-8"?>

<!-- generated on 2021-10-26 20:22:30 by Eclipse SUMO sumo Version 1.10.0
<configuration xmlns:xsi="http://www.w3.org/2001/XMLSchema-instance" xsi:noNamespaceSchemaLocation="http://sumo.dlr.de/xsd/sumoConfiguration.xsd">

    <input>
        <net-file value="/Users/behradkoohy/sumo-scratchpad/RESCO/environments/ingolstadt21/ingolstadt21.net.xml"/>
        <route-files value="/Users/behradkoohy/sumo-scratchpad/RESCO/environments/ingolstadt21/ingolstadt21.rou.xml"/>
    </input>

    <output>
        <tripinfo-output value="/Users/behradkoohy/sumo-scratchpad/RESCO/logs/MPLight-tr0-ingolstadt21-21-mplight-pressure/tripinfo_87.xml"/>
        <tripinfo-output.write-unfinished value="true"/>
    </output>

    <time>
        <begin value="57600"/>
        <end value="61200"/>
    </time>

    <processing>
        <time-to-teleport value="-1"/>
    </processing>

    <report>
        <no-warnings value="true"/>
        <no-step-log value="true"/>
    </report>

    <emissions>
        <device.emissions.probability value="1"/>
    </emissions>

    <traci_server>
        <remote-port value="64241"/>
    </traci_server>

    <random_number>
        <random value="true"/>
    </random_number>

</configuration>
-->

<tripinfos xmlns:xsi="http://www.w3.org/2001/XMLSchema-instance" xsi:noNamespaceSchemaLocation="http://sumo.dlr.de/xsd/tripinfo_file.xsd">
    <tripinfo id="h15454c2:3" depart="57612.00" departLane="24608844_1" departPos="5.10" departSpeed="0.00" departDelay="0.50" arrival="57653.00" arrivalLane="32978638#0_1" arrivalPos="49.29" arrivalSpeed="13.34" duration="41.00" routeLength="354.79" waitingTime="0.00" waitingCount="0" stopTime="0.00" timeLoss="7.42" rerouteNo="1" devices="tripinfo_h15454c2:3 routing_h15454c2:3 emissions_h15454c2:3" vType="default_016" speedFactor="1.03" vaporized="">
        <emissions CO_abs="2155.040336" CO2_abs="116866.269710" HC_abs="12.549165" PMx_abs="2.089111" NOx_abs="48.325917" fuel_abs="50.236039" electricity_abs="0"/>
    </tripinfo>
    <tripinfo id="carIn60260:1" depart="57606.00" departLane="315358254#0_1" departPos="5.10" departSpeed="0.00" departDelay="0.90" arrival="57676.00" arrivalLane="399835085#1_1" arrivalPos="212.23" arrivalSpeed="7.55" duration="70.00" routeLength="430.98" waitingTime="11.00" waitingCount="1" stopTime="0.00" timeLoss="20.19" rerouteNo="1" devices="tripinfo_carIn60260:1 routing_carIn60260:1 emissions_carIn60260:1" vType="default_016" speedFactor="0.93" vaporized="">
        <emissions CO_abs="4217.738076" CO2_abs="142063.725491" HC_abs="22.508621" PMx_abs="2.694239" NOx_abs="60.005891" fuel_abs="61.068501" electricity_abs="0"/>
    </tripinfo>
    <tripinfo id="carIn53971:1" depart="57640.00" departLane="272042143_1" departPos="5.10" departSpeed="0.00" departDelay="0.80" arrival="57696.00" arrivalLane="24634414#1_1" arrivalPos="162.19" arrivalSpeed="6.94" duration="56.00" routeLength="493.04" waitingTime="0.00" waitingCount="0" stopTime="0.00" timeLoss="7.44" rerouteNo="1" devices="tripinfo_carIn53971:1 routing_carIn53971:1 emissions_carIn53971:1" vType="default_016" speedFactor="0.94" vaporized="">
        <emissions CO_abs="2374.316717" CO2_abs="127610.962369" HC_abs="13.773750" PMx_abs="2.152632" NOx_abs="51.938745" fuel_abs="54.854958" electricity_abs="0"/>
    </tripinfo>
    <tripinfo id="carIn22761:1" depart="57616.00" departLane="-306240162#1_0" departPos="5.10" departSpeed="0.00" departDelay="2.10" arrival="57714.00" arrivalLane="399835085#1_1" arrivalPos="212.23" arrivalSpeed="8.09" duration="98.00" routeLength="1093.26" waitingTime="4.00" waitingCount="1" stopTime="0.00" timeLoss="21.22" rerouteNo="1" devices="tripinfo_carIn22761:1 routing_carIn22761:1 emissions_carIn22761:1" vType="default_016" speedFactor="1.02" vaporized="">
        <emissions CO_abs="4742.903218" CO2_abs="297659.599544" HC_abs="28.637399" PMx_abs="5.526473" NOx_abs="121.528409" fuel_abs="127.951054" electricity_abs="0"/>
    </tripinfo>
    <tripinfo id="h3568c1:3" depart="57656.00" departLane="266565295#5_1" departPos="5.10" departSpeed="0.00" departDelay="0.80" arrival="57723.00" arrivalLane="-24634415_1" arrivalPos="62.03" arrivalSpeed="16.60" duration="67.00" routeLength="807.40" waitingTime="0.00" waitingCount="0" stopTime="0.00" timeLoss="13.23" rerouteNo="1" devices="tripinfo_h3568c1:3 routing_h3568c1:3 emissions_h3568c1:3" vType="default_016" speedFactor="1.20" vaporized="">
        <emissions CO_abs="3308.034621" CO2_abs="232041.087198" HC_abs="20.563098" PMx_abs="4.275086" NOx_abs="95.078928" fuel_abs="99.744141" electricity_abs="0"/>
    </tripinfo>
    <tripinfo id="h7800c1:5" depart="57696.00" departLane="-447569998#1_1" departPos="5.10" departSpeed="0.00" departDelay="0.00" arrival="57725.00" arrivalLane="-447569998#1_2" arrivalPos="180.76" arrivalSpeed="3.38" duration="29.00" routeLength="175.66" waitingTime="5.00" waitingCount="1" stopTime="0.00" timeLoss="12.09" rerouteNo="1" devices="tripinfo_h7800c1:5 routing_h7800c1:5 emissions_h7800c1:5" vType="default_016" speedFactor="1.25" vaporized="">
        <emissions CO_abs="1434.199573" CO2_abs="58014.684463" HC_abs="7.885579" PMx_abs="1.084687" NOx_abs="24.389134" fuel_abs="24.938374" electricity_abs="0"/>
    </tripinfo>
    <tripinfo id="h3688c1:1" depart="57625.00" departLane="201201950#1_1" departPos="5.10" departSpeed="0.00" departDelay="0.00" arrival="57730.00" arrivalLane="32978638#0_1" arrivalPos="49.29" arrivalSpeed="12.59" duration="105.00" routeLength="1089.75" waitingTime="9.00" waitingCount="1" stopTime="0.00" timeLoss="25.14" rerouteNo="1" devices="tripinfo_h3688c1:1 routing_h3688c1:1 emissions_h3688c1:1" vType="default_016" speedFactor="1.00" vaporized="">
        <emissions CO_abs="4422.237580" CO2_abs="260806.843886" HC_abs="26.261930" PMx_abs="4.694859" NOx_abs="106.854303" fuel_abs="112.109957" electricity_abs="0"/>
    </tripinfo>
    <tripinfo id="h4538c1:1" depart="57701.00" departLane="-10427692#1_1" departPos="5.10" departSpeed="0.00" departDelay="0.00" arrival="57734.00" arrivalLane="-128361102#1_1" arrivalPos="274.68" arrivalSpeed="16.00" duration="33.00" routeLength="440.74" waitingTime="0.00" waitingCount="0" stopTime="0.00" timeLoss="6.67" rerouteNo="1" devices="tripinfo_h4538c1:1 routing_h4538c1:1 emissions_h4538c1:1" vType="default_016" speedFactor="1.20" vaporized="">
        <emissions CO_abs="1571.872674" CO2_abs="113222.990492" HC_abs="9.841045" PMx_abs="2.028793" NOx_abs="45.796687" fuel_abs="48.669603" electricity_abs="0"/>
    </tripinfo>
    <tripinfo id="S5R_frequency1.2" depart="57615.00" departLane="315358250#0_1" departPos="12.10" departSpeed="0.00" departDelay="3.40" arrival="57740.00" arrivalLane="386687235_1" arrivalPos="80.84" arrivalSpeed="12.25" duration="125.00" routeLength="1115.62" waitingTime="17.00" waitingCount="2" stopTime="0.00" timeLoss="43.28" rerouteNo="1" devices="tripinfo_S5R_frequency1.2 routing_S5R_frequency1.2 emissions_S5R_frequency1.2" vType="bus" speedFactor="1.00" vaporized="">
        <emissions CO_abs="2255.287998" CO2_abs="1291523.542835" HC_abs="486.055725" PMx_abs="239.231329" NOx_abs="10346.764470" fuel_abs="550.783177" electricity_abs="0"/>
    </tripinfo>
    <tripinfo id="h7181c1:1" depart="57660.00" departLane="315358254#0_1" departPos="5.10" departSpeed="0.00" departDelay="0.10" arrival="57741.00" arrivalLane="306240162#0_0" arrivalPos="220.43" arrivalSpeed="15.73" duration="81.00" routeLength="932.35" waitingTime="12.00" waitingCount="2" stopTime="0.00" timeLoss="28.47" rerouteNo="1" devices="tripinfo_h7181c1:1 routing_h7181c1:1 emissions_h7181c1:1" vType="default_016" speedFactor="0.99" vaporized="">
        <emissions CO_abs="4683.112647" CO2_abs="272574.506260" HC_abs="27.858107" PMx_abs="5.430092" NOx_abs="113.738268" fuel_abs="117.167776" electricity_abs="0"/>
    </tripinfo>
    <tripinfo id="h12244c1:3" depart="57612.00" departLane="315358244_1" departPos="5.10" departSpeed="0.00" departDelay="0.40" arrival="57743.00" arrivalLane="386687235_1" arrivalPos="80.84" arrivalSpeed="11.79" duration="131.00" routeLength="1186.14" waitingTime="8.00" waitingCount="2" stopTime="0.00" timeLoss="32.56" rerouteNo="1" devices="tripinfo_h12244c1:3 routing_h12244c1:3 emissions_h12244c1:3" vType="default_016" speedFactor="0.88" vaporized="">
        <emissions CO_abs="5267.381601" CO2_abs="282606.250054" HC_abs="30.529336" PMx_abs="4.612524" NOx_abs="113.086674" fuel_abs="121.481708" electricity_abs="0"/>
    </tripinfo>
    <tripinfo id="h9563c2:5" depart="57631.00" departLane="315358244_1" departPos="5.10" departSpeed="0.00" departDelay="0.70" arrival="57744.00" arrivalLane="386687235_1" arrivalPos="80.84" arrivalSpeed="12.96" duration="113.00" routeLength="1186.14" waitingTime="6.00" waitingCount="1" stopTime="0.00" timeLoss="41.34" rerouteNo="1" devices="tripinfo_h9563c2:5 routing_h9563c2:5 emissions_h9563c2:5" vType="default_016" speedFactor="1.20" vaporized="">
        <emissions CO_abs="5157.172920" CO2_abs="281514.494415" HC_abs="30.058652" PMx_abs="5.069894" NOx_abs="114.657296" fuel_abs="121.011701" electricity_abs="0"/>
    </tripinfo>
    <tripinfo id="carIn121703:1" depart="57647.00" departLane="386687232#0_1" departPos="5.10" departSpeed="0.00" departDelay="0.30" arrival="57747.00" arrivalLane="-315358244_1" arrivalPos="33.95" arrivalSpeed="13.57" duration="100.00" routeLength="1157.39" waitingTime="4.00" waitingCount="1" stopTime="0.00" timeLoss="16.08" rerouteNo="1" devices="tripinfo_carIn121703:1 routing_carIn121703:1 emissions_carIn121703:1" vType="default_016" speedFactor="1.01" vaporized="">
        <emissions CO_abs="3107.134538" CO2_abs="238741.769298" HC_abs="19.700534" PMx_abs="3.917937" NOx_abs="94.593457" fuel_abs="102.624955" electricity_abs="0"/>
    </tripinfo>
    <tripinfo id="carIn80064:1" depart="57603.00" departLane="128361109#1_1" departPos="5.10" departSpeed="0.00" departDelay="0.40" arrival="57750.00" arrivalLane="-315358254#1_1" arrivalPos="137.16" arrivalSpeed="15.73" duration="147.00" routeLength="1587.97" waitingTime="36.00" waitingCount="1" stopTime="0.00" timeLoss="68.52" rerouteNo="1" devices="tripinfo_carIn80064:1 routing_carIn80064:1 emissions_carIn80064:1" vType="default_016" speedFactor="1.14" vaporized="">
        <emissions CO_abs="13230.076102" CO2_abs="613534.127190" HC_abs="75.022889" PMx_abs="12.931031" NOx_abs="260.111919" fuel_abs="263.732572" electricity_abs="0"/>
    </tripinfo>
    <tripinfo id="h317c2:1" depart="57707.00" departLane="-32978638#0_1" departPos="5.10" departSpeed="0.00" departDelay="0.10" arrival="57756.00" arrivalLane="-266565295#5_1" arrivalPos="172.76" arrivalSpeed="12.53" duration="49.00" routeLength="370.53" waitingTime="10.00" waitingCount="1" stopTime="0.00" timeLoss="19.47" rerouteNo="1" devices="tripinfo_h317c2:1 routing_h317c2:1 emissions_h317c2:1" vType="default_016" speedFactor="0.94" vaporized="">
        <emissions CO_abs="2597.131760" CO2_abs="130425.921957" HC_abs="14.898325" PMx_abs="2.434233" NOx_abs="54.287001" fuel_abs="56.064820" electricity_abs="0"/>
    </tripinfo>
    <tripinfo id="h5979c1:5" depart="57669.00" departLane="399835085#1_1" departPos="5.10" departSpeed="0.00" departDelay="0.00" arrival="57758.00" arrivalLane="-315358254#1_1" arrivalPos="137.16" arrivalSpeed="12.89" duration="89.00" routeLength="659.33" waitingTime="0.00" waitingCount="0" stopTime="0.00" timeLoss="13.07" rerouteNo="1" devices="tripinfo_h5979c1:5 routing_h5979c1:5 emissions_h5979c1:5" vType="default_016" speedFactor="0.97" vaporized="">
        <emissions CO_abs="3723.351252" CO2_abs="181685.694922" HC_abs="21.135810" PMx_abs="2.946642" NOx_abs="73.365783" fuel_abs="78.100024" electricity_abs="0"/>
    </tripinfo>
    <tripinfo id="carIn30817:1" depart="57681.00" departLane="315358244_1" departPos="5.10" departSpeed="0.00" departDelay="0.20" arrival="57760.00" arrivalLane="447569997#1_1" arrivalPos="180.93" arrivalSpeed="8.70" duration="79.00" routeLength="718.04" waitingTime="8.00" waitingCount="1" stopTime="0.00" timeLoss="20.79" rerouteNo="1" devices="tripinfo_carIn30817:1 routing_carIn30817:1 emissions_carIn30817:1" vType="default_016" speedFactor="1.06" vaporized="">
        <emissions CO_abs="2949.464548" CO2_abs="158345.378614" HC_abs="17.124769" PMx_abs="2.715770" NOx_abs="64.067545" fuel_abs="68.066485" electricity_abs="0"/>
    </tripinfo>
    <tripinfo id="h3326c1:2" depart="57656.00" departLane="22716069#0_1" departPos="5.10" departSpeed="0.00" departDelay="0.00" arrival="57767.00" arrivalLane="24634517#13_1" arrivalPos="111.62" arrivalSpeed="13.77" duration="111.00" routeLength="1312.81" waitingTime="0.00" waitingCount="0" stopTime="0.00" timeLoss="14.66" rerouteNo="1" devices="tripinfo_h3326c1:2 routing_h3326c1:2 emissions_h3326c1:2" vType="default_016" speedFactor="1.01" vaporized="">
        <emissions CO_abs="4236.412875" CO2_abs="318356.291153" HC_abs="26.778368" PMx_abs="5.462140" NOx_abs="128.290351" fuel_abs="136.847521" electricity_abs="0"/>
    </tripinfo>
    <tripinfo id="h330c1:1" depart="57736.00" departLane="-32978638#0_1" departPos="5.10" departSpeed="0.00" departDelay="0.20" arrival="57774.00" arrivalLane="-266565295#5_1" arrivalPos="172.76" arrivalSpeed="14.55" duration="38.00" routeLength="370.53" waitingTime="0.00" waitingCount="0" stopTime="0.00" timeLoss="12.17" rerouteNo="1" devices="tripinfo_h330c1:1 routing_h330c1:1 emissions_h330c1:1" vType="default_016" speedFactor="1.05" vaporized="">
        <emissions CO_abs="2195.304299" CO2_abs="125860.546050" HC_abs="12.969962" PMx_abs="2.371095" NOx_abs="52.420373" fuel_abs="54.102060" electricity_abs="0"/>
    </tripinfo>
    <tripinfo id="h3154c1:1" depart="57658.00" departLane="24634507_1" departPos="5.10" departSpeed="0.00" departDelay="0.00" arrival="57791.00" arrivalLane="-266565295#5_1" arrivalPos="172.76" arrivalSpeed="11.45" duration="133.00" routeLength="1206.22" waitingTime="10.00" waitingCount="2" stopTime="0.00" timeLoss="30.70" rerouteNo="1" devices="tripinfo_h3154c1:1 routing_h3154c1:1 emissions_h3154c1:1" vType="default_016" speedFactor="0.88" vaporized="">
        <emissions CO_abs="5050.737006" CO2_abs="298618.722826" HC_abs="29.975631" PMx_abs="5.146802" NOx_abs="121.683551" fuel_abs="128.363961" electricity_abs="0"/>
    </tripinfo>
    <tripinfo id="carIn27009:1" depart="57673.00" departLane="-447569998#1_1" departPos="5.10" departSpeed="0.00" departDelay="0.50" arrival="57793.00" arrivalLane="-26677539_1" arrivalPos="152.75" arrivalSpeed="7.25" duration="120.00" routeLength="699.63" waitingTime="22.00" waitingCount="1" stopTime="0.00" timeLoss="36.17" rerouteNo="1" devices="tripinfo_carIn27009:1 routing_carIn27009:1 emissions_carIn27009:1" vType="default_015" speedFactor="1.00" vaporized="">
        <emissions CO_abs="6771.030493" CO2_abs="228884.430597" HC_abs="36.114858" PMx_abs="4.141982" NOx_abs="95.475990" fuel_abs="98.390127" electricity_abs="0"/>
    </tripinfo>
    <tripinfo id="carIn86816:1" depart="57617.00" departLane="128361102#0_1" departPos="5.10" departSpeed="0.00" departDelay="0.80" arrival="57798.00" arrivalLane="201956811#0_1" arrivalPos="40.40" arrivalSpeed="14.41" duration="181.00" routeLength="2067.33" waitingTime="11.00" waitingCount="3" stopTime="0.00" timeLoss="43.43" rerouteNo="1" devices="tripinfo_carIn86816:1 routing_carIn86816:1 emissions_carIn86816:1" vType="default_016" speedFactor="1.10" vaporized="">
        <emissions CO_abs="6926.919884" CO2_abs="505959.950721" HC_abs="43.341545" PMx_abs="8.854989" NOx_abs="203.807668" fuel_abs="217.490172" electricity_abs="0"/>
    </tripinfo>
    <tripinfo id="carIn12365:1" depart="57713.00" departLane="315358244_1" departPos="5.10" departSpeed="0.00" departDelay="0.50" arrival="57802.00" arrivalLane="447569997#1_1" arrivalPos="180.93" arrivalSpeed="7.22" duration="89.00" routeLength="718.04" waitingTime="13.00" waitingCount="1" stopTime="0.00" timeLoss="24.21" rerouteNo="1" devices="tripinfo_carIn12365:1 routing_carIn12365:1 emissions_carIn12365:1" vType="default_016" speedFactor="0.95" vaporized="">
        <emissions CO_abs="4083.630690" CO2_abs="187112.843988" HC_abs="22.941168" PMx_abs="3.227466" NOx_abs="76.118681" fuel_abs="80.432947" electricity_abs="0"/>
    </tripinfo>
    <tripinfo id="carIn82220:1" depart="57619.00" departLane="-306240162#1_0" departPos="5.10" departSpeed="0.00" departDelay="3.50" arrival="57803.00" arrivalLane="386687235_2" arrivalPos="80.84" arrivalSpeed="14.97" duration="184.00" routeLength="2257.41" waitingTime="17.00" waitingCount="2" stopTime="0.00" timeLoss="48.51" rerouteNo="1" devices="tripinfo_carIn82220:1 routing_carIn82220:1 emissions_carIn82220:1" vType="default_016" speedFactor="1.09" vaporized="">
        <emissions CO_abs="8752.215851" CO2_abs="571146.878384" HC_abs="53.291554" PMx_abs="10.677007" NOx_abs="233.185377" fuel_abs="245.511087" electricity_abs="0"/>
    </tripinfo>
    <tripinfo id="carIn48184:1" depart="57613.00" departLane="-306240162#1_0" departPos="5.10" departSpeed="0.00" departDelay="0.70" arrival="57804.00" arrivalLane="386687235_1" arrivalPos="80.84" arrivalSpeed="13.31" duration="191.00" routeLength="2257.41" waitingTime="19.00" waitingCount="2" stopTime="0.00" timeLoss="45.20" rerouteNo="1" devices="tripinfo_carIn48184:1 routing_carIn48184:1 emissions_carIn48184:1" vType="default_016" speedFactor="1.02" vaporized="">
        <emissions CO_abs="8250.482162" CO2_abs="528228.765071" HC_abs="50.012081" PMx_abs="9.681656" NOx_abs="214.504010" fuel_abs="227.062895" electricity_abs="0"/>
    </tripinfo>
    <tripinfo id="carIn116184:1" depart="57627.00" departLane="-306240162#1_0" departPos="5.10" departSpeed="0.00" departDelay="0.10" arrival="57805.00" arrivalLane="386687235_2" arrivalPos="80.84" arrivalSpeed="14.58" duration="178.00" routeLength="2257.41" waitingTime="6.00" waitingCount="1" stopTime="0.00" timeLoss="37.14" rerouteNo="1" devices="tripinfo_carIn116184:1 routing_carIn116184:1 emissions_carIn116184:1" vType="default_016" speedFactor="1.06" vaporized="">
        <emissions CO_abs="7239.506577" CO2_abs="556284.989653" HC_abs="46.084781" PMx_abs="9.893636" NOx_abs="223.703154" fuel_abs="239.122315" electricity_abs="0"/>
    </tripinfo>
    <tripinfo id="h16072c2:3" depart="57663.00" departLane="315358254#0_1" departPos="5.10" departSpeed="0.00" departDelay="2.50" arrival="57806.00" arrivalLane="386687235_1" arrivalPos="80.84" arrivalSpeed="12.63" duration="143.00" routeLength="1611.92" waitingTime="4.00" waitingCount="1" stopTime="0.00" timeLoss="21.04" rerouteNo="1" devices="tripinfo_h16072c2:3 routing_h16072c2:3 emissions_h16072c2:3" vType="default_016" speedFactor="0.96" vaporized="">
        <emissions CO_abs="4356.652823" CO2_abs="339910.103844" HC_abs="27.764589" PMx_abs="5.435597" NOx_abs="134.208000" fuel_abs="146.113052" electricity_abs="0"/>
    </tripinfo>
    <tripinfo id="carIn102915:1" depart="57643.00" departLane="128361102#0_1" departPos="5.10" departSpeed="0.00" departDelay="0.40" arrival="57807.00" arrivalLane="201956811#0_1" arrivalPos="40.40" arrivalSpeed="14.13" duration="164.00" routeLength="2067.33" waitingTime="2.00" waitingCount="1" stopTime="0.00" timeLoss="24.38" rerouteNo="1" devices="tripinfo_carIn102915:1 routing_carIn102915:1 emissions_carIn102915:1" vType="default_016" speedFactor="1.08" vaporized="">
        <emissions CO_abs="5632.528412" CO2_abs="458550.581694" HC_abs="36.331254" PMx_abs="7.842238" NOx_abs="183.099631" fuel_abs="197.110719" electricity_abs="0"/>
    </tripinfo>
    <tripinfo id="h11737c1:1" depart="57665.00" departLane="272042143_1" departPos="5.10" departSpeed="0.00" departDelay="1.50" arrival="57807.00" arrivalLane="-315358254#1_1" arrivalPos="137.16" arrivalSpeed="12.21" duration="142.00" routeLength="1596.88" waitingTime="3.00" waitingCount="1" stopTime="0.00" timeLoss="20.48" rerouteNo="1" devices="tripinfo_h11737c1:1 routing_h11737c1:1 emissions_h11737c1:1" vType="default_016" speedFactor="0.96" vaporized="">
        <emissions CO_abs="4500.842068" CO2_abs="337577.456662" HC_abs="28.384815" PMx_abs="5.533415" NOx_abs="134.337888" fuel_abs="145.110270" electricity_abs="0"/>
    </tripinfo>
    <tripinfo id="carIn107084:1" depart="57601.00" departLane="124812856#0_1" departPos="5.10" departSpeed="0.00" departDelay="0.70" arrival="57808.00" arrivalLane="-128361102#1_1" arrivalPos="274.68" arrivalSpeed="11.89" duration="207.00" routeLength="2250.49" waitingTime="7.00" waitingCount="1" stopTime="0.00" timeLoss="29.44" rerouteNo="1" devices="tripinfo_carIn107084:1 routing_carIn107084:1 emissions_carIn107084:1" vType="default_016" speedFactor="0.92" vaporized="">
        <emissions CO_abs="6343.714512" CO2_abs="473229.473689" HC_abs="39.919353" PMx_abs="7.638540" NOx_abs="187.799507" fuel_abs="203.421519" electricity_abs="0"/>
    </tripinfo>
    <tripinfo id="carIn462:1" depart="57622.00" departLane="-306240162#1_0" departPos="5.10" departSpeed="0.00" departDelay="4.80" arrival="57808.00" arrivalLane="386687235_1" arrivalPos="80.84" arrivalSpeed="13.18" duration="186.00" routeLength="2257.41" waitingTime="8.00" waitingCount="1" stopTime="0.00" timeLoss="32.53" rerouteNo="1" devices="tripinfo_carIn462:1 routing_carIn462:1 emissions_carIn462:1" vType="default_016" speedFactor="0.97" vaporized="">
        <emissions CO_abs="6749.707561" CO2_abs="498508.307940" HC_abs="42.415506" PMx_abs="8.617319" NOx_abs="199.190632" fuel_abs="214.287242" electricity_abs="0"/>
    </tripinfo>
    <tripinfo id="h3864c1:3" depart="57678.00" departLane="24693977#1_1" departPos="5.10" departSpeed="0.00" departDelay="0.00" arrival="57809.00" arrivalLane="201956820_2" arrivalPos="48.33" arrivalSpeed="15.72" duration="131.00" routeLength="1574.85" waitingTime="0.00" waitingCount="0" stopTime="0.00" timeLoss="18.12" rerouteNo="1" devices="tripinfo_h3864c1:3 routing_h3864c1:3 emissions_h3864c1:3" vType="default_016" speedFactor="1.15" vaporized="">
        <emissions CO_abs="4983.547621" CO2_abs="368509.585871" HC_abs="31.399979" PMx_abs="6.507521" NOx_abs="149.244945" fuel_abs="158.406074" electricity_abs="0"/>
    </tripinfo>
    <tripinfo id="carIn77943:1" depart="57608.00" departLane="124812856#0_1" departPos="5.10" departSpeed="0.00" departDelay="2.50" arrival="57810.00" arrivalLane="-128361102#1_1" arrivalPos="274.68" arrivalSpeed="13.15" duration="202.00" routeLength="2250.49" waitingTime="5.00" waitingCount="1" stopTime="0.00" timeLoss="43.50" rerouteNo="1" devices="tripinfo_carIn77943:1 routing_carIn77943:1 emissions_carIn77943:1" vType="default_016" speedFactor="1.04" vaporized="">
        <emissions CO_abs="6949.991678" CO2_abs="534238.736515" HC_abs="44.147841" PMx_abs="8.959362" NOx_abs="213.980760" fuel_abs="229.646165" electricity_abs="0"/>
    </tripinfo>
    <tripinfo id="randUni33724:1" depart="57646.00" departLane="128361102#0_1" departPos="5.10" departSpeed="0.00" departDelay="1.20" arrival="57810.00" arrivalLane="201956811#0_1" arrivalPos="40.40" arrivalSpeed="14.24" duration="164.00" routeLength="2067.33" waitingTime="0.00" waitingCount="0" stopTime="0.00" timeLoss="18.48" rerouteNo="1" devices="tripinfo_randUni33724:1 routing_randUni33724:1 emissions_randUni33724:1" vType="random_016" speedFactor="1.04" vaporized="">
        <emissions CO_abs="4935.528071" CO2_abs="403089.228108" HC_abs="31.905371" PMx_abs="6.736151" NOx_abs="160.457959" fuel_abs="173.270511" electricity_abs="0"/>
    </tripinfo>
    <tripinfo id="carIn126288:1" depart="57674.00" departLane="272042143_1" departPos="5.10" departSpeed="0.00" departDelay="0.00" arrival="57810.00" arrivalLane="-315358254#1_1" arrivalPos="137.16" arrivalSpeed="13.05" duration="136.00" routeLength="1596.88" waitingTime="0.00" waitingCount="0" stopTime="0.00" timeLoss="12.61" rerouteNo="1" devices="tripinfo_carIn126288:1 routing_carIn126288:1 emissions_carIn126288:1" vType="default_016" speedFactor="0.95" vaporized="">
        <emissions CO_abs="3904.475990" CO2_abs="318372.207727" HC_abs="25.196624" PMx_abs="5.078334" NOx_abs="125.628319" fuel_abs="136.854683" electricity_abs="0"/>
    </tripinfo>
    <tripinfo id="carIn12152:1" depart="57647.00" departLane="24599188#0.94_1" departPos="5.10" departSpeed="0.00" departDelay="0.50" arrival="57811.00" arrivalLane="-315358254#1_1" arrivalPos="137.16" arrivalSpeed="13.45" duration="164.00" routeLength="2034.31" waitingTime="0.00" waitingCount="0" stopTime="0.00" timeLoss="24.18" rerouteNo="1" devices="tripinfo_carIn12152:1 routing_carIn12152:1 emissions_carIn12152:1" vType="default_016" speedFactor="1.13" vaporized="">
        <emissions CO_abs="5207.849016" CO2_abs="410890.580479" HC_abs="33.237455" PMx_abs="6.971953" NOx_abs="164.203256" fuel_abs="176.623947" electricity_abs="0"/>
    </tripinfo>
    <tripinfo id="carIn81046:1" depart="57611.00" departLane="124812856#0_1" departPos="5.10" departSpeed="0.00" departDelay="2.50" arrival="57812.00" arrivalLane="-128361102#1_1" arrivalPos="274.68" arrivalSpeed="11.90" duration="201.00" routeLength="2250.49" waitingTime="2.00" waitingCount="1" stopTime="0.00" timeLoss="24.44" rerouteNo="1" devices="tripinfo_carIn81046:1 routing_carIn81046:1 emissions_carIn81046:1" vType="default_016" speedFactor="0.93" vaporized="">
        <emissions CO_abs="5647.988187" CO2_abs="450174.441743" HC_abs="36.203587" PMx_abs="7.155223" NOx_abs="177.611190" fuel_abs="193.510998" electricity_abs="0"/>
    </tripinfo>
    <tripinfo id="carIn118591:1" depart="57689.00" departLane="315358244_1" departPos="5.10" departSpeed="0.00" departDelay="0.20" arrival="57813.00" arrivalLane="386687235_1" arrivalPos="80.84" arrivalSpeed="14.56" duration="124.00" routeLength="1186.14" waitingTime="21.00" waitingCount="3" stopTime="0.00" timeLoss="46.38" rerouteNo="1" devices="tripinfo_carIn118591:1 routing_carIn118591:1 emissions_carIn118591:1" vType="default_016" speedFactor="1.12" vaporized="">
        <emissions CO_abs="6962.886777" CO2_abs="332482.957738" HC_abs="39.456590" PMx_abs="6.377799" NOx_abs="138.306936" fuel_abs="142.921084" electricity_abs="0"/>
    </tripinfo>
    <tripinfo id="carIn129809:1" depart="57729.00" departLane="-447569998#1_1" departPos="5.10" departSpeed="0.00" departDelay="1.00" arrival="57813.00" arrivalLane="-315358244_1" arrivalPos="33.95" arrivalSpeed="12.50" duration="84.00" routeLength="706.49" waitingTime="7.00" waitingCount="1" stopTime="0.00" timeLoss="17.74" rerouteNo="1" devices="tripinfo_carIn129809:1 routing_carIn129809:1 emissions_carIn129809:1" vType="default_015" speedFactor="0.91" vaporized="">
        <emissions CO_abs="3516.123757" CO2_abs="189778.911228" HC_abs="20.414298" PMx_abs="3.172744" NOx_abs="76.841729" fuel_abs="81.578580" electricity_abs="0"/>
    </tripinfo>
    <tripinfo id="carIn82278:1" depart="57702.00" departLane="-306240162#1_0" departPos="5.10" departSpeed="0.00" departDelay="0.70" arrival="57816.00" arrivalLane="399835085#1_1" arrivalPos="212.23" arrivalSpeed="7.33" duration="114.00" routeLength="1093.26" waitingTime="8.00" waitingCount="2" stopTime="0.00" timeLoss="32.70" rerouteNo="1" devices="tripinfo_carIn82278:1 routing_carIn82278:1 emissions_carIn82278:1" vType="default_016" speedFactor="0.96" vaporized="">
        <emissions CO_abs="5598.839688" CO2_abs="323546.050797" HC_abs="33.144984" PMx_abs="6.235734" NOx_abs="134.600145" fuel_abs="139.078445" electricity_abs="0"/>
    </tripinfo>
    <tripinfo id="carIn77438:1" depart="57614.00" departLane="124812856#0_1" departPos="5.10" departSpeed="0.00" departDelay="1.10" arrival="57827.00" arrivalLane="-128361102#1_1" arrivalPos="274.68" arrivalSpeed="12.69" duration="213.00" routeLength="2250.49" waitingTime="12.00" waitingCount="2" stopTime="0.00" timeLoss="45.87" rerouteNo="1" devices="tripinfo_carIn77438:1 routing_carIn77438:1 emissions_carIn77438:1" vType="default_016" speedFactor="0.99" vaporized="">
        <emissions CO_abs="8152.428222" CO2_abs="545508.282520" HC_abs="49.896774" PMx_abs="9.289455" NOx_abs="219.553905" fuel_abs="234.491132" electricity_abs="0"/>
    </tripinfo>
    <tripinfo id="carIn50326:1" depart="57651.00" departLane="128361102#0_1" departPos="5.10" departSpeed="0.00" departDelay="0.30" arrival="57827.00" arrivalLane="18809673#0_1" arrivalPos="473.56" arrivalSpeed="11.26" duration="176.00" routeLength="1591.07" waitingTime="8.00" waitingCount="2" stopTime="0.00" timeLoss="29.62" rerouteNo="1" devices="tripinfo_carIn50326:1 routing_carIn50326:1 emissions_carIn50326:1" vType="default_016" speedFactor="0.89" vaporized="">
        <emissions CO_abs="5692.905224" CO2_abs="346812.288136" HC_abs="33.903126" PMx_abs="5.300539" NOx_abs="136.771519" fuel_abs="149.081305" electricity_abs="0"/>
    </tripinfo>
    <tripinfo id="h19804c1:3" depart="57617.00" departLane="124812856#0_1" departPos="5.10" departSpeed="0.00" departDelay="1.50" arrival="57828.00" arrivalLane="-128361102#1_1" arrivalPos="274.68" arrivalSpeed="14.73" duration="211.00" routeLength="2250.49" waitingTime="10.00" waitingCount="2" stopTime="0.00" timeLoss="56.44" rerouteNo="1" devices="tripinfo_h19804c1:3 routing_h19804c1:3 emissions_h19804c1:3" vType="default_016" speedFactor="1.06" vaporized="">
        <emissions CO_abs="8143.993186" CO2_abs="542961.393345" HC_abs="49.908913" PMx_abs="9.904169" NOx_abs="223.349876" fuel_abs="233.395290" electricity_abs="0"/>
    </tripinfo>
    <tripinfo id="carIn107842:1" depart="57623.00" departLane="124812856#0_1" departPos="5.10" departSpeed="0.00" departDelay="1.90" arrival="57831.00" arrivalLane="-128361102#1_1" arrivalPos="274.68" arrivalSpeed="12.48" duration="208.00" routeLength="2250.49" waitingTime="8.00" waitingCount="1" stopTime="0.00" timeLoss="36.65" rerouteNo="1" devices="tripinfo_carIn107842:1 routing_carIn107842:1 emissions_carIn107842:1" vType="default_016" speedFactor="0.96" vaporized="">
        <emissions CO_abs="5870.135201" CO2_abs="464451.937595" HC_abs="37.552680" PMx_abs="7.373633" NOx_abs="183.036604" fuel_abs="199.648358" electricity_abs="0"/>
    </tripinfo>