<?xml version="1.0" encoding="UTF-8"?>

<!-- generated on 2021-10-26 19:58:28 by Eclipse SUMO sumo Version 1.10.0
<configuration xmlns:xsi="http://www.w3.org/2001/XMLSchema-instance" xsi:noNamespaceSchemaLocation="http://sumo.dlr.de/xsd/sumoConfiguration.xsd">

    <input>
        <net-file value="/Users/behradkoohy/sumo-scratchpad/RESCO/environments/ingolstadt21/ingolstadt21.net.xml"/>
        <route-files value="/Users/behradkoohy/sumo-scratchpad/RESCO/environments/ingolstadt21/ingolstadt21.rou.xml"/>
    </input>

    <output>
        <tripinfo-output value="/Users/behradkoohy/sumo-scratchpad/RESCO/logs/MPLight-tr0-ingolstadt21-21-mplight-pressure/tripinfo_57.xml"/>
        <tripinfo-output.write-unfinished value="true"/>
    </output>

    <time>
        <begin value="57600"/>
        <end value="61200"/>
    </time>

    <processing>
        <time-to-teleport value="-1"/>
    </processing>

    <report>
        <no-warnings value="true"/>
        <no-step-log value="true"/>
    </report>

    <emissions>
        <device.emissions.probability value="1"/>
    </emissions>

    <traci_server>
        <remote-port value="64000"/>
    </traci_server>

    <random_number>
        <random value="true"/>
    </random_number>

</configuration>
-->

<tripinfos xmlns:xsi="http://www.w3.org/2001/XMLSchema-instance" xsi:noNamespaceSchemaLocation="http://sumo.dlr.de/xsd/tripinfo_file.xsd">
    <tripinfo id="h15454c2:3" depart="57612.00" departLane="24608844_1" departPos="5.10" departSpeed="0.00" departDelay="0.50" arrival="57645.00" arrivalLane="32978638#0_1" arrivalPos="49.29" arrivalSpeed="16.05" duration="33.00" routeLength="354.79" waitingTime="0.00" waitingCount="0" stopTime="0.00" timeLoss="4.29" rerouteNo="1" devices="tripinfo_h15454c2:3 routing_h15454c2:3 emissions_h15454c2:3" vType="default_016" speedFactor="1.20" vaporized="">
        <emissions CO_abs="1778.794163" CO2_abs="114209.281183" HC_abs="10.793346" PMx_abs="2.052179" NOx_abs="46.794000" fuel_abs="49.093664" electricity_abs="0"/>
    </tripinfo>
    <tripinfo id="carIn60260:1" depart="57606.00" departLane="315358254#0_1" departPos="5.10" departSpeed="0.00" departDelay="0.90" arrival="57659.00" arrivalLane="399835085#1_1" arrivalPos="212.23" arrivalSpeed="8.93" duration="53.00" routeLength="430.98" waitingTime="1.00" waitingCount="1" stopTime="0.00" timeLoss="11.68" rerouteNo="1" devices="tripinfo_carIn60260:1 routing_carIn60260:1 emissions_carIn60260:1" vType="default_016" speedFactor="1.12" vaporized="">
        <emissions CO_abs="2398.019153" CO2_abs="126815.957573" HC_abs="13.870979" PMx_abs="2.181967" NOx_abs="51.845989" fuel_abs="54.513189" electricity_abs="0"/>
    </tripinfo>
    <tripinfo id="carIn53971:1" depart="57640.00" departLane="272042143_1" departPos="5.10" departSpeed="0.00" departDelay="0.80" arrival="57696.00" arrivalLane="24634414#1_1" arrivalPos="162.19" arrivalSpeed="6.82" duration="56.00" routeLength="493.04" waitingTime="0.00" waitingCount="0" stopTime="0.00" timeLoss="9.13" rerouteNo="1" devices="tripinfo_carIn53971:1 routing_carIn53971:1 emissions_carIn53971:1" vType="default_016" speedFactor="0.97" vaporized="">
        <emissions CO_abs="2584.765528" CO2_abs="149055.008551" HC_abs="15.237642" PMx_abs="2.509728" NOx_abs="60.441539" fuel_abs="64.072780" electricity_abs="0"/>
    </tripinfo>
    <tripinfo id="h7181c1:1" depart="57660.00" departLane="315358254#0_1" departPos="5.10" departSpeed="0.00" departDelay="0.10" arrival="57718.00" arrivalLane="306240162#0_0" arrivalPos="220.43" arrivalSpeed="16.30" duration="58.00" routeLength="932.35" waitingTime="0.00" waitingCount="0" stopTime="0.00" timeLoss="8.06" rerouteNo="1" devices="tripinfo_h7181c1:1 routing_h7181c1:1 emissions_h7181c1:1" vType="default_016" speedFactor="1.03" vaporized="">
        <emissions CO_abs="3109.896223" CO2_abs="240324.607822" HC_abs="19.936510" PMx_abs="4.618211" NOx_abs="97.512097" fuel_abs="103.304525" electricity_abs="0"/>
    </tripinfo>
    <tripinfo id="h7800c1:5" depart="57696.00" departLane="-447569998#1_1" departPos="5.10" departSpeed="0.00" departDelay="0.00" arrival="57721.00" arrivalLane="-447569998#1_2" arrivalPos="180.76" arrivalSpeed="7.04" duration="25.00" routeLength="175.66" waitingTime="0.00" waitingCount="0" stopTime="0.00" timeLoss="3.42" rerouteNo="1" devices="tripinfo_h7800c1:5 routing_h7800c1:5 emissions_h7800c1:5" vType="default_016" speedFactor="1.00" vaporized="">
        <emissions CO_abs="1121.473447" CO2_abs="48557.505967" HC_abs="6.220339" PMx_abs="0.797256" NOx_abs="19.793992" fuel_abs="20.873173" electricity_abs="0"/>
    </tripinfo>
    <tripinfo id="h12244c1:3" depart="57612.00" departLane="315358244_1" departPos="5.10" departSpeed="0.00" departDelay="0.40" arrival="57728.00" arrivalLane="386687235_1" arrivalPos="80.84" arrivalSpeed="12.63" duration="116.00" routeLength="1186.14" waitingTime="8.00" waitingCount="1" stopTime="0.00" timeLoss="24.23" rerouteNo="1" devices="tripinfo_h12244c1:3 routing_h12244c1:3 emissions_h12244c1:3" vType="default_016" speedFactor="0.94" vaporized="">
        <emissions CO_abs="4164.736425" CO2_abs="276915.813063" HC_abs="25.420366" PMx_abs="4.550361" NOx_abs="110.526019" fuel_abs="119.034756" electricity_abs="0"/>
    </tripinfo>
    <tripinfo id="h9563c2:5" depart="57631.00" departLane="315358244_1" departPos="5.10" departSpeed="0.00" departDelay="0.70" arrival="57730.00" arrivalLane="386687235_1" arrivalPos="80.84" arrivalSpeed="13.72" duration="99.00" routeLength="1186.14" waitingTime="0.00" waitingCount="0" stopTime="0.00" timeLoss="16.27" rerouteNo="1" devices="tripinfo_h9563c2:5 routing_h9563c2:5 emissions_h9563c2:5" vType="default_016" speedFactor="1.05" vaporized="">
        <emissions CO_abs="3242.825786" CO2_abs="253478.386278" HC_abs="20.563033" PMx_abs="4.078387" NOx_abs="99.746568" fuel_abs="108.959678" electricity_abs="0"/>
    </tripinfo>
    <tripinfo id="S5R_frequency1.2" depart="57624.00" departLane="315358250#0_1" departPos="12.10" departSpeed="0.00" departDelay="12.40" arrival="57733.00" arrivalLane="386687235_1" arrivalPos="80.84" arrivalSpeed="13.39" duration="109.00" routeLength="1115.62" waitingTime="6.00" waitingCount="1" stopTime="0.00" timeLoss="27.36" rerouteNo="1" devices="tripinfo_S5R_frequency1.2 routing_S5R_frequency1.2 emissions_S5R_frequency1.2" vType="bus" speedFactor="1.00" vaporized="">
        <emissions CO_abs="2296.488494" CO2_abs="1447244.694451" HC_abs="476.929692" PMx_abs="245.939495" NOx_abs="11215.334032" fuel_abs="617.229429" electricity_abs="0"/>
    </tripinfo>
    <tripinfo id="carIn22761:1" depart="57616.00" departLane="-306240162#1_0" departPos="5.10" departSpeed="0.00" departDelay="2.10" arrival="57734.00" arrivalLane="399835085#1_1" arrivalPos="212.23" arrivalSpeed="8.09" duration="118.00" routeLength="1093.26" waitingTime="15.00" waitingCount="2" stopTime="0.00" timeLoss="39.97" rerouteNo="1" devices="tripinfo_carIn22761:1 routing_carIn22761:1 emissions_carIn22761:1" vType="default_016" speedFactor="1.00" vaporized="">
        <emissions CO_abs="7088.509360" CO2_abs="358410.790347" HC_abs="40.812351" PMx_abs="7.084461" NOx_abs="150.777949" fuel_abs="154.065732" electricity_abs="0"/>
    </tripinfo>
    <tripinfo id="h317c2:1" depart="57707.00" departLane="-32978638#0_1" departPos="5.10" departSpeed="0.00" departDelay="0.10" arrival="57734.00" arrivalLane="-266565295#5_1" arrivalPos="172.76" arrivalSpeed="17.92" duration="27.00" routeLength="370.53" waitingTime="0.00" waitingCount="0" stopTime="0.00" timeLoss="6.82" rerouteNo="1" devices="tripinfo_h317c2:1 routing_h317c2:1 emissions_h317c2:1" vType="default_016" speedFactor="1.33" vaporized="">
        <emissions CO_abs="1906.827282" CO2_abs="132636.760132" HC_abs="11.785393" PMx_abs="2.525278" NOx_abs="54.550540" fuel_abs="57.014554" electricity_abs="0"/>
    </tripinfo>
    <tripinfo id="h4538c1:1" depart="57701.00" departLane="-10427692#1_1" departPos="5.10" departSpeed="0.00" departDelay="0.00" arrival="57742.00" arrivalLane="-128361102#1_1" arrivalPos="274.68" arrivalSpeed="12.05" duration="41.00" routeLength="440.74" waitingTime="0.00" waitingCount="0" stopTime="0.00" timeLoss="7.11" rerouteNo="1" devices="tripinfo_h4538c1:1 routing_h4538c1:1 emissions_h4538c1:1" vType="default_016" speedFactor="0.93" vaporized="">
        <emissions CO_abs="1607.704899" CO2_abs="109923.418425" HC_abs="9.876918" PMx_abs="1.768901" NOx_abs="43.684532" fuel_abs="47.251584" electricity_abs="0"/>
    </tripinfo>
    <tripinfo id="h3568c1:3" depart="57656.00" departLane="266565295#5_1" departPos="5.10" departSpeed="0.00" departDelay="0.80" arrival="57746.00" arrivalLane="-24634415_1" arrivalPos="62.03" arrivalSpeed="14.14" duration="90.00" routeLength="807.40" waitingTime="7.00" waitingCount="1" stopTime="0.00" timeLoss="26.15" rerouteNo="1" devices="tripinfo_h3568c1:3 routing_h3568c1:3 emissions_h3568c1:3" vType="default_016" speedFactor="1.02" vaporized="">
        <emissions CO_abs="4217.917362" CO2_abs="244559.081028" HC_abs="24.954678" PMx_abs="4.432285" NOx_abs="100.825858" fuel_abs="105.125695" electricity_abs="0"/>
    </tripinfo>
    <tripinfo id="h3688c1:1" depart="57625.00" departLane="201201950#1_1" departPos="5.10" departSpeed="0.00" departDelay="0.00" arrival="57751.00" arrivalLane="32978638#0_1" arrivalPos="49.29" arrivalSpeed="13.18" duration="126.00" routeLength="1089.75" waitingTime="32.00" waitingCount="1" stopTime="0.00" timeLoss="46.52" rerouteNo="1" devices="tripinfo_h3688c1:1 routing_h3688c1:1 emissions_h3688c1:1" vType="default_016" speedFactor="1.00" vaporized="">
        <emissions CO_abs="8251.137098" CO2_abs="337625.763717" HC_abs="45.445664" PMx_abs="6.247497" NOx_abs="139.149465" fuel_abs="145.133127" electricity_abs="0"/>
    </tripinfo>
    <tripinfo id="carIn121703:1" depart="57647.00" departLane="386687232#0_1" departPos="5.10" departSpeed="0.00" departDelay="0.30" arrival="57755.00" arrivalLane="-315358244_1" arrivalPos="33.95" arrivalSpeed="14.18" duration="108.00" routeLength="1157.39" waitingTime="12.00" waitingCount="1" stopTime="0.00" timeLoss="26.07" rerouteNo="1" devices="tripinfo_carIn121703:1 routing_carIn121703:1 emissions_carIn121703:1" vType="default_016" speedFactor="1.03" vaporized="">
        <emissions CO_abs="4456.335403" CO2_abs="282914.271645" HC_abs="26.876919" PMx_abs="4.787397" NOx_abs="113.051518" fuel_abs="121.613279" electricity_abs="0"/>
    </tripinfo>
    <tripinfo id="h3326c1:2" depart="57656.00" departLane="22716069#0_1" departPos="5.10" departSpeed="0.00" departDelay="0.00" arrival="57762.00" arrivalLane="24634517#13_1" arrivalPos="111.62" arrivalSpeed="14.06" duration="106.00" routeLength="1312.81" waitingTime="0.00" waitingCount="0" stopTime="0.00" timeLoss="13.59" rerouteNo="1" devices="tripinfo_h3326c1:2 routing_h3326c1:2 emissions_h3326c1:2" vType="default_016" speedFactor="1.07" vaporized="">
        <emissions CO_abs="3867.574538" CO2_abs="302458.597819" HC_abs="24.633845" PMx_abs="5.186146" NOx_abs="121.372513" fuel_abs="130.013697" electricity_abs="0"/>
    </tripinfo>
    <tripinfo id="carIn80064:1" depart="57603.00" departLane="128361109#1_1" departPos="5.10" departSpeed="0.00" departDelay="0.40" arrival="57767.00" arrivalLane="-315358254#1_1" arrivalPos="137.16" arrivalSpeed="12.79" duration="164.00" routeLength="1587.97" waitingTime="40.00" waitingCount="4" stopTime="0.00" timeLoss="74.22" rerouteNo="1" devices="tripinfo_carIn80064:1 routing_carIn80064:1 emissions_carIn80064:1" vType="default_016" speedFactor="0.99" vaporized="">
        <emissions CO_abs="11344.308191" CO2_abs="556043.491903" HC_abs="64.933863" PMx_abs="11.108470" NOx_abs="232.771727" fuel_abs="239.020038" electricity_abs="0"/>
    </tripinfo>
    <tripinfo id="carIn30817:1" depart="57681.00" departLane="315358244_1" departPos="5.10" departSpeed="0.00" departDelay="0.20" arrival="57772.00" arrivalLane="447569997#1_1" arrivalPos="180.93" arrivalSpeed="7.11" duration="91.00" routeLength="718.04" waitingTime="11.00" waitingCount="1" stopTime="0.00" timeLoss="27.82" rerouteNo="1" devices="tripinfo_carIn30817:1 routing_carIn30817:1 emissions_carIn30817:1" vType="default_016" speedFactor="0.98" vaporized="">
        <emissions CO_abs="5282.758455" CO2_abs="234124.800135" HC_abs="29.488309" PMx_abs="4.233978" NOx_abs="96.786364" fuel_abs="100.641476" electricity_abs="0"/>
    </tripinfo>
    <tripinfo id="carIn27009:1" depart="57673.00" departLane="-447569998#1_1" departPos="5.10" departSpeed="0.00" departDelay="0.50" arrival="57778.00" arrivalLane="-26677539_1" arrivalPos="152.75" arrivalSpeed="7.26" duration="105.00" routeLength="699.63" waitingTime="0.00" waitingCount="0" stopTime="0.00" timeLoss="12.60" rerouteNo="1" devices="tripinfo_carIn27009:1 routing_carIn27009:1 emissions_carIn27009:1" vType="default_015" speedFactor="0.91" vaporized="">
        <emissions CO_abs="4118.048198" CO2_abs="175626.965752" HC_abs="22.748819" PMx_abs="2.739820" NOx_abs="70.746046" fuel_abs="75.496153" electricity_abs="0"/>
    </tripinfo>
    <tripinfo id="h3154c1:1" depart="57658.00" departLane="24634507_1" departPos="5.10" departSpeed="0.00" departDelay="0.00" arrival="57786.00" arrivalLane="-266565295#5_1" arrivalPos="172.76" arrivalSpeed="13.62" duration="128.00" routeLength="1206.22" waitingTime="23.00" waitingCount="2" stopTime="0.00" timeLoss="44.90" rerouteNo="1" devices="tripinfo_h3154c1:1 routing_h3154c1:1 emissions_h3154c1:1" vType="default_016" speedFactor="1.07" vaporized="">
        <emissions CO_abs="6661.714231" CO2_abs="349066.378808" HC_abs="38.509766" PMx_abs="6.444822" NOx_abs="143.649591" fuel_abs="150.049466" electricity_abs="0"/>
    </tripinfo>
    <tripinfo id="h11737c1:1" depart="57665.00" departLane="272042143_1" departPos="5.10" departSpeed="0.00" departDelay="1.50" arrival="57788.00" arrivalLane="-315358254#1_1" arrivalPos="137.16" arrivalSpeed="14.34" duration="123.00" routeLength="1596.88" waitingTime="0.00" waitingCount="0" stopTime="0.00" timeLoss="12.04" rerouteNo="1" devices="tripinfo_h11737c1:1 routing_h11737c1:1 emissions_h11737c1:1" vType="default_016" speedFactor="1.05" vaporized="">
        <emissions CO_abs="3358.450729" CO2_abs="309874.081468" HC_abs="22.481291" PMx_abs="4.963668" NOx_abs="121.296038" fuel_abs="133.201394" electricity_abs="0"/>
    </tripinfo>
    <tripinfo id="carIn12365:1" depart="57713.00" departLane="315358244_1" departPos="5.10" departSpeed="0.00" departDelay="0.50" arrival="57790.00" arrivalLane="447569997#1_1" arrivalPos="180.93" arrivalSpeed="6.16" duration="77.00" routeLength="718.04" waitingTime="0.00" waitingCount="0" stopTime="0.00" timeLoss="8.00" rerouteNo="1" devices="tripinfo_carIn12365:1 routing_carIn12365:1 emissions_carIn12365:1" vType="default_016" speedFactor="0.89" vaporized="">
        <emissions CO_abs="2267.687994" CO2_abs="141060.370688" HC_abs="13.551487" PMx_abs="2.041444" NOx_abs="54.872964" fuel_abs="60.636581" electricity_abs="0"/>
    </tripinfo>
    <tripinfo id="h5979c1:5" depart="57669.00" departLane="399835085#1_1" departPos="5.10" departSpeed="0.00" departDelay="0.00" arrival="57792.00" arrivalLane="-315358254#1_1" arrivalPos="137.16" arrivalSpeed="12.86" duration="123.00" routeLength="659.33" waitingTime="29.00" waitingCount="1" stopTime="0.00" timeLoss="45.26" rerouteNo="1" devices="tripinfo_h5979c1:5 routing_h5979c1:5 emissions_h5979c1:5" vType="default_016" speedFactor="0.94" vaporized="">
        <emissions CO_abs="8242.582160" CO2_abs="250325.646882" HC_abs="43.319405" PMx_abs="4.693162" NOx_abs="105.270563" fuel_abs="107.607511" electricity_abs="0"/>
    </tripinfo>
    <tripinfo id="h330c1:1" depart="57736.00" departLane="-32978638#0_1" departPos="5.10" departSpeed="0.00" departDelay="0.20" arrival="57792.00" arrivalLane="-266565295#5_1" arrivalPos="172.76" arrivalSpeed="15.06" duration="56.00" routeLength="370.53" waitingTime="23.00" waitingCount="1" stopTime="0.00" timeLoss="32.82" rerouteNo="1" devices="tripinfo_h330c1:1 routing_h330c1:1 emissions_h330c1:1" vType="default_016" speedFactor="1.17" vaporized="">
        <emissions CO_abs="5185.724748" CO2_abs="178945.825174" HC_abs="27.866899" PMx_abs="3.792946" NOx_abs="77.364182" fuel_abs="76.922261" electricity_abs="0"/>
    </tripinfo>
    <tripinfo id="carIn107282:1" depart="57749.00" departLane="-447569998#1_1" departPos="5.10" departSpeed="0.00" departDelay="0.00" arrival="57793.00" arrivalLane="315358242#0_1" arrivalPos="165.37" arrivalSpeed="14.17" duration="44.00" routeLength="448.50" waitingTime="0.00" waitingCount="0" stopTime="0.00" timeLoss="5.46" rerouteNo="1" devices="tripinfo_carIn107282:1 routing_carIn107282:1 emissions_carIn107282:1" vType="default_016" speedFactor="1.09" vaporized="">
        <emissions CO_abs="1884.466700" CO2_abs="113165.440871" HC_abs="11.212764" PMx_abs="1.873624" NOx_abs="45.504668" fuel_abs="48.645293" electricity_abs="0"/>
    </tripinfo>
    <tripinfo id="carIn50326:1" depart="57651.00" departLane="128361102#0_1" departPos="5.10" departSpeed="0.00" departDelay="0.30" arrival="57800.00" arrivalLane="18809673#0_1" arrivalPos="473.56" arrivalSpeed="13.93" duration="149.00" routeLength="1591.07" waitingTime="3.00" waitingCount="1" stopTime="0.00" timeLoss="27.15" rerouteNo="1" devices="tripinfo_carIn50326:1 routing_carIn50326:1 emissions_carIn50326:1" vType="default_016" speedFactor="1.07" vaporized="">
        <emissions CO_abs="5264.599335" CO2_abs="350965.352417" HC_abs="32.052798" PMx_abs="5.877112" NOx_abs="140.565208" fuel_abs="150.865436" electricity_abs="0"/>
    </tripinfo>
    <tripinfo id="carIn126288:1" depart="57674.00" departLane="272042143_1" departPos="5.10" departSpeed="0.00" departDelay="0.00" arrival="57801.00" arrivalLane="-315358254#1_1" arrivalPos="137.16" arrivalSpeed="13.28" duration="127.00" routeLength="1596.88" waitingTime="0.00" waitingCount="0" stopTime="0.00" timeLoss="12.92" rerouteNo="1" devices="tripinfo_carIn126288:1 routing_carIn126288:1 emissions_carIn126288:1" vType="default_016" speedFactor="1.02" vaporized="">
        <emissions CO_abs="3437.799806" CO2_abs="308661.723883" HC_abs="22.795259" PMx_abs="4.878303" NOx_abs="120.681407" fuel_abs="132.680404" electricity_abs="0"/>
    </tripinfo>
    <tripinfo id="carIn107084:1" depart="57601.00" departLane="124812856#0_1" departPos="5.10" departSpeed="0.00" departDelay="0.70" arrival="57806.00" arrivalLane="-128361102#1_1" arrivalPos="274.68" arrivalSpeed="12.72" duration="205.00" routeLength="2250.49" waitingTime="10.00" waitingCount="1" stopTime="0.00" timeLoss="36.80" rerouteNo="1" devices="tripinfo_carIn107084:1 routing_carIn107084:1 emissions_carIn107084:1" vType="default_016" speedFactor="0.97" vaporized="">
        <emissions CO_abs="7071.841774" CO2_abs="491145.078486" HC_abs="43.668898" PMx_abs="8.197968" NOx_abs="196.289057" fuel_abs="211.122724" electricity_abs="0"/>
    </tripinfo>
    <tripinfo id="carIn77943:1" depart="57608.00" departLane="124812856#0_1" departPos="5.10" departSpeed="0.00" departDelay="2.50" arrival="57811.00" arrivalLane="-128361102#1_1" arrivalPos="274.68" arrivalSpeed="13.02" duration="203.00" routeLength="2250.49" waitingTime="5.00" waitingCount="1" stopTime="0.00" timeLoss="38.85" rerouteNo="1" devices="tripinfo_carIn77943:1 routing_carIn77943:1 emissions_carIn77943:1" vType="default_016" speedFactor="1.00" vaporized="">
        <emissions CO_abs="6646.673912" CO2_abs="498484.291103" HC_abs="41.918940" PMx_abs="8.322605" NOx_abs="199.410570" fuel_abs="214.277069" electricity_abs="0"/>
    </tripinfo>
    <tripinfo id="h645c1:1" depart="57622.00" departLane="266565295#5_1" departPos="5.10" departSpeed="0.00" departDelay="0.40" arrival="57814.00" arrivalLane="-315358244_1" arrivalPos="33.95" arrivalSpeed="12.86" duration="192.00" routeLength="1910.83" waitingTime="23.00" waitingCount="4" stopTime="0.00" timeLoss="53.08" rerouteNo="1" devices="tripinfo_h645c1:1 routing_h645c1:1 emissions_h645c1:1" vType="default_016" speedFactor="1.00" vaporized="">
        <emissions CO_abs="8240.985455" CO2_abs="472881.317769" HC_abs="48.617128" PMx_abs="8.312166" NOx_abs="191.964571" fuel_abs="203.272458" electricity_abs="0"/>
    </tripinfo>
    <tripinfo id="carIn129809:1" depart="57729.00" departLane="-447569998#1_1" departPos="5.10" departSpeed="0.00" departDelay="1.00" arrival="57816.00" arrivalLane="-315358244_1" arrivalPos="33.95" arrivalSpeed="13.90" duration="87.00" routeLength="706.49" waitingTime="19.00" waitingCount="1" stopTime="0.00" timeLoss="30.07" rerouteNo="1" devices="tripinfo_carIn129809:1 routing_carIn129809:1 emissions_carIn129809:1" vType="default_015" speedFactor="1.07" vaporized="">
        <emissions CO_abs="4843.420412" CO2_abs="204872.099346" HC_abs="26.761313" PMx_abs="3.612831" NOx_abs="83.330124" fuel_abs="88.067239" electricity_abs="0"/>
    </tripinfo>
    <tripinfo id="h17600c1:1" depart="57662.00" departLane="272042143_1" departPos="5.10" departSpeed="0.00" departDelay="0.30" arrival="57819.00" arrivalLane="201238729#3_1" arrivalPos="431.02" arrivalSpeed="13.49" duration="157.00" routeLength="2100.26" waitingTime="0.00" waitingCount="0" stopTime="0.00" timeLoss="12.01" rerouteNo="1" devices="tripinfo_h17600c1:1 routing_h17600c1:1 emissions_h17600c1:1" vType="default_016" speedFactor="1.05" vaporized="">
        <emissions CO_abs="3368.990990" CO2_abs="378310.350134" HC_abs="23.981783" PMx_abs="5.538121" NOx_abs="143.571163" fuel_abs="162.619447" electricity_abs="0"/>
    </tripinfo>
    <tripinfo id="carIn118591:1" depart="57689.00" departLane="315358244_1" departPos="5.10" departSpeed="0.00" departDelay="0.20" arrival="57819.00" arrivalLane="386687235_1" arrivalPos="80.84" arrivalSpeed="14.40" duration="130.00" routeLength="1186.14" waitingTime="25.00" waitingCount="2" stopTime="0.00" timeLoss="47.99" rerouteNo="1" devices="tripinfo_carIn118591:1 routing_carIn118591:1 emissions_carIn118591:1" vType="default_016" speedFactor="1.06" vaporized="">
        <emissions CO_abs="7240.925777" CO2_abs="372471.323351" HC_abs="41.623239" PMx_abs="6.763407" NOx_abs="152.563342" fuel_abs="160.110578" electricity_abs="0"/>
    </tripinfo>
    <tripinfo id="h16072c2:3" depart="57663.00" departLane="315358254#0_1" departPos="5.10" departSpeed="0.00" departDelay="2.50" arrival="57824.00" arrivalLane="386687235_2" arrivalPos="80.84" arrivalSpeed="12.83" duration="161.00" routeLength="1611.92" waitingTime="13.00" waitingCount="2" stopTime="0.00" timeLoss="37.78" rerouteNo="1" devices="tripinfo_h16072c2:3 routing_h16072c2:3 emissions_h16072c2:3" vType="default_016" speedFactor="0.96" vaporized="">
        <emissions CO_abs="5859.720138" CO2_abs="377222.767904" HC_abs="35.478391" PMx_abs="6.296455" NOx_abs="151.202391" fuel_abs="162.152610" electricity_abs="0"/>
    </tripinfo>
    <tripinfo id="carIn48184:1" depart="57613.00" departLane="-306240162#1_0" departPos="5.10" departSpeed="0.00" departDelay="0.70" arrival="57825.00" arrivalLane="386687235_1" arrivalPos="80.84" arrivalSpeed="11.81" duration="212.00" routeLength="2257.41" waitingTime="18.00" waitingCount="3" stopTime="0.00" timeLoss="47.16" rerouteNo="1" devices="tripinfo_carIn48184:1 routing_carIn48184:1 emissions_carIn48184:1" vType="default_016" speedFactor="0.90" vaporized="">
        <emissions CO_abs="7280.085492" CO2_abs="486610.678339" HC_abs="44.472679" PMx_abs="8.088708" NOx_abs="193.445865" fuel_abs="209.173939" electricity_abs="0"/>
    </tripinfo>
    <tripinfo id="carIn81046:1" depart="57611.00" departLane="124812856#0_1" departPos="5.10" departSpeed="0.00" departDelay="2.50" arrival="57827.00" arrivalLane="-128361102#1_1" arrivalPos="274.68" arrivalSpeed="12.67" duration="216.00" routeLength="2250.49" waitingTime="12.00" waitingCount="2" stopTime="0.00" timeLoss="46.25" rerouteNo="1" devices="tripinfo_carIn81046:1 routing_carIn81046:1 emissions_carIn81046:1" vType="default_016" speedFactor="0.97" vaporized="">
        <emissions CO_abs="8094.409383" CO2_abs="543571.263786" HC_abs="49.583097" PMx_abs="9.290010" NOx_abs="219.369355" fuel_abs="233.658372" electricity_abs="0"/>
    </tripinfo>
    <tripinfo id="carIn77438:1" depart="57614.00" departLane="124812856#0_1" departPos="5.10" departSpeed="0.00" departDelay="1.10" arrival="57829.00" arrivalLane="-128361102#1_1" arrivalPos="274.68" arrivalSpeed="13.60" duration="215.00" routeLength="2250.49" waitingTime="9.00" waitingCount="2" stopTime="0.00" timeLoss="47.53" rerouteNo="1" devices="tripinfo_carIn77438:1 routing_carIn77438:1 emissions_carIn77438:1" vType="default_016" speedFactor="0.98" vaporized="">
        <emissions CO_abs="8234.067700" CO2_abs="550294.024333" HC_abs="50.418422" PMx_abs="9.539782" NOx_abs="223.026200" fuel_abs="236.548027" electricity_abs="0"/>
    </tripinfo>
    <tripinfo id="carIn86816:1" depart="57617.00" departLane="128361102#0_1" departPos="5.10" departSpeed="0.00" departDelay="0.80" arrival="57831.00" arrivalLane="201956811#0_1" arrivalPos="40.40" arrivalSpeed="10.99" duration="214.00" routeLength="2067.33" waitingTime="15.00" waitingCount="2" stopTime="0.00" timeLoss="40.51" rerouteNo="1" devices="tripinfo_carIn86816:1 routing_carIn86816:1 emissions_carIn86816:1" vType="default_016" speedFactor="0.87" vaporized="">
        <emissions CO_abs="6794.247124" CO2_abs="435273.542374" HC_abs="41.027241" PMx_abs="6.933692" NOx_abs="172.905074" fuel_abs="187.106737" electricity_abs="0"/>
    </tripinfo>
    <tripinfo id="carIn28951:1" depart="57606.00" departLane="10425609#0_1" departPos="5.10" departSpeed="0.00" departDelay="0.20" arrival="57832.00" arrivalLane="-128361102#1_1" arrivalPos="274.68" arrivalSpeed="12.84" duration="226.00" routeLength="2113.04" waitingTime="25.00" waitingCount="3" stopTime="0.00" timeLoss="60.71" rerouteNo="1" devices="tripinfo_carIn28951:1 routing_carIn28951:1 emissions_carIn28951:1" vType="default_016" speedFactor="0.93" vaporized="">
        <emissions CO_abs="9550.740095" CO2_abs="521976.986949" HC_abs="55.664253" PMx_abs="8.909532" NOx_abs="210.942586" fuel_abs="224.377407" electricity_abs="0"/>
    </tripinfo>
    <tripinfo id="carIn102915:1" depart="57643.00" departLane="128361102#0_1" departPos="5.10" departSpeed="0.00" departDelay="0.40" arrival="57833.00" arrivalLane="201956811#0_1" arrivalPos="40.40" arrivalSpeed="13.36" duration="190.00" routeLength="2067.33" waitingTime="14.00" waitingCount="2" stopTime="0.00" timeLoss="45.58" rerouteNo="1" devices="tripinfo_carIn102915:1 routing_carIn102915:1 emissions_carIn102915:1" vType="default_016" speedFactor="1.05" vaporized="">
        <emissions CO_abs="6530.285684" CO2_abs="472995.505226" HC_abs="40.732316" PMx_abs="8.073309" NOx_abs="189.858219" fuel_abs="203.320486" electricity_abs="0"/>
    </tripinfo>
    <tripinfo id="carIn81860:1" depart="57712.00" departLane="128361102#0_1" departPos="5.10" departSpeed="0.00" departDelay="0.60" arrival="57833.00" arrivalLane="-24634517#17_1" arrivalPos="6.43" arrivalSpeed="7.24" duration="121.00" routeLength="1229.64" waitingTime="17.00" waitingCount="1" stopTime="0.00" timeLoss="33.49" rerouteNo="1" devices="tripinfo_carIn81860:1 routing_carIn81860:1 emissions_carIn81860:1" vType="default_016" speedFactor="1.04" vaporized="">
        <emissions CO_abs="5655.868056" CO2_abs="293824.959553" HC_abs="32.607054" PMx_abs="5.310215" NOx_abs="120.159901" fuel_abs="126.303640" electricity_abs="0"/>
    </tripinfo>
    <tripinfo id="h17549c1:1" depart="57680.00" departLane="-447569998#1_1" departPos="5.10" departSpeed="0.00" departDelay="0.00" arrival="57836.00" arrivalLane="-315358254#1_1" arrivalPos="137.16" arrivalSpeed="14.25" duration="156.00" routeLength="1746.60" waitingTime="13.00" waitingCount="1" stopTime="0.00" timeLoss="33.20" rerouteNo="1" devices="tripinfo_h17549c1:1 routing_h17549c1:1 emissions_h17549c1:1" vType="default_016" speedFactor="1.11" vaporized="">
        <emissions CO_abs="5900.394856" CO2_abs="398930.026941" HC_abs="35.987938" PMx_abs="6.755226" NOx_abs="159.105935" fuel_abs="171.483374" electricity_abs="0"/>
    </tripinfo>
    <tripinfo id="h9953c2:3" depart="57682.00" departLane="-54169231#2_1" departPos="5.10" departSpeed="0.00" departDelay="0.00" arrival="57843.00" arrivalLane="386687235_1" arrivalPos="80.84" arrivalSpeed="13.85" duration="161.00" routeLength="1535.60" waitingTime="16.00" waitingCount="3" stopTime="0.00" timeLoss="44.39" rerouteNo="1" devices="tripinfo_h9953c2:3 routing_h9953c2:3 emissions_h9953c2:3" vType="default_016" speedFactor="1.08" vaporized="">
        <emissions CO_abs="7605.189188" CO2_abs="456406.653775" HC_abs="45.264867" PMx_abs="8.200211" NOx_abs="186.821474" fuel_abs="196.190038" electricity_abs="0"/>
    </tripinfo>
    <tripinfo id="carIn462:1" depart="57622.00" departLane="-306240162#1_0" departPos="5.10" departSpeed="0.00" departDelay="4.80" arrival="57846.00" arrivalLane="386687235_2" arrivalPos="80.84" arrivalSpeed="13.92" duration="224.00" routeLength="2257.41" waitingTime="38.00" waitingCount="3" stopTime="0.00" timeLoss="86.32" rerouteNo="1" devices="tripinfo_carIn462:1 routing_carIn462:1 emissions_carIn462:1" vType="default_016" speedFactor="1.08" vaporized="">
        <emissions CO_abs="12536.054062" CO2_abs="650355.183699" HC_abs="72.427109" PMx_abs="12.343971" NOx_abs="268.772471" fuel_abs="279.561000" electricity_abs="0"/>
    </tripinfo>
    <tripinfo id="h20540c1:1" depart="57634.00" departLane="10425609#0_1" departPos="5.10" departSpeed="0.00" departDelay="0.50" arrival="57846.00" arrivalLane="-128361102#1_1" arrivalPos="274.68" arrivalSpeed="13.16" duration="212.00" routeLength="2113.04" waitingTime="16.00" waitingCount="3" stopTime="0.00" timeLoss="54.76" rerouteNo="1" devices="tripinfo_h20540c1:1 routing_h20540c1:1 emissions_h20540c1:1" vType="default_016" speedFactor="0.99" vaporized="">
        <emissions CO_abs="7873.695125" CO2_abs="519644.254423" HC_abs="48.003236" PMx_abs="8.737893" NOx_abs="208.800703" fuel_abs="223.373496" electricity_abs="0"/>
    </tripinfo>