<?xml version="1.0" encoding="UTF-8"?>

<!-- generated on 2021-10-26 20:25:56 by Eclipse SUMO sumo Version 1.10.0
<configuration xmlns:xsi="http://www.w3.org/2001/XMLSchema-instance" xsi:noNamespaceSchemaLocation="http://sumo.dlr.de/xsd/sumoConfiguration.xsd">

    <input>
        <net-file value="/Users/behradkoohy/sumo-scratchpad/RESCO/environments/ingolstadt21/ingolstadt21.net.xml"/>
        <route-files value="/Users/behradkoohy/sumo-scratchpad/RESCO/environments/ingolstadt21/ingolstadt21.rou.xml"/>
    </input>

    <output>
        <tripinfo-output value="/Users/behradkoohy/sumo-scratchpad/RESCO/logs/MPLight-tr0-ingolstadt21-21-mplight-pressure/tripinfo_91.xml"/>
        <tripinfo-output.write-unfinished value="true"/>
    </output>

    <time>
        <begin value="57600"/>
        <end value="61200"/>
    </time>

    <processing>
        <time-to-teleport value="-1"/>
    </processing>

    <report>
        <no-warnings value="true"/>
        <no-step-log value="true"/>
    </report>

    <emissions>
        <device.emissions.probability value="1"/>
    </emissions>

    <traci_server>
        <remote-port value="64278"/>
    </traci_server>

    <random_number>
        <random value="true"/>
    </random_number>

</configuration>
-->

<tripinfos xmlns:xsi="http://www.w3.org/2001/XMLSchema-instance" xsi:noNamespaceSchemaLocation="http://sumo.dlr.de/xsd/tripinfo_file.xsd">
    <tripinfo id="h15454c2:3" depart="57612.00" departLane="24608844_1" departPos="5.10" departSpeed="0.00" departDelay="0.50" arrival="57652.00" arrivalLane="32978638#0_1" arrivalPos="49.29" arrivalSpeed="13.94" duration="40.00" routeLength="354.79" waitingTime="0.00" waitingCount="0" stopTime="0.00" timeLoss="8.22" rerouteNo="1" devices="tripinfo_h15454c2:3 routing_h15454c2:3 emissions_h15454c2:3" vType="default_016" speedFactor="1.07" vaporized="">
        <emissions CO_abs="2208.311173" CO2_abs="116568.909462" HC_abs="12.791117" PMx_abs="2.132306" NOx_abs="48.596889" fuel_abs="50.108184" electricity_abs="0"/>
    </tripinfo>
    <tripinfo id="carIn60260:1" depart="57606.00" departLane="315358254#0_1" departPos="5.10" departSpeed="0.00" departDelay="0.90" arrival="57672.00" arrivalLane="399835085#1_1" arrivalPos="212.23" arrivalSpeed="7.67" duration="66.00" routeLength="430.98" waitingTime="10.00" waitingCount="1" stopTime="0.00" timeLoss="21.48" rerouteNo="1" devices="tripinfo_carIn60260:1 routing_carIn60260:1 emissions_carIn60260:1" vType="default_016" speedFactor="1.05" vaporized="">
        <emissions CO_abs="3147.718337" CO2_abs="131519.967240" HC_abs="17.368323" PMx_abs="2.275122" NOx_abs="54.031903" fuel_abs="56.535784" electricity_abs="0"/>
    </tripinfo>
    <tripinfo id="carIn53971:1" depart="57640.00" departLane="272042143_1" departPos="5.10" departSpeed="0.00" departDelay="0.80" arrival="57698.00" arrivalLane="24634414#1_1" arrivalPos="162.19" arrivalSpeed="7.31" duration="58.00" routeLength="493.04" waitingTime="0.00" waitingCount="0" stopTime="0.00" timeLoss="9.34" rerouteNo="1" devices="tripinfo_carIn53971:1 routing_carIn53971:1 emissions_carIn53971:1" vType="default_016" speedFactor="0.94" vaporized="">
        <emissions CO_abs="2488.320539" CO2_abs="136017.490069" HC_abs="14.494942" PMx_abs="2.321034" NOx_abs="55.498861" fuel_abs="58.468522" electricity_abs="0"/>
    </tripinfo>
    <tripinfo id="h3688c1:1" depart="57625.00" departLane="201201950#1_1" departPos="5.10" departSpeed="0.00" departDelay="0.00" arrival="57718.00" arrivalLane="32978638#0_1" arrivalPos="49.29" arrivalSpeed="16.08" duration="93.00" routeLength="1089.75" waitingTime="9.00" waitingCount="1" stopTime="0.00" timeLoss="24.05" rerouteNo="1" devices="tripinfo_h3688c1:1 routing_h3688c1:1 emissions_h3688c1:1" vType="default_016" speedFactor="1.16" vaporized="">
        <emissions CO_abs="4807.697357" CO2_abs="307640.839585" HC_abs="29.041007" PMx_abs="5.687989" NOx_abs="125.911993" fuel_abs="132.241444" electricity_abs="0"/>
    </tripinfo>
    <tripinfo id="h7800c1:5" depart="57696.00" departLane="-447569998#1_1" departPos="5.10" departSpeed="0.00" departDelay="0.00" arrival="57722.00" arrivalLane="-447569998#1_1" arrivalPos="180.76" arrivalSpeed="6.84" duration="26.00" routeLength="175.66" waitingTime="0.00" waitingCount="0" stopTime="0.00" timeLoss="3.62" rerouteNo="1" devices="tripinfo_h7800c1:5 routing_h7800c1:5 emissions_h7800c1:5" vType="default_016" speedFactor="0.95" vaporized="">
        <emissions CO_abs="1085.046414" CO2_abs="44953.703334" HC_abs="5.972389" PMx_abs="0.749949" NOx_abs="18.420089" fuel_abs="19.324045" electricity_abs="0"/>
    </tripinfo>
    <tripinfo id="h12244c1:3" depart="57612.00" departLane="315358244_1" departPos="5.10" departSpeed="0.00" departDelay="0.40" arrival="57727.00" arrivalLane="386687235_1" arrivalPos="80.84" arrivalSpeed="13.09" duration="115.00" routeLength="1186.14" waitingTime="13.00" waitingCount="1" stopTime="0.00" timeLoss="28.18" rerouteNo="1" devices="tripinfo_h12244c1:3 routing_h12244c1:3 emissions_h12244c1:3" vType="default_016" speedFactor="0.99" vaporized="">
        <emissions CO_abs="4295.335915" CO2_abs="264094.843683" HC_abs="25.706213" PMx_abs="4.346355" NOx_abs="104.994009" fuel_abs="113.523859" electricity_abs="0"/>
    </tripinfo>
    <tripinfo id="carIn121703:1" depart="57647.00" departLane="386687232#0_1" departPos="5.10" departSpeed="0.00" departDelay="0.30" arrival="57732.00" arrivalLane="-315358244_1" arrivalPos="33.95" arrivalSpeed="15.19" duration="85.00" routeLength="1157.39" waitingTime="0.00" waitingCount="0" stopTime="0.00" timeLoss="8.88" rerouteNo="1" devices="tripinfo_carIn121703:1 routing_carIn121703:1 emissions_carIn121703:1" vType="default_016" speedFactor="1.12" vaporized="">
        <emissions CO_abs="2304.144044" CO2_abs="214342.626379" HC_abs="15.272804" PMx_abs="3.391191" NOx_abs="82.993437" fuel_abs="92.136653" electricity_abs="0"/>
    </tripinfo>
    <tripinfo id="h4538c1:1" depart="57701.00" departLane="-10427692#1_1" departPos="5.10" departSpeed="0.00" departDelay="0.00" arrival="57741.00" arrivalLane="-128361102#1_1" arrivalPos="274.68" arrivalSpeed="17.30" duration="40.00" routeLength="440.74" waitingTime="4.00" waitingCount="1" stopTime="0.00" timeLoss="14.11" rerouteNo="1" devices="tripinfo_h4538c1:1 routing_h4538c1:1 emissions_h4538c1:1" vType="default_016" speedFactor="1.25" vaporized="">
        <emissions CO_abs="2016.214408" CO2_abs="137101.865646" HC_abs="12.219064" PMx_abs="2.428676" NOx_abs="55.046912" fuel_abs="58.934209" electricity_abs="0"/>
    </tripinfo>
    <tripinfo id="h3568c1:3" depart="57656.00" departLane="266565295#5_1" departPos="5.10" departSpeed="0.00" departDelay="0.80" arrival="57748.00" arrivalLane="-24634415_1" arrivalPos="62.03" arrivalSpeed="12.30" duration="92.00" routeLength="807.40" waitingTime="5.00" waitingCount="1" stopTime="0.00" timeLoss="24.00" rerouteNo="1" devices="tripinfo_h3568c1:3 routing_h3568c1:3 emissions_h3568c1:3" vType="default_016" speedFactor="0.94" vaporized="">
        <emissions CO_abs="3831.455639" CO2_abs="222359.588101" HC_abs="22.670056" PMx_abs="3.999594" NOx_abs="91.815006" fuel_abs="95.583073" electricity_abs="0"/>
    </tripinfo>
    <tripinfo id="S5R_frequency1.2" depart="57616.00" departLane="315358250#0_1" departPos="12.10" departSpeed="0.00" departDelay="4.40" arrival="57750.00" arrivalLane="386687235_1" arrivalPos="80.84" arrivalSpeed="12.97" duration="134.00" routeLength="1115.62" waitingTime="20.00" waitingCount="3" stopTime="0.00" timeLoss="52.97" rerouteNo="1" devices="tripinfo_S5R_frequency1.2 routing_S5R_frequency1.2 emissions_S5R_frequency1.2" vType="bus" speedFactor="1.00" vaporized="">
        <emissions CO_abs="2583.607626" CO2_abs="1486869.534396" HC_abs="548.807651" PMx_abs="273.737079" NOx_abs="11899.411488" fuel_abs="634.085104" electricity_abs="0"/>
    </tripinfo>
    <tripinfo id="carIn22761:1" depart="57616.00" departLane="-306240162#1_0" departPos="5.10" departSpeed="0.00" departDelay="2.10" arrival="57751.00" arrivalLane="399835085#1_1" arrivalPos="212.23" arrivalSpeed="8.62" duration="135.00" routeLength="1093.26" waitingTime="44.00" waitingCount="1" stopTime="0.00" timeLoss="63.57" rerouteNo="1" devices="tripinfo_carIn22761:1 routing_carIn22761:1 emissions_carIn22761:1" vType="default_016" speedFactor="1.10" vaporized="">
        <emissions CO_abs="11189.573332" CO2_abs="404846.465085" HC_abs="60.581523" PMx_abs="8.358106" NOx_abs="171.424518" fuel_abs="174.028780" electricity_abs="0"/>
    </tripinfo>
    <tripinfo id="h5979c1:5" depart="57669.00" departLane="399835085#1_1" departPos="5.10" departSpeed="0.00" departDelay="0.00" arrival="57751.00" arrivalLane="-315358254#1_1" arrivalPos="137.16" arrivalSpeed="14.01" duration="82.00" routeLength="659.33" waitingTime="0.00" waitingCount="0" stopTime="0.00" timeLoss="12.04" rerouteNo="1" devices="tripinfo_h5979c1:5 routing_h5979c1:5 emissions_h5979c1:5" vType="default_016" speedFactor="1.04" vaporized="">
        <emissions CO_abs="3425.527231" CO2_abs="174745.308416" HC_abs="19.645009" PMx_abs="2.937462" NOx_abs="71.206796" fuel_abs="75.116318" electricity_abs="0"/>
    </tripinfo>
    <tripinfo id="carIn30817:1" depart="57681.00" departLane="315358244_1" departPos="5.10" departSpeed="0.00" departDelay="0.20" arrival="57763.00" arrivalLane="447569997#1_1" arrivalPos="180.93" arrivalSpeed="7.55" duration="82.00" routeLength="718.04" waitingTime="3.00" waitingCount="1" stopTime="0.00" timeLoss="14.78" rerouteNo="1" devices="tripinfo_carIn30817:1 routing_carIn30817:1 emissions_carIn30817:1" vType="default_016" speedFactor="0.92" vaporized="">
        <emissions CO_abs="2731.766014" CO2_abs="164732.414211" HC_abs="16.250335" PMx_abs="2.624645" NOx_abs="65.603019" fuel_abs="70.812015" electricity_abs="0"/>
    </tripinfo>
    <tripinfo id="h317c2:1" depart="57707.00" departLane="-32978638#0_1" departPos="5.10" departSpeed="0.00" departDelay="0.10" arrival="57766.00" arrivalLane="-266565295#5_1" arrivalPos="172.76" arrivalSpeed="12.20" duration="59.00" routeLength="370.53" waitingTime="21.00" waitingCount="1" stopTime="0.00" timeLoss="30.34" rerouteNo="1" devices="tripinfo_h317c2:1 routing_h317c2:1 emissions_h317c2:1" vType="default_016" speedFactor="0.96" vaporized="">
        <emissions CO_abs="4770.065834" CO2_abs="165037.140158" HC_abs="25.588502" PMx_abs="3.206633" NOx_abs="69.415507" fuel_abs="70.943866" electricity_abs="0"/>
    </tripinfo>
    <tripinfo id="h330c1:1" depart="57736.00" departLane="-32978638#0_1" departPos="5.10" departSpeed="0.00" departDelay="0.20" arrival="57768.00" arrivalLane="-266565295#5_1" arrivalPos="172.76" arrivalSpeed="14.36" duration="32.00" routeLength="370.53" waitingTime="0.00" waitingCount="0" stopTime="0.00" timeLoss="6.22" rerouteNo="1" devices="tripinfo_h330c1:1 routing_h330c1:1 emissions_h330c1:1" vType="default_016" speedFactor="1.08" vaporized="">
        <emissions CO_abs="1709.897318" CO2_abs="116229.234197" HC_abs="10.537312" PMx_abs="2.114292" NOx_abs="47.656337" fuel_abs="49.961844" electricity_abs="0"/>
    </tripinfo>
    <tripinfo id="carIn27009:1" depart="57673.00" departLane="-447569998#1_1" departPos="5.10" departSpeed="0.00" departDelay="0.50" arrival="57781.00" arrivalLane="-26677539_1" arrivalPos="152.75" arrivalSpeed="8.40" duration="108.00" routeLength="699.63" waitingTime="12.00" waitingCount="1" stopTime="0.00" timeLoss="28.03" rerouteNo="1" devices="tripinfo_carIn27009:1 routing_carIn27009:1 emissions_carIn27009:1" vType="default_015" speedFactor="1.04" vaporized="">
        <emissions CO_abs="5207.356487" CO2_abs="207987.349350" HC_abs="28.491594" PMx_abs="3.508366" NOx_abs="85.133591" fuel_abs="89.406716" electricity_abs="0"/>
    </tripinfo>
    <tripinfo id="carIn12365:1" depart="57713.00" departLane="315358244_1" departPos="5.10" departSpeed="0.00" departDelay="0.50" arrival="57786.00" arrivalLane="447569997#1_1" arrivalPos="180.93" arrivalSpeed="7.07" duration="73.00" routeLength="718.04" waitingTime="0.00" waitingCount="0" stopTime="0.00" timeLoss="7.32" rerouteNo="1" devices="tripinfo_carIn12365:1 routing_carIn12365:1 emissions_carIn12365:1" vType="default_016" speedFactor="0.94" vaporized="">
        <emissions CO_abs="2229.624395" CO2_abs="147814.556500" HC_abs="13.547904" PMx_abs="2.176382" NOx_abs="57.500228" fuel_abs="63.539795" electricity_abs="0"/>
    </tripinfo>
    <tripinfo id="h3326c1:2" depart="57656.00" departLane="22716069#0_1" departPos="5.10" departSpeed="0.00" departDelay="0.00" arrival="57791.00" arrivalLane="24634517#13_1" arrivalPos="111.62" arrivalSpeed="11.42" duration="135.00" routeLength="1312.81" waitingTime="7.00" waitingCount="1" stopTime="0.00" timeLoss="25.63" rerouteNo="1" devices="tripinfo_h3326c1:2 routing_h3326c1:2 emissions_h3326c1:2" vType="default_016" speedFactor="0.89" vaporized="">
        <emissions CO_abs="4765.388556" CO2_abs="315493.621914" HC_abs="29.031748" PMx_abs="5.098677" NOx_abs="125.766314" fuel_abs="135.617881" electricity_abs="0"/>
    </tripinfo>
    <tripinfo id="carIn77943:1" depart="57608.00" departLane="124812856#0_1" departPos="5.10" departSpeed="0.00" departDelay="2.50" arrival="57793.00" arrivalLane="-128361102#1_1" arrivalPos="274.68" arrivalSpeed="15.42" duration="185.00" routeLength="2250.49" waitingTime="6.00" waitingCount="1" stopTime="0.00" timeLoss="37.50" rerouteNo="1" devices="tripinfo_carIn77943:1 routing_carIn77943:1 emissions_carIn77943:1" vType="default_016" speedFactor="1.12" vaporized="">
        <emissions CO_abs="6650.117731" CO2_abs="510850.640416" HC_abs="42.042874" PMx_abs="8.698176" NOx_abs="203.801555" fuel_abs="219.592563" electricity_abs="0"/>
    </tripinfo>
    <tripinfo id="h11737c1:1" depart="57665.00" departLane="272042143_1" departPos="5.10" departSpeed="0.00" departDelay="1.50" arrival="57798.00" arrivalLane="-315358254#1_1" arrivalPos="137.16" arrivalSpeed="12.88" duration="133.00" routeLength="1596.88" waitingTime="0.00" waitingCount="0" stopTime="0.00" timeLoss="13.42" rerouteNo="1" devices="tripinfo_h11737c1:1 routing_h11737c1:1 emissions_h11737c1:1" vType="default_016" speedFactor="0.98" vaporized="">
        <emissions CO_abs="3661.976537" CO2_abs="310452.242067" HC_abs="23.908206" PMx_abs="4.927869" NOx_abs="122.067903" fuel_abs="133.450168" electricity_abs="0"/>
    </tripinfo>
    <tripinfo id="carIn129809:1" depart="57729.00" departLane="-447569998#1_1" departPos="5.10" departSpeed="0.00" departDelay="1.00" arrival="57804.00" arrivalLane="-315358244_1" arrivalPos="33.95" arrivalSpeed="15.39" duration="75.00" routeLength="706.49" waitingTime="2.00" waitingCount="1" stopTime="0.00" timeLoss="20.96" rerouteNo="1" devices="tripinfo_carIn129809:1 routing_carIn129809:1 emissions_carIn129809:1" vType="default_015" speedFactor="1.13" vaporized="">
        <emissions CO_abs="2823.190566" CO2_abs="178039.679516" HC_abs="16.922910" PMx_abs="2.915405" NOx_abs="70.512822" fuel_abs="76.532134" electricity_abs="0"/>
    </tripinfo>
    <tripinfo id="carIn86816:1" depart="57617.00" departLane="128361102#0_1" departPos="5.10" departSpeed="0.00" departDelay="0.80" arrival="57812.00" arrivalLane="201956811#0_1" arrivalPos="40.40" arrivalSpeed="12.80" duration="195.00" routeLength="2067.33" waitingTime="8.00" waitingCount="1" stopTime="0.00" timeLoss="31.29" rerouteNo="1" devices="tripinfo_carIn86816:1 routing_carIn86816:1 emissions_carIn86816:1" vType="default_016" speedFactor="0.92" vaporized="">
        <emissions CO_abs="6323.676465" CO2_abs="441148.128003" HC_abs="39.076725" PMx_abs="7.187795" NOx_abs="175.754140" fuel_abs="189.631315" electricity_abs="0"/>
    </tripinfo>
    <tripinfo id="randUni10474:1" depart="57605.00" departLane="124812856#0_1" departPos="5.10" departSpeed="0.00" departDelay="0.20" arrival="57813.00" arrivalLane="306240162#0_0" arrivalPos="220.43" arrivalSpeed="17.56" duration="208.00" routeLength="3049.32" waitingTime="0.00" waitingCount="0" stopTime="0.00" timeLoss="32.91" rerouteNo="1" devices="tripinfo_randUni10474:1 routing_randUni10474:1 emissions_randUni10474:1" vType="random_016" speedFactor="1.13" vaporized="">
        <emissions CO_abs="9465.532499" CO2_abs="753136.781716" HC_abs="60.768620" PMx_abs="14.053082" NOx_abs="304.161501" fuel_abs="323.739157" electricity_abs="0"/>
    </tripinfo>
    <tripinfo id="carIn48184:1" depart="57613.00" departLane="-306240162#1_0" departPos="5.10" departSpeed="0.00" departDelay="0.70" arrival="57814.00" arrivalLane="386687235_1" arrivalPos="80.84" arrivalSpeed="13.48" duration="201.00" routeLength="2257.41" waitingTime="18.00" waitingCount="2" stopTime="0.00" timeLoss="50.20" rerouteNo="1" devices="tripinfo_carIn48184:1 routing_carIn48184:1 emissions_carIn48184:1" vType="default_016" speedFactor="0.99" vaporized="">
        <emissions CO_abs="7992.163903" CO2_abs="532432.889485" HC_abs="48.911884" PMx_abs="9.230523" NOx_abs="213.503479" fuel_abs="228.870540" electricity_abs="0"/>
    </tripinfo>
    <tripinfo id="carIn102915:1" depart="57643.00" departLane="128361102#0_1" departPos="5.10" departSpeed="0.00" departDelay="0.40" arrival="57814.00" arrivalLane="201956811#0_1" arrivalPos="40.40" arrivalSpeed="14.48" duration="171.00" routeLength="2067.33" waitingTime="7.00" waitingCount="1" stopTime="0.00" timeLoss="35.84" rerouteNo="1" devices="tripinfo_carIn102915:1 routing_carIn102915:1 emissions_carIn102915:1" vType="default_016" speedFactor="1.13" vaporized="">
        <emissions CO_abs="6773.793853" CO2_abs="509869.809700" HC_abs="42.766735" PMx_abs="8.796617" NOx_abs="204.214775" fuel_abs="219.170912" electricity_abs="0"/>
    </tripinfo>
    <tripinfo id="carIn81860:1" depart="57712.00" departLane="128361102#0_1" departPos="5.10" departSpeed="0.00" departDelay="0.60" arrival="57821.00" arrivalLane="-24634517#17_1" arrivalPos="6.43" arrivalSpeed="8.13" duration="109.00" routeLength="1229.64" waitingTime="0.00" waitingCount="0" stopTime="0.00" timeLoss="15.29" rerouteNo="1" devices="tripinfo_carIn81860:1 routing_carIn81860:1 emissions_carIn81860:1" vType="default_016" speedFactor="0.96" vaporized="">
        <emissions CO_abs="3370.921744" CO2_abs="256689.714997" HC_abs="21.329354" PMx_abs="4.094052" NOx_abs="101.379179" fuel_abs="110.340184" electricity_abs="0"/>
    </tripinfo>
    <tripinfo id="carIn80064:1" depart="57603.00" departLane="128361109#1_1" departPos="5.10" departSpeed="0.00" departDelay="0.40" arrival="57823.00" arrivalLane="-315358254#1_1" arrivalPos="137.16" arrivalSpeed="9.48" duration="220.00" routeLength="1587.97" waitingTime="66.00" waitingCount="3" stopTime="0.00" timeLoss="99.03" rerouteNo="1" devices="tripinfo_carIn80064:1 routing_carIn80064:1 emissions_carIn80064:1" vType="default_016" speedFactor="0.74" vaporized="">
        <emissions CO_abs="14090.150333" CO2_abs="520687.694489" HC_abs="76.409199" PMx_abs="10.204856" NOx_abs="218.973281" fuel_abs="223.825077" electricity_abs="0"/>
    </tripinfo>
    <tripinfo id="randUni15030:1" depart="57735.00" departLane="386687232#0_1" departPos="5.10" departSpeed="0.00" departDelay="0.10" arrival="57823.00" arrivalLane="26677539_1" arrivalPos="151.98" arrivalSpeed="7.89" duration="88.00" routeLength="919.89" waitingTime="0.00" waitingCount="0" stopTime="0.00" timeLoss="10.49" rerouteNo="1" devices="tripinfo_randUni15030:1 routing_randUni15030:1 emissions_randUni15030:1" vType="random_016" speedFactor="1.08" vaporized="">
        <emissions CO_abs="3302.258115" CO2_abs="220163.256506" HC_abs="20.145613" PMx_abs="3.675903" NOx_abs="88.390216" fuel_abs="94.639041" electricity_abs="0"/>
    </tripinfo>
    <tripinfo id="randUni33724:1" depart="57646.00" departLane="128361102#0_1" departPos="5.10" departSpeed="0.00" departDelay="1.20" arrival="57824.00" arrivalLane="201956811#0_1" arrivalPos="40.40" arrivalSpeed="10.25" duration="178.00" routeLength="2067.33" waitingTime="2.00" waitingCount="1" stopTime="0.00" timeLoss="26.90" rerouteNo="1" devices="tripinfo_randUni33724:1 routing_randUni33724:1 emissions_randUni33724:1" vType="random_016" speedFactor="1.00" vaporized="">
        <emissions CO_abs="5496.680920" CO2_abs="451771.302325" HC_abs="35.504702" PMx_abs="7.130553" NOx_abs="177.214547" fuel_abs="194.197414" electricity_abs="0"/>
    </tripinfo>
    <tripinfo id="carIn126288:1" depart="57674.00" departLane="272042143_1" departPos="5.10" departSpeed="0.00" departDelay="0.00" arrival="57828.00" arrivalLane="-315358254#1_1" arrivalPos="137.16" arrivalSpeed="11.84" duration="154.00" routeLength="1596.88" waitingTime="8.00" waitingCount="1" stopTime="0.00" timeLoss="25.03" rerouteNo="1" devices="tripinfo_carIn126288:1 routing_carIn126288:1 emissions_carIn126288:1" vType="default_016" speedFactor="0.90" vaporized="">
        <emissions CO_abs="4664.513023" CO2_abs="336964.448397" HC_abs="29.045895" PMx_abs="5.199816" NOx_abs="132.148003" fuel_abs="144.847390" electricity_abs="0"/>
    </tripinfo>
    <tripinfo id="carIn107282:1" depart="57749.00" departLane="-447569998#1_1" departPos="5.10" departSpeed="0.00" departDelay="0.00" arrival="57828.00" arrivalLane="315358242#0_1" arrivalPos="165.37" arrivalSpeed="11.98" duration="79.00" routeLength="448.50" waitingTime="23.00" waitingCount="1" stopTime="0.00" timeLoss="32.43" rerouteNo="1" devices="tripinfo_carIn107282:1 routing_carIn107282:1 emissions_carIn107282:1" vType="default_016" speedFactor="0.90" vaporized="">
        <emissions CO_abs="5167.656553" CO2_abs="162137.641660" HC_abs="27.300267" PMx_abs="3.103099" NOx_abs="68.346012" fuel_abs="69.697907" electricity_abs="0"/>
    </tripinfo>
    <tripinfo id="carIn50326:1" depart="57651.00" departLane="128361102#0_1" departPos="5.10" departSpeed="0.00" departDelay="0.30" arrival="57829.00" arrivalLane="18809673#0_1" arrivalPos="473.56" arrivalSpeed="11.33" duration="178.00" routeLength="1591.07" waitingTime="5.00" waitingCount="1" stopTime="0.00" timeLoss="25.82" rerouteNo="1" devices="tripinfo_carIn50326:1 routing_carIn50326:1 emissions_carIn50326:1" vType="default_016" speedFactor="0.86" vaporized="">
        <emissions CO_abs="5388.961736" CO2_abs="335423.203729" HC_abs="32.264612" PMx_abs="5.156402" NOx_abs="132.591763" fuel_abs="144.185417" electricity_abs="0"/>
    </tripinfo>
    <tripinfo id="h9563c2:5" depart="57631.00" departLane="315358244_1" departPos="5.10" departSpeed="0.00" departDelay="0.70" arrival="57830.00" arrivalLane="386687235_1" arrivalPos="80.84" arrivalSpeed="11.78" duration="199.00" routeLength="1186.14" waitingTime="83.00" waitingCount="3" stopTime="0.00" timeLoss="105.81" rerouteNo="1" devices="tripinfo_h9563c2:5 routing_h9563c2:5 emissions_h9563c2:5" vType="default_016" speedFactor="0.93" vaporized="">
        <emissions CO_abs="15112.737222" CO2_abs="435178.540539" HC_abs="78.960487" PMx_abs="8.549151" NOx_abs="183.330385" fuel_abs="187.070546" electricity_abs="0"/>
    </tripinfo>
    <tripinfo id="carIn107084:1" depart="57601.00" departLane="124812856#0_1" departPos="5.10" departSpeed="0.00" departDelay="0.70" arrival="57833.00" arrivalLane="-128361102#1_1" arrivalPos="274.68" arrivalSpeed="10.53" duration="232.00" routeLength="2232.46" waitingTime="10.00" waitingCount="1" stopTime="0.00" timeLoss="34.96" rerouteNo="1" devices="tripinfo_carIn107084:1 routing_carIn107084:1 emissions_carIn107084:1" vType="default_016" speedFactor="0.83" vaporized="">
        <emissions CO_abs="7062.746768" CO2_abs="457385.492648" HC_abs="42.720567" PMx_abs="7.084454" NOx_abs="180.738675" fuel_abs="196.611988" electricity_abs="0"/>
    </tripinfo>
    <tripinfo id="h645c1:1" depart="57622.00" departLane="266565295#5_1" departPos="5.10" departSpeed="0.00" departDelay="0.40" arrival="57833.00" arrivalLane="-315358244_1" arrivalPos="33.95" arrivalSpeed="11.65" duration="211.00" routeLength="1910.83" waitingTime="31.00" waitingCount="3" stopTime="0.00" timeLoss="59.03" rerouteNo="1" devices="tripinfo_h645c1:1 routing_h645c1:1 emissions_h645c1:1" vType="default_016" speedFactor="0.91" vaporized="">
        <emissions CO_abs="8191.371529" CO2_abs="441064.045254" HC_abs="47.537544" PMx_abs="7.270084" NOx_abs="176.309778" fuel_abs="189.596637" electricity_abs="0"/>
    </tripinfo>
    <tripinfo id="carIn81046:1" depart="57611.00" departLane="124812856#0_1" departPos="5.10" departSpeed="0.00" departDelay="2.50" arrival="57834.00" arrivalLane="-128361102#1_1" arrivalPos="274.68" arrivalSpeed="12.68" duration="223.00" routeLength="2250.49" waitingTime="8.00" waitingCount="1" stopTime="0.00" timeLoss="51.38" rerouteNo="1" devices="tripinfo_carIn81046:1 routing_carIn81046:1 emissions_carIn81046:1" vType="default_016" speedFactor="0.96" vaporized="">
        <emissions CO_abs="7947.518112" CO2_abs="543803.218119" HC_abs="48.862954" PMx_abs="8.934130" NOx_abs="217.796331" fuel_abs="233.758435" electricity_abs="0"/>
    </tripinfo>
    <tripinfo id="carIn82220:1" depart="57619.00" departLane="-306240162#1_0" departPos="5.10" departSpeed="0.00" departDelay="3.50" arrival="57834.00" arrivalLane="386687235_1" arrivalPos="80.84" arrivalSpeed="11.77" duration="215.00" routeLength="2257.41" waitingTime="15.00" waitingCount="2" stopTime="0.00" timeLoss="51.25" rerouteNo="1" devices="tripinfo_carIn82220:1 routing_carIn82220:1 emissions_carIn82220:1" vType="default_016" speedFactor="0.91" vaporized="">
        <emissions CO_abs="7995.874206" CO2_abs="514382.826371" HC_abs="48.198423" PMx_abs="8.651128" NOx_abs="204.850160" fuel_abs="221.112140" electricity_abs="0"/>
    </tripinfo>
    <tripinfo id="carIn462:1" depart="57622.00" departLane="-306240162#1_0" departPos="5.10" departSpeed="0.00" departDelay="4.80" arrival="57834.00" arrivalLane="386687235_2" arrivalPos="80.84" arrivalSpeed="13.82" duration="212.00" routeLength="2257.41" waitingTime="19.00" waitingCount="3" stopTime="0.00" timeLoss="69.75" rerouteNo="1" devices="tripinfo_carIn462:1 routing_carIn462:1 emissions_carIn462:1" vType="default_016" speedFactor="1.04" vaporized="">
        <emissions CO_abs="10251.332029" CO2_abs="610320.680406" HC_abs="61.051674" PMx_abs="11.067353" NOx_abs="248.744543" fuel_abs="262.351324" electricity_abs="0"/>
    </tripinfo>
    <tripinfo id="carIn12152:1" depart="57647.00" departLane="24599188#0.94_1" departPos="5.10" departSpeed="0.00" departDelay="0.50" arrival="57835.00" arrivalLane="-315358254#1_1" arrivalPos="137.16" arrivalSpeed="13.43" duration="188.00" routeLength="2034.31" waitingTime="5.00" waitingCount="1" stopTime="0.00" timeLoss="24.65" rerouteNo="1" devices="tripinfo_carIn12152:1 routing_carIn12152:1 emissions_carIn12152:1" vType="default_016" speedFactor="0.97" vaporized="">
        <emissions CO_abs="5481.282851" CO2_abs="427388.829941" HC_abs="34.871176" PMx_abs="6.645092" NOx_abs="167.533531" fuel_abs="183.716764" electricity_abs="0"/>
    </tripinfo>
    <tripinfo id="carIn73855:1" depart="57743.00" departLane="386687232#0_1" departPos="5.10" departSpeed="0.00" departDelay="0.50" arrival="57835.00" arrivalLane="-315358244_1" arrivalPos="33.95" arrivalSpeed="13.89" duration="92.00" routeLength="1157.39" waitingTime="0.00" waitingCount="0" stopTime="0.00" timeLoss="12.18" rerouteNo="1" devices="tripinfo_carIn73855:1 routing_carIn73855:1 emissions_carIn73855:1" vType="default_016" speedFactor="1.06" vaporized="">
        <emissions CO_abs="3093.550546" CO2_abs="245486.492867" HC_abs="19.837529" PMx_abs="4.163440" NOx_abs="98.098485" fuel_abs="105.523939" electricity_abs="0"/>
    </tripinfo>
    <tripinfo id="carIn77438:1" depart="57614.00" departLane="124812856#0_1" departPos="5.10" departSpeed="0.00" departDelay="1.10" arrival="57836.00" arrivalLane="-128361102#1_1" arrivalPos="274.68" arrivalSpeed="12.24" duration="222.00" routeLength="2250.49" waitingTime="8.00" waitingCount="1" stopTime="0.00" timeLoss="48.53" rerouteNo="1" devices="tripinfo_carIn77438:1 routing_carIn77438:1 emissions_carIn77438:1" vType="default_016" speedFactor="0.95" vaporized="">
        <emissions CO_abs="8694.006339" CO2_abs="557412.186345" HC_abs="52.677977" PMx_abs="9.815688" NOx_abs="227.968615" fuel_abs="239.607780" electricity_abs="0"/>
    </tripinfo>
    <tripinfo id="carIn100288:1" depart="57664.00" departLane="128361102#0_1" departPos="5.10" departSpeed="0.00" departDelay="0.60" arrival="57836.00" arrivalLane="201956811#0_1" arrivalPos="40.40" arrivalSpeed="13.42" duration="172.00" routeLength="2067.33" waitingTime="5.00" waitingCount="1" stopTime="0.00" timeLoss="25.81" rerouteNo="1" devices="tripinfo_carIn100288:1 routing_carIn100288:1 emissions_carIn100288:1" vType="default_016" speedFactor="1.04" vaporized="">
        <emissions CO_abs="5489.054523" CO2_abs="443982.675122" HC_abs="35.358158" PMx_abs="7.412050" NOx_abs="176.612832" fuel_abs="190.848883" electricity_abs="0"/>
    </tripinfo>
    <tripinfo id="carIn82278:1" depart="57702.00" departLane="-306240162#1_0" departPos="5.10" departSpeed="0.00" departDelay="0.70" arrival="57836.00" arrivalLane="399835085#1_1" arrivalPos="212.23" arrivalSpeed="6.93" duration="134.00" routeLength="1093.26" waitingTime="35.00" waitingCount="1" stopTime="0.00" timeLoss="53.06" rerouteNo="1" devices="tripinfo_carIn82278:1 routing_carIn82278:1 emissions_carIn82278:1" vType="default_016" speedFactor="0.97" vaporized="">
        <emissions CO_abs="9307.911640" CO2_abs="350497.168581" HC_abs="50.667595" PMx_abs="6.900861" NOx_abs="146.242252" fuel_abs="150.666181" electricity_abs="0"/>
    </tripinfo>
    <tripinfo id="carIn12858:1" depart="57661.00" departLane="128361109#1_1" departPos="5.10" departSpeed="0.00" departDelay="0.90" arrival="57838.00" arrivalLane="399835085#1_1" arrivalPos="212.23" arrivalSpeed="7.14" duration="177.00" routeLength="1738.12" waitingTime="19.00" waitingCount="2" stopTime="0.00" timeLoss="56.85" rerouteNo="1" devices="tripinfo_carIn12858:1 routing_carIn12858:1 emissions_carIn12858:1" vType="default_016" speedFactor="0.96" vaporized="">