<?xml version="1.0" encoding="UTF-8"?>

<!-- generated on 2021-10-26 20:02:12 by Eclipse SUMO sumo Version 1.10.0
<configuration xmlns:xsi="http://www.w3.org/2001/XMLSchema-instance" xsi:noNamespaceSchemaLocation="http://sumo.dlr.de/xsd/sumoConfiguration.xsd">

    <input>
        <net-file value="/Users/behradkoohy/sumo-scratchpad/RESCO/environments/ingolstadt21/ingolstadt21.net.xml"/>
        <route-files value="/Users/behradkoohy/sumo-scratchpad/RESCO/environments/ingolstadt21/ingolstadt21.rou.xml"/>
    </input>

    <output>
        <tripinfo-output value="/Users/behradkoohy/sumo-scratchpad/RESCO/logs/MPLight-tr0-ingolstadt21-21-mplight-pressure/tripinfo_62.xml"/>
        <tripinfo-output.write-unfinished value="true"/>
    </output>

    <time>
        <begin value="57600"/>
        <end value="61200"/>
    </time>

    <processing>
        <time-to-teleport value="-1"/>
    </processing>

    <report>
        <no-warnings value="true"/>
        <no-step-log value="true"/>
    </report>

    <emissions>
        <device.emissions.probability value="1"/>
    </emissions>

    <traci_server>
        <remote-port value="64046"/>
    </traci_server>

    <random_number>
        <random value="true"/>
    </random_number>

</configuration>
-->

<tripinfos xmlns:xsi="http://www.w3.org/2001/XMLSchema-instance" xsi:noNamespaceSchemaLocation="http://sumo.dlr.de/xsd/tripinfo_file.xsd">
    <tripinfo id="h15454c2:3" depart="57612.00" departLane="24608844_1" departPos="5.10" departSpeed="0.00" departDelay="0.50" arrival="57667.00" arrivalLane="32978638#0_1" arrivalPos="49.29" arrivalSpeed="12.92" duration="55.00" routeLength="354.79" waitingTime="10.00" waitingCount="1" stopTime="0.00" timeLoss="19.26" rerouteNo="1" devices="tripinfo_h15454c2:3 routing_h15454c2:3 emissions_h15454c2:3" vType="default_016" speedFactor="0.95" vaporized="">
        <emissions CO_abs="2786.561229" CO2_abs="121309.493871" HC_abs="15.520114" PMx_abs="2.218194" NOx_abs="50.581857" fuel_abs="52.146384" electricity_abs="0"/>
    </tripinfo>
    <tripinfo id="carIn60260:1" depart="57606.00" departLane="315358254#0_1" departPos="5.10" departSpeed="0.00" departDelay="0.90" arrival="57682.00" arrivalLane="399835085#1_1" arrivalPos="212.23" arrivalSpeed="7.82" duration="76.00" routeLength="430.98" waitingTime="20.00" waitingCount="1" stopTime="0.00" timeLoss="31.48" rerouteNo="1" devices="tripinfo_carIn60260:1 routing_carIn60260:1 emissions_carIn60260:1" vType="default_016" speedFactor="1.04" vaporized="">
        <emissions CO_abs="5247.063387" CO2_abs="168074.801518" HC_abs="27.805306" PMx_abs="3.240099" NOx_abs="71.160878" fuel_abs="72.249960" electricity_abs="0"/>
    </tripinfo>
    <tripinfo id="carIn53971:1" depart="57640.00" departLane="272042143_1" departPos="5.10" departSpeed="0.00" departDelay="0.80" arrival="57703.00" arrivalLane="24634414#1_1" arrivalPos="162.19" arrivalSpeed="6.97" duration="63.00" routeLength="493.04" waitingTime="0.00" waitingCount="0" stopTime="0.00" timeLoss="9.05" rerouteNo="1" devices="tripinfo_carIn53971:1 routing_carIn53971:1 emissions_carIn53971:1" vType="default_016" speedFactor="0.85" vaporized="">
        <emissions CO_abs="2789.179866" CO2_abs="137172.212094" HC_abs="15.860929" PMx_abs="2.243146" NOx_abs="55.567969" fuel_abs="58.965256" electricity_abs="0"/>
    </tripinfo>
    <tripinfo id="h12244c1:3" depart="57612.00" departLane="315358244_1" departPos="5.10" departSpeed="0.00" departDelay="0.40" arrival="57710.00" arrivalLane="386687235_1" arrivalPos="80.84" arrivalSpeed="13.72" duration="98.00" routeLength="1186.14" waitingTime="0.00" waitingCount="0" stopTime="0.00" timeLoss="11.15" rerouteNo="1" devices="tripinfo_h12244c1:3 routing_h12244c1:3 emissions_h12244c1:3" vType="default_016" speedFactor="0.99" vaporized="">
        <emissions CO_abs="2940.007452" CO2_abs="235168.080993" HC_abs="18.851616" PMx_abs="3.789526" NOx_abs="92.870387" fuel_abs="101.088768" electricity_abs="0"/>
    </tripinfo>
    <tripinfo id="h7800c1:5" depart="57696.00" departLane="-447569998#1_1" departPos="5.10" departSpeed="0.00" departDelay="0.00" arrival="57718.00" arrivalLane="-447569998#1_2" arrivalPos="180.76" arrivalSpeed="8.98" duration="22.00" routeLength="175.66" waitingTime="0.00" waitingCount="0" stopTime="0.00" timeLoss="2.93" rerouteNo="1" devices="tripinfo_h7800c1:5 routing_h7800c1:5 emissions_h7800c1:5" vType="default_016" speedFactor="1.15" vaporized="">
        <emissions CO_abs="971.606158" CO2_abs="47772.071707" HC_abs="5.537335" PMx_abs="0.848608" NOx_abs="19.822364" fuel_abs="20.535339" electricity_abs="0"/>
    </tripinfo>
    <tripinfo id="h7181c1:1" depart="57660.00" departLane="315358254#0_1" departPos="5.10" departSpeed="0.00" departDelay="0.10" arrival="57729.00" arrivalLane="306240162#0_0" arrivalPos="220.43" arrivalSpeed="16.93" duration="69.00" routeLength="932.35" waitingTime="1.00" waitingCount="1" stopTime="0.00" timeLoss="21.71" rerouteNo="1" devices="tripinfo_h7181c1:1 routing_h7181c1:1 emissions_h7181c1:1" vType="default_016" speedFactor="1.08" vaporized="">
        <emissions CO_abs="5253.066942" CO2_abs="334091.368949" HC_abs="31.925042" PMx_abs="6.789785" NOx_abs="140.216653" fuel_abs="143.610542" electricity_abs="0"/>
    </tripinfo>
    <tripinfo id="h9563c2:5" depart="57631.00" departLane="315358244_1" departPos="5.10" departSpeed="0.00" departDelay="0.70" arrival="57732.00" arrivalLane="386687235_1" arrivalPos="80.84" arrivalSpeed="13.89" duration="101.00" routeLength="1186.14" waitingTime="2.00" waitingCount="1" stopTime="0.00" timeLoss="15.33" rerouteNo="1" devices="tripinfo_h9563c2:5 routing_h9563c2:5 emissions_h9563c2:5" vType="default_016" speedFactor="1.01" vaporized="">
        <emissions CO_abs="3197.911772" CO2_abs="253283.173021" HC_abs="20.473429" PMx_abs="4.170778" NOx_abs="100.443040" fuel_abs="108.875585" electricity_abs="0"/>
    </tripinfo>
    <tripinfo id="h3568c1:3" depart="57656.00" departLane="266565295#5_1" departPos="5.10" departSpeed="0.00" departDelay="0.80" arrival="57735.00" arrivalLane="-24634415_1" arrivalPos="62.03" arrivalSpeed="13.15" duration="79.00" routeLength="807.40" waitingTime="0.00" waitingCount="0" stopTime="0.00" timeLoss="12.09" rerouteNo="1" devices="tripinfo_h3568c1:3 routing_h3568c1:3 emissions_h3568c1:3" vType="default_016" speedFactor="0.96" vaporized="">
        <emissions CO_abs="3150.861021" CO2_abs="208300.397043" HC_abs="19.218562" PMx_abs="3.531714" NOx_abs="84.116417" fuel_abs="89.539621" electricity_abs="0"/>
    </tripinfo>
    <tripinfo id="S5R_frequency1.2" depart="57624.00" departLane="315358250#0_1" departPos="12.10" departSpeed="0.00" departDelay="12.40" arrival="57736.00" arrivalLane="386687235_1" arrivalPos="80.84" arrivalSpeed="13.42" duration="112.00" routeLength="1115.62" waitingTime="6.00" waitingCount="1" stopTime="0.00" timeLoss="30.16" rerouteNo="1" devices="tripinfo_S5R_frequency1.2 routing_S5R_frequency1.2 emissions_S5R_frequency1.2" vType="bus" speedFactor="1.00" vaporized="">
        <emissions CO_abs="2314.781182" CO2_abs="1442098.691090" HC_abs="480.514393" PMx_abs="247.443606" NOx_abs="11221.997520" fuel_abs="615.027814" electricity_abs="0"/>
    </tripinfo>
    <tripinfo id="carIn22761:1" depart="57616.00" departLane="-306240162#1_0" departPos="5.10" departSpeed="0.00" departDelay="2.10" arrival="57736.00" arrivalLane="399835085#1_1" arrivalPos="212.23" arrivalSpeed="7.58" duration="120.00" routeLength="1093.26" waitingTime="12.00" waitingCount="2" stopTime="0.00" timeLoss="39.07" rerouteNo="1" devices="tripinfo_carIn22761:1 routing_carIn22761:1 emissions_carIn22761:1" vType="default_016" speedFactor="0.96" vaporized="">
        <emissions CO_abs="5715.095289" CO2_abs="323237.475618" HC_abs="33.663251" PMx_abs="6.044420" NOx_abs="133.366430" fuel_abs="138.946187" electricity_abs="0"/>
    </tripinfo>
    <tripinfo id="h4538c1:1" depart="57701.00" departLane="-10427692#1_1" departPos="5.10" departSpeed="0.00" departDelay="0.00" arrival="57736.00" arrivalLane="-128361102#1_1" arrivalPos="274.68" arrivalSpeed="14.58" duration="35.00" routeLength="440.74" waitingTime="0.00" waitingCount="0" stopTime="0.00" timeLoss="5.81" rerouteNo="1" devices="tripinfo_h4538c1:1 routing_h4538c1:1 emissions_h4538c1:1" vType="default_016" speedFactor="1.10" vaporized="">
        <emissions CO_abs="1485.684324" CO2_abs="105163.878511" HC_abs="9.184751" PMx_abs="1.862775" NOx_abs="42.571655" fuel_abs="45.205368" electricity_abs="0"/>
    </tripinfo>
    <tripinfo id="h3688c1:1" depart="57625.00" departLane="201201950#1_1" departPos="5.10" departSpeed="0.00" departDelay="0.00" arrival="57745.00" arrivalLane="32978638#0_1" arrivalPos="49.29" arrivalSpeed="10.74" duration="120.00" routeLength="1089.75" waitingTime="11.00" waitingCount="1" stopTime="0.00" timeLoss="24.15" rerouteNo="1" devices="tripinfo_h3688c1:1 routing_h3688c1:1 emissions_h3688c1:1" vType="default_016" speedFactor="0.83" vaporized="">
        <emissions CO_abs="4528.550370" CO2_abs="246532.565983" HC_abs="26.345854" PMx_abs="4.121030" NOx_abs="99.588460" fuel_abs="105.974762" electricity_abs="0"/>
    </tripinfo>
    <tripinfo id="carIn121703:1" depart="57647.00" departLane="386687232#0_1" departPos="5.10" departSpeed="0.00" departDelay="0.30" arrival="57752.00" arrivalLane="-315358244_1" arrivalPos="33.95" arrivalSpeed="15.13" duration="105.00" routeLength="1157.39" waitingTime="16.00" waitingCount="1" stopTime="0.00" timeLoss="28.55" rerouteNo="1" devices="tripinfo_carIn121703:1 routing_carIn121703:1 emissions_carIn121703:1" vType="default_016" speedFactor="1.10" vaporized="">
        <emissions CO_abs="5034.687425" CO2_abs="283653.842160" HC_abs="29.546994" PMx_abs="5.092194" NOx_abs="115.020289" fuel_abs="121.931247" electricity_abs="0"/>
    </tripinfo>
    <tripinfo id="h317c2:1" depart="57707.00" departLane="-32978638#0_1" departPos="5.10" departSpeed="0.00" departDelay="0.10" arrival="57754.00" arrivalLane="-266565295#5_1" arrivalPos="172.76" arrivalSpeed="14.19" duration="47.00" routeLength="370.53" waitingTime="12.00" waitingCount="1" stopTime="0.00" timeLoss="20.63" rerouteNo="1" devices="tripinfo_h317c2:1 routing_h317c2:1 emissions_h317c2:1" vType="default_016" speedFactor="1.06" vaporized="">
        <emissions CO_abs="3224.318422" CO2_abs="149411.502510" HC_abs="18.214032" PMx_abs="2.871710" NOx_abs="62.450246" fuel_abs="64.226066" electricity_abs="0"/>
    </tripinfo>
    <tripinfo id="carIn27009:1" depart="57673.00" departLane="-447569998#1_1" departPos="5.10" departSpeed="0.00" departDelay="0.50" arrival="57755.00" arrivalLane="-26677539_1" arrivalPos="152.75" arrivalSpeed="8.52" duration="82.00" routeLength="699.63" waitingTime="0.00" waitingCount="0" stopTime="0.00" timeLoss="9.16" rerouteNo="1" devices="tripinfo_carIn27009:1 routing_carIn27009:1 emissions_carIn27009:1" vType="default_015" speedFactor="1.15" vaporized="">
        <emissions CO_abs="3359.320764" CO2_abs="189510.138088" HC_abs="19.673430" PMx_abs="3.068150" NOx_abs="76.480594" fuel_abs="81.463026" electricity_abs="0"/>
    </tripinfo>
    <tripinfo id="carIn30817:1" depart="57681.00" departLane="315358244_1" departPos="5.10" departSpeed="0.00" departDelay="0.20" arrival="57761.00" arrivalLane="447569997#1_1" arrivalPos="180.93" arrivalSpeed="7.40" duration="80.00" routeLength="718.04" waitingTime="7.00" waitingCount="1" stopTime="0.00" timeLoss="18.02" rerouteNo="1" devices="tripinfo_carIn30817:1 routing_carIn30817:1 emissions_carIn30817:1" vType="default_016" speedFactor="0.99" vaporized="">
        <emissions CO_abs="2855.180284" CO2_abs="166005.659498" HC_abs="16.846240" PMx_abs="2.662253" NOx_abs="65.939468" fuel_abs="71.359423" electricity_abs="0"/>
    </tripinfo>
    <tripinfo id="h5979c1:5" depart="57669.00" departLane="399835085#1_1" departPos="5.10" departSpeed="0.00" departDelay="0.00" arrival="57762.00" arrivalLane="-315358254#1_1" arrivalPos="137.16" arrivalSpeed="13.01" duration="93.00" routeLength="659.33" waitingTime="3.00" waitingCount="1" stopTime="0.00" timeLoss="17.05" rerouteNo="1" devices="tripinfo_h5979c1:5 routing_h5979c1:5 emissions_h5979c1:5" vType="default_016" speedFactor="0.97" vaporized="">
        <emissions CO_abs="3683.515894" CO2_abs="176755.183923" HC_abs="20.846870" PMx_abs="2.907995" NOx_abs="71.653179" fuel_abs="75.980566" electricity_abs="0"/>
    </tripinfo>
    <tripinfo id="carIn80064:1" depart="57603.00" departLane="128361109#1_1" departPos="5.10" departSpeed="0.00" departDelay="0.40" arrival="57768.00" arrivalLane="-315358254#1_1" arrivalPos="137.16" arrivalSpeed="12.22" duration="165.00" routeLength="1587.97" waitingTime="35.00" waitingCount="4" stopTime="0.00" timeLoss="70.67" rerouteNo="1" devices="tripinfo_carIn80064:1 routing_carIn80064:1 emissions_carIn80064:1" vType="default_016" speedFactor="0.95" vaporized="">
        <emissions CO_abs="10779.134953" CO2_abs="519692.807310" HC_abs="61.458832" PMx_abs="10.429490" NOx_abs="218.313299" fuel_abs="223.394412" electricity_abs="0"/>
    </tripinfo>
    <tripinfo id="h3326c1:2" depart="57656.00" departLane="22716069#0_1" departPos="5.10" departSpeed="0.00" departDelay="0.00" arrival="57771.00" arrivalLane="24634517#13_1" arrivalPos="111.62" arrivalSpeed="12.80" duration="115.00" routeLength="1312.81" waitingTime="0.00" waitingCount="0" stopTime="0.00" timeLoss="14.64" rerouteNo="1" devices="tripinfo_h3326c1:2 routing_h3326c1:2 emissions_h3326c1:2" vType="default_016" speedFactor="0.98" vaporized="">
        <emissions CO_abs="3810.020686" CO2_abs="287750.977156" HC_abs="24.070413" PMx_abs="4.742654" NOx_abs="114.797998" fuel_abs="123.691897" electricity_abs="0"/>
    </tripinfo>
    <tripinfo id="h3154c1:1" depart="57658.00" departLane="24634507_1" departPos="5.10" departSpeed="0.00" departDelay="0.00" arrival="57775.00" arrivalLane="-266565295#5_1" arrivalPos="172.76" arrivalSpeed="15.32" duration="117.00" routeLength="1206.22" waitingTime="18.00" waitingCount="2" stopTime="0.00" timeLoss="40.53" rerouteNo="1" devices="tripinfo_h3154c1:1 routing_h3154c1:1 emissions_h3154c1:1" vType="default_016" speedFactor="1.17" vaporized="">
        <emissions CO_abs="6191.381534" CO2_abs="359220.987398" HC_abs="36.552986" PMx_abs="6.774045" NOx_abs="148.359925" fuel_abs="154.413755" electricity_abs="0"/>
    </tripinfo>
    <tripinfo id="carIn118591:1" depart="57689.00" departLane="315358244_1" departPos="5.10" departSpeed="0.00" departDelay="0.20" arrival="57798.00" arrivalLane="386687235_1" arrivalPos="80.84" arrivalSpeed="13.06" duration="109.00" routeLength="1186.14" waitingTime="5.00" waitingCount="1" stopTime="0.00" timeLoss="23.04" rerouteNo="1" devices="tripinfo_carIn118591:1 routing_carIn118591:1 emissions_carIn118591:1" vType="default_016" speedFactor="1.01" vaporized="">
        <emissions CO_abs="3906.319303" CO2_abs="281867.467676" HC_abs="24.294922" PMx_abs="4.662385" NOx_abs="112.157111" fuel_abs="121.162977" electricity_abs="0"/>
    </tripinfo>
    <tripinfo id="h11737c1:1" depart="57665.00" departLane="272042143_1" departPos="5.10" departSpeed="0.00" departDelay="1.50" arrival="57799.00" arrivalLane="-315358254#1_1" arrivalPos="137.16" arrivalSpeed="12.50" duration="134.00" routeLength="1596.88" waitingTime="0.00" waitingCount="0" stopTime="0.00" timeLoss="16.45" rerouteNo="1" devices="tripinfo_h11737c1:1 routing_h11737c1:1 emissions_h11737c1:1" vType="default_016" speedFactor="0.99" vaporized="">
        <emissions CO_abs="3691.923464" CO2_abs="317416.828073" HC_abs="24.210571" PMx_abs="5.010227" NOx_abs="124.536281" fuel_abs="136.443955" electricity_abs="0"/>
    </tripinfo>
    <tripinfo id="carIn12365:1" depart="57713.00" departLane="315358244_1" departPos="5.10" departSpeed="0.00" departDelay="0.50" arrival="57802.00" arrivalLane="447569997#1_1" arrivalPos="180.93" arrivalSpeed="7.95" duration="89.00" routeLength="718.04" waitingTime="17.00" waitingCount="1" stopTime="0.00" timeLoss="31.33" rerouteNo="1" devices="tripinfo_carIn12365:1 routing_carIn12365:1 emissions_carIn12365:1" vType="default_016" speedFactor="1.08" vaporized="">
        <emissions CO_abs="4593.218596" CO2_abs="212815.629923" HC_abs="25.846341" PMx_abs="3.836072" NOx_abs="87.352114" fuel_abs="91.481356" electricity_abs="0"/>
    </tripinfo>
    <tripinfo id="carIn129809:1" depart="57729.00" departLane="-447569998#1_1" departPos="5.10" departSpeed="0.00" departDelay="1.00" arrival="57803.00" arrivalLane="-315358244_1" arrivalPos="33.95" arrivalSpeed="11.81" duration="74.00" routeLength="706.49" waitingTime="0.00" waitingCount="0" stopTime="0.00" timeLoss="6.91" rerouteNo="1" devices="tripinfo_carIn129809:1 routing_carIn129809:1 emissions_carIn129809:1" vType="default_015" speedFactor="0.90" vaporized="">
        <emissions CO_abs="2518.874365" CO2_abs="156504.569707" HC_abs="15.066317" PMx_abs="2.357076" NOx_abs="61.461997" fuel_abs="67.275328" electricity_abs="0"/>
    </tripinfo>
    <tripinfo id="h330c1:1" depart="57736.00" departLane="-32978638#0_1" departPos="5.10" departSpeed="0.00" departDelay="0.20" arrival="57805.00" arrivalLane="-266565295#5_1" arrivalPos="172.76" arrivalSpeed="14.17" duration="69.00" routeLength="370.53" waitingTime="32.00" waitingCount="1" stopTime="0.00" timeLoss="41.67" rerouteNo="1" devices="tripinfo_h330c1:1 routing_h330c1:1 emissions_h330c1:1" vType="default_016" speedFactor="1.03" vaporized="">
        <emissions CO_abs="6991.851993" CO2_abs="203901.629228" HC_abs="36.635286" PMx_abs="4.258675" NOx_abs="87.682474" fuel_abs="87.650877" electricity_abs="0"/>
    </tripinfo>
    <tripinfo id="carIn50326:1" depart="57651.00" departLane="128361102#0_1" departPos="5.10" departSpeed="0.00" departDelay="0.30" arrival="57823.00" arrivalLane="18809673#0_1" arrivalPos="473.56" arrivalSpeed="13.00" duration="172.00" routeLength="1591.07" waitingTime="14.00" waitingCount="2" stopTime="0.00" timeLoss="38.73" rerouteNo="1" devices="tripinfo_carIn50326:1 routing_carIn50326:1 emissions_carIn50326:1" vType="default_016" speedFactor="0.97" vaporized="">
        <emissions CO_abs="6968.653516" CO2_abs="395317.698933" HC_abs="40.915373" PMx_abs="6.580665" NOx_abs="158.725690" fuel_abs="169.931575" electricity_abs="0"/>
    </tripinfo>
    <tripinfo id="carIn126288:1" depart="57674.00" departLane="272042143_1" departPos="5.10" departSpeed="0.00" departDelay="0.00" arrival="57828.00" arrivalLane="-315358254#1_1" arrivalPos="137.16" arrivalSpeed="12.07" duration="154.00" routeLength="1596.88" waitingTime="7.00" waitingCount="1" stopTime="0.00" timeLoss="23.92" rerouteNo="1" devices="tripinfo_carIn126288:1 routing_carIn126288:1 emissions_carIn126288:1" vType="default_016" speedFactor="0.90" vaporized="">
        <emissions CO_abs="4371.082289" CO2_abs="333661.775032" HC_abs="27.644985" PMx_abs="5.183631" NOx_abs="131.246532" fuel_abs="143.427421" electricity_abs="0"/>
    </tripinfo>
    <tripinfo id="carIn107282:1" depart="57749.00" departLane="-447569998#1_1" departPos="5.10" departSpeed="0.00" departDelay="0.00" arrival="57828.00" arrivalLane="315358242#0_1" arrivalPos="165.37" arrivalSpeed="11.41" duration="79.00" routeLength="448.50" waitingTime="23.00" waitingCount="1" stopTime="0.00" timeLoss="32.11" rerouteNo="1" devices="tripinfo_carIn107282:1 routing_carIn107282:1 emissions_carIn107282:1" vType="default_016" speedFactor="0.89" vaporized="">
        <emissions CO_abs="5554.794489" CO2_abs="168508.363823" HC_abs="29.208849" PMx_abs="3.239461" NOx_abs="71.092235" fuel_abs="72.436620" electricity_abs="0"/>
    </tripinfo>
    <tripinfo id="carIn12152:1" depart="57647.00" departLane="24599188#0.94_1" departPos="5.10" departSpeed="0.00" departDelay="0.50" arrival="57830.00" arrivalLane="-315358254#1_1" arrivalPos="137.16" arrivalSpeed="13.84" duration="183.00" routeLength="2034.31" waitingTime="5.00" waitingCount="1" stopTime="0.00" timeLoss="27.95" rerouteNo="1" devices="tripinfo_carIn12152:1 routing_carIn12152:1 emissions_carIn12152:1" vType="default_016" speedFactor="1.02" vaporized="">
        <emissions CO_abs="5995.473887" CO2_abs="439158.325011" HC_abs="37.514657" PMx_abs="7.222006" NOx_abs="174.617455" fuel_abs="188.775693" electricity_abs="0"/>
    </tripinfo>
    <tripinfo id="h645c1:1" depart="57622.00" departLane="266565295#5_1" departPos="5.10" departSpeed="0.00" departDelay="0.40" arrival="57833.00" arrivalLane="-315358244_1" arrivalPos="33.95" arrivalSpeed="13.68" duration="211.00" routeLength="1910.83" waitingTime="38.00" waitingCount="4" stopTime="0.00" timeLoss="73.59" rerouteNo="1" devices="tripinfo_h645c1:1 routing_h645c1:1 emissions_h645c1:1" vType="default_016" speedFactor="1.01" vaporized="">
        <emissions CO_abs="9089.722897" CO2_abs="491807.540034" HC_abs="52.898345" PMx_abs="8.694016" NOx_abs="200.004434" fuel_abs="211.408433" electricity_abs="0"/>
    </tripinfo>
    <tripinfo id="carIn82278:1" depart="57702.00" departLane="-306240162#1_0" departPos="5.10" departSpeed="0.00" departDelay="0.70" arrival="57836.00" arrivalLane="399835085#1_1" arrivalPos="212.23" arrivalSpeed="6.76" duration="134.00" routeLength="1093.26" waitingTime="20.00" waitingCount="3" stopTime="0.00" timeLoss="52.80" rerouteNo="1" devices="tripinfo_carIn82278:1 routing_carIn82278:1 emissions_carIn82278:1" vType="default_016" speedFactor="0.96" vaporized="">
        <emissions CO_abs="7725.759623" CO2_abs="361456.660980" HC_abs="43.730106" PMx_abs="6.987125" NOx_abs="151.600402" fuel_abs="155.375700" electricity_abs="0"/>
    </tripinfo>
    <tripinfo id="carIn107084:1" depart="57601.00" departLane="124812856#0_1" departPos="5.10" departSpeed="0.00" departDelay="0.70" arrival="57841.00" arrivalLane="-128361102#1_1" arrivalPos="274.68" arrivalSpeed="10.57" duration="240.00" routeLength="2250.49" waitingTime="20.00" waitingCount="2" stopTime="0.00" timeLoss="46.89" rerouteNo="1" devices="tripinfo_carIn107084:1 routing_carIn107084:1 emissions_carIn107084:1" vType="default_016" speedFactor="0.85" vaporized="">
        <emissions CO_abs="8353.599533" CO2_abs="487568.340931" HC_abs="49.370708" PMx_abs="8.079624" NOx_abs="196.155037" fuel_abs="209.586295" electricity_abs="0"/>
    </tripinfo>
    <tripinfo id="carIn28951:1" depart="57606.00" departLane="10425609#0_1" departPos="5.10" departSpeed="0.00" departDelay="0.20" arrival="57843.00" arrivalLane="-128361102#1_1" arrivalPos="274.68" arrivalSpeed="12.92" duration="237.00" routeLength="2113.04" waitingTime="22.00" waitingCount="3" stopTime="0.00" timeLoss="78.08" rerouteNo="1" devices="tripinfo_carIn28951:1 routing_carIn28951:1 emissions_carIn28951:1" vType="default_016" speedFactor="0.98" vaporized="">
        <emissions CO_abs="10553.980123" CO2_abs="615106.276165" HC_abs="62.477697" PMx_abs="10.843691" NOx_abs="251.793366" fuel_abs="264.408802" electricity_abs="0"/>
    </tripinfo>
    <tripinfo id="carIn48184:1" depart="57613.00" departLane="-306240162#1_0" departPos="5.10" departSpeed="0.00" departDelay="0.70" arrival="57844.00" arrivalLane="386687235_1" arrivalPos="80.84" arrivalSpeed="12.50" duration="231.00" routeLength="2257.41" waitingTime="43.00" waitingCount="4" stopTime="0.00" timeLoss="78.13" rerouteNo="1" devices="tripinfo_carIn48184:1 routing_carIn48184:1 emissions_carIn48184:1" vType="default_016" speedFactor="0.97" vaporized="">
        <emissions CO_abs="11818.911147" CO2_abs="574212.873489" HC_abs="67.348462" PMx_abs="10.678757" NOx_abs="236.066630" fuel_abs="246.831515" electricity_abs="0"/>
    </tripinfo>
    <tripinfo id="h16072c2:3" depart="57663.00" departLane="315358254#0_1" departPos="5.10" departSpeed="0.00" departDelay="2.50" arrival="57844.00" arrivalLane="386687235_2" arrivalPos="80.84" arrivalSpeed="13.32" duration="181.00" routeLength="1611.92" waitingTime="34.00" waitingCount="3" stopTime="0.00" timeLoss="66.79" rerouteNo="1" devices="tripinfo_h16072c2:3 routing_h16072c2:3 emissions_h16072c2:3" vType="default_016" speedFactor="1.03" vaporized="">
        <emissions CO_abs="9674.092203" CO2_abs="445180.821476" HC_abs="54.450863" PMx_abs="8.137752" NOx_abs="182.744713" fuel_abs="191.366294" electricity_abs="0"/>
    </tripinfo>
    <tripinfo id="h3864c1:3" depart="57678.00" departLane="24693977#1_1" departPos="5.10" departSpeed="0.00" departDelay="0.00" arrival="57844.00" arrivalLane="201956820_2" arrivalPos="48.33" arrivalSpeed="12.44" duration="166.00" routeLength="1574.85" waitingTime="7.00" waitingCount="1" stopTime="0.00" timeLoss="32.14" rerouteNo="1" devices="tripinfo_h3864c1:3 routing_h3864c1:3 emissions_h3864c1:3" vType="default_016" speedFactor="0.97" vaporized="">
        <emissions CO_abs="6513.636700" CO2_abs="400375.387286" HC_abs="38.999432" PMx_abs="6.748703" NOx_abs="161.743184" fuel_abs="172.105039" electricity_abs="0"/>
    </tripinfo>
    <tripinfo id="carIn82220:1" depart="57619.00" departLane="-306240162#1_0" departPos="5.10" departSpeed="0.00" departDelay="3.50" arrival="57846.00" arrivalLane="386687235_1" arrivalPos="80.84" arrivalSpeed="14.77" duration="227.00" routeLength="2257.41" waitingTime="42.00" waitingCount="4" stopTime="0.00" timeLoss="90.12" rerouteNo="1" devices="tripinfo_carIn82220:1 routing_carIn82220:1 emissions_carIn82220:1" vType="default_016" speedFactor="1.09" vaporized="">
        <emissions CO_abs="13391.617828" CO2_abs="682078.515158" HC_abs="77.077568" PMx_abs="13.245662" NOx_abs="283.816215" fuel_abs="293.197301" electricity_abs="0"/>
    </tripinfo>
    <tripinfo id="h5216c1:1" depart="57664.00" departLane="224892339#0_1" departPos="5.10" departSpeed="0.00" departDelay="0.00" arrival="57846.00" arrivalLane="386687235_2" arrivalPos="80.84" arrivalSpeed="13.47" duration="182.00" routeLength="1823.78" waitingTime="15.00" waitingCount="2" stopTime="0.00" timeLoss="55.48" rerouteNo="1" devices="tripinfo_h5216c1:1 routing_h5216c1:1 emissions_h5216c1:1" vType="default_016" speedFactor="1.01" vaporized="">
        <emissions CO_abs="8426.662170" CO2_abs="494270.760749" HC_abs="50.017923" PMx_abs="9.008605" NOx_abs="203.041574" fuel_abs="212.466225" electricity_abs="0"/>
    </tripinfo>
    <tripinfo id="h11868c1:5" depart="57700.00" departLane="315358254#0_1" departPos="5.10" departSpeed="0.00" departDelay="0.10" arrival="57847.00" arrivalLane="386687235_2" arrivalPos="80.84" arrivalSpeed="15.75" duration="147.00" routeLength="1611.92" waitingTime="4.00" waitingCount="1" stopTime="0.00" timeLoss="43.79" rerouteNo="1" devices="tripinfo_h11868c1:5 routing_h11868c1:5 emissions_h11868c1:5" vType="default_016" speedFactor="1.14" vaporized="">
        <emissions CO_abs="6675.021515" CO2_abs="439511.083166" HC_abs="40.712880" PMx_abs="7.850686" NOx_abs="179.273698" fuel_abs="188.926904" electricity_abs="0"/>
    </tripinfo>
    <tripinfo id="randUni15030:1" depart="57735.00" departLane="386687232#0_1" departPos="5.10" departSpeed="0.00" departDelay="0.10" arrival="57847.00" arrivalLane="26677539_1" arrivalPos="151.98" arrivalSpeed="6.14" duration="112.00" routeLength="919.89" waitingTime="0.00" waitingCount="0" stopTime="0.00" timeLoss="12.04" rerouteNo="1" devices="tripinfo_randUni15030:1 routing_randUni15030:1 emissions_randUni15030:1" vType="random_016" speedFactor="0.84" vaporized="">
        <emissions CO_abs="3839.631466" CO2_abs="204159.314936" HC_abs="22.185472" PMx_abs="3.258116" NOx_abs="81.923457" fuel_abs="87.760415" electricity_abs="0"/>
    </tripinfo>
    <tripinfo id="carIn462:1" depart="57622.00" departLane="-306240162#1_0" departPos="5.10" departSpeed="0.00" departDelay="4.80" arrival="57848.00" arrivalLane="386687235_1" arrivalPos="80.84" arrivalSpeed="12.07" duration="226.00" routeLength="2257.41" waitingTime="21.00" waitingCount="3" stopTime="0.00" timeLoss="65.84" rerouteNo="1" devices="tripinfo_carIn462:1 routing_carIn462:1 emissions_carIn462:1" vType="default_016" speedFactor="0.93" vaporized="">
        <emissions CO_abs="9963.723969" CO2_abs="575638.345918" HC_abs="58.904178" PMx_abs="10.282671" NOx_abs="234.298634" fuel_abs="247.443263" electricity_abs="0"/>
    </tripinfo>
    <tripinfo id="carIn81046:1" depart="57611.00" departLane="124812856#0_1" departPos="5.10" departSpeed="0.00" departDelay="2.50" arrival="57849.00" arrivalLane="-128361102#1_1" arrivalPos="274.68" arrivalSpeed="10.26" duration="238.00" routeLength="2232.46" waitingTime="2.00" waitingCount="1" stopTime="0.00" timeLoss="27.21" rerouteNo="1" devices="tripinfo_carIn81046:1 routing_carIn81046:1 emissions_carIn81046:1" vType="default_016" speedFactor="0.77" vaporized="">
        <emissions CO_abs="6669.175702" CO2_abs="429237.670667" HC_abs="40.255692" PMx_abs="6.588366" NOx_abs="169.889781" fuel_abs="184.512407" electricity_abs="0"/>
    </tripinfo>
    <tripinfo id="h8343c1:5" depart="57679.00" departLane="315358254#0_1" departPos="5.10" departSpeed="0.00" departDelay="0.60" arrival="57851.00" arrivalLane="-24634510#5_1" arrivalPos="236.88" arrivalSpeed="12.88" duration="172.00" routeLength="2056.84" waitingTime="15.00" waitingCount="2" stopTime="0.00" timeLoss="41.85" rerouteNo="1" devices="tripinfo_h8343c1:5 routing_h8343c1:5 emissions_h8343c1:5" vType="default_016" speedFactor="0.97" vaporized="">
        <emissions CO_abs="8289.069435" CO2_abs="534614.096641" HC_abs="50.485387" PMx_abs="10.045168" NOx_abs="218.801194" fuel_abs="229.807254" electricity_abs="0"/>
    </tripinfo>
    <tripinfo id="carIn86816:1" depart="57617.00" departLane="128361102#0_1" departPos="5.10" departSpeed="0.00" departDelay="0.80" arrival="57853.00" arrivalLane="201956811#0_1" arrivalPos="40.40" arrivalSpeed="10.61" duration="236.00" routeLength="2067.33" waitingTime="14.00" waitingCount="2" stopTime="0.00" timeLoss="42.70" rerouteNo="1" devices="tripinfo_carIn86816:1 routing_carIn86816:1 emissions_carIn86816:1" vType="default_016" speedFactor="0.78" vaporized="">
        <emissions CO_abs="7995.366191" CO2_abs="447605.767606" HC_abs="46.716357" PMx_abs="7.028844" NOx_abs="178.184455" fuel_abs="192.408778" electricity_abs="0"/>
    </tripinfo>