<?xml version="1.0" encoding="UTF-8"?>

<!-- generated on 2021-10-26 19:49:13 by Eclipse SUMO sumo Version 1.10.0
<configuration xmlns:xsi="http://www.w3.org/2001/XMLSchema-instance" xsi:noNamespaceSchemaLocation="http://sumo.dlr.de/xsd/sumoConfiguration.xsd">

    <input>
        <net-file value="/Users/behradkoohy/sumo-scratchpad/RESCO/environments/ingolstadt21/ingolstadt21.net.xml"/>
        <route-files value="/Users/behradkoohy/sumo-scratchpad/RESCO/environments/ingolstadt21/ingolstadt21.rou.xml"/>
    </input>

    <output>
        <tripinfo-output value="/Users/behradkoohy/sumo-scratchpad/RESCO/logs/MPLight-tr0-ingolstadt21-21-mplight-pressure/tripinfo_45.xml"/>
        <tripinfo-output.write-unfinished value="true"/>
    </output>

    <time>
        <begin value="57600"/>
        <end value="61200"/>
    </time>

    <processing>
        <time-to-teleport value="-1"/>
    </processing>

    <report>
        <no-warnings value="true"/>
        <no-step-log value="true"/>
    </report>

    <emissions>
        <device.emissions.probability value="1"/>
    </emissions>

    <traci_server>
        <remote-port value="63917"/>
    </traci_server>

    <random_number>
        <random value="true"/>
    </random_number>

</configuration>
-->

<tripinfos xmlns:xsi="http://www.w3.org/2001/XMLSchema-instance" xsi:noNamespaceSchemaLocation="http://sumo.dlr.de/xsd/tripinfo_file.xsd">
    <tripinfo id="h15454c2:3" depart="57612.00" departLane="24608844_1" departPos="5.10" departSpeed="0.00" departDelay="0.50" arrival="57657.00" arrivalLane="32978638#0_1" arrivalPos="49.29" arrivalSpeed="13.54" duration="45.00" routeLength="354.79" waitingTime="2.00" waitingCount="1" stopTime="0.00" timeLoss="13.00" rerouteNo="1" devices="tripinfo_h15454c2:3 routing_h15454c2:3 emissions_h15454c2:3" vType="default_016" speedFactor="1.07" vaporized="">
        <emissions CO_abs="2246.124103" CO2_abs="120521.349637" HC_abs="13.026679" PMx_abs="2.156987" NOx_abs="49.728247" fuel_abs="51.807233" electricity_abs="0"/>
    </tripinfo>
    <tripinfo id="carIn60260:1" depart="57606.00" departLane="315358254#0_1" departPos="5.10" departSpeed="0.00" departDelay="0.90" arrival="57674.00" arrivalLane="399835085#1_1" arrivalPos="212.23" arrivalSpeed="7.32" duration="68.00" routeLength="430.98" waitingTime="11.00" waitingCount="1" stopTime="0.00" timeLoss="21.65" rerouteNo="1" devices="tripinfo_carIn60260:1 routing_carIn60260:1 emissions_carIn60260:1" vType="default_016" speedFactor="1.00" vaporized="">
        <emissions CO_abs="3605.960935" CO2_abs="141306.520373" HC_abs="19.680612" PMx_abs="2.459041" NOx_abs="58.265520" fuel_abs="60.742836" electricity_abs="0"/>
    </tripinfo>
    <tripinfo id="carIn53971:1" depart="57640.00" departLane="272042143_1" departPos="5.10" departSpeed="0.00" departDelay="0.80" arrival="57695.00" arrivalLane="24634414#1_1" arrivalPos="162.19" arrivalSpeed="7.35" duration="55.00" routeLength="493.04" waitingTime="0.00" waitingCount="0" stopTime="0.00" timeLoss="8.44" rerouteNo="1" devices="tripinfo_carIn53971:1 routing_carIn53971:1 emissions_carIn53971:1" vType="default_016" speedFactor="0.98" vaporized="">
        <emissions CO_abs="2428.752758" CO2_abs="134118.325927" HC_abs="14.181807" PMx_abs="2.303229" NOx_abs="54.767697" fuel_abs="57.652108" electricity_abs="0"/>
    </tripinfo>
    <tripinfo id="h7800c1:5" depart="57696.00" departLane="-447569998#1_1" departPos="5.10" departSpeed="0.00" departDelay="0.00" arrival="57718.00" arrivalLane="-447569998#1_1" arrivalPos="180.76" arrivalSpeed="8.49" duration="22.00" routeLength="175.66" waitingTime="0.00" waitingCount="0" stopTime="0.00" timeLoss="3.39" rerouteNo="1" devices="tripinfo_h7800c1:5 routing_h7800c1:5 emissions_h7800c1:5" vType="default_016" speedFactor="1.17" vaporized="">
        <emissions CO_abs="1100.857787" CO2_abs="54474.273198" HC_abs="6.272415" PMx_abs="0.913868" NOx_abs="22.220713" fuel_abs="23.416432" electricity_abs="0"/>
    </tripinfo>
    <tripinfo id="h3568c1:3" depart="57656.00" departLane="266565295#5_1" departPos="5.10" departSpeed="0.00" departDelay="0.80" arrival="57727.00" arrivalLane="-24634415_1" arrivalPos="62.03" arrivalSpeed="14.34" duration="71.00" routeLength="807.40" waitingTime="0.00" waitingCount="0" stopTime="0.00" timeLoss="11.77" rerouteNo="1" devices="tripinfo_h3568c1:3 routing_h3568c1:3 emissions_h3568c1:3" vType="default_016" speedFactor="1.10" vaporized="">
        <emissions CO_abs="3108.810946" CO2_abs="209826.553788" HC_abs="19.017993" PMx_abs="3.741951" NOx_abs="85.535065" fuel_abs="90.195339" electricity_abs="0"/>
    </tripinfo>
    <tripinfo id="h3688c1:1" depart="57625.00" departLane="201201950#1_1" departPos="5.10" departSpeed="0.00" departDelay="0.00" arrival="57731.00" arrivalLane="32978638#0_1" arrivalPos="49.29" arrivalSpeed="13.53" duration="106.00" routeLength="1089.75" waitingTime="12.00" waitingCount="1" stopTime="0.00" timeLoss="27.63" rerouteNo="1" devices="tripinfo_h3688c1:1 routing_h3688c1:1 emissions_h3688c1:1" vType="default_016" speedFactor="1.01" vaporized="">
        <emissions CO_abs="4270.172714" CO2_abs="289528.525883" HC_abs="26.180573" PMx_abs="4.822380" NOx_abs="115.409370" fuel_abs="124.456325" electricity_abs="0"/>
    </tripinfo>
    <tripinfo id="carIn121703:1" depart="57647.00" departLane="386687232#0_1" departPos="5.10" departSpeed="0.00" departDelay="0.30" arrival="57736.00" arrivalLane="-315358244_1" arrivalPos="33.95" arrivalSpeed="14.02" duration="89.00" routeLength="1157.39" waitingTime="0.00" waitingCount="0" stopTime="0.00" timeLoss="8.03" rerouteNo="1" devices="tripinfo_carIn121703:1 routing_carIn121703:1 emissions_carIn121703:1" vType="default_016" speedFactor="1.04" vaporized="">
        <emissions CO_abs="2180.541272" CO2_abs="213685.941643" HC_abs="14.838103" PMx_abs="3.192993" NOx_abs="81.872955" fuel_abs="91.854558" electricity_abs="0"/>
    </tripinfo>
    <tripinfo id="h7181c1:1" depart="57660.00" departLane="315358254#0_1" departPos="5.10" departSpeed="0.00" departDelay="0.10" arrival="57740.00" arrivalLane="306240162#0_0" arrivalPos="220.43" arrivalSpeed="18.43" duration="80.00" routeLength="932.35" waitingTime="16.00" waitingCount="1" stopTime="0.00" timeLoss="33.34" rerouteNo="1" devices="tripinfo_h7181c1:1 routing_h7181c1:1 emissions_h7181c1:1" vType="default_016" speedFactor="1.11" vaporized="">
        <emissions CO_abs="6518.421398" CO2_abs="322079.331761" HC_abs="37.385617" PMx_abs="6.668151" NOx_abs="135.023396" fuel_abs="138.448273" electricity_abs="0"/>
    </tripinfo>
    <tripinfo id="carIn22761:1" depart="57616.00" departLane="-306240162#1_0" departPos="5.10" departSpeed="0.00" departDelay="2.10" arrival="57746.00" arrivalLane="399835085#1_1" arrivalPos="212.23" arrivalSpeed="7.46" duration="130.00" routeLength="1093.26" waitingTime="31.00" waitingCount="1" stopTime="0.00" timeLoss="49.41" rerouteNo="1" devices="tripinfo_carIn22761:1 routing_carIn22761:1 emissions_carIn22761:1" vType="default_016" speedFactor="0.97" vaporized="">
        <emissions CO_abs="8748.860200" CO2_abs="339864.127246" HC_abs="47.773750" PMx_abs="6.721263" NOx_abs="142.145822" fuel_abs="146.095099" electricity_abs="0"/>
    </tripinfo>
    <tripinfo id="h4538c1:1" depart="57701.00" departLane="-10427692#1_1" departPos="5.10" departSpeed="0.00" departDelay="0.00" arrival="57749.00" arrivalLane="-128361102#1_1" arrivalPos="274.68" arrivalSpeed="11.89" duration="48.00" routeLength="440.74" waitingTime="2.00" waitingCount="1" stopTime="0.00" timeLoss="13.03" rerouteNo="1" devices="tripinfo_h4538c1:1 routing_h4538c1:1 emissions_h4538c1:1" vType="default_016" speedFactor="0.92" vaporized="">
        <emissions CO_abs="1752.548961" CO2_abs="105957.730512" HC_abs="10.447499" PMx_abs="1.763395" NOx_abs="42.603739" fuel_abs="45.546969" electricity_abs="0"/>
    </tripinfo>
    <tripinfo id="S5R_frequency1.2" depart="57615.00" departLane="315358250#0_1" departPos="12.10" departSpeed="0.00" departDelay="3.40" arrival="57756.00" arrivalLane="386687235_1" arrivalPos="80.84" arrivalSpeed="13.16" duration="141.00" routeLength="1115.62" waitingTime="35.00" waitingCount="1" stopTime="0.00" timeLoss="59.40" rerouteNo="1" devices="tripinfo_S5R_frequency1.2 routing_S5R_frequency1.2 emissions_S5R_frequency1.2" vType="bus" speedFactor="1.00" vaporized="">
        <emissions CO_abs="2748.392629" CO2_abs="1479882.506513" HC_abs="601.853458" PMx_abs="289.662672" NOx_abs="12129.516191" fuel_abs="631.080655" electricity_abs="0"/>
    </tripinfo>
    <tripinfo id="carIn30817:1" depart="57681.00" departLane="315358244_1" departPos="5.10" departSpeed="0.00" departDelay="0.20" arrival="57758.00" arrivalLane="447569997#1_1" arrivalPos="180.93" arrivalSpeed="7.03" duration="77.00" routeLength="718.04" waitingTime="0.00" waitingCount="0" stopTime="0.00" timeLoss="12.24" rerouteNo="1" devices="tripinfo_carIn30817:1 routing_carIn30817:1 emissions_carIn30817:1" vType="default_016" speedFactor="0.95" vaporized="">
        <emissions CO_abs="3008.217714" CO2_abs="172020.244855" HC_abs="17.704995" PMx_abs="2.920730" NOx_abs="69.849282" fuel_abs="73.944607" electricity_abs="0"/>
    </tripinfo>
    <tripinfo id="h3326c1:2" depart="57656.00" departLane="22716069#0_1" departPos="5.10" departSpeed="0.00" departDelay="0.00" arrival="57759.00" arrivalLane="24634517#13_1" arrivalPos="111.62" arrivalSpeed="14.44" duration="103.00" routeLength="1312.81" waitingTime="0.00" waitingCount="0" stopTime="0.00" timeLoss="14.68" rerouteNo="1" devices="tripinfo_h3326c1:2 routing_h3326c1:2 emissions_h3326c1:2" vType="default_016" speedFactor="1.11" vaporized="">
        <emissions CO_abs="4137.755565" CO2_abs="321577.350705" HC_abs="26.304859" PMx_abs="5.664885" NOx_abs="129.777918" fuel_abs="138.231821" electricity_abs="0"/>
    </tripinfo>
    <tripinfo id="h12244c1:3" depart="57612.00" departLane="315358244_1" departPos="5.10" departSpeed="0.00" departDelay="0.40" arrival="57770.00" arrivalLane="386687235_1" arrivalPos="80.84" arrivalSpeed="11.93" duration="158.00" routeLength="1186.14" waitingTime="39.00" waitingCount="2" stopTime="0.00" timeLoss="60.25" rerouteNo="1" devices="tripinfo_h12244c1:3 routing_h12244c1:3 emissions_h12244c1:3" vType="default_016" speedFactor="0.89" vaporized="">
        <emissions CO_abs="8928.042327" CO2_abs="342489.071965" HC_abs="48.616490" PMx_abs="6.158084" NOx_abs="140.730345" fuel_abs="147.224370" electricity_abs="0"/>
    </tripinfo>
    <tripinfo id="h9563c2:5" depart="57631.00" departLane="315358244_1" departPos="5.10" departSpeed="0.00" departDelay="0.70" arrival="57772.00" arrivalLane="386687235_1" arrivalPos="80.84" arrivalSpeed="11.18" duration="141.00" routeLength="1186.14" waitingTime="21.00" waitingCount="2" stopTime="0.00" timeLoss="45.06" rerouteNo="1" devices="tripinfo_h9563c2:5 routing_h9563c2:5 emissions_h9563c2:5" vType="default_016" speedFactor="0.90" vaporized="">
        <emissions CO_abs="6414.032417" CO2_abs="318375.510233" HC_abs="36.622160" PMx_abs="5.498323" NOx_abs="129.373961" fuel_abs="136.857503" electricity_abs="0"/>
    </tripinfo>
    <tripinfo id="h645c1:1" depart="57622.00" departLane="266565295#5_1" departPos="5.10" departSpeed="0.00" departDelay="0.40" arrival="57773.00" arrivalLane="-315358244_1" arrivalPos="33.95" arrivalSpeed="14.77" duration="151.00" routeLength="1910.83" waitingTime="6.00" waitingCount="1" stopTime="0.00" timeLoss="26.35" rerouteNo="1" devices="tripinfo_h645c1:1 routing_h645c1:1 emissions_h645c1:1" vType="default_016" speedFactor="1.12" vaporized="">
        <emissions CO_abs="5036.205144" CO2_abs="430257.090470" HC_abs="32.884421" PMx_abs="7.284027" NOx_abs="170.744499" fuel_abs="184.948539" electricity_abs="0"/>
    </tripinfo>
    <tripinfo id="carIn27009:1" depart="57673.00" departLane="-447569998#1_1" departPos="5.10" departSpeed="0.00" departDelay="0.50" arrival="57775.00" arrivalLane="-26677539_1" arrivalPos="152.75" arrivalSpeed="8.97" duration="102.00" routeLength="699.63" waitingTime="14.00" waitingCount="1" stopTime="0.00" timeLoss="29.17" rerouteNo="1" devices="tripinfo_carIn27009:1 routing_carIn27009:1 emissions_carIn27009:1" vType="default_015" speedFactor="1.14" vaporized="">
        <emissions CO_abs="5196.363137" CO2_abs="215290.768193" HC_abs="28.645261" PMx_abs="3.769600" NOx_abs="88.795453" fuel_abs="92.545854" electricity_abs="0"/>
    </tripinfo>
    <tripinfo id="h317c2:1" depart="57707.00" departLane="-32978638#0_1" departPos="5.10" departSpeed="0.00" departDelay="0.10" arrival="57785.00" arrivalLane="-266565295#5_1" arrivalPos="172.76" arrivalSpeed="14.14" duration="78.00" routeLength="370.53" waitingTime="41.00" waitingCount="1" stopTime="0.00" timeLoss="51.21" rerouteNo="1" devices="tripinfo_h317c2:1 routing_h317c2:1 emissions_h317c2:1" vType="default_016" speedFactor="1.04" vaporized="">
        <emissions CO_abs="8306.119041" CO2_abs="225039.506865" HC_abs="43.115521" PMx_abs="4.857377" NOx_abs="97.886402" fuel_abs="96.737635" electricity_abs="0"/>
    </tripinfo>
    <tripinfo id="carIn28951:1" depart="57606.00" departLane="10425609#0_1" departPos="5.10" departSpeed="0.00" departDelay="0.20" arrival="57786.00" arrivalLane="-128361102#1_1" arrivalPos="274.68" arrivalSpeed="13.80" duration="180.00" routeLength="2113.04" waitingTime="0.00" waitingCount="0" stopTime="0.00" timeLoss="25.14" rerouteNo="1" devices="tripinfo_carIn28951:1 routing_carIn28951:1 emissions_carIn28951:1" vType="default_016" speedFactor="1.01" vaporized="">
        <emissions CO_abs="5985.254165" CO2_abs="475901.706581" HC_abs="38.342078" PMx_abs="7.724633" NOx_abs="188.325435" fuel_abs="204.569874" electricity_abs="0"/>
    </tripinfo>
    <tripinfo id="carIn12365:1" depart="57713.00" departLane="315358244_1" departPos="5.10" departSpeed="0.00" departDelay="0.50" arrival="57786.00" arrivalLane="447569997#1_1" arrivalPos="180.93" arrivalSpeed="6.73" duration="73.00" routeLength="718.04" waitingTime="0.00" waitingCount="0" stopTime="0.00" timeLoss="8.23" rerouteNo="1" devices="tripinfo_carIn12365:1 routing_carIn12365:1 emissions_carIn12365:1" vType="default_016" speedFactor="0.95" vaporized="">
        <emissions CO_abs="2275.682449" CO2_abs="148813.547177" HC_abs="13.810604" PMx_abs="2.354674" NOx_abs="58.984555" fuel_abs="63.968996" electricity_abs="0"/>
    </tripinfo>
    <tripinfo id="h330c1:1" depart="57736.00" departLane="-32978638#0_1" departPos="5.10" departSpeed="0.00" departDelay="0.20" arrival="57787.00" arrivalLane="-266565295#5_1" arrivalPos="172.76" arrivalSpeed="14.33" duration="51.00" routeLength="370.53" waitingTime="13.00" waitingCount="1" stopTime="0.00" timeLoss="24.91" rerouteNo="1" devices="tripinfo_h330c1:1 routing_h330c1:1 emissions_h330c1:1" vType="default_016" speedFactor="1.06" vaporized="">
        <emissions CO_abs="3323.044777" CO2_abs="148233.858980" HC_abs="18.624932" PMx_abs="2.836747" NOx_abs="61.977999" fuel_abs="63.719958" electricity_abs="0"/>
    </tripinfo>
    <tripinfo id="carIn107084:1" depart="57601.00" departLane="124812856#0_1" departPos="5.10" departSpeed="0.00" departDelay="0.70" arrival="57792.00" arrivalLane="-128361102#1_1" arrivalPos="274.68" arrivalSpeed="15.86" duration="191.00" routeLength="2232.46" waitingTime="25.00" waitingCount="1" stopTime="0.00" timeLoss="58.75" rerouteNo="1" devices="tripinfo_carIn107084:1 routing_carIn107084:1 emissions_carIn107084:1" vType="default_016" speedFactor="1.23" vaporized="">
        <emissions CO_abs="10317.633704" CO2_abs="599685.641575" HC_abs="60.922730" PMx_abs="11.151252" NOx_abs="245.134754" fuel_abs="257.779618" electricity_abs="0"/>
    </tripinfo>
    <tripinfo id="h3154c1:1" depart="57658.00" departLane="24634507_1" departPos="5.10" departSpeed="0.00" departDelay="0.00" arrival="57797.00" arrivalLane="-266565295#5_1" arrivalPos="172.76" arrivalSpeed="13.69" duration="139.00" routeLength="1206.22" waitingTime="28.00" waitingCount="2" stopTime="0.00" timeLoss="50.89" rerouteNo="1" devices="tripinfo_h3154c1:1 routing_h3154c1:1 emissions_h3154c1:1" vType="default_016" speedFactor="1.02" vaporized="">
        <emissions CO_abs="7343.027726" CO2_abs="347379.625807" HC_abs="41.592750" PMx_abs="6.382981" NOx_abs="143.172934" fuel_abs="149.325024" electricity_abs="0"/>
    </tripinfo>
    <tripinfo id="carIn107282:1" depart="57749.00" departLane="-447569998#1_1" departPos="5.10" departSpeed="0.00" departDelay="0.00" arrival="57797.00" arrivalLane="315358242#0_1" arrivalPos="165.37" arrivalSpeed="13.18" duration="48.00" routeLength="448.50" waitingTime="0.00" waitingCount="0" stopTime="0.00" timeLoss="5.10" rerouteNo="1" devices="tripinfo_carIn107282:1 routing_carIn107282:1 emissions_carIn107282:1" vType="default_016" speedFactor="0.97" vaporized="">
        <emissions CO_abs="2011.864859" CO2_abs="116353.600064" HC_abs="11.836984" PMx_abs="1.861687" NOx_abs="46.480996" fuel_abs="50.015903" electricity_abs="0"/>
    </tripinfo>
    <tripinfo id="carIn86816:1" depart="57617.00" departLane="128361102#0_1" departPos="5.10" departSpeed="0.00" departDelay="0.80" arrival="57801.00" arrivalLane="201956811#0_1" arrivalPos="40.40" arrivalSpeed="13.97" duration="184.00" routeLength="2067.33" waitingTime="13.00" waitingCount="2" stopTime="0.00" timeLoss="40.80" rerouteNo="1" devices="tripinfo_carIn86816:1 routing_carIn86816:1 emissions_carIn86816:1" vType="default_016" speedFactor="1.06" vaporized="">
        <emissions CO_abs="7295.634802" CO2_abs="501668.820750" HC_abs="44.876238" PMx_abs="8.616103" NOx_abs="201.189315" fuel_abs="215.646201" electricity_abs="0"/>
    </tripinfo>
    <tripinfo id="carIn129809:1" depart="57729.00" departLane="-447569998#1_1" departPos="5.10" departSpeed="0.00" departDelay="1.00" arrival="57803.00" arrivalLane="-315358244_1" arrivalPos="33.95" arrivalSpeed="15.36" duration="74.00" routeLength="706.49" waitingTime="9.00" waitingCount="1" stopTime="0.00" timeLoss="20.64" rerouteNo="1" devices="tripinfo_carIn129809:1 routing_carIn129809:1 emissions_carIn129809:1" vType="default_015" speedFactor="1.15" vaporized="">
        <emissions CO_abs="2775.088956" CO2_abs="172853.789569" HC_abs="16.705481" PMx_abs="3.048264" NOx_abs="70.048818" fuel_abs="74.302620" electricity_abs="0"/>
    </tripinfo>
    <tripinfo id="carIn50326:1" depart="57651.00" departLane="128361102#0_1" departPos="5.10" departSpeed="0.00" departDelay="0.30" arrival="57806.00" arrivalLane="18809673#0_1" arrivalPos="473.56" arrivalSpeed="13.32" duration="155.00" routeLength="1591.07" waitingTime="0.00" waitingCount="0" stopTime="0.00" timeLoss="20.19" rerouteNo="1" devices="tripinfo_carIn50326:1 routing_carIn50326:1 emissions_carIn50326:1" vType="default_016" speedFactor="0.97" vaporized="">
        <emissions CO_abs="4971.785649" CO2_abs="343925.332629" HC_abs="30.603300" PMx_abs="5.348716" NOx_abs="135.448159" fuel_abs="147.839678" electricity_abs="0"/>
    </tripinfo>
    <tripinfo id="h5979c1:5" depart="57669.00" departLane="399835085#1_1" departPos="5.10" departSpeed="0.00" departDelay="0.00" arrival="57809.00" arrivalLane="-315358254#1_1" arrivalPos="137.16" arrivalSpeed="12.08" duration="140.00" routeLength="659.33" waitingTime="49.00" waitingCount="1" stopTime="0.00" timeLoss="61.21" rerouteNo="1" devices="tripinfo_h5979c1:5 routing_h5979c1:5 emissions_h5979c1:5" vType="default_016" speedFactor="0.94" vaporized="">
        <emissions CO_abs="11409.172419" CO2_abs="299325.768085" HC_abs="58.898188" PMx_abs="5.979771" NOx_abs="128.022596" fuel_abs="128.671989" electricity_abs="0"/>
    </tripinfo>
    <tripinfo id="carIn82278:1" depart="57702.00" departLane="-306240162#1_0" departPos="5.10" departSpeed="0.00" departDelay="0.70" arrival="57817.00" arrivalLane="399835085#1_1" arrivalPos="212.23" arrivalSpeed="7.22" duration="115.00" routeLength="1093.26" waitingTime="8.00" waitingCount="1" stopTime="0.00" timeLoss="35.73" rerouteNo="1" devices="tripinfo_carIn82278:1 routing_carIn82278:1 emissions_carIn82278:1" vType="default_016" speedFactor="0.99" vaporized="">
        <emissions CO_abs="5747.157166" CO2_abs="323040.772653" HC_abs="33.846574" PMx_abs="6.164415" NOx_abs="133.986328" fuel_abs="138.861487" electricity_abs="0"/>
    </tripinfo>
    <tripinfo id="carIn118591:1" depart="57689.00" departLane="315358244_1" departPos="5.10" departSpeed="0.00" departDelay="0.20" arrival="57822.00" arrivalLane="386687235_1" arrivalPos="80.84" arrivalSpeed="13.37" duration="133.00" routeLength="1186.14" waitingTime="29.00" waitingCount="2" stopTime="0.00" timeLoss="45.12" rerouteNo="1" devices="tripinfo_carIn118591:1 routing_carIn118591:1 emissions_carIn118591:1" vType="default_016" speedFactor="0.98" vaporized="">
        <emissions CO_abs="7196.739102" CO2_abs="313444.101950" HC_abs="40.097804" PMx_abs="5.696917" NOx_abs="128.491695" fuel_abs="134.738072" electricity_abs="0"/>
    </tripinfo>
    <tripinfo id="h17600c1:1" depart="57662.00" departLane="272042143_1" departPos="5.10" departSpeed="0.00" departDelay="0.30" arrival="57830.00" arrivalLane="201238729#3_1" arrivalPos="431.02" arrivalSpeed="14.20" duration="168.00" routeLength="2100.26" waitingTime="9.00" waitingCount="1" stopTime="0.00" timeLoss="26.00" rerouteNo="1" devices="tripinfo_h17600c1:1 routing_h17600c1:1 emissions_h17600c1:1" vType="default_016" speedFactor="1.07" vaporized="">
        <emissions CO_abs="5097.226930" CO2_abs="392799.582899" HC_abs="32.263560" PMx_abs="6.361094" NOx_abs="153.817675" fuel_abs="168.848105" electricity_abs="0"/>
    </tripinfo>
    <tripinfo id="randUni15030:1" depart="57735.00" departLane="386687232#0_1" departPos="5.10" departSpeed="0.00" departDelay="0.10" arrival="57832.00" arrivalLane="26677539_1" arrivalPos="151.98" arrivalSpeed="7.82" duration="97.00" routeLength="919.89" waitingTime="0.00" waitingCount="0" stopTime="0.00" timeLoss="11.84" rerouteNo="1" devices="tripinfo_randUni15030:1 routing_randUni15030:1 emissions_randUni15030:1" vType="random_016" speedFactor="0.98" vaporized="">
        <emissions CO_abs="3644.758848" CO2_abs="217482.661957" HC_abs="21.648653" PMx_abs="3.593993" NOx_abs="87.649563" fuel_abs="93.487095" electricity_abs="0"/>
    </tripinfo>
    <tripinfo id="carIn80064:1" depart="57603.00" departLane="128361109#1_1" departPos="5.10" departSpeed="0.00" departDelay="0.40" arrival="57833.00" arrivalLane="-315358254#1_1" arrivalPos="137.16" arrivalSpeed="12.01" duration="230.00" routeLength="1587.97" waitingTime="98.00" waitingCount="3" stopTime="0.00" timeLoss="131.39" rerouteNo="1" devices="tripinfo_carIn80064:1 routing_carIn80064:1 emissions_carIn80064:1" vType="default_016" speedFactor="0.92" vaporized="">
        <emissions CO_abs="20237.063249" CO2_abs="665208.200835" HC_abs="107.914034" PMx_abs="13.870825" NOx_abs="283.755564" fuel_abs="285.950074" electricity_abs="0"/>
    </tripinfo>
    <tripinfo id="carIn81860:1" depart="57712.00" departLane="128361102#0_1" departPos="5.10" departSpeed="0.00" departDelay="0.60" arrival="57835.00" arrivalLane="-24634517#17_1" arrivalPos="6.43" arrivalSpeed="8.07" duration="123.00" routeLength="1229.64" waitingTime="11.00" waitingCount="1" stopTime="0.00" timeLoss="32.79" rerouteNo="1" devices="tripinfo_carIn81860:1 routing_carIn81860:1 emissions_carIn81860:1" vType="default_016" speedFactor="1.00" vaporized="">
        <emissions CO_abs="4867.883447" CO2_abs="285446.411626" HC_abs="28.834592" PMx_abs="4.937058" NOx_abs="115.433106" fuel_abs="122.701831" electricity_abs="0"/>
    </tripinfo>
    <tripinfo id="h19804c1:3" depart="57617.00" departLane="124812856#0_1" departPos="5.10" departSpeed="0.00" departDelay="1.50" arrival="57837.00" arrivalLane="-128361102#1_1" arrivalPos="274.68" arrivalSpeed="12.51" duration="220.00" routeLength="2250.49" waitingTime="19.00" waitingCount="2" stopTime="0.00" timeLoss="47.76" rerouteNo="1" devices="tripinfo_h19804c1:3 routing_h19804c1:3 emissions_h19804c1:3" vType="default_016" speedFactor="0.96" vaporized="">
        <emissions CO_abs="7892.627420" CO2_abs="509563.208198" HC_abs="47.824426" PMx_abs="8.479955" NOx_abs="203.799329" fuel_abs="219.040392" electricity_abs="0"/>
    </tripinfo>
    <tripinfo id="carIn102915:1" depart="57643.00" departLane="128361102#0_1" departPos="5.10" departSpeed="0.00" departDelay="0.40" arrival="57837.00" arrivalLane="201956811#0_1" arrivalPos="40.40" arrivalSpeed="14.78" duration="194.00" routeLength="2067.33" waitingTime="17.00" waitingCount="4" stopTime="0.00" timeLoss="53.90" rerouteNo="1" devices="tripinfo_carIn102915:1 routing_carIn102915:1 emissions_carIn102915:1" vType="default_016" speedFactor="1.08" vaporized="">
        <emissions CO_abs="7256.835380" CO2_abs="511475.984121" HC_abs="45.003029" PMx_abs="8.801635" NOx_abs="205.432254" fuel_abs="219.861697" electricity_abs="0"/>
    </tripinfo>
    <tripinfo id="randUni31145:1" depart="57814.00" departLane="10425609#0_1" departPos="5.10" departSpeed="0.00" departDelay="0.30" arrival="57838.00" arrivalLane="201956810_1" arrivalPos="71.65" arrivalSpeed="15.09" duration="24.00" routeLength="255.78" waitingTime="0.00" waitingCount="0" stopTime="0.00" timeLoss="5.70" rerouteNo="1" devices="tripinfo_randUni31145:1 routing_randUni31145:1 emissions_randUni31145:1" vType="random_016" speedFactor="1.09" vaporized="">
        <emissions CO_abs="1674.577489" CO2_abs="100317.015821" HC_abs="10.019117" PMx_abs="1.984117" NOx_abs="42.515534" fuel_abs="43.121770" electricity_abs="0"/>
    </tripinfo>
    <tripinfo id="randUni33724:1" depart="57646.00" departLane="128361102#0_1" departPos="5.10" departSpeed="0.00" departDelay="1.20" arrival="57839.00" arrivalLane="201956811#0_1" arrivalPos="40.40" arrivalSpeed="12.33" duration="193.00" routeLength="2067.33" waitingTime="1.00" waitingCount="1" stopTime="0.00" timeLoss="31.92" rerouteNo="1" devices="tripinfo_randUni33724:1 routing_randUni33724:1 emissions_randUni33724:1" vType="random_016" speedFactor="0.94" vaporized="">
        <emissions CO_abs="6430.191950" CO2_abs="464229.002670" HC_abs="40.081729" PMx_abs="7.443991" NOx_abs="183.918730" fuel_abs="199.552844" electricity_abs="0"/>
    </tripinfo>
    <tripinfo id="carIn8642:1" depart="57774.00" departLane="-447569998#1_1" departPos="5.10" departSpeed="0.00" departDelay="0.90" arrival="57841.00" arrivalLane="-315358244_1" arrivalPos="33.95" arrivalSpeed="12.78" duration="67.00" routeLength="706.49" waitingTime="0.00" waitingCount="0" stopTime="0.00" timeLoss="6.71" rerouteNo="1" devices="tripinfo_carIn8642:1 routing_carIn8642:1 emissions_carIn8642:1" vType="default_016" speedFactor="1.00" vaporized="">
        <emissions CO_abs="2334.656735" CO2_abs="154167.615581" HC_abs="14.226360" PMx_abs="2.554534" NOx_abs="61.835036" fuel_abs="66.270302" electricity_abs="0"/>
    </tripinfo>
    <tripinfo id="carIn77943:1" depart="57608.00" departLane="124812856#0_1" departPos="5.10" departSpeed="0.00" departDelay="2.50" arrival="57842.00" arrivalLane="-128361102#1_1" arrivalPos="274.68" arrivalSpeed="12.02" duration="234.00" routeLength="2250.49" waitingTime="19.00" waitingCount="1" stopTime="0.00" timeLoss="45.43" rerouteNo="1" devices="tripinfo_carIn77943:1 routing_carIn77943:1 emissions_carIn77943:1" vType="default_016" speedFactor="0.87" vaporized="">
        <emissions CO_abs="8880.801661" CO2_abs="497473.778444" HC_abs="51.980028" PMx_abs="8.160967" NOx_abs="199.248662" fuel_abs="213.844720" electricity_abs="0"/>
    </tripinfo>
    <tripinfo id="h20540c1:1" depart="57634.00" departLane="10425609#0_1" departPos="5.10" departSpeed="0.00" departDelay="0.50" arrival="57844.00" arrivalLane="-128361102#1_1" arrivalPos="274.68" arrivalSpeed="13.61" duration="210.00" routeLength="2113.04" waitingTime="10.00" waitingCount="1" stopTime="0.00" timeLoss="61.96" rerouteNo="1" devices="tripinfo_h20540c1:1 routing_h20540c1:1 emissions_h20540c1:1" vType="default_016" speedFactor="1.05" vaporized="">
        <emissions CO_abs="8676.531888" CO2_abs="538302.426529" HC_abs="52.165299" PMx_abs="9.598071" NOx_abs="221.115155" fuel_abs="231.393346" electricity_abs="0"/>
    </tripinfo>
    <tripinfo id="carIn12858:1" depart="57661.00" departLane="128361109#1_1" departPos="5.10" departSpeed="0.00" departDelay="0.90" arrival="57848.00" arrivalLane="399835085#1_1" arrivalPos="212.23" arrivalSpeed="4.42" duration="187.00" routeLength="1738.12" waitingTime="32.00" waitingCount="3" stopTime="0.00" timeLoss="75.50" rerouteNo="1" devices="tripinfo_carIn12858:1 routing_carIn12858:1 emissions_carIn12858:1" vType="default_016" speedFactor="1.03" vaporized="">
        <emissions CO_abs="11709.595852" CO2_abs="560499.692298" HC_abs="66.659475" PMx_abs="11.036211" NOx_abs="234.047864" fuel_abs="240.936008" electricity_abs="0"/>
    </tripinfo>
    <tripinfo id="h11737c1:1" depart="57665.00" departLane="272042143_1" departPos="5.10" departSpeed="0.00" departDelay="1.50" arrival="57848.00" arrivalLane="-315358254#1_1" arrivalPos="137.16" arrivalSpeed="11.67" duration="183.00" routeLength="1596.88" waitingTime="39.00" waitingCount="2" stopTime="0.00" timeLoss="57.82" rerouteNo="1" devices="tripinfo_h11737c1:1 routing_h11737c1:1 emissions_h11737c1:1" vType="default_016" speedFactor="0.93" vaporized="">
        <emissions CO_abs="8549.493861" CO2_abs="396628.411408" HC_abs="48.174400" PMx_abs="6.914092" NOx_abs="160.901734" fuel_abs="170.495896" electricity_abs="0"/>
    </tripinfo>
    <tripinfo id="carIn126288:1" depart="57674.00" departLane="272042143_1" departPos="5.10" departSpeed="0.00" departDelay="0.00" arrival="57849.00" arrivalLane="-315358254#1_1" arrivalPos="137.16" arrivalSpeed="13.67" duration="175.00" routeLength="1596.88" waitingTime="32.00" waitingCount="2" stopTime="0.00" timeLoss="56.96" rerouteNo="1" devices="tripinfo_carIn126288:1 routing_carIn126288:1 emissions_carIn126288:1" vType="default_016" speedFactor="0.99" vaporized="">
        <emissions CO_abs="8526.914114" CO2_abs="416820.355726" HC_abs="48.596680" PMx_abs="7.498514" NOx_abs="170.633233" fuel_abs="179.174915" electricity_abs="0"/>
    </tripinfo>