<?xml version="1.0" encoding="UTF-8"?>

<!-- generated on Thu Nov  4 13:41:02 2021 by Eclipse SUMO sumo Version 1.9.0
<configuration xmlns:xsi="http://www.w3.org/2001/XMLSchema-instance" xsi:noNamespaceSchemaLocation="http://sumo.dlr.de/xsd/sumoConfiguration.xsd">

    <input>
        <net-file value="/mainfs/home/bk2g18/RESCO/environments/ingolstadt21/ingolstadt21.net.xml"/>
        <route-files value="/mainfs/home/bk2g18/RESCO/environments/ingolstadt21/ingolstadt21.rou.xml"/>
    </input>

    <output>
        <tripinfo-output value="/mainfs/home/bk2g18/RESCO/logs/MPLight-tr0-ingolstadt21-21-mplight_full-pressure/tripinfo_40.xml"/>
        <tripinfo-output.write-unfinished value="true"/>
    </output>

    <time>
        <begin value="57600"/>
        <end value="61200"/>
    </time>

    <processing>
        <time-to-teleport value="-1"/>
    </processing>

    <report>
        <xml-validation value="never"/>
        <xml-validation.routes value="never"/>
        <no-warnings value="true"/>
        <no-step-log value="true"/>
    </report>

    <emissions>
        <device.emissions.probability value="1"/>
    </emissions>

    <traci_server>
        <remote-port value="58754"/>
    </traci_server>

    <random_number>
        <random value="true"/>
    </random_number>

</configuration>
-->

<tripinfos xmlns:xsi="http://www.w3.org/2001/XMLSchema-instance" xsi:noNamespaceSchemaLocation="http://sumo.dlr.de/xsd/tripinfo_file.xsd">
    <tripinfo id="h15454c2:3" depart="57612.00" departLane="24608844_1" departPos="5.10" departSpeed="0.00" departDelay="0.50" arrival="57656.00" arrivalLane="32978638#0_1" arrivalPos="49.29" arrivalSpeed="12.39" duration="44.00" routeLength="354.79" waitingTime="0.00" waitingCount="0" stopTime="0.00" timeLoss="9.39" rerouteNo="1" devices="tripinfo_h15454c2:3 routing_h15454c2:3 emissions_h15454c2:3" vType="default_016" speedFactor="0.98" vaporized="">
        <emissions CO_abs="2243.144299" CO2_abs="108368.365897" HC_abs="12.748752" PMx_abs="1.974548" NOx_abs="45.208648" fuel_abs="46.583273" electricity_abs="0"/>
    </tripinfo>
    <tripinfo id="carIn60260:1" depart="57606.00" departLane="315358254#0_1" departPos="5.10" departSpeed="0.00" departDelay="0.90" arrival="57659.00" arrivalLane="399835085#1_1" arrivalPos="212.23" arrivalSpeed="8.43" duration="53.00" routeLength="430.98" waitingTime="0.00" waitingCount="0" stopTime="0.00" timeLoss="7.52" rerouteNo="1" devices="tripinfo_carIn60260:1 routing_carIn60260:1 emissions_carIn60260:1" vType="default_016" speedFactor="1.03" vaporized="">
        <emissions CO_abs="2254.861385" CO2_abs="115887.488827" HC_abs="12.938466" PMx_abs="1.877403" NOx_abs="46.748403" fuel_abs="49.815690" electricity_abs="0"/>
    </tripinfo>
    <tripinfo id="carIn53971:1" depart="57640.00" departLane="272042143_1" departPos="5.10" departSpeed="0.00" departDelay="0.80" arrival="57690.00" arrivalLane="24634414#1_1" arrivalPos="162.19" arrivalSpeed="8.60" duration="50.00" routeLength="493.04" waitingTime="0.00" waitingCount="0" stopTime="0.00" timeLoss="10.08" rerouteNo="1" devices="tripinfo_carIn53971:1 routing_carIn53971:1 emissions_carIn53971:1" vType="default_016" speedFactor="1.15" vaporized="">
        <emissions CO_abs="2449.683343" CO2_abs="144469.467988" HC_abs="14.505089" PMx_abs="2.632837" NOx_abs="59.760112" fuel_abs="62.101289" electricity_abs="0"/>
    </tripinfo>
    <tripinfo id="h3568c1:3" depart="57656.00" departLane="266565295#5_1" departPos="5.10" departSpeed="0.00" departDelay="0.80" arrival="57731.00" arrivalLane="-24634415_1" arrivalPos="62.03" arrivalSpeed="14.08" duration="75.00" routeLength="807.40" waitingTime="0.00" waitingCount="0" stopTime="0.00" timeLoss="12.16" rerouteNo="1" devices="tripinfo_h3568c1:3 routing_h3568c1:3 emissions_h3568c1:3" vType="default_016" speedFactor="1.03" vaporized="">
        <emissions CO_abs="3183.710529" CO2_abs="217555.420636" HC_abs="19.553353" PMx_abs="3.700875" NOx_abs="87.666346" fuel_abs="93.517878" electricity_abs="0"/>
    </tripinfo>
    <tripinfo id="h7181c1:1" depart="57660.00" departLane="315358254#0_1" departPos="5.10" departSpeed="0.00" departDelay="0.10" arrival="57735.00" arrivalLane="306240162#0_0" arrivalPos="220.43" arrivalSpeed="19.82" duration="75.00" routeLength="932.35" waitingTime="11.00" waitingCount="1" stopTime="0.00" timeLoss="31.69" rerouteNo="1" devices="tripinfo_h7181c1:1 routing_h7181c1:1 emissions_h7181c1:1" vType="default_016" speedFactor="1.20" vaporized="">
        <emissions CO_abs="6226.026976" CO2_abs="369704.752759" HC_abs="37.235620" PMx_abs="7.673089" NOx_abs="155.099488" fuel_abs="158.919323" electricity_abs="0"/>
    </tripinfo>
    <tripinfo id="h4538c1:1" depart="57701.00" departLane="-10427692#1_1" departPos="5.10" departSpeed="0.00" departDelay="0.00" arrival="57739.00" arrivalLane="-128361102#1_1" arrivalPos="274.68" arrivalSpeed="13.24" duration="38.00" routeLength="440.74" waitingTime="0.00" waitingCount="0" stopTime="0.00" timeLoss="6.85" rerouteNo="1" devices="tripinfo_h4538c1:1 routing_h4538c1:1 emissions_h4538c1:1" vType="default_016" speedFactor="1.01" vaporized="">
        <emissions CO_abs="1422.439100" CO2_abs="102513.233410" HC_abs="8.841104" PMx_abs="1.677809" NOx_abs="40.726882" fuel_abs="44.066154" electricity_abs="0"/>
    </tripinfo>
    <tripinfo id="carIn121703:1" depart="57647.00" departLane="386687232#0_1" departPos="5.10" departSpeed="0.00" departDelay="0.30" arrival="57752.00" arrivalLane="-315358244_1" arrivalPos="33.95" arrivalSpeed="11.85" duration="105.00" routeLength="1157.39" waitingTime="0.00" waitingCount="0" stopTime="0.00" timeLoss="10.62" rerouteNo="1" devices="tripinfo_carIn121703:1 routing_carIn121703:1 emissions_carIn121703:1" vType="default_016" speedFactor="0.90" vaporized="">
        <emissions CO_abs="2997.318073" CO2_abs="221341.612397" HC_abs="18.791570" PMx_abs="3.503016" NOx_abs="87.578527" fuel_abs="95.145596" electricity_abs="0"/>
    </tripinfo>
    <tripinfo id="h3154c1:1" depart="57658.00" departLane="24634507_1" departPos="5.10" departSpeed="0.00" departDelay="0.00" arrival="57759.00" arrivalLane="-266565295#5_1" arrivalPos="172.76" arrivalSpeed="13.81" duration="101.00" routeLength="1206.22" waitingTime="0.00" waitingCount="0" stopTime="0.00" timeLoss="15.92" rerouteNo="1" devices="tripinfo_h3154c1:1 routing_h3154c1:1 emissions_h3154c1:1" vType="default_016" speedFactor="1.05" vaporized="">
        <emissions CO_abs="3744.553534" CO2_abs="285803.777538" HC_abs="23.721854" PMx_abs="4.811652" NOx_abs="114.143484" fuel_abs="122.854739" electricity_abs="0"/>
    </tripinfo>
    <tripinfo id="h5979c1:5" depart="57669.00" departLane="399835085#1_1" departPos="5.10" departSpeed="0.00" departDelay="0.00" arrival="57761.00" arrivalLane="-315358254#1_1" arrivalPos="137.16" arrivalSpeed="11.66" duration="92.00" routeLength="659.33" waitingTime="0.00" waitingCount="0" stopTime="0.00" timeLoss="11.27" rerouteNo="1" devices="tripinfo_h5979c1:5 routing_h5979c1:5 emissions_h5979c1:5" vType="default_016" speedFactor="0.91" vaporized="">
        <emissions CO_abs="3845.757404" CO2_abs="172535.115943" HC_abs="21.466553" PMx_abs="2.787508" NOx_abs="69.897892" fuel_abs="74.166776" electricity_abs="0"/>
    </tripinfo>
    <tripinfo id="h7800c1:5" depart="57696.00" departLane="-447569998#1_1" departPos="5.10" departSpeed="0.00" departDelay="0.00" arrival="57765.00" arrivalLane="-447569998#1_2" arrivalPos="180.76" arrivalSpeed="4.61" duration="69.00" routeLength="175.66" waitingTime="41.00" waitingCount="1" stopTime="0.00" timeLoss="46.80" rerouteNo="1" devices="tripinfo_h7800c1:5 routing_h7800c1:5 emissions_h7800c1:5" vType="default_016" speedFactor="0.97" vaporized="">
        <emissions CO_abs="7065.035821" CO2_abs="147231.130267" HC_abs="35.604239" PMx_abs="3.257890" NOx_abs="65.006959" fuel_abs="63.291411" electricity_abs="0"/>
    </tripinfo>
    <tripinfo id="h9563c2:5" depart="57631.00" departLane="315358244_1" departPos="5.10" departSpeed="0.00" departDelay="0.70" arrival="57772.00" arrivalLane="386687235_1" arrivalPos="80.84" arrivalSpeed="16.35" duration="141.00" routeLength="1186.14" waitingTime="35.00" waitingCount="3" stopTime="0.00" timeLoss="68.05" rerouteNo="1" devices="tripinfo_h9563c2:5 routing_h9563c2:5 emissions_h9563c2:5" vType="default_016" speedFactor="1.18" vaporized="">
        <emissions CO_abs="7892.935995" CO2_abs="360235.521238" HC_abs="44.302283" PMx_abs="6.928172" NOx_abs="149.965515" fuel_abs="154.851063" electricity_abs="0"/>
    </tripinfo>
    <tripinfo id="h3326c1:2" depart="57656.00" departLane="22716069#0_1" departPos="5.10" departSpeed="0.00" departDelay="0.00" arrival="57772.00" arrivalLane="24634517#13_1" arrivalPos="111.62" arrivalSpeed="12.77" duration="116.00" routeLength="1312.81" waitingTime="0.00" waitingCount="0" stopTime="0.00" timeLoss="15.03" rerouteNo="1" devices="tripinfo_h3326c1:2 routing_h3326c1:2 emissions_h3326c1:2" vType="default_016" speedFactor="0.96" vaporized="">
        <emissions CO_abs="4020.145780" CO2_abs="298267.067570" HC_abs="25.268424" PMx_abs="4.869816" NOx_abs="118.814679" fuel_abs="128.212437" electricity_abs="0"/>
    </tripinfo>
    <tripinfo id="h3688c1:1" depart="57625.00" departLane="201201950#1_1" departPos="5.10" departSpeed="0.00" departDelay="0.00" arrival="57774.00" arrivalLane="32978638#0_1" arrivalPos="49.29" arrivalSpeed="11.67" duration="149.00" routeLength="1089.75" waitingTime="44.00" waitingCount="1" stopTime="0.00" timeLoss="59.85" rerouteNo="1" devices="tripinfo_h3688c1:1 routing_h3688c1:1 emissions_h3688c1:1" vType="default_016" speedFactor="0.89" vaporized="">
        <emissions CO_abs="9727.850193" CO2_abs="335596.786218" HC_abs="52.128258" PMx_abs="6.359898" NOx_abs="140.188195" fuel_abs="144.261933" electricity_abs="0"/>
    </tripinfo>
    <tripinfo id="S5R_frequency1.2" depart="57612.00" departLane="315358250#0_1" departPos="12.10" departSpeed="0.00" departDelay="0.40" arrival="57779.00" arrivalLane="386687235_1" arrivalPos="80.84" arrivalSpeed="13.36" duration="167.00" routeLength="1115.62" waitingTime="49.00" waitingCount="3" stopTime="0.00" timeLoss="85.09" rerouteNo="1" devices="tripinfo_S5R_frequency1.2 routing_S5R_frequency1.2 emissions_S5R_frequency1.2" vType="bus" speedFactor="1.00" vaporized="">
        <emissions CO_abs="3274.642616" CO2_abs="1715754.158722" HC_abs="707.573709" PMx_abs="343.257374" NOx_abs="14227.615208" fuel_abs="731.634381" electricity_abs="0"/>
    </tripinfo>
    <tripinfo id="h317c2:1" depart="57707.00" departLane="-32978638#0_1" departPos="5.10" departSpeed="0.00" departDelay="0.10" arrival="57784.00" arrivalLane="-266565295#5_1" arrivalPos="172.76" arrivalSpeed="13.67" duration="77.00" routeLength="370.53" waitingTime="42.00" waitingCount="1" stopTime="0.00" timeLoss="50.00" rerouteNo="1" devices="tripinfo_h317c2:1 routing_h317c2:1 emissions_h317c2:1" vType="default_016" speedFactor="1.01" vaporized="">
        <emissions CO_abs="8402.541929" CO2_abs="217982.843348" HC_abs="43.387275" PMx_abs="4.741074" NOx_abs="95.114957" fuel_abs="93.704434" electricity_abs="0"/>
    </tripinfo>
    <tripinfo id="h330c1:1" depart="57736.00" departLane="-32978638#0_1" departPos="5.10" departSpeed="0.00" departDelay="0.20" arrival="57788.00" arrivalLane="-266565295#5_1" arrivalPos="172.76" arrivalSpeed="12.61" duration="52.00" routeLength="370.53" waitingTime="14.00" waitingCount="1" stopTime="0.00" timeLoss="22.47" rerouteNo="1" devices="tripinfo_h330c1:1 routing_h330c1:1 emissions_h330c1:1" vType="default_016" speedFactor="0.92" vaporized="">
        <emissions CO_abs="3379.650180" CO2_abs="138307.216040" HC_abs="18.620351" PMx_abs="2.538338" NOx_abs="57.249183" fuel_abs="59.453274" electricity_abs="0"/>
    </tripinfo>
    <tripinfo id="carIn50326:1" depart="57651.00" departLane="128361102#0_1" departPos="5.10" departSpeed="0.00" departDelay="0.30" arrival="57805.00" arrivalLane="18809673#0_1" arrivalPos="473.56" arrivalSpeed="13.06" duration="154.00" routeLength="1591.07" waitingTime="8.00" waitingCount="1" stopTime="0.00" timeLoss="28.76" rerouteNo="1" devices="tripinfo_carIn50326:1 routing_carIn50326:1 emissions_carIn50326:1" vType="default_016" speedFactor="1.03" vaporized="">
        <emissions CO_abs="5346.567329" CO2_abs="357402.671573" HC_abs="32.624020" PMx_abs="5.887355" NOx_abs="142.617811" fuel_abs="153.632712" electricity_abs="0"/>
    </tripinfo>
    <tripinfo id="h645c1:1" depart="57622.00" departLane="266565295#5_1" departPos="5.10" departSpeed="0.00" departDelay="0.40" arrival="57813.00" arrivalLane="-315358244_1" arrivalPos="33.95" arrivalSpeed="15.14" duration="191.00" routeLength="1910.83" waitingTime="37.00" waitingCount="2" stopTime="0.00" timeLoss="64.08" rerouteNo="1" devices="tripinfo_h645c1:1 routing_h645c1:1 emissions_h645c1:1" vType="default_016" speedFactor="1.10" vaporized="">
        <emissions CO_abs="10052.753415" CO2_abs="491700.245018" HC_abs="57.108574" PMx_abs="8.907077" NOx_abs="200.110790" fuel_abs="211.362899" electricity_abs="0"/>
    </tripinfo>
    <tripinfo id="carIn107282:1" depart="57749.00" departLane="-447569998#1_1" departPos="5.10" departSpeed="0.00" departDelay="0.00" arrival="57813.00" arrivalLane="315358242#0_1" arrivalPos="165.37" arrivalSpeed="14.91" duration="64.00" routeLength="448.50" waitingTime="19.00" waitingCount="1" stopTime="0.00" timeLoss="27.64" rerouteNo="1" devices="tripinfo_carIn107282:1 routing_carIn107282:1 emissions_carIn107282:1" vType="default_016" speedFactor="1.16" vaporized="">
        <emissions CO_abs="4579.622904" CO2_abs="167566.081673" HC_abs="24.747219" PMx_abs="3.241981" NOx_abs="70.202588" fuel_abs="72.030780" electricity_abs="0"/>
    </tripinfo>
    <tripinfo id="carIn86816:1" depart="57617.00" departLane="128361102#0_1" departPos="5.10" departSpeed="0.00" departDelay="0.80" arrival="57817.00" arrivalLane="201956811#0_1" arrivalPos="40.40" arrivalSpeed="9.30" duration="200.00" routeLength="2067.33" waitingTime="18.00" waitingCount="4" stopTime="0.00" timeLoss="55.99" rerouteNo="1" devices="tripinfo_carIn86816:1 routing_carIn86816:1 emissions_carIn86816:1" vType="default_016" speedFactor="1.05" vaporized="">
        <emissions CO_abs="7692.510101" CO2_abs="492082.692772" HC_abs="46.503937" PMx_abs="8.789355" NOx_abs="200.576954" fuel_abs="211.525366" electricity_abs="0"/>
    </tripinfo>
    <tripinfo id="h11737c1:1" depart="57665.00" departLane="272042143_1" departPos="5.10" departSpeed="0.00" departDelay="1.50" arrival="57823.00" arrivalLane="-315358254#1_1" arrivalPos="137.16" arrivalSpeed="15.26" duration="158.00" routeLength="1596.88" waitingTime="36.00" waitingCount="1" stopTime="0.00" timeLoss="51.61" rerouteNo="1" devices="tripinfo_h11737c1:1 routing_h11737c1:1 emissions_h11737c1:1" vType="default_016" speedFactor="1.10" vaporized="">
        <emissions CO_abs="9123.703850" CO2_abs="432253.078993" HC_abs="51.541836" PMx_abs="7.932642" NOx_abs="176.393778" fuel_abs="185.808975" electricity_abs="0"/>
    </tripinfo>
    <tripinfo id="carIn30817:1" depart="57681.00" departLane="315358244_1" departPos="5.10" departSpeed="0.00" departDelay="0.20" arrival="57829.00" arrivalLane="447569997#1_1" arrivalPos="180.93" arrivalSpeed="8.39" duration="148.00" routeLength="718.04" waitingTime="79.00" waitingCount="1" stopTime="0.00" timeLoss="94.17" rerouteNo="1" devices="tripinfo_carIn30817:1 routing_carIn30817:1 emissions_carIn30817:1" vType="default_016" speedFactor="1.15" vaporized="">
        <emissions CO_abs="15059.472732" CO2_abs="370677.119342" HC_abs="77.155854" PMx_abs="7.975111" NOx_abs="160.792658" fuel_abs="159.344041" electricity_abs="0"/>
    </tripinfo>
    <tripinfo id="carIn129809:1" depart="57729.00" departLane="-447569998#1_1" departPos="5.10" departSpeed="0.00" departDelay="1.00" arrival="57830.00" arrivalLane="-315358244_1" arrivalPos="33.95" arrivalSpeed="15.63" duration="101.00" routeLength="706.49" waitingTime="28.00" waitingCount="2" stopTime="0.00" timeLoss="48.67" rerouteNo="1" devices="tripinfo_carIn129809:1 routing_carIn129809:1 emissions_carIn129809:1" vType="default_015" speedFactor="1.15" vaporized="">
        <emissions CO_abs="6148.891421" CO2_abs="241613.463758" HC_abs="33.585573" PMx_abs="4.567977" NOx_abs="100.264823" fuel_abs="103.860949" electricity_abs="0"/>
    </tripinfo>
    <tripinfo id="carIn126288:1" depart="57674.00" departLane="272042143_1" departPos="5.10" departSpeed="0.00" departDelay="0.00" arrival="57835.00" arrivalLane="-315358254#1_1" arrivalPos="137.16" arrivalSpeed="12.28" duration="161.00" routeLength="1596.88" waitingTime="24.00" waitingCount="1" stopTime="0.00" timeLoss="39.60" rerouteNo="1" devices="tripinfo_carIn126288:1 routing_carIn126288:1 emissions_carIn126288:1" vType="default_016" speedFactor="0.96" vaporized="">
        <emissions CO_abs="7063.581380" CO2_abs="371686.204397" HC_abs="40.808108" PMx_abs="6.236498" NOx_abs="148.699031" fuel_abs="159.773774" electricity_abs="0"/>
    </tripinfo>
    <tripinfo id="h12244c1:3" depart="57612.00" departLane="315358244_1" departPos="5.10" departSpeed="0.00" departDelay="0.40" arrival="57841.00" arrivalLane="386687235_1" arrivalPos="80.84" arrivalSpeed="11.56" duration="229.00" routeLength="1186.14" waitingTime="94.00" waitingCount="4" stopTime="0.00" timeLoss="126.38" rerouteNo="1" devices="tripinfo_h12244c1:3 routing_h12244c1:3 emissions_h12244c1:3" vType="default_016" speedFactor="0.84" vaporized="">
        <emissions CO_abs="17559.083432" CO2_abs="478549.201429" HC_abs="91.081648" PMx_abs="9.469889" NOx_abs="202.958997" fuel_abs="205.714931" electricity_abs="0"/>
    </tripinfo>
    <tripinfo id="randUni15030:1" depart="57735.00" departLane="386687232#0_1" departPos="5.10" departSpeed="0.00" departDelay="0.10" arrival="57842.00" arrivalLane="26677539_1" arrivalPos="151.98" arrivalSpeed="7.96" duration="107.00" routeLength="919.89" waitingTime="8.00" waitingCount="2" stopTime="0.00" timeLoss="25.13" rerouteNo="1" devices="tripinfo_randUni15030:1 routing_randUni15030:1 emissions_randUni15030:1" vType="random_016" speedFactor="1.02" vaporized="">
        <emissions CO_abs="4338.392514" CO2_abs="248078.030495" HC_abs="25.542442" PMx_abs="4.278783" NOx_abs="101.022696" fuel_abs="106.638712" electricity_abs="0"/>
    </tripinfo>
    <tripinfo id="carIn73855:1" depart="57743.00" departLane="386687232#0_1" departPos="5.10" departSpeed="0.00" departDelay="0.50" arrival="57842.00" arrivalLane="-315358244_1" arrivalPos="33.95" arrivalSpeed="15.45" duration="99.00" routeLength="1157.39" waitingTime="4.00" waitingCount="1" stopTime="0.00" timeLoss="23.47" rerouteNo="1" devices="tripinfo_carIn73855:1 routing_carIn73855:1 emissions_carIn73855:1" vType="default_016" speedFactor="1.12" vaporized="">
        <emissions CO_abs="3722.612957" CO2_abs="260037.638420" HC_abs="22.948583" PMx_abs="4.538514" NOx_abs="104.608396" fuel_abs="111.779021" electricity_abs="0"/>
    </tripinfo>
    <tripinfo id="carIn107084:1" depart="57601.00" departLane="124812856#0_1" departPos="5.10" departSpeed="0.00" departDelay="0.70" arrival="57844.00" arrivalLane="-128361102#1_1" arrivalPos="274.68" arrivalSpeed="11.16" duration="243.00" routeLength="2232.46" waitingTime="12.00" waitingCount="2" stopTime="0.00" timeLoss="40.59" rerouteNo="1" devices="tripinfo_carIn107084:1 routing_carIn107084:1 emissions_carIn107084:1" vType="default_016" speedFactor="0.81" vaporized="">
        <emissions CO_abs="7218.981597" CO2_abs="464652.561899" HC_abs="43.559641" PMx_abs="7.014190" NOx_abs="182.661140" fuel_abs="199.736107" electricity_abs="0"/>
    </tripinfo>
    <tripinfo id="carIn126378:1" depart="57746.00" departLane="386687232#0_1" departPos="5.10" departSpeed="0.00" departDelay="1.80" arrival="57844.00" arrivalLane="-315358244_1" arrivalPos="33.95" arrivalSpeed="12.94" duration="98.00" routeLength="1157.39" waitingTime="0.00" waitingCount="0" stopTime="0.00" timeLoss="14.16" rerouteNo="1" devices="tripinfo_carIn126378:1 routing_carIn126378:1 emissions_carIn126378:1" vType="default_016" speedFactor="1.00" vaporized="">
        <emissions CO_abs="3273.307315" CO2_abs="256481.937621" HC_abs="20.877546" PMx_abs="4.212085" NOx_abs="101.883924" fuel_abs="110.250617" electricity_abs="0"/>
    </tripinfo>
    <tripinfo id="carIn27009:1" depart="57673.00" departLane="-447569998#1_1" departPos="5.10" departSpeed="0.00" departDelay="0.50" arrival="57847.00" arrivalLane="-26677539_1" arrivalPos="152.75" arrivalSpeed="5.83" duration="174.00" routeLength="699.63" waitingTime="58.00" waitingCount="1" stopTime="0.00" timeLoss="75.53" rerouteNo="1" devices="tripinfo_carIn27009:1 routing_carIn27009:1 emissions_carIn27009:1" vType="default_015" speedFactor="0.85" vaporized="">
        <emissions CO_abs="13943.424611" CO2_abs="336333.237035" HC_abs="71.273358" PMx_abs="6.810375" NOx_abs="144.879025" fuel_abs="144.581268" electricity_abs="0"/>
    </tripinfo>
    <tripinfo id="carIn102915:1" depart="57643.00" departLane="128361102#0_1" departPos="5.10" departSpeed="0.00" departDelay="0.40" arrival="57851.00" arrivalLane="201956811#0_1" arrivalPos="40.40" arrivalSpeed="12.18" duration="208.00" routeLength="2067.33" waitingTime="16.00" waitingCount="2" stopTime="0.00" timeLoss="42.22" rerouteNo="1" devices="tripinfo_carIn102915:1 routing_carIn102915:1 emissions_carIn102915:1" vType="default_016" speedFactor="0.91" vaporized="">
        <emissions CO_abs="7269.746251" CO2_abs="443809.650988" HC_abs="43.447480" PMx_abs="7.403650" NOx_abs="178.240706" fuel_abs="190.775874" electricity_abs="0"/>
    </tripinfo>
    <tripinfo id="carIn12365:1" depart="57713.00" departLane="315358244_1" departPos="5.10" departSpeed="0.00" departDelay="0.50" arrival="57852.00" arrivalLane="447569997#1_1" arrivalPos="180.93" arrivalSpeed="7.62" duration="139.00" routeLength="718.04" waitingTime="57.00" waitingCount="2" stopTime="0.00" timeLoss="74.58" rerouteNo="1" devices="tripinfo_carIn12365:1 routing_carIn12365:1 emissions_carIn12365:1" vType="default_016" speedFactor="0.96" vaporized="">
        <emissions CO_abs="11026.891954" CO2_abs="305174.534739" HC_abs="57.338884" PMx_abs="6.189506" NOx_abs="130.512849" fuel_abs="131.185618" electricity_abs="0"/>
    </tripinfo>
    <tripinfo id="50R_frequency3.17" depart="57674.00" departLane="-18809673#6_1" departPos="12.10" departSpeed="0.00" departDelay="0.70" arrival="57857.00" arrivalLane="201956811#0_1" arrivalPos="40.40" arrivalSpeed="11.98" duration="183.00" routeLength="1954.47" waitingTime="11.00" waitingCount="1" stopTime="0.00" timeLoss="38.09" rerouteNo="1" devices="tripinfo_50R_frequency3.17 routing_50R_frequency3.17 emissions_50R_frequency3.17" vType="bus" speedFactor="1.00" vaporized="">
        <emissions CO_abs="3409.148050" CO2_abs="2086207.555119" HC_abs="729.048886" PMx_abs="364.805124" NOx_abs="16313.549589" fuel_abs="889.735337" electricity_abs="0"/>
    </tripinfo>
    <tripinfo id="randUni33724:1" depart="57646.00" departLane="128361102#0_1" departPos="5.10" departSpeed="0.00" departDelay="1.20" arrival="57859.00" arrivalLane="201956811#0_1" arrivalPos="40.40" arrivalSpeed="11.48" duration="213.00" routeLength="2067.33" waitingTime="14.00" waitingCount="2" stopTime="0.00" timeLoss="43.43" rerouteNo="1" devices="tripinfo_randUni33724:1 routing_randUni33724:1 emissions_randUni33724:1" vType="random_016" speedFactor="0.89" vaporized="">
        <emissions CO_abs="7140.856869" CO2_abs="467416.116776" HC_abs="43.344484" PMx_abs="7.371197" NOx_abs="184.958626" fuel_abs="200.923553" electricity_abs="0"/>
    </tripinfo>
    <tripinfo id="carIn100288:1" depart="57664.00" departLane="128361102#0_1" departPos="5.10" departSpeed="0.00" departDelay="0.60" arrival="57861.00" arrivalLane="201956811#0_1" arrivalPos="40.40" arrivalSpeed="12.49" duration="197.00" routeLength="2067.33" waitingTime="3.00" waitingCount="1" stopTime="0.00" timeLoss="31.40" rerouteNo="1" devices="tripinfo_carIn100288:1 routing_carIn100288:1 emissions_carIn100288:1" vType="default_016" speedFactor="0.92" vaporized="">
        <emissions CO_abs="6001.038199" CO2_abs="440309.880786" HC_abs="37.519712" PMx_abs="6.754419" NOx_abs="172.500792" fuel_abs="189.271384" electricity_abs="0"/>
    </tripinfo>
    <tripinfo id="carIn77438:1" depart="57614.00" departLane="124812856#0_1" departPos="5.10" departSpeed="0.00" departDelay="1.10" arrival="57864.00" arrivalLane="-128361102#1_1" arrivalPos="274.68" arrivalSpeed="9.51" duration="250.00" routeLength="2232.46" waitingTime="7.00" waitingCount="1" stopTime="0.00" timeLoss="36.29" rerouteNo="1" devices="tripinfo_carIn77438:1 routing_carIn77438:1 emissions_carIn77438:1" vType="default_016" speedFactor="0.76" vaporized="">
        <emissions CO_abs="7321.172115" CO2_abs="454262.601740" HC_abs="43.735126" PMx_abs="6.670798" NOx_abs="177.820827" fuel_abs="195.270330" electricity_abs="0"/>
    </tripinfo>
    <tripinfo id="h19804c1:3" depart="57617.00" departLane="124812856#0_1" departPos="5.10" departSpeed="0.00" departDelay="1.50" arrival="57866.00" arrivalLane="-128361102#1_1" arrivalPos="274.68" arrivalSpeed="14.14" duration="249.00" routeLength="2232.46" waitingTime="7.00" waitingCount="1" stopTime="0.00" timeLoss="107.47" rerouteNo="1" devices="tripinfo_h19804c1:3 routing_h19804c1:3 emissions_h19804c1:3" vType="default_016" speedFactor="1.15" vaporized="">
        <emissions CO_abs="8801.056162" CO2_abs="540178.784759" HC_abs="52.581503" PMx_abs="8.695656" NOx_abs="216.599089" fuel_abs="232.201344" electricity_abs="0"/>
    </tripinfo>
    <tripinfo id="carIn77943:1" depart="57608.00" departLane="124812856#0_1" departPos="5.10" departSpeed="0.00" departDelay="2.50" arrival="57867.00" arrivalLane="-128361102#1_1" arrivalPos="274.68" arrivalSpeed="13.41" duration="259.00" routeLength="2250.49" waitingTime="57.00" waitingCount="2" stopTime="0.00" timeLoss="105.47" rerouteNo="1" devices="tripinfo_carIn77943:1 routing_carIn77943:1 emissions_carIn77943:1" vType="default_016" speedFactor="1.07" vaporized="">
        <emissions CO_abs="15738.200025" CO2_abs="674574.527460" HC_abs="87.424482" PMx_abs="12.493887" NOx_abs="278.444410" fuel_abs="289.974545" electricity_abs="0"/>
    </tripinfo>
    <tripinfo id="h17890c1:3" depart="57792.00" departLane="386687232#0_1" departPos="5.10" departSpeed="0.00" departDelay="0.00" arrival="57867.00" arrivalLane="32978638#0_1" arrivalPos="49.29" arrivalSpeed="16.08" duration="75.00" routeLength="792.72" waitingTime="12.00" waitingCount="1" stopTime="0.00" timeLoss="25.60" rerouteNo="1" devices="tripinfo_h17890c1:3 routing_h17890c1:3 emissions_h17890c1:3" vType="default_016" speedFactor="1.20" vaporized="">
        <emissions CO_abs="4908.239750" CO2_abs="261680.388588" HC_abs="28.428547" PMx_abs="5.027322" NOx_abs="108.465725" fuel_abs="112.485436" electricity_abs="0"/>
    </tripinfo>
    <tripinfo id="h3864c1:3" depart="57678.00" departLane="24693977#1_1" departPos="5.10" departSpeed="0.00" departDelay="0.00" arrival="57870.00" arrivalLane="201956820_1" arrivalPos="48.33" arrivalSpeed="15.26" duration="192.00" routeLength="1574.85" waitingTime="51.00" waitingCount="3" stopTime="0.00" timeLoss="88.19" rerouteNo="1" devices="tripinfo_h3864c1:3 routing_h3864c1:3 emissions_h3864c1:3" vType="default_016" speedFactor="1.24" vaporized="">
        <emissions CO_abs="14692.949505" CO2_abs="630341.434812" HC_abs="81.781732" PMx_abs="12.471973" NOx_abs="265.631161" fuel_abs="270.959120" electricity_abs="0"/>
    </tripinfo>
    <tripinfo id="h17600c1:1" depart="57662.00" departLane="272042143_1" departPos="5.10" departSpeed="0.00" departDelay="0.30" arrival="57872.00" arrivalLane="201238729#3_1" arrivalPos="431.02" arrivalSpeed="12.08" duration="210.00" routeLength="2100.26" waitingTime="33.00" waitingCount="1" stopTime="0.00" timeLoss="50.07" rerouteNo="1" devices="tripinfo_h17600c1:1 routing_h17600c1:1 emissions_h17600c1:1" vType="default_016" speedFactor="0.95" vaporized="">
        <emissions CO_abs="8784.815201" CO2_abs="455299.773736" HC_abs="50.600446" PMx_abs="7.697411" NOx_abs="182.405529" fuel_abs="195.716108" electricity_abs="0"/>
    </tripinfo>
    <tripinfo id="h3536c1:1" depart="57767.00" departLane="-24634413#2_1" departPos="5.10" departSpeed="0.00" departDelay="0.00" arrival="57872.00" arrivalLane="32978638#0_1" arrivalPos="49.29" arrivalSpeed="13.90" duration="105.00" routeLength="953.61" waitingTime="0.00" waitingCount="0" stopTime="0.00" timeLoss="16.78" rerouteNo="1" devices="tripinfo_h3536c1:1 routing_h3536c1:1 emissions_h3536c1:1" vType="default_016" speedFactor="1.03" vaporized="">
        <emissions CO_abs="4722.096036" CO2_abs="269360.670274" HC_abs="27.776585" PMx_abs="4.591677" NOx_abs="109.702790" fuel_abs="115.787314" electricity_abs="0"/>
    </tripinfo>
    <tripinfo id="carIn8642:1" depart="57774.00" departLane="-447569998#1_1" departPos="5.10" departSpeed="0.00" departDelay="0.90" arrival="57873.00" arrivalLane="-315358244_1" arrivalPos="33.95" arrivalSpeed="12.77" duration="99.00" routeLength="706.49" waitingTime="23.00" waitingCount="2" stopTime="0.00" timeLoss="37.37" rerouteNo="1" devices="tripinfo_carIn8642:1 routing_carIn8642:1 emissions_carIn8642:1" vType="default_016" speedFactor="0.98" vaporized="">
        <emissions CO_abs="4785.272122" CO2_abs="210856.356049" HC_abs="26.717902" PMx_abs="3.872173" NOx_abs="87.536141" fuel_abs="90.639183" electricity_abs="0"/>
    </tripinfo>
    <tripinfo id="randUni31145:1" depart="57814.00" departLane="10425609#0_1" departPos="5.10" departSpeed="0.00" departDelay="0.30" arrival="57875.00" arrivalLane="201956810_1" arrivalPos="71.65" arrivalSpeed="12.07" duration="61.00" routeLength="255.78" waitingTime="25.00" waitingCount="1" stopTime="0.00" timeLoss="39.87" rerouteNo="1" devices="tripinfo_randUni31145:1 routing_randUni31145:1 emissions_randUni31145:1" vType="random_016" speedFactor="0.94" vaporized="">