<?xml version="1.0" encoding="UTF-8"?>

<!-- generated on Thu Nov  4 13:17:38 2021 by Eclipse SUMO sumo Version 1.9.0
<configuration xmlns:xsi="http://www.w3.org/2001/XMLSchema-instance" xsi:noNamespaceSchemaLocation="http://sumo.dlr.de/xsd/sumoConfiguration.xsd">

    <input>
        <net-file value="/mainfs/home/bk2g18/RESCO/environments/ingolstadt21/ingolstadt21.net.xml"/>
        <route-files value="/mainfs/home/bk2g18/RESCO/environments/ingolstadt21/ingolstadt21.rou.xml"/>
    </input>

    <output>
        <tripinfo-output value="/mainfs/home/bk2g18/RESCO/logs/MPLight-tr0-ingolstadt21-21-mplight_full-pressure/tripinfo_5.xml"/>
        <tripinfo-output.write-unfinished value="true"/>
    </output>

    <time>
        <begin value="57600"/>
        <end value="61200"/>
    </time>

    <processing>
        <time-to-teleport value="-1"/>
    </processing>

    <report>
        <xml-validation value="never"/>
        <xml-validation.routes value="never"/>
        <no-warnings value="true"/>
        <no-step-log value="true"/>
    </report>

    <emissions>
        <device.emissions.probability value="1"/>
    </emissions>

    <traci_server>
        <remote-port value="35659"/>
    </traci_server>

    <random_number>
        <random value="true"/>
    </random_number>

</configuration>
-->

<tripinfos xmlns:xsi="http://www.w3.org/2001/XMLSchema-instance" xsi:noNamespaceSchemaLocation="http://sumo.dlr.de/xsd/tripinfo_file.xsd">
    <tripinfo id="carIn60260:1" depart="57606.00" departLane="315358254#0_1" departPos="5.10" departSpeed="0.00" departDelay="0.90" arrival="57655.00" arrivalLane="399835085#1_1" arrivalPos="212.23" arrivalSpeed="8.15" duration="49.00" routeLength="430.98" waitingTime="0.00" waitingCount="0" stopTime="0.00" timeLoss="6.96" rerouteNo="1" devices="tripinfo_carIn60260:1 routing_carIn60260:1 emissions_carIn60260:1" vType="default_016" speedFactor="1.09" vaporized="">
        <emissions CO_abs="2017.136790" CO2_abs="113922.367626" HC_abs="11.805581" PMx_abs="1.773658" NOx_abs="45.315248" fuel_abs="48.970916" electricity_abs="0"/>
    </tripinfo>
    <tripinfo id="h15454c2:3" depart="57612.00" departLane="24608844_1" departPos="5.10" departSpeed="0.00" departDelay="0.50" arrival="57657.00" arrivalLane="32978638#0_1" arrivalPos="49.29" arrivalSpeed="14.39" duration="45.00" routeLength="354.79" waitingTime="1.00" waitingCount="1" stopTime="0.00" timeLoss="12.31" rerouteNo="1" devices="tripinfo_h15454c2:3 routing_h15454c2:3 emissions_h15454c2:3" vType="default_016" speedFactor="1.07" vaporized="">
        <emissions CO_abs="2418.374400" CO2_abs="119979.594812" HC_abs="13.813756" PMx_abs="2.229383" NOx_abs="50.165108" fuel_abs="51.574373" electricity_abs="0"/>
    </tripinfo>
    <tripinfo id="carIn53971:1" depart="57640.00" departLane="272042143_1" departPos="5.10" departSpeed="0.00" departDelay="0.80" arrival="57696.00" arrivalLane="24634414#1_1" arrivalPos="162.19" arrivalSpeed="7.76" duration="56.00" routeLength="493.04" waitingTime="0.00" waitingCount="0" stopTime="0.00" timeLoss="8.52" rerouteNo="1" devices="tripinfo_carIn53971:1 routing_carIn53971:1 emissions_carIn53971:1" vType="default_016" speedFactor="0.97" vaporized="">
        <emissions CO_abs="2464.723786" CO2_abs="138234.924854" HC_abs="14.429337" PMx_abs="2.289972" NOx_abs="55.853472" fuel_abs="59.421771" electricity_abs="0"/>
    </tripinfo>
    <tripinfo id="h3688c1:1" depart="57625.00" departLane="201201950#1_1" departPos="5.10" departSpeed="0.00" departDelay="0.00" arrival="57722.00" arrivalLane="32978638#0_1" arrivalPos="49.29" arrivalSpeed="12.00" duration="97.00" routeLength="1089.75" waitingTime="0.00" waitingCount="0" stopTime="0.00" timeLoss="11.31" rerouteNo="1" devices="tripinfo_h3688c1:1 routing_h3688c1:1 emissions_h3688c1:1" vType="default_016" speedFactor="0.94" vaporized="">
        <emissions CO_abs="2884.120847" CO2_abs="221751.415006" HC_abs="18.293859" PMx_abs="3.520403" NOx_abs="87.647367" fuel_abs="95.321652" electricity_abs="0"/>
    </tripinfo>
    <tripinfo id="h7181c1:1" depart="57660.00" departLane="315358254#0_1" departPos="5.10" departSpeed="0.00" departDelay="0.10" arrival="57733.00" arrivalLane="306240162#0_0" arrivalPos="220.43" arrivalSpeed="16.37" duration="73.00" routeLength="932.35" waitingTime="6.00" waitingCount="1" stopTime="0.00" timeLoss="22.47" rerouteNo="1" devices="tripinfo_h7181c1:1 routing_h7181c1:1 emissions_h7181c1:1" vType="default_016" speedFactor="1.01" vaporized="">
        <emissions CO_abs="4139.180561" CO2_abs="264350.985287" HC_abs="25.022610" PMx_abs="5.081587" NOx_abs="108.372682" fuel_abs="113.632833" electricity_abs="0"/>
    </tripinfo>
    <tripinfo id="h317c2:1" depart="57707.00" departLane="-32978638#0_1" departPos="5.10" departSpeed="0.00" departDelay="0.10" arrival="57743.00" arrivalLane="-266565295#5_1" arrivalPos="172.76" arrivalSpeed="14.89" duration="36.00" routeLength="370.53" waitingTime="1.00" waitingCount="1" stopTime="0.00" timeLoss="11.13" rerouteNo="1" devices="tripinfo_h317c2:1 routing_h317c2:1 emissions_h317c2:1" vType="default_016" speedFactor="1.10" vaporized="">
        <emissions CO_abs="2069.657409" CO2_abs="126582.565665" HC_abs="12.421862" PMx_abs="2.354066" NOx_abs="52.384190" fuel_abs="54.412369" electricity_abs="0"/>
    </tripinfo>
    <tripinfo id="h4538c1:1" depart="57701.00" departLane="-10427692#1_1" departPos="5.10" departSpeed="0.00" departDelay="0.00" arrival="57748.00" arrivalLane="-128361102#1_1" arrivalPos="274.68" arrivalSpeed="12.69" duration="47.00" routeLength="440.74" waitingTime="3.00" waitingCount="1" stopTime="0.00" timeLoss="13.16" rerouteNo="1" devices="tripinfo_h4538c1:1 routing_h4538c1:1 emissions_h4538c1:1" vType="default_016" speedFactor="0.95" vaporized="">
        <emissions CO_abs="2012.272931" CO2_abs="122863.111844" HC_abs="12.031240" PMx_abs="2.111715" NOx_abs="49.811367" fuel_abs="52.813795" electricity_abs="0"/>
    </tripinfo>
    <tripinfo id="carIn22761:1" depart="57616.00" departLane="-306240162#1_0" departPos="5.10" departSpeed="0.00" departDelay="2.10" arrival="57752.00" arrivalLane="399835085#1_1" arrivalPos="212.23" arrivalSpeed="8.41" duration="136.00" routeLength="1093.26" waitingTime="31.00" waitingCount="2" stopTime="0.00" timeLoss="62.82" rerouteNo="1" devices="tripinfo_carIn22761:1 routing_carIn22761:1 emissions_carIn22761:1" vType="default_016" speedFactor="1.07" vaporized="">
        <emissions CO_abs="9071.682809" CO2_abs="395127.859272" HC_abs="50.688095" PMx_abs="7.824230" NOx_abs="165.866242" fuel_abs="169.849958" electricity_abs="0"/>
    </tripinfo>
    <tripinfo id="h12244c1:3" depart="57612.00" departLane="315358244_1" departPos="5.10" departSpeed="0.00" departDelay="0.40" arrival="57757.00" arrivalLane="386687235_1" arrivalPos="80.84" arrivalSpeed="13.93" duration="145.00" routeLength="1186.14" waitingTime="40.00" waitingCount="2" stopTime="0.00" timeLoss="61.85" rerouteNo="1" devices="tripinfo_h12244c1:3 routing_h12244c1:3 emissions_h12244c1:3" vType="default_016" speedFactor="1.04" vaporized="">
        <emissions CO_abs="8648.599873" CO2_abs="332540.562721" HC_abs="47.124945" PMx_abs="6.228944" NOx_abs="137.464636" fuel_abs="142.947520" electricity_abs="0"/>
    </tripinfo>
    <tripinfo id="h3326c1:2" depart="57656.00" departLane="22716069#0_1" departPos="5.10" departSpeed="0.00" departDelay="0.00" arrival="57762.00" arrivalLane="24634517#13_1" arrivalPos="111.62" arrivalSpeed="14.67" duration="106.00" routeLength="1312.81" waitingTime="0.00" waitingCount="0" stopTime="0.00" timeLoss="15.51" rerouteNo="1" devices="tripinfo_h3326c1:2 routing_h3326c1:2 emissions_h3326c1:2" vType="default_016" speedFactor="1.08" vaporized="">
        <emissions CO_abs="4034.749927" CO2_abs="307068.171764" HC_abs="25.530373" PMx_abs="5.328180" NOx_abs="123.718836" fuel_abs="131.995141" electricity_abs="0"/>
    </tripinfo>
    <tripinfo id="h5979c1:5" depart="57669.00" departLane="399835085#1_1" departPos="5.10" departSpeed="0.00" departDelay="0.00" arrival="57762.00" arrivalLane="-315358254#1_1" arrivalPos="137.16" arrivalSpeed="12.81" duration="93.00" routeLength="659.33" waitingTime="0.00" waitingCount="0" stopTime="0.00" timeLoss="19.22" rerouteNo="1" devices="tripinfo_h5979c1:5 routing_h5979c1:5 emissions_h5979c1:5" vType="default_016" speedFactor="1.00" vaporized="">
        <emissions CO_abs="3890.849567" CO2_abs="182931.203280" HC_abs="21.944500" PMx_abs="3.089472" NOx_abs="74.793177" fuel_abs="78.635343" electricity_abs="0"/>
    </tripinfo>
    <tripinfo id="h330c1:1" depart="57736.00" departLane="-32978638#0_1" departPos="5.10" departSpeed="0.00" departDelay="0.20" arrival="57772.00" arrivalLane="-266565295#5_1" arrivalPos="172.76" arrivalSpeed="15.11" duration="36.00" routeLength="370.53" waitingTime="2.00" waitingCount="1" stopTime="0.00" timeLoss="12.41" rerouteNo="1" devices="tripinfo_h330c1:1 routing_h330c1:1 emissions_h330c1:1" vType="default_016" speedFactor="1.17" vaporized="">
        <emissions CO_abs="2275.310891" CO2_abs="140760.507529" HC_abs="13.687135" PMx_abs="2.671877" NOx_abs="58.453464" fuel_abs="60.506760" electricity_abs="0"/>
    </tripinfo>
    <tripinfo id="h7800c1:5" depart="57696.00" departLane="-447569998#1_1" departPos="5.10" departSpeed="0.00" departDelay="0.00" arrival="57775.00" arrivalLane="-447569998#1_2" arrivalPos="180.76" arrivalSpeed="4.28" duration="79.00" routeLength="175.66" waitingTime="54.00" waitingCount="1" stopTime="0.00" timeLoss="59.04" rerouteNo="1" devices="tripinfo_h7800c1:5 routing_h7800c1:5 emissions_h7800c1:5" vType="default_016" speedFactor="1.07" vaporized="">
        <emissions CO_abs="9102.538799" CO2_abs="179516.071062" HC_abs="45.636794" PMx_abs="4.049454" NOx_abs="79.633778" fuel_abs="77.170307" electricity_abs="0"/>
    </tripinfo>
    <tripinfo id="S5R_frequency1.2" depart="57634.00" departLane="315358250#0_1" departPos="12.10" departSpeed="0.00" departDelay="22.40" arrival="57780.00" arrivalLane="386687235_1" arrivalPos="80.84" arrivalSpeed="13.33" duration="146.00" routeLength="1115.62" waitingTime="40.00" waitingCount="2" stopTime="0.00" timeLoss="64.64" rerouteNo="1" devices="tripinfo_S5R_frequency1.2 routing_S5R_frequency1.2 emissions_S5R_frequency1.2" vType="bus" speedFactor="1.00" vaporized="">
        <emissions CO_abs="2671.427465" CO2_abs="1403847.831722" HC_abs="583.969884" PMx_abs="280.569639" NOx_abs="11619.055914" fuel_abs="598.639884" electricity_abs="0"/>
    </tripinfo>
    <tripinfo id="carIn121703:1" depart="57647.00" departLane="386687232#0_1" departPos="5.10" departSpeed="0.00" departDelay="0.30" arrival="57784.00" arrivalLane="-315358244_1" arrivalPos="33.95" arrivalSpeed="11.52" duration="137.00" routeLength="1157.39" waitingTime="24.00" waitingCount="2" stopTime="0.00" timeLoss="42.91" rerouteNo="1" devices="tripinfo_carIn121703:1 routing_carIn121703:1 emissions_carIn121703:1" vType="default_016" speedFactor="0.90" vaporized="">
        <emissions CO_abs="6256.251513" CO2_abs="306912.264014" HC_abs="35.626730" PMx_abs="5.256841" NOx_abs="124.390244" fuel_abs="131.930024" electricity_abs="0"/>
    </tripinfo>
    <tripinfo id="h9563c2:5" depart="57631.00" departLane="315358244_1" departPos="5.10" departSpeed="0.00" departDelay="0.70" arrival="57785.00" arrivalLane="386687235_1" arrivalPos="80.84" arrivalSpeed="13.20" duration="154.00" routeLength="1186.14" waitingTime="33.00" waitingCount="3" stopTime="0.00" timeLoss="64.76" rerouteNo="1" devices="tripinfo_h9563c2:5 routing_h9563c2:5 emissions_h9563c2:5" vType="default_016" speedFactor="0.97" vaporized="">
        <emissions CO_abs="7839.280897" CO2_abs="341672.601246" HC_abs="43.631991" PMx_abs="5.915862" NOx_abs="138.219003" fuel_abs="146.872903" electricity_abs="0"/>
    </tripinfo>
    <tripinfo id="h645c1:1" depart="57622.00" departLane="266565295#5_1" departPos="5.10" departSpeed="0.00" departDelay="0.40" arrival="57787.00" arrivalLane="-315358244_1" arrivalPos="33.95" arrivalSpeed="15.32" duration="165.00" routeLength="1910.83" waitingTime="21.00" waitingCount="2" stopTime="0.00" timeLoss="42.88" rerouteNo="1" devices="tripinfo_h645c1:1 routing_h645c1:1 emissions_h645c1:1" vType="default_016" speedFactor="1.13" vaporized="">
        <emissions CO_abs="5658.131208" CO2_abs="405608.074254" HC_abs="35.017016" PMx_abs="6.825670" NOx_abs="160.352503" fuel_abs="174.353873" electricity_abs="0"/>
    </tripinfo>
    <tripinfo id="carIn30817:1" depart="57681.00" departLane="315358244_1" departPos="5.10" departSpeed="0.00" departDelay="0.20" arrival="57788.00" arrivalLane="447569997#1_1" arrivalPos="180.93" arrivalSpeed="9.14" duration="107.00" routeLength="718.04" waitingTime="40.00" waitingCount="1" stopTime="0.00" timeLoss="53.74" rerouteNo="1" devices="tripinfo_carIn30817:1 routing_carIn30817:1 emissions_carIn30817:1" vType="default_016" speedFactor="1.17" vaporized="">
        <emissions CO_abs="9018.842061" CO2_abs="287586.585619" HC_abs="47.842287" PMx_abs="5.945745" NOx_abs="123.173694" fuel_abs="123.623780" electricity_abs="0"/>
    </tripinfo>
    <tripinfo id="carIn107282:1" depart="57749.00" departLane="-447569998#1_1" departPos="5.10" departSpeed="0.00" departDelay="0.00" arrival="57797.00" arrivalLane="315358242#0_1" arrivalPos="165.37" arrivalSpeed="14.62" duration="48.00" routeLength="448.50" waitingTime="2.00" waitingCount="1" stopTime="0.00" timeLoss="11.06" rerouteNo="1" devices="tripinfo_carIn107282:1 routing_carIn107282:1 emissions_carIn107282:1" vType="default_016" speedFactor="1.13" vaporized="">
        <emissions CO_abs="2239.398116" CO2_abs="120192.895840" HC_abs="13.021893" PMx_abs="2.190310" NOx_abs="49.748048" fuel_abs="51.665999" electricity_abs="0"/>
    </tripinfo>
    <tripinfo id="carIn107084:1" depart="57601.00" departLane="124812856#0_1" departPos="5.10" departSpeed="0.00" departDelay="0.70" arrival="57806.00" arrivalLane="-128361102#1_1" arrivalPos="274.68" arrivalSpeed="14.39" duration="205.00" routeLength="2250.49" waitingTime="16.00" waitingCount="1" stopTime="0.00" timeLoss="46.79" rerouteNo="1" devices="tripinfo_carIn107084:1 routing_carIn107084:1 emissions_carIn107084:1" vType="default_016" speedFactor="1.04" vaporized="">
        <emissions CO_abs="8070.127425" CO2_abs="537121.429258" HC_abs="49.202123" PMx_abs="9.235579" NOx_abs="215.686473" fuel_abs="230.885958" electricity_abs="0"/>
    </tripinfo>
    <tripinfo id="carIn82278:1" depart="57702.00" departLane="-306240162#1_0" departPos="5.10" departSpeed="0.00" departDelay="0.70" arrival="57816.00" arrivalLane="399835085#1_1" arrivalPos="212.23" arrivalSpeed="6.55" duration="114.00" routeLength="1093.26" waitingTime="3.00" waitingCount="2" stopTime="0.00" timeLoss="30.47" rerouteNo="1" devices="tripinfo_carIn82278:1 routing_carIn82278:1 emissions_carIn82278:1" vType="default_016" speedFactor="0.94" vaporized="">
        <emissions CO_abs="5578.915582" CO2_abs="304518.790560" HC_abs="32.618702" PMx_abs="5.857888" NOx_abs="127.177334" fuel_abs="130.899679" electricity_abs="0"/>
    </tripinfo>
    <tripinfo id="h3568c1:3" depart="57656.00" departLane="266565295#5_1" departPos="5.10" departSpeed="0.00" departDelay="0.80" arrival="57817.00" arrivalLane="-24634415_1" arrivalPos="62.03" arrivalSpeed="12.84" duration="161.00" routeLength="807.40" waitingTime="70.00" waitingCount="2" stopTime="0.00" timeLoss="94.25" rerouteNo="1" devices="tripinfo_h3568c1:3 routing_h3568c1:3 emissions_h3568c1:3" vType="default_016" speedFactor="0.97" vaporized="">
        <emissions CO_abs="14706.816173" CO2_abs="429425.687036" HC_abs="77.055397" PMx_abs="8.889929" NOx_abs="184.846145" fuel_abs="184.596587" electricity_abs="0"/>
    </tripinfo>
    <tripinfo id="carIn118591:1" depart="57689.00" departLane="315358244_1" departPos="5.10" departSpeed="0.00" departDelay="0.20" arrival="57817.00" arrivalLane="386687235_1" arrivalPos="80.84" arrivalSpeed="14.14" duration="128.00" routeLength="1186.14" waitingTime="32.00" waitingCount="1" stopTime="0.00" timeLoss="47.48" rerouteNo="1" devices="tripinfo_carIn118591:1 routing_carIn118591:1 emissions_carIn118591:1" vType="default_016" speedFactor="1.07" vaporized="">
        <emissions CO_abs="8308.287173" CO2_abs="341463.819834" HC_abs="45.773994" PMx_abs="6.433260" NOx_abs="140.943338" fuel_abs="146.782808" electricity_abs="0"/>
    </tripinfo>
    <tripinfo id="carIn12365:1" depart="57713.00" departLane="315358244_1" departPos="5.10" departSpeed="0.00" departDelay="0.50" arrival="57817.00" arrivalLane="447569997#1_1" arrivalPos="180.93" arrivalSpeed="6.83" duration="104.00" routeLength="718.04" waitingTime="11.00" waitingCount="2" stopTime="0.00" timeLoss="29.15" rerouteNo="1" devices="tripinfo_carIn12365:1 routing_carIn12365:1 emissions_carIn12365:1" vType="default_016" speedFactor="0.83" vaporized="">
        <emissions CO_abs="4435.436019" CO2_abs="196972.917488" HC_abs="24.771310" PMx_abs="3.468680" NOx_abs="81.276896" fuel_abs="84.671367" electricity_abs="0"/>
    </tripinfo>
    <tripinfo id="carIn80064:1" depart="57603.00" departLane="128361109#1_1" departPos="5.10" departSpeed="0.00" departDelay="0.40" arrival="57822.00" arrivalLane="-315358254#1_1" arrivalPos="137.16" arrivalSpeed="12.99" duration="219.00" routeLength="1587.97" waitingTime="89.00" waitingCount="3" stopTime="0.00" timeLoss="125.71" rerouteNo="1" devices="tripinfo_carIn80064:1 routing_carIn80064:1 emissions_carIn80064:1" vType="default_016" speedFactor="0.96" vaporized="">
        <emissions CO_abs="20142.727470" CO2_abs="672251.641657" HC_abs="107.725014" PMx_abs="14.311546" NOx_abs="288.737494" fuel_abs="288.977087" electricity_abs="0"/>
    </tripinfo>
    <tripinfo id="h5216c1:1" depart="57664.00" departLane="224892339#0_1" departPos="5.10" departSpeed="0.00" departDelay="0.00" arrival="57824.00" arrivalLane="386687235_1" arrivalPos="80.84" arrivalSpeed="15.92" duration="160.00" routeLength="1823.78" waitingTime="4.00" waitingCount="1" stopTime="0.00" timeLoss="51.43" rerouteNo="1" devices="tripinfo_h5216c1:1 routing_h5216c1:1 emissions_h5216c1:1" vType="default_016" speedFactor="1.18" vaporized="">
        <emissions CO_abs="7030.271558" CO2_abs="490613.072098" HC_abs="43.600512" PMx_abs="8.838005" NOx_abs="200.089373" fuel_abs="210.893036" electricity_abs="0"/>
    </tripinfo>
    <tripinfo id="carIn50326:1" depart="57651.00" departLane="128361102#0_1" departPos="5.10" departSpeed="0.00" departDelay="0.30" arrival="57829.00" arrivalLane="18809673#0_1" arrivalPos="473.56" arrivalSpeed="14.33" duration="178.00" routeLength="1591.07" waitingTime="32.00" waitingCount="2" stopTime="0.00" timeLoss="59.16" rerouteNo="1" devices="tripinfo_carIn50326:1 routing_carIn50326:1 emissions_carIn50326:1" vType="default_016" speedFactor="1.09" vaporized="">
        <emissions CO_abs="9765.962774" CO2_abs="443193.059191" HC_abs="54.784821" PMx_abs="8.044372" NOx_abs="181.715538" fuel_abs="190.512013" electricity_abs="0"/>
    </tripinfo>
    <tripinfo id="h3154c1:1" depart="57658.00" departLane="24634507_1" departPos="5.10" departSpeed="0.00" departDelay="0.00" arrival="57829.00" arrivalLane="-266565295#5_1" arrivalPos="172.76" arrivalSpeed="11.85" duration="171.00" routeLength="1206.22" waitingTime="50.00" waitingCount="2" stopTime="0.00" timeLoss="73.31" rerouteNo="1" devices="tripinfo_h3154c1:1 routing_h3154c1:1 emissions_h3154c1:1" vType="default_016" speedFactor="0.92" vaporized="">
        <emissions CO_abs="11255.530131" CO2_abs="402905.549214" HC_abs="60.662473" PMx_abs="7.600210" NOx_abs="168.020534" fuel_abs="173.195436" electricity_abs="0"/>
    </tripinfo>
    <tripinfo id="h16072c2:3" depart="57663.00" departLane="315358254#0_1" departPos="5.10" departSpeed="0.00" departDelay="2.50" arrival="57830.00" arrivalLane="386687235_1" arrivalPos="80.84" arrivalSpeed="10.41" duration="167.00" routeLength="1611.92" waitingTime="2.00" waitingCount="1" stopTime="0.00" timeLoss="17.81" rerouteNo="1" devices="tripinfo_h16072c2:3 routing_h16072c2:3 emissions_h16072c2:3" vType="default_016" speedFactor="0.79" vaporized="">
        <emissions CO_abs="4472.074241" CO2_abs="307685.165276" HC_abs="27.418074" PMx_abs="4.473121" NOx_abs="119.798042" fuel_abs="132.261917" electricity_abs="0"/>
    </tripinfo>
    <tripinfo id="h11737c1:1" depart="57665.00" departLane="272042143_1" departPos="5.10" departSpeed="0.00" departDelay="1.50" arrival="57830.00" arrivalLane="-315358254#1_1" arrivalPos="137.16" arrivalSpeed="10.17" duration="165.00" routeLength="1596.88" waitingTime="1.00" waitingCount="1" stopTime="0.00" timeLoss="19.98" rerouteNo="1" devices="tripinfo_h11737c1:1 routing_h11737c1:1 emissions_h11737c1:1" vType="default_016" speedFactor="0.80" vaporized="">
        <emissions CO_abs="4634.167276" CO2_abs="309954.501707" HC_abs="28.236660" PMx_abs="4.675994" NOx_abs="121.803277" fuel_abs="133.237265" electricity_abs="0"/>
    </tripinfo>
    <tripinfo id="carIn126288:1" depart="57674.00" departLane="272042143_1" departPos="5.10" departSpeed="0.00" departDelay="0.00" arrival="57832.00" arrivalLane="-315358254#1_1" arrivalPos="137.16" arrivalSpeed="10.99" duration="158.00" routeLength="1596.88" waitingTime="1.00" waitingCount="1" stopTime="0.00" timeLoss="22.53" rerouteNo="1" devices="tripinfo_carIn126288:1 routing_carIn126288:1 emissions_carIn126288:1" vType="default_016" speedFactor="0.86" vaporized="">
        <emissions CO_abs="4818.972982" CO2_abs="335374.415528" HC_abs="29.686494" PMx_abs="5.116590" NOx_abs="131.752680" fuel_abs="144.164076" electricity_abs="0"/>
    </tripinfo>
    <tripinfo id="carIn12152:1" depart="57647.00" departLane="24599188#0.94_1" departPos="5.10" departSpeed="0.00" departDelay="0.50" arrival="57839.00" arrivalLane="-315358254#1_1" arrivalPos="137.16" arrivalSpeed="12.93" duration="192.00" routeLength="2034.31" waitingTime="12.00" waitingCount="2" stopTime="0.00" timeLoss="35.86" rerouteNo="1" devices="tripinfo_carIn12152:1 routing_carIn12152:1 emissions_carIn12152:1" vType="default_016" speedFactor="1.01" vaporized="">
        <emissions CO_abs="5966.763721" CO2_abs="423769.476444" HC_abs="37.026284" PMx_abs="6.865675" NOx_abs="167.806317" fuel_abs="182.160994" electricity_abs="0"/>
    </tripinfo>
    <tripinfo id="randUni15030:1" depart="57735.00" departLane="386687232#0_1" departPos="5.10" departSpeed="0.00" departDelay="0.10" arrival="57841.00" arrivalLane="26677539_1" arrivalPos="151.98" arrivalSpeed="6.88" duration="106.00" routeLength="919.89" waitingTime="5.00" waitingCount="1" stopTime="0.00" timeLoss="20.65" rerouteNo="1" devices="tripinfo_randUni15030:1 routing_randUni15030:1 emissions_randUni15030:1" vType="random_016" speedFactor="0.98" vaporized="">
        <emissions CO_abs="4075.631559" CO2_abs="232182.283090" HC_abs="23.934534" PMx_abs="3.837094" NOx_abs="93.579888" fuel_abs="99.806029" electricity_abs="0"/>
    </tripinfo>
    <tripinfo id="carIn27009:1" depart="57673.00" departLane="-447569998#1_1" departPos="5.10" departSpeed="0.00" departDelay="0.50" arrival="57844.00" arrivalLane="-26677539_1" arrivalPos="152.75" arrivalSpeed="7.38" duration="171.00" routeLength="699.63" waitingTime="72.00" waitingCount="1" stopTime="0.00" timeLoss="86.52" rerouteNo="1" devices="tripinfo_carIn27009:1 routing_carIn27009:1 emissions_carIn27009:1" vType="default_015" speedFactor="1.00" vaporized="">
        <emissions CO_abs="15727.632538" CO2_abs="381547.734244" HC_abs="80.438188" PMx_abs="7.649505" NOx_abs="163.447438" fuel_abs="164.017935" electricity_abs="0"/>
    </tripinfo>
    <tripinfo id="carIn126378:1" depart="57746.00" departLane="386687232#0_1" departPos="5.10" departSpeed="0.00" departDelay="1.80" arrival="57844.00" arrivalLane="-315358244_1" arrivalPos="33.95" arrivalSpeed="13.52" duration="98.00" routeLength="1157.39" waitingTime="0.00" waitingCount="0" stopTime="0.00" timeLoss="11.91" rerouteNo="1" devices="tripinfo_carIn126378:1 routing_carIn126378:1 emissions_carIn126378:1" vType="default_016" speedFactor="0.97" vaporized="">
        <emissions CO_abs="2658.560480" CO2_abs="216353.812854" HC_abs="17.116733" PMx_abs="3.288943" NOx_abs="84.085044" fuel_abs="93.001587" electricity_abs="0"/>
    </tripinfo>
    <tripinfo id="randUni31145:1" depart="57814.00" departLane="10425609#0_1" departPos="5.10" departSpeed="0.00" departDelay="0.30" arrival="57851.00" arrivalLane="201956810_1" arrivalPos="71.65" arrivalSpeed="13.22" duration="37.00" routeLength="255.78" waitingTime="4.00" waitingCount="1" stopTime="0.00" timeLoss="16.75" rerouteNo="1" devices="tripinfo_randUni31145:1 routing_randUni31145:1 emissions_randUni31145:1" vType="random_016" speedFactor="0.96" vaporized="">
        <emissions CO_abs="2385.978148" CO2_abs="118672.913588" HC_abs="13.662749" PMx_abs="2.266716" NOx_abs="50.030116" fuel_abs="51.012586" electricity_abs="0"/>
    </tripinfo>
    <tripinfo id="h11868c1:5" depart="57700.00" departLane="315358254#0_1" departPos="5.10" departSpeed="0.00" departDelay="0.10" arrival="57852.00" arrivalLane="386687235_2" arrivalPos="80.84" arrivalSpeed="14.54" duration="152.00" routeLength="1611.92" waitingTime="9.00" waitingCount="1" stopTime="0.00" timeLoss="44.68" rerouteNo="1" devices="tripinfo_h11868c1:5 routing_h11868c1:5 emissions_h11868c1:5" vType="default_016" speedFactor="1.10" vaporized="">
        <emissions CO_abs="6227.157506" CO2_abs="406457.769564" HC_abs="37.883169" PMx_abs="7.143364" NOx_abs="165.297455" fuel_abs="174.718907" electricity_abs="0"/>
    </tripinfo>
    <tripinfo id="carIn73855:1" depart="57743.00" departLane="386687232#0_1" departPos="5.10" departSpeed="0.00" departDelay="0.50" arrival="57853.00" arrivalLane="-315358244_1" arrivalPos="33.95" arrivalSpeed="11.39" duration="110.00" routeLength="1157.39" waitingTime="0.00" waitingCount="0" stopTime="0.00" timeLoss="11.47" rerouteNo="1" devices="tripinfo_carIn73855:1 routing_carIn73855:1 emissions_carIn73855:1" vType="default_016" speedFactor="0.85" vaporized="">
        <emissions CO_abs="2880.216041" CO2_abs="217872.792770" HC_abs="18.108253" PMx_abs="3.071963" NOx_abs="83.713273" fuel_abs="93.655015" electricity_abs="0"/>
    </tripinfo>
    <tripinfo id="h9953c2:3" depart="57682.00" departLane="-54169231#2_1" departPos="5.10" departSpeed="0.00" departDelay="0.00" arrival="57854.00" arrivalLane="386687235_1" arrivalPos="80.84" arrivalSpeed="14.23" duration="172.00" routeLength="1535.60" waitingTime="23.00" waitingCount="2" stopTime="0.00" timeLoss="51.36" rerouteNo="1" devices="tripinfo_h9953c2:3 routing_h9953c2:3 emissions_h9953c2:3" vType="default_016" speedFactor="1.04" vaporized="">
        <emissions CO_abs="9616.150127" CO2_abs="453832.343486" HC_abs="54.370989" PMx_abs="8.298077" NOx_abs="187.162973" fuel_abs="195.084949" electricity_abs="0"/>
    </tripinfo>
    <tripinfo id="h16437c1:3" depart="57717.00" departLane="315358254#0_1" departPos="5.10" departSpeed="0.00" departDelay="0.80" arrival="57854.00" arrivalLane="386687235_2" arrivalPos="80.84" arrivalSpeed="15.71" duration="137.00" routeLength="1611.92" waitingTime="8.00" waitingCount="1" stopTime="0.00" timeLoss="35.93" rerouteNo="1" devices="tripinfo_h16437c1:3 routing_h16437c1:3 emissions_h16437c1:3" vType="default_016" speedFactor="1.17" vaporized="">
        <emissions CO_abs="5511.865004" CO2_abs="389452.356809" HC_abs="34.181586" PMx_abs="6.854269" NOx_abs="156.993127" fuel_abs="167.408735" electricity_abs="0"/>
    </tripinfo>
    <tripinfo id="randUni2407:1" depart="57820.00" departLane="10425609#0_1" departPos="5.10" departSpeed="0.00" departDelay="0.80" arrival="57854.00" arrivalLane="201956810_1" arrivalPos="71.65" arrivalSpeed="13.63" duration="34.00" routeLength="255.78" waitingTime="3.00" waitingCount="1" stopTime="0.00" timeLoss="14.04" rerouteNo="1" devices="tripinfo_randUni2407:1 routing_randUni2407:1 emissions_randUni2407:1" vType="random_016" speedFactor="1.01" vaporized="">
        <emissions CO_abs="2127.426018" CO2_abs="106310.230148" HC_abs="12.194151" PMx_abs="2.015828" NOx_abs="44.659022" fuel_abs="45.698400" electricity_abs="0"/>
    </tripinfo>
    <tripinfo id="carIn129809:1" depart="57729.00" departLane="-447569998#1_1" departPos="5.10" departSpeed="0.00" departDelay="1.00" arrival="57855.00" arrivalLane="-315358244_1" arrivalPos="33.95" arrivalSpeed="13.50" duration="126.00" routeLength="706.49" waitingTime="48.00" waitingCount="2" stopTime="0.00" timeLoss="68.73" rerouteNo="1" devices="tripinfo_carIn129809:1 routing_carIn129809:1 emissions_carIn129809:1" vType="default_015" speedFactor="1.06" vaporized="">
        <emissions CO_abs="9616.749405" CO2_abs="279349.572268" HC_abs="50.290799" PMx_abs="5.654120" NOx_abs="119.125752" fuel_abs="120.083851" electricity_abs="0"/>
    </tripinfo>
    <tripinfo id="carIn82220:1" depart="57619.00" departLane="-306240162#1_0" departPos="5.10" departSpeed="0.00" departDelay="3.50" arrival="57856.00" arrivalLane="386687235_1" arrivalPos="80.84" arrivalSpeed="13.19" duration="237.00" routeLength="2257.41" waitingTime="36.00" waitingCount="2" stopTime="0.00" timeLoss="90.07" rerouteNo="1" devices="tripinfo_carIn82220:1 routing_carIn82220:1 emissions_carIn82220:1" vType="default_016" speedFactor="1.02" vaporized="">
        <emissions CO_abs="12341.097770" CO2_abs="648404.608784" HC_abs="71.427027" PMx_abs="11.849815" NOx_abs="265.851468" fuel_abs="278.723010" electricity_abs="0"/>
    </tripinfo>
    <tripinfo id="h20540c1:1" depart="57634.00" departLane="10425609#0_1" departPos="5.10" departSpeed="0.00" departDelay="0.50" arrival="57857.00" arrivalLane="-128361102#1_1" arrivalPos="274.68" arrivalSpeed="12.58" duration="223.00" routeLength="2113.04" waitingTime="33.00" waitingCount="2" stopTime="0.00" timeLoss="63.67" rerouteNo="1" devices="tripinfo_h20540c1:1 routing_h20540c1:1 emissions_h20540c1:1" vType="default_016" speedFactor="0.97" vaporized="">
        <emissions CO_abs="10559.641379" CO2_abs="549704.420591" HC_abs="60.944403" PMx_abs="9.756575" NOx_abs="224.071386" fuel_abs="236.296247" electricity_abs="0"/>
    </tripinfo>