<?xml version="1.0" encoding="UTF-8"?>

<!-- generated on Thu Nov  4 14:23:00 2021 by Eclipse SUMO sumo Version 1.9.0
<configuration xmlns:xsi="http://www.w3.org/2001/XMLSchema-instance" xsi:noNamespaceSchemaLocation="http://sumo.dlr.de/xsd/sumoConfiguration.xsd">

    <input>
        <net-file value="/mainfs/home/bk2g18/RESCO/environments/ingolstadt21/ingolstadt21.net.xml"/>
        <route-files value="/mainfs/home/bk2g18/RESCO/environments/ingolstadt21/ingolstadt21.rou.xml"/>
    </input>

    <output>
        <tripinfo-output value="/mainfs/home/bk2g18/RESCO/logs/MPLight-tr0-ingolstadt21-21-mplight_full-pressure/tripinfo_87.xml"/>
        <tripinfo-output.write-unfinished value="true"/>
    </output>

    <time>
        <begin value="57600"/>
        <end value="61200"/>
    </time>

    <processing>
        <time-to-teleport value="-1"/>
    </processing>

    <report>
        <xml-validation value="never"/>
        <xml-validation.routes value="never"/>
        <no-warnings value="true"/>
        <no-step-log value="true"/>
    </report>

    <emissions>
        <device.emissions.probability value="1"/>
    </emissions>

    <traci_server>
        <remote-port value="36318"/>
    </traci_server>

    <random_number>
        <random value="true"/>
    </random_number>

</configuration>
-->

<tripinfos xmlns:xsi="http://www.w3.org/2001/XMLSchema-instance" xsi:noNamespaceSchemaLocation="http://sumo.dlr.de/xsd/tripinfo_file.xsd">
    <tripinfo id="h15454c2:3" depart="57612.00" departLane="24608844_1" departPos="5.10" departSpeed="0.00" departDelay="0.50" arrival="57651.00" arrivalLane="32978638#0_1" arrivalPos="49.29" arrivalSpeed="13.72" duration="39.00" routeLength="354.79" waitingTime="0.00" waitingCount="0" stopTime="0.00" timeLoss="6.98" rerouteNo="1" devices="tripinfo_h15454c2:3 routing_h15454c2:3 emissions_h15454c2:3" vType="default_016" speedFactor="1.08" vaporized="">
        <emissions CO_abs="1968.334374" CO2_abs="113211.122296" HC_abs="11.615411" PMx_abs="2.002453" NOx_abs="46.514325" fuel_abs="48.664788" electricity_abs="0"/>
    </tripinfo>
    <tripinfo id="carIn53971:1" depart="57640.00" departLane="272042143_1" departPos="5.10" departSpeed="0.00" departDelay="0.80" arrival="57696.00" arrivalLane="24634414#1_1" arrivalPos="162.19" arrivalSpeed="8.13" duration="56.00" routeLength="493.04" waitingTime="0.00" waitingCount="0" stopTime="0.00" timeLoss="10.45" rerouteNo="1" devices="tripinfo_carIn53971:1 routing_carIn53971:1 emissions_carIn53971:1" vType="default_016" speedFactor="1.01" vaporized="">
        <emissions CO_abs="2697.406197" CO2_abs="146538.407051" HC_abs="15.709236" PMx_abs="2.595041" NOx_abs="60.419430" fuel_abs="62.990915" electricity_abs="0"/>
    </tripinfo>
    <tripinfo id="h7800c1:5" depart="57696.00" departLane="-447569998#1_1" departPos="5.10" departSpeed="0.00" departDelay="0.00" arrival="57726.00" arrivalLane="-447569998#1_1" arrivalPos="180.76" arrivalSpeed="6.48" duration="30.00" routeLength="175.66" waitingTime="0.00" waitingCount="0" stopTime="0.00" timeLoss="4.06" rerouteNo="1" devices="tripinfo_h7800c1:5 routing_h7800c1:5 emissions_h7800c1:5" vType="default_016" speedFactor="0.83" vaporized="">
        <emissions CO_abs="1325.964717" CO2_abs="49636.381761" HC_abs="7.174927" PMx_abs="0.841308" NOx_abs="20.463206" fuel_abs="21.337052" electricity_abs="0"/>
    </tripinfo>
    <tripinfo id="h5979c1:5" depart="57669.00" departLane="399835085#1_1" departPos="5.10" departSpeed="0.00" departDelay="0.00" arrival="57741.00" arrivalLane="-315358254#1_1" arrivalPos="137.16" arrivalSpeed="15.86" duration="72.00" routeLength="659.33" waitingTime="0.00" waitingCount="0" stopTime="0.00" timeLoss="8.51" rerouteNo="1" devices="tripinfo_h5979c1:5 routing_h5979c1:5 emissions_h5979c1:5" vType="default_016" speedFactor="1.16" vaporized="">
        <emissions CO_abs="2739.269148" CO2_abs="167435.042631" HC_abs="16.305871" PMx_abs="2.639077" NOx_abs="66.588940" fuel_abs="71.973764" electricity_abs="0"/>
    </tripinfo>
    <tripinfo id="h317c2:1" depart="57707.00" departLane="-32978638#0_1" departPos="5.10" departSpeed="0.00" departDelay="0.10" arrival="57747.00" arrivalLane="-266565295#5_1" arrivalPos="172.76" arrivalSpeed="11.96" duration="40.00" routeLength="370.53" waitingTime="0.00" waitingCount="0" stopTime="0.00" timeLoss="9.85" rerouteNo="1" devices="tripinfo_h317c2:1 routing_h317c2:1 emissions_h317c2:1" vType="default_016" speedFactor="0.91" vaporized="">
        <emissions CO_abs="1870.615981" CO2_abs="103551.701585" HC_abs="10.938860" PMx_abs="1.814796" NOx_abs="42.428735" fuel_abs="44.512688" electricity_abs="0"/>
    </tripinfo>
    <tripinfo id="h3326c1:2" depart="57656.00" departLane="22716069#0_1" departPos="5.10" departSpeed="0.00" departDelay="0.00" arrival="57759.00" arrivalLane="24634517#13_1" arrivalPos="111.62" arrivalSpeed="15.07" duration="103.00" routeLength="1312.81" waitingTime="0.00" waitingCount="0" stopTime="0.00" timeLoss="16.55" rerouteNo="1" devices="tripinfo_h3326c1:2 routing_h3326c1:2 emissions_h3326c1:2" vType="default_016" speedFactor="1.13" vaporized="">
        <emissions CO_abs="4373.898551" CO2_abs="330782.862268" HC_abs="27.610916" PMx_abs="5.884953" NOx_abs="133.946677" fuel_abs="142.188867" electricity_abs="0"/>
    </tripinfo>
    <tripinfo id="carIn27009:1" depart="57673.00" departLane="-447569998#1_1" departPos="5.10" departSpeed="0.00" departDelay="0.50" arrival="57759.00" arrivalLane="-26677539_1" arrivalPos="152.75" arrivalSpeed="8.06" duration="86.00" routeLength="699.63" waitingTime="0.00" waitingCount="0" stopTime="0.00" timeLoss="10.22" rerouteNo="1" devices="tripinfo_carIn27009:1 routing_carIn27009:1 emissions_carIn27009:1" vType="default_015" speedFactor="1.11" vaporized="">
        <emissions CO_abs="3236.805332" CO2_abs="170979.378189" HC_abs="18.657496" PMx_abs="2.654109" NOx_abs="68.383700" fuel_abs="73.497713" electricity_abs="0"/>
    </tripinfo>
    <tripinfo id="h4538c1:1" depart="57701.00" departLane="-10427692#1_1" departPos="5.10" departSpeed="0.00" departDelay="0.00" arrival="57777.00" arrivalLane="-128361102#1_1" arrivalPos="274.68" arrivalSpeed="12.84" duration="76.00" routeLength="440.74" waitingTime="32.00" waitingCount="1" stopTime="0.00" timeLoss="43.49" rerouteNo="1" devices="tripinfo_h4538c1:1 routing_h4538c1:1 emissions_h4538c1:1" vType="default_016" speedFactor="0.97" vaporized="">
        <emissions CO_abs="6278.853918" CO2_abs="185695.272815" HC_abs="32.942710" PMx_abs="3.750063" NOx_abs="79.005087" fuel_abs="79.824661" electricity_abs="0"/>
    </tripinfo>
    <tripinfo id="h3568c1:3" depart="57656.00" departLane="266565295#5_1" departPos="5.10" departSpeed="0.00" departDelay="0.80" arrival="57786.00" arrivalLane="-24634415_1" arrivalPos="62.03" arrivalSpeed="12.72" duration="130.00" routeLength="807.40" waitingTime="45.00" waitingCount="1" stopTime="0.00" timeLoss="63.94" rerouteNo="1" devices="tripinfo_h3568c1:3 routing_h3568c1:3 emissions_h3568c1:3" vType="default_016" speedFactor="0.97" vaporized="">
        <emissions CO_abs="10025.490391" CO2_abs="326420.374378" HC_abs="53.314145" PMx_abs="6.538709" NOx_abs="139.034896" fuel_abs="140.317199" electricity_abs="0"/>
    </tripinfo>
    <tripinfo id="carIn107282:1" depart="57749.00" departLane="-447569998#1_1" departPos="5.10" departSpeed="0.00" departDelay="0.00" arrival="57806.00" arrivalLane="315358242#0_1" arrivalPos="165.37" arrivalSpeed="11.21" duration="57.00" routeLength="448.50" waitingTime="0.00" waitingCount="0" stopTime="0.00" timeLoss="6.04" rerouteNo="1" devices="tripinfo_carIn107282:1 routing_carIn107282:1 emissions_carIn107282:1" vType="default_016" speedFactor="0.82" vaporized="">
        <emissions CO_abs="2177.112194" CO2_abs="109774.993489" HC_abs="12.433432" PMx_abs="1.731579" NOx_abs="43.969272" fuel_abs="47.188265" electricity_abs="0"/>
    </tripinfo>
    <tripinfo id="carIn129809:1" depart="57728.00" departLane="-447569998#1_1" departPos="5.10" departSpeed="0.00" departDelay="0.00" arrival="57814.00" arrivalLane="-315358244_1" arrivalPos="33.95" arrivalSpeed="10.69" duration="86.00" routeLength="706.49" waitingTime="2.00" waitingCount="1" stopTime="0.00" timeLoss="15.31" rerouteNo="1" devices="tripinfo_carIn129809:1 routing_carIn129809:1 emissions_carIn129809:1" vType="default_015" speedFactor="0.86" vaporized="">
        <emissions CO_abs="3587.708430" CO2_abs="185497.656388" HC_abs="20.613423" PMx_abs="2.993094" NOx_abs="74.543883" fuel_abs="79.738515" electricity_abs="0"/>
    </tripinfo>
    <tripinfo id="randUni15030:1" depart="57735.00" departLane="386687232#0_1" departPos="5.10" departSpeed="0.00" departDelay="0.10" arrival="57828.00" arrivalLane="26677539_1" arrivalPos="151.98" arrivalSpeed="8.20" duration="93.00" routeLength="919.89" waitingTime="0.00" waitingCount="0" stopTime="0.00" timeLoss="11.68" rerouteNo="1" devices="tripinfo_randUni15030:1 routing_randUni15030:1 emissions_randUni15030:1" vType="random_016" speedFactor="1.03" vaporized="">
        <emissions CO_abs="3521.830681" CO2_abs="228351.579611" HC_abs="21.300607" PMx_abs="3.720420" NOx_abs="91.196837" fuel_abs="98.159070" electricity_abs="0"/>
    </tripinfo>
    <tripinfo id="carIn8642:1" depart="57774.00" departLane="-447569998#1_1" departPos="5.10" departSpeed="0.00" departDelay="0.90" arrival="57854.00" arrivalLane="-315358244_1" arrivalPos="33.95" arrivalSpeed="12.73" duration="80.00" routeLength="706.49" waitingTime="5.00" waitingCount="1" stopTime="0.00" timeLoss="17.30" rerouteNo="1" devices="tripinfo_carIn8642:1 routing_carIn8642:1 emissions_carIn8642:1" vType="default_016" speedFactor="0.97" vaporized="">
        <emissions CO_abs="3156.325509" CO2_abs="180638.525812" HC_abs="18.582061" PMx_abs="3.069826" NOx_abs="73.281446" fuel_abs="77.649263" electricity_abs="0"/>
    </tripinfo>
    <tripinfo id="h17600c1:1" depart="57662.00" departLane="272042143_1" departPos="5.10" departSpeed="0.00" departDelay="0.30" arrival="57878.00" arrivalLane="201238729#3_1" arrivalPos="431.02" arrivalSpeed="14.88" duration="216.00" routeLength="2100.26" waitingTime="62.00" waitingCount="1" stopTime="0.00" timeLoss="80.48" rerouteNo="1" devices="tripinfo_h17600c1:1 routing_h17600c1:1 emissions_h17600c1:1" vType="default_016" speedFactor="1.12" vaporized="">
        <emissions CO_abs="13688.332372" CO2_abs="542370.007671" HC_abs="74.878537" PMx_abs="10.223928" NOx_abs="222.623375" fuel_abs="233.145562" electricity_abs="0"/>
    </tripinfo>
    <tripinfo id="carIn70533:1" depart="57812.00" departLane="-447569998#1_1" departPos="5.10" departSpeed="0.00" departDelay="0.10" arrival="57894.00" arrivalLane="-315358244_1" arrivalPos="33.95" arrivalSpeed="13.01" duration="82.00" routeLength="706.49" waitingTime="8.00" waitingCount="1" stopTime="0.00" timeLoss="20.82" rerouteNo="1" devices="tripinfo_carIn70533:1 routing_carIn70533:1 emissions_carIn70533:1" vType="default_016" speedFactor="0.99" vaporized="">
        <emissions CO_abs="3754.641688" CO2_abs="197832.370190" HC_abs="21.693109" PMx_abs="3.315856" NOx_abs="79.697618" fuel_abs="85.040560" electricity_abs="0"/>
    </tripinfo>
    <tripinfo id="randUni23028:1" depart="57884.00" departLane="124812856#0_1" departPos="5.10" departSpeed="0.00" departDelay="0.10" arrival="57900.00" arrivalLane="201956810_1" arrivalPos="71.65" arrivalSpeed="11.99" duration="16.00" routeLength="134.91" waitingTime="0.00" waitingCount="0" stopTime="0.00" timeLoss="4.88" rerouteNo="1" devices="tripinfo_randUni23028:1 routing_randUni23028:1 emissions_randUni23028:1" vType="random_016" speedFactor="0.95" vaporized="">
        <emissions CO_abs="1377.658115" CO2_abs="66942.181935" HC_abs="7.865182" PMx_abs="1.356114" NOx_abs="28.823223" fuel_abs="28.775579" electricity_abs="0"/>
    </tripinfo>
    <tripinfo id="h13377c2:3" depart="57804.00" departLane="315358244_1" departPos="5.10" departSpeed="0.00" departDelay="0.60" arrival="57906.00" arrivalLane="447569997#1_1" arrivalPos="180.93" arrivalSpeed="6.58" duration="102.00" routeLength="726.74" waitingTime="3.00" waitingCount="2" stopTime="0.00" timeLoss="20.64" rerouteNo="1" devices="tripinfo_h13377c2:3 routing_h13377c2:3 emissions_h13377c2:3" vType="default_016" speedFactor="0.82" vaporized="">
        <emissions CO_abs="4177.207552" CO2_abs="186244.513296" HC_abs="23.297312" PMx_abs="3.027554" NOx_abs="75.276431" fuel_abs="80.059989" electricity_abs="0"/>
    </tripinfo>
    <tripinfo id="carIn13353:1" depart="57838.00" departLane="-447569998#1_1" departPos="5.10" departSpeed="0.00" departDelay="0.30" arrival="57912.00" arrivalLane="-315358244_1" arrivalPos="33.95" arrivalSpeed="12.33" duration="74.00" routeLength="706.49" waitingTime="0.00" waitingCount="0" stopTime="0.00" timeLoss="10.21" rerouteNo="1" devices="tripinfo_carIn13353:1 routing_carIn13353:1 emissions_carIn13353:1" vType="default_016" speedFactor="0.94" vaporized="">
        <emissions CO_abs="2919.592068" CO2_abs="168694.833996" HC_abs="17.223610" PMx_abs="2.861421" NOx_abs="68.530162" fuel_abs="72.515119" electricity_abs="0"/>
    </tripinfo>
    <tripinfo id="carIn63848:1" depart="57841.00" departLane="-447569998#1_1" departPos="5.10" departSpeed="0.00" departDelay="0.80" arrival="57913.00" arrivalLane="-315358244_2" arrivalPos="33.95" arrivalSpeed="15.86" duration="72.00" routeLength="706.49" waitingTime="1.00" waitingCount="1" stopTime="0.00" timeLoss="20.62" rerouteNo="1" devices="tripinfo_carIn63848:1 routing_carIn63848:1 emissions_carIn63848:1" vType="default_016" speedFactor="1.17" vaporized="">
        <emissions CO_abs="3456.510484" CO2_abs="205621.862054" HC_abs="20.490649" PMx_abs="3.788789" NOx_abs="84.779247" fuel_abs="88.388067" electricity_abs="0"/>
    </tripinfo>
    <tripinfo id="carIn24709:1" depart="57753.00" departLane="266565295#5_1" departPos="5.10" departSpeed="0.00" departDelay="2.50" arrival="57924.00" arrivalLane="-24634506#2_1" arrivalPos="71.32" arrivalSpeed="12.14" duration="171.00" routeLength="1534.27" waitingTime="20.00" waitingCount="1" stopTime="0.00" timeLoss="46.14" rerouteNo="1" devices="tripinfo_carIn24709:1 routing_carIn24709:1 emissions_carIn24709:1" vType="default_016" speedFactor="0.92" vaporized="">
        <emissions CO_abs="8612.247489" CO2_abs="426242.084457" HC_abs="49.186402" PMx_abs="7.604548" NOx_abs="175.045898" fuel_abs="183.224856" electricity_abs="0"/>
    </tripinfo>
    <tripinfo id="h3426c1:1" depart="57864.00" departLane="-160314345#2_1" departPos="5.10" departSpeed="0.00" departDelay="0.00" arrival="57940.00" arrivalLane="386687235_1" arrivalPos="80.84" arrivalSpeed="13.59" duration="76.00" routeLength="726.87" waitingTime="0.00" waitingCount="0" stopTime="0.00" timeLoss="8.28" rerouteNo="1" devices="tripinfo_h3426c1:1 routing_h3426c1:1 emissions_h3426c1:1" vType="default_016" speedFactor="1.01" vaporized="">
        <emissions CO_abs="2650.004674" CO2_abs="167189.183213" HC_abs="15.915325" PMx_abs="2.654894" NOx_abs="66.359020" fuel_abs="71.868005" electricity_abs="0"/>
    </tripinfo>
    <tripinfo id="carIn132499:1" depart="57740.00" departLane="272042143_1" departPos="5.10" departSpeed="0.00" departDelay="0.70" arrival="57943.00" arrivalLane="201238729#3_1" arrivalPos="431.02" arrivalSpeed="9.98" duration="203.00" routeLength="2100.26" waitingTime="0.00" waitingCount="0" stopTime="0.00" timeLoss="15.32" rerouteNo="1" devices="tripinfo_carIn132499:1 routing_carIn132499:1 emissions_carIn132499:1" vType="default_016" speedFactor="0.81" vaporized="">
        <emissions CO_abs="4809.797858" CO2_abs="367685.336523" HC_abs="30.337081" PMx_abs="5.258430" NOx_abs="142.203184" fuel_abs="158.053380" electricity_abs="0"/>
    </tripinfo>
    <tripinfo id="carIn7949:1" depart="57676.00" departLane="128361109#1_1" departPos="5.10" departSpeed="0.00" departDelay="2.10" arrival="57971.00" arrivalLane="386687235_1" arrivalPos="80.84" arrivalSpeed="13.91" duration="295.00" routeLength="2088.57" waitingTime="134.00" waitingCount="2" stopTime="0.00" timeLoss="153.14" rerouteNo="1" devices="tripinfo_carIn7949:1 routing_carIn7949:1 emissions_carIn7949:1" vType="default_016" speedFactor="1.06" vaporized="">
        <emissions CO_abs="25293.100775" CO2_abs="737327.556219" HC_abs="132.375780" PMx_abs="14.995447" NOx_abs="311.950278" fuel_abs="316.954719" electricity_abs="0"/>
    </tripinfo>
    <tripinfo id="carIn85747:1" depart="57673.00" departLane="128361109#1_1" departPos="5.10" departSpeed="0.00" departDelay="0.70" arrival="57975.00" arrivalLane="386687235_2" arrivalPos="80.84" arrivalSpeed="14.11" duration="302.00" routeLength="2088.57" waitingTime="133.00" waitingCount="2" stopTime="0.00" timeLoss="154.44" rerouteNo="1" devices="tripinfo_carIn85747:1 routing_carIn85747:1 emissions_carIn85747:1" vType="default_016" speedFactor="1.03" vaporized="">
        <emissions CO_abs="25250.542105" CO2_abs="746760.903629" HC_abs="132.404248" PMx_abs="14.745207" NOx_abs="313.023583" fuel_abs="321.010211" electricity_abs="0"/>
    </tripinfo>
    <tripinfo id="carIn115169:1" depart="57759.00" departLane="24599188#0.94_1" departPos="5.10" departSpeed="0.00" departDelay="0.50" arrival="57975.00" arrivalLane="-10427692#3_1" arrivalPos="28.64" arrivalSpeed="19.91" duration="216.00" routeLength="2183.23" waitingTime="0.00" waitingCount="0" stopTime="0.00" timeLoss="27.97" rerouteNo="1" devices="tripinfo_carIn115169:1 routing_carIn115169:1 emissions_carIn115169:1" vType="default_016" speedFactor="0.90" vaporized="">
        <emissions CO_abs="8108.605795" CO2_abs="530661.207662" HC_abs="49.335527" PMx_abs="9.032046" NOx_abs="214.851561" fuel_abs="228.109023" electricity_abs="0"/>
    </tripinfo>
    <tripinfo id="carIn75660:1" depart="57679.00" departLane="128361109#1_1" departPos="5.10" departSpeed="0.00" departDelay="3.40" arrival="57978.00" arrivalLane="386687235_1" arrivalPos="80.84" arrivalSpeed="12.79" duration="299.00" routeLength="2088.57" waitingTime="124.00" waitingCount="1" stopTime="0.00" timeLoss="141.03" rerouteNo="1" devices="tripinfo_carIn75660:1 routing_carIn75660:1 emissions_carIn75660:1" vType="default_016" speedFactor="0.95" vaporized="">
        <emissions CO_abs="24130.696343" CO2_abs="701124.627317" HC_abs="126.238039" PMx_abs="13.740284" NOx_abs="294.047235" fuel_abs="301.392982" electricity_abs="0"/>
    </tripinfo>
    <tripinfo id="h7032c2:3" depart="57863.00" departLane="315358244_1" departPos="5.10" departSpeed="0.00" departDelay="0.40" arrival="57978.00" arrivalLane="26677541_1" arrivalPos="152.31" arrivalSpeed="12.06" duration="115.00" routeLength="925.70" waitingTime="0.00" waitingCount="0" stopTime="0.00" timeLoss="15.19" rerouteNo="1" devices="tripinfo_h7032c2:3 routing_h7032c2:3 emissions_h7032c2:3" vType="default_016" speedFactor="0.90" vaporized="">
        <emissions CO_abs="4629.053018" CO2_abs="246853.327179" HC_abs="26.761961" PMx_abs="3.921626" NOx_abs="98.830443" fuel_abs="106.112993" electricity_abs="0"/>
    </tripinfo>
    <tripinfo id="h19413c1:1" depart="57685.00" departLane="128361109#1_1" departPos="5.10" departSpeed="0.00" departDelay="5.90" arrival="57980.00" arrivalLane="386687235_1" arrivalPos="80.84" arrivalSpeed="12.53" duration="295.00" routeLength="2088.57" waitingTime="121.00" waitingCount="1" stopTime="0.00" timeLoss="140.86" rerouteNo="1" devices="tripinfo_h19413c1:1 routing_h19413c1:1 emissions_h19413c1:1" vType="default_016" speedFactor="0.98" vaporized="">
        <emissions CO_abs="24014.567770" CO2_abs="728476.751894" HC_abs="126.308593" PMx_abs="14.189401" NOx_abs="304.863082" fuel_abs="313.150088" electricity_abs="0"/>
    </tripinfo>
    <tripinfo id="carIn88905:1" depart="57688.00" departLane="128361109#1_1" departPos="5.10" departSpeed="0.00" departDelay="5.80" arrival="57980.00" arrivalLane="386687235_2" arrivalPos="80.84" arrivalSpeed="12.41" duration="292.00" routeLength="2088.57" waitingTime="115.00" waitingCount="1" stopTime="0.00" timeLoss="133.19" rerouteNo="1" devices="tripinfo_carIn88905:1 routing_carIn88905:1 emissions_carIn88905:1" vType="default_016" speedFactor="0.95" vaporized="">
        <emissions CO_abs="22113.730980" CO2_abs="671438.189049" HC_abs="116.298862" PMx_abs="12.725580" NOx_abs="278.483097" fuel_abs="288.631490" electricity_abs="0"/>
    </tripinfo>
    <tripinfo id="carIn113750:1" depart="57961.00" departLane="24599188#0.94_1" departPos="5.10" departSpeed="0.00" departDelay="0.30" arrival="57984.00" arrivalLane="24599188#0.94_1" arrivalPos="186.59" arrivalSpeed="9.94" duration="23.00" routeLength="181.49" waitingTime="0.00" waitingCount="0" stopTime="0.00" timeLoss="4.47" rerouteNo="1" devices="tripinfo_carIn113750:1 routing_carIn113750:1 emissions_carIn113750:1" vType="default_016" speedFactor="1.21" vaporized="">
        <emissions CO_abs="1273.126300" CO2_abs="64366.996962" HC_abs="7.295347" PMx_abs="1.127147" NOx_abs="26.576840" fuel_abs="27.668843" electricity_abs="0"/>
    </tripinfo>
    <tripinfo id="carIn95912:1" depart="57825.00" departLane="272042143_1" departPos="5.10" departSpeed="0.00" departDelay="1.40" arrival="57985.00" arrivalLane="201238729#3_1" arrivalPos="431.02" arrivalSpeed="13.84" duration="160.00" routeLength="2100.26" waitingTime="0.00" waitingCount="0" stopTime="0.00" timeLoss="12.12" rerouteNo="1" devices="tripinfo_carIn95912:1 routing_carIn95912:1 emissions_carIn95912:1" vType="default_016" speedFactor="1.02" vaporized="">
        <emissions CO_abs="3495.688559" CO2_abs="363580.143218" HC_abs="24.268186" PMx_abs="5.436720" NOx_abs="139.223621" fuel_abs="156.287561" electricity_abs="0"/>
    </tripinfo>
    <tripinfo id="carIn99233:1" depart="57691.00" departLane="128361109#1_1" departPos="5.10" departSpeed="0.00" departDelay="1.90" arrival="57999.00" arrivalLane="386687235_1" arrivalPos="80.84" arrivalSpeed="12.75" duration="308.00" routeLength="2088.57" waitingTime="123.00" waitingCount="2" stopTime="0.00" timeLoss="146.57" rerouteNo="1" devices="tripinfo_carIn99233:1 routing_carIn99233:1 emissions_carIn99233:1" vType="default_016" speedFactor="0.94" vaporized="">
        <emissions CO_abs="24207.283425" CO2_abs="716700.442870" HC_abs="126.963865" PMx_abs="14.092144" NOx_abs="301.495994" fuel_abs="308.088041" electricity_abs="0"/>
    </tripinfo>
    <tripinfo id="carIn5824:1" depart="57700.00" departLane="128361109#1_1" departPos="5.10" departSpeed="0.00" departDelay="5.60" arrival="58000.00" arrivalLane="386687235_2" arrivalPos="80.84" arrivalSpeed="12.04" duration="300.00" routeLength="2088.57" waitingTime="112.00" waitingCount="2" stopTime="0.00" timeLoss="139.31" rerouteNo="1" devices="tripinfo_carIn5824:1 routing_carIn5824:1 emissions_carIn5824:1" vType="default_016" speedFactor="0.94" vaporized="">
        <emissions CO_abs="22282.520261" CO2_abs="698546.637094" HC_abs="117.750051" PMx_abs="13.402043" NOx_abs="291.692757" fuel_abs="300.283652" electricity_abs="0"/>
    </tripinfo>
    <tripinfo id="carIn49359:1" depart="57765.00" departLane="128361109#1_1" departPos="5.10" departSpeed="0.00" departDelay="0.50" arrival="58000.00" arrivalLane="386687235_1" arrivalPos="80.84" arrivalSpeed="14.21" duration="235.00" routeLength="2088.57" waitingTime="54.00" waitingCount="2" stopTime="0.00" timeLoss="91.62" rerouteNo="1" devices="tripinfo_carIn49359:1 routing_carIn49359:1 emissions_carIn49359:1" vType="default_016" speedFactor="1.05" vaporized="">
        <emissions CO_abs="13607.859312" CO2_abs="577021.468560" HC_abs="75.421338" PMx_abs="10.686570" NOx_abs="237.804630" fuel_abs="248.040266" electricity_abs="0"/>
    </tripinfo>
    <tripinfo id="randUni20153:1" depart="57834.00" departLane="272042143_1" departPos="5.10" departSpeed="0.00" departDelay="5.60" arrival="58002.00" arrivalLane="201238729#3_1" arrivalPos="431.02" arrivalSpeed="13.58" duration="168.00" routeLength="2100.26" waitingTime="0.00" waitingCount="0" stopTime="0.00" timeLoss="13.15" rerouteNo="1" devices="tripinfo_randUni20153:1 routing_randUni20153:1 emissions_randUni20153:1" vType="random_016" speedFactor="0.98" vaporized="">
        <emissions CO_abs="3910.245146" CO2_abs="383364.124640" HC_abs="26.685852" PMx_abs="5.759531" NOx_abs="147.788375" fuel_abs="164.791932" electricity_abs="0"/>
    </tripinfo>
    <tripinfo id="h19577c1:1" depart="57694.00" departLane="128361109#1_1" departPos="5.10" departSpeed="0.00" departDelay="2.80" arrival="58006.00" arrivalLane="386687235_1" arrivalPos="80.84" arrivalSpeed="10.86" duration="312.00" routeLength="2088.57" waitingTime="111.00" waitingCount="2" stopTime="0.00" timeLoss="136.86" rerouteNo="1" devices="tripinfo_h19577c1:1 routing_h19577c1:1 emissions_h19577c1:1" vType="default_016" speedFactor="0.86" vaporized="">
        <emissions CO_abs="22352.638150" CO2_abs="672126.429306" HC_abs="117.398227" PMx_abs="12.787064" NOx_abs="280.625264" fuel_abs="288.927297" electricity_abs="0"/>
    </tripinfo>
    <tripinfo id="carIn48897:1" depart="57780.00" departLane="128361109#1_1" departPos="5.10" departSpeed="0.00" departDelay="7.20" arrival="58008.00" arrivalLane="386687235_1" arrivalPos="80.84" arrivalSpeed="13.56" duration="228.00" routeLength="2088.57" waitingTime="30.00" waitingCount="1" stopTime="0.00" timeLoss="83.19" rerouteNo="1" devices="tripinfo_carIn48897:1 routing_carIn48897:1 emissions_carIn48897:1" vType="default_016" speedFactor="1.04" vaporized="">
        <emissions CO_abs="10679.703918" CO2_abs="529399.413459" HC_abs="60.976091" PMx_abs="9.205184" NOx_abs="215.314466" fuel_abs="227.568579" electricity_abs="0"/>
    </tripinfo>
    <tripinfo id="carIn70751:1" depart="57768.00" departLane="128361109#1_1" departPos="5.10" departSpeed="0.00" departDelay="1.90" arrival="58009.00" arrivalLane="386687235_1" arrivalPos="80.84" arrivalSpeed="13.56" duration="241.00" routeLength="2088.57" waitingTime="45.00" waitingCount="1" stopTime="0.00" timeLoss="98.87" rerouteNo="1" devices="tripinfo_carIn70751:1 routing_carIn70751:1 emissions_carIn70751:1" vType="default_016" speedFactor="1.06" vaporized="">
        <emissions CO_abs="13381.046651" CO2_abs="579151.289395" HC_abs="74.423184" PMx_abs="10.511277" NOx_abs="238.388624" fuel_abs="248.955781" electricity_abs="0"/>
    </tripinfo>
    <tripinfo id="carIn7286:1" depart="57774.00" departLane="128361109#1_1" departPos="5.10" departSpeed="0.00" departDelay="4.70" arrival="58010.00" arrivalLane="386687235_2" arrivalPos="80.84" arrivalSpeed="10.52" duration="236.00" routeLength="2088.57" waitingTime="33.00" waitingCount="1" stopTime="0.00" timeLoss="51.50" rerouteNo="1" devices="tripinfo_carIn7286:1 routing_carIn7286:1 emissions_carIn7286:1" vType="default_016" speedFactor="0.82" vaporized="">
        <emissions CO_abs="9712.432089" CO2_abs="447841.784863" HC_abs="54.558691" PMx_abs="7.328713" NOx_abs="179.298390" fuel_abs="192.511339" electricity_abs="0"/>
    </tripinfo>
    <tripinfo id="carIn75964:1" depart="57777.00" departLane="128361109#1_1" departPos="5.10" departSpeed="0.00" departDelay="5.80" arrival="58011.00" arrivalLane="386687235_1" arrivalPos="80.84" arrivalSpeed="13.77" duration="234.00" routeLength="2088.57" waitingTime="31.00" waitingCount="1" stopTime="0.00" timeLoss="82.97" rerouteNo="1" devices="tripinfo_carIn75964:1 routing_carIn75964:1 emissions_carIn75964:1" vType="default_016" speedFactor="1.00" vaporized="">
        <emissions CO_abs="12337.159928" CO2_abs="598705.121318" HC_abs="70.209496" PMx_abs="10.863894" NOx_abs="247.073785" fuel_abs="257.359917" electricity_abs="0"/>
    </tripinfo>
    <tripinfo id="carIn121314:1" depart="57789.00" departLane="128361109#1_1" departPos="5.10" departSpeed="0.00" departDelay="9.10" arrival="58013.00" arrivalLane="386687235_1" arrivalPos="80.84" arrivalSpeed="12.60" duration="224.00" routeLength="2088.57" waitingTime="30.00" waitingCount="2" stopTime="0.00" timeLoss="65.90" rerouteNo="1" devices="tripinfo_carIn121314:1 routing_carIn121314:1 emissions_carIn121314:1" vType="default_016" speedFactor="0.95" vaporized="">
        <emissions CO_abs="10691.869457" CO2_abs="544761.682858" HC_abs="61.438907" PMx_abs="9.704624" NOx_abs="223.006844" fuel_abs="234.171627" electricity_abs="0"/>
    </tripinfo>
    <tripinfo id="carIn60867:1" depart="57786.00" departLane="128361109#1_1" departPos="5.10" departSpeed="0.00" departDelay="7.80" arrival="58015.00" arrivalLane="386687235_2" arrivalPos="80.84" arrivalSpeed="12.88" duration="229.00" routeLength="2088.57" waitingTime="29.00" waitingCount="1" stopTime="0.00" timeLoss="72.01" rerouteNo="1" devices="tripinfo_carIn60867:1 routing_carIn60867:1 emissions_carIn60867:1" vType="default_016" speedFactor="0.96" vaporized="">
        <emissions CO_abs="11296.019101" CO2_abs="563850.138686" HC_abs="64.619838" PMx_abs="9.999676" NOx_abs="230.998376" fuel_abs="242.377221" electricity_abs="0"/>
    </tripinfo>
    <tripinfo id="carIn119881:1" depart="57849.00" departLane="128361109#1_1" departPos="5.10" departSpeed="0.00" departDelay="0.90" arrival="58015.00" arrivalLane="386687235_1" arrivalPos="80.84" arrivalSpeed="13.77" duration="166.00" routeLength="2088.57" waitingTime="0.00" waitingCount="0" stopTime="0.00" timeLoss="19.33" rerouteNo="1" devices="tripinfo_carIn119881:1 routing_carIn119881:1 emissions_carIn119881:1" vType="default_016" speedFactor="1.03" vaporized="">
        <emissions CO_abs="4269.275851" CO2_abs="405649.660634" HC_abs="28.863456" PMx_abs="6.251401" NOx_abs="157.399075" fuel_abs="174.371408" electricity_abs="0"/>
    </tripinfo>
    <tripinfo id="h9261c1:3" depart="57792.00" departLane="128361109#1_1" departPos="5.10" departSpeed="0.00" departDelay="10.30" arrival="58016.00" arrivalLane="386687235_2" arrivalPos="80.84" arrivalSpeed="13.16" duration="224.00" routeLength="2088.57" waitingTime="29.00" waitingCount="1" stopTime="0.00" timeLoss="78.75" rerouteNo="1" devices="tripinfo_h9261c1:3 routing_h9261c1:3 emissions_h9261c1:3" vType="default_016" speedFactor="1.04" vaporized="">