<?xml version="1.0" encoding="UTF-8"?>

<!-- generated on Thu Nov  4 13:53:03 2021 by Eclipse SUMO sumo Version 1.9.0
<configuration xmlns:xsi="http://www.w3.org/2001/XMLSchema-instance" xsi:noNamespaceSchemaLocation="http://sumo.dlr.de/xsd/sumoConfiguration.xsd">

    <input>
        <net-file value="/mainfs/home/bk2g18/RESCO/environments/ingolstadt21/ingolstadt21.net.xml"/>
        <route-files value="/mainfs/home/bk2g18/RESCO/environments/ingolstadt21/ingolstadt21.rou.xml"/>
    </input>

    <output>
        <tripinfo-output value="/mainfs/home/bk2g18/RESCO/logs/MPLight-tr0-ingolstadt21-21-mplight_full-pressure/tripinfo_56.xml"/>
        <tripinfo-output.write-unfinished value="true"/>
    </output>

    <time>
        <begin value="57600"/>
        <end value="61200"/>
    </time>

    <processing>
        <time-to-teleport value="-1"/>
    </processing>

    <report>
        <xml-validation value="never"/>
        <xml-validation.routes value="never"/>
        <no-warnings value="true"/>
        <no-step-log value="true"/>
    </report>

    <emissions>
        <device.emissions.probability value="1"/>
    </emissions>

    <traci_server>
        <remote-port value="42577"/>
    </traci_server>

    <random_number>
        <random value="true"/>
    </random_number>

</configuration>
-->

<tripinfos xmlns:xsi="http://www.w3.org/2001/XMLSchema-instance" xsi:noNamespaceSchemaLocation="http://sumo.dlr.de/xsd/tripinfo_file.xsd">
    <tripinfo id="h15454c2:3" depart="57612.00" departLane="24608844_1" departPos="5.10" departSpeed="0.00" departDelay="0.50" arrival="57648.00" arrivalLane="32978638#0_1" arrivalPos="49.29" arrivalSpeed="15.59" duration="36.00" routeLength="354.79" waitingTime="0.00" waitingCount="0" stopTime="0.00" timeLoss="6.40" rerouteNo="1" devices="tripinfo_h15454c2:3 routing_h15454c2:3 emissions_h15454c2:3" vType="default_016" speedFactor="1.15" vaporized="">
        <emissions CO_abs="2195.761232" CO2_abs="131104.775008" HC_abs="13.082563" PMx_abs="2.398749" NOx_abs="54.292764" fuel_abs="56.356345" electricity_abs="0"/>
    </tripinfo>
    <tripinfo id="carIn53971:1" depart="57640.00" departLane="272042143_1" departPos="5.10" departSpeed="0.00" departDelay="0.80" arrival="57688.00" arrivalLane="24634414#1_1" arrivalPos="162.19" arrivalSpeed="9.53" duration="48.00" routeLength="493.04" waitingTime="0.00" waitingCount="0" stopTime="0.00" timeLoss="9.23" rerouteNo="1" devices="tripinfo_carIn53971:1 routing_carIn53971:1 emissions_carIn53971:1" vType="default_016" speedFactor="1.17" vaporized="">
        <emissions CO_abs="2571.856668" CO2_abs="153925.516199" HC_abs="15.342694" PMx_abs="2.828007" NOx_abs="63.814090" fuel_abs="66.165986" electricity_abs="0"/>
    </tripinfo>
    <tripinfo id="carIn60260:1" depart="57606.00" departLane="315358254#0_1" departPos="5.10" departSpeed="0.00" departDelay="0.90" arrival="57706.00" arrivalLane="399835085#1_1" arrivalPos="212.23" arrivalSpeed="7.85" duration="100.00" routeLength="430.98" waitingTime="42.00" waitingCount="1" stopTime="0.00" timeLoss="51.03" rerouteNo="1" devices="tripinfo_carIn60260:1 routing_carIn60260:1 emissions_carIn60260:1" vType="default_016" speedFactor="0.95" vaporized="">
        <emissions CO_abs="8421.405921" CO2_abs="218697.959138" HC_abs="43.433976" PMx_abs="4.445134" NOx_abs="94.051928" fuel_abs="94.012246" electricity_abs="0"/>
    </tripinfo>
    <tripinfo id="h3568c1:3" depart="57656.00" departLane="266565295#5_1" departPos="5.10" departSpeed="0.00" departDelay="0.80" arrival="57724.00" arrivalLane="-24634415_1" arrivalPos="62.03" arrivalSpeed="16.02" duration="68.00" routeLength="807.40" waitingTime="0.00" waitingCount="0" stopTime="0.00" timeLoss="13.89" rerouteNo="1" devices="tripinfo_h3568c1:3 routing_h3568c1:3 emissions_h3568c1:3" vType="default_016" speedFactor="1.19" vaporized="">
        <emissions CO_abs="3500.435619" CO2_abs="245815.190704" HC_abs="21.707817" PMx_abs="4.468969" NOx_abs="100.243239" fuel_abs="105.665104" electricity_abs="0"/>
    </tripinfo>
    <tripinfo id="h7800c1:5" depart="57696.00" departLane="-447569998#1_1" departPos="5.10" departSpeed="0.00" departDelay="0.00" arrival="57725.00" arrivalLane="-447569998#1_2" arrivalPos="180.76" arrivalSpeed="5.69" duration="29.00" routeLength="175.66" waitingTime="0.00" waitingCount="0" stopTime="0.00" timeLoss="5.04" rerouteNo="1" devices="tripinfo_h7800c1:5 routing_h7800c1:5 emissions_h7800c1:5" vType="default_016" speedFactor="0.90" vaporized="">
        <emissions CO_abs="1562.836392" CO2_abs="61790.281311" HC_abs="8.541904" PMx_abs="1.082954" NOx_abs="25.679114" fuel_abs="26.561487" electricity_abs="0"/>
    </tripinfo>
    <tripinfo id="h4538c1:1" depart="57701.00" departLane="-10427692#1_1" departPos="5.10" departSpeed="0.00" departDelay="0.00" arrival="57740.00" arrivalLane="-128361102#1_1" arrivalPos="274.68" arrivalSpeed="13.63" duration="39.00" routeLength="440.74" waitingTime="0.00" waitingCount="0" stopTime="0.00" timeLoss="6.95" rerouteNo="1" devices="tripinfo_h4538c1:1 routing_h4538c1:1 emissions_h4538c1:1" vType="default_016" speedFactor="1.00" vaporized="">
        <emissions CO_abs="1486.278581" CO2_abs="110988.132506" HC_abs="9.344004" PMx_abs="1.798498" NOx_abs="43.965901" fuel_abs="47.709145" electricity_abs="0"/>
    </tripinfo>
    <tripinfo id="h5979c1:5" depart="57669.00" departLane="399835085#1_1" departPos="5.10" departSpeed="0.00" departDelay="0.00" arrival="57754.00" arrivalLane="-315358254#1_1" arrivalPos="137.16" arrivalSpeed="13.50" duration="85.00" routeLength="659.33" waitingTime="0.00" waitingCount="0" stopTime="0.00" timeLoss="10.13" rerouteNo="1" devices="tripinfo_h5979c1:5 routing_h5979c1:5 emissions_h5979c1:5" vType="default_016" speedFactor="0.97" vaporized="">
        <emissions CO_abs="3536.730009" CO2_abs="173499.113457" HC_abs="20.086392" PMx_abs="2.759241" NOx_abs="69.790342" fuel_abs="74.580972" electricity_abs="0"/>
    </tripinfo>
    <tripinfo id="h3688c1:1" depart="57625.00" departLane="201201950#1_1" departPos="5.10" departSpeed="0.00" departDelay="0.00" arrival="57755.00" arrivalLane="32978638#0_1" arrivalPos="49.29" arrivalSpeed="15.21" duration="130.00" routeLength="1089.75" waitingTime="36.00" waitingCount="1" stopTime="0.00" timeLoss="56.53" rerouteNo="1" devices="tripinfo_h3688c1:1 routing_h3688c1:1 emissions_h3688c1:1" vType="default_016" speedFactor="1.10" vaporized="">
        <emissions CO_abs="8928.573378" CO2_abs="377064.141858" HC_abs="49.435717" PMx_abs="7.060410" NOx_abs="155.211376" fuel_abs="162.085957" electricity_abs="0"/>
    </tripinfo>
    <tripinfo id="h317c2:1" depart="57707.00" departLane="-32978638#0_1" departPos="5.10" departSpeed="0.00" departDelay="0.10" arrival="57764.00" arrivalLane="-266565295#5_1" arrivalPos="172.76" arrivalSpeed="14.05" duration="57.00" routeLength="370.53" waitingTime="22.00" waitingCount="1" stopTime="0.00" timeLoss="31.04" rerouteNo="1" devices="tripinfo_h317c2:1 routing_h317c2:1 emissions_h317c2:1" vType="default_016" speedFactor="1.08" vaporized="">
        <emissions CO_abs="4559.430423" CO2_abs="168060.780159" HC_abs="24.725056" PMx_abs="3.358012" NOx_abs="71.090004" fuel_abs="72.243249" electricity_abs="0"/>
    </tripinfo>
    <tripinfo id="h330c1:1" depart="57736.00" departLane="-32978638#0_1" departPos="5.10" departSpeed="0.00" departDelay="0.20" arrival="57771.00" arrivalLane="-266565295#5_1" arrivalPos="172.76" arrivalSpeed="12.94" duration="35.00" routeLength="370.53" waitingTime="0.00" waitingCount="0" stopTime="0.00" timeLoss="5.58" rerouteNo="1" devices="tripinfo_h330c1:1 routing_h330c1:1 emissions_h330c1:1" vType="default_016" speedFactor="0.95" vaporized="">
        <emissions CO_abs="1547.645438" CO2_abs="102038.474336" HC_abs="9.434847" PMx_abs="1.733320" NOx_abs="41.217266" fuel_abs="43.862069" electricity_abs="0"/>
    </tripinfo>
    <tripinfo id="carIn121703:1" depart="57647.00" departLane="386687232#0_1" departPos="5.10" departSpeed="0.00" departDelay="0.30" arrival="57783.00" arrivalLane="-315358244_1" arrivalPos="33.95" arrivalSpeed="13.46" duration="136.00" routeLength="1157.39" waitingTime="40.00" waitingCount="1" stopTime="0.00" timeLoss="54.06" rerouteNo="1" devices="tripinfo_carIn121703:1 routing_carIn121703:1 emissions_carIn121703:1" vType="default_016" speedFactor="1.02" vaporized="">
        <emissions CO_abs="9046.788019" CO2_abs="338915.474378" HC_abs="49.138396" PMx_abs="6.411584" NOx_abs="140.423591" fuel_abs="145.687990" electricity_abs="0"/>
    </tripinfo>
    <tripinfo id="h3326c1:2" depart="57656.00" departLane="22716069#0_1" departPos="5.10" departSpeed="0.00" departDelay="0.00" arrival="57793.00" arrivalLane="24634517#13_1" arrivalPos="111.62" arrivalSpeed="10.71" duration="137.00" routeLength="1312.81" waitingTime="0.00" waitingCount="0" stopTime="0.00" timeLoss="15.06" rerouteNo="1" devices="tripinfo_h3326c1:2 routing_h3326c1:2 emissions_h3326c1:2" vType="default_016" speedFactor="0.81" vaporized="">
        <emissions CO_abs="4589.056387" CO2_abs="298547.286431" HC_abs="27.789070" PMx_abs="4.643206" NOx_abs="118.394626" fuel_abs="128.333628" electricity_abs="0"/>
    </tripinfo>
    <tripinfo id="h11737c1:1" depart="57665.00" departLane="272042143_1" departPos="5.10" departSpeed="0.00" departDelay="1.50" arrival="57793.00" arrivalLane="-315358254#1_1" arrivalPos="137.16" arrivalSpeed="13.59" duration="128.00" routeLength="1596.88" waitingTime="0.00" waitingCount="0" stopTime="0.00" timeLoss="13.64" rerouteNo="1" devices="tripinfo_h11737c1:1 routing_h11737c1:1 emissions_h11737c1:1" vType="default_016" speedFactor="1.03" vaporized="">
        <emissions CO_abs="3852.731753" CO2_abs="339301.140518" HC_abs="25.421141" PMx_abs="5.375854" NOx_abs="132.784692" fuel_abs="145.851016" electricity_abs="0"/>
    </tripinfo>
    <tripinfo id="carIn27009:1" depart="57673.00" departLane="-447569998#1_1" departPos="5.10" departSpeed="0.00" departDelay="0.50" arrival="57794.00" arrivalLane="-26677539_1" arrivalPos="152.75" arrivalSpeed="7.08" duration="121.00" routeLength="699.63" waitingTime="22.00" waitingCount="1" stopTime="0.00" timeLoss="37.97" rerouteNo="1" devices="tripinfo_carIn27009:1 routing_carIn27009:1 emissions_carIn27009:1" vType="default_015" speedFactor="1.00" vaporized="">
        <emissions CO_abs="6828.196317" CO2_abs="234244.471079" HC_abs="36.485538" PMx_abs="4.156108" NOx_abs="97.206491" fuel_abs="100.694274" electricity_abs="0"/>
    </tripinfo>
    <tripinfo id="carIn107282:1" depart="57749.00" departLane="-447569998#1_1" departPos="5.10" departSpeed="0.00" departDelay="0.00" arrival="57799.00" arrivalLane="315358242#0_1" arrivalPos="165.37" arrivalSpeed="12.32" duration="50.00" routeLength="448.50" waitingTime="0.00" waitingCount="0" stopTime="0.00" timeLoss="5.79" rerouteNo="1" devices="tripinfo_carIn107282:1 routing_carIn107282:1 emissions_carIn107282:1" vType="default_016" speedFactor="0.95" vaporized="">
        <emissions CO_abs="1884.589496" CO2_abs="108037.160522" HC_abs="11.078386" PMx_abs="1.729181" NOx_abs="43.161615" fuel_abs="46.441004" electricity_abs="0"/>
    </tripinfo>
    <tripinfo id="carIn126288:1" depart="57674.00" departLane="272042143_1" departPos="5.10" departSpeed="0.00" departDelay="0.00" arrival="57800.00" arrivalLane="-315358254#1_1" arrivalPos="137.16" arrivalSpeed="13.14" duration="126.00" routeLength="1596.88" waitingTime="0.00" waitingCount="0" stopTime="0.00" timeLoss="13.73" rerouteNo="1" devices="tripinfo_carIn126288:1 routing_carIn126288:1 emissions_carIn126288:1" vType="default_016" speedFactor="1.04" vaporized="">
        <emissions CO_abs="3681.468557" CO2_abs="312492.009753" HC_abs="24.084839" PMx_abs="5.135912" NOx_abs="123.636279" fuel_abs="134.326743" electricity_abs="0"/>
    </tripinfo>
    <tripinfo id="randUni15030:1" depart="57735.00" departLane="386687232#0_1" departPos="5.10" departSpeed="0.00" departDelay="0.10" arrival="57826.00" arrivalLane="26677539_1" arrivalPos="151.98" arrivalSpeed="7.93" duration="91.00" routeLength="919.89" waitingTime="0.00" waitingCount="0" stopTime="0.00" timeLoss="11.83" rerouteNo="1" devices="tripinfo_randUni15030:1 routing_randUni15030:1 emissions_randUni15030:1" vType="random_016" speedFactor="1.05" vaporized="">
        <emissions CO_abs="3384.539137" CO2_abs="215650.477157" HC_abs="20.435968" PMx_abs="3.569454" NOx_abs="86.507430" fuel_abs="92.699353" electricity_abs="0"/>
    </tripinfo>
    <tripinfo id="carIn80064:1" depart="57603.00" departLane="128361109#1_1" departPos="5.10" departSpeed="0.00" departDelay="0.40" arrival="57828.00" arrivalLane="-315358254#1_1" arrivalPos="137.16" arrivalSpeed="13.13" duration="225.00" routeLength="1587.97" waitingTime="107.00" waitingCount="2" stopTime="0.00" timeLoss="136.17" rerouteNo="1" devices="tripinfo_carIn80064:1 routing_carIn80064:1 emissions_carIn80064:1" vType="default_016" speedFactor="1.01" vaporized="">
        <emissions CO_abs="22918.459933" CO2_abs="737280.949969" HC_abs="121.926306" PMx_abs="15.790839" NOx_abs="316.016969" fuel_abs="316.931570" electricity_abs="0"/>
    </tripinfo>
    <tripinfo id="carIn30817:1" depart="57681.00" departLane="315358244_1" departPos="5.10" departSpeed="0.00" departDelay="0.20" arrival="57833.00" arrivalLane="447569997#1_1" arrivalPos="180.93" arrivalSpeed="8.60" duration="152.00" routeLength="718.04" waitingTime="80.00" waitingCount="1" stopTime="0.00" timeLoss="95.57" rerouteNo="1" devices="tripinfo_carIn30817:1 routing_carIn30817:1 emissions_carIn30817:1" vType="default_016" speedFactor="1.09" vaporized="">
        <emissions CO_abs="15455.097231" CO2_abs="382622.371705" HC_abs="79.269019" PMx_abs="8.149661" NOx_abs="165.619657" fuel_abs="164.479022" electricity_abs="0"/>
    </tripinfo>
    <tripinfo id="h3154c1:1" depart="57658.00" departLane="24634507_1" departPos="5.10" departSpeed="0.00" departDelay="0.00" arrival="57837.00" arrivalLane="-266565295#5_1" arrivalPos="172.76" arrivalSpeed="15.15" duration="179.00" routeLength="1206.22" waitingTime="81.00" waitingCount="1" stopTime="0.00" timeLoss="97.41" rerouteNo="1" devices="tripinfo_h3154c1:1 routing_h3154c1:1 emissions_h3154c1:1" vType="default_016" speedFactor="1.09" vaporized="">
        <emissions CO_abs="16326.393966" CO2_abs="509926.867103" HC_abs="86.258133" PMx_abs="10.319742" NOx_abs="215.727539" fuel_abs="219.201117" electricity_abs="0"/>
    </tripinfo>
    <tripinfo id="50R_frequency3.17" depart="57674.00" departLane="-18809673#6_1" departPos="12.10" departSpeed="0.00" departDelay="0.70" arrival="57850.00" arrivalLane="201956811#0_1" arrivalPos="40.40" arrivalSpeed="11.86" duration="176.00" routeLength="1954.47" waitingTime="5.00" waitingCount="1" stopTime="0.00" timeLoss="31.40" rerouteNo="1" devices="tripinfo_50R_frequency3.17 routing_50R_frequency3.17 emissions_50R_frequency3.17" vType="bus" speedFactor="1.00" vaporized="">
        <emissions CO_abs="3559.128530" CO2_abs="2243282.558021" HC_abs="749.294114" PMx_abs="381.821070" NOx_abs="17370.700127" fuel_abs="956.739188" electricity_abs="0"/>
    </tripinfo>
    <tripinfo id="h12244c1:3" depart="57612.00" departLane="315358244_1" departPos="5.10" departSpeed="0.00" departDelay="0.40" arrival="57852.00" arrivalLane="386687235_1" arrivalPos="80.84" arrivalSpeed="15.71" duration="240.00" routeLength="1186.14" waitingTime="149.00" waitingCount="1" stopTime="0.00" timeLoss="163.50" rerouteNo="1" devices="tripinfo_h12244c1:3 routing_h12244c1:3 emissions_h12244c1:3" vType="default_016" speedFactor="1.14" vaporized="">
        <emissions CO_abs="26946.168675" CO2_abs="649659.998751" HC_abs="137.759351" PMx_abs="14.212180" NOx_abs="282.038072" fuel_abs="279.271458" electricity_abs="0"/>
    </tripinfo>
    <tripinfo id="h3864c1:3" depart="57678.00" departLane="24693977#1_1" departPos="5.10" departSpeed="0.00" departDelay="0.00" arrival="57860.00" arrivalLane="201956820_1" arrivalPos="48.33" arrivalSpeed="13.10" duration="182.00" routeLength="1574.85" waitingTime="24.00" waitingCount="2" stopTime="0.00" timeLoss="54.26" rerouteNo="1" devices="tripinfo_h3864c1:3 routing_h3864c1:3 emissions_h3864c1:3" vType="default_016" speedFactor="1.00" vaporized="">
        <emissions CO_abs="8749.276089" CO2_abs="452252.964786" HC_abs="50.412940" PMx_abs="8.000582" NOx_abs="185.012041" fuel_abs="194.405718" electricity_abs="0"/>
    </tripinfo>
    <tripinfo id="h16072c2:3" depart="57663.00" departLane="315358254#0_1" departPos="5.10" departSpeed="0.00" departDelay="2.50" arrival="57863.00" arrivalLane="386687235_2" arrivalPos="80.84" arrivalSpeed="14.46" duration="200.00" routeLength="1611.92" waitingTime="54.00" waitingCount="3" stopTime="0.00" timeLoss="92.16" rerouteNo="1" devices="tripinfo_h16072c2:3 routing_h16072c2:3 emissions_h16072c2:3" vType="default_016" speedFactor="1.09" vaporized="">
        <emissions CO_abs="13419.752426" CO2_abs="528602.184290" HC_abs="73.511500" PMx_abs="10.116397" NOx_abs="220.077552" fuel_abs="227.226913" electricity_abs="0"/>
    </tripinfo>
    <tripinfo id="h5216c1:1" depart="57664.00" departLane="224892339#0_1" departPos="5.10" departSpeed="0.00" departDelay="0.00" arrival="57864.00" arrivalLane="386687235_1" arrivalPos="80.84" arrivalSpeed="13.04" duration="200.00" routeLength="1823.78" waitingTime="37.00" waitingCount="3" stopTime="0.00" timeLoss="69.40" rerouteNo="1" devices="tripinfo_h5216c1:1 routing_h5216c1:1 emissions_h5216c1:1" vType="default_016" speedFactor="0.99" vaporized="">
        <emissions CO_abs="11150.116853" CO2_abs="536201.332754" HC_abs="63.354095" PMx_abs="9.783396" NOx_abs="219.915403" fuel_abs="230.492162" electricity_abs="0"/>
    </tripinfo>
    <tripinfo id="carIn23683:1" depart="57641.00" departLane="-306240162#1_0" departPos="5.10" departSpeed="0.00" departDelay="0.20" arrival="57871.00" arrivalLane="201956820_2" arrivalPos="48.33" arrivalSpeed="13.23" duration="230.00" routeLength="2993.47" waitingTime="1.00" waitingCount="1" stopTime="0.00" timeLoss="32.37" rerouteNo="1" devices="tripinfo_carIn23683:1 routing_carIn23683:1 emissions_carIn23683:1" vType="default_016" speedFactor="1.01" vaporized="">
        <emissions CO_abs="8332.711880" CO2_abs="688668.227905" HC_abs="54.031242" PMx_abs="11.808167" NOx_abs="274.105990" fuel_abs="296.028130" electricity_abs="0"/>
    </tripinfo>
    <tripinfo id="carIn96510:1" depart="57645.00" departLane="-306240162#1_0" departPos="5.10" departSpeed="0.00" departDelay="0.20" arrival="57872.00" arrivalLane="201956820_2" arrivalPos="48.33" arrivalSpeed="12.85" duration="227.00" routeLength="2993.47" waitingTime="0.00" waitingCount="0" stopTime="0.00" timeLoss="30.74" rerouteNo="1" devices="tripinfo_carIn96510:1 routing_carIn96510:1 emissions_carIn96510:1" vType="default_016" speedFactor="1.01" vaporized="">
        <emissions CO_abs="7512.015211" CO2_abs="639049.741270" HC_abs="49.235107" PMx_abs="10.954613" NOx_abs="254.200564" fuel_abs="274.699176" electricity_abs="0"/>
    </tripinfo>
    <tripinfo id="carIn73855:1" depart="57743.00" departLane="386687232#0_1" departPos="5.10" departSpeed="0.00" departDelay="0.50" arrival="57873.00" arrivalLane="-315358244_2" arrivalPos="33.95" arrivalSpeed="12.40" duration="130.00" routeLength="1157.39" waitingTime="25.00" waitingCount="1" stopTime="0.00" timeLoss="42.42" rerouteNo="1" devices="tripinfo_carIn73855:1 routing_carIn73855:1 emissions_carIn73855:1" vType="default_016" speedFactor="0.96" vaporized="">
        <emissions CO_abs="6889.151567" CO2_abs="306415.346592" HC_abs="38.523961" PMx_abs="5.454366" NOx_abs="125.070054" fuel_abs="131.716700" electricity_abs="0"/>
    </tripinfo>
    <tripinfo id="carIn129809:1" depart="57729.00" departLane="-447569998#1_1" departPos="5.10" departSpeed="0.00" departDelay="1.00" arrival="57874.00" arrivalLane="-315358244_1" arrivalPos="33.95" arrivalSpeed="11.69" duration="145.00" routeLength="706.49" waitingTime="59.00" waitingCount="1" stopTime="0.00" timeLoss="79.13" rerouteNo="1" devices="tripinfo_carIn129809:1 routing_carIn129809:1 emissions_carIn129809:1" vType="default_015" speedFactor="0.92" vaporized="">
        <emissions CO_abs="12025.600360" CO2_abs="312878.327026" HC_abs="62.066014" PMx_abs="6.460699" NOx_abs="134.587559" fuel_abs="134.497690" electricity_abs="0"/>
    </tripinfo>
    <tripinfo id="carIn8642:1" depart="57774.00" departLane="-447569998#1_1" departPos="5.10" departSpeed="0.00" departDelay="0.90" arrival="57875.00" arrivalLane="-315358244_2" arrivalPos="33.95" arrivalSpeed="11.65" duration="101.00" routeLength="706.49" waitingTime="21.00" waitingCount="2" stopTime="0.00" timeLoss="36.28" rerouteNo="1" devices="tripinfo_carIn8642:1 routing_carIn8642:1 emissions_carIn8642:1" vType="default_016" speedFactor="0.93" vaporized="">
        <emissions CO_abs="4987.751140" CO2_abs="211384.328262" HC_abs="27.624236" PMx_abs="3.729067" NOx_abs="86.673064" fuel_abs="90.866546" electricity_abs="0"/>
    </tripinfo>
    <tripinfo id="carIn126378:1" depart="57746.00" departLane="386687232#0_1" departPos="5.10" departSpeed="0.00" departDelay="1.80" arrival="57876.00" arrivalLane="-315358244_1" arrivalPos="33.95" arrivalSpeed="11.50" duration="130.00" routeLength="1157.39" waitingTime="21.00" waitingCount="1" stopTime="0.00" timeLoss="38.05" rerouteNo="1" devices="tripinfo_carIn126378:1 routing_carIn126378:1 emissions_carIn126378:1" vType="default_016" speedFactor="0.92" vaporized="">
        <emissions CO_abs="5836.195136" CO2_abs="281114.112504" HC_abs="33.101883" PMx_abs="4.734722" NOx_abs="112.974147" fuel_abs="120.840629" electricity_abs="0"/>
    </tripinfo>
    <tripinfo id="carIn70533:1" depart="57812.00" departLane="-447569998#1_1" departPos="5.10" departSpeed="0.00" departDelay="0.10" arrival="57877.00" arrivalLane="-315358244_2" arrivalPos="33.95" arrivalSpeed="16.29" duration="65.00" routeLength="706.49" waitingTime="0.00" waitingCount="0" stopTime="0.00" timeLoss="14.08" rerouteNo="1" devices="tripinfo_carIn70533:1 routing_carIn70533:1 emissions_carIn70533:1" vType="default_016" speedFactor="1.19" vaporized="">
        <emissions CO_abs="3128.837264" CO2_abs="196343.453416" HC_abs="18.840240" PMx_abs="3.510598" NOx_abs="80.168173" fuel_abs="84.399715" electricity_abs="0"/>
    </tripinfo>
    <tripinfo id="h17600c1:1" depart="57662.00" departLane="272042143_1" departPos="5.10" departSpeed="0.00" departDelay="0.30" arrival="57886.00" arrivalLane="201238729#3_1" arrivalPos="431.02" arrivalSpeed="11.43" duration="224.00" routeLength="2100.26" waitingTime="34.00" waitingCount="1" stopTime="0.00" timeLoss="53.86" rerouteNo="1" devices="tripinfo_h17600c1:1 routing_h17600c1:1 emissions_h17600c1:1" vType="default_016" speedFactor="0.89" vaporized="">
        <emissions CO_abs="9188.484197" CO2_abs="453227.240445" HC_abs="52.317318" PMx_abs="7.351945" NOx_abs="180.169284" fuel_abs="194.825997" electricity_abs="0"/>
    </tripinfo>
    <tripinfo id="h17549c1:1" depart="57680.00" departLane="-447569998#1_1" departPos="5.10" departSpeed="0.00" departDelay="0.00" arrival="57886.00" arrivalLane="-315358254#1_1" arrivalPos="137.16" arrivalSpeed="14.03" duration="206.00" routeLength="1746.60" waitingTime="47.00" waitingCount="4" stopTime="0.00" timeLoss="77.30" rerouteNo="1" devices="tripinfo_h17549c1:1 routing_h17549c1:1 emissions_h17549c1:1" vType="default_016" speedFactor="1.06" vaporized="">
        <emissions CO_abs="10503.378553" CO2_abs="475643.833619" HC_abs="58.867088" PMx_abs="8.640278" NOx_abs="194.851770" fuel_abs="204.461404" electricity_abs="0"/>
    </tripinfo>
    <tripinfo id="carIn53503:1" depart="57765.00" departLane="-306240162#1_0" departPos="5.10" departSpeed="0.00" departDelay="4.40" arrival="57888.00" arrivalLane="24634510#6_1" arrivalPos="76.64" arrivalSpeed="13.10" duration="123.00" routeLength="1440.47" waitingTime="5.00" waitingCount="1" stopTime="0.00" timeLoss="23.48" rerouteNo="1" devices="tripinfo_carIn53503:1 routing_carIn53503:1 emissions_carIn53503:1" vType="default_016" speedFactor="0.99" vaporized="">
        <emissions CO_abs="4233.267497" CO2_abs="319907.249495" HC_abs="26.734894" PMx_abs="5.443885" NOx_abs="127.911797" fuel_abs="137.514320" electricity_abs="0"/>
    </tripinfo>
    <tripinfo id="h7181c1:1" depart="57660.00" departLane="315358254#0_1" departPos="5.10" departSpeed="0.00" departDelay="0.10" arrival="57889.00" arrivalLane="306240162#0_0" arrivalPos="220.43" arrivalSpeed="16.63" duration="229.00" routeLength="932.35" waitingTime="156.00" waitingCount="2" stopTime="0.00" timeLoss="180.30" rerouteNo="1" devices="tripinfo_h7181c1:1 routing_h7181c1:1 emissions_h7181c1:1" vType="default_016" speedFactor="1.05" vaporized="">
        <emissions CO_abs="29793.830087" CO2_abs="731755.406189" HC_abs="153.043971" PMx_abs="16.732245" NOx_abs="322.850545" fuel_abs="314.560494" electricity_abs="0"/>
    </tripinfo>
    <tripinfo id="carIn12152:1" depart="57647.00" departLane="24599188#0.94_1" departPos="5.10" departSpeed="0.00" departDelay="0.50" arrival="57890.00" arrivalLane="-315358254#1_1" arrivalPos="137.16" arrivalSpeed="12.69" duration="243.00" routeLength="2034.31" waitingTime="49.00" waitingCount="1" stopTime="0.00" timeLoss="71.46" rerouteNo="1" devices="tripinfo_carIn12152:1 routing_carIn12152:1 emissions_carIn12152:1" vType="default_016" speedFactor="0.92" vaporized="">
        <emissions CO_abs="12634.659230" CO2_abs="533362.633870" HC_abs="69.876057" PMx_abs="9.049892" NOx_abs="215.062442" fuel_abs="229.274207" electricity_abs="0"/>
    </tripinfo>
    <tripinfo id="carIn77943:1" depart="57608.00" departLane="124812856#0_1" departPos="5.10" departSpeed="0.00" departDelay="2.50" arrival="57893.00" arrivalLane="-128361102#1_1" arrivalPos="274.68" arrivalSpeed="15.42" duration="285.00" routeLength="2232.46" waitingTime="109.00" waitingCount="3" stopTime="0.00" timeLoss="141.94" rerouteNo="1" devices="tripinfo_carIn77943:1 routing_carIn77943:1 emissions_carIn77943:1" vType="default_016" speedFactor="1.15" vaporized="">
        <emissions CO_abs="23179.087307" CO2_abs="806739.208645" HC_abs="124.201916" PMx_abs="16.132243" NOx_abs="339.350807" fuel_abs="346.789225" electricity_abs="0"/>
    </tripinfo>
    <tripinfo id="carIn107084:1" depart="57601.00" departLane="124812856#0_1" departPos="5.10" departSpeed="0.00" departDelay="0.70" arrival="57896.00" arrivalLane="-128361102#1_1" arrivalPos="274.68" arrivalSpeed="14.06" duration="295.00" routeLength="2250.49" waitingTime="111.00" waitingCount="2" stopTime="0.00" timeLoss="143.39" rerouteNo="1" devices="tripinfo_carIn107084:1 routing_carIn107084:1 emissions_carIn107084:1" vType="default_016" speedFactor="1.09" vaporized="">
        <emissions CO_abs="23520.339576" CO2_abs="793558.603758" HC_abs="125.565853" PMx_abs="15.738557" NOx_abs="333.466202" fuel_abs="341.124134" electricity_abs="0"/>
    </tripinfo>
    <tripinfo id="h15382c1:3" depart="57625.00" departLane="124812856#0_1" departPos="5.10" departSpeed="0.00" departDelay="2.80" arrival="57899.00" arrivalLane="-128361102#1_1" arrivalPos="274.68" arrivalSpeed="14.19" duration="274.00" routeLength="2250.49" waitingTime="76.00" waitingCount="3" stopTime="0.00" timeLoss="116.42" rerouteNo="1" devices="tripinfo_h15382c1:3 routing_h15382c1:3 emissions_h15382c1:3" vType="default_016" speedFactor="1.04" vaporized="">
        <emissions CO_abs="18812.685369" CO2_abs="740993.099671" HC_abs="103.027838" PMx_abs="14.196704" NOx_abs="308.567531" fuel_abs="318.526042" electricity_abs="0"/>
    </tripinfo>
    <tripinfo id="carIn48184:1" depart="57613.00" departLane="-306240162#1_0" departPos="5.10" departSpeed="0.00" departDelay="0.70" arrival="57902.00" arrivalLane="386687235_2" arrivalPos="80.84" arrivalSpeed="13.12" duration="289.00" routeLength="2257.41" waitingTime="99.00" waitingCount="3" stopTime="0.00" timeLoss="140.19" rerouteNo="1" devices="tripinfo_carIn48184:1 routing_carIn48184:1 emissions_carIn48184:1" vType="default_016" speedFactor="1.00" vaporized="">
        <emissions CO_abs="21729.902102" CO2_abs="795717.399217" HC_abs="117.743162" PMx_abs="16.021800" NOx_abs="335.955996" fuel_abs="342.050204" electricity_abs="0"/>
    </tripinfo>
    <tripinfo id="carIn82220:1" depart="57619.00" departLane="-306240162#1_0" departPos="5.10" departSpeed="0.00" departDelay="3.50" arrival="57903.00" arrivalLane="386687235_2" arrivalPos="80.84" arrivalSpeed="14.48" duration="284.00" routeLength="2257.41" waitingTime="95.00" waitingCount="3" stopTime="0.00" timeLoss="148.88" rerouteNo="1" devices="tripinfo_carIn82220:1 routing_carIn82220:1 emissions_carIn82220:1" vType="default_016" speedFactor="1.09" vaporized="">
        <emissions CO_abs="21443.453327" CO2_abs="817230.298880" HC_abs="117.022310" PMx_abs="16.520112" NOx_abs="345.521120" fuel_abs="351.296977" electricity_abs="0"/>
    </tripinfo>
    <tripinfo id="carIn85747:1" depart="57673.00" departLane="128361109#1_1" departPos="5.10" departSpeed="0.00" departDelay="0.70" arrival="57903.00" arrivalLane="386687235_1" arrivalPos="80.84" arrivalSpeed="15.76" duration="230.00" routeLength="2088.57" waitingTime="82.00" waitingCount="2" stopTime="0.00" timeLoss="105.16" rerouteNo="1" devices="tripinfo_carIn85747:1 routing_carIn85747:1 emissions_carIn85747:1" vType="default_016" speedFactor="1.21" vaporized="">
        <emissions CO_abs="16298.217016" CO2_abs="610214.478952" HC_abs="88.095426" PMx_abs="11.700415" NOx_abs="250.479864" fuel_abs="262.310033" electricity_abs="0"/>
    </tripinfo>
    <tripinfo id="h9953c2:3" depart="57682.00" departLane="-54169231#2_1" departPos="5.10" departSpeed="0.00" departDelay="0.00" arrival="57906.00" arrivalLane="386687235_1" arrivalPos="80.84" arrivalSpeed="12.58" duration="224.00" routeLength="1535.60" waitingTime="61.00" waitingCount="3" stopTime="0.00" timeLoss="89.74" rerouteNo="1" devices="tripinfo_h9953c2:3 routing_h9953c2:3 emissions_h9953c2:3" vType="default_016" speedFactor="0.94" vaporized="">