<?xml version="1.0" encoding="UTF-8"?>

<!-- generated on Thu Nov  4 13:16:18 2021 by Eclipse SUMO sumo Version 1.9.0
<configuration xmlns:xsi="http://www.w3.org/2001/XMLSchema-instance" xsi:noNamespaceSchemaLocation="http://sumo.dlr.de/xsd/sumoConfiguration.xsd">

    <input>
        <net-file value="/mainfs/home/bk2g18/RESCO/environments/ingolstadt21/ingolstadt21.net.xml"/>
        <route-files value="/mainfs/home/bk2g18/RESCO/environments/ingolstadt21/ingolstadt21.rou.xml"/>
    </input>

    <output>
        <tripinfo-output value="/mainfs/home/bk2g18/RESCO/logs/MPLight-tr0-ingolstadt21-21-mplight_full-pressure/tripinfo_3.xml"/>
        <tripinfo-output.write-unfinished value="true"/>
    </output>

    <time>
        <begin value="57600"/>
        <end value="61200"/>
    </time>

    <processing>
        <time-to-teleport value="-1"/>
    </processing>

    <report>
        <xml-validation value="never"/>
        <xml-validation.routes value="never"/>
        <no-warnings value="true"/>
        <no-step-log value="true"/>
    </report>

    <emissions>
        <device.emissions.probability value="1"/>
    </emissions>

    <traci_server>
        <remote-port value="42893"/>
    </traci_server>

    <random_number>
        <random value="true"/>
    </random_number>

</configuration>
-->

<tripinfos xmlns:xsi="http://www.w3.org/2001/XMLSchema-instance" xsi:noNamespaceSchemaLocation="http://sumo.dlr.de/xsd/tripinfo_file.xsd">
    <tripinfo id="h15454c2:3" depart="57612.00" departLane="24608844_1" departPos="5.10" departSpeed="0.00" departDelay="0.50" arrival="57658.00" arrivalLane="32978638#0_1" arrivalPos="49.29" arrivalSpeed="12.95" duration="46.00" routeLength="354.79" waitingTime="0.00" waitingCount="0" stopTime="0.00" timeLoss="11.42" rerouteNo="1" devices="tripinfo_h15454c2:3 routing_h15454c2:3 emissions_h15454c2:3" vType="default_016" speedFactor="1.01" vaporized="">
        <emissions CO_abs="2404.145280" CO2_abs="121217.755593" HC_abs="13.781120" PMx_abs="2.176255" NOx_abs="50.242977" fuel_abs="52.106689" electricity_abs="0"/>
    </tripinfo>
    <tripinfo id="carIn60260:1" depart="57606.00" departLane="315358254#0_1" departPos="5.10" departSpeed="0.00" departDelay="0.90" arrival="57677.00" arrivalLane="399835085#1_1" arrivalPos="212.23" arrivalSpeed="7.34" duration="71.00" routeLength="430.98" waitingTime="10.00" waitingCount="1" stopTime="0.00" timeLoss="20.36" rerouteNo="1" devices="tripinfo_carIn60260:1 routing_carIn60260:1 emissions_carIn60260:1" vType="default_016" speedFactor="0.91" vaporized="">
        <emissions CO_abs="3610.900959" CO2_abs="137544.837304" HC_abs="19.617507" PMx_abs="2.419563" NOx_abs="56.929861" fuel_abs="59.125859" electricity_abs="0"/>
    </tripinfo>
    <tripinfo id="carIn53971:1" depart="57640.00" departLane="272042143_1" departPos="5.10" departSpeed="0.00" departDelay="0.80" arrival="57691.00" arrivalLane="24634414#1_1" arrivalPos="162.19" arrivalSpeed="8.76" duration="51.00" routeLength="493.04" waitingTime="0.00" waitingCount="0" stopTime="0.00" timeLoss="8.25" rerouteNo="1" devices="tripinfo_carIn53971:1 routing_carIn53971:1 emissions_carIn53971:1" vType="default_016" speedFactor="1.07" vaporized="">
        <emissions CO_abs="2228.052449" CO2_abs="136111.491612" HC_abs="13.312178" PMx_abs="2.329627" NOx_abs="55.263296" fuel_abs="58.508725" electricity_abs="0"/>
    </tripinfo>
    <tripinfo id="h7800c1:5" depart="57696.00" departLane="-447569998#1_1" departPos="5.10" departSpeed="0.00" departDelay="0.00" arrival="57719.00" arrivalLane="-447569998#1_2" arrivalPos="180.76" arrivalSpeed="8.34" duration="23.00" routeLength="175.66" waitingTime="0.00" waitingCount="0" stopTime="0.00" timeLoss="3.22" rerouteNo="1" devices="tripinfo_h7800c1:5 routing_h7800c1:5 emissions_h7800c1:5" vType="default_016" speedFactor="1.10" vaporized="">
        <emissions CO_abs="1105.662340" CO2_abs="53056.690838" HC_abs="6.258804" PMx_abs="0.884984" NOx_abs="21.655862" fuel_abs="22.807098" electricity_abs="0"/>
    </tripinfo>
    <tripinfo id="carIn22761:1" depart="57616.00" departLane="-306240162#1_0" departPos="5.10" departSpeed="0.00" departDelay="2.10" arrival="57730.00" arrivalLane="399835085#1_1" arrivalPos="212.23" arrivalSpeed="7.23" duration="114.00" routeLength="1093.26" waitingTime="17.00" waitingCount="1" stopTime="0.00" timeLoss="35.88" rerouteNo="1" devices="tripinfo_carIn22761:1 routing_carIn22761:1 emissions_carIn22761:1" vType="default_016" speedFactor="1.00" vaporized="">
        <emissions CO_abs="6684.822623" CO2_abs="319754.756854" HC_abs="38.020921" PMx_abs="6.269175" NOx_abs="133.668568" fuel_abs="137.449565" electricity_abs="0"/>
    </tripinfo>
    <tripinfo id="h3688c1:1" depart="57625.00" departLane="201201950#1_1" departPos="5.10" departSpeed="0.00" departDelay="0.00" arrival="57735.00" arrivalLane="32978638#0_1" arrivalPos="49.29" arrivalSpeed="12.78" duration="110.00" routeLength="1089.75" waitingTime="8.00" waitingCount="1" stopTime="0.00" timeLoss="26.54" rerouteNo="1" devices="tripinfo_h3688c1:1 routing_h3688c1:1 emissions_h3688c1:1" vType="default_016" speedFactor="0.96" vaporized="">
        <emissions CO_abs="4864.393192" CO2_abs="282512.373144" HC_abs="28.778621" PMx_abs="5.005317" NOx_abs="115.456929" fuel_abs="121.440422" electricity_abs="0"/>
    </tripinfo>
    <tripinfo id="h3568c1:3" depart="57656.00" departLane="266565295#5_1" departPos="5.10" departSpeed="0.00" departDelay="0.80" arrival="57737.00" arrivalLane="-24634415_1" arrivalPos="62.03" arrivalSpeed="12.57" duration="81.00" routeLength="807.40" waitingTime="0.00" waitingCount="0" stopTime="0.00" timeLoss="11.65" rerouteNo="1" devices="tripinfo_h3568c1:3 routing_h3568c1:3 emissions_h3568c1:3" vType="default_016" speedFactor="0.94" vaporized="">
        <emissions CO_abs="3381.522047" CO2_abs="220222.679426" HC_abs="20.532679" PMx_abs="3.658736" NOx_abs="88.495056" fuel_abs="94.664665" electricity_abs="0"/>
    </tripinfo>
    <tripinfo id="h5979c1:5" depart="57669.00" departLane="399835085#1_1" departPos="5.10" departSpeed="0.00" departDelay="0.00" arrival="57750.00" arrivalLane="-315358254#1_1" arrivalPos="137.16" arrivalSpeed="15.30" duration="81.00" routeLength="659.33" waitingTime="2.00" waitingCount="1" stopTime="0.00" timeLoss="16.96" rerouteNo="1" devices="tripinfo_h5979c1:5 routing_h5979c1:5 emissions_h5979c1:5" vType="default_016" speedFactor="1.14" vaporized="">
        <emissions CO_abs="3419.519766" CO2_abs="181516.368930" HC_abs="19.795848" PMx_abs="3.119026" NOx_abs="74.134238" fuel_abs="78.026743" electricity_abs="0"/>
    </tripinfo>
    <tripinfo id="carIn30817:1" depart="57681.00" departLane="315358244_1" departPos="5.10" departSpeed="0.00" departDelay="0.20" arrival="57751.00" arrivalLane="447569997#1_1" arrivalPos="180.93" arrivalSpeed="8.87" duration="70.00" routeLength="718.04" waitingTime="0.00" waitingCount="0" stopTime="0.00" timeLoss="12.24" rerouteNo="1" devices="tripinfo_carIn30817:1 routing_carIn30817:1 emissions_carIn30817:1" vType="default_016" speedFactor="1.08" vaporized="">
        <emissions CO_abs="2948.394638" CO2_abs="183443.201117" HC_abs="17.697038" PMx_abs="3.148096" NOx_abs="74.305932" fuel_abs="78.854642" electricity_abs="0"/>
    </tripinfo>
    <tripinfo id="h12244c1:3" depart="57612.00" departLane="315358244_1" departPos="5.10" departSpeed="0.00" departDelay="0.40" arrival="57766.00" arrivalLane="386687235_1" arrivalPos="80.84" arrivalSpeed="13.76" duration="154.00" routeLength="1186.14" waitingTime="54.00" waitingCount="2" stopTime="0.00" timeLoss="73.53" rerouteNo="1" devices="tripinfo_h12244c1:3 routing_h12244c1:3 emissions_h12244c1:3" vType="default_016" speedFactor="1.08" vaporized="">
        <emissions CO_abs="11112.461215" CO2_abs="401289.631267" HC_abs="59.898706" PMx_abs="7.753699" NOx_abs="167.137572" fuel_abs="172.500563" electricity_abs="0"/>
    </tripinfo>
    <tripinfo id="h4538c1:1" depart="57701.00" departLane="-10427692#1_1" departPos="5.10" departSpeed="0.00" departDelay="0.00" arrival="57766.00" arrivalLane="-128361102#1_1" arrivalPos="274.68" arrivalSpeed="13.33" duration="65.00" routeLength="440.74" waitingTime="23.00" waitingCount="1" stopTime="0.00" timeLoss="32.80" rerouteNo="1" devices="tripinfo_h4538c1:1 routing_h4538c1:1 emissions_h4538c1:1" vType="default_016" speedFactor="0.98" vaporized="">
        <emissions CO_abs="4843.912380" CO2_abs="163635.221534" HC_abs="25.887533" PMx_abs="3.167614" NOx_abs="68.657094" fuel_abs="70.341355" electricity_abs="0"/>
    </tripinfo>
    <tripinfo id="carIn27009:1" depart="57673.00" departLane="-447569998#1_1" departPos="5.10" departSpeed="0.00" departDelay="0.50" arrival="57770.00" arrivalLane="-26677539_1" arrivalPos="152.75" arrivalSpeed="7.38" duration="97.00" routeLength="699.63" waitingTime="0.00" waitingCount="0" stopTime="0.00" timeLoss="10.67" rerouteNo="1" devices="tripinfo_carIn27009:1 routing_carIn27009:1 emissions_carIn27009:1" vType="default_015" speedFactor="0.97" vaporized="">
        <emissions CO_abs="3657.791319" CO2_abs="170004.318015" HC_abs="20.541834" PMx_abs="2.676860" NOx_abs="68.512500" fuel_abs="73.078860" electricity_abs="0"/>
    </tripinfo>
    <tripinfo id="S5R_frequency1.2" depart="57616.00" departLane="315358250#0_1" departPos="12.10" departSpeed="0.00" departDelay="4.40" arrival="57771.00" arrivalLane="386687235_1" arrivalPos="80.84" arrivalSpeed="13.69" duration="155.00" routeLength="1115.62" waitingTime="44.00" waitingCount="2" stopTime="0.00" timeLoss="73.57" rerouteNo="1" devices="tripinfo_S5R_frequency1.2 routing_S5R_frequency1.2 emissions_S5R_frequency1.2" vType="bus" speedFactor="1.00" vaporized="">
        <emissions CO_abs="3299.960862" CO2_abs="1782095.593955" HC_abs="719.771812" PMx_abs="347.748137" NOx_abs="14593.275337" fuel_abs="759.955619" electricity_abs="0"/>
    </tripinfo>
    <tripinfo id="h3326c1:2" depart="57656.00" departLane="22716069#0_1" departPos="5.10" departSpeed="0.00" departDelay="0.00" arrival="57774.00" arrivalLane="24634517#13_1" arrivalPos="111.62" arrivalSpeed="12.58" duration="118.00" routeLength="1312.81" waitingTime="0.00" waitingCount="0" stopTime="0.00" timeLoss="14.80" rerouteNo="1" devices="tripinfo_h3326c1:2 routing_h3326c1:2 emissions_h3326c1:2" vType="default_016" speedFactor="0.94" vaporized="">
        <emissions CO_abs="4087.498538" CO2_abs="300270.523713" HC_abs="25.633255" PMx_abs="4.999290" NOx_abs="120.339531" fuel_abs="129.073514" electricity_abs="0"/>
    </tripinfo>
    <tripinfo id="h317c2:1" depart="57707.00" departLane="-32978638#0_1" departPos="5.10" departSpeed="0.00" departDelay="0.10" arrival="57777.00" arrivalLane="-266565295#5_1" arrivalPos="172.76" arrivalSpeed="12.91" duration="70.00" routeLength="370.53" waitingTime="31.00" waitingCount="1" stopTime="0.00" timeLoss="40.48" rerouteNo="1" devices="tripinfo_h317c2:1 routing_h317c2:1 emissions_h317c2:1" vType="default_016" speedFactor="0.96" vaporized="">
        <emissions CO_abs="6379.399422" CO2_abs="183796.380076" HC_abs="33.361672" PMx_abs="3.805948" NOx_abs="79.015056" fuel_abs="79.008361" electricity_abs="0"/>
    </tripinfo>
    <tripinfo id="h330c1:1" depart="57736.00" departLane="-32978638#0_1" departPos="5.10" departSpeed="0.00" departDelay="0.20" arrival="57780.00" arrivalLane="-266565295#5_1" arrivalPos="172.76" arrivalSpeed="12.02" duration="44.00" routeLength="370.53" waitingTime="3.00" waitingCount="1" stopTime="0.00" timeLoss="13.43" rerouteNo="1" devices="tripinfo_h330c1:1 routing_h330c1:1 emissions_h330c1:1" vType="default_016" speedFactor="0.89" vaporized="">
        <emissions CO_abs="2301.861893" CO2_abs="122311.948393" HC_abs="13.344425" PMx_abs="2.176613" NOx_abs="50.346864" fuel_abs="52.576986" electricity_abs="0"/>
    </tripinfo>
    <tripinfo id="carIn12365:1" depart="57713.00" departLane="315358244_1" departPos="5.10" departSpeed="0.00" departDelay="0.50" arrival="57788.00" arrivalLane="447569997#1_1" arrivalPos="180.93" arrivalSpeed="7.40" duration="75.00" routeLength="718.04" waitingTime="0.00" waitingCount="0" stopTime="0.00" timeLoss="8.69" rerouteNo="1" devices="tripinfo_carIn12365:1 routing_carIn12365:1 emissions_carIn12365:1" vType="default_016" speedFactor="0.93" vaporized="">
        <emissions CO_abs="2729.930560" CO2_abs="165279.595937" HC_abs="16.239459" PMx_abs="2.559150" NOx_abs="65.420401" fuel_abs="71.047322" electricity_abs="0"/>
    </tripinfo>
    <tripinfo id="carIn86816:1" depart="57617.00" departLane="128361102#0_1" departPos="5.10" departSpeed="0.00" departDelay="0.80" arrival="57798.00" arrivalLane="201956811#0_1" arrivalPos="40.40" arrivalSpeed="13.30" duration="181.00" routeLength="2067.33" waitingTime="2.00" waitingCount="1" stopTime="0.00" timeLoss="28.48" rerouteNo="1" devices="tripinfo_carIn86816:1 routing_carIn86816:1 emissions_carIn86816:1" vType="default_016" speedFactor="0.99" vaporized="">
        <emissions CO_abs="6031.326897" CO2_abs="477936.002554" HC_abs="38.603622" PMx_abs="7.672566" NOx_abs="188.568613" fuel_abs="205.444484" electricity_abs="0"/>
    </tripinfo>
    <tripinfo id="h9563c2:5" depart="57631.00" departLane="315358244_1" departPos="5.10" departSpeed="0.00" departDelay="0.70" arrival="57798.00" arrivalLane="386687235_1" arrivalPos="80.84" arrivalSpeed="11.64" duration="167.00" routeLength="1186.14" waitingTime="49.00" waitingCount="3" stopTime="0.00" timeLoss="74.11" rerouteNo="1" devices="tripinfo_h9563c2:5 routing_h9563c2:5 emissions_h9563c2:5" vType="default_016" speedFactor="0.93" vaporized="">
        <emissions CO_abs="11091.417700" CO2_abs="385436.249798" HC_abs="59.517979" PMx_abs="7.378882" NOx_abs="161.444890" fuel_abs="165.686087" electricity_abs="0"/>
    </tripinfo>
    <tripinfo id="carIn121703:1" depart="57647.00" departLane="386687232#0_1" departPos="5.10" departSpeed="0.00" departDelay="0.30" arrival="57810.00" arrivalLane="-315358244_1" arrivalPos="33.95" arrivalSpeed="17.49" duration="163.00" routeLength="1157.39" waitingTime="75.00" waitingCount="2" stopTime="0.00" timeLoss="96.79" rerouteNo="1" devices="tripinfo_carIn121703:1 routing_carIn121703:1 emissions_carIn121703:1" vType="default_016" speedFactor="1.28" vaporized="">
        <emissions CO_abs="15270.167160" CO2_abs="491311.596704" HC_abs="80.948712" PMx_abs="10.293275" NOx_abs="209.526935" fuel_abs="211.198115" electricity_abs="0"/>
    </tripinfo>
    <tripinfo id="carIn28951:1" depart="57606.00" departLane="10425609#0_1" departPos="5.10" departSpeed="0.00" departDelay="0.20" arrival="57815.00" arrivalLane="-128361102#1_1" arrivalPos="274.68" arrivalSpeed="14.16" duration="209.00" routeLength="2113.04" waitingTime="31.00" waitingCount="2" stopTime="0.00" timeLoss="59.75" rerouteNo="1" devices="tripinfo_carIn28951:1 routing_carIn28951:1 emissions_carIn28951:1" vType="default_016" speedFactor="1.04" vaporized="">
        <emissions CO_abs="9305.063261" CO2_abs="543150.430833" HC_abs="55.048457" PMx_abs="9.602544" NOx_abs="220.357818" fuel_abs="233.478107" electricity_abs="0"/>
    </tripinfo>
    <tripinfo id="h20540c1:1" depart="57634.00" departLane="10425609#0_1" departPos="5.10" departSpeed="0.00" departDelay="0.50" arrival="57817.00" arrivalLane="-128361102#1_1" arrivalPos="274.68" arrivalSpeed="14.34" duration="183.00" routeLength="2113.04" waitingTime="9.00" waitingCount="1" stopTime="0.00" timeLoss="34.04" rerouteNo="1" devices="tripinfo_h20540c1:1 routing_h20540c1:1 emissions_h20540c1:1" vType="default_016" speedFactor="1.04" vaporized="">
        <emissions CO_abs="6251.419092" CO2_abs="494408.618571" HC_abs="40.029249" PMx_abs="8.342131" NOx_abs="197.311272" fuel_abs="212.524787" electricity_abs="0"/>
    </tripinfo>
    <tripinfo id="carIn77943:1" depart="57608.00" departLane="124812856#0_1" departPos="5.10" departSpeed="0.00" departDelay="2.50" arrival="57818.00" arrivalLane="-128361102#1_1" arrivalPos="274.68" arrivalSpeed="15.66" duration="210.00" routeLength="2250.49" waitingTime="18.00" waitingCount="3" stopTime="0.00" timeLoss="64.50" rerouteNo="1" devices="tripinfo_carIn77943:1 routing_carIn77943:1 emissions_carIn77943:1" vType="default_016" speedFactor="1.13" vaporized="">
        <emissions CO_abs="9344.306350" CO2_abs="615736.100201" HC_abs="57.016527" PMx_abs="11.270165" NOx_abs="252.434950" fuel_abs="264.678075" electricity_abs="0"/>
    </tripinfo>
    <tripinfo id="h3154c1:1" depart="57658.00" departLane="24634507_1" departPos="5.10" departSpeed="0.00" departDelay="0.00" arrival="57819.00" arrivalLane="-266565295#5_1" arrivalPos="172.76" arrivalSpeed="11.96" duration="161.00" routeLength="1206.22" waitingTime="41.00" waitingCount="2" stopTime="0.00" timeLoss="63.53" rerouteNo="1" devices="tripinfo_h3154c1:1 routing_h3154c1:1 emissions_h3154c1:1" vType="default_016" speedFactor="0.91" vaporized="">
        <emissions CO_abs="10131.852030" CO2_abs="404515.165679" HC_abs="55.576719" PMx_abs="7.407195" NOx_abs="167.204549" fuel_abs="173.886701" electricity_abs="0"/>
    </tripinfo>
    <tripinfo id="carIn118591:1" depart="57689.00" departLane="315358244_1" departPos="5.10" departSpeed="0.00" departDelay="0.20" arrival="57819.00" arrivalLane="386687235_1" arrivalPos="80.84" arrivalSpeed="10.55" duration="130.00" routeLength="1186.14" waitingTime="13.00" waitingCount="1" stopTime="0.00" timeLoss="26.33" rerouteNo="1" devices="tripinfo_carIn118591:1 routing_carIn118591:1 emissions_carIn118591:1" vType="default_016" speedFactor="0.84" vaporized="">
        <emissions CO_abs="4917.865396" CO2_abs="268824.062494" HC_abs="28.596603" PMx_abs="4.262672" NOx_abs="106.816993" fuel_abs="115.557374" electricity_abs="0"/>
    </tripinfo>
    <tripinfo id="h645c1:1" depart="57622.00" departLane="266565295#5_1" departPos="5.10" departSpeed="0.00" departDelay="0.40" arrival="57820.00" arrivalLane="-315358244_1" arrivalPos="33.95" arrivalSpeed="12.12" duration="198.00" routeLength="1910.83" waitingTime="26.00" waitingCount="2" stopTime="0.00" timeLoss="46.61" rerouteNo="1" devices="tripinfo_h645c1:1 routing_h645c1:1 emissions_h645c1:1" vType="default_016" speedFactor="0.92" vaporized="">
        <emissions CO_abs="7404.040408" CO2_abs="415117.829926" HC_abs="43.370865" PMx_abs="6.881163" NOx_abs="165.931420" fuel_abs="178.443053" electricity_abs="0"/>
    </tripinfo>
    <tripinfo id="h11737c1:1" depart="57665.00" departLane="272042143_1" departPos="5.10" departSpeed="0.00" departDelay="1.50" arrival="57820.00" arrivalLane="-315358254#1_1" arrivalPos="137.16" arrivalSpeed="11.63" duration="155.00" routeLength="1596.88" waitingTime="10.00" waitingCount="1" stopTime="0.00" timeLoss="26.40" rerouteNo="1" devices="tripinfo_h11737c1:1 routing_h11737c1:1 emissions_h11737c1:1" vType="default_016" speedFactor="0.91" vaporized="">
        <emissions CO_abs="5377.572618" CO2_abs="346254.155163" HC_abs="32.510077" PMx_abs="5.453416" NOx_abs="136.591412" fuel_abs="148.840981" electricity_abs="0"/>
    </tripinfo>
    <tripinfo id="carIn126288:1" depart="57674.00" departLane="272042143_1" departPos="5.10" departSpeed="0.00" departDelay="0.00" arrival="57822.00" arrivalLane="-315358254#1_1" arrivalPos="137.16" arrivalSpeed="14.63" duration="148.00" routeLength="1596.88" waitingTime="8.00" waitingCount="1" stopTime="0.00" timeLoss="39.56" rerouteNo="1" devices="tripinfo_carIn126288:1 routing_carIn126288:1 emissions_carIn126288:1" vType="default_016" speedFactor="1.08" vaporized="">
        <emissions CO_abs="5298.033168" CO2_abs="387852.121688" HC_abs="33.218670" PMx_abs="6.544958" NOx_abs="155.474226" fuel_abs="166.721051" electricity_abs="0"/>
    </tripinfo>
    <tripinfo id="carIn50326:1" depart="57651.00" departLane="128361102#0_1" departPos="5.10" departSpeed="0.00" departDelay="0.30" arrival="57829.00" arrivalLane="18809673#0_1" arrivalPos="473.56" arrivalSpeed="14.18" duration="178.00" routeLength="1591.07" waitingTime="37.00" waitingCount="1" stopTime="0.00" timeLoss="60.63" rerouteNo="1" devices="tripinfo_carIn50326:1 routing_carIn50326:1 emissions_carIn50326:1" vType="default_016" speedFactor="1.11" vaporized="">
        <emissions CO_abs="10183.051555" CO2_abs="442217.328282" HC_abs="56.660621" PMx_abs="8.285629" NOx_abs="183.172345" fuel_abs="190.092537" electricity_abs="0"/>
    </tripinfo>
    <tripinfo id="h7181c1:1" depart="57660.00" departLane="315358254#0_1" departPos="5.10" departSpeed="0.00" departDelay="0.10" arrival="57835.00" arrivalLane="306240162#0_0" arrivalPos="220.43" arrivalSpeed="12.29" duration="175.00" routeLength="932.35" waitingTime="92.00" waitingCount="2" stopTime="0.00" timeLoss="110.58" rerouteNo="1" devices="tripinfo_h7181c1:1 routing_h7181c1:1 emissions_h7181c1:1" vType="default_016" speedFactor="0.80" vaporized="">
        <emissions CO_abs="17904.632136" CO2_abs="483361.895824" HC_abs="92.887850" PMx_abs="10.294724" NOx_abs="208.635388" fuel_abs="207.782910" electricity_abs="0"/>
    </tripinfo>
    <tripinfo id="carIn107282:1" depart="57749.00" departLane="-447569998#1_1" departPos="5.10" departSpeed="0.00" departDelay="0.00" arrival="57840.00" arrivalLane="315358242#0_1" arrivalPos="165.37" arrivalSpeed="11.30" duration="91.00" routeLength="448.50" waitingTime="32.00" waitingCount="1" stopTime="0.00" timeLoss="40.65" rerouteNo="1" devices="tripinfo_carIn107282:1 routing_carIn107282:1 emissions_carIn107282:1" vType="default_016" speedFactor="0.83" vaporized="">
        <emissions CO_abs="6884.633491" CO2_abs="186561.986022" HC_abs="35.669314" PMx_abs="3.634402" NOx_abs="79.095619" fuel_abs="80.197871" electricity_abs="0"/>
    </tripinfo>
    <tripinfo id="randUni15030:1" depart="57735.00" departLane="386687232#0_1" departPos="5.10" departSpeed="0.00" departDelay="0.10" arrival="57845.00" arrivalLane="26677539_1" arrivalPos="151.98" arrivalSpeed="8.53" duration="110.00" routeLength="919.89" waitingTime="16.00" waitingCount="1" stopTime="0.00" timeLoss="31.48" rerouteNo="1" devices="tripinfo_randUni15030:1 routing_randUni15030:1 emissions_randUni15030:1" vType="random_016" speedFactor="1.06" vaporized="">
        <emissions CO_abs="5961.521479" CO2_abs="275563.381458" HC_abs="33.568737" PMx_abs="4.856642" NOx_abs="112.667860" fuel_abs="118.454395" electricity_abs="0"/>
    </tripinfo>
    <tripinfo id="50R_frequency3.17" depart="57674.00" departLane="-18809673#6_1" departPos="12.10" departSpeed="0.00" departDelay="0.70" arrival="57846.00" arrivalLane="201956811#0_1" arrivalPos="40.40" arrivalSpeed="10.64" duration="172.00" routeLength="1954.47" waitingTime="3.00" waitingCount="1" stopTime="0.00" timeLoss="27.34" rerouteNo="1" devices="tripinfo_50R_frequency3.17 routing_50R_frequency3.17 emissions_50R_frequency3.17" vType="bus" speedFactor="1.00" vaporized="">
        <emissions CO_abs="3200.876035" CO2_abs="2013138.709847" HC_abs="682.089429" PMx_abs="343.801543" NOx_abs="15590.424126" fuel_abs="858.591937" electricity_abs="0"/>
    </tripinfo>
    <tripinfo id="carIn82278:1" depart="57702.00" departLane="-306240162#1_0" departPos="5.10" departSpeed="0.00" departDelay="0.70" arrival="57849.00" arrivalLane="399835085#1_1" arrivalPos="212.23" arrivalSpeed="9.33" duration="147.00" routeLength="1093.26" waitingTime="36.00" waitingCount="3" stopTime="0.00" timeLoss="80.21" rerouteNo="1" devices="tripinfo_carIn82278:1 routing_carIn82278:1 emissions_carIn82278:1" vType="default_016" speedFactor="1.17" vaporized="">
        <emissions CO_abs="10740.093790" CO2_abs="464994.248227" HC_abs="60.009509" PMx_abs="9.588028" NOx_abs="198.029848" fuel_abs="199.882210" electricity_abs="0"/>
    </tripinfo>
    <tripinfo id="carIn129809:1" depart="57729.00" departLane="-447569998#1_1" departPos="5.10" departSpeed="0.00" departDelay="1.00" arrival="57852.00" arrivalLane="-315358244_1" arrivalPos="33.95" arrivalSpeed="14.75" duration="123.00" routeLength="706.49" waitingTime="58.00" waitingCount="1" stopTime="0.00" timeLoss="67.05" rerouteNo="1" devices="tripinfo_carIn129809:1 routing_carIn129809:1 emissions_carIn129809:1" vType="default_015" speedFactor="1.09" vaporized="">
        <emissions CO_abs="11212.798121" CO2_abs="305515.803177" HC_abs="58.155947" PMx_abs="6.284096" NOx_abs="130.319746" fuel_abs="131.332417" electricity_abs="0"/>
    </tripinfo>
    <tripinfo id="h11868c1:5" depart="57700.00" departLane="315358254#0_1" departPos="5.10" departSpeed="0.00" departDelay="0.10" arrival="57853.00" arrivalLane="386687235_2" arrivalPos="80.84" arrivalSpeed="13.51" duration="153.00" routeLength="1611.92" waitingTime="7.00" waitingCount="1" stopTime="0.00" timeLoss="35.16" rerouteNo="1" devices="tripinfo_h11868c1:5 routing_h11868c1:5 emissions_h11868c1:5" vType="default_016" speedFactor="1.00" vaporized="">
        <emissions CO_abs="5550.803386" CO2_abs="385059.422041" HC_abs="34.224389" PMx_abs="6.317006" NOx_abs="152.911369" fuel_abs="165.521135" electricity_abs="0"/>
    </tripinfo>
    <tripinfo id="h16072c2:3" depart="57663.00" departLane="315358254#0_1" departPos="5.10" departSpeed="0.00" departDelay="2.50" arrival="57854.00" arrivalLane="386687235_1" arrivalPos="80.84" arrivalSpeed="11.45" duration="191.00" routeLength="1611.92" waitingTime="32.00" waitingCount="3" stopTime="0.00" timeLoss="60.98" rerouteNo="1" devices="tripinfo_h16072c2:3 routing_h16072c2:3 emissions_h16072c2:3" vType="default_016" speedFactor="0.90" vaporized="">
        <emissions CO_abs="8853.612053" CO2_abs="436573.879166" HC_abs="50.449651" PMx_abs="7.333268" NOx_abs="175.589105" fuel_abs="187.666895" electricity_abs="0"/>
    </tripinfo>
    <tripinfo id="h9953c2:3" depart="57682.00" departLane="-54169231#2_1" departPos="5.10" departSpeed="0.00" departDelay="0.00" arrival="57857.00" arrivalLane="386687235_1" arrivalPos="80.84" arrivalSpeed="12.24" duration="175.00" routeLength="1535.60" waitingTime="11.00" waitingCount="2" stopTime="0.00" timeLoss="40.43" rerouteNo="1" devices="tripinfo_h9953c2:3 routing_h9953c2:3 emissions_h9953c2:3" vType="default_016" speedFactor="0.94" vaporized="">
        <emissions CO_abs="7858.390202" CO2_abs="421218.286031" HC_abs="45.609438" PMx_abs="7.299668" NOx_abs="171.935307" fuel_abs="181.065056" electricity_abs="0"/>
    </tripinfo>
    <tripinfo id="carIn12858:1" depart="57661.00" departLane="128361109#1_1" departPos="5.10" departSpeed="0.00" departDelay="0.90" arrival="57859.00" arrivalLane="399835085#1_1" arrivalPos="212.23" arrivalSpeed="7.03" duration="198.00" routeLength="1738.12" waitingTime="42.00" waitingCount="3" stopTime="0.00" timeLoss="77.26" rerouteNo="1" devices="tripinfo_carIn12858:1 routing_carIn12858:1 emissions_carIn12858:1" vType="default_016" speedFactor="0.95" vaporized="">
        <emissions CO_abs="12537.746277" CO2_abs="571918.447860" HC_abs="70.567601" PMx_abs="11.170004" NOx_abs="238.571541" fuel_abs="245.845056" electricity_abs="0"/>
    </tripinfo>
    <tripinfo id="carIn46110:1" depart="57684.00" departLane="315358244_1" departPos="5.10" departSpeed="0.00" departDelay="1.20" arrival="57860.00" arrivalLane="32978638#0_1" arrivalPos="49.29" arrivalSpeed="13.98" duration="176.00" routeLength="1764.04" waitingTime="30.00" waitingCount="2" stopTime="0.00" timeLoss="52.26" rerouteNo="1" devices="tripinfo_carIn46110:1 routing_carIn46110:1 emissions_carIn46110:1" vType="default_016" speedFactor="1.04" vaporized="">
        <emissions CO_abs="7952.251932" CO2_abs="437060.597076" HC_abs="46.371417" PMx_abs="7.566325" NOx_abs="175.702925" fuel_abs="187.875138" electricity_abs="0"/>
    </tripinfo>
    <tripinfo id="carIn80064:1" depart="57603.00" departLane="128361109#1_1" departPos="5.10" departSpeed="0.00" departDelay="0.40" arrival="57863.00" arrivalLane="-315358254#1_1" arrivalPos="137.16" arrivalSpeed="13.13" duration="260.00" routeLength="1587.97" waitingTime="109.00" waitingCount="6" stopTime="0.00" timeLoss="166.00" rerouteNo="1" devices="tripinfo_carIn80064:1 routing_carIn80064:1 emissions_carIn80064:1" vType="default_016" speedFactor="0.95" vaporized="">
        <emissions CO_abs="21261.246149" CO2_abs="707448.794145" HC_abs="113.578932" PMx_abs="14.915204" NOx_abs="303.136957" fuel_abs="304.107338" electricity_abs="0"/>
    </tripinfo>
    <tripinfo id="h6541c1:3" depart="57727.00" departLane="201950247#3_1" departPos="5.10" departSpeed="0.00" departDelay="0.00" arrival="57864.00" arrivalLane="32978638#0_1" arrivalPos="49.29" arrivalSpeed="13.00" duration="137.00" routeLength="1176.17" waitingTime="14.00" waitingCount="1" stopTime="0.00" timeLoss="31.46" rerouteNo="1" devices="tripinfo_h6541c1:3 routing_h6541c1:3 emissions_h6541c1:3" vType="default_016" speedFactor="0.97" vaporized="">
        <emissions CO_abs="5994.071622" CO2_abs="314152.433084" HC_abs="34.603907" PMx_abs="5.350723" NOx_abs="127.401315" fuel_abs="135.041967" electricity_abs="0"/>
    </tripinfo>
    <tripinfo id="carIn8642:1" depart="57774.00" departLane="-447569998#1_1" departPos="5.10" departSpeed="0.00" departDelay="0.90" arrival="57864.00" arrivalLane="-315358244_1" arrivalPos="33.95" arrivalSpeed="12.32" duration="90.00" routeLength="706.49" waitingTime="13.00" waitingCount="1" stopTime="0.00" timeLoss="24.32" rerouteNo="1" devices="tripinfo_carIn8642:1 routing_carIn8642:1 emissions_carIn8642:1" vType="default_016" speedFactor="0.92" vaporized="">
        <emissions CO_abs="4113.463720" CO2_abs="185742.933223" HC_abs="23.024299" PMx_abs="3.101266" NOx_abs="74.850675" fuel_abs="79.844285" electricity_abs="0"/>
    </tripinfo>
    <tripinfo id="randUni31145:1" depart="57814.00" departLane="10425609#0_1" departPos="5.10" departSpeed="0.00" departDelay="0.30" arrival="57872.00" arrivalLane="201956810_1" arrivalPos="71.65" arrivalSpeed="10.81" duration="58.00" routeLength="255.78" waitingTime="27.00" waitingCount="1" stopTime="0.00" timeLoss="34.91" rerouteNo="1" devices="tripinfo_randUni31145:1 routing_randUni31145:1 emissions_randUni31145:1" vType="random_016" speedFactor="0.85" vaporized="">