<?xml version="1.0" encoding="UTF-8"?>

<!-- generated on Thu Nov  4 14:10:01 2021 by Eclipse SUMO sumo Version 1.9.0
<configuration xmlns:xsi="http://www.w3.org/2001/XMLSchema-instance" xsi:noNamespaceSchemaLocation="http://sumo.dlr.de/xsd/sumoConfiguration.xsd">

    <input>
        <net-file value="/mainfs/home/bk2g18/RESCO/environments/ingolstadt21/ingolstadt21.net.xml"/>
        <route-files value="/mainfs/home/bk2g18/RESCO/environments/ingolstadt21/ingolstadt21.rou.xml"/>
    </input>

    <output>
        <tripinfo-output value="/mainfs/home/bk2g18/RESCO/logs/MPLight-tr0-ingolstadt21-21-mplight_full-pressure/tripinfo_75.xml"/>
        <tripinfo-output.write-unfinished value="true"/>
    </output>

    <time>
        <begin value="57600"/>
        <end value="61200"/>
    </time>

    <processing>
        <time-to-teleport value="-1"/>
    </processing>

    <report>
        <xml-validation value="never"/>
        <xml-validation.routes value="never"/>
        <no-warnings value="true"/>
        <no-step-log value="true"/>
    </report>

    <emissions>
        <device.emissions.probability value="1"/>
    </emissions>

    <traci_server>
        <remote-port value="32831"/>
    </traci_server>

    <random_number>
        <random value="true"/>
    </random_number>

</configuration>
-->

<tripinfos xmlns:xsi="http://www.w3.org/2001/XMLSchema-instance" xsi:noNamespaceSchemaLocation="http://sumo.dlr.de/xsd/tripinfo_file.xsd">
    <tripinfo id="h15454c2:3" depart="57612.00" departLane="24608844_1" departPos="5.10" departSpeed="0.00" departDelay="0.50" arrival="57651.00" arrivalLane="32978638#0_1" arrivalPos="49.29" arrivalSpeed="15.71" duration="39.00" routeLength="354.79" waitingTime="0.00" waitingCount="0" stopTime="0.00" timeLoss="8.51" rerouteNo="1" devices="tripinfo_h15454c2:3 routing_h15454c2:3 emissions_h15454c2:3" vType="default_016" speedFactor="1.14" vaporized="">
        <emissions CO_abs="2363.471287" CO2_abs="130741.929385" HC_abs="13.835106" PMx_abs="2.434989" NOx_abs="54.581572" fuel_abs="56.200439" electricity_abs="0"/>
    </tripinfo>
    <tripinfo id="carIn53971:1" depart="57640.00" departLane="272042143_1" departPos="5.10" departSpeed="0.00" departDelay="0.80" arrival="57691.00" arrivalLane="24634414#1_1" arrivalPos="162.19" arrivalSpeed="8.52" duration="51.00" routeLength="493.04" waitingTime="0.00" waitingCount="0" stopTime="0.00" timeLoss="8.41" rerouteNo="1" devices="tripinfo_carIn53971:1 routing_carIn53971:1 emissions_carIn53971:1" vType="default_016" speedFactor="1.07" vaporized="">
        <emissions CO_abs="2550.822328" CO2_abs="150332.653754" HC_abs="15.136677" PMx_abs="2.638520" NOx_abs="61.556458" fuel_abs="64.621787" electricity_abs="0"/>
    </tripinfo>
    <tripinfo id="h7800c1:5" depart="57696.00" departLane="-447569998#1_1" departPos="5.10" departSpeed="0.00" departDelay="0.00" arrival="57720.00" arrivalLane="-447569998#1_1" arrivalPos="180.76" arrivalSpeed="8.51" duration="24.00" routeLength="175.66" waitingTime="0.00" waitingCount="0" stopTime="0.00" timeLoss="3.51" rerouteNo="1" devices="tripinfo_h7800c1:5 routing_h7800c1:5 emissions_h7800c1:5" vType="default_016" speedFactor="1.04" vaporized="">
        <emissions CO_abs="1077.014774" CO2_abs="46676.906586" HC_abs="5.978340" PMx_abs="0.783430" NOx_abs="19.120587" fuel_abs="20.064744" electricity_abs="0"/>
    </tripinfo>
    <tripinfo id="h3568c1:3" depart="57656.00" departLane="266565295#5_1" departPos="5.10" departSpeed="0.00" departDelay="0.80" arrival="57736.00" arrivalLane="-24634415_1" arrivalPos="62.03" arrivalSpeed="12.38" duration="80.00" routeLength="807.40" waitingTime="0.00" waitingCount="0" stopTime="0.00" timeLoss="12.24" rerouteNo="1" devices="tripinfo_h3568c1:3 routing_h3568c1:3 emissions_h3568c1:3" vType="default_016" speedFactor="0.94" vaporized="">
        <emissions CO_abs="3114.787245" CO2_abs="197874.529379" HC_abs="18.801912" PMx_abs="3.337630" NOx_abs="80.000606" fuel_abs="85.058087" electricity_abs="0"/>
    </tripinfo>
    <tripinfo id="carIn60260:1" depart="57606.00" departLane="315358254#0_1" departPos="5.10" departSpeed="0.00" departDelay="0.90" arrival="57743.00" arrivalLane="399835085#1_1" arrivalPos="212.23" arrivalSpeed="6.26" duration="137.00" routeLength="430.98" waitingTime="69.00" waitingCount="1" stopTime="0.00" timeLoss="80.36" rerouteNo="1" devices="tripinfo_carIn60260:1 routing_carIn60260:1 emissions_carIn60260:1" vType="default_016" speedFactor="0.81" vaporized="">
        <emissions CO_abs="13597.336610" CO2_abs="289717.241756" HC_abs="68.665931" PMx_abs="6.332652" NOx_abs="127.436319" fuel_abs="124.542898" electricity_abs="0"/>
    </tripinfo>
    <tripinfo id="h5979c1:5" depart="57669.00" departLane="399835085#1_1" departPos="5.10" departSpeed="0.00" departDelay="0.00" arrival="57745.00" arrivalLane="-315358254#1_1" arrivalPos="137.16" arrivalSpeed="14.69" duration="76.00" routeLength="659.33" waitingTime="0.00" waitingCount="0" stopTime="0.00" timeLoss="11.55" rerouteNo="1" devices="tripinfo_h5979c1:5 routing_h5979c1:5 emissions_h5979c1:5" vType="default_016" speedFactor="1.14" vaporized="">
        <emissions CO_abs="3070.399365" CO2_abs="174915.045050" HC_abs="17.983984" PMx_abs="2.772399" NOx_abs="69.868332" fuel_abs="75.189259" electricity_abs="0"/>
    </tripinfo>
    <tripinfo id="h4538c1:1" depart="57701.00" departLane="-10427692#1_1" departPos="5.10" departSpeed="0.00" departDelay="0.00" arrival="57755.00" arrivalLane="-128361102#1_1" arrivalPos="274.68" arrivalSpeed="13.65" duration="54.00" routeLength="440.74" waitingTime="12.00" waitingCount="1" stopTime="0.00" timeLoss="22.93" rerouteNo="1" devices="tripinfo_h4538c1:1 routing_h4538c1:1 emissions_h4538c1:1" vType="default_016" speedFactor="1.02" vaporized="">
        <emissions CO_abs="2964.519209" CO2_abs="133958.890266" HC_abs="16.620412" PMx_abs="2.444210" NOx_abs="55.100168" fuel_abs="57.583867" electricity_abs="0"/>
    </tripinfo>
    <tripinfo id="h3326c1:2" depart="57656.00" departLane="22716069#0_1" departPos="5.10" departSpeed="0.00" departDelay="0.00" arrival="57765.00" arrivalLane="24634517#13_1" arrivalPos="111.62" arrivalSpeed="13.40" duration="109.00" routeLength="1312.81" waitingTime="0.00" waitingCount="0" stopTime="0.00" timeLoss="14.78" rerouteNo="1" devices="tripinfo_h3326c1:2 routing_h3326c1:2 emissions_h3326c1:2" vType="default_016" speedFactor="1.04" vaporized="">
        <emissions CO_abs="3912.224086" CO2_abs="301982.664346" HC_abs="24.806385" PMx_abs="5.179888" NOx_abs="121.417064" fuel_abs="129.809128" electricity_abs="0"/>
    </tripinfo>
    <tripinfo id="h7181c1:1" depart="57660.00" departLane="315358254#0_1" departPos="5.10" departSpeed="0.00" departDelay="0.10" arrival="57780.00" arrivalLane="306240162#0_0" arrivalPos="220.43" arrivalSpeed="18.03" duration="120.00" routeLength="932.35" waitingTime="46.00" waitingCount="3" stopTime="0.00" timeLoss="73.13" rerouteNo="1" devices="tripinfo_h7181c1:1 routing_h7181c1:1 emissions_h7181c1:1" vType="default_016" speedFactor="1.10" vaporized="">
        <emissions CO_abs="11777.412033" CO2_abs="458150.642240" HC_abs="64.468539" PMx_abs="9.788258" NOx_abs="196.360419" fuel_abs="196.940995" electricity_abs="0"/>
    </tripinfo>
    <tripinfo id="carIn27009:1" depart="57673.00" departLane="-447569998#1_1" departPos="5.10" departSpeed="0.00" departDelay="0.50" arrival="57785.00" arrivalLane="-26677539_1" arrivalPos="152.75" arrivalSpeed="6.92" duration="112.00" routeLength="699.63" waitingTime="0.00" waitingCount="0" stopTime="0.00" timeLoss="12.92" rerouteNo="1" devices="tripinfo_carIn27009:1 routing_carIn27009:1 emissions_carIn27009:1" vType="default_015" speedFactor="0.85" vaporized="">
        <emissions CO_abs="4750.129910" CO2_abs="188879.429140" HC_abs="25.929279" PMx_abs="3.008165" NOx_abs="76.575519" fuel_abs="81.193115" electricity_abs="0"/>
    </tripinfo>
    <tripinfo id="carIn107282:1" depart="57749.00" departLane="-447569998#1_1" departPos="5.10" departSpeed="0.00" departDelay="0.00" arrival="57799.00" arrivalLane="315358242#0_1" arrivalPos="165.37" arrivalSpeed="12.86" duration="50.00" routeLength="448.50" waitingTime="0.00" waitingCount="0" stopTime="0.00" timeLoss="5.17" rerouteNo="1" devices="tripinfo_carIn107282:1 routing_carIn107282:1 emissions_carIn107282:1" vType="default_016" speedFactor="0.93" vaporized="">
        <emissions CO_abs="2026.077989" CO2_abs="111340.429871" HC_abs="11.790190" PMx_abs="1.760165" NOx_abs="44.473528" fuel_abs="47.861043" electricity_abs="0"/>
    </tripinfo>
    <tripinfo id="h11737c1:1" depart="57665.00" departLane="272042143_1" departPos="5.10" departSpeed="0.00" departDelay="1.50" arrival="57806.00" arrivalLane="-315358254#1_1" arrivalPos="137.16" arrivalSpeed="12.65" duration="141.00" routeLength="1596.88" waitingTime="0.00" waitingCount="0" stopTime="0.00" timeLoss="14.05" rerouteNo="1" devices="tripinfo_h11737c1:1 routing_h11737c1:1 emissions_h11737c1:1" vType="default_016" speedFactor="0.92" vaporized="">
        <emissions CO_abs="3572.290235" CO2_abs="283763.321019" HC_abs="22.862934" PMx_abs="4.443648" NOx_abs="111.733584" fuel_abs="121.977970" electricity_abs="0"/>
    </tripinfo>
    <tripinfo id="carIn126288:1" depart="57674.00" departLane="272042143_1" departPos="5.10" departSpeed="0.00" departDelay="0.00" arrival="57811.00" arrivalLane="-315358254#1_1" arrivalPos="137.16" arrivalSpeed="13.02" duration="137.00" routeLength="1596.88" waitingTime="0.00" waitingCount="0" stopTime="0.00" timeLoss="13.69" rerouteNo="1" devices="tripinfo_carIn126288:1 routing_carIn126288:1 emissions_carIn126288:1" vType="default_016" speedFactor="0.95" vaporized="">
        <emissions CO_abs="3871.374661" CO2_abs="325880.430629" HC_abs="25.213985" PMx_abs="5.081818" NOx_abs="127.706407" fuel_abs="140.082236" electricity_abs="0"/>
    </tripinfo>
    <tripinfo id="carIn107084:1" depart="57601.00" departLane="124812856#0_1" departPos="5.10" departSpeed="0.00" departDelay="0.70" arrival="57846.00" arrivalLane="-128361102#1_1" arrivalPos="274.68" arrivalSpeed="14.11" duration="245.00" routeLength="2250.49" waitingTime="55.00" waitingCount="2" stopTime="0.00" timeLoss="85.08" rerouteNo="1" devices="tripinfo_carIn107084:1 routing_carIn107084:1 emissions_carIn107084:1" vType="default_016" speedFactor="1.03" vaporized="">
        <emissions CO_abs="14082.655499" CO2_abs="618041.387284" HC_abs="78.476805" PMx_abs="11.206259" NOx_abs="252.692687" fuel_abs="265.673204" electricity_abs="0"/>
    </tripinfo>
    <tripinfo id="h317c2:1" depart="57707.00" departLane="-32978638#0_1" departPos="5.10" departSpeed="0.00" departDelay="0.10" arrival="57846.00" arrivalLane="-266565295#5_1" arrivalPos="172.76" arrivalSpeed="12.30" duration="139.00" routeLength="370.53" waitingTime="101.00" waitingCount="1" stopTime="0.00" timeLoss="109.81" rerouteNo="1" devices="tripinfo_h317c2:1 routing_h317c2:1 emissions_h317c2:1" vType="default_016" speedFactor="0.96" vaporized="">
        <emissions CO_abs="17866.803500" CO2_abs="367350.040630" HC_abs="89.967071" PMx_abs="8.373241" NOx_abs="162.852108" fuel_abs="157.915593" electricity_abs="0"/>
    </tripinfo>
    <tripinfo id="randUni15030:1" depart="57735.00" departLane="386687232#0_1" departPos="5.10" departSpeed="0.00" departDelay="0.10" arrival="57847.00" arrivalLane="26677539_1" arrivalPos="151.98" arrivalSpeed="7.01" duration="112.00" routeLength="919.89" waitingTime="0.00" waitingCount="0" stopTime="0.00" timeLoss="13.59" rerouteNo="1" devices="tripinfo_randUni15030:1 routing_randUni15030:1 emissions_randUni15030:1" vType="random_016" speedFactor="0.85" vaporized="">
        <emissions CO_abs="3602.983036" CO2_abs="200847.617352" HC_abs="21.003392" PMx_abs="3.017982" NOx_abs="79.214599" fuel_abs="86.336995" electricity_abs="0"/>
    </tripinfo>
    <tripinfo id="h330c1:1" depart="57736.00" departLane="-32978638#0_1" departPos="5.10" departSpeed="0.00" departDelay="0.20" arrival="57847.00" arrivalLane="-266565295#5_1" arrivalPos="172.76" arrivalSpeed="14.23" duration="111.00" routeLength="370.53" waitingTime="74.00" waitingCount="1" stopTime="0.00" timeLoss="89.04" rerouteNo="1" devices="tripinfo_h330c1:1 routing_h330c1:1 emissions_h330c1:1" vType="default_016" speedFactor="1.24" vaporized="">
        <emissions CO_abs="13925.629055" CO2_abs="320287.532519" HC_abs="70.956613" PMx_abs="7.190140" NOx_abs="141.236459" fuel_abs="137.683231" electricity_abs="0"/>
    </tripinfo>
    <tripinfo id="carIn77943:1" depart="57608.00" departLane="124812856#0_1" departPos="5.10" departSpeed="0.00" departDelay="2.50" arrival="57849.00" arrivalLane="-128361102#1_1" arrivalPos="274.68" arrivalSpeed="12.32" duration="241.00" routeLength="2250.49" waitingTime="43.00" waitingCount="2" stopTime="0.00" timeLoss="72.41" rerouteNo="1" devices="tripinfo_carIn77943:1 routing_carIn77943:1 emissions_carIn77943:1" vType="default_016" speedFactor="0.97" vaporized="">
        <emissions CO_abs="12301.963553" CO2_abs="598475.375427" HC_abs="69.957237" PMx_abs="10.447186" NOx_abs="242.445435" fuel_abs="257.261950" electricity_abs="0"/>
    </tripinfo>
    <tripinfo id="carIn81046:1" depart="57611.00" departLane="124812856#0_1" departPos="5.10" departSpeed="0.00" departDelay="2.50" arrival="57851.00" arrivalLane="-128361102#1_1" arrivalPos="274.68" arrivalSpeed="14.49" duration="240.00" routeLength="2250.49" waitingTime="40.00" waitingCount="2" stopTime="0.00" timeLoss="92.85" rerouteNo="1" devices="tripinfo_carIn81046:1 routing_carIn81046:1 emissions_carIn81046:1" vType="default_016" speedFactor="1.12" vaporized="">
        <emissions CO_abs="13094.488053" CO2_abs="637689.217851" HC_abs="74.601186" PMx_abs="11.685771" NOx_abs="262.353115" fuel_abs="274.117599" electricity_abs="0"/>
    </tripinfo>
    <tripinfo id="carIn129809:1" depart="57729.00" departLane="-447569998#1_1" departPos="5.10" departSpeed="0.00" departDelay="1.00" arrival="57873.00" arrivalLane="-315358244_1" arrivalPos="33.95" arrivalSpeed="15.60" duration="144.00" routeLength="706.49" waitingTime="78.00" waitingCount="1" stopTime="0.00" timeLoss="90.69" rerouteNo="1" devices="tripinfo_carIn129809:1 routing_carIn129809:1 emissions_carIn129809:1" vType="default_015" speedFactor="1.15" vaporized="">
        <emissions CO_abs="15117.569290" CO2_abs="381677.842895" HC_abs="77.759600" PMx_abs="8.122577" NOx_abs="164.715189" fuel_abs="164.072802" electricity_abs="0"/>
    </tripinfo>
    <tripinfo id="carIn126378:1" depart="57746.00" departLane="386687232#0_1" departPos="5.10" departSpeed="0.00" departDelay="1.80" arrival="57873.00" arrivalLane="-315358244_2" arrivalPos="33.95" arrivalSpeed="14.58" duration="127.00" routeLength="1157.39" waitingTime="26.00" waitingCount="2" stopTime="0.00" timeLoss="48.49" rerouteNo="1" devices="tripinfo_carIn126378:1 routing_carIn126378:1 emissions_carIn126378:1" vType="default_016" speedFactor="1.08" vaporized="">
        <emissions CO_abs="7048.049032" CO2_abs="337092.960152" HC_abs="39.892308" PMx_abs="6.208769" NOx_abs="138.464257" fuel_abs="144.903131" electricity_abs="0"/>
    </tripinfo>
    <tripinfo id="carIn53503:1" depart="57764.00" departLane="-306240162#1_0" departPos="5.10" departSpeed="0.00" departDelay="3.40" arrival="57874.00" arrivalLane="24634510#6_1" arrivalPos="76.64" arrivalSpeed="13.38" duration="110.00" routeLength="1440.47" waitingTime="0.00" waitingCount="0" stopTime="0.00" timeLoss="14.16" rerouteNo="1" devices="tripinfo_carIn53503:1 routing_carIn53503:1 emissions_carIn53503:1" vType="default_016" speedFactor="1.03" vaporized="">
        <emissions CO_abs="3490.285834" CO2_abs="297561.625302" HC_abs="22.719398" PMx_abs="4.896332" NOx_abs="117.151209" fuel_abs="127.908832" electricity_abs="0"/>
    </tripinfo>
    <tripinfo id="carIn73855:1" depart="57743.00" departLane="386687232#0_1" departPos="5.10" departSpeed="0.00" departDelay="0.50" arrival="57875.00" arrivalLane="-315358244_1" arrivalPos="33.95" arrivalSpeed="13.35" duration="132.00" routeLength="1157.39" waitingTime="27.00" waitingCount="2" stopTime="0.00" timeLoss="49.03" rerouteNo="1" devices="tripinfo_carIn73855:1 routing_carIn73855:1 emissions_carIn73855:1" vType="default_016" speedFactor="1.02" vaporized="">
        <emissions CO_abs="6993.075099" CO2_abs="329558.724444" HC_abs="39.489672" PMx_abs="5.891052" NOx_abs="134.367062" fuel_abs="141.664813" electricity_abs="0"/>
    </tripinfo>
    <tripinfo id="carIn121703:1" depart="57647.00" departLane="386687232#0_1" departPos="5.10" departSpeed="0.00" departDelay="0.30" arrival="57877.00" arrivalLane="-315358244_2" arrivalPos="33.95" arrivalSpeed="10.35" duration="230.00" routeLength="1157.39" waitingTime="105.00" waitingCount="2" stopTime="0.00" timeLoss="125.05" rerouteNo="1" devices="tripinfo_carIn121703:1 routing_carIn121703:1 emissions_carIn121703:1" vType="default_016" speedFactor="0.81" vaporized="">
        <emissions CO_abs="20075.277645" CO2_abs="526682.482835" HC_abs="103.657789" PMx_abs="10.540308" NOx_abs="224.152217" fuel_abs="226.406544" electricity_abs="0"/>
    </tripinfo>
    <tripinfo id="carIn8642:1" depart="57774.00" departLane="-447569998#1_1" departPos="5.10" departSpeed="0.00" departDelay="0.90" arrival="57878.00" arrivalLane="-315358244_1" arrivalPos="33.95" arrivalSpeed="11.24" duration="104.00" routeLength="706.49" waitingTime="16.00" waitingCount="1" stopTime="0.00" timeLoss="30.04" rerouteNo="1" devices="tripinfo_carIn8642:1 routing_carIn8642:1 emissions_carIn8642:1" vType="default_016" speedFactor="0.81" vaporized="">
        <emissions CO_abs="5532.346111" CO2_abs="210964.345318" HC_abs="30.077456" PMx_abs="3.756849" NOx_abs="87.168914" fuel_abs="90.686385" electricity_abs="0"/>
    </tripinfo>
    <tripinfo id="carIn70533:1" depart="57812.00" departLane="-447569998#1_1" departPos="5.10" departSpeed="0.00" departDelay="0.10" arrival="57878.00" arrivalLane="-315358244_2" arrivalPos="33.95" arrivalSpeed="12.62" duration="66.00" routeLength="706.49" waitingTime="0.00" waitingCount="0" stopTime="0.00" timeLoss="10.29" rerouteNo="1" devices="tripinfo_carIn70533:1 routing_carIn70533:1 emissions_carIn70533:1" vType="default_016" speedFactor="1.08" vaporized="">
        <emissions CO_abs="2530.249063" CO2_abs="165046.833768" HC_abs="15.319808" PMx_abs="2.795364" NOx_abs="66.542407" fuel_abs="70.946756" electricity_abs="0"/>
    </tripinfo>
    <tripinfo id="carIn13443:1" depart="57729.00" departLane="272042143_1" departPos="5.10" departSpeed="0.00" departDelay="0.80" arrival="57887.00" arrivalLane="399835085#1_1" arrivalPos="212.23" arrivalSpeed="7.31" duration="158.00" routeLength="1757.45" waitingTime="0.00" waitingCount="0" stopTime="0.00" timeLoss="15.66" rerouteNo="1" devices="tripinfo_carIn13443:1 routing_carIn13443:1 emissions_carIn13443:1" vType="default_016" speedFactor="0.99" vaporized="">
        <emissions CO_abs="4392.905096" CO2_abs="344019.793295" HC_abs="27.987595" PMx_abs="5.314620" NOx_abs="134.545116" fuel_abs="147.879914" electricity_abs="0"/>
    </tripinfo>
    <tripinfo id="carIn14532:1" depart="57743.00" departLane="272042143_1" departPos="5.10" departSpeed="0.00" departDelay="1.90" arrival="57889.00" arrivalLane="399835085#1_1" arrivalPos="212.23" arrivalSpeed="8.94" duration="146.00" routeLength="1757.45" waitingTime="0.00" waitingCount="0" stopTime="0.00" timeLoss="23.84" rerouteNo="1" devices="tripinfo_carIn14532:1 routing_carIn14532:1 emissions_carIn14532:1" vType="default_016" speedFactor="1.16" vaporized="">
        <emissions CO_abs="4903.707658" CO2_abs="371937.611460" HC_abs="30.978248" PMx_abs="6.336542" NOx_abs="148.930542" fuel_abs="159.879879" electricity_abs="0"/>
    </tripinfo>
    <tripinfo id="carIn24709:1" depart="57753.00" departLane="266565295#5_1" departPos="5.10" departSpeed="0.00" departDelay="2.50" arrival="57891.00" arrivalLane="-24634506#2_1" arrivalPos="71.32" arrivalSpeed="13.53" duration="138.00" routeLength="1534.27" waitingTime="0.00" waitingCount="0" stopTime="0.00" timeLoss="20.16" rerouteNo="1" devices="tripinfo_carIn24709:1 routing_carIn24709:1 emissions_carIn24709:1" vType="default_016" speedFactor="0.97" vaporized="">
        <emissions CO_abs="5081.696344" CO2_abs="366937.183453" HC_abs="31.711812" PMx_abs="6.144106" NOx_abs="147.231081" fuel_abs="157.730696" electricity_abs="0"/>
    </tripinfo>
    <tripinfo id="randUni23028:1" depart="57884.00" departLane="124812856#0_1" departPos="5.10" departSpeed="0.00" departDelay="0.10" arrival="57901.00" arrivalLane="201956810_1" arrivalPos="71.65" arrivalSpeed="11.17" duration="17.00" routeLength="134.91" waitingTime="0.00" waitingCount="0" stopTime="0.00" timeLoss="4.23" rerouteNo="1" devices="tripinfo_randUni23028:1 routing_randUni23028:1 emissions_randUni23028:1" vType="random_016" speedFactor="0.89" vaporized="">
        <emissions CO_abs="1214.634769" CO2_abs="61992.586338" HC_abs="6.984408" PMx_abs="1.136245" NOx_abs="25.888350" fuel_abs="26.648093" electricity_abs="0"/>
    </tripinfo>
    <tripinfo id="carIn12858:1" depart="57661.00" departLane="128361109#1_1" departPos="5.10" departSpeed="0.00" departDelay="0.90" arrival="57903.00" arrivalLane="399835085#1_1" arrivalPos="212.23" arrivalSpeed="7.03" duration="242.00" routeLength="1738.12" waitingTime="87.00" waitingCount="1" stopTime="0.00" timeLoss="114.96" rerouteNo="1" devices="tripinfo_carIn12858:1 routing_carIn12858:1 emissions_carIn12858:1" vType="default_016" speedFactor="0.90" vaporized="">
        <emissions CO_abs="20022.194509" CO2_abs="647796.755025" HC_abs="106.409715" PMx_abs="13.290689" NOx_abs="275.205341" fuel_abs="278.466055" electricity_abs="0"/>
    </tripinfo>
    <tripinfo id="h13377c2:3" depart="57804.00" departLane="315358244_1" departPos="5.10" departSpeed="0.00" departDelay="0.60" arrival="57904.00" arrivalLane="447569997#1_1" arrivalPos="180.93" arrivalSpeed="7.05" duration="100.00" routeLength="726.74" waitingTime="6.00" waitingCount="3" stopTime="0.00" timeLoss="26.52" rerouteNo="1" devices="tripinfo_h13377c2:3 routing_h13377c2:3 emissions_h13377c2:3" vType="default_016" speedFactor="0.92" vaporized="">
        <emissions CO_abs="4046.701050" CO2_abs="183114.274529" HC_abs="22.653994" PMx_abs="3.076038" NOx_abs="74.534130" fuel_abs="78.714218" electricity_abs="0"/>
    </tripinfo>
    <tripinfo id="carIn30817:1" depart="57681.00" departLane="315358244_1" departPos="5.10" departSpeed="0.00" departDelay="0.20" arrival="57920.00" arrivalLane="447569997#1_1" arrivalPos="180.93" arrivalSpeed="8.93" duration="239.00" routeLength="718.04" waitingTime="169.00" waitingCount="1" stopTime="0.00" timeLoss="182.55" rerouteNo="1" devices="tripinfo_carIn30817:1 routing_carIn30817:1 emissions_carIn30817:1" vType="default_016" speedFactor="1.10" vaporized="">
        <emissions CO_abs="29650.355788" CO2_abs="595112.970364" HC_abs="148.956392" PMx_abs="13.671492" NOx_abs="264.408689" fuel_abs="255.826249" electricity_abs="0"/>
    </tripinfo>
    <tripinfo id="carIn63848:1" depart="57841.00" departLane="-447569998#1_1" departPos="5.10" departSpeed="0.00" departDelay="0.80" arrival="57923.00" arrivalLane="-315358244_2" arrivalPos="33.95" arrivalSpeed="13.83" duration="82.00" routeLength="706.49" waitingTime="9.00" waitingCount="1" stopTime="0.00" timeLoss="21.34" rerouteNo="1" devices="tripinfo_carIn63848:1 routing_carIn63848:1 emissions_carIn63848:1" vType="default_016" speedFactor="1.00" vaporized="">
        <emissions CO_abs="3176.013254" CO2_abs="184063.085477" HC_abs="18.745032" PMx_abs="3.080264" NOx_abs="74.155749" fuel_abs="79.121404" electricity_abs="0"/>
    </tripinfo>
    <tripinfo id="carIn13353:1" depart="57838.00" departLane="-447569998#1_1" departPos="5.10" departSpeed="0.00" departDelay="0.30" arrival="57924.00" arrivalLane="-315358244_1" arrivalPos="33.95" arrivalSpeed="15.06" duration="86.00" routeLength="706.49" waitingTime="20.00" waitingCount="1" stopTime="0.00" timeLoss="31.35" rerouteNo="1" devices="tripinfo_carIn13353:1 routing_carIn13353:1 emissions_carIn13353:1" vType="default_016" speedFactor="1.11" vaporized="">
        <emissions CO_abs="4939.016730" CO2_abs="214764.552636" HC_abs="27.466830" PMx_abs="3.914116" NOx_abs="88.232894" fuel_abs="92.319338" electricity_abs="0"/>
    </tripinfo>
    <tripinfo id="h8222c1:5" depart="57839.00" departLane="266565295#5_1" departPos="5.10" departSpeed="0.00" departDelay="0.90" arrival="57953.00" arrivalLane="-201238724_1" arrivalPos="217.34" arrivalSpeed="14.82" duration="114.00" routeLength="1538.58" waitingTime="0.00" waitingCount="0" stopTime="0.00" timeLoss="12.56" rerouteNo="1" devices="tripinfo_h8222c1:5 routing_h8222c1:5 emissions_h8222c1:5" vType="default_016" speedFactor="1.12" vaporized="">
        <emissions CO_abs="3512.134036" CO2_abs="314945.122859" HC_abs="23.186231" PMx_abs="5.162744" NOx_abs="123.496906" fuel_abs="135.381149" electricity_abs="0"/>
    </tripinfo>
    <tripinfo id="carIn12365:1" depart="57713.00" departLane="315358244_1" departPos="5.10" departSpeed="0.00" departDelay="0.50" arrival="57954.00" arrivalLane="447569997#1_1" arrivalPos="180.93" arrivalSpeed="7.39" duration="241.00" routeLength="718.04" waitingTime="156.00" waitingCount="2" stopTime="0.00" timeLoss="172.17" rerouteNo="1" devices="tripinfo_carIn12365:1 routing_carIn12365:1 emissions_carIn12365:1" vType="default_016" speedFactor="0.90" vaporized="">
        <emissions CO_abs="27684.270255" CO2_abs="569972.986557" HC_abs="139.374669" PMx_abs="12.699965" NOx_abs="251.221576" fuel_abs="245.019052" electricity_abs="0"/>
    </tripinfo>
    <tripinfo id="h3426c1:1" depart="57864.00" departLane="-160314345#2_1" departPos="5.10" departSpeed="0.00" departDelay="0.00" arrival="57954.00" arrivalLane="386687235_1" arrivalPos="80.84" arrivalSpeed="10.63" duration="90.00" routeLength="726.87" waitingTime="0.00" waitingCount="0" stopTime="0.00" timeLoss="10.03" rerouteNo="1" devices="tripinfo_h3426c1:1 routing_h3426c1:1 emissions_h3426c1:1" vType="default_016" speedFactor="0.85" vaporized="">
        <emissions CO_abs="3388.742515" CO2_abs="171472.124126" HC_abs="19.363435" PMx_abs="2.681800" NOx_abs="68.492120" fuel_abs="73.709640" electricity_abs="0"/>
    </tripinfo>
    <tripinfo id="carIn9695:1" depart="57822.00" departLane="272042143_1" departPos="5.10" departSpeed="0.00" departDelay="0.80" arrival="57957.00" arrivalLane="-315358254#1_1" arrivalPos="137.16" arrivalSpeed="12.41" duration="135.00" routeLength="1596.88" waitingTime="0.00" waitingCount="0" stopTime="0.00" timeLoss="14.03" rerouteNo="1" devices="tripinfo_carIn9695:1 routing_carIn9695:1 emissions_carIn9695:1" vType="default_016" speedFactor="0.96" vaporized="">
        <emissions CO_abs="3776.143111" CO2_abs="312112.072712" HC_abs="24.455465" PMx_abs="4.916034" NOx_abs="122.654313" fuel_abs="134.163779" electricity_abs="0"/>
    </tripinfo>
    <tripinfo id="h17549c1:1" depart="57680.00" departLane="-447569998#1_1" departPos="5.10" departSpeed="0.00" departDelay="0.00" arrival="57959.00" arrivalLane="-315358254#1_1" arrivalPos="137.16" arrivalSpeed="13.78" duration="279.00" routeLength="1746.60" waitingTime="128.00" waitingCount="2" stopTime="0.00" timeLoss="149.09" rerouteNo="1" devices="tripinfo_h17549c1:1 routing_h17549c1:1 emissions_h17549c1:1" vType="default_016" speedFactor="1.05" vaporized="">
        <emissions CO_abs="24713.643867" CO2_abs="684371.718588" HC_abs="128.448519" PMx_abs="13.891433" NOx_abs="290.200392" fuel_abs="294.191627" electricity_abs="0"/>
    </tripinfo>
    <tripinfo id="carIn86816:1" depart="57617.00" departLane="128361102#0_1" departPos="5.10" departSpeed="0.00" departDelay="0.80" arrival="57961.00" arrivalLane="201956811#0_1" arrivalPos="40.40" arrivalSpeed="12.98" duration="344.00" routeLength="2067.33" waitingTime="161.00" waitingCount="2" stopTime="0.00" timeLoss="189.84" rerouteNo="1" devices="tripinfo_carIn86816:1 routing_carIn86816:1 emissions_carIn86816:1" vType="default_016" speedFactor="0.98" vaporized="">
        <emissions CO_abs="31273.425172" CO2_abs="846138.691755" HC_abs="162.214589" PMx_abs="17.367140" NOx_abs="361.038103" fuel_abs="363.730816" electricity_abs="0"/>
    </tripinfo>
    <tripinfo id="carIn102915:1" depart="57643.00" departLane="128361102#0_1" departPos="5.10" departSpeed="0.00" departDelay="0.40" arrival="57963.00" arrivalLane="201956811#0_1" arrivalPos="40.40" arrivalSpeed="14.38" duration="320.00" routeLength="2067.33" waitingTime="139.00" waitingCount="2" stopTime="0.00" timeLoss="180.19" rerouteNo="1" devices="tripinfo_carIn102915:1 routing_carIn102915:1 emissions_carIn102915:1" vType="default_016" speedFactor="1.08" vaporized="">
        <emissions CO_abs="29270.295181" CO2_abs="853507.459434" HC_abs="153.248190" PMx_abs="17.535642" NOx_abs="364.148041" fuel_abs="366.896463" electricity_abs="0"/>
    </tripinfo>
    <tripinfo id="h3864c1:3" depart="57678.00" departLane="24693977#1_1" departPos="5.10" departSpeed="0.00" departDelay="0.00" arrival="57963.00" arrivalLane="201956820_1" arrivalPos="48.33" arrivalSpeed="10.82" duration="285.00" routeLength="1574.85" waitingTime="101.00" waitingCount="1" stopTime="0.00" timeLoss="133.21" rerouteNo="1" devices="tripinfo_h3864c1:3 routing_h3864c1:3 emissions_h3864c1:3" vType="default_016" speedFactor="0.85" vaporized="">
        <emissions CO_abs="23093.333970" CO2_abs="655723.138954" HC_abs="120.444778" PMx_abs="13.111134" NOx_abs="279.773121" fuel_abs="281.875940" electricity_abs="0"/>
    </tripinfo>
    <tripinfo id="randUni11215:1" depart="57953.00" departLane="124812856#0_1" departPos="5.10" departSpeed="0.00" departDelay="0.30" arrival="57969.00" arrivalLane="201956810_1" arrivalPos="71.65" arrivalSpeed="14.09" duration="16.00" routeLength="134.91" waitingTime="0.00" waitingCount="0" stopTime="0.00" timeLoss="5.57" rerouteNo="1" devices="tripinfo_randUni11215:1 routing_randUni11215:1 emissions_randUni11215:1" vType="random_016" speedFactor="1.04" vaporized="">