<?xml version="1.0" encoding="UTF-8"?>

<!-- generated on Thu Nov  4 14:24:01 2021 by Eclipse SUMO sumo Version 1.9.0
<configuration xmlns:xsi="http://www.w3.org/2001/XMLSchema-instance" xsi:noNamespaceSchemaLocation="http://sumo.dlr.de/xsd/sumoConfiguration.xsd">

    <input>
        <net-file value="/mainfs/home/bk2g18/RESCO/environments/ingolstadt21/ingolstadt21.net.xml"/>
        <route-files value="/mainfs/home/bk2g18/RESCO/environments/ingolstadt21/ingolstadt21.rou.xml"/>
    </input>

    <output>
        <tripinfo-output value="/mainfs/home/bk2g18/RESCO/logs/MPLight-tr0-ingolstadt21-21-mplight_full-pressure/tripinfo_88.xml"/>
        <tripinfo-output.write-unfinished value="true"/>
    </output>

    <time>
        <begin value="57600"/>
        <end value="61200"/>
    </time>

    <processing>
        <time-to-teleport value="-1"/>
    </processing>

    <report>
        <xml-validation value="never"/>
        <xml-validation.routes value="never"/>
        <no-warnings value="true"/>
        <no-step-log value="true"/>
    </report>

    <emissions>
        <device.emissions.probability value="1"/>
    </emissions>

    <traci_server>
        <remote-port value="47865"/>
    </traci_server>

    <random_number>
        <random value="true"/>
    </random_number>

</configuration>
-->

<tripinfos xmlns:xsi="http://www.w3.org/2001/XMLSchema-instance" xsi:noNamespaceSchemaLocation="http://sumo.dlr.de/xsd/tripinfo_file.xsd">
    <tripinfo id="h15454c2:3" depart="57612.00" departLane="24608844_1" departPos="5.10" departSpeed="0.00" departDelay="0.50" arrival="57654.00" arrivalLane="32978638#0_1" arrivalPos="49.29" arrivalSpeed="12.36" duration="42.00" routeLength="354.79" waitingTime="0.00" waitingCount="0" stopTime="0.00" timeLoss="5.25" rerouteNo="1" devices="tripinfo_h15454c2:3 routing_h15454c2:3 emissions_h15454c2:3" vType="default_016" speedFactor="0.93" vaporized="">
        <emissions CO_abs="1777.487171" CO2_abs="94244.762789" HC_abs="10.267783" PMx_abs="1.520940" NOx_abs="37.896383" fuel_abs="40.512262" electricity_abs="0"/>
    </tripinfo>
    <tripinfo id="carIn53971:1" depart="57640.00" departLane="272042143_1" departPos="5.10" departSpeed="0.00" departDelay="0.80" arrival="57692.00" arrivalLane="24634414#1_1" arrivalPos="162.19" arrivalSpeed="7.62" duration="52.00" routeLength="493.04" waitingTime="0.00" waitingCount="0" stopTime="0.00" timeLoss="8.77" rerouteNo="1" devices="tripinfo_carIn53971:1 routing_carIn53971:1 emissions_carIn53971:1" vType="default_016" speedFactor="1.06" vaporized="">
        <emissions CO_abs="2390.644910" CO2_abs="136861.957325" HC_abs="14.093592" PMx_abs="2.425731" NOx_abs="56.235600" fuel_abs="58.831310" electricity_abs="0"/>
    </tripinfo>
    <tripinfo id="carIn60260:1" depart="57606.00" departLane="315358254#0_1" departPos="5.10" departSpeed="0.00" departDelay="0.90" arrival="57711.00" arrivalLane="399835085#1_1" arrivalPos="212.23" arrivalSpeed="8.09" duration="105.00" routeLength="430.98" waitingTime="51.00" waitingCount="1" stopTime="0.00" timeLoss="61.23" rerouteNo="1" devices="tripinfo_carIn60260:1 routing_carIn60260:1 emissions_carIn60260:1" vType="default_016" speedFactor="1.06" vaporized="">
        <emissions CO_abs="10405.982268" CO2_abs="245051.614923" HC_abs="53.114584" PMx_abs="5.283811" NOx_abs="107.208711" fuel_abs="105.341340" electricity_abs="0"/>
    </tripinfo>
    <tripinfo id="h7800c1:5" depart="57696.00" departLane="-447569998#1_1" departPos="5.10" departSpeed="0.00" departDelay="0.00" arrival="57724.00" arrivalLane="-447569998#1_1" arrivalPos="180.76" arrivalSpeed="5.95" duration="28.00" routeLength="175.66" waitingTime="0.00" waitingCount="0" stopTime="0.00" timeLoss="3.50" rerouteNo="1" devices="tripinfo_h7800c1:5 routing_h7800c1:5 emissions_h7800c1:5" vType="default_016" speedFactor="0.86" vaporized="">
        <emissions CO_abs="1461.543802" CO2_abs="57271.001169" HC_abs="7.960696" PMx_abs="0.925391" NOx_abs="23.307553" fuel_abs="24.618936" electricity_abs="0"/>
    </tripinfo>
    <tripinfo id="h3568c1:3" depart="57656.00" departLane="266565295#5_1" departPos="5.10" departSpeed="0.00" departDelay="0.80" arrival="57734.00" arrivalLane="-24634415_1" arrivalPos="62.03" arrivalSpeed="14.60" duration="78.00" routeLength="807.40" waitingTime="0.00" waitingCount="0" stopTime="0.00" timeLoss="17.92" rerouteNo="1" devices="tripinfo_h3568c1:3 routing_h3568c1:3 emissions_h3568c1:3" vType="default_016" speedFactor="1.08" vaporized="">
        <emissions CO_abs="4338.403309" CO2_abs="264433.850305" HC_abs="25.918696" PMx_abs="4.872381" NOx_abs="109.373971" fuel_abs="113.668715" electricity_abs="0"/>
    </tripinfo>
    <tripinfo id="h5979c1:5" depart="57669.00" departLane="399835085#1_1" departPos="5.10" departSpeed="0.00" departDelay="0.00" arrival="57758.00" arrivalLane="-315358254#1_1" arrivalPos="137.16" arrivalSpeed="15.67" duration="89.00" routeLength="659.33" waitingTime="0.00" waitingCount="0" stopTime="0.00" timeLoss="23.83" rerouteNo="1" devices="tripinfo_h5979c1:5 routing_h5979c1:5 emissions_h5979c1:5" vType="default_016" speedFactor="1.13" vaporized="">
        <emissions CO_abs="3952.068231" CO2_abs="197639.596206" HC_abs="22.595645" PMx_abs="3.448582" NOx_abs="81.295789" fuel_abs="84.957575" electricity_abs="0"/>
    </tripinfo>
    <tripinfo id="h4538c1:1" depart="57701.00" departLane="-10427692#1_1" departPos="5.10" departSpeed="0.00" departDelay="0.00" arrival="57771.00" arrivalLane="-128361102#1_1" arrivalPos="274.68" arrivalSpeed="11.85" duration="70.00" routeLength="440.74" waitingTime="23.00" waitingCount="1" stopTime="0.00" timeLoss="32.91" rerouteNo="1" devices="tripinfo_h4538c1:1 routing_h4538c1:1 emissions_h4538c1:1" vType="default_016" speedFactor="0.86" vaporized="">
        <emissions CO_abs="5483.539097" CO2_abs="176488.211705" HC_abs="29.077646" PMx_abs="3.355382" NOx_abs="73.894893" fuel_abs="75.866719" electricity_abs="0"/>
    </tripinfo>
    <tripinfo id="h317c2:1" depart="57707.00" departLane="-32978638#0_1" departPos="5.10" departSpeed="0.00" departDelay="0.10" arrival="57788.00" arrivalLane="-266565295#5_1" arrivalPos="172.76" arrivalSpeed="12.44" duration="81.00" routeLength="370.53" waitingTime="40.00" waitingCount="1" stopTime="0.00" timeLoss="49.97" rerouteNo="1" devices="tripinfo_h317c2:1 routing_h317c2:1 emissions_h317c2:1" vType="default_016" speedFactor="0.90" vaporized="">
        <emissions CO_abs="8107.290202" CO2_abs="211745.014687" HC_abs="41.872286" PMx_abs="4.413766" NOx_abs="91.260270" fuel_abs="91.023212" electricity_abs="0"/>
    </tripinfo>
    <tripinfo id="carIn27009:1" depart="57673.00" departLane="-447569998#1_1" departPos="5.10" departSpeed="0.00" departDelay="0.50" arrival="57789.00" arrivalLane="-26677539_1" arrivalPos="152.75" arrivalSpeed="5.55" duration="116.00" routeLength="699.63" waitingTime="0.00" waitingCount="0" stopTime="0.00" timeLoss="13.49" rerouteNo="1" devices="tripinfo_carIn27009:1 routing_carIn27009:1 emissions_carIn27009:1" vType="default_015" speedFactor="0.82" vaporized="">
        <emissions CO_abs="4868.273252" CO2_abs="187351.379880" HC_abs="26.425406" PMx_abs="2.975091" NOx_abs="75.937847" fuel_abs="80.536400" electricity_abs="0"/>
    </tripinfo>
    <tripinfo id="h3326c1:2" depart="57656.00" departLane="22716069#0_1" departPos="5.10" departSpeed="0.00" departDelay="0.00" arrival="57790.00" arrivalLane="24634517#13_1" arrivalPos="111.62" arrivalSpeed="10.25" duration="134.00" routeLength="1312.81" waitingTime="0.00" waitingCount="0" stopTime="0.00" timeLoss="16.04" rerouteNo="1" devices="tripinfo_h3326c1:2 routing_h3326c1:2 emissions_h3326c1:2" vType="default_016" speedFactor="0.83" vaporized="">
        <emissions CO_abs="4570.804075" CO2_abs="305473.975153" HC_abs="27.890801" PMx_abs="4.853939" NOx_abs="121.725605" fuel_abs="131.310881" electricity_abs="0"/>
    </tripinfo>
    <tripinfo id="carIn107282:1" depart="57749.00" departLane="-447569998#1_1" departPos="5.10" departSpeed="0.00" departDelay="0.00" arrival="57791.00" arrivalLane="315358242#0_1" arrivalPos="165.37" arrivalSpeed="14.88" duration="42.00" routeLength="448.50" waitingTime="0.00" waitingCount="0" stopTime="0.00" timeLoss="4.57" rerouteNo="1" devices="tripinfo_carIn107282:1 routing_carIn107282:1 emissions_carIn107282:1" vType="default_016" speedFactor="1.13" vaporized="">
        <emissions CO_abs="1792.125952" CO2_abs="114807.883377" HC_abs="10.862801" PMx_abs="2.033197" NOx_abs="46.814625" fuel_abs="49.351030" electricity_abs="0"/>
    </tripinfo>
    <tripinfo id="h330c1:1" depart="57736.00" departLane="-32978638#0_1" departPos="5.10" departSpeed="0.00" departDelay="0.20" arrival="57798.00" arrivalLane="-266565295#5_1" arrivalPos="172.76" arrivalSpeed="9.29" duration="62.00" routeLength="370.53" waitingTime="12.00" waitingCount="1" stopTime="0.00" timeLoss="20.61" rerouteNo="1" devices="tripinfo_h330c1:1 routing_h330c1:1 emissions_h330c1:1" vType="default_016" speedFactor="0.67" vaporized="">
        <emissions CO_abs="3312.802078" CO2_abs="124834.059446" HC_abs="17.957918" PMx_abs="2.150887" NOx_abs="51.309868" fuel_abs="53.662033" electricity_abs="0"/>
    </tripinfo>
    <tripinfo id="h11737c1:1" depart="57665.00" departLane="272042143_1" departPos="5.10" departSpeed="0.00" departDelay="1.50" arrival="57824.00" arrivalLane="-315358254#1_1" arrivalPos="137.16" arrivalSpeed="10.33" duration="159.00" routeLength="1596.88" waitingTime="0.00" waitingCount="0" stopTime="0.00" timeLoss="13.31" rerouteNo="1" devices="tripinfo_h11737c1:1 routing_h11737c1:1 emissions_h11737c1:1" vType="default_016" speedFactor="0.80" vaporized="">
        <emissions CO_abs="4659.096519" CO2_abs="329624.415237" HC_abs="28.804727" PMx_abs="4.937042" NOx_abs="129.274981" fuel_abs="141.692416" electricity_abs="0"/>
    </tripinfo>
    <tripinfo id="carIn126288:1" depart="57674.00" departLane="272042143_1" departPos="5.10" departSpeed="0.00" departDelay="0.00" arrival="57826.00" arrivalLane="-315358254#1_1" arrivalPos="137.16" arrivalSpeed="12.38" duration="152.00" routeLength="1596.88" waitingTime="0.00" waitingCount="0" stopTime="0.00" timeLoss="25.96" rerouteNo="1" devices="tripinfo_carIn126288:1 routing_carIn126288:1 emissions_carIn126288:1" vType="default_016" speedFactor="0.93" vaporized="">
        <emissions CO_abs="5023.648826" CO2_abs="356538.404194" HC_abs="31.171938" PMx_abs="5.782001" NOx_abs="142.468480" fuel_abs="153.261002" electricity_abs="0"/>
    </tripinfo>
    <tripinfo id="randUni15030:1" depart="57735.00" departLane="386687232#0_1" departPos="5.10" departSpeed="0.00" departDelay="0.10" arrival="57828.00" arrivalLane="26677539_1" arrivalPos="151.98" arrivalSpeed="7.46" duration="93.00" routeLength="919.89" waitingTime="0.00" waitingCount="0" stopTime="0.00" timeLoss="11.24" rerouteNo="1" devices="tripinfo_randUni15030:1 routing_randUni15030:1 emissions_randUni15030:1" vType="random_016" speedFactor="1.02" vaporized="">
        <emissions CO_abs="3539.745144" CO2_abs="212318.354721" HC_abs="21.065008" PMx_abs="3.571982" NOx_abs="85.863590" fuel_abs="91.267065" electricity_abs="0"/>
    </tripinfo>
    <tripinfo id="carIn8642:1" depart="57774.00" departLane="-447569998#1_1" departPos="5.10" departSpeed="0.00" departDelay="0.90" arrival="57853.00" arrivalLane="-315358244_2" arrivalPos="33.95" arrivalSpeed="14.56" duration="79.00" routeLength="706.49" waitingTime="7.00" waitingCount="1" stopTime="0.00" timeLoss="21.80" rerouteNo="1" devices="tripinfo_carIn8642:1 routing_carIn8642:1 emissions_carIn8642:1" vType="default_016" speedFactor="1.05" vaporized="">
        <emissions CO_abs="3454.897439" CO2_abs="195604.355933" HC_abs="20.315489" PMx_abs="3.437284" NOx_abs="79.791536" fuel_abs="84.082363" electricity_abs="0"/>
    </tripinfo>
    <tripinfo id="carIn129809:1" depart="57729.00" departLane="-447569998#1_1" departPos="5.10" departSpeed="0.00" departDelay="1.00" arrival="57854.00" arrivalLane="-315358244_1" arrivalPos="33.95" arrivalSpeed="13.16" duration="125.00" routeLength="706.49" waitingTime="44.00" waitingCount="1" stopTime="0.00" timeLoss="65.08" rerouteNo="1" devices="tripinfo_carIn129809:1 routing_carIn129809:1 emissions_carIn129809:1" vType="default_015" speedFactor="1.01" vaporized="">
        <emissions CO_abs="9715.349676" CO2_abs="303725.340891" HC_abs="51.305704" PMx_abs="6.019855" NOx_abs="128.984079" fuel_abs="130.561782" electricity_abs="0"/>
    </tripinfo>
    <tripinfo id="h17600c1:1" depart="57662.00" departLane="272042143_1" departPos="5.10" departSpeed="0.00" departDelay="0.30" arrival="57866.00" arrivalLane="201238729#3_1" arrivalPos="431.02" arrivalSpeed="16.13" duration="204.00" routeLength="2100.26" waitingTime="61.00" waitingCount="1" stopTime="0.00" timeLoss="76.38" rerouteNo="1" devices="tripinfo_h17600c1:1 routing_h17600c1:1 emissions_h17600c1:1" vType="default_016" speedFactor="1.19" vaporized="">
        <emissions CO_abs="13499.791039" CO2_abs="552786.947782" HC_abs="74.414720" PMx_abs="10.602021" NOx_abs="227.251372" fuel_abs="237.622873" electricity_abs="0"/>
    </tripinfo>
    <tripinfo id="carIn13443:1" depart="57729.00" departLane="272042143_1" departPos="5.10" departSpeed="0.00" departDelay="0.80" arrival="57869.00" arrivalLane="399835085#1_1" arrivalPos="212.23" arrivalSpeed="8.36" duration="140.00" routeLength="1757.45" waitingTime="0.00" waitingCount="0" stopTime="0.00" timeLoss="17.14" rerouteNo="1" devices="tripinfo_carIn13443:1 routing_carIn13443:1 emissions_carIn13443:1" vType="default_016" speedFactor="1.16" vaporized="">
        <emissions CO_abs="4266.693250" CO2_abs="350874.627956" HC_abs="27.535157" PMx_abs="5.735967" NOx_abs="138.374149" fuel_abs="150.825930" electricity_abs="0"/>
    </tripinfo>
    <tripinfo id="carIn70533:1" depart="57812.00" departLane="-447569998#1_1" departPos="5.10" departSpeed="0.00" departDelay="0.10" arrival="57875.00" arrivalLane="-315358244_1" arrivalPos="33.95" arrivalSpeed="13.78" duration="63.00" routeLength="706.49" waitingTime="0.00" waitingCount="0" stopTime="0.00" timeLoss="6.08" rerouteNo="1" devices="tripinfo_carIn70533:1 routing_carIn70533:1 emissions_carIn70533:1" vType="default_016" speedFactor="1.07" vaporized="">
        <emissions CO_abs="1978.267177" CO2_abs="132878.260734" HC_abs="12.081168" PMx_abs="2.202398" NOx_abs="53.132508" fuel_abs="57.118868" electricity_abs="0"/>
    </tripinfo>
    <tripinfo id="carIn132499:1" depart="57740.00" departLane="272042143_1" departPos="5.10" departSpeed="0.00" departDelay="0.70" arrival="57889.00" arrivalLane="201238729#3_1" arrivalPos="431.02" arrivalSpeed="14.75" duration="149.00" routeLength="2100.26" waitingTime="0.00" waitingCount="0" stopTime="0.00" timeLoss="13.06" rerouteNo="1" devices="tripinfo_carIn132499:1 routing_carIn132499:1 emissions_carIn132499:1" vType="default_016" speedFactor="1.12" vaporized="">
        <emissions CO_abs="3439.205864" CO2_abs="372938.321800" HC_abs="24.106670" PMx_abs="5.722063" NOx_abs="142.545260" fuel_abs="160.309988" electricity_abs="0"/>
    </tripinfo>
    <tripinfo id="randUni23028:1" depart="57884.00" departLane="124812856#0_1" departPos="5.10" departSpeed="0.00" departDelay="0.10" arrival="57897.00" arrivalLane="201956810_1" arrivalPos="71.65" arrivalSpeed="15.52" duration="13.00" routeLength="134.91" waitingTime="0.00" waitingCount="0" stopTime="0.00" timeLoss="4.16" rerouteNo="1" devices="tripinfo_randUni23028:1 routing_randUni23028:1 emissions_randUni23028:1" vType="random_016" speedFactor="1.15" vaporized="">
        <emissions CO_abs="1141.373967" CO2_abs="64424.344230" HC_abs="6.727000" PMx_abs="1.244466" NOx_abs="27.104148" fuel_abs="27.693228" electricity_abs="0"/>
    </tripinfo>
    <tripinfo id="carIn24709:1" depart="57753.00" departLane="266565295#5_1" departPos="5.10" departSpeed="0.00" departDelay="2.50" arrival="57901.00" arrivalLane="-24634506#2_1" arrivalPos="71.32" arrivalSpeed="13.77" duration="148.00" routeLength="1534.27" waitingTime="14.00" waitingCount="1" stopTime="0.00" timeLoss="39.65" rerouteNo="1" devices="tripinfo_carIn24709:1 routing_carIn24709:1 emissions_carIn24709:1" vType="default_016" speedFactor="1.05" vaporized="">
        <emissions CO_abs="7603.753290" CO2_abs="432154.207711" HC_abs="44.824918" PMx_abs="8.103413" NOx_abs="179.330947" fuel_abs="185.764747" electricity_abs="0"/>
    </tripinfo>
    <tripinfo id="carIn80064:1" depart="57603.00" departLane="128361109#1_1" departPos="5.10" departSpeed="0.00" departDelay="0.40" arrival="57906.00" arrivalLane="-315358254#1_1" arrivalPos="137.16" arrivalSpeed="13.79" duration="303.00" routeLength="1587.97" waitingTime="191.00" waitingCount="2" stopTime="0.00" timeLoss="220.35" rerouteNo="1" devices="tripinfo_carIn80064:1 routing_carIn80064:1 emissions_carIn80064:1" vType="default_016" speedFactor="1.08" vaporized="">
        <emissions CO_abs="37633.056200" CO2_abs="976979.042980" HC_abs="194.634242" PMx_abs="22.139422" NOx_abs="427.824470" fuel_abs="419.973719" electricity_abs="0"/>
    </tripinfo>
    <tripinfo id="carIn21399:1" depart="57771.00" departLane="128361109#1_1" departPos="5.10" departSpeed="0.00" departDelay="3.30" arrival="57909.00" arrivalLane="-315358254#1_1" arrivalPos="137.16" arrivalSpeed="13.85" duration="138.00" routeLength="1587.97" waitingTime="27.00" waitingCount="1" stopTime="0.00" timeLoss="52.93" rerouteNo="1" devices="tripinfo_carIn21399:1 routing_carIn21399:1 emissions_carIn21399:1" vType="default_016" speedFactor="1.07" vaporized="">
        <emissions CO_abs="10112.292438" CO2_abs="525148.467888" HC_abs="58.637823" PMx_abs="10.699074" NOx_abs="219.986939" fuel_abs="225.738836" electricity_abs="0"/>
    </tripinfo>
    <tripinfo id="h13377c2:3" depart="57804.00" departLane="315358244_1" departPos="5.10" departSpeed="0.00" departDelay="0.60" arrival="57909.00" arrivalLane="447569997#1_1" arrivalPos="180.93" arrivalSpeed="8.76" duration="105.00" routeLength="726.74" waitingTime="25.00" waitingCount="2" stopTime="0.00" timeLoss="42.74" rerouteNo="1" devices="tripinfo_h13377c2:3 routing_h13377c2:3 emissions_h13377c2:3" vType="default_016" speedFactor="1.08" vaporized="">
        <emissions CO_abs="6697.783014" CO2_abs="251216.296554" HC_abs="36.270699" PMx_abs="4.616182" NOx_abs="103.899511" fuel_abs="107.989274" electricity_abs="0"/>
    </tripinfo>
    <tripinfo id="carIn14532:1" depart="57743.00" departLane="272042143_1" departPos="5.10" departSpeed="0.00" departDelay="1.90" arrival="57923.00" arrivalLane="399835085#1_1" arrivalPos="212.23" arrivalSpeed="6.85" duration="180.00" routeLength="1757.45" waitingTime="0.00" waitingCount="0" stopTime="0.00" timeLoss="14.18" rerouteNo="1" devices="tripinfo_carIn14532:1 routing_carIn14532:1 emissions_carIn14532:1" vType="default_016" speedFactor="0.86" vaporized="">
        <emissions CO_abs="5093.495171" CO2_abs="336458.819751" HC_abs="30.941368" PMx_abs="5.097344" NOx_abs="132.303096" fuel_abs="144.630457" electricity_abs="0"/>
    </tripinfo>
    <tripinfo id="h7181c1:1" depart="57660.00" departLane="315358254#0_1" departPos="5.10" departSpeed="0.00" departDelay="0.10" arrival="57924.00" arrivalLane="306240162#0_0" arrivalPos="220.43" arrivalSpeed="14.13" duration="264.00" routeLength="932.35" waitingTime="182.00" waitingCount="2" stopTime="0.00" timeLoss="204.01" rerouteNo="1" devices="tripinfo_h7181c1:1 routing_h7181c1:1 emissions_h7181c1:1" vType="default_016" speedFactor="0.86" vaporized="">
        <emissions CO_abs="32318.149938" CO2_abs="726248.481004" HC_abs="164.181310" PMx_abs="16.397602" NOx_abs="319.713399" fuel_abs="312.195812" electricity_abs="0"/>
    </tripinfo>
    <tripinfo id="carIn81681:1" depart="57726.00" departLane="272042143_1" departPos="5.10" departSpeed="0.00" departDelay="0.30" arrival="57925.00" arrivalLane="306240162#0_0" arrivalPos="220.43" arrivalSpeed="15.45" duration="199.00" routeLength="2246.89" waitingTime="24.00" waitingCount="2" stopTime="0.00" timeLoss="62.73" rerouteNo="1" devices="tripinfo_carIn81681:1 routing_carIn81681:1 emissions_carIn81681:1" vType="default_016" speedFactor="1.09" vaporized="">
        <emissions CO_abs="10548.844863" CO2_abs="588243.801418" HC_abs="61.845538" PMx_abs="11.081438" NOx_abs="241.947359" fuel_abs="252.861366" electricity_abs="0"/>
    </tripinfo>
    <tripinfo id="h17549c1:1" depart="57680.00" departLane="-447569998#1_1" departPos="5.10" departSpeed="0.00" departDelay="0.00" arrival="57926.00" arrivalLane="-315358254#1_1" arrivalPos="137.16" arrivalSpeed="15.87" duration="246.00" routeLength="1746.60" waitingTime="108.00" waitingCount="1" stopTime="0.00" timeLoss="126.06" rerouteNo="1" devices="tripinfo_h17549c1:1 routing_h17549c1:1 emissions_h17549c1:1" vType="default_016" speedFactor="1.15" vaporized="">
        <emissions CO_abs="21908.553075" CO2_abs="660784.027618" HC_abs="115.045632" PMx_abs="13.366304" NOx_abs="278.904458" fuel_abs="284.050435" electricity_abs="0"/>
    </tripinfo>
    <tripinfo id="carIn80913:1" depart="57732.00" departLane="272042143_1" departPos="5.10" departSpeed="0.00" departDelay="0.40" arrival="57927.00" arrivalLane="306240162#0_0" arrivalPos="220.43" arrivalSpeed="15.72" duration="195.00" routeLength="2246.89" waitingTime="6.00" waitingCount="2" stopTime="0.00" timeLoss="39.96" rerouteNo="1" devices="tripinfo_carIn80913:1 routing_carIn80913:1 emissions_carIn80913:1" vType="default_016" speedFactor="0.96" vaporized="">
        <emissions CO_abs="7622.567499" CO2_abs="545056.380912" HC_abs="47.534819" PMx_abs="9.529848" NOx_abs="219.840420" fuel_abs="234.296166" electricity_abs="0"/>
    </tripinfo>
    <tripinfo id="h3426c1:1" depart="57864.00" departLane="-160314345#2_1" departPos="5.10" departSpeed="0.00" departDelay="0.00" arrival="57934.00" arrivalLane="386687235_1" arrivalPos="80.84" arrivalSpeed="15.05" duration="70.00" routeLength="726.87" waitingTime="0.00" waitingCount="0" stopTime="0.00" timeLoss="7.15" rerouteNo="1" devices="tripinfo_h3426c1:1 routing_h3426c1:1 emissions_h3426c1:1" vType="default_016" speedFactor="1.09" vaporized="">
        <emissions CO_abs="2526.573958" CO2_abs="173640.256623" HC_abs="15.527606" PMx_abs="2.726742" NOx_abs="68.393675" fuel_abs="74.640957" electricity_abs="0"/>
    </tripinfo>
    <tripinfo id="carIn101266:1" depart="57737.00" departLane="272042143_1" departPos="5.10" departSpeed="0.00" departDelay="0.50" arrival="57941.00" arrivalLane="306240162#0_0" arrivalPos="220.43" arrivalSpeed="15.86" duration="204.00" routeLength="2246.89" waitingTime="13.00" waitingCount="2" stopTime="0.00" timeLoss="55.28" rerouteNo="1" devices="tripinfo_carIn101266:1 routing_carIn101266:1 emissions_carIn101266:1" vType="default_016" speedFactor="0.99" vaporized="">
        <emissions CO_abs="8885.423298" CO2_abs="566294.859589" HC_abs="53.828973" PMx_abs="10.270201" NOx_abs="230.780153" fuel_abs="243.425934" electricity_abs="0"/>
    </tripinfo>
    <tripinfo id="carIn115169:1" depart="57759.00" departLane="24599188#0.94_1" departPos="5.10" departSpeed="0.00" departDelay="0.50" arrival="57944.00" arrivalLane="-10427692#3_1" arrivalPos="28.64" arrivalSpeed="23.60" duration="185.00" routeLength="2183.23" waitingTime="0.00" waitingCount="0" stopTime="0.00" timeLoss="28.04" rerouteNo="1" devices="tripinfo_carIn115169:1 routing_carIn115169:1 emissions_carIn115169:1" vType="default_016" speedFactor="1.09" vaporized="">
        <emissions CO_abs="7701.732248" CO2_abs="565043.581434" HC_abs="48.317457" PMx_abs="9.954339" NOx_abs="228.472815" fuel_abs="242.887491" electricity_abs="0"/>
    </tripinfo>
    <tripinfo id="h5239c1:3" depart="57834.00" departLane="315358254#0_1" departPos="5.10" departSpeed="0.00" departDelay="0.80" arrival="57944.00" arrivalLane="224892361#3_1" arrivalPos="220.30" arrivalSpeed="25.88" duration="110.00" routeLength="738.08" waitingTime="49.00" waitingCount="2" stopTime="0.00" timeLoss="74.46" rerouteNo="1" devices="tripinfo_h5239c1:3 routing_h5239c1:3 emissions_h5239c1:3" vType="default_016" speedFactor="1.20" vaporized="">
        <emissions CO_abs="12917.863599" CO2_abs="464519.687368" HC_abs="69.978131" PMx_abs="10.280697" NOx_abs="202.014479" fuel_abs="199.679050" electricity_abs="0"/>
    </tripinfo>
    <tripinfo id="carIn9695:1" depart="57822.00" departLane="272042143_1" departPos="5.10" departSpeed="0.00" departDelay="0.80" arrival="57945.00" arrivalLane="-315358254#1_1" arrivalPos="137.16" arrivalSpeed="14.63" duration="123.00" routeLength="1596.88" waitingTime="0.00" waitingCount="0" stopTime="0.00" timeLoss="12.53" rerouteNo="1" devices="tripinfo_carIn9695:1 routing_carIn9695:1 emissions_carIn9695:1" vType="default_016" speedFactor="1.06" vaporized="">
        <emissions CO_abs="3548.562442" CO2_abs="329026.130094" HC_abs="23.809395" PMx_abs="5.272199" NOx_abs="128.728344" fuel_abs="141.434020" electricity_abs="0"/>
    </tripinfo>
    <tripinfo id="randUni3548:1" depart="57726.00" departLane="-447569998#1_1" departPos="5.10" departSpeed="0.00" departDelay="0.00" arrival="57957.00" arrivalLane="-315358254#1_1" arrivalPos="137.16" arrivalSpeed="11.58" duration="231.00" routeLength="1743.98" waitingTime="49.00" waitingCount="1" stopTime="0.00" timeLoss="71.06" rerouteNo="1" devices="tripinfo_randUni3548:1 routing_randUni3548:1 emissions_randUni3548:1" vType="random_016" speedFactor="0.85" vaporized="">
        <emissions CO_abs="13059.414069" CO2_abs="480371.408849" HC_abs="70.589369" PMx_abs="8.530844" NOx_abs="197.231140" fuel_abs="206.495850" electricity_abs="0"/>
    </tripinfo>
    <tripinfo id="carIn82298:1" depart="57783.00" departLane="-447569998#1_1" departPos="5.10" departSpeed="0.00" departDelay="0.60" arrival="57960.00" arrivalLane="-315358254#1_1" arrivalPos="137.16" arrivalSpeed="14.76" duration="177.00" routeLength="1746.60" waitingTime="8.00" waitingCount="1" stopTime="0.00" timeLoss="48.95" rerouteNo="1" devices="tripinfo_carIn82298:1 routing_carIn82298:1 emissions_carIn82298:1" vType="default_016" speedFactor="1.08" vaporized="">
        <emissions CO_abs="7140.277376" CO2_abs="445994.061425" HC_abs="42.918748" PMx_abs="7.621324" NOx_abs="180.405412" fuel_abs="191.714428" electricity_abs="0"/>
    </tripinfo>
    <tripinfo id="carIn118538:1" depart="57683.00" departLane="-447569998#1_1" departPos="5.10" departSpeed="0.00" departDelay="1.00" arrival="57966.00" arrivalLane="399835085#1_1" arrivalPos="212.23" arrivalSpeed="7.32" duration="283.00" routeLength="1907.17" waitingTime="100.00" waitingCount="1" stopTime="0.00" timeLoss="119.84" rerouteNo="1" devices="tripinfo_carIn118538:1 routing_carIn118538:1 emissions_carIn118538:1" vType="default_016" speedFactor="1.00" vaporized="">
        <emissions CO_abs="20930.192773" CO2_abs="624137.046644" HC_abs="109.831848" PMx_abs="12.193274" NOx_abs="262.493325" fuel_abs="268.297750" electricity_abs="0"/>
    </tripinfo>
    <tripinfo id="carIn106296:1" depart="57767.00" departLane="124812856#0_1" departPos="5.10" departSpeed="0.00" departDelay="0.00" arrival="57966.00" arrivalLane="18809673#0_1" arrivalPos="473.56" arrivalSpeed="11.90" duration="199.00" routeLength="2096.90" waitingTime="12.00" waitingCount="1" stopTime="0.00" timeLoss="30.82" rerouteNo="1" devices="tripinfo_carIn106296:1 routing_carIn106296:1 emissions_carIn106296:1" vType="default_016" speedFactor="0.92" vaporized="">
        <emissions CO_abs="6289.787436" CO2_abs="449455.571318" HC_abs="39.047992" PMx_abs="6.897860" NOx_abs="175.691356" fuel_abs="193.202924" electricity_abs="0"/>
    </tripinfo>
    <tripinfo id="carIn104643:1" depart="57774.00" departLane="124812856#0_1" departPos="5.10" departSpeed="0.00" departDelay="0.50" arrival="57968.00" arrivalLane="18809673#0_1" arrivalPos="473.56" arrivalSpeed="12.34" duration="194.00" routeLength="2096.90" waitingTime="7.00" waitingCount="1" stopTime="0.00" timeLoss="23.86" rerouteNo="1" devices="tripinfo_carIn104643:1 routing_carIn104643:1 emissions_carIn104643:1" vType="default_016" speedFactor="0.91" vaporized="">
        <emissions CO_abs="5107.680044" CO2_abs="418063.013043" HC_abs="32.918215" PMx_abs="6.194397" NOx_abs="161.999962" fuel_abs="179.708224" electricity_abs="0"/>
    </tripinfo>
    <tripinfo id="randUni11215:1" depart="57953.00" departLane="124812856#0_1" departPos="5.10" departSpeed="0.00" departDelay="0.30" arrival="57968.00" arrivalLane="201956810_1" arrivalPos="71.65" arrivalSpeed="11.73" duration="15.00" routeLength="134.91" waitingTime="0.00" waitingCount="0" stopTime="0.00" timeLoss="3.66" rerouteNo="1" devices="tripinfo_randUni11215:1 routing_randUni11215:1 emissions_randUni11215:1" vType="random_016" speedFactor="0.91" vaporized="">
        <emissions CO_abs="1168.535089" CO2_abs="59519.484696" HC_abs="6.733869" PMx_abs="1.181784" NOx_abs="25.449030" fuel_abs="25.584870" electricity_abs="0"/>
    </tripinfo>
    <tripinfo id="carIn76994:1" depart="57828.00" departLane="272042143_1" departPos="5.10" departSpeed="0.00" departDelay="2.80" arrival="57974.00" arrivalLane="399835085#1_1" arrivalPos="212.23" arrivalSpeed="8.58" duration="146.00" routeLength="1757.45" waitingTime="0.00" waitingCount="0" stopTime="0.00" timeLoss="12.76" rerouteNo="1" devices="tripinfo_carIn76994:1 routing_carIn76994:1 emissions_carIn76994:1" vType="default_016" speedFactor="1.07" vaporized="">
        <emissions CO_abs="3910.201453" CO2_abs="333656.939025" HC_abs="25.515884" PMx_abs="5.162944" NOx_abs="129.895714" fuel_abs="143.425095" electricity_abs="0"/>
    </tripinfo>
    <tripinfo id="carIn88905:1" depart="57688.00" departLane="128361109#1_1" departPos="5.10" departSpeed="0.00" departDelay="5.80" arrival="57986.00" arrivalLane="386687235_1" arrivalPos="80.84" arrivalSpeed="16.64" duration="298.00" routeLength="2088.57" waitingTime="143.00" waitingCount="2" stopTime="0.00" timeLoss="174.39" rerouteNo="1" devices="tripinfo_carIn88905:1 routing_carIn88905:1 emissions_carIn88905:1" vType="default_016" speedFactor="1.22" vaporized="">