<?xml version="1.0" encoding="UTF-8"?>

<!-- generated on Thu Nov  4 14:26:06 2021 by Eclipse SUMO sumo Version 1.9.0
<configuration xmlns:xsi="http://www.w3.org/2001/XMLSchema-instance" xsi:noNamespaceSchemaLocation="http://sumo.dlr.de/xsd/sumoConfiguration.xsd">

    <input>
        <net-file value="/mainfs/home/bk2g18/RESCO/environments/ingolstadt21/ingolstadt21.net.xml"/>
        <route-files value="/mainfs/home/bk2g18/RESCO/environments/ingolstadt21/ingolstadt21.rou.xml"/>
    </input>

    <output>
        <tripinfo-output value="/mainfs/home/bk2g18/RESCO/logs/MPLight-tr0-ingolstadt21-21-mplight_full-pressure/tripinfo_90.xml"/>
        <tripinfo-output.write-unfinished value="true"/>
    </output>

    <time>
        <begin value="57600"/>
        <end value="61200"/>
    </time>

    <processing>
        <time-to-teleport value="-1"/>
    </processing>

    <report>
        <xml-validation value="never"/>
        <xml-validation.routes value="never"/>
        <no-warnings value="true"/>
        <no-step-log value="true"/>
    </report>

    <emissions>
        <device.emissions.probability value="1"/>
    </emissions>

    <traci_server>
        <remote-port value="59129"/>
    </traci_server>

    <random_number>
        <random value="true"/>
    </random_number>

</configuration>
-->

<tripinfos xmlns:xsi="http://www.w3.org/2001/XMLSchema-instance" xsi:noNamespaceSchemaLocation="http://sumo.dlr.de/xsd/tripinfo_file.xsd">
    <tripinfo id="h15454c2:3" depart="57612.00" departLane="24608844_1" departPos="5.10" departSpeed="0.00" departDelay="0.50" arrival="57654.00" arrivalLane="32978638#0_1" arrivalPos="49.29" arrivalSpeed="13.20" duration="42.00" routeLength="354.79" waitingTime="0.00" waitingCount="0" stopTime="0.00" timeLoss="5.92" rerouteNo="1" devices="tripinfo_h15454c2:3 routing_h15454c2:3 emissions_h15454c2:3" vType="default_016" speedFactor="0.96" vaporized="">
        <emissions CO_abs="2035.563420" CO2_abs="112168.959646" HC_abs="11.880867" PMx_abs="1.923483" NOx_abs="45.824888" fuel_abs="48.216957" electricity_abs="0"/>
    </tripinfo>
    <tripinfo id="carIn53971:1" depart="57640.00" departLane="272042143_1" departPos="5.10" departSpeed="0.00" departDelay="0.80" arrival="57699.00" arrivalLane="24634414#1_1" arrivalPos="162.19" arrivalSpeed="7.00" duration="59.00" routeLength="493.04" waitingTime="0.00" waitingCount="0" stopTime="0.00" timeLoss="8.42" rerouteNo="1" devices="tripinfo_carIn53971:1 routing_carIn53971:1 emissions_carIn53971:1" vType="default_016" speedFactor="0.91" vaporized="">
        <emissions CO_abs="2628.597281" CO2_abs="138907.988528" HC_abs="15.199041" PMx_abs="2.381339" NOx_abs="56.838064" fuel_abs="59.711081" electricity_abs="0"/>
    </tripinfo>
    <tripinfo id="carIn60260:1" depart="57606.00" departLane="315358254#0_1" departPos="5.10" departSpeed="0.00" departDelay="0.90" arrival="57709.00" arrivalLane="399835085#1_1" arrivalPos="212.23" arrivalSpeed="9.13" duration="103.00" routeLength="430.98" waitingTime="52.00" waitingCount="1" stopTime="0.00" timeLoss="61.24" rerouteNo="1" devices="tripinfo_carIn60260:1 routing_carIn60260:1 emissions_carIn60260:1" vType="default_016" speedFactor="1.10" vaporized="">
        <emissions CO_abs="10617.366958" CO2_abs="264224.413790" HC_abs="54.515239" PMx_abs="5.526039" NOx_abs="114.205243" fuel_abs="113.583005" electricity_abs="0"/>
    </tripinfo>
    <tripinfo id="h7800c1:5" depart="57696.00" departLane="-447569998#1_1" departPos="5.10" departSpeed="0.00" departDelay="0.00" arrival="57724.00" arrivalLane="-447569998#1_1" arrivalPos="180.76" arrivalSpeed="6.34" duration="28.00" routeLength="175.66" waitingTime="0.00" waitingCount="0" stopTime="0.00" timeLoss="3.57" rerouteNo="1" devices="tripinfo_h7800c1:5 routing_h7800c1:5 emissions_h7800c1:5" vType="default_016" speedFactor="0.87" vaporized="">
        <emissions CO_abs="1258.916341" CO2_abs="48285.320683" HC_abs="6.835142" PMx_abs="0.794578" NOx_abs="19.744170" fuel_abs="20.756286" electricity_abs="0"/>
    </tripinfo>
    <tripinfo id="h7181c1:1" depart="57660.00" departLane="315358254#0_1" departPos="5.10" departSpeed="0.00" departDelay="0.10" arrival="57738.00" arrivalLane="306240162#0_0" arrivalPos="220.43" arrivalSpeed="16.87" duration="78.00" routeLength="932.35" waitingTime="6.00" waitingCount="1" stopTime="0.00" timeLoss="27.69" rerouteNo="1" devices="tripinfo_h7181c1:1 routing_h7181c1:1 emissions_h7181c1:1" vType="default_016" speedFactor="1.03" vaporized="">
        <emissions CO_abs="5036.238315" CO2_abs="313458.216220" HC_abs="30.476857" PMx_abs="6.358729" NOx_abs="131.947975" fuel_abs="134.741367" electricity_abs="0"/>
    </tripinfo>
    <tripinfo id="h5979c1:5" depart="57669.00" departLane="399835085#1_1" departPos="5.10" departSpeed="0.00" departDelay="0.00" arrival="57751.00" arrivalLane="-315358254#1_1" arrivalPos="137.16" arrivalSpeed="14.14" duration="82.00" routeLength="659.33" waitingTime="0.00" waitingCount="0" stopTime="0.00" timeLoss="10.68" rerouteNo="1" devices="tripinfo_h5979c1:5 routing_h5979c1:5 emissions_h5979c1:5" vType="default_016" speedFactor="1.02" vaporized="">
        <emissions CO_abs="3427.720927" CO2_abs="183039.736245" HC_abs="19.835928" PMx_abs="3.034702" NOx_abs="74.232558" fuel_abs="78.681709" electricity_abs="0"/>
    </tripinfo>
    <tripinfo id="h4538c1:1" depart="57701.00" departLane="-10427692#1_1" departPos="5.10" departSpeed="0.00" departDelay="0.00" arrival="57756.00" arrivalLane="-128361102#1_1" arrivalPos="274.68" arrivalSpeed="12.69" duration="55.00" routeLength="440.74" waitingTime="13.00" waitingCount="1" stopTime="0.00" timeLoss="23.34" rerouteNo="1" devices="tripinfo_h4538c1:1 routing_h4538c1:1 emissions_h4538c1:1" vType="default_016" speedFactor="0.99" vaporized="">
        <emissions CO_abs="3359.268237" CO2_abs="142231.569960" HC_abs="18.621934" PMx_abs="2.585641" NOx_abs="58.454054" fuel_abs="61.140177" electricity_abs="0"/>
    </tripinfo>
    <tripinfo id="h3568c1:3" depart="57656.00" departLane="266565295#5_1" departPos="5.10" departSpeed="0.00" departDelay="0.80" arrival="57766.00" arrivalLane="-24634415_1" arrivalPos="62.03" arrivalSpeed="13.41" duration="110.00" routeLength="807.40" waitingTime="24.00" waitingCount="2" stopTime="0.00" timeLoss="46.46" rerouteNo="1" devices="tripinfo_h3568c1:3 routing_h3568c1:3 emissions_h3568c1:3" vType="default_016" speedFactor="1.02" vaporized="">
        <emissions CO_abs="7439.672233" CO2_abs="323268.280878" HC_abs="41.491699" PMx_abs="6.286017" NOx_abs="136.372686" fuel_abs="138.960386" electricity_abs="0"/>
    </tripinfo>
    <tripinfo id="carIn27009:1" depart="57673.00" departLane="-447569998#1_1" departPos="5.10" departSpeed="0.00" departDelay="0.50" arrival="57768.00" arrivalLane="-26677539_1" arrivalPos="152.75" arrivalSpeed="7.22" duration="95.00" routeLength="699.63" waitingTime="0.00" waitingCount="0" stopTime="0.00" timeLoss="10.63" rerouteNo="1" devices="tripinfo_carIn27009:1 routing_carIn27009:1 emissions_carIn27009:1" vType="default_015" speedFactor="0.99" vaporized="">
        <emissions CO_abs="3709.374577" CO2_abs="178972.548836" HC_abs="20.984228" PMx_abs="2.802223" NOx_abs="71.942231" fuel_abs="76.933898" electricity_abs="0"/>
    </tripinfo>
    <tripinfo id="h11737c1:1" depart="57665.00" departLane="272042143_1" departPos="5.10" departSpeed="0.00" departDelay="1.50" arrival="57788.00" arrivalLane="-315358254#1_1" arrivalPos="137.16" arrivalSpeed="14.48" duration="123.00" routeLength="1596.88" waitingTime="0.00" waitingCount="0" stopTime="0.00" timeLoss="12.52" rerouteNo="1" devices="tripinfo_h11737c1:1 routing_h11737c1:1 emissions_h11737c1:1" vType="default_016" speedFactor="1.06" vaporized="">
        <emissions CO_abs="3494.170148" CO2_abs="326449.551888" HC_abs="23.425880" PMx_abs="5.127097" NOx_abs="127.029964" fuel_abs="140.326588" electricity_abs="0"/>
    </tripinfo>
    <tripinfo id="h3326c1:2" depart="57656.00" departLane="22716069#0_1" departPos="5.10" departSpeed="0.00" departDelay="0.00" arrival="57790.00" arrivalLane="24634517#13_1" arrivalPos="111.62" arrivalSpeed="10.35" duration="134.00" routeLength="1312.81" waitingTime="0.00" waitingCount="0" stopTime="0.00" timeLoss="14.86" rerouteNo="1" devices="tripinfo_h3326c1:2 routing_h3326c1:2 emissions_h3326c1:2" vType="default_016" speedFactor="0.82" vaporized="">
        <emissions CO_abs="4498.117340" CO2_abs="293093.762013" HC_abs="27.274036" PMx_abs="4.687455" NOx_abs="117.075982" fuel_abs="125.989170" electricity_abs="0"/>
    </tripinfo>
    <tripinfo id="h317c2:1" depart="57707.00" departLane="-32978638#0_1" departPos="5.10" departSpeed="0.00" departDelay="0.10" arrival="57794.00" arrivalLane="-266565295#5_1" arrivalPos="172.76" arrivalSpeed="14.27" duration="87.00" routeLength="370.53" waitingTime="51.00" waitingCount="1" stopTime="0.00" timeLoss="60.38" rerouteNo="1" devices="tripinfo_h317c2:1 routing_h317c2:1 emissions_h317c2:1" vType="default_016" speedFactor="1.03" vaporized="">
        <emissions CO_abs="9508.408155" CO2_abs="245465.826234" HC_abs="49.003368" PMx_abs="5.199643" NOx_abs="105.925352" fuel_abs="105.518837" electricity_abs="0"/>
    </tripinfo>
    <tripinfo id="h330c1:1" depart="57736.00" departLane="-32978638#0_1" departPos="5.10" departSpeed="0.00" departDelay="0.20" arrival="57796.00" arrivalLane="-266565295#5_1" arrivalPos="172.76" arrivalSpeed="15.20" duration="60.00" routeLength="370.53" waitingTime="24.00" waitingCount="1" stopTime="0.00" timeLoss="35.09" rerouteNo="1" devices="tripinfo_h330c1:1 routing_h330c1:1 emissions_h330c1:1" vType="default_016" speedFactor="1.12" vaporized="">
        <emissions CO_abs="5257.050288" CO2_abs="178798.974030" HC_abs="28.174993" PMx_abs="3.736766" NOx_abs="77.000495" fuel_abs="76.859276" electricity_abs="0"/>
    </tripinfo>
    <tripinfo id="carIn107282:1" depart="57749.00" departLane="-447569998#1_1" departPos="5.10" departSpeed="0.00" departDelay="0.00" arrival="57801.00" arrivalLane="315358242#0_1" arrivalPos="165.37" arrivalSpeed="11.38" duration="52.00" routeLength="448.50" waitingTime="0.00" waitingCount="0" stopTime="0.00" timeLoss="5.02" rerouteNo="1" devices="tripinfo_carIn107282:1 routing_carIn107282:1 emissions_carIn107282:1" vType="default_016" speedFactor="0.88" vaporized="">
        <emissions CO_abs="2045.124866" CO2_abs="112259.533430" HC_abs="11.879028" PMx_abs="1.675497" NOx_abs="44.189819" fuel_abs="48.256285" electricity_abs="0"/>
    </tripinfo>
    <tripinfo id="carIn126288:1" depart="57674.00" departLane="272042143_1" departPos="5.10" departSpeed="0.00" departDelay="0.00" arrival="57816.00" arrivalLane="-315358254#1_1" arrivalPos="137.16" arrivalSpeed="11.26" duration="142.00" routeLength="1596.88" waitingTime="0.00" waitingCount="0" stopTime="0.00" timeLoss="12.74" rerouteNo="1" devices="tripinfo_carIn126288:1 routing_carIn126288:1 emissions_carIn126288:1" vType="default_016" speedFactor="0.90" vaporized="">
        <emissions CO_abs="3891.662826" CO2_abs="312056.496382" HC_abs="24.951444" PMx_abs="4.753836" NOx_abs="121.946872" fuel_abs="134.140200" electricity_abs="0"/>
    </tripinfo>
    <tripinfo id="randUni15030:1" depart="57735.00" departLane="386687232#0_1" departPos="5.10" departSpeed="0.00" departDelay="0.10" arrival="57839.00" arrivalLane="26677539_1" arrivalPos="151.98" arrivalSpeed="7.21" duration="104.00" routeLength="919.89" waitingTime="0.00" waitingCount="0" stopTime="0.00" timeLoss="11.48" rerouteNo="1" devices="tripinfo_randUni15030:1 routing_randUni15030:1 emissions_randUni15030:1" vType="random_016" speedFactor="0.91" vaporized="">
        <emissions CO_abs="3694.435612" CO2_abs="209344.847416" HC_abs="21.631763" PMx_abs="3.220051" NOx_abs="82.965160" fuel_abs="89.989484" electricity_abs="0"/>
    </tripinfo>
    <tripinfo id="h17600c1:1" depart="57662.00" departLane="272042143_1" departPos="5.10" departSpeed="0.00" departDelay="0.30" arrival="57861.00" arrivalLane="201238729#3_1" arrivalPos="431.02" arrivalSpeed="14.58" duration="199.00" routeLength="2100.26" waitingTime="37.00" waitingCount="1" stopTime="0.00" timeLoss="55.90" rerouteNo="1" devices="tripinfo_h17600c1:1 routing_h17600c1:1 emissions_h17600c1:1" vType="default_016" speedFactor="1.06" vaporized="">
        <emissions CO_abs="9707.119141" CO2_abs="487409.009344" HC_abs="55.502504" PMx_abs="8.496254" NOx_abs="195.509506" fuel_abs="209.518646" electricity_abs="0"/>
    </tripinfo>
    <tripinfo id="carIn129809:1" depart="57729.00" departLane="-447569998#1_1" departPos="5.10" departSpeed="0.00" departDelay="1.00" arrival="57873.00" arrivalLane="-315358244_1" arrivalPos="33.95" arrivalSpeed="13.09" duration="144.00" routeLength="706.49" waitingTime="72.00" waitingCount="1" stopTime="0.00" timeLoss="84.24" rerouteNo="1" devices="tripinfo_carIn129809:1 routing_carIn129809:1 emissions_carIn129809:1" vType="default_015" speedFactor="1.01" vaporized="">
        <emissions CO_abs="13630.929871" CO2_abs="351088.066478" HC_abs="70.286329" PMx_abs="7.330246" NOx_abs="151.102044" fuel_abs="150.923035" electricity_abs="0"/>
    </tripinfo>
    <tripinfo id="carIn8642:1" depart="57774.00" departLane="-447569998#1_1" departPos="5.10" departSpeed="0.00" departDelay="0.90" arrival="57874.00" arrivalLane="-315358244_2" arrivalPos="33.95" arrivalSpeed="15.44" duration="100.00" routeLength="706.49" waitingTime="33.00" waitingCount="1" stopTime="0.00" timeLoss="45.82" rerouteNo="1" devices="tripinfo_carIn8642:1 routing_carIn8642:1 emissions_carIn8642:1" vType="default_016" speedFactor="1.12" vaporized="">
        <emissions CO_abs="8079.259274" CO2_abs="271410.671015" HC_abs="43.078805" PMx_abs="5.445742" NOx_abs="115.026396" fuel_abs="116.670182" electricity_abs="0"/>
    </tripinfo>
    <tripinfo id="carIn70533:1" depart="57812.00" departLane="-447569998#1_1" departPos="5.10" departSpeed="0.00" departDelay="0.10" arrival="57875.00" arrivalLane="-315358244_1" arrivalPos="33.95" arrivalSpeed="14.18" duration="63.00" routeLength="706.49" waitingTime="0.00" waitingCount="0" stopTime="0.00" timeLoss="7.58" rerouteNo="1" devices="tripinfo_carIn70533:1 routing_carIn70533:1 emissions_carIn70533:1" vType="default_016" speedFactor="1.10" vaporized="">
        <emissions CO_abs="2190.540289" CO2_abs="159466.434001" HC_abs="13.631496" PMx_abs="2.634514" NOx_abs="63.394682" fuel_abs="68.547905" electricity_abs="0"/>
    </tripinfo>
    <tripinfo id="carIn80064:1" depart="57603.00" departLane="128361109#1_1" departPos="5.10" departSpeed="0.00" departDelay="0.40" arrival="57887.00" arrivalLane="-315358254#1_1" arrivalPos="137.16" arrivalSpeed="13.28" duration="284.00" routeLength="1587.97" waitingTime="167.00" waitingCount="2" stopTime="0.00" timeLoss="196.19" rerouteNo="1" devices="tripinfo_carIn80064:1 routing_carIn80064:1 emissions_carIn80064:1" vType="default_016" speedFactor="1.02" vaporized="">
        <emissions CO_abs="33046.575978" CO2_abs="899173.931371" HC_abs="171.866948" PMx_abs="20.014997" NOx_abs="391.418435" fuel_abs="386.526847" electricity_abs="0"/>
    </tripinfo>
    <tripinfo id="carIn21399:1" depart="57771.00" departLane="128361109#1_1" departPos="5.10" departSpeed="0.00" departDelay="3.30" arrival="57890.00" arrivalLane="-315358254#1_1" arrivalPos="137.16" arrivalSpeed="13.56" duration="119.00" routeLength="1587.97" waitingTime="0.00" waitingCount="0" stopTime="0.00" timeLoss="29.43" rerouteNo="1" devices="tripinfo_carIn21399:1 routing_carIn21399:1 emissions_carIn21399:1" vType="default_016" speedFactor="1.00" vaporized="">
        <emissions CO_abs="7073.766620" CO2_abs="474228.380593" HC_abs="43.599036" PMx_abs="9.363135" NOx_abs="197.620164" fuel_abs="203.849078" electricity_abs="0"/>
    </tripinfo>
    <tripinfo id="randUni23028:1" depart="57884.00" departLane="124812856#0_1" departPos="5.10" departSpeed="0.00" departDelay="0.10" arrival="57900.00" arrivalLane="201956810_1" arrivalPos="71.65" arrivalSpeed="11.88" duration="16.00" routeLength="134.91" waitingTime="0.00" waitingCount="0" stopTime="0.00" timeLoss="4.29" rerouteNo="1" devices="tripinfo_randUni23028:1 routing_randUni23028:1 emissions_randUni23028:1" vType="random_016" speedFactor="0.91" vaporized="">
        <emissions CO_abs="1242.469546" CO2_abs="61064.906684" HC_abs="7.096051" PMx_abs="1.161913" NOx_abs="25.788283" fuel_abs="26.249294" electricity_abs="0"/>
    </tripinfo>
    <tripinfo id="carIn13443:1" depart="57729.00" departLane="272042143_1" departPos="5.10" departSpeed="0.00" departDelay="0.80" arrival="57906.00" arrivalLane="399835085#1_1" arrivalPos="212.23" arrivalSpeed="7.38" duration="177.00" routeLength="1757.45" waitingTime="0.00" waitingCount="0" stopTime="0.00" timeLoss="18.34" rerouteNo="1" devices="tripinfo_carIn13443:1 routing_carIn13443:1 emissions_carIn13443:1" vType="default_016" speedFactor="0.90" vaporized="">
        <emissions CO_abs="5304.133101" CO2_abs="357682.948003" HC_abs="32.395028" PMx_abs="5.415907" NOx_abs="140.434313" fuel_abs="153.753808" electricity_abs="0"/>
    </tripinfo>
    <tripinfo id="carIn132499:1" depart="57740.00" departLane="272042143_1" departPos="5.10" departSpeed="0.00" departDelay="0.70" arrival="57909.00" arrivalLane="201238729#3_1" arrivalPos="431.02" arrivalSpeed="13.10" duration="169.00" routeLength="2100.26" waitingTime="0.00" waitingCount="0" stopTime="0.00" timeLoss="12.27" rerouteNo="1" devices="tripinfo_carIn132499:1 routing_carIn132499:1 emissions_carIn132499:1" vType="default_016" speedFactor="0.97" vaporized="">
        <emissions CO_abs="3718.629264" CO2_abs="351573.990733" HC_abs="25.100620" PMx_abs="5.333468" NOx_abs="136.095951" fuel_abs="151.126720" electricity_abs="0"/>
    </tripinfo>
    <tripinfo id="carIn13353:1" depart="57838.00" departLane="-447569998#1_1" departPos="5.10" departSpeed="0.00" departDelay="0.30" arrival="57912.00" arrivalLane="-315358244_1" arrivalPos="33.95" arrivalSpeed="12.83" duration="74.00" routeLength="706.49" waitingTime="0.00" waitingCount="0" stopTime="0.00" timeLoss="8.84" rerouteNo="1" devices="tripinfo_carIn13353:1 routing_carIn13353:1 emissions_carIn13353:1" vType="default_016" speedFactor="0.93" vaporized="">
        <emissions CO_abs="2744.144265" CO2_abs="169694.993718" HC_abs="16.434546" PMx_abs="2.763572" NOx_abs="68.009447" fuel_abs="72.945077" electricity_abs="0"/>
    </tripinfo>
    <tripinfo id="carIn63848:1" depart="57841.00" departLane="-447569998#1_1" departPos="5.10" departSpeed="0.00" departDelay="0.80" arrival="57914.00" arrivalLane="-315358244_2" arrivalPos="33.95" arrivalSpeed="14.89" duration="73.00" routeLength="706.49" waitingTime="1.00" waitingCount="1" stopTime="0.00" timeLoss="16.85" rerouteNo="1" devices="tripinfo_carIn63848:1 routing_carIn63848:1 emissions_carIn63848:1" vType="default_016" speedFactor="1.08" vaporized="">
        <emissions CO_abs="3152.658848" CO2_abs="200817.336425" HC_abs="19.025103" PMx_abs="3.464385" NOx_abs="81.134647" fuel_abs="86.323003" electricity_abs="0"/>
    </tripinfo>
    <tripinfo id="carIn81681:1" depart="57726.00" departLane="272042143_1" departPos="5.10" departSpeed="0.00" departDelay="0.30" arrival="57922.00" arrivalLane="306240162#0_0" arrivalPos="220.43" arrivalSpeed="14.30" duration="196.00" routeLength="2246.89" waitingTime="1.00" waitingCount="1" stopTime="0.00" timeLoss="27.76" rerouteNo="1" devices="tripinfo_carIn81681:1 routing_carIn81681:1 emissions_carIn81681:1" vType="default_016" speedFactor="0.88" vaporized="">
        <emissions CO_abs="6380.983607" CO2_abs="491672.982193" HC_abs="40.461497" PMx_abs="8.056416" NOx_abs="194.946747" fuel_abs="211.349326" electricity_abs="0"/>
    </tripinfo>
    <tripinfo id="carIn80913:1" depart="57732.00" departLane="272042143_1" departPos="5.10" departSpeed="0.00" departDelay="0.40" arrival="57923.00" arrivalLane="306240162#0_0" arrivalPos="220.43" arrivalSpeed="15.19" duration="191.00" routeLength="2246.89" waitingTime="0.00" waitingCount="0" stopTime="0.00" timeLoss="76.34" rerouteNo="1" devices="tripinfo_carIn80913:1 routing_carIn80913:1 emissions_carIn80913:1" vType="default_016" speedFactor="1.28" vaporized="">
        <emissions CO_abs="8235.538002" CO2_abs="580478.661162" HC_abs="51.203220" PMx_abs="10.577307" NOx_abs="237.929992" fuel_abs="249.522007" electricity_abs="0"/>
    </tripinfo>
    <tripinfo id="carIn24709:1" depart="57753.00" departLane="266565295#5_1" departPos="5.10" departSpeed="0.00" departDelay="2.50" arrival="57924.00" arrivalLane="-24634506#2_1" arrivalPos="71.32" arrivalSpeed="14.10" duration="171.00" routeLength="1450.12" waitingTime="35.00" waitingCount="2" stopTime="0.00" timeLoss="62.08" rerouteNo="1" devices="tripinfo_carIn24709:1 routing_carIn24709:1 emissions_carIn24709:1" vType="default_016" speedFactor="1.09" vaporized="">
        <emissions CO_abs="9764.022161" CO2_abs="434726.565302" HC_abs="54.523237" PMx_abs="8.075851" NOx_abs="179.662146" fuel_abs="186.872422" electricity_abs="0"/>
    </tripinfo>
    <tripinfo id="carIn101266:1" depart="57737.00" departLane="272042143_1" departPos="5.10" departSpeed="0.00" departDelay="0.50" arrival="57925.00" arrivalLane="306240162#0_0" arrivalPos="220.43" arrivalSpeed="17.88" duration="188.00" routeLength="2246.89" waitingTime="1.00" waitingCount="1" stopTime="0.00" timeLoss="51.72" rerouteNo="1" devices="tripinfo_carIn101266:1 routing_carIn101266:1 emissions_carIn101266:1" vType="default_016" speedFactor="1.09" vaporized="">
        <emissions CO_abs="9035.696530" CO2_abs="635226.088476" HC_abs="56.222680" PMx_abs="11.774791" NOx_abs="261.109279" fuel_abs="273.055275" electricity_abs="0"/>
    </tripinfo>
    <tripinfo id="carIn14532:1" depart="57743.00" departLane="272042143_1" departPos="5.10" departSpeed="0.00" departDelay="1.90" arrival="57931.00" arrivalLane="399835085#1_1" arrivalPos="212.23" arrivalSpeed="6.52" duration="188.00" routeLength="1757.45" waitingTime="6.00" waitingCount="1" stopTime="0.00" timeLoss="25.76" rerouteNo="1" devices="tripinfo_carIn14532:1 routing_carIn14532:1 emissions_carIn14532:1" vType="default_016" speedFactor="0.88" vaporized="">
        <emissions CO_abs="5756.250110" CO2_abs="364760.923543" HC_abs="34.632018" PMx_abs="5.657862" NOx_abs="144.098611" fuel_abs="156.796441" electricity_abs="0"/>
    </tripinfo>
    <tripinfo id="h3426c1:1" depart="57864.00" departLane="-160314345#2_1" departPos="5.10" departSpeed="0.00" departDelay="0.00" arrival="57935.00" arrivalLane="386687235_1" arrivalPos="80.84" arrivalSpeed="13.67" duration="71.00" routeLength="726.87" waitingTime="0.00" waitingCount="0" stopTime="0.00" timeLoss="7.35" rerouteNo="1" devices="tripinfo_h3426c1:1 routing_h3426c1:1 emissions_h3426c1:1" vType="default_016" speedFactor="1.07" vaporized="">
        <emissions CO_abs="2307.329383" CO2_abs="159169.935759" HC_abs="14.151535" PMx_abs="2.510899" NOx_abs="62.721580" fuel_abs="68.420720" electricity_abs="0"/>
    </tripinfo>
    <tripinfo id="carIn115169:1" depart="57759.00" departLane="24599188#0.94_1" departPos="5.10" departSpeed="0.00" departDelay="0.50" arrival="57941.00" arrivalLane="-10427692#3_1" arrivalPos="28.64" arrivalSpeed="23.91" duration="182.00" routeLength="2183.23" waitingTime="0.00" waitingCount="0" stopTime="0.00" timeLoss="26.86" rerouteNo="1" devices="tripinfo_carIn115169:1 routing_carIn115169:1 emissions_carIn115169:1" vType="default_016" speedFactor="1.09" vaporized="">
        <emissions CO_abs="7333.598708" CO2_abs="547272.561620" HC_abs="46.111883" PMx_abs="9.517138" NOx_abs="220.333319" fuel_abs="235.248588" electricity_abs="0"/>
    </tripinfo>
    <tripinfo id="h19804c1:3" depart="57617.00" departLane="124812856#0_1" departPos="5.10" departSpeed="0.00" departDelay="1.50" arrival="57943.00" arrivalLane="-128361102#1_1" arrivalPos="274.68" arrivalSpeed="14.19" duration="326.00" routeLength="2250.49" waitingTime="136.00" waitingCount="4" stopTime="0.00" timeLoss="177.55" rerouteNo="1" devices="tripinfo_h19804c1:3 routing_h19804c1:3 emissions_h19804c1:3" vType="default_016" speedFactor="1.10" vaporized="">
        <emissions CO_abs="27252.126041" CO2_abs="878995.880544" HC_abs="144.665222" PMx_abs="18.116410" NOx_abs="374.928229" fuel_abs="377.850615" electricity_abs="0"/>
    </tripinfo>
    <tripinfo id="carIn9695:1" depart="57822.00" departLane="272042143_1" departPos="5.10" departSpeed="0.00" departDelay="0.80" arrival="57946.00" arrivalLane="-315358254#1_1" arrivalPos="137.16" arrivalSpeed="14.51" duration="124.00" routeLength="1596.88" waitingTime="0.00" waitingCount="0" stopTime="0.00" timeLoss="12.76" rerouteNo="1" devices="tripinfo_carIn9695:1 routing_carIn9695:1 emissions_carIn9695:1" vType="default_016" speedFactor="1.05" vaporized="">
        <emissions CO_abs="3598.755861" CO2_abs="328054.066634" HC_abs="23.956056" PMx_abs="5.261371" NOx_abs="128.430920" fuel_abs="141.016201" electricity_abs="0"/>
    </tripinfo>
    <tripinfo id="carIn107084:1" depart="57601.00" departLane="124812856#0_1" departPos="5.10" departSpeed="0.00" departDelay="0.70" arrival="57948.00" arrivalLane="-128361102#1_1" arrivalPos="274.68" arrivalSpeed="13.23" duration="347.00" routeLength="2250.49" waitingTime="146.00" waitingCount="3" stopTime="0.00" timeLoss="179.13" rerouteNo="1" devices="tripinfo_carIn107084:1 routing_carIn107084:1 emissions_carIn107084:1" vType="default_016" speedFactor="0.98" vaporized="">
        <emissions CO_abs="28495.933434" CO2_abs="883809.508392" HC_abs="150.447282" PMx_abs="17.526070" NOx_abs="372.925650" fuel_abs="379.921813" electricity_abs="0"/>
    </tripinfo>
    <tripinfo id="h17549c1:1" depart="57680.00" departLane="-447569998#1_1" departPos="5.10" departSpeed="0.00" departDelay="0.00" arrival="57949.00" arrivalLane="-315358254#1_1" arrivalPos="137.16" arrivalSpeed="14.72" duration="269.00" routeLength="1743.98" waitingTime="123.00" waitingCount="1" stopTime="0.00" timeLoss="142.71" rerouteNo="1" devices="tripinfo_h17549c1:1 routing_h17549c1:1 emissions_h17549c1:1" vType="default_016" speedFactor="1.08" vaporized="">
        <emissions CO_abs="23837.698096" CO2_abs="688081.570344" HC_abs="124.538599" PMx_abs="13.864339" NOx_abs="290.716125" fuel_abs="295.785714" electricity_abs="0"/>
    </tripinfo>
    <tripinfo id="h15382c1:3" depart="57626.00" departLane="124812856#0_1" departPos="5.10" departSpeed="0.00" departDelay="3.80" arrival="57950.00" arrivalLane="-128361102#1_1" arrivalPos="274.68" arrivalSpeed="14.82" duration="324.00" routeLength="2250.49" waitingTime="104.00" waitingCount="5" stopTime="0.00" timeLoss="179.08" rerouteNo="1" devices="tripinfo_h15382c1:3 routing_h15382c1:3 emissions_h15382c1:3" vType="default_016" speedFactor="1.14" vaporized="">
        <emissions CO_abs="24985.784511" CO2_abs="886206.389226" HC_abs="134.643667" PMx_abs="17.773274" NOx_abs="375.828430" fuel_abs="380.948716" electricity_abs="0"/>
    </tripinfo>
    <tripinfo id="carIn106296:1" depart="57767.00" departLane="124812856#0_1" departPos="5.10" departSpeed="0.00" departDelay="0.00" arrival="57952.00" arrivalLane="18809673#0_1" arrivalPos="473.56" arrivalSpeed="13.26" duration="185.00" routeLength="2096.90" waitingTime="14.00" waitingCount="1" stopTime="0.00" timeLoss="32.79" rerouteNo="1" devices="tripinfo_carIn106296:1 routing_carIn106296:1 emissions_carIn106296:1" vType="default_016" speedFactor="1.02" vaporized="">
        <emissions CO_abs="6166.005584" CO2_abs="454490.771543" HC_abs="38.617127" PMx_abs="7.400631" NOx_abs="179.352441" fuel_abs="195.366632" electricity_abs="0"/>
    </tripinfo>
    <tripinfo id="carIn104643:1" depart="57774.00" departLane="124812856#0_1" departPos="5.10" departSpeed="0.00" departDelay="0.50" arrival="57954.00" arrivalLane="18809673#0_1" arrivalPos="473.56" arrivalSpeed="15.40" duration="180.00" routeLength="2096.90" waitingTime="12.00" waitingCount="1" stopTime="0.00" timeLoss="42.87" rerouteNo="1" devices="tripinfo_carIn104643:1 routing_carIn104643:1 emissions_carIn104643:1" vType="default_016" speedFactor="1.13" vaporized="">
        <emissions CO_abs="6923.931294" CO2_abs="474567.429796" HC_abs="42.666580" PMx_abs="8.391442" NOx_abs="191.899659" fuel_abs="203.996121" electricity_abs="0"/>
    </tripinfo>
    <tripinfo id="h13377c2:3" depart="57804.00" departLane="315358244_1" departPos="5.10" departSpeed="0.00" departDelay="0.60" arrival="57959.00" arrivalLane="447569997#1_1" arrivalPos="180.93" arrivalSpeed="8.50" duration="155.00" routeLength="726.74" waitingTime="72.00" waitingCount="2" stopTime="0.00" timeLoss="91.69" rerouteNo="1" devices="tripinfo_h13377c2:3 routing_h13377c2:3 emissions_h13377c2:3" vType="default_016" speedFactor="1.06" vaporized="">
        <emissions CO_abs="14669.724933" CO2_abs="361263.406185" HC_abs="75.207030" PMx_abs="7.514338" NOx_abs="155.394652" fuel_abs="155.297711" electricity_abs="0"/>
    </tripinfo>
    <tripinfo id="randUni3548:1" depart="57726.00" departLane="-447569998#1_1" departPos="5.10" departSpeed="0.00" departDelay="0.00" arrival="57962.00" arrivalLane="-315358254#1_1" arrivalPos="137.16" arrivalSpeed="12.87" duration="236.00" routeLength="1746.60" waitingTime="78.00" waitingCount="1" stopTime="0.00" timeLoss="98.94" rerouteNo="1" devices="tripinfo_randUni3548:1 routing_randUni3548:1 emissions_randUni3548:1" vType="random_016" speedFactor="1.00" vaporized="">
        <emissions CO_abs="17434.854123" CO2_abs="557982.139329" HC_abs="92.457062" PMx_abs="10.975827" NOx_abs="235.045835" fuel_abs="239.858554" electricity_abs="0"/>
    </tripinfo>
    <tripinfo id="carIn95912:1" depart="57825.00" departLane="272042143_1" departPos="5.10" departSpeed="0.00" departDelay="1.40" arrival="57966.00" arrivalLane="201238729#3_1" arrivalPos="431.02" arrivalSpeed="15.94" duration="141.00" routeLength="2100.26" waitingTime="0.00" waitingCount="0" stopTime="0.00" timeLoss="12.80" rerouteNo="1" devices="tripinfo_carIn95912:1 routing_carIn95912:1 emissions_carIn95912:1" vType="default_016" speedFactor="1.18" vaporized="">