<?xml version="1.0" encoding="UTF-8"?>

<!-- generated on Thu Nov  4 13:48:17 2021 by Eclipse SUMO sumo Version 1.9.0
<configuration xmlns:xsi="http://www.w3.org/2001/XMLSchema-instance" xsi:noNamespaceSchemaLocation="http://sumo.dlr.de/xsd/sumoConfiguration.xsd">

    <input>
        <net-file value="/mainfs/home/bk2g18/RESCO/environments/ingolstadt21/ingolstadt21.net.xml"/>
        <route-files value="/mainfs/home/bk2g18/RESCO/environments/ingolstadt21/ingolstadt21.rou.xml"/>
    </input>

    <output>
        <tripinfo-output value="/mainfs/home/bk2g18/RESCO/logs/MPLight-tr0-ingolstadt21-21-mplight_full-pressure/tripinfo_50.xml"/>
        <tripinfo-output.write-unfinished value="true"/>
    </output>

    <time>
        <begin value="57600"/>
        <end value="61200"/>
    </time>

    <processing>
        <time-to-teleport value="-1"/>
    </processing>

    <report>
        <xml-validation value="never"/>
        <xml-validation.routes value="never"/>
        <no-warnings value="true"/>
        <no-step-log value="true"/>
    </report>

    <emissions>
        <device.emissions.probability value="1"/>
    </emissions>

    <traci_server>
        <remote-port value="36207"/>
    </traci_server>

    <random_number>
        <random value="true"/>
    </random_number>

</configuration>
-->

<tripinfos xmlns:xsi="http://www.w3.org/2001/XMLSchema-instance" xsi:noNamespaceSchemaLocation="http://sumo.dlr.de/xsd/tripinfo_file.xsd">
    <tripinfo id="h15454c2:3" depart="57612.00" departLane="24608844_1" departPos="5.10" departSpeed="0.00" departDelay="0.50" arrival="57661.00" arrivalLane="32978638#0_1" arrivalPos="49.29" arrivalSpeed="11.69" duration="49.00" routeLength="354.79" waitingTime="3.00" waitingCount="1" stopTime="0.00" timeLoss="11.43" rerouteNo="1" devices="tripinfo_h15454c2:3 routing_h15454c2:3 emissions_h15454c2:3" vType="default_016" speedFactor="0.92" vaporized="">
        <emissions CO_abs="2149.317951" CO2_abs="105910.532174" HC_abs="12.239772" PMx_abs="1.790951" NOx_abs="43.206185" fuel_abs="45.526931" electricity_abs="0"/>
    </tripinfo>
    <tripinfo id="carIn60260:1" depart="57606.00" departLane="315358254#0_1" departPos="5.10" departSpeed="0.00" departDelay="0.90" arrival="57698.00" arrivalLane="399835085#1_1" arrivalPos="212.23" arrivalSpeed="5.36" duration="92.00" routeLength="430.98" waitingTime="31.00" waitingCount="1" stopTime="0.00" timeLoss="43.31" rerouteNo="1" devices="tripinfo_carIn60260:1 routing_carIn60260:1 emissions_carIn60260:1" vType="default_016" speedFactor="0.94" vaporized="">
        <emissions CO_abs="6951.296016" CO2_abs="197344.272785" HC_abs="36.240929" PMx_abs="3.900978" NOx_abs="84.207876" fuel_abs="84.832491" electricity_abs="0"/>
    </tripinfo>
    <tripinfo id="carIn53971:1" depart="57640.00" departLane="272042143_1" departPos="5.10" departSpeed="0.00" departDelay="0.80" arrival="57699.00" arrivalLane="24634414#1_1" arrivalPos="162.19" arrivalSpeed="7.19" duration="59.00" routeLength="493.04" waitingTime="0.00" waitingCount="0" stopTime="0.00" timeLoss="9.43" rerouteNo="1" devices="tripinfo_carIn53971:1 routing_carIn53971:1 emissions_carIn53971:1" vType="default_016" speedFactor="0.92" vaporized="">
        <emissions CO_abs="2530.593241" CO2_abs="135956.437550" HC_abs="14.686240" PMx_abs="2.330981" NOx_abs="55.582231" fuel_abs="58.442294" electricity_abs="0"/>
    </tripinfo>
    <tripinfo id="h7800c1:5" depart="57696.00" departLane="-447569998#1_1" departPos="5.10" departSpeed="0.00" departDelay="0.00" arrival="57725.00" arrivalLane="-447569998#1_2" arrivalPos="180.76" arrivalSpeed="3.29" duration="29.00" routeLength="175.66" waitingTime="0.00" waitingCount="0" stopTime="0.00" timeLoss="6.93" rerouteNo="1" devices="tripinfo_h7800c1:5 routing_h7800c1:5 emissions_h7800c1:5" vType="default_016" speedFactor="0.96" vaporized="">
        <emissions CO_abs="1561.165323" CO2_abs="60250.216062" HC_abs="8.497581" PMx_abs="1.053059" NOx_abs="24.986136" fuel_abs="25.899507" electricity_abs="0"/>
    </tripinfo>
    <tripinfo id="carIn22761:1" depart="57616.00" departLane="-306240162#1_0" departPos="5.10" departSpeed="0.00" departDelay="2.10" arrival="57734.00" arrivalLane="399835085#1_1" arrivalPos="212.23" arrivalSpeed="8.00" duration="118.00" routeLength="1093.26" waitingTime="16.00" waitingCount="1" stopTime="0.00" timeLoss="39.29" rerouteNo="1" devices="tripinfo_carIn22761:1 routing_carIn22761:1 emissions_carIn22761:1" vType="default_016" speedFactor="1.00" vaporized="">
        <emissions CO_abs="7110.624895" CO2_abs="362843.118447" HC_abs="40.965941" PMx_abs="6.921915" NOx_abs="150.189461" fuel_abs="155.971413" electricity_abs="0"/>
    </tripinfo>
    <tripinfo id="h4538c1:1" depart="57701.00" departLane="-10427692#1_1" departPos="5.10" departSpeed="0.00" departDelay="0.00" arrival="57735.00" arrivalLane="-128361102#1_1" arrivalPos="274.68" arrivalSpeed="16.21" duration="34.00" routeLength="440.74" waitingTime="0.00" waitingCount="0" stopTime="0.00" timeLoss="6.02" rerouteNo="1" devices="tripinfo_h4538c1:1 routing_h4538c1:1 emissions_h4538c1:1" vType="default_016" speedFactor="1.17" vaporized="">
        <emissions CO_abs="1373.709599" CO2_abs="112991.222522" HC_abs="8.791122" PMx_abs="1.895575" NOx_abs="44.562048" fuel_abs="48.570014" electricity_abs="0"/>
    </tripinfo>
    <tripinfo id="h317c2:1" depart="57707.00" departLane="-32978638#0_1" departPos="5.10" departSpeed="0.00" departDelay="0.10" arrival="57741.00" arrivalLane="-266565295#5_1" arrivalPos="172.76" arrivalSpeed="12.56" duration="34.00" routeLength="370.53" waitingTime="0.00" waitingCount="0" stopTime="0.00" timeLoss="5.48" rerouteNo="1" devices="tripinfo_h317c2:1 routing_h317c2:1 emissions_h317c2:1" vType="default_016" speedFactor="0.96" vaporized="">
        <emissions CO_abs="1649.410758" CO2_abs="106112.572769" HC_abs="10.001179" PMx_abs="1.847119" NOx_abs="43.135806" fuel_abs="45.613321" electricity_abs="0"/>
    </tripinfo>
    <tripinfo id="h3688c1:1" depart="57625.00" departLane="201201950#1_1" departPos="5.10" departSpeed="0.00" departDelay="0.00" arrival="57744.00" arrivalLane="32978638#0_1" arrivalPos="49.29" arrivalSpeed="13.51" duration="119.00" routeLength="1089.75" waitingTime="25.00" waitingCount="2" stopTime="0.00" timeLoss="43.93" rerouteNo="1" devices="tripinfo_h3688c1:1 routing_h3688c1:1 emissions_h3688c1:1" vType="default_016" speedFactor="1.06" vaporized="">
        <emissions CO_abs="7186.054028" CO2_abs="329496.066399" HC_abs="40.376795" PMx_abs="6.197289" NOx_abs="136.391371" fuel_abs="141.637561" electricity_abs="0"/>
    </tripinfo>
    <tripinfo id="h5979c1:5" depart="57669.00" departLane="399835085#1_1" departPos="5.10" departSpeed="0.00" departDelay="0.00" arrival="57758.00" arrivalLane="-315358254#1_1" arrivalPos="137.16" arrivalSpeed="13.03" duration="89.00" routeLength="659.33" waitingTime="0.00" waitingCount="0" stopTime="0.00" timeLoss="16.22" rerouteNo="1" devices="tripinfo_h5979c1:5 routing_h5979c1:5 emissions_h5979c1:5" vType="default_016" speedFactor="1.01" vaporized="">
        <emissions CO_abs="3642.256534" CO2_abs="175112.193428" HC_abs="20.636854" PMx_abs="2.968354" NOx_abs="71.641010" fuel_abs="75.274156" electricity_abs="0"/>
    </tripinfo>
    <tripinfo id="h3568c1:3" depart="57656.00" departLane="266565295#5_1" departPos="5.10" departSpeed="0.00" departDelay="0.80" arrival="57768.00" arrivalLane="-24634415_1" arrivalPos="62.03" arrivalSpeed="12.43" duration="112.00" routeLength="807.40" waitingTime="24.00" waitingCount="1" stopTime="0.00" timeLoss="42.73" rerouteNo="1" devices="tripinfo_h3568c1:3 routing_h3568c1:3 emissions_h3568c1:3" vType="default_016" speedFactor="0.94" vaporized="">
        <emissions CO_abs="7060.934138" CO2_abs="294721.188520" HC_abs="39.029785" PMx_abs="5.350442" NOx_abs="121.643146" fuel_abs="126.689954" electricity_abs="0"/>
    </tripinfo>
    <tripinfo id="h330c1:1" depart="57736.00" departLane="-32978638#0_1" departPos="5.10" departSpeed="0.00" departDelay="0.20" arrival="57774.00" arrivalLane="-266565295#5_1" arrivalPos="172.76" arrivalSpeed="14.09" duration="38.00" routeLength="370.53" waitingTime="3.00" waitingCount="1" stopTime="0.00" timeLoss="11.85" rerouteNo="1" devices="tripinfo_h330c1:1 routing_h330c1:1 emissions_h330c1:1" vType="default_016" speedFactor="1.06" vaporized="">
        <emissions CO_abs="2155.184128" CO2_abs="131045.055656" HC_abs="12.878103" PMx_abs="2.397938" NOx_abs="53.913984" fuel_abs="56.330672" electricity_abs="0"/>
    </tripinfo>
    <tripinfo id="S5R_frequency1.2" depart="57615.00" departLane="315358250#0_1" departPos="12.10" departSpeed="0.00" departDelay="3.40" arrival="57779.00" arrivalLane="386687235_1" arrivalPos="80.84" arrivalSpeed="13.83" duration="164.00" routeLength="1115.62" waitingTime="56.00" waitingCount="2" stopTime="0.00" timeLoss="81.87" rerouteNo="1" devices="tripinfo_S5R_frequency1.2 routing_S5R_frequency1.2 emissions_S5R_frequency1.2" vType="bus" speedFactor="1.00" vaporized="">
        <emissions CO_abs="3271.405068" CO2_abs="1718992.384162" HC_abs="703.908634" PMx_abs="342.857856" NOx_abs="14241.772838" fuel_abs="733.014393" electricity_abs="0"/>
    </tripinfo>
    <tripinfo id="carIn80064:1" depart="57603.00" departLane="128361109#1_1" departPos="5.10" departSpeed="0.00" departDelay="0.40" arrival="57788.00" arrivalLane="-315358254#1_1" arrivalPos="137.16" arrivalSpeed="13.11" duration="185.00" routeLength="1587.97" waitingTime="59.00" waitingCount="3" stopTime="0.00" timeLoss="92.12" rerouteNo="1" devices="tripinfo_carIn80064:1 routing_carIn80064:1 emissions_carIn80064:1" vType="default_016" speedFactor="0.97" vaporized="">
        <emissions CO_abs="14839.849206" CO2_abs="608804.154910" HC_abs="82.097317" PMx_abs="12.513385" NOx_abs="257.906539" fuel_abs="261.701112" electricity_abs="0"/>
    </tripinfo>
    <tripinfo id="h3326c1:2" depart="57656.00" departLane="22716069#0_1" departPos="5.10" departSpeed="0.00" departDelay="0.00" arrival="57788.00" arrivalLane="24634517#13_1" arrivalPos="111.62" arrivalSpeed="11.23" duration="132.00" routeLength="1312.81" waitingTime="0.00" waitingCount="0" stopTime="0.00" timeLoss="14.26" rerouteNo="1" devices="tripinfo_h3326c1:2 routing_h3326c1:2 emissions_h3326c1:2" vType="default_016" speedFactor="0.83" vaporized="">
        <emissions CO_abs="4524.852067" CO2_abs="299219.924364" HC_abs="27.540651" PMx_abs="4.785262" NOx_abs="119.462982" fuel_abs="128.622509" electricity_abs="0"/>
    </tripinfo>
    <tripinfo id="h7181c1:1" depart="57660.00" departLane="315358254#0_1" departPos="5.10" departSpeed="0.00" departDelay="0.10" arrival="57791.00" arrivalLane="306240162#0_0" arrivalPos="220.43" arrivalSpeed="16.64" duration="131.00" routeLength="932.35" waitingTime="54.00" waitingCount="3" stopTime="0.00" timeLoss="79.80" rerouteNo="1" devices="tripinfo_h7181c1:1 routing_h7181c1:1 emissions_h7181c1:1" vType="default_016" speedFactor="1.01" vaporized="">
        <emissions CO_abs="12962.862860" CO2_abs="453958.833614" HC_abs="69.789517" PMx_abs="9.645669" NOx_abs="194.635970" fuel_abs="195.140260" electricity_abs="0"/>
    </tripinfo>
    <tripinfo id="carIn129809:1" depart="57729.00" departLane="-447569998#1_1" departPos="5.10" departSpeed="0.00" departDelay="1.00" arrival="57791.00" arrivalLane="-315358244_2" arrivalPos="33.95" arrivalSpeed="15.96" duration="62.00" routeLength="706.49" waitingTime="0.00" waitingCount="0" stopTime="0.00" timeLoss="9.94" rerouteNo="1" devices="tripinfo_carIn129809:1 routing_carIn129809:1 emissions_carIn129809:1" vType="default_015" speedFactor="1.17" vaporized="">
        <emissions CO_abs="2736.537379" CO2_abs="193178.649844" HC_abs="16.966385" PMx_abs="3.306500" NOx_abs="77.563990" fuel_abs="83.039270" electricity_abs="0"/>
    </tripinfo>
    <tripinfo id="carIn121703:1" depart="57647.00" departLane="386687232#0_1" departPos="5.10" departSpeed="0.00" departDelay="0.30" arrival="57794.00" arrivalLane="-315358244_1" arrivalPos="33.95" arrivalSpeed="11.87" duration="147.00" routeLength="1157.39" waitingTime="38.00" waitingCount="2" stopTime="0.00" timeLoss="56.61" rerouteNo="1" devices="tripinfo_carIn121703:1 routing_carIn121703:1 emissions_carIn121703:1" vType="default_016" speedFactor="0.93" vaporized="">
        <emissions CO_abs="9001.740803" CO2_abs="341457.414096" HC_abs="48.950490" PMx_abs="6.245444" NOx_abs="140.657015" fuel_abs="146.780855" electricity_abs="0"/>
    </tripinfo>
    <tripinfo id="carIn27009:1" depart="57673.00" departLane="-447569998#1_1" departPos="5.10" departSpeed="0.00" departDelay="0.50" arrival="57799.00" arrivalLane="-26677539_1" arrivalPos="152.75" arrivalSpeed="6.89" duration="126.00" routeLength="699.63" waitingTime="21.00" waitingCount="1" stopTime="0.00" timeLoss="35.69" rerouteNo="1" devices="tripinfo_carIn27009:1 routing_carIn27009:1 emissions_carIn27009:1" vType="default_015" speedFactor="0.93" vaporized="">
        <emissions CO_abs="7392.680392" CO2_abs="240974.093864" HC_abs="39.204516" PMx_abs="4.309911" NOx_abs="100.334956" fuel_abs="103.587376" electricity_abs="0"/>
    </tripinfo>
    <tripinfo id="carIn107282:1" depart="57749.00" departLane="-447569998#1_1" departPos="5.10" departSpeed="0.00" departDelay="0.00" arrival="57801.00" arrivalLane="315358242#0_1" arrivalPos="165.37" arrivalSpeed="12.20" duration="52.00" routeLength="448.50" waitingTime="0.00" waitingCount="0" stopTime="0.00" timeLoss="5.76" rerouteNo="1" devices="tripinfo_carIn107282:1 routing_carIn107282:1 emissions_carIn107282:1" vType="default_016" speedFactor="0.91" vaporized="">
        <emissions CO_abs="1986.588765" CO2_abs="108602.750292" HC_abs="11.543049" PMx_abs="1.694211" NOx_abs="43.205723" fuel_abs="46.684264" electricity_abs="0"/>
    </tripinfo>
    <tripinfo id="h3154c1:1" depart="57658.00" departLane="24634507_1" departPos="5.10" departSpeed="0.00" departDelay="0.00" arrival="57805.00" arrivalLane="-266565295#5_1" arrivalPos="172.76" arrivalSpeed="14.78" duration="147.00" routeLength="1206.22" waitingTime="44.00" waitingCount="2" stopTime="0.00" timeLoss="64.32" rerouteNo="1" devices="tripinfo_h3154c1:1 routing_h3154c1:1 emissions_h3154c1:1" vType="default_016" speedFactor="1.07" vaporized="">
        <emissions CO_abs="10229.676446" CO2_abs="413744.970260" HC_abs="56.286759" PMx_abs="8.226724" NOx_abs="174.567283" fuel_abs="177.853210" electricity_abs="0"/>
    </tripinfo>
    <tripinfo id="h11737c1:1" depart="57665.00" departLane="272042143_1" departPos="5.10" departSpeed="0.00" departDelay="1.50" arrival="57817.00" arrivalLane="-315358254#1_1" arrivalPos="137.16" arrivalSpeed="13.25" duration="152.00" routeLength="1596.88" waitingTime="24.00" waitingCount="1" stopTime="0.00" timeLoss="38.39" rerouteNo="1" devices="tripinfo_h11737c1:1 routing_h11737c1:1 emissions_h11737c1:1" vType="default_016" speedFactor="1.03" vaporized="">
        <emissions CO_abs="7670.651695" CO2_abs="374917.989115" HC_abs="43.632408" PMx_abs="6.673413" NOx_abs="152.163994" fuel_abs="161.162895" electricity_abs="0"/>
    </tripinfo>
    <tripinfo id="carIn126288:1" depart="57674.00" departLane="272042143_1" departPos="5.10" departSpeed="0.00" departDelay="0.00" arrival="57819.00" arrivalLane="-315358254#1_1" arrivalPos="137.16" arrivalSpeed="12.92" duration="145.00" routeLength="1596.88" waitingTime="14.00" waitingCount="1" stopTime="0.00" timeLoss="29.62" rerouteNo="1" devices="tripinfo_carIn126288:1 routing_carIn126288:1 emissions_carIn126288:1" vType="default_016" speedFactor="1.01" vaporized="">
        <emissions CO_abs="5198.273919" CO2_abs="349357.420645" HC_abs="31.752658" PMx_abs="5.717340" NOx_abs="138.179448" fuel_abs="150.174522" electricity_abs="0"/>
    </tripinfo>
    <tripinfo id="randUni15030:1" depart="57735.00" departLane="386687232#0_1" departPos="5.10" departSpeed="0.00" departDelay="0.10" arrival="57832.00" arrivalLane="26677539_1" arrivalPos="151.98" arrivalSpeed="7.58" duration="97.00" routeLength="919.89" waitingTime="0.00" waitingCount="0" stopTime="0.00" timeLoss="11.57" rerouteNo="1" devices="tripinfo_randUni15030:1 routing_randUni15030:1 emissions_randUni15030:1" vType="random_016" speedFactor="0.97" vaporized="">
        <emissions CO_abs="3647.146102" CO2_abs="223323.579416" HC_abs="21.791301" PMx_abs="3.645045" NOx_abs="89.581226" fuel_abs="95.997873" electricity_abs="0"/>
    </tripinfo>
    <tripinfo id="50R_frequency3.17" depart="57674.00" departLane="-18809673#6_1" departPos="12.10" departSpeed="0.00" departDelay="0.70" arrival="57835.00" arrivalLane="201956811#0_1" arrivalPos="40.40" arrivalSpeed="13.53" duration="161.00" routeLength="1954.47" waitingTime="0.00" waitingCount="0" stopTime="0.00" timeLoss="15.77" rerouteNo="1" devices="tripinfo_50R_frequency3.17 routing_50R_frequency3.17 emissions_50R_frequency3.17" vType="bus" speedFactor="1.00" vaporized="">
        <emissions CO_abs="2877.751184" CO2_abs="1838561.471717" HC_abs="613.830085" PMx_abs="309.891445" NOx_abs="14158.339870" fuel_abs="784.147650" electricity_abs="0"/>
    </tripinfo>
    <tripinfo id="h5170c2:1" depart="57631.00" departLane="201201953#4_1" departPos="5.10" departSpeed="0.00" departDelay="0.00" arrival="57844.00" arrivalLane="-266565295#5_1" arrivalPos="172.76" arrivalSpeed="15.46" duration="213.00" routeLength="3097.92" waitingTime="0.00" waitingCount="0" stopTime="0.00" timeLoss="22.03" rerouteNo="1" devices="tripinfo_h5170c2:1 routing_h5170c2:1 emissions_h5170c2:1" vType="default_016" speedFactor="1.20" vaporized="">
        <emissions CO_abs="7003.063723" CO2_abs="640257.420532" HC_abs="46.557341" PMx_abs="11.080831" NOx_abs="253.733645" fuel_abs="275.217780" electricity_abs="0"/>
    </tripinfo>
    <tripinfo id="carIn30817:1" depart="57681.00" departLane="315358244_1" departPos="5.10" departSpeed="0.00" departDelay="0.20" arrival="57851.00" arrivalLane="447569997#1_1" arrivalPos="180.93" arrivalSpeed="7.77" duration="170.00" routeLength="718.04" waitingTime="91.00" waitingCount="1" stopTime="0.00" timeLoss="106.57" rerouteNo="1" devices="tripinfo_carIn30817:1 routing_carIn30817:1 emissions_carIn30817:1" vType="default_016" speedFactor="0.97" vaporized="">
        <emissions CO_abs="17315.328387" CO2_abs="403108.561808" HC_abs="88.283934" PMx_abs="8.737589" NOx_abs="176.095174" fuel_abs="173.286083" electricity_abs="0"/>
    </tripinfo>
    <tripinfo id="carIn12365:1" depart="57713.00" departLane="315358244_1" departPos="5.10" departSpeed="0.00" departDelay="0.50" arrival="57852.00" arrivalLane="447569997#1_2" arrivalPos="180.93" arrivalSpeed="7.76" duration="139.00" routeLength="718.04" waitingTime="62.00" waitingCount="1" stopTime="0.00" timeLoss="79.04" rerouteNo="1" devices="tripinfo_carIn12365:1 routing_carIn12365:1 emissions_carIn12365:1" vType="default_016" speedFactor="1.03" vaporized="">
        <emissions CO_abs="13122.362043" CO2_abs="354025.427869" HC_abs="68.055127" PMx_abs="7.441012" NOx_abs="153.047918" fuel_abs="152.185078" electricity_abs="0"/>
    </tripinfo>
    <tripinfo id="carIn12775:1" depart="57676.00" departLane="10425609#0_1" departPos="5.10" departSpeed="0.00" departDelay="0.60" arrival="57866.00" arrivalLane="18809673#0_1" arrivalPos="473.56" arrivalSpeed="12.06" duration="190.00" routeLength="1959.45" waitingTime="7.00" waitingCount="1" stopTime="0.00" timeLoss="32.88" rerouteNo="1" devices="tripinfo_carIn12775:1 routing_carIn12775:1 emissions_carIn12775:1" vType="default_016" speedFactor="0.93" vaporized="">
        <emissions CO_abs="5888.194409" CO2_abs="417084.649155" HC_abs="36.505036" PMx_abs="6.639431" NOx_abs="165.189723" fuel_abs="179.287579" electricity_abs="0"/>
    </tripinfo>
    <tripinfo id="h17600c1:1" depart="57662.00" departLane="272042143_1" departPos="5.10" departSpeed="0.00" departDelay="0.30" arrival="57869.00" arrivalLane="201238729#3_1" arrivalPos="431.02" arrivalSpeed="14.76" duration="207.00" routeLength="2100.26" waitingTime="53.00" waitingCount="1" stopTime="0.00" timeLoss="69.85" rerouteNo="1" devices="tripinfo_h17600c1:1 routing_h17600c1:1 emissions_h17600c1:1" vType="default_016" speedFactor="1.11" vaporized="">
        <emissions CO_abs="13250.067877" CO2_abs="554362.120383" HC_abs="73.176859" PMx_abs="10.340054" NOx_abs="226.817355" fuel_abs="238.300083" electricity_abs="0"/>
    </tripinfo>
    <tripinfo id="carIn13443:1" depart="57729.00" departLane="272042143_1" departPos="5.10" departSpeed="0.00" departDelay="0.80" arrival="57872.00" arrivalLane="399835085#1_1" arrivalPos="212.23" arrivalSpeed="8.40" duration="143.00" routeLength="1757.45" waitingTime="0.00" waitingCount="0" stopTime="0.00" timeLoss="15.45" rerouteNo="1" devices="tripinfo_carIn13443:1 routing_carIn13443:1 emissions_carIn13443:1" vType="default_016" speedFactor="1.11" vaporized="">
        <emissions CO_abs="4202.072496" CO2_abs="345436.753346" HC_abs="27.071374" PMx_abs="5.565288" NOx_abs="135.741898" fuel_abs="148.488538" electricity_abs="0"/>
    </tripinfo>
    <tripinfo id="h8343c1:5" depart="57679.00" departLane="315358254#0_1" departPos="5.10" departSpeed="0.00" departDelay="0.60" arrival="57874.00" arrivalLane="-24634510#5_1" arrivalPos="236.88" arrivalSpeed="10.64" duration="195.00" routeLength="2056.84" waitingTime="21.00" waitingCount="2" stopTime="0.00" timeLoss="50.00" rerouteNo="1" devices="tripinfo_h8343c1:5 routing_h8343c1:5 emissions_h8343c1:5" vType="default_016" speedFactor="0.86" vaporized="">
        <emissions CO_abs="8881.405845" CO2_abs="521656.973989" HC_abs="52.506655" PMx_abs="9.386971" NOx_abs="211.894372" fuel_abs="224.238706" electricity_abs="0"/>
    </tripinfo>
    <tripinfo id="carIn23683:1" depart="57641.00" departLane="-306240162#1_0" departPos="5.10" departSpeed="0.00" departDelay="0.20" arrival="57881.00" arrivalLane="201956820_2" arrivalPos="48.33" arrivalSpeed="14.00" duration="240.00" routeLength="2993.47" waitingTime="16.00" waitingCount="2" stopTime="0.00" timeLoss="54.26" rerouteNo="1" devices="tripinfo_carIn23683:1 routing_carIn23683:1 emissions_carIn23683:1" vType="default_016" speedFactor="1.07" vaporized="">
        <emissions CO_abs="11074.418368" CO2_abs="762662.595209" HC_abs="68.452691" PMx_abs="14.147822" NOx_abs="311.590074" fuel_abs="327.834891" electricity_abs="0"/>
    </tripinfo>
    <tripinfo id="carIn7949:1" depart="57676.00" departLane="128361109#1_1" departPos="5.10" departSpeed="0.00" departDelay="2.10" arrival="57881.00" arrivalLane="386687235_2" arrivalPos="80.84" arrivalSpeed="15.02" duration="205.00" routeLength="2088.57" waitingTime="47.00" waitingCount="1" stopTime="0.00" timeLoss="65.66" rerouteNo="1" devices="tripinfo_carIn7949:1 routing_carIn7949:1 emissions_carIn7949:1" vType="default_016" speedFactor="1.08" vaporized="">
        <emissions CO_abs="11749.820968" CO2_abs="546632.919297" HC_abs="66.231230" PMx_abs="9.881853" NOx_abs="221.668415" fuel_abs="234.976947" electricity_abs="0"/>
    </tripinfo>
    <tripinfo id="h3864c1:3" depart="57678.00" departLane="24693977#1_1" departPos="5.10" departSpeed="0.00" departDelay="0.00" arrival="57881.00" arrivalLane="201956820_1" arrivalPos="48.33" arrivalSpeed="12.28" duration="203.00" routeLength="1574.85" waitingTime="44.00" waitingCount="1" stopTime="0.00" timeLoss="69.68" rerouteNo="1" devices="tripinfo_h3864c1:3 routing_h3864c1:3 emissions_h3864c1:3" vType="default_016" speedFactor="0.97" vaporized="">
        <emissions CO_abs="13152.668608" CO2_abs="530425.324253" HC_abs="72.314050" PMx_abs="9.940512" NOx_abs="221.030713" fuel_abs="228.010512" electricity_abs="0"/>
    </tripinfo>
    <tripinfo id="carIn99233:1" depart="57691.00" departLane="128361109#1_1" departPos="5.10" departSpeed="0.00" departDelay="1.90" arrival="57886.00" arrivalLane="386687235_2" arrivalPos="80.84" arrivalSpeed="13.64" duration="195.00" routeLength="2088.57" waitingTime="38.00" waitingCount="1" stopTime="0.00" timeLoss="53.20" rerouteNo="1" devices="tripinfo_carIn99233:1 routing_carIn99233:1 emissions_carIn99233:1" vType="default_016" speedFactor="1.06" vaporized="">
        <emissions CO_abs="9347.818719" CO2_abs="469832.290310" HC_abs="53.468531" PMx_abs="8.180695" NOx_abs="188.242995" fuel_abs="201.963105" electricity_abs="0"/>
    </tripinfo>
    <tripinfo id="carIn24709:1" depart="57753.00" departLane="266565295#5_1" departPos="5.10" departSpeed="0.00" departDelay="2.50" arrival="57887.00" arrivalLane="-24634506#2_1" arrivalPos="71.32" arrivalSpeed="14.40" duration="134.00" routeLength="1450.12" waitingTime="5.00" waitingCount="1" stopTime="0.00" timeLoss="24.19" rerouteNo="1" devices="tripinfo_carIn24709:1 routing_carIn24709:1 emissions_carIn24709:1" vType="default_016" speedFactor="1.09" vaporized="">
        <emissions CO_abs="4837.107820" CO2_abs="332766.971132" HC_abs="29.763495" PMx_abs="5.674694" NOx_abs="133.910461" fuel_abs="143.042432" electricity_abs="0"/>
    </tripinfo>
    <tripinfo id="h16072c2:3" depart="57663.00" departLane="315358254#0_1" departPos="5.10" departSpeed="0.00" departDelay="2.50" arrival="57888.00" arrivalLane="386687235_1" arrivalPos="80.84" arrivalSpeed="10.41" duration="225.00" routeLength="1611.92" waitingTime="61.00" waitingCount="2" stopTime="0.00" timeLoss="82.97" rerouteNo="1" devices="tripinfo_h16072c2:3 routing_h16072c2:3 emissions_h16072c2:3" vType="default_016" speedFactor="0.83" vaporized="">
        <emissions CO_abs="13042.049514" CO2_abs="465568.592399" HC_abs="70.200141" PMx_abs="8.486892" NOx_abs="192.425518" fuel_abs="200.132617" electricity_abs="0"/>
    </tripinfo>
    <tripinfo id="carIn73855:1" depart="57743.00" departLane="386687232#0_1" departPos="5.10" departSpeed="0.00" departDelay="0.50" arrival="57893.00" arrivalLane="-315358244_1" arrivalPos="33.95" arrivalSpeed="14.37" duration="150.00" routeLength="1157.39" waitingTime="59.00" waitingCount="1" stopTime="0.00" timeLoss="73.15" rerouteNo="1" devices="tripinfo_carIn73855:1 routing_carIn73855:1 emissions_carIn73855:1" vType="default_016" speedFactor="1.09" vaporized="">
        <emissions CO_abs="12272.417217" CO2_abs="398855.369761" HC_abs="65.199629" PMx_abs="7.979072" NOx_abs="167.979265" fuel_abs="171.454794" electricity_abs="0"/>
    </tripinfo>
    <tripinfo id="carIn126378:1" depart="57746.00" departLane="386687232#0_1" departPos="5.10" departSpeed="0.00" departDelay="1.80" arrival="57894.00" arrivalLane="-315358244_2" arrivalPos="33.95" arrivalSpeed="13.89" duration="148.00" routeLength="1157.39" waitingTime="53.00" waitingCount="1" stopTime="0.00" timeLoss="67.20" rerouteNo="1" devices="tripinfo_carIn126378:1 routing_carIn126378:1 emissions_carIn126378:1" vType="default_016" speedFactor="1.05" vaporized="">
        <emissions CO_abs="11694.594070" CO2_abs="398865.001054" HC_abs="62.480560" PMx_abs="7.730145" NOx_abs="166.355323" fuel_abs="171.458811" electricity_abs="0"/>
    </tripinfo>
    <tripinfo id="h645c1:1" depart="57622.00" departLane="266565295#5_1" departPos="5.10" departSpeed="0.00" departDelay="0.40" arrival="57895.00" arrivalLane="-315358244_1" arrivalPos="33.95" arrivalSpeed="13.47" duration="273.00" routeLength="1910.83" waitingTime="114.00" waitingCount="3" stopTime="0.00" timeLoss="139.80" rerouteNo="1" devices="tripinfo_h645c1:1 routing_h645c1:1 emissions_h645c1:1" vType="default_016" speedFactor="1.04" vaporized="">
        <emissions CO_abs="21801.283108" CO2_abs="661188.252613" HC_abs="114.641675" PMx_abs="13.107142" NOx_abs="277.984644" fuel_abs="284.224463" electricity_abs="0"/>
    </tripinfo>
    <tripinfo id="carIn12858:1" depart="57661.00" departLane="128361109#1_1" departPos="5.10" departSpeed="0.00" departDelay="0.90" arrival="57895.00" arrivalLane="399835085#1_1" arrivalPos="212.23" arrivalSpeed="7.71" duration="234.00" routeLength="1738.12" waitingTime="86.00" waitingCount="3" stopTime="0.00" timeLoss="119.36" rerouteNo="1" devices="tripinfo_carIn12858:1 routing_carIn12858:1 emissions_carIn12858:1" vType="default_016" speedFactor="1.01" vaporized="">
        <emissions CO_abs="19679.541020" CO2_abs="683697.087119" HC_abs="105.829534" PMx_abs="14.171073" NOx_abs="290.640645" fuel_abs="293.897026" electricity_abs="0"/>
    </tripinfo>
    <tripinfo id="carIn8642:1" depart="57774.00" departLane="-447569998#1_1" departPos="5.10" departSpeed="0.00" departDelay="0.90" arrival="57896.00" arrivalLane="-315358244_2" arrivalPos="33.95" arrivalSpeed="12.34" duration="122.00" routeLength="706.49" waitingTime="38.00" waitingCount="2" stopTime="0.00" timeLoss="54.36" rerouteNo="1" devices="tripinfo_carIn8642:1 routing_carIn8642:1 emissions_carIn8642:1" vType="default_016" speedFactor="0.89" vaporized="">
        <emissions CO_abs="8053.508384" CO2_abs="264230.290958" HC_abs="42.827991" PMx_abs="5.050625" NOx_abs="111.105505" fuel_abs="113.584067" electricity_abs="0"/>
    </tripinfo>
    <tripinfo id="carIn132499:1" depart="57740.00" departLane="272042143_1" departPos="5.10" departSpeed="0.00" departDelay="0.70" arrival="57897.00" arrivalLane="201238729#3_1" arrivalPos="431.02" arrivalSpeed="16.24" duration="157.00" routeLength="2100.26" waitingTime="10.00" waitingCount="1" stopTime="0.00" timeLoss="28.19" rerouteNo="1" devices="tripinfo_carIn132499:1 routing_carIn132499:1 emissions_carIn132499:1" vType="default_016" speedFactor="1.18" vaporized="">
        <emissions CO_abs="5404.046963" CO2_abs="426540.016617" HC_abs="34.352625" PMx_abs="7.219816" NOx_abs="167.852893" fuel_abs="183.351209" electricity_abs="0"/>
    </tripinfo>
    <tripinfo id="carIn70533:1" depart="57812.00" departLane="-447569998#1_1" departPos="5.10" departSpeed="0.00" departDelay="0.10" arrival="57898.00" arrivalLane="-315358244_1" arrivalPos="33.95" arrivalSpeed="12.59" duration="86.00" routeLength="706.49" waitingTime="5.00" waitingCount="2" stopTime="0.00" timeLoss="20.09" rerouteNo="1" devices="tripinfo_carIn70533:1 routing_carIn70533:1 emissions_carIn70533:1" vType="default_016" speedFactor="0.92" vaporized="">