<?xml version="1.0" encoding="UTF-8"?>

<!-- generated on Thu Nov  4 14:27:10 2021 by Eclipse SUMO sumo Version 1.9.0
<configuration xmlns:xsi="http://www.w3.org/2001/XMLSchema-instance" xsi:noNamespaceSchemaLocation="http://sumo.dlr.de/xsd/sumoConfiguration.xsd">

    <input>
        <net-file value="/mainfs/home/bk2g18/RESCO/environments/ingolstadt21/ingolstadt21.net.xml"/>
        <route-files value="/mainfs/home/bk2g18/RESCO/environments/ingolstadt21/ingolstadt21.rou.xml"/>
    </input>

    <output>
        <tripinfo-output value="/mainfs/home/bk2g18/RESCO/logs/MPLight-tr0-ingolstadt21-21-mplight_full-pressure/tripinfo_91.xml"/>
        <tripinfo-output.write-unfinished value="true"/>
    </output>

    <time>
        <begin value="57600"/>
        <end value="61200"/>
    </time>

    <processing>
        <time-to-teleport value="-1"/>
    </processing>

    <report>
        <xml-validation value="never"/>
        <xml-validation.routes value="never"/>
        <no-warnings value="true"/>
        <no-step-log value="true"/>
    </report>

    <emissions>
        <device.emissions.probability value="1"/>
    </emissions>

    <traci_server>
        <remote-port value="34093"/>
    </traci_server>

    <random_number>
        <random value="true"/>
    </random_number>

</configuration>
-->

<tripinfos xmlns:xsi="http://www.w3.org/2001/XMLSchema-instance" xsi:noNamespaceSchemaLocation="http://sumo.dlr.de/xsd/tripinfo_file.xsd">
    <tripinfo id="h15454c2:3" depart="57612.00" departLane="24608844_1" departPos="5.10" departSpeed="0.00" departDelay="0.50" arrival="57654.00" arrivalLane="32978638#0_1" arrivalPos="49.29" arrivalSpeed="13.68" duration="42.00" routeLength="354.79" waitingTime="0.00" waitingCount="0" stopTime="0.00" timeLoss="8.18" rerouteNo="1" devices="tripinfo_h15454c2:3 routing_h15454c2:3 emissions_h15454c2:3" vType="default_016" speedFactor="1.04" vaporized="">
        <emissions CO_abs="2324.258666" CO2_abs="120223.296172" HC_abs="13.377560" PMx_abs="2.095155" NOx_abs="49.429882" fuel_abs="51.679254" electricity_abs="0"/>
    </tripinfo>
    <tripinfo id="carIn53971:1" depart="57640.00" departLane="272042143_1" departPos="5.10" departSpeed="0.00" departDelay="0.80" arrival="57698.00" arrivalLane="24634414#1_1" arrivalPos="162.19" arrivalSpeed="7.68" duration="58.00" routeLength="493.04" waitingTime="0.00" waitingCount="0" stopTime="0.00" timeLoss="10.38" rerouteNo="1" devices="tripinfo_carIn53971:1 routing_carIn53971:1 emissions_carIn53971:1" vType="default_016" speedFactor="0.96" vaporized="">
        <emissions CO_abs="2743.184990" CO2_abs="151775.766552" HC_abs="15.988891" PMx_abs="2.428536" NOx_abs="60.751471" fuel_abs="65.242611" electricity_abs="0"/>
    </tripinfo>
    <tripinfo id="h7800c1:5" depart="57696.00" departLane="-447569998#1_1" departPos="5.10" departSpeed="0.00" departDelay="0.00" arrival="57719.00" arrivalLane="-447569998#1_1" arrivalPos="180.76" arrivalSpeed="9.02" duration="23.00" routeLength="175.66" waitingTime="0.00" waitingCount="0" stopTime="0.00" timeLoss="3.34" rerouteNo="1" devices="tripinfo_h7800c1:5 routing_h7800c1:5 emissions_h7800c1:5" vType="default_016" speedFactor="1.09" vaporized="">
        <emissions CO_abs="991.987272" CO2_abs="43505.322960" HC_abs="5.526156" PMx_abs="0.768118" NOx_abs="18.046830" fuel_abs="18.701327" electricity_abs="0"/>
    </tripinfo>
    <tripinfo id="carIn60260:1" depart="57606.00" departLane="315358254#0_1" departPos="5.10" departSpeed="0.00" departDelay="0.90" arrival="57729.00" arrivalLane="399835085#1_1" arrivalPos="212.23" arrivalSpeed="9.01" duration="123.00" routeLength="430.98" waitingTime="72.00" waitingCount="1" stopTime="0.00" timeLoss="81.07" rerouteNo="1" devices="tripinfo_carIn60260:1 routing_carIn60260:1 emissions_carIn60260:1" vType="default_016" speedFactor="1.09" vaporized="">
        <emissions CO_abs="13230.244936" CO2_abs="300029.485363" HC_abs="67.252775" PMx_abs="6.590630" NOx_abs="131.780037" fuel_abs="128.975159" electricity_abs="0"/>
    </tripinfo>
    <tripinfo id="h5979c1:5" depart="57669.00" departLane="399835085#1_1" departPos="5.10" departSpeed="0.00" departDelay="0.00" arrival="57757.00" arrivalLane="-315358254#1_1" arrivalPos="137.16" arrivalSpeed="13.46" duration="88.00" routeLength="659.33" waitingTime="0.00" waitingCount="0" stopTime="0.00" timeLoss="14.11" rerouteNo="1" devices="tripinfo_h5979c1:5 routing_h5979c1:5 emissions_h5979c1:5" vType="default_016" speedFactor="0.99" vaporized="">
        <emissions CO_abs="3834.470966" CO2_abs="183783.035275" HC_abs="21.700617" PMx_abs="3.054360" NOx_abs="74.793671" fuel_abs="79.001529" electricity_abs="0"/>
    </tripinfo>
    <tripinfo id="h4538c1:1" depart="57701.00" departLane="-10427692#1_1" departPos="5.10" departSpeed="0.00" departDelay="0.00" arrival="57758.00" arrivalLane="-128361102#1_1" arrivalPos="274.68" arrivalSpeed="12.86" duration="57.00" routeLength="440.74" waitingTime="13.00" waitingCount="1" stopTime="0.00" timeLoss="22.89" rerouteNo="1" devices="tripinfo_h4538c1:1 routing_h4538c1:1 emissions_h4538c1:1" vType="default_016" speedFactor="0.93" vaporized="">
        <emissions CO_abs="3549.411826" CO2_abs="150268.453128" HC_abs="19.677860" PMx_abs="2.760631" NOx_abs="62.166493" fuel_abs="64.594874" electricity_abs="0"/>
    </tripinfo>
    <tripinfo id="carIn27009:1" depart="57673.00" departLane="-447569998#1_1" departPos="5.10" departSpeed="0.00" departDelay="0.50" arrival="57769.00" arrivalLane="-26677539_1" arrivalPos="152.75" arrivalSpeed="7.36" duration="96.00" routeLength="699.63" waitingTime="0.00" waitingCount="0" stopTime="0.00" timeLoss="12.15" rerouteNo="1" devices="tripinfo_carIn27009:1 routing_carIn27009:1 emissions_carIn27009:1" vType="default_015" speedFactor="1.00" vaporized="">
        <emissions CO_abs="3669.735288" CO2_abs="170777.009532" HC_abs="20.616156" PMx_abs="2.697308" NOx_abs="68.842240" fuel_abs="73.411000" electricity_abs="0"/>
    </tripinfo>
    <tripinfo id="h3568c1:3" depart="57656.00" departLane="266565295#5_1" departPos="5.10" departSpeed="0.00" departDelay="0.80" arrival="57789.00" arrivalLane="-24634415_1" arrivalPos="62.03" arrivalSpeed="11.57" duration="133.00" routeLength="807.40" waitingTime="43.00" waitingCount="1" stopTime="0.00" timeLoss="60.91" rerouteNo="1" devices="tripinfo_h3568c1:3 routing_h3568c1:3 emissions_h3568c1:3" vType="default_016" speedFactor="0.90" vaporized="">
        <emissions CO_abs="10314.625326" CO2_abs="318618.932004" HC_abs="54.411470" PMx_abs="6.283373" NOx_abs="135.125831" fuel_abs="136.964218" electricity_abs="0"/>
    </tripinfo>
    <tripinfo id="carIn107282:1" depart="57749.00" departLane="-447569998#1_1" departPos="5.10" departSpeed="0.00" departDelay="0.00" arrival="57794.00" arrivalLane="315358242#0_1" arrivalPos="165.37" arrivalSpeed="13.60" duration="45.00" routeLength="448.50" waitingTime="0.00" waitingCount="0" stopTime="0.00" timeLoss="4.56" rerouteNo="1" devices="tripinfo_carIn107282:1 routing_carIn107282:1 emissions_carIn107282:1" vType="default_016" speedFactor="1.03" vaporized="">
        <emissions CO_abs="1819.586632" CO2_abs="115091.247974" HC_abs="10.956190" PMx_abs="1.857654" NOx_abs="45.947557" fuel_abs="49.473113" electricity_abs="0"/>
    </tripinfo>
    <tripinfo id="h11737c1:1" depart="57665.00" departLane="272042143_1" departPos="5.10" departSpeed="0.00" departDelay="1.50" arrival="57817.00" arrivalLane="-315358254#1_1" arrivalPos="137.16" arrivalSpeed="10.92" duration="152.00" routeLength="1596.88" waitingTime="0.00" waitingCount="0" stopTime="0.00" timeLoss="13.57" rerouteNo="1" devices="tripinfo_h11737c1:1 routing_h11737c1:1 emissions_h11737c1:1" vType="default_016" speedFactor="0.84" vaporized="">
        <emissions CO_abs="3985.672491" CO2_abs="303843.105928" HC_abs="25.134724" PMx_abs="4.413932" NOx_abs="117.814593" fuel_abs="130.610050" electricity_abs="0"/>
    </tripinfo>
    <tripinfo id="h3326c1:2" depart="57656.00" departLane="22716069#0_1" departPos="5.10" departSpeed="0.00" departDelay="0.00" arrival="57818.00" arrivalLane="24634517#13_1" arrivalPos="111.62" arrivalSpeed="8.54" duration="162.00" routeLength="1312.81" waitingTime="0.00" waitingCount="0" stopTime="0.00" timeLoss="18.74" rerouteNo="1" devices="tripinfo_h3326c1:2 routing_h3326c1:2 emissions_h3326c1:2" vType="default_016" speedFactor="0.68" vaporized="">
        <emissions CO_abs="5492.755407" CO2_abs="288083.291696" HC_abs="31.594914" PMx_abs="4.373138" NOx_abs="114.496851" fuel_abs="123.836548" electricity_abs="0"/>
    </tripinfo>
    <tripinfo id="carIn126288:1" depart="57674.00" departLane="272042143_1" departPos="5.10" departSpeed="0.00" departDelay="0.00" arrival="57819.00" arrivalLane="-315358254#1_1" arrivalPos="137.16" arrivalSpeed="13.22" duration="145.00" routeLength="1596.88" waitingTime="0.00" waitingCount="0" stopTime="0.00" timeLoss="28.31" rerouteNo="1" devices="tripinfo_carIn126288:1 routing_carIn126288:1 emissions_carIn126288:1" vType="default_016" speedFactor="1.00" vaporized="">
        <emissions CO_abs="4758.148130" CO2_abs="366317.107909" HC_abs="30.187978" PMx_abs="5.853756" NOx_abs="145.151654" fuel_abs="157.464314" electricity_abs="0"/>
    </tripinfo>
    <tripinfo id="randUni15030:1" depart="57735.00" departLane="386687232#0_1" departPos="5.10" departSpeed="0.00" departDelay="0.10" arrival="57840.00" arrivalLane="26677539_1" arrivalPos="151.98" arrivalSpeed="7.02" duration="105.00" routeLength="919.89" waitingTime="0.00" waitingCount="0" stopTime="0.00" timeLoss="12.90" rerouteNo="1" devices="tripinfo_randUni15030:1 routing_randUni15030:1 emissions_randUni15030:1" vType="random_016" speedFactor="0.91" vaporized="">
        <emissions CO_abs="3788.422720" CO2_abs="210284.572963" HC_abs="22.125045" PMx_abs="3.481618" NOx_abs="85.039199" fuel_abs="90.393115" electricity_abs="0"/>
    </tripinfo>
    <tripinfo id="carIn129809:1" depart="57729.00" departLane="-447569998#1_1" departPos="5.10" departSpeed="0.00" departDelay="1.00" arrival="57855.00" arrivalLane="-315358244_1" arrivalPos="33.95" arrivalSpeed="10.70" duration="126.00" routeLength="706.49" waitingTime="39.00" waitingCount="1" stopTime="0.00" timeLoss="51.52" rerouteNo="1" devices="tripinfo_carIn129809:1 routing_carIn129809:1 emissions_carIn129809:1" vType="default_015" speedFactor="0.82" vaporized="">
        <emissions CO_abs="8882.152697" CO2_abs="257651.957127" HC_abs="46.416792" PMx_abs="4.940429" NOx_abs="108.616901" fuel_abs="110.757092" electricity_abs="0"/>
    </tripinfo>
    <tripinfo id="carIn8642:1" depart="57774.00" departLane="-447569998#1_1" departPos="5.10" departSpeed="0.00" departDelay="0.90" arrival="57867.00" arrivalLane="-315358244_1" arrivalPos="33.95" arrivalSpeed="8.84" duration="93.00" routeLength="706.49" waitingTime="0.00" waitingCount="0" stopTime="0.00" timeLoss="9.40" rerouteNo="1" devices="tripinfo_carIn8642:1 routing_carIn8642:1 emissions_carIn8642:1" vType="default_016" speedFactor="0.72" vaporized="">
        <emissions CO_abs="3398.005904" CO2_abs="164999.438899" HC_abs="19.223066" PMx_abs="2.438428" NOx_abs="65.152049" fuel_abs="70.927585" electricity_abs="0"/>
    </tripinfo>
    <tripinfo id="h17600c1:1" depart="57662.00" departLane="272042143_1" departPos="5.10" departSpeed="0.00" departDelay="0.30" arrival="57873.00" arrivalLane="201238729#3_1" arrivalPos="431.02" arrivalSpeed="12.45" duration="211.00" routeLength="2100.26" waitingTime="39.00" waitingCount="1" stopTime="0.00" timeLoss="57.47" rerouteNo="1" devices="tripinfo_h17600c1:1 routing_h17600c1:1 emissions_h17600c1:1" vType="default_016" speedFactor="0.99" vaporized="">
        <emissions CO_abs="9481.874250" CO2_abs="470137.493877" HC_abs="54.076166" PMx_abs="7.769866" NOx_abs="186.317253" fuel_abs="202.094995" electricity_abs="0"/>
    </tripinfo>
    <tripinfo id="carIn70533:1" depart="57812.00" departLane="-447569998#1_1" departPos="5.10" departSpeed="0.00" departDelay="0.10" arrival="57883.00" arrivalLane="-315358244_1" arrivalPos="33.95" arrivalSpeed="13.36" duration="71.00" routeLength="706.49" waitingTime="0.00" waitingCount="0" stopTime="0.00" timeLoss="10.44" rerouteNo="1" devices="tripinfo_carIn70533:1 routing_carIn70533:1 emissions_carIn70533:1" vType="default_016" speedFactor="1.00" vaporized="">
        <emissions CO_abs="2839.680818" CO2_abs="177263.187267" HC_abs="17.074276" PMx_abs="3.023252" NOx_abs="71.799553" fuel_abs="76.198122" electricity_abs="0"/>
    </tripinfo>
    <tripinfo id="h7181c1:1" depart="57660.00" departLane="315358254#0_1" departPos="5.10" departSpeed="0.00" departDelay="0.10" arrival="57890.00" arrivalLane="306240162#0_0" arrivalPos="220.43" arrivalSpeed="16.28" duration="230.00" routeLength="932.35" waitingTime="155.00" waitingCount="2" stopTime="0.00" timeLoss="179.90" rerouteNo="1" devices="tripinfo_h7181c1:1 routing_h7181c1:1 emissions_h7181c1:1" vType="default_016" speedFactor="1.03" vaporized="">
        <emissions CO_abs="29328.174133" CO2_abs="712120.387871" HC_abs="150.425252" PMx_abs="16.128364" NOx_abs="313.004395" fuel_abs="306.120509" electricity_abs="0"/>
    </tripinfo>
    <tripinfo id="carIn13443:1" depart="57729.00" departLane="272042143_1" departPos="5.10" departSpeed="0.00" departDelay="0.80" arrival="57896.00" arrivalLane="399835085#1_1" arrivalPos="212.23" arrivalSpeed="7.56" duration="167.00" routeLength="1757.45" waitingTime="0.00" waitingCount="0" stopTime="0.00" timeLoss="23.61" rerouteNo="1" devices="tripinfo_carIn13443:1 routing_carIn13443:1 emissions_carIn13443:1" vType="default_016" speedFactor="0.99" vaporized="">
        <emissions CO_abs="5072.917768" CO2_abs="357390.792325" HC_abs="31.425651" PMx_abs="5.824042" NOx_abs="142.743416" fuel_abs="153.627423" electricity_abs="0"/>
    </tripinfo>
    <tripinfo id="carIn14532:1" depart="57743.00" departLane="272042143_1" departPos="5.10" departSpeed="0.00" departDelay="1.90" arrival="57898.00" arrivalLane="399835085#1_1" arrivalPos="212.23" arrivalSpeed="8.50" duration="155.00" routeLength="1757.45" waitingTime="0.00" waitingCount="0" stopTime="0.00" timeLoss="25.76" rerouteNo="1" devices="tripinfo_carIn14532:1 routing_carIn14532:1 emissions_carIn14532:1" vType="default_016" speedFactor="1.10" vaporized="">
        <emissions CO_abs="5365.029324" CO2_abs="401795.856943" HC_abs="33.762375" PMx_abs="6.657348" NOx_abs="160.405820" fuel_abs="172.714923" electricity_abs="0"/>
    </tripinfo>
    <tripinfo id="randUni23028:1" depart="57884.00" departLane="124812856#0_1" departPos="5.10" departSpeed="0.00" departDelay="0.10" arrival="57901.00" arrivalLane="201956810_1" arrivalPos="71.65" arrivalSpeed="11.34" duration="17.00" routeLength="134.91" waitingTime="0.00" waitingCount="0" stopTime="0.00" timeLoss="3.54" rerouteNo="1" devices="tripinfo_randUni23028:1 routing_randUni23028:1 emissions_randUni23028:1" vType="random_016" speedFactor="0.84" vaporized="">
        <emissions CO_abs="1173.685132" CO2_abs="60730.331880" HC_abs="6.773308" PMx_abs="1.135452" NOx_abs="25.495343" fuel_abs="26.105454" electricity_abs="0"/>
    </tripinfo>
    <tripinfo id="carIn132499:1" depart="57740.00" departLane="272042143_1" departPos="5.10" departSpeed="0.00" departDelay="0.70" arrival="57905.00" arrivalLane="201238729#3_1" arrivalPos="431.02" arrivalSpeed="12.83" duration="165.00" routeLength="2100.26" waitingTime="0.00" waitingCount="0" stopTime="0.00" timeLoss="12.85" rerouteNo="1" devices="tripinfo_carIn132499:1 routing_carIn132499:1 emissions_carIn132499:1" vType="default_016" speedFactor="1.00" vaporized="">
        <emissions CO_abs="3583.207415" CO2_abs="362175.324442" HC_abs="24.718792" PMx_abs="5.386332" NOx_abs="138.943366" fuel_abs="155.683793" electricity_abs="0"/>
    </tripinfo>
    <tripinfo id="carIn13353:1" depart="57838.00" departLane="-447569998#1_1" departPos="5.10" departSpeed="0.00" departDelay="0.30" arrival="57905.00" arrivalLane="-315358244_1" arrivalPos="33.95" arrivalSpeed="13.67" duration="67.00" routeLength="706.49" waitingTime="0.00" waitingCount="0" stopTime="0.00" timeLoss="6.73" rerouteNo="1" devices="tripinfo_carIn13353:1 routing_carIn13353:1 emissions_carIn13353:1" vType="default_016" speedFactor="1.01" vaporized="">
        <emissions CO_abs="2163.112151" CO2_abs="148736.954953" HC_abs="13.273358" PMx_abs="2.291384" NOx_abs="58.312084" fuel_abs="63.936093" electricity_abs="0"/>
    </tripinfo>
    <tripinfo id="carIn63848:1" depart="57841.00" departLane="-447569998#1_1" departPos="5.10" departSpeed="0.00" departDelay="0.80" arrival="57910.00" arrivalLane="-315358244_1" arrivalPos="33.95" arrivalSpeed="13.27" duration="69.00" routeLength="706.49" waitingTime="0.00" waitingCount="0" stopTime="0.00" timeLoss="6.17" rerouteNo="1" devices="tripinfo_carIn63848:1 routing_carIn63848:1 emissions_carIn63848:1" vType="default_016" speedFactor="0.97" vaporized="">
        <emissions CO_abs="2157.740299" CO2_abs="152040.079381" HC_abs="13.344834" PMx_abs="2.355079" NOx_abs="59.766505" fuel_abs="65.355905" electricity_abs="0"/>
    </tripinfo>
    <tripinfo id="carIn24709:1" depart="57753.00" departLane="266565295#5_1" departPos="5.10" departSpeed="0.00" departDelay="2.50" arrival="57928.00" arrivalLane="-24634506#2_1" arrivalPos="71.32" arrivalSpeed="14.26" duration="175.00" routeLength="1450.12" waitingTime="38.00" waitingCount="2" stopTime="0.00" timeLoss="60.13" rerouteNo="1" devices="tripinfo_carIn24709:1 routing_carIn24709:1 emissions_carIn24709:1" vType="default_016" speedFactor="1.03" vaporized="">
        <emissions CO_abs="10150.710346" CO2_abs="418709.099244" HC_abs="55.981927" PMx_abs="7.793083" NOx_abs="173.299296" fuel_abs="179.987739" electricity_abs="0"/>
    </tripinfo>
    <tripinfo id="h17549c1:1" depart="57680.00" departLane="-447569998#1_1" departPos="5.10" departSpeed="0.00" departDelay="0.00" arrival="57939.00" arrivalLane="-315358254#1_1" arrivalPos="137.16" arrivalSpeed="12.93" duration="259.00" routeLength="1743.98" waitingTime="98.00" waitingCount="1" stopTime="0.00" timeLoss="117.68" rerouteNo="1" devices="tripinfo_h17549c1:1 routing_h17549c1:1 emissions_h17549c1:1" vType="default_016" speedFactor="0.97" vaporized="">
        <emissions CO_abs="20507.478720" CO2_abs="618621.839952" HC_abs="107.817760" PMx_abs="12.075639" NOx_abs="259.869082" fuel_abs="265.926771" electricity_abs="0"/>
    </tripinfo>
    <tripinfo id="h3426c1:1" depart="57864.00" departLane="-160314345#2_1" departPos="5.10" departSpeed="0.00" departDelay="0.00" arrival="57941.00" arrivalLane="386687235_1" arrivalPos="80.84" arrivalSpeed="13.73" duration="77.00" routeLength="726.87" waitingTime="0.00" waitingCount="0" stopTime="0.00" timeLoss="8.34" rerouteNo="1" devices="tripinfo_h3426c1:1 routing_h3426c1:1 emissions_h3426c1:1" vType="default_016" speedFactor="0.99" vaporized="">
        <emissions CO_abs="2946.416735" CO2_abs="179237.445700" HC_abs="17.548409" PMx_abs="2.767555" NOx_abs="70.723648" fuel_abs="77.047281" electricity_abs="0"/>
    </tripinfo>
    <tripinfo id="randUni3548:1" depart="57726.00" departLane="-447569998#1_1" departPos="5.10" departSpeed="0.00" departDelay="0.00" arrival="57942.00" arrivalLane="-315358254#1_1" arrivalPos="137.16" arrivalSpeed="14.56" duration="216.00" routeLength="1743.98" waitingTime="62.00" waitingCount="1" stopTime="0.00" timeLoss="88.72" rerouteNo="1" devices="tripinfo_randUni3548:1 routing_randUni3548:1 emissions_randUni3548:1" vType="random_016" speedFactor="1.07" vaporized="">
        <emissions CO_abs="15409.316872" CO2_abs="579656.646083" HC_abs="83.734545" PMx_abs="11.079811" NOx_abs="241.639071" fuel_abs="249.173947" electricity_abs="0"/>
    </tripinfo>
    <tripinfo id="carIn81681:1" depart="57726.00" departLane="272042143_1" departPos="5.10" departSpeed="0.00" departDelay="0.30" arrival="57943.00" arrivalLane="306240162#0_0" arrivalPos="220.43" arrivalSpeed="13.86" duration="217.00" routeLength="2246.89" waitingTime="24.00" waitingCount="2" stopTime="0.00" timeLoss="53.11" rerouteNo="1" devices="tripinfo_carIn81681:1 routing_carIn81681:1 emissions_carIn81681:1" vType="default_016" speedFactor="0.90" vaporized="">
        <emissions CO_abs="9073.443423" CO2_abs="537435.312237" HC_abs="53.847658" PMx_abs="9.309728" NOx_abs="216.771285" fuel_abs="231.021597" electricity_abs="0"/>
    </tripinfo>
    <tripinfo id="carIn80913:1" depart="57732.00" departLane="272042143_1" departPos="5.10" departSpeed="0.00" departDelay="0.40" arrival="57944.00" arrivalLane="306240162#0_0" arrivalPos="220.43" arrivalSpeed="17.41" duration="212.00" routeLength="2246.89" waitingTime="23.00" waitingCount="2" stopTime="0.00" timeLoss="78.75" rerouteNo="1" devices="tripinfo_carIn80913:1 routing_carIn80913:1 emissions_carIn80913:1" vType="default_016" speedFactor="1.11" vaporized="">
        <emissions CO_abs="11163.672429" CO2_abs="654713.449588" HC_abs="66.336308" PMx_abs="12.246469" NOx_abs="270.268117" fuel_abs="281.433390" electricity_abs="0"/>
    </tripinfo>
    <tripinfo id="carIn101266:1" depart="57737.00" departLane="272042143_1" departPos="5.10" departSpeed="0.00" departDelay="0.50" arrival="57946.00" arrivalLane="306240162#0_0" arrivalPos="220.43" arrivalSpeed="16.71" duration="209.00" routeLength="2246.89" waitingTime="19.00" waitingCount="2" stopTime="0.00" timeLoss="63.64" rerouteNo="1" devices="tripinfo_carIn101266:1 routing_carIn101266:1 emissions_carIn101266:1" vType="default_016" speedFactor="1.02" vaporized="">
        <emissions CO_abs="10655.109895" CO2_abs="647666.508004" HC_abs="63.818416" PMx_abs="12.082119" NOx_abs="266.504273" fuel_abs="278.403985" electricity_abs="0"/>
    </tripinfo>
    <tripinfo id="carIn82298:1" depart="57783.00" departLane="-447569998#1_1" departPos="5.10" departSpeed="0.00" departDelay="0.60" arrival="57950.00" arrivalLane="-315358254#1_1" arrivalPos="137.16" arrivalSpeed="12.17" duration="167.00" routeLength="1743.98" waitingTime="0.00" waitingCount="0" stopTime="0.00" timeLoss="20.33" rerouteNo="1" devices="tripinfo_carIn82298:1 routing_carIn82298:1 emissions_carIn82298:1" vType="default_016" speedFactor="0.93" vaporized="">
        <emissions CO_abs="5090.297822" CO2_abs="365617.029470" HC_abs="31.658724" PMx_abs="5.718976" NOx_abs="144.127720" fuel_abs="157.163857" electricity_abs="0"/>
    </tripinfo>
    <tripinfo id="carIn118538:1" depart="57683.00" departLane="-447569998#1_1" departPos="5.10" departSpeed="0.00" departDelay="1.00" arrival="57961.00" arrivalLane="399835085#1_1" arrivalPos="212.23" arrivalSpeed="9.05" duration="278.00" routeLength="1907.17" waitingTime="98.00" waitingCount="1" stopTime="0.00" timeLoss="140.85" rerouteNo="1" devices="tripinfo_carIn118538:1 routing_carIn118538:1 emissions_carIn118538:1" vType="default_016" speedFactor="1.18" vaporized="">
        <emissions CO_abs="21488.276316" CO2_abs="675036.664149" HC_abs="113.664081" PMx_abs="13.387501" NOx_abs="285.392645" fuel_abs="290.176663" electricity_abs="0"/>
    </tripinfo>
    <tripinfo id="randUni11215:1" depart="57953.00" departLane="124812856#0_1" departPos="5.10" departSpeed="0.00" departDelay="0.30" arrival="57969.00" arrivalLane="201956810_1" arrivalPos="71.65" arrivalSpeed="11.40" duration="16.00" routeLength="134.91" waitingTime="0.00" waitingCount="0" stopTime="0.00" timeLoss="3.96" rerouteNo="1" devices="tripinfo_randUni11215:1 routing_randUni11215:1 emissions_randUni11215:1" vType="random_016" speedFactor="0.88" vaporized="">
        <emissions CO_abs="1126.188882" CO2_abs="57382.118641" HC_abs="6.474321" PMx_abs="1.054340" NOx_abs="23.959141" fuel_abs="24.666240" electricity_abs="0"/>
    </tripinfo>
    <tripinfo id="carIn121351:1" depart="57755.00" departLane="-447569998#1_1" departPos="5.10" departSpeed="0.00" departDelay="0.30" arrival="57970.00" arrivalLane="399835085#1_1" arrivalPos="212.23" arrivalSpeed="7.79" duration="215.00" routeLength="1904.55" waitingTime="33.00" waitingCount="1" stopTime="0.00" timeLoss="60.13" rerouteNo="1" devices="tripinfo_carIn121351:1 routing_carIn121351:1 emissions_carIn121351:1" vType="default_015" speedFactor="1.05" vaporized="">
        <emissions CO_abs="11327.364991" CO2_abs="509078.231999" HC_abs="63.412534" PMx_abs="9.025852" NOx_abs="208.041407" fuel_abs="218.833925" electricity_abs="0"/>
    </tripinfo>
    <tripinfo id="carIn7949:1" depart="57676.00" departLane="128361109#1_1" departPos="5.10" departSpeed="0.00" departDelay="2.10" arrival="57977.00" arrivalLane="386687235_1" arrivalPos="80.84" arrivalSpeed="15.27" duration="301.00" routeLength="2088.57" waitingTime="152.00" waitingCount="2" stopTime="0.00" timeLoss="173.91" rerouteNo="1" devices="tripinfo_carIn7949:1 routing_carIn7949:1 emissions_carIn7949:1" vType="default_016" speedFactor="1.19" vaporized="">
        <emissions CO_abs="28190.116940" CO2_abs="790346.077152" HC_abs="146.708007" PMx_abs="16.433746" NOx_abs="335.558954" fuel_abs="339.746234" electricity_abs="0"/>
    </tripinfo>
    <tripinfo id="carIn9695:1" depart="57822.00" departLane="272042143_1" departPos="5.10" departSpeed="0.00" departDelay="0.80" arrival="57977.00" arrivalLane="-315358254#1_1" arrivalPos="137.16" arrivalSpeed="10.87" duration="155.00" routeLength="1596.88" waitingTime="0.00" waitingCount="0" stopTime="0.00" timeLoss="13.27" rerouteNo="1" devices="tripinfo_carIn9695:1 routing_carIn9695:1 emissions_carIn9695:1" vType="default_016" speedFactor="0.82" vaporized="">
        <emissions CO_abs="4316.573847" CO2_abs="324770.295497" HC_abs="27.116991" PMx_abs="4.712099" NOx_abs="126.076532" fuel_abs="139.605853" electricity_abs="0"/>
    </tripinfo>
    <tripinfo id="carIn85747:1" depart="57673.00" departLane="128361109#1_1" departPos="5.10" departSpeed="0.00" departDelay="0.70" arrival="57981.00" arrivalLane="386687235_1" arrivalPos="80.84" arrivalSpeed="14.24" duration="308.00" routeLength="2088.57" waitingTime="146.00" waitingCount="2" stopTime="0.00" timeLoss="165.43" rerouteNo="1" devices="tripinfo_carIn85747:1 routing_carIn85747:1 emissions_carIn85747:1" vType="default_016" speedFactor="1.06" vaporized="">
        <emissions CO_abs="26270.637140" CO2_abs="738920.732457" HC_abs="136.836830" PMx_abs="14.960509" NOx_abs="312.108776" fuel_abs="317.640480" electricity_abs="0"/>
    </tripinfo>
    <tripinfo id="carIn115169:1" depart="57759.00" departLane="24599188#0.94_1" departPos="5.10" departSpeed="0.00" departDelay="0.50" arrival="57984.00" arrivalLane="-10427692#3_1" arrivalPos="28.64" arrivalSpeed="18.27" duration="225.00" routeLength="2183.23" waitingTime="0.00" waitingCount="0" stopTime="0.00" timeLoss="27.72" rerouteNo="1" devices="tripinfo_carIn115169:1 routing_carIn115169:1 emissions_carIn115169:1" vType="default_016" speedFactor="0.86" vaporized="">
        <emissions CO_abs="8017.367336" CO2_abs="518969.956337" HC_abs="48.561705" PMx_abs="8.428699" NOx_abs="207.783394" fuel_abs="223.084107" electricity_abs="0"/>
    </tripinfo>
    <tripinfo id="h7032c2:3" depart="57863.00" departLane="315358244_1" departPos="5.10" departSpeed="0.00" departDelay="0.40" arrival="57984.00" arrivalLane="26677541_1" arrivalPos="152.31" arrivalSpeed="11.28" duration="121.00" routeLength="925.70" waitingTime="0.00" waitingCount="0" stopTime="0.00" timeLoss="15.63" rerouteNo="1" devices="tripinfo_h7032c2:3 routing_h7032c2:3 emissions_h7032c2:3" vType="default_016" speedFactor="0.84" vaporized="">
        <emissions CO_abs="4697.748471" CO2_abs="232899.954192" HC_abs="26.750605" PMx_abs="3.759138" NOx_abs="93.905018" fuel_abs="100.115124" electricity_abs="0"/>
    </tripinfo>
    <tripinfo id="h19413c1:1" depart="57685.00" departLane="128361109#1_1" departPos="5.10" departSpeed="0.00" departDelay="5.90" arrival="57986.00" arrivalLane="386687235_1" arrivalPos="80.84" arrivalSpeed="13.51" duration="301.00" routeLength="2088.57" waitingTime="126.00" waitingCount="2" stopTime="0.00" timeLoss="147.70" rerouteNo="1" devices="tripinfo_h19413c1:1 routing_h19413c1:1 emissions_h19413c1:1" vType="default_016" speedFactor="0.98" vaporized="">
        <emissions CO_abs="23718.190722" CO2_abs="706445.574061" HC_abs="124.500422" PMx_abs="13.874916" NOx_abs="296.354812" fuel_abs="303.679756" electricity_abs="0"/>
    </tripinfo>
    <tripinfo id="h317c2:1" depart="57707.00" departLane="-32978638#0_1" departPos="5.10" departSpeed="0.00" departDelay="0.10" arrival="57987.00" arrivalLane="-266565295#5_1" arrivalPos="172.76" arrivalSpeed="11.13" duration="280.00" routeLength="370.53" waitingTime="242.00" waitingCount="1" stopTime="0.00" timeLoss="249.36" rerouteNo="1" devices="tripinfo_h317c2:1 routing_h317c2:1 emissions_h317c2:1" vType="default_016" speedFactor="0.89" vaporized="">
        <emissions CO_abs="40930.034639" CO2_abs="733983.963482" HC_abs="203.581613" PMx_abs="17.480788" NOx_abs="330.436590" fuel_abs="315.526655" electricity_abs="0"/>
    </tripinfo>
    <tripinfo id="h330c1:1" depart="57736.00" departLane="-32978638#0_1" departPos="5.10" departSpeed="0.00" departDelay="0.20" arrival="57987.00" arrivalLane="-266565295#5_2" arrivalPos="172.76" arrivalSpeed="12.91" duration="251.00" routeLength="370.53" waitingTime="214.00" waitingCount="1" stopTime="0.00" timeLoss="223.55" rerouteNo="1" devices="tripinfo_h330c1:1 routing_h330c1:1 emissions_h330c1:1" vType="default_016" speedFactor="1.02" vaporized="">
        <emissions CO_abs="36532.687821" CO2_abs="665008.037910" HC_abs="181.983971" PMx_abs="15.971544" NOx_abs="300.242834" fuel_abs="285.874456" electricity_abs="0"/>
    </tripinfo>
    <tripinfo id="carIn99233:1" depart="57691.00" departLane="128361109#1_1" departPos="5.10" departSpeed="0.00" departDelay="1.90" arrival="57988.00" arrivalLane="386687235_2" arrivalPos="80.84" arrivalSpeed="13.13" duration="297.00" routeLength="2088.57" waitingTime="118.00" waitingCount="2" stopTime="0.00" timeLoss="144.48" rerouteNo="1" devices="tripinfo_carIn99233:1 routing_carIn99233:1 emissions_carIn99233:1" vType="default_016" speedFactor="0.99" vaporized="">