<?xml version="1.0" encoding="UTF-8"?>

<!-- generated on Thu Nov  4 14:13:12 2021 by Eclipse SUMO sumo Version 1.9.0
<configuration xmlns:xsi="http://www.w3.org/2001/XMLSchema-instance" xsi:noNamespaceSchemaLocation="http://sumo.dlr.de/xsd/sumoConfiguration.xsd">

    <input>
        <net-file value="/mainfs/home/bk2g18/RESCO/environments/ingolstadt21/ingolstadt21.net.xml"/>
        <route-files value="/mainfs/home/bk2g18/RESCO/environments/ingolstadt21/ingolstadt21.rou.xml"/>
    </input>

    <output>
        <tripinfo-output value="/mainfs/home/bk2g18/RESCO/logs/MPLight-tr0-ingolstadt21-21-mplight_full-pressure/tripinfo_78.xml"/>
        <tripinfo-output.write-unfinished value="true"/>
    </output>

    <time>
        <begin value="57600"/>
        <end value="61200"/>
    </time>

    <processing>
        <time-to-teleport value="-1"/>
    </processing>

    <report>
        <xml-validation value="never"/>
        <xml-validation.routes value="never"/>
        <no-warnings value="true"/>
        <no-step-log value="true"/>
    </report>

    <emissions>
        <device.emissions.probability value="1"/>
    </emissions>

    <traci_server>
        <remote-port value="58378"/>
    </traci_server>

    <random_number>
        <random value="true"/>
    </random_number>

</configuration>
-->

<tripinfos xmlns:xsi="http://www.w3.org/2001/XMLSchema-instance" xsi:noNamespaceSchemaLocation="http://sumo.dlr.de/xsd/tripinfo_file.xsd">
    <tripinfo id="h15454c2:3" depart="57612.00" departLane="24608844_1" departPos="5.10" departSpeed="0.00" departDelay="0.50" arrival="57650.00" arrivalLane="32978638#0_1" arrivalPos="49.29" arrivalSpeed="13.65" duration="38.00" routeLength="354.79" waitingTime="0.00" waitingCount="0" stopTime="0.00" timeLoss="5.48" rerouteNo="1" devices="tripinfo_h15454c2:3 routing_h15454c2:3 emissions_h15454c2:3" vType="default_016" speedFactor="1.06" vaporized="">
        <emissions CO_abs="1630.614562" CO2_abs="92388.781755" HC_abs="9.567886" PMx_abs="1.519659" NOx_abs="37.153579" fuel_abs="39.714326" electricity_abs="0"/>
    </tripinfo>
    <tripinfo id="carIn53971:1" depart="57640.00" departLane="272042143_1" departPos="5.10" departSpeed="0.00" departDelay="0.80" arrival="57690.00" arrivalLane="24634414#1_1" arrivalPos="162.19" arrivalSpeed="9.05" duration="50.00" routeLength="493.04" waitingTime="0.00" waitingCount="0" stopTime="0.00" timeLoss="8.36" rerouteNo="1" devices="tripinfo_carIn53971:1 routing_carIn53971:1 emissions_carIn53971:1" vType="default_016" speedFactor="1.11" vaporized="">
        <emissions CO_abs="2471.445360" CO2_abs="148922.265236" HC_abs="14.720433" PMx_abs="2.627648" NOx_abs="60.895749" fuel_abs="64.015463" electricity_abs="0"/>
    </tripinfo>
    <tripinfo id="h7800c1:5" depart="57696.00" departLane="-447569998#1_1" departPos="5.10" departSpeed="0.00" departDelay="0.00" arrival="57725.00" arrivalLane="-447569998#1_2" arrivalPos="180.76" arrivalSpeed="3.24" duration="29.00" routeLength="175.66" waitingTime="0.00" waitingCount="0" stopTime="0.00" timeLoss="7.96" rerouteNo="1" devices="tripinfo_h7800c1:5 routing_h7800c1:5 emissions_h7800c1:5" vType="default_016" speedFactor="1.01" vaporized="">
        <emissions CO_abs="1294.412947" CO2_abs="50886.943906" HC_abs="7.069222" PMx_abs="0.895692" NOx_abs="21.131973" fuel_abs="21.874527" electricity_abs="0"/>
    </tripinfo>
    <tripinfo id="carIn60260:1" depart="57606.00" departLane="315358254#0_1" departPos="5.10" departSpeed="0.00" departDelay="0.90" arrival="57728.00" arrivalLane="399835085#1_1" arrivalPos="212.23" arrivalSpeed="8.74" duration="122.00" routeLength="430.98" waitingTime="70.00" waitingCount="1" stopTime="0.00" timeLoss="81.96" rerouteNo="1" devices="tripinfo_carIn60260:1 routing_carIn60260:1 emissions_carIn60260:1" vType="default_016" speedFactor="1.15" vaporized="">
        <emissions CO_abs="13446.295332" CO2_abs="301612.624313" HC_abs="68.301297" PMx_abs="6.688002" NOx_abs="132.896031" fuel_abs="129.655743" electricity_abs="0"/>
    </tripinfo>
    <tripinfo id="carIn121703:1" depart="57647.00" departLane="386687232#0_1" departPos="5.10" departSpeed="0.00" departDelay="0.30" arrival="57754.00" arrivalLane="-315358244_1" arrivalPos="33.95" arrivalSpeed="13.02" duration="107.00" routeLength="1157.39" waitingTime="1.00" waitingCount="1" stopTime="0.00" timeLoss="18.01" rerouteNo="1" devices="tripinfo_carIn121703:1 routing_carIn121703:1 emissions_carIn121703:1" vType="default_016" speedFactor="0.95" vaporized="">
        <emissions CO_abs="3564.562319" CO2_abs="240770.990691" HC_abs="21.873545" PMx_abs="4.104666" NOx_abs="97.160082" fuel_abs="103.497293" electricity_abs="0"/>
    </tripinfo>
    <tripinfo id="h317c2:1" depart="57707.00" departLane="-32978638#0_1" departPos="5.10" departSpeed="0.00" departDelay="0.10" arrival="57758.00" arrivalLane="-266565295#5_1" arrivalPos="172.76" arrivalSpeed="10.84" duration="51.00" routeLength="370.53" waitingTime="11.00" waitingCount="1" stopTime="0.00" timeLoss="18.78" rerouteNo="1" devices="tripinfo_h317c2:1 routing_h317c2:1 emissions_h317c2:1" vType="default_016" speedFactor="0.85" vaporized="">
        <emissions CO_abs="2977.623280" CO2_abs="125452.650577" HC_abs="16.494292" PMx_abs="2.330963" NOx_abs="52.332478" fuel_abs="53.927419" electricity_abs="0"/>
    </tripinfo>
    <tripinfo id="h3326c1:2" depart="57656.00" departLane="22716069#0_1" departPos="5.10" departSpeed="0.00" departDelay="0.00" arrival="57761.00" arrivalLane="24634517#13_1" arrivalPos="111.62" arrivalSpeed="14.43" duration="105.00" routeLength="1312.81" waitingTime="0.00" waitingCount="0" stopTime="0.00" timeLoss="16.04" rerouteNo="1" devices="tripinfo_h3326c1:2 routing_h3326c1:2 emissions_h3326c1:2" vType="default_016" speedFactor="1.10" vaporized="">
        <emissions CO_abs="4331.895551" CO2_abs="321576.183319" HC_abs="27.240227" PMx_abs="5.747801" NOx_abs="130.683467" fuel_abs="138.231328" electricity_abs="0"/>
    </tripinfo>
    <tripinfo id="h3568c1:3" depart="57656.00" departLane="266565295#5_1" departPos="5.10" departSpeed="0.00" departDelay="0.80" arrival="57774.00" arrivalLane="-24634415_1" arrivalPos="62.03" arrivalSpeed="14.09" duration="118.00" routeLength="807.40" waitingTime="40.00" waitingCount="1" stopTime="0.00" timeLoss="58.87" rerouteNo="1" devices="tripinfo_h3568c1:3 routing_h3568c1:3 emissions_h3568c1:3" vType="default_016" speedFactor="1.08" vaporized="">
        <emissions CO_abs="9329.175283" CO2_abs="334186.501406" HC_abs="50.243251" PMx_abs="6.685196" NOx_abs="141.686216" fuel_abs="143.654851" electricity_abs="0"/>
    </tripinfo>
    <tripinfo id="h4538c1:1" depart="57701.00" departLane="-10427692#1_1" departPos="5.10" departSpeed="0.00" departDelay="0.00" arrival="57779.00" arrivalLane="-128361102#1_1" arrivalPos="274.68" arrivalSpeed="12.55" duration="78.00" routeLength="440.74" waitingTime="31.00" waitingCount="1" stopTime="0.00" timeLoss="43.02" rerouteNo="1" devices="tripinfo_h4538c1:1 routing_h4538c1:1 emissions_h4538c1:1" vType="default_016" speedFactor="0.91" vaporized="">
        <emissions CO_abs="6208.559450" CO2_abs="189834.474548" HC_abs="32.699477" PMx_abs="3.700972" NOx_abs="79.974109" fuel_abs="81.603992" electricity_abs="0"/>
    </tripinfo>
    <tripinfo id="h7181c1:1" depart="57660.00" departLane="315358254#0_1" departPos="5.10" departSpeed="0.00" departDelay="0.10" arrival="57782.00" arrivalLane="306240162#0_0" arrivalPos="220.43" arrivalSpeed="15.02" duration="122.00" routeLength="932.35" waitingTime="40.00" waitingCount="3" stopTime="0.00" timeLoss="67.49" rerouteNo="1" devices="tripinfo_h7181c1:1 routing_h7181c1:1 emissions_h7181c1:1" vType="default_016" speedFactor="0.95" vaporized="">
        <emissions CO_abs="9398.340366" CO2_abs="380649.633018" HC_abs="51.815734" PMx_abs="7.872167" NOx_abs="162.098542" fuel_abs="163.626363" electricity_abs="0"/>
    </tripinfo>
    <tripinfo id="carIn27009:1" depart="57673.00" departLane="-447569998#1_1" departPos="5.10" departSpeed="0.00" departDelay="0.50" arrival="57799.00" arrivalLane="-26677539_1" arrivalPos="152.75" arrivalSpeed="6.98" duration="126.00" routeLength="699.63" waitingTime="21.00" waitingCount="1" stopTime="0.00" timeLoss="36.13" rerouteNo="1" devices="tripinfo_carIn27009:1 routing_carIn27009:1 emissions_carIn27009:1" vType="default_015" speedFactor="0.93" vaporized="">
        <emissions CO_abs="7439.802529" CO2_abs="242457.677750" HC_abs="39.463289" PMx_abs="4.389774" NOx_abs="101.307644" fuel_abs="104.225042" electricity_abs="0"/>
    </tripinfo>
    <tripinfo id="carIn107282:1" depart="57749.00" departLane="-447569998#1_1" departPos="5.10" departSpeed="0.00" departDelay="0.00" arrival="57799.00" arrivalLane="315358242#0_1" arrivalPos="165.37" arrivalSpeed="12.15" duration="50.00" routeLength="448.50" waitingTime="0.00" waitingCount="0" stopTime="0.00" timeLoss="5.34" rerouteNo="1" devices="tripinfo_carIn107282:1 routing_carIn107282:1 emissions_carIn107282:1" vType="default_016" speedFactor="0.94" vaporized="">
        <emissions CO_abs="1807.684161" CO2_abs="102273.025345" HC_abs="10.597910" PMx_abs="1.660225" NOx_abs="41.065062" fuel_abs="43.963203" electricity_abs="0"/>
    </tripinfo>
    <tripinfo id="carIn129809:1" depart="57729.00" departLane="-447569998#1_1" departPos="5.10" departSpeed="0.00" departDelay="1.00" arrival="57814.00" arrivalLane="-315358244_1" arrivalPos="33.95" arrivalSpeed="13.15" duration="85.00" routeLength="706.49" waitingTime="7.00" waitingCount="1" stopTime="0.00" timeLoss="21.61" rerouteNo="1" devices="tripinfo_carIn129809:1 routing_carIn129809:1 emissions_carIn129809:1" vType="default_015" speedFactor="0.96" vaporized="">
        <emissions CO_abs="3608.937073" CO2_abs="191515.035619" HC_abs="20.906414" PMx_abs="3.350944" NOx_abs="78.357630" fuel_abs="82.324712" electricity_abs="0"/>
    </tripinfo>
    <tripinfo id="h330c1:1" depart="57736.00" departLane="-32978638#0_1" departPos="5.10" departSpeed="0.00" departDelay="0.20" arrival="57815.00" arrivalLane="-266565295#5_1" arrivalPos="172.76" arrivalSpeed="13.31" duration="79.00" routeLength="370.53" waitingTime="43.00" waitingCount="1" stopTime="0.00" timeLoss="50.62" rerouteNo="1" devices="tripinfo_h330c1:1 routing_h330c1:1 emissions_h330c1:1" vType="default_016" speedFactor="0.97" vaporized="">
        <emissions CO_abs="8286.813212" CO2_abs="220078.616672" HC_abs="42.908625" PMx_abs="4.678003" NOx_abs="95.297658" fuel_abs="94.605349" electricity_abs="0"/>
    </tripinfo>
    <tripinfo id="h11737c1:1" depart="57665.00" departLane="272042143_1" departPos="5.10" departSpeed="0.00" departDelay="1.50" arrival="57817.00" arrivalLane="-315358254#1_1" arrivalPos="137.16" arrivalSpeed="13.46" duration="152.00" routeLength="1596.88" waitingTime="17.00" waitingCount="1" stopTime="0.00" timeLoss="35.12" rerouteNo="1" devices="tripinfo_h11737c1:1 routing_h11737c1:1 emissions_h11737c1:1" vType="default_016" speedFactor="1.00" vaporized="">
        <emissions CO_abs="6087.381798" CO2_abs="365863.852490" HC_abs="36.227014" PMx_abs="6.057957" NOx_abs="145.465547" fuel_abs="157.270386" electricity_abs="0"/>
    </tripinfo>
    <tripinfo id="h5979c1:5" depart="57669.00" departLane="399835085#1_1" departPos="5.10" departSpeed="0.00" departDelay="0.00" arrival="57819.00" arrivalLane="-315358254#1_1" arrivalPos="137.16" arrivalSpeed="13.63" duration="150.00" routeLength="659.33" waitingTime="60.00" waitingCount="1" stopTime="0.00" timeLoss="75.96" rerouteNo="1" devices="tripinfo_h5979c1:5 routing_h5979c1:5 emissions_h5979c1:5" vType="default_016" speedFactor="0.98" vaporized="">
        <emissions CO_abs="12863.430362" CO2_abs="325202.984938" HC_abs="66.111545" PMx_abs="6.542302" NOx_abs="139.200822" fuel_abs="139.796248" electricity_abs="0"/>
    </tripinfo>
    <tripinfo id="carIn22761:1" depart="57616.00" departLane="-306240162#1_0" departPos="5.10" departSpeed="0.00" departDelay="2.10" arrival="57820.00" arrivalLane="399835085#1_1" arrivalPos="212.23" arrivalSpeed="8.57" duration="204.00" routeLength="1093.26" waitingTime="107.00" waitingCount="1" stopTime="0.00" timeLoss="133.61" rerouteNo="1" devices="tripinfo_carIn22761:1 routing_carIn22761:1 emissions_carIn22761:1" vType="default_016" speedFactor="1.11" vaporized="">
        <emissions CO_abs="21656.180700" CO2_abs="560048.938979" HC_abs="111.844052" PMx_abs="12.454425" NOx_abs="245.417386" fuel_abs="240.748337" electricity_abs="0"/>
    </tripinfo>
    <tripinfo id="carIn126288:1" depart="57674.00" departLane="272042143_1" departPos="5.10" departSpeed="0.00" departDelay="0.00" arrival="57827.00" arrivalLane="-315358254#1_1" arrivalPos="137.16" arrivalSpeed="10.45" duration="153.00" routeLength="1596.88" waitingTime="0.00" waitingCount="0" stopTime="0.00" timeLoss="14.59" rerouteNo="1" devices="tripinfo_carIn126288:1 routing_carIn126288:1 emissions_carIn126288:1" vType="default_016" speedFactor="0.85" vaporized="">
        <emissions CO_abs="4350.230725" CO2_abs="323499.346868" HC_abs="27.263057" PMx_abs="4.809099" NOx_abs="126.244171" fuel_abs="139.059399" electricity_abs="0"/>
    </tripinfo>
    <tripinfo id="carIn7949:1" depart="57676.00" departLane="128361109#1_1" departPos="5.10" departSpeed="0.00" departDelay="2.10" arrival="57838.00" arrivalLane="386687235_1" arrivalPos="80.84" arrivalSpeed="16.86" duration="162.00" routeLength="2088.57" waitingTime="20.00" waitingCount="1" stopTime="0.00" timeLoss="37.86" rerouteNo="1" devices="tripinfo_carIn7949:1 routing_carIn7949:1 emissions_carIn7949:1" vType="default_016" speedFactor="1.22" vaporized="">
        <emissions CO_abs="6509.706630" CO2_abs="432519.500800" HC_abs="39.699102" PMx_abs="7.561007" NOx_abs="171.202640" fuel_abs="185.922133" electricity_abs="0"/>
    </tripinfo>
    <tripinfo id="carIn85747:1" depart="57673.00" departLane="128361109#1_1" departPos="5.10" departSpeed="0.00" departDelay="0.70" arrival="57845.00" arrivalLane="386687235_1" arrivalPos="80.84" arrivalSpeed="15.45" duration="172.00" routeLength="2088.57" waitingTime="23.00" waitingCount="1" stopTime="0.00" timeLoss="38.45" rerouteNo="1" devices="tripinfo_carIn85747:1 routing_carIn85747:1 emissions_carIn85747:1" vType="default_016" speedFactor="1.13" vaporized="">
        <emissions CO_abs="6772.372984" CO2_abs="422578.108932" HC_abs="40.501882" PMx_abs="7.138199" NOx_abs="166.525121" fuel_abs="181.649369" electricity_abs="0"/>
    </tripinfo>
    <tripinfo id="randUni15030:1" depart="57735.00" departLane="386687232#0_1" departPos="5.10" departSpeed="0.00" departDelay="0.10" arrival="57848.00" arrivalLane="26677539_1" arrivalPos="151.98" arrivalSpeed="5.90" duration="113.00" routeLength="919.89" waitingTime="0.00" waitingCount="0" stopTime="0.00" timeLoss="12.54" rerouteNo="1" devices="tripinfo_randUni15030:1 routing_randUni15030:1 emissions_randUni15030:1" vType="random_016" speedFactor="0.83" vaporized="">
        <emissions CO_abs="3624.127510" CO2_abs="195571.825933" HC_abs="20.989918" PMx_abs="3.022772" NOx_abs="77.787871" fuel_abs="84.069086" electricity_abs="0"/>
    </tripinfo>
    <tripinfo id="h17549c1:1" depart="57680.00" departLane="-447569998#1_1" departPos="5.10" departSpeed="0.00" departDelay="0.00" arrival="57861.00" arrivalLane="-315358254#1_1" arrivalPos="137.16" arrivalSpeed="13.10" duration="181.00" routeLength="1746.60" waitingTime="18.00" waitingCount="2" stopTime="0.00" timeLoss="41.24" rerouteNo="1" devices="tripinfo_h17549c1:1 routing_h17549c1:1 emissions_h17549c1:1" vType="default_016" speedFactor="0.98" vaporized="">
        <emissions CO_abs="7230.194355" CO2_abs="426883.704151" HC_abs="42.852864" PMx_abs="7.064638" NOx_abs="170.646178" fuel_abs="183.500425" electricity_abs="0"/>
    </tripinfo>
    <tripinfo id="carIn75660:1" depart="57679.00" departLane="128361109#1_1" departPos="5.10" departSpeed="0.00" departDelay="3.40" arrival="57863.00" arrivalLane="386687235_1" arrivalPos="80.84" arrivalSpeed="12.91" duration="184.00" routeLength="2088.57" waitingTime="15.00" waitingCount="1" stopTime="0.00" timeLoss="31.47" rerouteNo="1" devices="tripinfo_carIn75660:1 routing_carIn75660:1 emissions_carIn75660:1" vType="default_016" speedFactor="0.99" vaporized="">
        <emissions CO_abs="5500.210262" CO2_abs="387352.588227" HC_abs="33.989915" PMx_abs="5.918003" NOx_abs="149.936605" fuel_abs="166.507581" electricity_abs="0"/>
    </tripinfo>
    <tripinfo id="h19413c1:1" depart="57685.00" departLane="128361109#1_1" departPos="5.10" departSpeed="0.00" departDelay="5.90" arrival="57865.00" arrivalLane="386687235_1" arrivalPos="80.84" arrivalSpeed="12.60" duration="180.00" routeLength="2088.57" waitingTime="11.00" waitingCount="1" stopTime="0.00" timeLoss="28.21" rerouteNo="1" devices="tripinfo_h19413c1:1 routing_h19413c1:1 emissions_h19413c1:1" vType="default_016" speedFactor="0.99" vaporized="">
        <emissions CO_abs="4829.107103" CO2_abs="382968.422116" HC_abs="30.883349" PMx_abs="5.844443" NOx_abs="148.282251" fuel_abs="164.622488" electricity_abs="0"/>
    </tripinfo>
    <tripinfo id="carIn88905:1" depart="57688.00" departLane="128361109#1_1" departPos="5.10" departSpeed="0.00" departDelay="5.80" arrival="57865.00" arrivalLane="386687235_2" arrivalPos="80.84" arrivalSpeed="14.52" duration="177.00" routeLength="2088.57" waitingTime="8.00" waitingCount="1" stopTime="0.00" timeLoss="40.16" rerouteNo="1" devices="tripinfo_carIn88905:1 routing_carIn88905:1 emissions_carIn88905:1" vType="default_016" speedFactor="1.10" vaporized="">
        <emissions CO_abs="5666.711229" CO2_abs="444549.891431" HC_abs="36.228195" PMx_abs="7.374094" NOx_abs="176.470415" fuel_abs="191.092942" electricity_abs="0"/>
    </tripinfo>
    <tripinfo id="h17600c1:1" depart="57662.00" departLane="272042143_1" departPos="5.10" departSpeed="0.00" departDelay="0.30" arrival="57868.00" arrivalLane="201238729#3_1" arrivalPos="431.02" arrivalSpeed="11.40" duration="206.00" routeLength="2100.26" waitingTime="7.00" waitingCount="1" stopTime="0.00" timeLoss="28.00" rerouteNo="1" devices="tripinfo_h17600c1:1 routing_h17600c1:1 emissions_h17600c1:1" vType="default_016" speedFactor="0.85" vaporized="">
        <emissions CO_abs="5505.090436" CO2_abs="408085.527236" HC_abs="34.463711" PMx_abs="6.009379" NOx_abs="158.588120" fuel_abs="175.419739" electricity_abs="0"/>
    </tripinfo>
    <tripinfo id="carIn70533:1" depart="57812.00" departLane="-447569998#1_1" departPos="5.10" departSpeed="0.00" departDelay="0.10" arrival="57882.00" arrivalLane="-315358244_2" arrivalPos="33.95" arrivalSpeed="14.02" duration="70.00" routeLength="706.49" waitingTime="0.00" waitingCount="0" stopTime="0.00" timeLoss="12.02" rerouteNo="1" devices="tripinfo_carIn70533:1 routing_carIn70533:1 emissions_carIn70533:1" vType="default_016" speedFactor="1.04" vaporized="">
        <emissions CO_abs="2954.184962" CO2_abs="186331.698753" HC_abs="17.734653" PMx_abs="3.064265" NOx_abs="74.519934" fuel_abs="80.096460" electricity_abs="0"/>
    </tripinfo>
    <tripinfo id="carIn13443:1" depart="57729.00" departLane="272042143_1" departPos="5.10" departSpeed="0.00" departDelay="0.80" arrival="57883.00" arrivalLane="399835085#1_1" arrivalPos="212.23" arrivalSpeed="7.37" duration="154.00" routeLength="1757.45" waitingTime="0.00" waitingCount="0" stopTime="0.00" timeLoss="14.95" rerouteNo="1" devices="tripinfo_carIn13443:1 routing_carIn13443:1 emissions_carIn13443:1" vType="default_016" speedFactor="1.02" vaporized="">
        <emissions CO_abs="4252.225599" CO2_abs="332760.344370" HC_abs="27.091356" PMx_abs="5.191229" NOx_abs="130.388003" fuel_abs="143.039874" electricity_abs="0"/>
    </tripinfo>
    <tripinfo id="carIn8642:1" depart="57774.00" departLane="-447569998#1_1" departPos="5.10" departSpeed="0.00" departDelay="0.90" arrival="57886.00" arrivalLane="-315358244_1" arrivalPos="33.95" arrivalSpeed="8.26" duration="112.00" routeLength="706.49" waitingTime="9.00" waitingCount="1" stopTime="0.00" timeLoss="23.15" rerouteNo="1" devices="tripinfo_carIn8642:1 routing_carIn8642:1 emissions_carIn8642:1" vType="default_016" speedFactor="0.68" vaporized="">
        <emissions CO_abs="4964.704317" CO2_abs="192741.788692" HC_abs="27.014318" PMx_abs="3.163980" NOx_abs="78.389821" fuel_abs="82.853412" electricity_abs="0"/>
    </tripinfo>
    <tripinfo id="carIn80064:1" depart="57603.00" departLane="128361109#1_1" departPos="5.10" departSpeed="0.00" departDelay="0.40" arrival="57893.00" arrivalLane="-315358254#1_1" arrivalPos="137.16" arrivalSpeed="13.84" duration="290.00" routeLength="1587.97" waitingTime="173.00" waitingCount="2" stopTime="0.00" timeLoss="201.09" rerouteNo="1" devices="tripinfo_carIn80064:1 routing_carIn80064:1 emissions_carIn80064:1" vType="default_016" speedFactor="1.01" vaporized="">
        <emissions CO_abs="33876.092315" CO2_abs="884358.304543" HC_abs="175.247715" PMx_abs="19.702960" NOx_abs="385.157007" fuel_abs="380.159211" electricity_abs="0"/>
    </tripinfo>
    <tripinfo id="carIn132499:1" depart="57740.00" departLane="272042143_1" departPos="5.10" departSpeed="0.00" departDelay="0.70" arrival="57896.00" arrivalLane="201238729#3_1" arrivalPos="431.02" arrivalSpeed="14.60" duration="156.00" routeLength="2100.26" waitingTime="0.00" waitingCount="0" stopTime="0.00" timeLoss="13.06" rerouteNo="1" devices="tripinfo_carIn132499:1 routing_carIn132499:1 emissions_carIn132499:1" vType="default_016" speedFactor="1.06" vaporized="">
        <emissions CO_abs="3528.889811" CO2_abs="386425.611941" HC_abs="24.852332" PMx_abs="5.717523" NOx_abs="146.942933" fuel_abs="166.107833" electricity_abs="0"/>
    </tripinfo>
    <tripinfo id="h19804c1:3" depart="57617.00" departLane="124812856#0_1" departPos="5.10" departSpeed="0.00" departDelay="1.50" arrival="57897.00" arrivalLane="-128361102#1_1" arrivalPos="274.68" arrivalSpeed="13.16" duration="280.00" routeLength="2250.49" waitingTime="78.00" waitingCount="3" stopTime="0.00" timeLoss="109.41" rerouteNo="1" devices="tripinfo_h19804c1:3 routing_h19804c1:3 emissions_h19804c1:3" vType="default_016" speedFactor="0.96" vaporized="">
        <emissions CO_abs="17348.591203" CO2_abs="693887.189618" HC_abs="95.261101" PMx_abs="12.990625" NOx_abs="287.781884" fuel_abs="298.277085" electricity_abs="0"/>
    </tripinfo>
    <tripinfo id="carIn107084:1" depart="57601.00" departLane="124812856#0_1" departPos="5.10" departSpeed="0.00" departDelay="0.70" arrival="57899.00" arrivalLane="-128361102#1_1" arrivalPos="274.68" arrivalSpeed="14.14" duration="298.00" routeLength="2250.49" waitingTime="90.00" waitingCount="3" stopTime="0.00" timeLoss="140.71" rerouteNo="1" devices="tripinfo_carIn107084:1 routing_carIn107084:1 emissions_carIn107084:1" vType="default_016" speedFactor="1.05" vaporized="">
        <emissions CO_abs="21392.318802" CO2_abs="787558.222675" HC_abs="115.908092" PMx_abs="15.389951" NOx_abs="331.332636" fuel_abs="338.543295" electricity_abs="0"/>
    </tripinfo>
    <tripinfo id="randUni23028:1" depart="57884.00" departLane="124812856#0_1" departPos="5.10" departSpeed="0.00" departDelay="0.10" arrival="57899.00" arrivalLane="201956810_1" arrivalPos="71.65" arrivalSpeed="13.76" duration="15.00" routeLength="134.91" waitingTime="0.00" waitingCount="0" stopTime="0.00" timeLoss="4.13" rerouteNo="1" devices="tripinfo_randUni23028:1 routing_randUni23028:1 emissions_randUni23028:1" vType="random_016" speedFactor="0.99" vaporized="">
        <emissions CO_abs="1212.046543" CO2_abs="64942.705749" HC_abs="7.051837" PMx_abs="1.271967" NOx_abs="27.523808" fuel_abs="27.916064" electricity_abs="0"/>
    </tripinfo>
    <tripinfo id="carIn81681:1" depart="57726.00" departLane="272042143_1" departPos="5.10" departSpeed="0.00" departDelay="0.30" arrival="57900.00" arrivalLane="306240162#0_0" arrivalPos="220.43" arrivalSpeed="17.52" duration="174.00" routeLength="2246.89" waitingTime="13.00" waitingCount="1" stopTime="0.00" timeLoss="38.04" rerouteNo="1" devices="tripinfo_carIn81681:1 routing_carIn81681:1 emissions_carIn81681:1" vType="default_016" speedFactor="1.09" vaporized="">
        <emissions CO_abs="8363.167012" CO2_abs="579161.654033" HC_abs="51.584510" PMx_abs="10.710594" NOx_abs="234.943482" fuel_abs="248.956083" electricity_abs="0"/>
    </tripinfo>
    <tripinfo id="carIn63848:1" depart="57841.00" departLane="-447569998#1_1" departPos="5.10" departSpeed="0.00" departDelay="0.80" arrival="57900.00" arrivalLane="-315358244_2" arrivalPos="33.95" arrivalSpeed="14.80" duration="59.00" routeLength="706.49" waitingTime="0.00" waitingCount="0" stopTime="0.00" timeLoss="7.13" rerouteNo="1" devices="tripinfo_carIn63848:1 routing_carIn63848:1 emissions_carIn63848:1" vType="default_016" speedFactor="1.16" vaporized="">
        <emissions CO_abs="2183.400316" CO2_abs="164554.359337" HC_abs="13.731170" PMx_abs="2.743880" NOx_abs="65.397085" fuel_abs="70.734905" electricity_abs="0"/>
    </tripinfo>
    <tripinfo id="carIn77943:1" depart="57608.00" departLane="124812856#0_1" departPos="5.10" departSpeed="0.00" departDelay="2.50" arrival="57901.00" arrivalLane="-128361102#1_1" arrivalPos="274.68" arrivalSpeed="15.42" duration="293.00" routeLength="2250.49" waitingTime="86.00" waitingCount="3" stopTime="0.00" timeLoss="146.78" rerouteNo="1" devices="tripinfo_carIn77943:1 routing_carIn77943:1 emissions_carIn77943:1" vType="default_016" speedFactor="1.13" vaporized="">
        <emissions CO_abs="20333.479295" CO2_abs="792283.488364" HC_abs="111.204621" PMx_abs="15.398401" NOx_abs="332.467473" fuel_abs="340.573660" electricity_abs="0"/>
    </tripinfo>
    <tripinfo id="carIn13353:1" depart="57838.00" departLane="-447569998#1_1" departPos="5.10" departSpeed="0.00" departDelay="0.30" arrival="57901.00" arrivalLane="-315358244_1" arrivalPos="33.95" arrivalSpeed="14.52" duration="63.00" routeLength="706.49" waitingTime="0.00" waitingCount="0" stopTime="0.00" timeLoss="7.12" rerouteNo="1" devices="tripinfo_carIn13353:1 routing_carIn13353:1 emissions_carIn13353:1" vType="default_016" speedFactor="1.09" vaporized="">
        <emissions CO_abs="2347.680920" CO2_abs="158516.198688" HC_abs="14.376128" PMx_abs="2.725048" NOx_abs="64.021824" fuel_abs="68.139396" electricity_abs="0"/>
    </tripinfo>
    <tripinfo id="carIn118538:1" depart="57683.00" departLane="-447569998#1_1" departPos="5.10" departSpeed="0.00" departDelay="1.00" arrival="57904.00" arrivalLane="399835085#1_1" arrivalPos="212.23" arrivalSpeed="7.24" duration="221.00" routeLength="1904.55" waitingTime="22.00" waitingCount="4" stopTime="0.00" timeLoss="60.10" rerouteNo="1" devices="tripinfo_carIn118538:1 routing_carIn118538:1 emissions_carIn118538:1" vType="default_016" speedFactor="1.01" vaporized="">
        <emissions CO_abs="8716.037097" CO2_abs="462481.031324" HC_abs="50.444523" PMx_abs="7.833625" NOx_abs="186.954422" fuel_abs="198.802695" electricity_abs="0"/>
    </tripinfo>
    <tripinfo id="carIn14532:1" depart="57743.00" departLane="272042143_1" departPos="5.10" departSpeed="0.00" departDelay="1.90" arrival="57907.00" arrivalLane="399835085#1_1" arrivalPos="212.23" arrivalSpeed="7.21" duration="164.00" routeLength="1757.45" waitingTime="1.00" waitingCount="1" stopTime="0.00" timeLoss="21.20" rerouteNo="1" devices="tripinfo_carIn14532:1 routing_carIn14532:1 emissions_carIn14532:1" vType="default_016" speedFactor="0.99" vaporized="">
        <emissions CO_abs="4853.273201" CO2_abs="361590.464754" HC_abs="30.446358" PMx_abs="5.515197" NOx_abs="141.034287" fuel_abs="155.433118" electricity_abs="0"/>
    </tripinfo>
    <tripinfo id="h5239c1:3" depart="57834.00" departLane="315358254#0_1" departPos="5.10" departSpeed="0.00" departDelay="0.80" arrival="57914.00" arrivalLane="224892361#3_1" arrivalPos="220.30" arrivalSpeed="21.06" duration="80.00" routeLength="793.34" waitingTime="22.00" waitingCount="1" stopTime="0.00" timeLoss="38.59" rerouteNo="1" devices="tripinfo_h5239c1:3 routing_h5239c1:3 emissions_h5239c1:3" vType="default_016" speedFactor="1.00" vaporized="">
        <emissions CO_abs="6791.018116" CO2_abs="311612.055836" HC_abs="38.381679" PMx_abs="6.407404" NOx_abs="130.839084" fuel_abs="133.949272" electricity_abs="0"/>
    </tripinfo>
    <tripinfo id="carIn24709:1" depart="57753.00" departLane="266565295#5_1" departPos="5.10" departSpeed="0.00" departDelay="2.50" arrival="57917.00" arrivalLane="-24634506#2_1" arrivalPos="71.32" arrivalSpeed="14.51" duration="164.00" routeLength="1450.12" waitingTime="27.00" waitingCount="2" stopTime="0.00" timeLoss="50.60" rerouteNo="1" devices="tripinfo_carIn24709:1 routing_carIn24709:1 emissions_carIn24709:1" vType="default_016" speedFactor="1.05" vaporized="">
        <emissions CO_abs="8868.424149" CO2_abs="416808.595273" HC_abs="50.117451" PMx_abs="7.459597" NOx_abs="170.229044" fuel_abs="179.170223" electricity_abs="0"/>
    </tripinfo>
    <tripinfo id="carIn12858:1" depart="57661.00" departLane="128361109#1_1" departPos="5.10" departSpeed="0.00" departDelay="0.90" arrival="57922.00" arrivalLane="399835085#1_1" arrivalPos="212.23" arrivalSpeed="8.69" duration="261.00" routeLength="1738.12" waitingTime="118.00" waitingCount="2" stopTime="0.00" timeLoss="150.62" rerouteNo="1" devices="tripinfo_carIn12858:1 routing_carIn12858:1 emissions_carIn12858:1" vType="default_016" speedFactor="1.05" vaporized="">
        <emissions CO_abs="25127.594992" CO2_abs="779741.970785" HC_abs="132.918373" PMx_abs="16.529962" NOx_abs="333.757458" fuel_abs="335.185047" electricity_abs="0"/>
    </tripinfo>
    <tripinfo id="carIn80913:1" depart="57732.00" departLane="272042143_1" departPos="5.10" departSpeed="0.00" departDelay="0.40" arrival="57928.00" arrivalLane="306240162#0_0" arrivalPos="220.43" arrivalSpeed="15.43" duration="196.00" routeLength="2246.89" waitingTime="15.00" waitingCount="2" stopTime="0.00" timeLoss="43.69" rerouteNo="1" devices="tripinfo_carIn80913:1 routing_carIn80913:1 emissions_carIn80913:1" vType="default_016" speedFactor="0.97" vaporized="">