<?xml version="1.0" encoding="UTF-8"?>

<!-- generated on Thu Nov  4 13:45:57 2021 by Eclipse SUMO sumo Version 1.9.0
<configuration xmlns:xsi="http://www.w3.org/2001/XMLSchema-instance" xsi:noNamespaceSchemaLocation="http://sumo.dlr.de/xsd/sumoConfiguration.xsd">

    <input>
        <net-file value="/mainfs/home/bk2g18/RESCO/environments/ingolstadt21/ingolstadt21.net.xml"/>
        <route-files value="/mainfs/home/bk2g18/RESCO/environments/ingolstadt21/ingolstadt21.rou.xml"/>
    </input>

    <output>
        <tripinfo-output value="/mainfs/home/bk2g18/RESCO/logs/MPLight-tr0-ingolstadt21-21-mplight_full-pressure/tripinfo_47.xml"/>
        <tripinfo-output.write-unfinished value="true"/>
    </output>

    <time>
        <begin value="57600"/>
        <end value="61200"/>
    </time>

    <processing>
        <time-to-teleport value="-1"/>
    </processing>

    <report>
        <xml-validation value="never"/>
        <xml-validation.routes value="never"/>
        <no-warnings value="true"/>
        <no-step-log value="true"/>
    </report>

    <emissions>
        <device.emissions.probability value="1"/>
    </emissions>

    <traci_server>
        <remote-port value="47330"/>
    </traci_server>

    <random_number>
        <random value="true"/>
    </random_number>

</configuration>
-->

<tripinfos xmlns:xsi="http://www.w3.org/2001/XMLSchema-instance" xsi:noNamespaceSchemaLocation="http://sumo.dlr.de/xsd/tripinfo_file.xsd">
    <tripinfo id="h15454c2:3" depart="57612.00" departLane="24608844_1" departPos="5.10" departSpeed="0.00" departDelay="0.50" arrival="57646.00" arrivalLane="32978638#0_1" arrivalPos="49.29" arrivalSpeed="16.08" duration="34.00" routeLength="354.79" waitingTime="0.00" waitingCount="0" stopTime="0.00" timeLoss="5.06" rerouteNo="1" devices="tripinfo_h15454c2:3 routing_h15454c2:3 emissions_h15454c2:3" vType="default_016" speedFactor="1.17" vaporized="">
        <emissions CO_abs="1752.005449" CO2_abs="102953.478328" HC_abs="10.396642" PMx_abs="1.842965" NOx_abs="42.360177" fuel_abs="44.255392" electricity_abs="0"/>
    </tripinfo>
    <tripinfo id="carIn60260:1" depart="57606.00" departLane="315358254#0_1" departPos="5.10" departSpeed="0.00" departDelay="0.90" arrival="57659.00" arrivalLane="399835085#1_1" arrivalPos="212.23" arrivalSpeed="7.77" duration="53.00" routeLength="430.98" waitingTime="0.00" waitingCount="0" stopTime="0.00" timeLoss="6.96" rerouteNo="1" devices="tripinfo_carIn60260:1 routing_carIn60260:1 emissions_carIn60260:1" vType="default_016" speedFactor="1.01" vaporized="">
        <emissions CO_abs="2028.599268" CO2_abs="104684.046892" HC_abs="11.663151" PMx_abs="1.765235" NOx_abs="42.706428" fuel_abs="44.999634" electricity_abs="0"/>
    </tripinfo>
    <tripinfo id="carIn53971:1" depart="57640.00" departLane="272042143_1" departPos="5.10" departSpeed="0.00" departDelay="0.80" arrival="57690.00" arrivalLane="24634414#1_1" arrivalPos="162.19" arrivalSpeed="8.59" duration="50.00" routeLength="493.04" waitingTime="0.00" waitingCount="0" stopTime="0.00" timeLoss="10.42" rerouteNo="1" devices="tripinfo_carIn53971:1 routing_carIn53971:1 emissions_carIn53971:1" vType="default_016" speedFactor="1.16" vaporized="">
        <emissions CO_abs="2674.819249" CO2_abs="156680.677434" HC_abs="15.880826" PMx_abs="2.913002" NOx_abs="65.218407" fuel_abs="67.350304" electricity_abs="0"/>
    </tripinfo>
    <tripinfo id="h7800c1:5" depart="57696.00" departLane="-447569998#1_1" departPos="5.10" departSpeed="0.00" departDelay="0.00" arrival="57718.00" arrivalLane="-447569998#1_1" arrivalPos="180.76" arrivalSpeed="8.06" duration="22.00" routeLength="175.66" waitingTime="0.00" waitingCount="0" stopTime="0.00" timeLoss="2.95" rerouteNo="1" devices="tripinfo_h7800c1:5 routing_h7800c1:5 emissions_h7800c1:5" vType="default_016" speedFactor="1.11" vaporized="">
        <emissions CO_abs="1100.652367" CO2_abs="54052.413910" HC_abs="6.260569" PMx_abs="0.904249" NOx_abs="22.059364" fuel_abs="23.235099" electricity_abs="0"/>
    </tripinfo>
    <tripinfo id="h3688c1:1" depart="57625.00" departLane="201201950#1_1" departPos="5.10" departSpeed="0.00" departDelay="0.00" arrival="57730.00" arrivalLane="32978638#0_1" arrivalPos="49.29" arrivalSpeed="14.06" duration="105.00" routeLength="1089.75" waitingTime="15.00" waitingCount="1" stopTime="0.00" timeLoss="28.83" rerouteNo="1" devices="tripinfo_h3688c1:1 routing_h3688c1:1 emissions_h3688c1:1" vType="default_016" speedFactor="1.05" vaporized="">
        <emissions CO_abs="5040.724873" CO2_abs="296835.695639" HC_abs="29.832811" PMx_abs="5.165499" NOx_abs="119.682690" fuel_abs="127.597601" electricity_abs="0"/>
    </tripinfo>
    <tripinfo id="h7181c1:1" depart="57660.00" departLane="315358254#0_1" departPos="5.10" departSpeed="0.00" departDelay="0.10" arrival="57730.00" arrivalLane="306240162#0_0" arrivalPos="220.43" arrivalSpeed="18.30" duration="70.00" routeLength="932.35" waitingTime="8.00" waitingCount="1" stopTime="0.00" timeLoss="22.90" rerouteNo="1" devices="tripinfo_h7181c1:1 routing_h7181c1:1 emissions_h7181c1:1" vType="default_016" speedFactor="1.12" vaporized="">
        <emissions CO_abs="5020.832996" CO2_abs="310352.407910" HC_abs="30.346972" PMx_abs="6.221013" NOx_abs="128.251193" fuel_abs="133.406665" electricity_abs="0"/>
    </tripinfo>
    <tripinfo id="carIn22761:1" depart="57616.00" departLane="-306240162#1_0" departPos="5.10" departSpeed="0.00" departDelay="2.10" arrival="57737.00" arrivalLane="399835085#1_1" arrivalPos="212.23" arrivalSpeed="7.67" duration="121.00" routeLength="1093.26" waitingTime="12.00" waitingCount="2" stopTime="0.00" timeLoss="37.48" rerouteNo="1" devices="tripinfo_carIn22761:1 routing_carIn22761:1 emissions_carIn22761:1" vType="default_016" speedFactor="0.93" vaporized="">
        <emissions CO_abs="5604.294626" CO2_abs="320835.153303" HC_abs="32.991186" PMx_abs="5.891469" NOx_abs="131.466455" fuel_abs="137.913640" electricity_abs="0"/>
    </tripinfo>
    <tripinfo id="h4538c1:1" depart="57701.00" departLane="-10427692#1_1" departPos="5.10" departSpeed="0.00" departDelay="0.00" arrival="57738.00" arrivalLane="-128361102#1_1" arrivalPos="274.68" arrivalSpeed="13.46" duration="37.00" routeLength="440.74" waitingTime="0.00" waitingCount="0" stopTime="0.00" timeLoss="6.68" rerouteNo="1" devices="tripinfo_h4538c1:1 routing_h4538c1:1 emissions_h4538c1:1" vType="default_016" speedFactor="1.05" vaporized="">
        <emissions CO_abs="1573.807498" CO2_abs="116420.992410" HC_abs="9.846111" PMx_abs="1.938814" NOx_abs="46.317173" fuel_abs="50.044444" electricity_abs="0"/>
    </tripinfo>
    <tripinfo id="h5979c1:5" depart="57669.00" departLane="399835085#1_1" departPos="5.10" departSpeed="0.00" departDelay="0.00" arrival="57756.00" arrivalLane="-315358254#1_1" arrivalPos="137.16" arrivalSpeed="16.00" duration="87.00" routeLength="659.33" waitingTime="0.00" waitingCount="0" stopTime="0.00" timeLoss="26.55" rerouteNo="1" devices="tripinfo_h5979c1:5 routing_h5979c1:5 emissions_h5979c1:5" vType="default_016" speedFactor="1.22" vaporized="">
        <emissions CO_abs="4403.898515" CO2_abs="215046.217157" HC_abs="25.066953" PMx_abs="3.821308" NOx_abs="88.991899" fuel_abs="92.439978" electricity_abs="0"/>
    </tripinfo>
    <tripinfo id="h3568c1:3" depart="57656.00" departLane="266565295#5_1" departPos="5.10" departSpeed="0.00" departDelay="0.80" arrival="57764.00" arrivalLane="-24634415_1" arrivalPos="62.03" arrivalSpeed="10.77" duration="108.00" routeLength="807.40" waitingTime="10.00" waitingCount="1" stopTime="0.00" timeLoss="27.38" rerouteNo="1" devices="tripinfo_h3568c1:3 routing_h3568c1:3 emissions_h3568c1:3" vType="default_016" speedFactor="0.80" vaporized="">
        <emissions CO_abs="5074.107996" CO2_abs="237482.105186" HC_abs="28.623043" PMx_abs="4.148884" NOx_abs="97.726663" fuel_abs="102.084590" electricity_abs="0"/>
    </tripinfo>
    <tripinfo id="h317c2:1" depart="57707.00" departLane="-32978638#0_1" departPos="5.10" departSpeed="0.00" departDelay="0.10" arrival="57766.00" arrivalLane="-266565295#5_1" arrivalPos="172.76" arrivalSpeed="11.77" duration="59.00" routeLength="370.53" waitingTime="21.00" waitingCount="1" stopTime="0.00" timeLoss="29.72" rerouteNo="1" devices="tripinfo_h317c2:1 routing_h317c2:1 emissions_h317c2:1" vType="default_016" speedFactor="0.94" vaporized="">
        <emissions CO_abs="4400.315844" CO2_abs="154632.883037" HC_abs="23.660343" PMx_abs="2.992915" NOx_abs="65.000220" fuel_abs="66.471384" electricity_abs="0"/>
    </tripinfo>
    <tripinfo id="h330c1:1" depart="57736.00" departLane="-32978638#0_1" departPos="5.10" departSpeed="0.00" departDelay="0.20" arrival="57768.00" arrivalLane="-266565295#5_1" arrivalPos="172.76" arrivalSpeed="13.70" duration="32.00" routeLength="370.53" waitingTime="0.00" waitingCount="0" stopTime="0.00" timeLoss="5.25" rerouteNo="1" devices="tripinfo_h330c1:1 routing_h330c1:1 emissions_h330c1:1" vType="default_016" speedFactor="1.04" vaporized="">
        <emissions CO_abs="1779.187391" CO2_abs="113110.349504" HC_abs="10.794505" PMx_abs="2.172525" NOx_abs="47.328811" fuel_abs="48.621073" electricity_abs="0"/>
    </tripinfo>
    <tripinfo id="carIn121703:1" depart="57647.00" departLane="386687232#0_1" departPos="5.10" departSpeed="0.00" departDelay="0.30" arrival="57773.00" arrivalLane="-315358244_1" arrivalPos="33.95" arrivalSpeed="14.75" duration="126.00" routeLength="1157.39" waitingTime="34.00" waitingCount="1" stopTime="0.00" timeLoss="49.52" rerouteNo="1" devices="tripinfo_carIn121703:1 routing_carIn121703:1 emissions_carIn121703:1" vType="default_016" speedFactor="1.10" vaporized="">
        <emissions CO_abs="7981.398501" CO2_abs="337543.089693" HC_abs="44.237433" PMx_abs="6.274934" NOx_abs="138.363998" fuel_abs="145.097412" electricity_abs="0"/>
    </tripinfo>
    <tripinfo id="h3326c1:2" depart="57656.00" departLane="22716069#0_1" departPos="5.10" departSpeed="0.00" departDelay="0.00" arrival="57775.00" arrivalLane="24634517#13_1" arrivalPos="111.62" arrivalSpeed="13.05" duration="119.00" routeLength="1312.81" waitingTime="0.00" waitingCount="0" stopTime="0.00" timeLoss="14.99" rerouteNo="1" devices="tripinfo_h3326c1:2 routing_h3326c1:2 emissions_h3326c1:2" vType="default_016" speedFactor="0.94" vaporized="">
        <emissions CO_abs="4016.380734" CO2_abs="297801.237428" HC_abs="25.232322" PMx_abs="4.857581" NOx_abs="118.628892" fuel_abs="128.012201" electricity_abs="0"/>
    </tripinfo>
    <tripinfo id="carIn27009:1" depart="57673.00" departLane="-447569998#1_1" departPos="5.10" departSpeed="0.00" departDelay="0.50" arrival="57778.00" arrivalLane="-26677539_1" arrivalPos="152.75" arrivalSpeed="9.02" duration="105.00" routeLength="699.63" waitingTime="14.00" waitingCount="1" stopTime="0.00" timeLoss="28.39" rerouteNo="1" devices="tripinfo_carIn27009:1 routing_carIn27009:1 emissions_carIn27009:1" vType="default_015" speedFactor="1.09" vaporized="">
        <emissions CO_abs="5278.565630" CO2_abs="212149.824310" HC_abs="28.936058" PMx_abs="3.690961" NOx_abs="87.440397" fuel_abs="91.195836" electricity_abs="0"/>
    </tripinfo>
    <tripinfo id="h645c1:1" depart="57622.00" departLane="266565295#5_1" departPos="5.10" departSpeed="0.00" departDelay="0.40" arrival="57782.00" arrivalLane="-315358244_1" arrivalPos="33.95" arrivalSpeed="14.51" duration="160.00" routeLength="1910.83" waitingTime="18.00" waitingCount="1" stopTime="0.00" timeLoss="35.15" rerouteNo="1" devices="tripinfo_h645c1:1 routing_h645c1:1 emissions_h645c1:1" vType="default_016" speedFactor="1.11" vaporized="">
        <emissions CO_abs="6516.281505" CO2_abs="443179.142457" HC_abs="39.961733" PMx_abs="7.602708" NOx_abs="176.347216" fuel_abs="190.504172" electricity_abs="0"/>
    </tripinfo>
    <tripinfo id="carIn107084:1" depart="57601.00" departLane="124812856#0_1" departPos="5.10" departSpeed="0.00" departDelay="0.70" arrival="57784.00" arrivalLane="-128361102#1_1" arrivalPos="274.68" arrivalSpeed="14.38" duration="183.00" routeLength="2250.49" waitingTime="4.00" waitingCount="1" stopTime="0.00" timeLoss="27.81" rerouteNo="1" devices="tripinfo_carIn107084:1 routing_carIn107084:1 emissions_carIn107084:1" vType="default_016" speedFactor="1.06" vaporized="">
        <emissions CO_abs="5685.134486" CO2_abs="467141.369961" HC_abs="36.708276" PMx_abs="7.803558" NOx_abs="185.587414" fuel_abs="200.803727" electricity_abs="0"/>
    </tripinfo>
    <tripinfo id="carIn77943:1" depart="57608.00" departLane="124812856#0_1" departPos="5.10" departSpeed="0.00" departDelay="2.50" arrival="57786.00" arrivalLane="-128361102#1_1" arrivalPos="274.68" arrivalSpeed="16.09" duration="178.00" routeLength="2232.46" waitingTime="1.00" waitingCount="1" stopTime="0.00" timeLoss="37.41" rerouteNo="1" devices="tripinfo_carIn77943:1 routing_carIn77943:1 emissions_carIn77943:1" vType="default_016" speedFactor="1.16" vaporized="">
        <emissions CO_abs="7466.093051" CO2_abs="587350.701250" HC_abs="47.646504" PMx_abs="10.244564" NOx_abs="236.259794" fuel_abs="252.476076" electricity_abs="0"/>
    </tripinfo>
    <tripinfo id="h11737c1:1" depart="57665.00" departLane="272042143_1" departPos="5.10" departSpeed="0.00" departDelay="1.50" arrival="57802.00" arrivalLane="-315358254#1_1" arrivalPos="137.16" arrivalSpeed="13.32" duration="137.00" routeLength="1596.88" waitingTime="2.00" waitingCount="1" stopTime="0.00" timeLoss="19.53" rerouteNo="1" devices="tripinfo_h11737c1:1 routing_h11737c1:1 emissions_h11737c1:1" vType="default_016" speedFactor="1.00" vaporized="">
        <emissions CO_abs="4290.371330" CO2_abs="337275.545912" HC_abs="27.414392" PMx_abs="5.516832" NOx_abs="133.710944" fuel_abs="144.980374" electricity_abs="0"/>
    </tripinfo>
    <tripinfo id="carIn129809:1" depart="57729.00" departLane="-447569998#1_1" departPos="5.10" departSpeed="0.00" departDelay="1.00" arrival="57805.00" arrivalLane="-315358244_1" arrivalPos="33.95" arrivalSpeed="14.53" duration="76.00" routeLength="706.49" waitingTime="9.00" waitingCount="1" stopTime="0.00" timeLoss="19.11" rerouteNo="1" devices="tripinfo_carIn129809:1 routing_carIn129809:1 emissions_carIn129809:1" vType="default_015" speedFactor="1.06" vaporized="">
        <emissions CO_abs="2905.963016" CO2_abs="167212.456494" HC_abs="17.135128" PMx_abs="2.851496" NOx_abs="67.416396" fuel_abs="71.877955" electricity_abs="0"/>
    </tripinfo>
    <tripinfo id="carIn80064:1" depart="57603.00" departLane="128361109#1_1" departPos="5.10" departSpeed="0.00" departDelay="0.40" arrival="57808.00" arrivalLane="-315358254#1_1" arrivalPos="137.16" arrivalSpeed="13.18" duration="205.00" routeLength="1587.97" waitingTime="78.00" waitingCount="3" stopTime="0.00" timeLoss="110.49" rerouteNo="1" devices="tripinfo_carIn80064:1 routing_carIn80064:1 emissions_carIn80064:1" vType="default_016" speedFactor="0.96" vaporized="">
        <emissions CO_abs="17674.261279" CO2_abs="644315.825226" HC_abs="95.739496" PMx_abs="13.233769" NOx_abs="272.290571" fuel_abs="276.967942" electricity_abs="0"/>
    </tripinfo>
    <tripinfo id="carIn126288:1" depart="57674.00" departLane="272042143_1" departPos="5.10" departSpeed="0.00" departDelay="0.00" arrival="57818.00" arrivalLane="-315358254#1_1" arrivalPos="137.16" arrivalSpeed="12.87" duration="144.00" routeLength="1596.88" waitingTime="4.00" waitingCount="1" stopTime="0.00" timeLoss="18.03" rerouteNo="1" devices="tripinfo_carIn126288:1 routing_carIn126288:1 emissions_carIn126288:1" vType="default_016" speedFactor="0.93" vaporized="">
        <emissions CO_abs="4153.846482" CO2_abs="334536.109818" HC_abs="26.694059" PMx_abs="5.227021" NOx_abs="131.334141" fuel_abs="143.803067" electricity_abs="0"/>
    </tripinfo>
    <tripinfo id="h17600c1:1" depart="57662.00" departLane="272042143_1" departPos="5.10" departSpeed="0.00" departDelay="0.30" arrival="57827.00" arrivalLane="201238729#3_1" arrivalPos="431.02" arrivalSpeed="14.66" duration="165.00" routeLength="2100.26" waitingTime="9.00" waitingCount="1" stopTime="0.00" timeLoss="25.62" rerouteNo="1" devices="tripinfo_h17600c1:1 routing_h17600c1:1 emissions_h17600c1:1" vType="default_016" speedFactor="1.09" vaporized="">
        <emissions CO_abs="5385.327351" CO2_abs="441727.618647" HC_abs="34.704358" PMx_abs="7.209485" NOx_abs="173.020730" fuel_abs="189.879866" electricity_abs="0"/>
    </tripinfo>
    <tripinfo id="randUni15030:1" depart="57735.00" departLane="386687232#0_1" departPos="5.10" departSpeed="0.00" departDelay="0.10" arrival="57830.00" arrivalLane="26677539_1" arrivalPos="151.98" arrivalSpeed="8.20" duration="95.00" routeLength="919.89" waitingTime="0.00" waitingCount="0" stopTime="0.00" timeLoss="10.20" rerouteNo="1" devices="tripinfo_randUni15030:1 routing_randUni15030:1 emissions_randUni15030:1" vType="random_016" speedFactor="0.99" vaporized="">
        <emissions CO_abs="3348.121892" CO2_abs="211500.898000" HC_abs="20.143848" PMx_abs="3.465461" NOx_abs="84.804899" fuel_abs="90.915673" electricity_abs="0"/>
    </tripinfo>
    <tripinfo id="carIn81046:1" depart="57611.00" departLane="124812856#0_1" departPos="5.10" departSpeed="0.00" departDelay="2.50" arrival="57835.00" arrivalLane="-128361102#1_1" arrivalPos="274.68" arrivalSpeed="13.81" duration="224.00" routeLength="2250.49" waitingTime="30.00" waitingCount="2" stopTime="0.00" timeLoss="66.76" rerouteNo="1" devices="tripinfo_carIn81046:1 routing_carIn81046:1 emissions_carIn81046:1" vType="default_016" speedFactor="1.04" vaporized="">
        <emissions CO_abs="11196.254300" CO2_abs="617483.732431" HC_abs="65.435049" PMx_abs="11.088416" NOx_abs="252.023734" fuel_abs="265.431177" electricity_abs="0"/>
    </tripinfo>
    <tripinfo id="carIn77438:1" depart="57614.00" departLane="124812856#0_1" departPos="5.10" departSpeed="0.00" departDelay="1.10" arrival="57837.00" arrivalLane="-128361102#1_1" arrivalPos="274.68" arrivalSpeed="14.30" duration="223.00" routeLength="2250.49" waitingTime="29.00" waitingCount="2" stopTime="0.00" timeLoss="70.84" rerouteNo="1" devices="tripinfo_carIn77438:1 routing_carIn77438:1 emissions_carIn77438:1" vType="default_016" speedFactor="1.08" vaporized="">
        <emissions CO_abs="11229.150295" CO2_abs="641544.095020" HC_abs="66.253323" PMx_abs="11.730123" NOx_abs="263.392532" fuel_abs="275.773074" electricity_abs="0"/>
    </tripinfo>
    <tripinfo id="randUni31145:1" depart="57814.00" departLane="10425609#0_1" departPos="5.10" departSpeed="0.00" departDelay="0.30" arrival="57843.00" arrivalLane="201956810_1" arrivalPos="71.65" arrivalSpeed="14.35" duration="29.00" routeLength="255.78" waitingTime="0.00" waitingCount="0" stopTime="0.00" timeLoss="9.85" rerouteNo="1" devices="tripinfo_randUni31145:1 routing_randUni31145:1 emissions_randUni31145:1" vType="random_016" speedFactor="1.06" vaporized="">
        <emissions CO_abs="2203.455588" CO2_abs="118399.882607" HC_abs="12.845388" PMx_abs="2.319940" NOx_abs="50.193199" fuel_abs="50.894991" electricity_abs="0"/>
    </tripinfo>
    <tripinfo id="h19804c1:3" depart="57617.00" departLane="124812856#0_1" departPos="5.10" departSpeed="0.00" departDelay="1.50" arrival="57847.00" arrivalLane="-128361102#1_1" arrivalPos="274.68" arrivalSpeed="11.32" duration="230.00" routeLength="2232.46" waitingTime="7.00" waitingCount="1" stopTime="0.00" timeLoss="32.21" rerouteNo="1" devices="tripinfo_h19804c1:3 routing_h19804c1:3 emissions_h19804c1:3" vType="default_016" speedFactor="0.82" vaporized="">
        <emissions CO_abs="6884.135069" CO2_abs="483395.874420" HC_abs="42.505517" PMx_abs="7.378387" NOx_abs="190.247816" fuel_abs="207.792502" electricity_abs="0"/>
    </tripinfo>
    <tripinfo id="randUni2407:1" depart="57820.00" departLane="10425609#0_1" departPos="5.10" departSpeed="0.00" departDelay="0.80" arrival="57847.00" arrivalLane="201956810_1" arrivalPos="71.65" arrivalSpeed="12.57" duration="27.00" routeLength="255.78" waitingTime="0.00" waitingCount="0" stopTime="0.00" timeLoss="6.30" rerouteNo="1" devices="tripinfo_randUni2407:1 routing_randUni2407:1 emissions_randUni2407:1" vType="random_016" speedFactor="0.96" vaporized="">
        <emissions CO_abs="1629.081225" CO2_abs="88086.303311" HC_abs="9.501308" PMx_abs="1.681074" NOx_abs="37.077424" fuel_abs="37.864551" electricity_abs="0"/>
    </tripinfo>
    <tripinfo id="h3864c1:3" depart="57678.00" departLane="24693977#1_1" departPos="5.10" departSpeed="0.00" departDelay="0.00" arrival="57848.00" arrivalLane="201956820_1" arrivalPos="48.33" arrivalSpeed="17.77" duration="170.00" routeLength="1574.85" waitingTime="33.00" waitingCount="3" stopTime="0.00" timeLoss="69.62" rerouteNo="1" devices="tripinfo_h3864c1:3 routing_h3864c1:3 emissions_h3864c1:3" vType="default_016" speedFactor="1.29" vaporized="">
        <emissions CO_abs="12104.339092" CO2_abs="604338.282704" HC_abs="69.475924" PMx_abs="12.128151" NOx_abs="255.451441" fuel_abs="259.779459" electricity_abs="0"/>
    </tripinfo>
    <tripinfo id="carIn81860:1" depart="57712.00" departLane="128361102#0_1" departPos="5.10" departSpeed="0.00" departDelay="0.60" arrival="57851.00" arrivalLane="-24634517#17_1" arrivalPos="6.43" arrivalSpeed="6.56" duration="139.00" routeLength="1229.64" waitingTime="22.00" waitingCount="1" stopTime="0.00" timeLoss="44.15" rerouteNo="1" devices="tripinfo_carIn81860:1 routing_carIn81860:1 emissions_carIn81860:1" vType="default_016" speedFactor="0.95" vaporized="">
        <emissions CO_abs="7278.956269" CO2_abs="343981.874313" HC_abs="41.193214" PMx_abs="6.176633" NOx_abs="141.068035" fuel_abs="147.864666" electricity_abs="0"/>
    </tripinfo>
    <tripinfo id="carIn73855:1" depart="57743.00" departLane="386687232#0_1" departPos="5.10" departSpeed="0.00" departDelay="0.50" arrival="57853.00" arrivalLane="-315358244_1" arrivalPos="33.95" arrivalSpeed="13.99" duration="110.00" routeLength="1157.39" waitingTime="15.00" waitingCount="1" stopTime="0.00" timeLoss="29.54" rerouteNo="1" devices="tripinfo_carIn73855:1 routing_carIn73855:1 emissions_carIn73855:1" vType="default_016" speedFactor="1.04" vaporized="">
        <emissions CO_abs="5109.430409" CO2_abs="283908.237827" HC_abs="29.803919" PMx_abs="4.857237" NOx_abs="113.698729" fuel_abs="122.041007" electricity_abs="0"/>
    </tripinfo>
    <tripinfo id="carIn126378:1" depart="57746.00" departLane="386687232#0_1" departPos="5.10" departSpeed="0.00" departDelay="1.80" arrival="57853.00" arrivalLane="-315358244_2" arrivalPos="33.95" arrivalSpeed="14.27" duration="107.00" routeLength="1157.39" waitingTime="16.00" waitingCount="1" stopTime="0.00" timeLoss="30.22" rerouteNo="1" devices="tripinfo_carIn126378:1 routing_carIn126378:1 emissions_carIn126378:1" vType="default_016" speedFactor="1.10" vaporized="">
        <emissions CO_abs="5307.941261" CO2_abs="290465.243060" HC_abs="30.952037" PMx_abs="5.201183" NOx_abs="117.788887" fuel_abs="124.859334" electricity_abs="0"/>
    </tripinfo>
    <tripinfo id="carIn12858:1" depart="57661.00" departLane="128361109#1_1" departPos="5.10" departSpeed="0.00" departDelay="0.90" arrival="57856.00" arrivalLane="399835085#1_1" arrivalPos="212.23" arrivalSpeed="6.81" duration="195.00" routeLength="1738.12" waitingTime="40.00" waitingCount="3" stopTime="0.00" timeLoss="75.31" rerouteNo="1" devices="tripinfo_carIn12858:1 routing_carIn12858:1 emissions_carIn12858:1" vType="default_016" speedFactor="0.97" vaporized="">
        <emissions CO_abs="13217.658829" CO2_abs="571187.648273" HC_abs="73.725161" PMx_abs="11.346765" NOx_abs="238.981844" fuel_abs="245.531283" electricity_abs="0"/>
    </tripinfo>
    <tripinfo id="carIn30817:1" depart="57681.00" departLane="315358244_1" departPos="5.10" departSpeed="0.00" departDelay="0.20" arrival="57859.00" arrivalLane="447569997#1_1" arrivalPos="180.93" arrivalSpeed="8.17" duration="178.00" routeLength="718.04" waitingTime="101.00" waitingCount="1" stopTime="0.00" timeLoss="118.27" rerouteNo="1" devices="tripinfo_carIn30817:1 routing_carIn30817:1 emissions_carIn30817:1" vType="default_016" speedFactor="1.03" vaporized="">
        <emissions CO_abs="19063.759873" CO2_abs="440205.518076" HC_abs="97.120802" PMx_abs="9.680548" NOx_abs="193.226812" fuel_abs="189.233033" electricity_abs="0"/>
    </tripinfo>
    <tripinfo id="carIn12365:1" depart="57713.00" departLane="315358244_1" departPos="5.10" departSpeed="0.00" departDelay="0.50" arrival="57862.00" arrivalLane="447569997#1_1" arrivalPos="180.93" arrivalSpeed="8.48" duration="149.00" routeLength="718.04" waitingTime="72.00" waitingCount="1" stopTime="0.00" timeLoss="90.02" rerouteNo="1" devices="tripinfo_carIn12365:1 routing_carIn12365:1 emissions_carIn12365:1" vType="default_016" speedFactor="1.04" vaporized="">
        <emissions CO_abs="14476.200832" CO2_abs="371082.885721" HC_abs="74.617088" PMx_abs="7.862533" NOx_abs="160.862635" fuel_abs="159.518094" electricity_abs="0"/>
    </tripinfo>
    <tripinfo id="h17549c1:1" depart="57680.00" departLane="-447569998#1_1" departPos="5.10" departSpeed="0.00" departDelay="0.00" arrival="57867.00" arrivalLane="-315358254#1_1" arrivalPos="137.16" arrivalSpeed="12.98" duration="187.00" routeLength="1746.60" waitingTime="28.00" waitingCount="3" stopTime="0.00" timeLoss="52.05" rerouteNo="1" devices="tripinfo_h17549c1:1 routing_h17549c1:1 emissions_h17549c1:1" vType="default_016" speedFactor="1.02" vaporized="">
        <emissions CO_abs="8091.356971" CO2_abs="438666.457647" HC_abs="47.103379" PMx_abs="7.671862" NOx_abs="178.010561" fuel_abs="188.565301" electricity_abs="0"/>
    </tripinfo>
    <tripinfo id="50R_frequency3.17" depart="57674.00" departLane="-18809673#6_1" departPos="12.10" departSpeed="0.00" departDelay="0.70" arrival="57870.00" arrivalLane="201956811#0_1" arrivalPos="40.40" arrivalSpeed="12.98" duration="196.00" routeLength="1954.47" waitingTime="26.00" waitingCount="1" stopTime="0.00" timeLoss="50.67" rerouteNo="1" devices="tripinfo_50R_frequency3.17 routing_50R_frequency3.17 emissions_50R_frequency3.17" vType="bus" speedFactor="1.00" vaporized="">
        <emissions CO_abs="3886.642098" CO2_abs="2337025.257603" HC_abs="819.995905" PMx_abs="414.087830" NOx_abs="18406.482632" fuel_abs="996.676757" electricity_abs="0"/>
    </tripinfo>
    <tripinfo id="h13377c2:3" depart="57804.00" departLane="315358244_1" departPos="5.10" departSpeed="0.00" departDelay="0.60" arrival="57886.00" arrivalLane="447569997#1_1" arrivalPos="180.93" arrivalSpeed="8.34" duration="82.00" routeLength="726.74" waitingTime="2.00" waitingCount="2" stopTime="0.00" timeLoss="17.59" rerouteNo="1" devices="tripinfo_h13377c2:3 routing_h13377c2:3 emissions_h13377c2:3" vType="default_016" speedFactor="1.04" vaporized="">
        <emissions CO_abs="3198.506681" CO2_abs="179593.289468" HC_abs="18.708441" PMx_abs="2.959045" NOx_abs="72.038920" fuel_abs="77.200169" electricity_abs="0"/>
    </tripinfo>
    <tripinfo id="carIn12152:1" depart="57647.00" departLane="24599188#0.94_1" departPos="5.10" departSpeed="0.00" departDelay="0.50" arrival="57889.00" arrivalLane="-315358254#1_1" arrivalPos="137.16" arrivalSpeed="13.58" duration="242.00" routeLength="2034.31" waitingTime="55.00" waitingCount="3" stopTime="0.00" timeLoss="84.05" rerouteNo="1" devices="tripinfo_carIn12152:1 routing_carIn12152:1 emissions_carIn12152:1" vType="default_016" speedFactor="1.00" vaporized="">
        <emissions CO_abs="13498.682482" CO2_abs="569140.482859" HC_abs="74.699689" PMx_abs="10.121069" NOx_abs="232.123359" fuel_abs="244.653207" electricity_abs="0"/>
    </tripinfo>
    <tripinfo id="carIn85747:1" depart="57673.00" departLane="128361109#1_1" departPos="5.10" departSpeed="0.00" departDelay="0.70" arrival="57893.00" arrivalLane="386687235_1" arrivalPos="80.84" arrivalSpeed="16.13" duration="220.00" routeLength="2088.57" waitingTime="62.00" waitingCount="3" stopTime="0.00" timeLoss="91.95" rerouteNo="1" devices="tripinfo_carIn85747:1 routing_carIn85747:1 emissions_carIn85747:1" vType="default_016" speedFactor="1.17" vaporized="">
        <emissions CO_abs="13754.256392" CO2_abs="577805.339094" HC_abs="75.981034" PMx_abs="11.037901" NOx_abs="238.114085" fuel_abs="248.377004" electricity_abs="0"/>
    </tripinfo>
    <tripinfo id="carIn7949:1" depart="57676.00" departLane="128361109#1_1" departPos="5.10" departSpeed="0.00" departDelay="2.10" arrival="57893.00" arrivalLane="386687235_2" arrivalPos="80.84" arrivalSpeed="15.15" duration="217.00" routeLength="2088.57" waitingTime="57.00" waitingCount="3" stopTime="0.00" timeLoss="83.16" rerouteNo="1" devices="tripinfo_carIn7949:1 routing_carIn7949:1 emissions_carIn7949:1" vType="default_016" speedFactor="1.13" vaporized="">
        <emissions CO_abs="13240.365036" CO2_abs="562457.538853" HC_abs="73.185963" PMx_abs="10.586536" NOx_abs="231.140019" fuel_abs="241.779619" electricity_abs="0"/>
    </tripinfo>
    <tripinfo id="carIn48184:1" depart="57613.00" departLane="-306240162#1_0" departPos="5.10" departSpeed="0.00" departDelay="0.70" arrival="57895.00" arrivalLane="386687235_2" arrivalPos="80.84" arrivalSpeed="15.81" duration="282.00" routeLength="2257.41" waitingTime="107.00" waitingCount="3" stopTime="0.00" timeLoss="153.05" rerouteNo="1" devices="tripinfo_carIn48184:1 routing_carIn48184:1 emissions_carIn48184:1" vType="default_016" speedFactor="1.15" vaporized="">
        <emissions CO_abs="25070.713741" CO2_abs="870214.038288" HC_abs="134.654442" PMx_abs="18.278187" NOx_abs="371.273124" fuel_abs="374.073656" electricity_abs="0"/>
    </tripinfo>
    <tripinfo id="carIn75660:1" depart="57679.00" departLane="128361109#1_1" departPos="5.10" departSpeed="0.00" departDelay="3.40" arrival="57896.00" arrivalLane="386687235_1" arrivalPos="80.84" arrivalSpeed="13.21" duration="217.00" routeLength="2088.57" waitingTime="44.00" waitingCount="1" stopTime="0.00" timeLoss="63.61" rerouteNo="1" devices="tripinfo_carIn75660:1 routing_carIn75660:1 emissions_carIn75660:1" vType="default_016" speedFactor="0.98" vaporized="">