<?xml version="1.0" encoding="UTF-8"?>

<!-- generated on Thu Nov  4 14:32:43 2021 by Eclipse SUMO sumo Version 1.9.0
<configuration xmlns:xsi="http://www.w3.org/2001/XMLSchema-instance" xsi:noNamespaceSchemaLocation="http://sumo.dlr.de/xsd/sumoConfiguration.xsd">

    <input>
        <net-file value="/mainfs/home/bk2g18/RESCO/environments/ingolstadt21/ingolstadt21.net.xml"/>
        <route-files value="/mainfs/home/bk2g18/RESCO/environments/ingolstadt21/ingolstadt21.rou.xml"/>
    </input>

    <output>
        <tripinfo-output value="/mainfs/home/bk2g18/RESCO/logs/MPLight-tr0-ingolstadt21-21-mplight_full-pressure/tripinfo_96.xml"/>
        <tripinfo-output.write-unfinished value="true"/>
    </output>

    <time>
        <begin value="57600"/>
        <end value="61200"/>
    </time>

    <processing>
        <time-to-teleport value="-1"/>
    </processing>

    <report>
        <xml-validation value="never"/>
        <xml-validation.routes value="never"/>
        <no-warnings value="true"/>
        <no-step-log value="true"/>
    </report>

    <emissions>
        <device.emissions.probability value="1"/>
    </emissions>

    <traci_server>
        <remote-port value="55961"/>
    </traci_server>

    <random_number>
        <random value="true"/>
    </random_number>

</configuration>
-->

<tripinfos xmlns:xsi="http://www.w3.org/2001/XMLSchema-instance" xsi:noNamespaceSchemaLocation="http://sumo.dlr.de/xsd/tripinfo_file.xsd">
    <tripinfo id="h15454c2:3" depart="57612.00" departLane="24608844_1" departPos="5.10" departSpeed="0.00" departDelay="0.50" arrival="57652.00" arrivalLane="32978638#0_1" arrivalPos="49.29" arrivalSpeed="12.47" duration="40.00" routeLength="354.79" waitingTime="0.00" waitingCount="0" stopTime="0.00" timeLoss="4.21" rerouteNo="1" devices="tripinfo_h15454c2:3 routing_h15454c2:3 emissions_h15454c2:3" vType="default_016" speedFactor="0.96" vaporized="">
        <emissions CO_abs="1615.008860" CO2_abs="92597.113233" HC_abs="9.486113" PMx_abs="1.444007" NOx_abs="36.784427" fuel_abs="39.803978" electricity_abs="0"/>
    </tripinfo>
    <tripinfo id="carIn53971:1" depart="57640.00" departLane="272042143_1" departPos="5.10" departSpeed="0.00" departDelay="0.80" arrival="57693.00" arrivalLane="24634414#1_1" arrivalPos="162.19" arrivalSpeed="8.03" duration="53.00" routeLength="493.04" waitingTime="0.00" waitingCount="0" stopTime="0.00" timeLoss="7.25" rerouteNo="1" devices="tripinfo_carIn53971:1 routing_carIn53971:1 emissions_carIn53971:1" vType="default_016" speedFactor="1.00" vaporized="">
        <emissions CO_abs="2192.028901" CO2_abs="128502.373188" HC_abs="12.972435" PMx_abs="2.160983" NOx_abs="52.043543" fuel_abs="55.238003" electricity_abs="0"/>
    </tripinfo>
    <tripinfo id="h7800c1:5" depart="57696.00" departLane="-447569998#1_1" departPos="5.10" departSpeed="0.00" departDelay="0.00" arrival="57720.00" arrivalLane="-447569998#1_1" arrivalPos="180.76" arrivalSpeed="7.52" duration="24.00" routeLength="175.66" waitingTime="0.00" waitingCount="0" stopTime="0.00" timeLoss="2.88" rerouteNo="1" devices="tripinfo_h7800c1:5 routing_h7800c1:5 emissions_h7800c1:5" vType="default_016" speedFactor="1.04" vaporized="">
        <emissions CO_abs="1125.695125" CO2_abs="52530.713710" HC_abs="6.323520" PMx_abs="0.807260" NOx_abs="21.003334" fuel_abs="22.581131" electricity_abs="0"/>
    </tripinfo>
    <tripinfo id="h3568c1:3" depart="57656.00" departLane="266565295#5_1" departPos="5.10" departSpeed="0.00" departDelay="0.80" arrival="57733.00" arrivalLane="-24634415_1" arrivalPos="62.03" arrivalSpeed="14.00" duration="77.00" routeLength="807.40" waitingTime="0.00" waitingCount="0" stopTime="0.00" timeLoss="18.42" rerouteNo="1" devices="tripinfo_h3568c1:3 routing_h3568c1:3 emissions_h3568c1:3" vType="default_016" speedFactor="1.09" vaporized="">
        <emissions CO_abs="4173.353876" CO2_abs="252803.577233" HC_abs="24.965373" PMx_abs="4.771693" NOx_abs="105.322304" fuel_abs="108.669217" electricity_abs="0"/>
    </tripinfo>
    <tripinfo id="h5979c1:5" depart="57669.00" departLane="399835085#1_1" departPos="5.10" departSpeed="0.00" departDelay="0.00" arrival="57753.00" arrivalLane="-315358254#1_1" arrivalPos="137.16" arrivalSpeed="13.22" duration="84.00" routeLength="659.33" waitingTime="0.00" waitingCount="0" stopTime="0.00" timeLoss="9.86" rerouteNo="1" devices="tripinfo_h5979c1:5 routing_h5979c1:5 emissions_h5979c1:5" vType="default_016" speedFactor="0.98" vaporized="">
        <emissions CO_abs="3647.935323" CO2_abs="179207.803013" HC_abs="20.734178" PMx_abs="2.905829" NOx_abs="72.482247" fuel_abs="77.034837" electricity_abs="0"/>
    </tripinfo>
    <tripinfo id="carIn27009:1" depart="57673.00" departLane="-447569998#1_1" departPos="5.10" departSpeed="0.00" departDelay="0.50" arrival="57769.00" arrivalLane="-26677539_1" arrivalPos="152.75" arrivalSpeed="7.75" duration="96.00" routeLength="699.63" waitingTime="0.00" waitingCount="0" stopTime="0.00" timeLoss="10.34" rerouteNo="1" devices="tripinfo_carIn27009:1 routing_carIn27009:1 emissions_carIn27009:1" vType="default_015" speedFactor="0.98" vaporized="">
        <emissions CO_abs="3726.911368" CO2_abs="177890.768521" HC_abs="21.037398" PMx_abs="2.784373" NOx_abs="71.537370" fuel_abs="76.468911" electricity_abs="0"/>
    </tripinfo>
    <tripinfo id="h3326c1:2" depart="57656.00" departLane="22716069#0_1" departPos="5.10" departSpeed="0.00" departDelay="0.00" arrival="57783.00" arrivalLane="24634517#13_1" arrivalPos="111.62" arrivalSpeed="11.01" duration="127.00" routeLength="1312.81" waitingTime="0.00" waitingCount="0" stopTime="0.00" timeLoss="14.69" rerouteNo="1" devices="tripinfo_h3326c1:2 routing_h3326c1:2 emissions_h3326c1:2" vType="default_016" speedFactor="0.87" vaporized="">
        <emissions CO_abs="4051.791580" CO2_abs="282030.258565" HC_abs="25.009178" PMx_abs="4.562711" NOx_abs="112.641105" fuel_abs="121.233137" electricity_abs="0"/>
    </tripinfo>
    <tripinfo id="h4538c1:1" depart="57701.00" departLane="-10427692#1_1" departPos="5.10" departSpeed="0.00" departDelay="0.00" arrival="57785.00" arrivalLane="-128361102#1_1" arrivalPos="274.68" arrivalSpeed="9.79" duration="84.00" routeLength="440.74" waitingTime="33.00" waitingCount="1" stopTime="0.00" timeLoss="42.69" rerouteNo="1" devices="tripinfo_h4538c1:1 routing_h4538c1:1 emissions_h4538c1:1" vType="default_016" speedFactor="0.77" vaporized="">
        <emissions CO_abs="6643.700595" CO2_abs="188365.615856" HC_abs="34.615133" PMx_abs="3.608045" NOx_abs="79.224856" fuel_abs="80.973057" electricity_abs="0"/>
    </tripinfo>
    <tripinfo id="carIn107282:1" depart="57749.00" departLane="-447569998#1_1" departPos="5.10" departSpeed="0.00" departDelay="0.00" arrival="57796.00" arrivalLane="315358242#0_1" arrivalPos="165.37" arrivalSpeed="12.98" duration="47.00" routeLength="448.50" waitingTime="0.00" waitingCount="0" stopTime="0.00" timeLoss="5.49" rerouteNo="1" devices="tripinfo_carIn107282:1 routing_carIn107282:1 emissions_carIn107282:1" vType="default_016" speedFactor="1.00" vaporized="">
        <emissions CO_abs="1757.831926" CO2_abs="102054.419925" HC_abs="10.366491" PMx_abs="1.644869" NOx_abs="40.800867" fuel_abs="43.869222" electricity_abs="0"/>
    </tripinfo>
    <tripinfo id="h11737c1:1" depart="57665.00" departLane="272042143_1" departPos="5.10" departSpeed="0.00" departDelay="1.50" arrival="57809.00" arrivalLane="-315358254#1_1" arrivalPos="137.16" arrivalSpeed="12.10" duration="144.00" routeLength="1596.88" waitingTime="0.00" waitingCount="0" stopTime="0.00" timeLoss="13.07" rerouteNo="1" devices="tripinfo_h11737c1:1 routing_h11737c1:1 emissions_h11737c1:1" vType="default_016" speedFactor="0.89" vaporized="">
        <emissions CO_abs="3790.001120" CO2_abs="316159.418381" HC_abs="24.559087" PMx_abs="4.662513" NOx_abs="122.523620" fuel_abs="135.903984" electricity_abs="0"/>
    </tripinfo>
    <tripinfo id="carIn126288:1" depart="57674.00" departLane="272042143_1" departPos="5.10" departSpeed="0.00" departDelay="0.00" arrival="57811.00" arrivalLane="-315358254#1_1" arrivalPos="137.16" arrivalSpeed="12.80" duration="137.00" routeLength="1596.88" waitingTime="0.00" waitingCount="0" stopTime="0.00" timeLoss="20.23" rerouteNo="1" devices="tripinfo_carIn126288:1 routing_carIn126288:1 emissions_carIn126288:1" vType="default_016" speedFactor="1.00" vaporized="">
        <emissions CO_abs="4078.991146" CO2_abs="329317.865535" HC_abs="26.245367" PMx_abs="5.242393" NOx_abs="129.940757" fuel_abs="141.559801" electricity_abs="0"/>
    </tripinfo>
    <tripinfo id="randUni15030:1" depart="57735.00" departLane="386687232#0_1" departPos="5.10" departSpeed="0.00" departDelay="0.10" arrival="57830.00" arrivalLane="26677539_1" arrivalPos="151.98" arrivalSpeed="7.25" duration="95.00" routeLength="919.89" waitingTime="0.00" waitingCount="0" stopTime="0.00" timeLoss="11.32" rerouteNo="1" devices="tripinfo_randUni15030:1 routing_randUni15030:1 emissions_randUni15030:1" vType="random_016" speedFactor="1.00" vaporized="">
        <emissions CO_abs="3241.045413" CO2_abs="201744.258086" HC_abs="19.452019" PMx_abs="3.346053" NOx_abs="81.154816" fuel_abs="86.721670" electricity_abs="0"/>
    </tripinfo>
    <tripinfo id="carIn13443:1" depart="57729.00" departLane="272042143_1" departPos="5.10" departSpeed="0.00" departDelay="0.80" arrival="57871.00" arrivalLane="399835085#1_1" arrivalPos="212.23" arrivalSpeed="8.54" duration="142.00" routeLength="1757.45" waitingTime="0.00" waitingCount="0" stopTime="0.00" timeLoss="16.83" rerouteNo="1" devices="tripinfo_carIn13443:1 routing_carIn13443:1 emissions_carIn13443:1" vType="default_016" speedFactor="1.13" vaporized="">
        <emissions CO_abs="4005.043224" CO2_abs="330377.099665" HC_abs="25.805941" PMx_abs="5.382736" NOx_abs="130.083047" fuel_abs="142.014938" electricity_abs="0"/>
    </tripinfo>
    <tripinfo id="carIn129809:1" depart="57729.00" departLane="-447569998#1_1" departPos="5.10" departSpeed="0.00" departDelay="1.00" arrival="57873.00" arrivalLane="-315358244_1" arrivalPos="33.95" arrivalSpeed="14.33" duration="144.00" routeLength="706.49" waitingTime="74.00" waitingCount="1" stopTime="0.00" timeLoss="85.98" rerouteNo="1" devices="tripinfo_carIn129809:1 routing_carIn129809:1 emissions_carIn129809:1" vType="default_015" speedFactor="1.04" vaporized="">
        <emissions CO_abs="14481.598532" CO2_abs="364549.268186" HC_abs="74.479970" PMx_abs="7.680192" NOx_abs="157.222884" fuel_abs="156.709820" electricity_abs="0"/>
    </tripinfo>
    <tripinfo id="carIn8642:1" depart="57774.00" departLane="-447569998#1_1" departPos="5.10" departSpeed="0.00" departDelay="0.90" arrival="57873.00" arrivalLane="-315358244_2" arrivalPos="33.95" arrivalSpeed="13.46" duration="99.00" routeLength="706.49" waitingTime="28.00" waitingCount="1" stopTime="0.00" timeLoss="41.57" rerouteNo="1" devices="tripinfo_carIn8642:1 routing_carIn8642:1 emissions_carIn8642:1" vType="default_016" speedFactor="1.05" vaporized="">
        <emissions CO_abs="6311.794269" CO2_abs="234031.230303" HC_abs="34.198837" PMx_abs="4.447419" NOx_abs="97.747627" fuel_abs="100.601850" electricity_abs="0"/>
    </tripinfo>
    <tripinfo id="carIn70533:1" depart="57812.00" departLane="-447569998#1_1" departPos="5.10" departSpeed="0.00" departDelay="0.10" arrival="57877.00" arrivalLane="-315358244_1" arrivalPos="33.95" arrivalSpeed="13.15" duration="65.00" routeLength="706.49" waitingTime="0.00" waitingCount="0" stopTime="0.00" timeLoss="6.24" rerouteNo="1" devices="tripinfo_carIn70533:1 routing_carIn70533:1 emissions_carIn70533:1" vType="default_016" speedFactor="1.02" vaporized="">
        <emissions CO_abs="2107.719840" CO2_abs="158351.797406" HC_abs="13.246168" PMx_abs="2.441659" NOx_abs="61.896194" fuel_abs="68.068980" electricity_abs="0"/>
    </tripinfo>
    <tripinfo id="randUni23028:1" depart="57884.00" departLane="124812856#0_1" departPos="5.10" departSpeed="0.00" departDelay="0.10" arrival="57900.00" arrivalLane="201956810_1" arrivalPos="71.65" arrivalSpeed="11.60" duration="16.00" routeLength="134.91" waitingTime="0.00" waitingCount="0" stopTime="0.00" timeLoss="3.99" rerouteNo="1" devices="tripinfo_randUni23028:1 routing_randUni23028:1 emissions_randUni23028:1" vType="random_016" speedFactor="0.91" vaporized="">
        <emissions CO_abs="1236.826459" CO2_abs="62805.229034" HC_abs="7.113448" PMx_abs="1.196605" NOx_abs="26.497932" fuel_abs="26.997354" electricity_abs="0"/>
    </tripinfo>
    <tripinfo id="carIn13353:1" depart="57838.00" departLane="-447569998#1_1" departPos="5.10" departSpeed="0.00" departDelay="0.30" arrival="57904.00" arrivalLane="-315358244_1" arrivalPos="33.95" arrivalSpeed="13.71" duration="66.00" routeLength="706.49" waitingTime="0.00" waitingCount="0" stopTime="0.00" timeLoss="6.06" rerouteNo="1" devices="tripinfo_carIn13353:1 routing_carIn13353:1 emissions_carIn13353:1" vType="default_016" speedFactor="1.01" vaporized="">
        <emissions CO_abs="2024.963314" CO2_abs="146905.135672" HC_abs="12.572876" PMx_abs="2.286528" NOx_abs="57.657086" fuel_abs="63.148538" electricity_abs="0"/>
    </tripinfo>
    <tripinfo id="carIn63848:1" depart="57841.00" departLane="-447569998#1_1" departPos="5.10" departSpeed="0.00" departDelay="0.80" arrival="57904.00" arrivalLane="-315358244_2" arrivalPos="33.95" arrivalSpeed="14.70" duration="63.00" routeLength="706.49" waitingTime="0.00" waitingCount="0" stopTime="0.00" timeLoss="6.85" rerouteNo="1" devices="tripinfo_carIn63848:1 routing_carIn63848:1 emissions_carIn63848:1" vType="default_016" speedFactor="1.09" vaporized="">
        <emissions CO_abs="2099.572362" CO2_abs="149514.870436" HC_abs="13.045339" PMx_abs="2.407498" NOx_abs="59.068585" fuel_abs="64.270291" electricity_abs="0"/>
    </tripinfo>
    <tripinfo id="h317c2:1" depart="57707.00" departLane="-32978638#0_1" departPos="5.10" departSpeed="0.00" departDelay="0.10" arrival="57905.00" arrivalLane="-266565295#5_1" arrivalPos="172.76" arrivalSpeed="13.30" duration="198.00" routeLength="370.53" waitingTime="162.00" waitingCount="1" stopTime="0.00" timeLoss="169.65" rerouteNo="1" devices="tripinfo_h317c2:1 routing_h317c2:1 emissions_h317c2:1" vType="default_016" speedFactor="0.96" vaporized="">
        <emissions CO_abs="28143.694844" CO2_abs="533618.760687" HC_abs="140.682769" PMx_abs="12.554456" NOx_abs="239.147847" fuel_abs="229.392082" electricity_abs="0"/>
    </tripinfo>
    <tripinfo id="h330c1:1" depart="57736.00" departLane="-32978638#0_1" departPos="5.10" departSpeed="0.00" departDelay="0.20" arrival="57908.00" arrivalLane="-266565295#5_1" arrivalPos="172.76" arrivalSpeed="12.98" duration="172.00" routeLength="370.53" waitingTime="132.00" waitingCount="1" stopTime="0.00" timeLoss="142.95" rerouteNo="1" devices="tripinfo_h330c1:1 routing_h330c1:1 emissions_h330c1:1" vType="default_016" speedFactor="0.96" vaporized="">
        <emissions CO_abs="22996.720293" CO2_abs="445181.765632" HC_abs="115.185460" PMx_abs="10.493103" NOx_abs="199.795527" fuel_abs="191.374319" electricity_abs="0"/>
    </tripinfo>
    <tripinfo id="carIn24709:1" depart="57753.00" departLane="266565295#5_1" departPos="5.10" departSpeed="0.00" departDelay="2.50" arrival="57913.00" arrivalLane="-24634506#2_1" arrivalPos="71.32" arrivalSpeed="14.86" duration="160.00" routeLength="1534.27" waitingTime="36.00" waitingCount="1" stopTime="0.00" timeLoss="60.88" rerouteNo="1" devices="tripinfo_carIn24709:1 routing_carIn24709:1 emissions_carIn24709:1" vType="default_016" speedFactor="1.14" vaporized="">
        <emissions CO_abs="10765.572303" CO2_abs="513480.700971" HC_abs="61.001131" PMx_abs="9.834997" NOx_abs="213.078877" fuel_abs="220.724830" electricity_abs="0"/>
    </tripinfo>
    <tripinfo id="carIn14532:1" depart="57743.00" departLane="272042143_1" departPos="5.10" departSpeed="0.00" departDelay="1.90" arrival="57916.00" arrivalLane="399835085#1_1" arrivalPos="212.23" arrivalSpeed="8.56" duration="173.00" routeLength="1757.45" waitingTime="0.00" waitingCount="0" stopTime="0.00" timeLoss="42.24" rerouteNo="1" devices="tripinfo_carIn14532:1 routing_carIn14532:1 emissions_carIn14532:1" vType="default_016" speedFactor="1.08" vaporized="">
        <emissions CO_abs="5728.253183" CO2_abs="392943.880197" HC_abs="35.167647" PMx_abs="6.317901" NOx_abs="156.909924" fuel_abs="168.910413" electricity_abs="0"/>
    </tripinfo>
    <tripinfo id="carIn81681:1" depart="57726.00" departLane="272042143_1" departPos="5.10" departSpeed="0.00" departDelay="0.30" arrival="57918.00" arrivalLane="306240162#0_0" arrivalPos="220.43" arrivalSpeed="13.43" duration="192.00" routeLength="2246.89" waitingTime="0.00" waitingCount="0" stopTime="0.00" timeLoss="19.23" rerouteNo="1" devices="tripinfo_carIn81681:1 routing_carIn81681:1 emissions_carIn81681:1" vType="default_016" speedFactor="0.85" vaporized="">
        <emissions CO_abs="5606.545880" CO2_abs="469224.391140" HC_abs="36.370427" PMx_abs="7.195995" NOx_abs="182.607462" fuel_abs="201.700003" electricity_abs="0"/>
    </tripinfo>
    <tripinfo id="carIn80913:1" depart="57732.00" departLane="272042143_1" departPos="5.10" departSpeed="0.00" departDelay="0.40" arrival="57920.00" arrivalLane="306240162#0_0" arrivalPos="220.43" arrivalSpeed="15.91" duration="188.00" routeLength="2246.89" waitingTime="0.00" waitingCount="0" stopTime="0.00" timeLoss="40.17" rerouteNo="1" devices="tripinfo_carIn80913:1 routing_carIn80913:1 emissions_carIn80913:1" vType="default_016" speedFactor="1.00" vaporized="">
        <emissions CO_abs="6495.478030" CO2_abs="501324.499864" HC_abs="41.362889" PMx_abs="8.540907" NOx_abs="201.092209" fuel_abs="215.497592" electricity_abs="0"/>
    </tripinfo>
    <tripinfo id="h3426c1:1" depart="57864.00" departLane="-160314345#2_1" departPos="5.10" departSpeed="0.00" departDelay="0.00" arrival="57932.00" arrivalLane="386687235_1" arrivalPos="80.84" arrivalSpeed="15.33" duration="68.00" routeLength="726.87" waitingTime="0.00" waitingCount="0" stopTime="0.00" timeLoss="7.00" rerouteNo="1" devices="tripinfo_h3426c1:1 routing_h3426c1:1 emissions_h3426c1:1" vType="default_016" speedFactor="1.12" vaporized="">
        <emissions CO_abs="2579.713675" CO2_abs="175692.184264" HC_abs="15.814485" PMx_abs="2.892588" NOx_abs="70.048409" fuel_abs="75.522811" electricity_abs="0"/>
    </tripinfo>
    <tripinfo id="carIn53503:1" depart="57763.00" departLane="-306240162#1_0" departPos="5.10" departSpeed="0.00" departDelay="2.40" arrival="57940.00" arrivalLane="24634510#6_1" arrivalPos="76.64" arrivalSpeed="12.69" duration="177.00" routeLength="1440.47" waitingTime="48.00" waitingCount="1" stopTime="0.00" timeLoss="68.44" rerouteNo="1" devices="tripinfo_carIn53503:1 routing_carIn53503:1 emissions_carIn53503:1" vType="default_016" speedFactor="0.92" vaporized="">
        <emissions CO_abs="11635.437770" CO2_abs="461974.299031" HC_abs="63.713519" PMx_abs="8.582090" NOx_abs="190.759206" fuel_abs="198.586296" electricity_abs="0"/>
    </tripinfo>
    <tripinfo id="h9953c2:3" depart="57682.00" departLane="-54169231#2_1" departPos="5.10" departSpeed="0.00" departDelay="0.00" arrival="57960.00" arrivalLane="386687235_1" arrivalPos="80.84" arrivalSpeed="15.45" duration="278.00" routeLength="1535.60" waitingTime="147.00" waitingCount="1" stopTime="0.00" timeLoss="167.44" rerouteNo="1" devices="tripinfo_h9953c2:3 routing_h9953c2:3 emissions_h9953c2:3" vType="default_016" speedFactor="1.14" vaporized="">
        <emissions CO_abs="28624.457297" CO2_abs="747940.824739" HC_abs="147.811571" PMx_abs="16.030674" NOx_abs="323.451462" fuel_abs="321.518144" electricity_abs="0"/>
    </tripinfo>
    <tripinfo id="carIn9695:1" depart="57822.00" departLane="272042143_1" departPos="5.10" departSpeed="0.00" departDelay="0.80" arrival="57963.00" arrivalLane="-315358254#1_1" arrivalPos="137.16" arrivalSpeed="12.17" duration="141.00" routeLength="1596.88" waitingTime="0.00" waitingCount="0" stopTime="0.00" timeLoss="12.91" rerouteNo="1" devices="tripinfo_carIn9695:1 routing_carIn9695:1 emissions_carIn9695:1" vType="default_016" speedFactor="0.91" vaporized="">
        <emissions CO_abs="3861.737576" CO2_abs="313363.035266" HC_abs="24.854834" PMx_abs="4.810322" NOx_abs="122.633705" fuel_abs="134.701738" electricity_abs="0"/>
    </tripinfo>
    <tripinfo id="carIn101266:1" depart="57737.00" departLane="272042143_1" departPos="5.10" departSpeed="0.00" departDelay="0.50" arrival="57964.00" arrivalLane="306240162#0_0" arrivalPos="220.43" arrivalSpeed="12.82" duration="227.00" routeLength="2246.89" waitingTime="22.00" waitingCount="1" stopTime="0.00" timeLoss="43.41" rerouteNo="1" devices="tripinfo_carIn101266:1 routing_carIn101266:1 emissions_carIn101266:1" vType="default_016" speedFactor="0.80" vaporized="">
        <emissions CO_abs="8732.049250" CO2_abs="489623.793396" HC_abs="51.092985" PMx_abs="8.095205" NOx_abs="195.705400" fuel_abs="210.470285" electricity_abs="0"/>
    </tripinfo>
    <tripinfo id="h7097c1:1" depart="57670.00" departLane="315358242#0_1" departPos="5.10" departSpeed="0.00" departDelay="0.60" arrival="57966.00" arrivalLane="306240162#0_0" arrivalPos="220.43" arrivalSpeed="16.20" duration="296.00" routeLength="2586.94" waitingTime="106.00" waitingCount="2" stopTime="0.00" timeLoss="136.87" rerouteNo="1" devices="tripinfo_h7097c1:1 routing_h7097c1:1 emissions_h7097c1:1" vType="default_016" speedFactor="1.09" vaporized="">
        <emissions CO_abs="22432.848498" CO2_abs="832183.642744" HC_abs="121.675144" PMx_abs="16.532362" NOx_abs="347.087083" fuel_abs="357.726086" electricity_abs="0"/>
    </tripinfo>
    <tripinfo id="h17549c1:1" depart="57680.00" departLane="-447569998#1_1" departPos="5.10" departSpeed="0.00" departDelay="0.00" arrival="57968.00" arrivalLane="-315358254#1_1" arrivalPos="137.16" arrivalSpeed="12.39" duration="288.00" routeLength="1743.98" waitingTime="114.00" waitingCount="1" stopTime="0.00" timeLoss="135.37" rerouteNo="1" devices="tripinfo_h17549c1:1 routing_h17549c1:1 emissions_h17549c1:1" vType="default_016" speedFactor="0.89" vaporized="">
        <emissions CO_abs="23503.136949" CO2_abs="661557.989243" HC_abs="122.434941" PMx_abs="13.082663" NOx_abs="279.846826" fuel_abs="284.384719" electricity_abs="0"/>
    </tripinfo>
    <tripinfo id="randUni11215:1" depart="57953.00" departLane="124812856#0_1" departPos="5.10" departSpeed="0.00" departDelay="0.30" arrival="57968.00" arrivalLane="201956810_1" arrivalPos="71.65" arrivalSpeed="13.39" duration="15.00" routeLength="134.91" waitingTime="0.00" waitingCount="0" stopTime="0.00" timeLoss="4.15" rerouteNo="1" devices="tripinfo_randUni11215:1 routing_randUni11215:1 emissions_randUni11215:1" vType="random_016" speedFactor="1.03" vaporized="">
        <emissions CO_abs="1119.604041" CO2_abs="57865.456296" HC_abs="6.463625" PMx_abs="1.099655" NOx_abs="24.368069" fuel_abs="24.873941" electricity_abs="0"/>
    </tripinfo>
    <tripinfo id="randUni3548:1" depart="57726.00" departLane="-447569998#1_1" departPos="5.10" departSpeed="0.00" departDelay="0.00" arrival="57977.00" arrivalLane="-315358254#1_1" arrivalPos="137.16" arrivalSpeed="13.98" duration="251.00" routeLength="1746.60" waitingTime="83.00" waitingCount="2" stopTime="0.00" timeLoss="117.17" rerouteNo="1" devices="tripinfo_randUni3548:1 routing_randUni3548:1 emissions_randUni3548:1" vType="random_016" speedFactor="1.02" vaporized="">
        <emissions CO_abs="18276.901137" CO2_abs="612675.752649" HC_abs="97.506291" PMx_abs="11.784900" NOx_abs="256.469392" fuel_abs="263.369224" electricity_abs="0"/>
    </tripinfo>
    <tripinfo id="carIn113750:1" depart="57961.00" departLane="24599188#0.94_1" departPos="5.10" departSpeed="0.00" departDelay="0.30" arrival="57988.00" arrivalLane="24599188#0.94_1" arrivalPos="186.59" arrivalSpeed="7.17" duration="27.00" routeLength="181.49" waitingTime="0.00" waitingCount="0" stopTime="0.00" timeLoss="4.25" rerouteNo="1" devices="tripinfo_carIn113750:1 routing_carIn113750:1 emissions_carIn113750:1" vType="default_016" speedFactor="0.98" vaporized="">
        <emissions CO_abs="1270.707984" CO2_abs="51881.995997" HC_abs="6.970714" PMx_abs="0.835488" NOx_abs="21.046354" fuel_abs="22.302342" electricity_abs="0"/>
    </tripinfo>
    <tripinfo id="carIn76994:1" depart="57828.00" departLane="272042143_1" departPos="5.10" departSpeed="0.00" departDelay="2.80" arrival="57992.00" arrivalLane="399835085#1_1" arrivalPos="212.23" arrivalSpeed="8.17" duration="164.00" routeLength="1757.45" waitingTime="0.00" waitingCount="0" stopTime="0.00" timeLoss="22.12" rerouteNo="1" devices="tripinfo_carIn76994:1 routing_carIn76994:1 emissions_carIn76994:1" vType="default_016" speedFactor="1.00" vaporized="">
        <emissions CO_abs="5141.760710" CO2_abs="371375.041524" HC_abs="32.037448" PMx_abs="5.885277" NOx_abs="146.950751" fuel_abs="159.638844" electricity_abs="0"/>
    </tripinfo>
    <tripinfo id="h7032c2:3" depart="57863.00" departLane="315358244_1" departPos="5.10" departSpeed="0.00" departDelay="0.40" arrival="57993.00" arrivalLane="26677541_1" arrivalPos="152.31" arrivalSpeed="14.07" duration="130.00" routeLength="925.70" waitingTime="24.00" waitingCount="2" stopTime="0.00" timeLoss="43.12" rerouteNo="1" devices="tripinfo_h7032c2:3 routing_h7032c2:3 emissions_h7032c2:3" vType="default_016" speedFactor="1.03" vaporized="">
        <emissions CO_abs="7201.587489" CO2_abs="303085.658090" HC_abs="39.851825" PMx_abs="5.478524" NOx_abs="125.194556" fuel_abs="130.285494" electricity_abs="0"/>
    </tripinfo>
    <tripinfo id="carIn118538:1" depart="57683.00" departLane="-447569998#1_1" departPos="5.10" departSpeed="0.00" departDelay="1.00" arrival="57995.00" arrivalLane="399835085#1_1" arrivalPos="212.23" arrivalSpeed="7.85" duration="312.00" routeLength="1904.55" waitingTime="113.00" waitingCount="1" stopTime="0.00" timeLoss="155.21" rerouteNo="1" devices="tripinfo_carIn118538:1 routing_carIn118538:1 emissions_carIn118538:1" vType="default_016" speedFactor="1.03" vaporized="">
        <emissions CO_abs="24783.332064" CO2_abs="736213.532114" HC_abs="130.004472" PMx_abs="14.378627" NOx_abs="310.684042" fuel_abs="316.476044" electricity_abs="0"/>
    </tripinfo>
    <tripinfo id="carIn42952:1" depart="57837.00" departLane="272042143_1" departPos="5.10" departSpeed="0.00" departDelay="7.00" arrival="57998.00" arrivalLane="399835085#1_1" arrivalPos="212.23" arrivalSpeed="8.00" duration="161.00" routeLength="1757.45" waitingTime="0.00" waitingCount="0" stopTime="0.00" timeLoss="26.27" rerouteNo="1" devices="tripinfo_carIn42952:1 routing_carIn42952:1 emissions_carIn42952:1" vType="default_016" speedFactor="1.05" vaporized="">
        <emissions CO_abs="4670.682494" CO2_abs="347124.958939" HC_abs="29.344149" PMx_abs="5.621606" NOx_abs="137.954471" fuel_abs="149.214447" electricity_abs="0"/>
    </tripinfo>
    <tripinfo id="carIn12152:1" depart="57647.00" departLane="24599188#0.94_1" departPos="5.10" departSpeed="0.00" departDelay="0.50" arrival="58004.00" arrivalLane="-315358254#1_1" arrivalPos="137.16" arrivalSpeed="10.91" duration="357.00" routeLength="2034.31" waitingTime="142.00" waitingCount="2" stopTime="0.00" timeLoss="169.96" rerouteNo="1" devices="tripinfo_carIn12152:1 routing_carIn12152:1 emissions_carIn12152:1" vType="default_016" speedFactor="0.85" vaporized="">
        <emissions CO_abs="28453.228576" CO2_abs="778711.578100" HC_abs="147.667201" PMx_abs="15.382065" NOx_abs="329.956646" fuel_abs="334.746303" electricity_abs="0"/>
    </tripinfo>
    <tripinfo id="carIn121351:1" depart="57755.00" departLane="-447569998#1_1" departPos="5.10" departSpeed="0.00" departDelay="0.30" arrival="58004.00" arrivalLane="399835085#1_1" arrivalPos="212.23" arrivalSpeed="9.57" duration="249.00" routeLength="1907.17" waitingTime="80.00" waitingCount="3" stopTime="0.00" timeLoss="110.15" rerouteNo="1" devices="tripinfo_carIn121351:1 routing_carIn121351:1 emissions_carIn121351:1" vType="default_015" speedFactor="1.17" vaporized="">
        <emissions CO_abs="16739.024514" CO2_abs="583587.907873" HC_abs="89.756368" PMx_abs="11.185363" NOx_abs="242.595183" fuel_abs="250.864931" electricity_abs="0"/>
    </tripinfo>
    <tripinfo id="carIn129628:1" depart="57739.00" departLane="24599188#0.94_1" departPos="5.10" departSpeed="0.00" departDelay="0.50" arrival="58006.00" arrivalLane="-315358254#1_1" arrivalPos="137.16" arrivalSpeed="13.69" duration="267.00" routeLength="2034.31" waitingTime="67.00" waitingCount="2" stopTime="0.00" timeLoss="108.77" rerouteNo="1" devices="tripinfo_carIn129628:1 routing_carIn129628:1 emissions_carIn129628:1" vType="default_016" speedFactor="1.00" vaporized="">
        <emissions CO_abs="15946.533267" CO2_abs="609541.771941" HC_abs="86.811125" PMx_abs="11.164257" NOx_abs="251.703082" fuel_abs="262.020959" electricity_abs="0"/>
    </tripinfo>
    <tripinfo id="carIn115169:1" depart="57759.00" departLane="24599188#0.94_1" departPos="5.10" departSpeed="0.00" departDelay="0.50" arrival="58007.00" arrivalLane="-10427692#3_1" arrivalPos="28.64" arrivalSpeed="16.11" duration="248.00" routeLength="2183.23" waitingTime="0.00" waitingCount="0" stopTime="0.00" timeLoss="29.25" rerouteNo="1" devices="tripinfo_carIn115169:1 routing_carIn115169:1 emissions_carIn115169:1" vType="default_016" speedFactor="0.77" vaporized="">
        <emissions CO_abs="9099.652200" CO2_abs="518449.894334" HC_abs="53.427931" PMx_abs="8.411678" NOx_abs="208.503782" fuel_abs="222.861397" electricity_abs="0"/>
    </tripinfo>
    <tripinfo id="carIn27323:1" depart="57762.00" departLane="24599188#0.94_1" departPos="5.10" departSpeed="0.00" departDelay="1.50" arrival="58008.00" arrivalLane="-315358254#1_1" arrivalPos="137.16" arrivalSpeed="11.56" duration="246.00" routeLength="2034.31" waitingTime="20.00" waitingCount="2" stopTime="0.00" timeLoss="61.14" rerouteNo="1" devices="tripinfo_carIn27323:1 routing_carIn27323:1 emissions_carIn27323:1" vType="default_016" speedFactor="0.85" vaporized="">