<?xml version="1.0" encoding="UTF-8"?>

<!-- generated on Thu Nov  4 14:02:16 2021 by Eclipse SUMO sumo Version 1.9.0
<configuration xmlns:xsi="http://www.w3.org/2001/XMLSchema-instance" xsi:noNamespaceSchemaLocation="http://sumo.dlr.de/xsd/sumoConfiguration.xsd">

    <input>
        <net-file value="/mainfs/home/bk2g18/RESCO/environments/ingolstadt21/ingolstadt21.net.xml"/>
        <route-files value="/mainfs/home/bk2g18/RESCO/environments/ingolstadt21/ingolstadt21.rou.xml"/>
    </input>

    <output>
        <tripinfo-output value="/mainfs/home/bk2g18/RESCO/logs/MPLight-tr0-ingolstadt21-21-mplight_full-pressure/tripinfo_67.xml"/>
        <tripinfo-output.write-unfinished value="true"/>
    </output>

    <time>
        <begin value="57600"/>
        <end value="61200"/>
    </time>

    <processing>
        <time-to-teleport value="-1"/>
    </processing>

    <report>
        <xml-validation value="never"/>
        <xml-validation.routes value="never"/>
        <no-warnings value="true"/>
        <no-step-log value="true"/>
    </report>

    <emissions>
        <device.emissions.probability value="1"/>
    </emissions>

    <traci_server>
        <remote-port value="54597"/>
    </traci_server>

    <random_number>
        <random value="true"/>
    </random_number>

</configuration>
-->

<tripinfos xmlns:xsi="http://www.w3.org/2001/XMLSchema-instance" xsi:noNamespaceSchemaLocation="http://sumo.dlr.de/xsd/tripinfo_file.xsd">
    <tripinfo id="h15454c2:3" depart="57612.00" departLane="24608844_1" departPos="5.10" departSpeed="0.00" departDelay="0.50" arrival="57651.00" arrivalLane="32978638#0_1" arrivalPos="49.29" arrivalSpeed="14.18" duration="39.00" routeLength="354.79" waitingTime="0.00" waitingCount="0" stopTime="0.00" timeLoss="5.90" rerouteNo="1" devices="tripinfo_h15454c2:3 routing_h15454c2:3 emissions_h15454c2:3" vType="default_016" speedFactor="1.03" vaporized="">
        <emissions CO_abs="1800.949488" CO2_abs="98088.812712" HC_abs="10.491523" PMx_abs="1.717037" NOx_abs="40.250988" fuel_abs="42.164433" electricity_abs="0"/>
    </tripinfo>
    <tripinfo id="carIn60260:1" depart="57606.00" departLane="315358254#0_1" departPos="5.10" departSpeed="0.00" departDelay="0.90" arrival="57670.00" arrivalLane="399835085#1_1" arrivalPos="212.23" arrivalSpeed="6.13" duration="64.00" routeLength="430.98" waitingTime="0.00" waitingCount="0" stopTime="0.00" timeLoss="11.03" rerouteNo="1" devices="tripinfo_carIn60260:1 routing_carIn60260:1 emissions_carIn60260:1" vType="default_016" speedFactor="0.87" vaporized="">
        <emissions CO_abs="2806.952424" CO2_abs="117576.038895" HC_abs="15.481028" PMx_abs="1.956075" NOx_abs="48.046944" fuel_abs="50.541871" electricity_abs="0"/>
    </tripinfo>
    <tripinfo id="carIn53971:1" depart="57640.00" departLane="272042143_1" departPos="5.10" departSpeed="0.00" departDelay="0.80" arrival="57700.00" arrivalLane="24634414#1_1" arrivalPos="162.19" arrivalSpeed="7.00" duration="60.00" routeLength="493.04" waitingTime="0.00" waitingCount="0" stopTime="0.00" timeLoss="8.91" rerouteNo="1" devices="tripinfo_carIn53971:1 routing_carIn53971:1 emissions_carIn53971:1" vType="default_016" speedFactor="0.90" vaporized="">
        <emissions CO_abs="2272.300061" CO2_abs="120586.787428" HC_abs="13.141457" PMx_abs="2.016089" NOx_abs="48.985948" fuel_abs="51.835590" electricity_abs="0"/>
    </tripinfo>
    <tripinfo id="h7800c1:5" depart="57696.00" departLane="-447569998#1_1" departPos="5.10" departSpeed="0.00" departDelay="0.00" arrival="57722.00" arrivalLane="-447569998#1_1" arrivalPos="180.76" arrivalSpeed="7.36" duration="26.00" routeLength="175.66" waitingTime="0.00" waitingCount="0" stopTime="0.00" timeLoss="3.20" rerouteNo="1" devices="tripinfo_h7800c1:5 routing_h7800c1:5 emissions_h7800c1:5" vType="default_016" speedFactor="0.96" vaporized="">
        <emissions CO_abs="1139.352073" CO2_abs="47721.683054" HC_abs="6.288843" PMx_abs="0.822184" NOx_abs="19.706683" fuel_abs="20.513855" electricity_abs="0"/>
    </tripinfo>
    <tripinfo id="carIn121703:1" depart="57647.00" departLane="386687232#0_1" departPos="5.10" departSpeed="0.00" departDelay="0.30" arrival="57732.00" arrivalLane="-315358244_1" arrivalPos="33.95" arrivalSpeed="14.90" duration="85.00" routeLength="1157.39" waitingTime="0.00" waitingCount="0" stopTime="0.00" timeLoss="9.08" rerouteNo="1" devices="tripinfo_carIn121703:1 routing_carIn121703:1 emissions_carIn121703:1" vType="default_016" speedFactor="1.12" vaporized="">
        <emissions CO_abs="2351.578454" CO2_abs="215417.743629" HC_abs="15.615036" PMx_abs="3.496472" NOx_abs="84.228336" fuel_abs="92.598687" electricity_abs="0"/>
    </tripinfo>
    <tripinfo id="h3568c1:3" depart="57656.00" departLane="266565295#5_1" departPos="5.10" departSpeed="0.00" departDelay="0.80" arrival="57734.00" arrivalLane="-24634415_1" arrivalPos="62.03" arrivalSpeed="15.67" duration="78.00" routeLength="807.40" waitingTime="0.00" waitingCount="0" stopTime="0.00" timeLoss="20.35" rerouteNo="1" devices="tripinfo_h3568c1:3 routing_h3568c1:3 emissions_h3568c1:3" vType="default_016" speedFactor="1.13" vaporized="">
        <emissions CO_abs="4148.251553" CO2_abs="261376.760038" HC_abs="24.869236" PMx_abs="4.797541" NOx_abs="107.601145" fuel_abs="112.354530" electricity_abs="0"/>
    </tripinfo>
    <tripinfo id="h4538c1:1" depart="57701.00" departLane="-10427692#1_1" departPos="5.10" departSpeed="0.00" departDelay="0.00" arrival="57746.00" arrivalLane="-128361102#1_1" arrivalPos="274.68" arrivalSpeed="11.38" duration="45.00" routeLength="440.74" waitingTime="0.00" waitingCount="0" stopTime="0.00" timeLoss="7.53" rerouteNo="1" devices="tripinfo_h4538c1:1 routing_h4538c1:1 emissions_h4538c1:1" vType="default_016" speedFactor="0.85" vaporized="">
        <emissions CO_abs="1700.542246" CO2_abs="104571.303881" HC_abs="10.158965" PMx_abs="1.642813" NOx_abs="41.516513" fuel_abs="44.951113" electricity_abs="0"/>
    </tripinfo>
    <tripinfo id="h5979c1:5" depart="57669.00" departLane="399835085#1_1" departPos="5.10" departSpeed="0.00" departDelay="0.00" arrival="57750.00" arrivalLane="-315358254#1_1" arrivalPos="137.16" arrivalSpeed="13.46" duration="81.00" routeLength="659.33" waitingTime="0.00" waitingCount="0" stopTime="0.00" timeLoss="9.36" rerouteNo="1" devices="tripinfo_h5979c1:5 routing_h5979c1:5 emissions_h5979c1:5" vType="default_016" speedFactor="1.02" vaporized="">
        <emissions CO_abs="3076.317801" CO2_abs="161042.033768" HC_abs="17.717608" PMx_abs="2.592794" NOx_abs="64.906391" fuel_abs="69.225908" electricity_abs="0"/>
    </tripinfo>
    <tripinfo id="h3326c1:2" depart="57656.00" departLane="22716069#0_1" departPos="5.10" departSpeed="0.00" departDelay="0.00" arrival="57760.00" arrivalLane="24634517#13_1" arrivalPos="111.62" arrivalSpeed="15.22" duration="104.00" routeLength="1312.81" waitingTime="0.00" waitingCount="0" stopTime="0.00" timeLoss="15.66" rerouteNo="1" devices="tripinfo_h3326c1:2 routing_h3326c1:2 emissions_h3326c1:2" vType="default_016" speedFactor="1.11" vaporized="">
        <emissions CO_abs="4063.257575" CO2_abs="320531.350393" HC_abs="25.978242" PMx_abs="5.590111" NOx_abs="128.931818" fuel_abs="137.782240" electricity_abs="0"/>
    </tripinfo>
    <tripinfo id="carIn80064:1" depart="57603.00" departLane="128361109#1_1" departPos="5.10" departSpeed="0.00" departDelay="0.40" arrival="57771.00" arrivalLane="-315358254#1_1" arrivalPos="137.16" arrivalSpeed="14.10" duration="168.00" routeLength="1587.97" waitingTime="55.00" waitingCount="2" stopTime="0.00" timeLoss="85.87" rerouteNo="1" devices="tripinfo_carIn80064:1 routing_carIn80064:1 emissions_carIn80064:1" vType="default_016" speedFactor="1.11" vaporized="">
        <emissions CO_abs="14736.045152" CO2_abs="597821.302193" HC_abs="81.356019" PMx_abs="12.630744" NOx_abs="254.200799" fuel_abs="256.979745" electricity_abs="0"/>
    </tripinfo>
    <tripinfo id="carIn27009:1" depart="57673.00" departLane="-447569998#1_1" departPos="5.10" departSpeed="0.00" departDelay="0.50" arrival="57784.00" arrivalLane="-26677539_1" arrivalPos="152.75" arrivalSpeed="6.72" duration="111.00" routeLength="699.63" waitingTime="0.00" waitingCount="0" stopTime="0.00" timeLoss="13.32" rerouteNo="1" devices="tripinfo_carIn27009:1 routing_carIn27009:1 emissions_carIn27009:1" vType="default_015" speedFactor="0.86" vaporized="">
        <emissions CO_abs="4485.751811" CO2_abs="184238.273680" HC_abs="24.648122" PMx_abs="3.055853" NOx_abs="75.455970" fuel_abs="79.197724" electricity_abs="0"/>
    </tripinfo>
    <tripinfo id="h7181c1:1" depart="57660.00" departLane="315358254#0_1" departPos="5.10" departSpeed="0.00" departDelay="0.10" arrival="57791.00" arrivalLane="306240162#0_0" arrivalPos="220.43" arrivalSpeed="15.06" duration="131.00" routeLength="932.35" waitingTime="51.00" waitingCount="3" stopTime="0.00" timeLoss="74.67" rerouteNo="1" devices="tripinfo_h7181c1:1 routing_h7181c1:1 emissions_h7181c1:1" vType="default_016" speedFactor="0.91" vaporized="">
        <emissions CO_abs="10178.485950" CO2_abs="373760.098469" HC_abs="55.149445" PMx_abs="7.732591" NOx_abs="159.507490" fuel_abs="160.665592" electricity_abs="0"/>
    </tripinfo>
    <tripinfo id="carIn107282:1" depart="57749.00" departLane="-447569998#1_1" departPos="5.10" departSpeed="0.00" departDelay="0.00" arrival="57797.00" arrivalLane="315358242#0_1" arrivalPos="165.37" arrivalSpeed="12.32" duration="48.00" routeLength="448.50" waitingTime="0.00" waitingCount="0" stopTime="0.00" timeLoss="5.14" rerouteNo="1" devices="tripinfo_carIn107282:1 routing_carIn107282:1 emissions_carIn107282:1" vType="default_016" speedFactor="0.98" vaporized="">
        <emissions CO_abs="1665.174683" CO2_abs="96965.305547" HC_abs="9.816566" PMx_abs="1.512417" NOx_abs="38.482708" fuel_abs="41.681679" electricity_abs="0"/>
    </tripinfo>
    <tripinfo id="h11737c1:1" depart="57665.00" departLane="272042143_1" departPos="5.10" departSpeed="0.00" departDelay="1.50" arrival="57801.00" arrivalLane="-315358254#1_1" arrivalPos="137.16" arrivalSpeed="13.25" duration="136.00" routeLength="1596.88" waitingTime="0.00" waitingCount="0" stopTime="0.00" timeLoss="14.07" rerouteNo="1" devices="tripinfo_h11737c1:1 routing_h11737c1:1 emissions_h11737c1:1" vType="default_016" speedFactor="0.96" vaporized="">
        <emissions CO_abs="3681.863705" CO2_abs="313106.689197" HC_abs="24.046481" PMx_abs="4.842081" NOx_abs="122.308791" fuel_abs="134.591386" electricity_abs="0"/>
    </tripinfo>
    <tripinfo id="carIn126288:1" depart="57674.00" departLane="272042143_1" departPos="5.10" departSpeed="0.00" departDelay="0.00" arrival="57802.00" arrivalLane="-315358254#1_1" arrivalPos="137.16" arrivalSpeed="14.18" duration="128.00" routeLength="1596.88" waitingTime="0.00" waitingCount="0" stopTime="0.00" timeLoss="19.15" rerouteNo="1" devices="tripinfo_carIn126288:1 routing_carIn126288:1 emissions_carIn126288:1" vType="default_016" speedFactor="1.07" vaporized="">
        <emissions CO_abs="4188.298197" CO2_abs="351790.910951" HC_abs="27.296777" PMx_abs="5.862123" NOx_abs="139.960848" fuel_abs="151.219517" electricity_abs="0"/>
    </tripinfo>
    <tripinfo id="carIn129809:1" depart="57729.00" departLane="-447569998#1_1" departPos="5.10" departSpeed="0.00" departDelay="1.00" arrival="57823.00" arrivalLane="-315358244_1" arrivalPos="33.95" arrivalSpeed="12.71" duration="94.00" routeLength="706.49" waitingTime="20.00" waitingCount="1" stopTime="0.00" timeLoss="33.53" rerouteNo="1" devices="tripinfo_carIn129809:1 routing_carIn129809:1 emissions_carIn129809:1" vType="default_015" speedFactor="1.00" vaporized="">
        <emissions CO_abs="5267.300813" CO2_abs="225997.881244" HC_abs="29.242347" PMx_abs="4.080797" NOx_abs="93.019500" fuel_abs="97.148212" electricity_abs="0"/>
    </tripinfo>
    <tripinfo id="carIn22761:1" depart="57616.00" departLane="-306240162#1_0" departPos="5.10" departSpeed="0.00" departDelay="2.10" arrival="57836.00" arrivalLane="399835085#1_1" arrivalPos="212.23" arrivalSpeed="7.20" duration="220.00" routeLength="1093.26" waitingTime="115.00" waitingCount="2" stopTime="0.00" timeLoss="138.24" rerouteNo="1" devices="tripinfo_carIn22761:1 routing_carIn22761:1 emissions_carIn22761:1" vType="default_016" speedFactor="0.96" vaporized="">
        <emissions CO_abs="22825.520761" CO2_abs="594479.186526" HC_abs="117.900916" PMx_abs="12.965157" NOx_abs="258.572650" fuel_abs="255.549146" electricity_abs="0"/>
    </tripinfo>
    <tripinfo id="randUni15030:1" depart="57735.00" departLane="386687232#0_1" departPos="5.10" departSpeed="0.00" departDelay="0.10" arrival="57841.00" arrivalLane="26677539_1" arrivalPos="151.98" arrivalSpeed="6.99" duration="106.00" routeLength="919.89" waitingTime="5.00" waitingCount="1" stopTime="0.00" timeLoss="20.40" rerouteNo="1" devices="tripinfo_randUni15030:1 routing_randUni15030:1 emissions_randUni15030:1" vType="random_016" speedFactor="0.97" vaporized="">
        <emissions CO_abs="3796.144119" CO2_abs="221611.649416" HC_abs="22.415482" PMx_abs="3.579903" NOx_abs="88.709023" fuel_abs="95.262185" electricity_abs="0"/>
    </tripinfo>
    <tripinfo id="carIn82278:1" depart="57702.00" departLane="-306240162#1_0" departPos="5.10" departSpeed="0.00" departDelay="0.70" arrival="57843.00" arrivalLane="399835085#1_1" arrivalPos="212.23" arrivalSpeed="7.58" duration="141.00" routeLength="1093.26" waitingTime="36.00" waitingCount="1" stopTime="0.00" timeLoss="59.17" rerouteNo="1" devices="tripinfo_carIn82278:1 routing_carIn82278:1 emissions_carIn82278:1" vType="default_016" speedFactor="0.96" vaporized="">
        <emissions CO_abs="10460.722508" CO2_abs="389813.450727" HC_abs="56.809515" PMx_abs="7.794760" NOx_abs="164.287575" fuel_abs="167.566654" electricity_abs="0"/>
    </tripinfo>
    <tripinfo id="carIn12152:1" depart="57647.00" departLane="24599188#0.94_1" departPos="5.10" departSpeed="0.00" departDelay="0.50" arrival="57844.00" arrivalLane="-315358254#1_1" arrivalPos="137.16" arrivalSpeed="14.91" duration="197.00" routeLength="2034.31" waitingTime="27.00" waitingCount="2" stopTime="0.00" timeLoss="50.38" rerouteNo="1" devices="tripinfo_carIn12152:1 routing_carIn12152:1 emissions_carIn12152:1" vType="default_016" speedFactor="1.08" vaporized="">
        <emissions CO_abs="8917.759322" CO2_abs="493453.549138" HC_abs="51.965839" PMx_abs="8.593666" NOx_abs="198.856430" fuel_abs="212.116078" electricity_abs="0"/>
    </tripinfo>
    <tripinfo id="carIn8642:1" depart="57774.00" departLane="-447569998#1_1" departPos="5.10" departSpeed="0.00" departDelay="0.90" arrival="57873.00" arrivalLane="-315358244_1" arrivalPos="33.95" arrivalSpeed="12.80" duration="99.00" routeLength="706.49" waitingTime="28.00" waitingCount="1" stopTime="0.00" timeLoss="38.20" rerouteNo="1" devices="tripinfo_carIn8642:1 routing_carIn8642:1 emissions_carIn8642:1" vType="default_016" speedFactor="1.00" vaporized="">
        <emissions CO_abs="6676.069529" CO2_abs="233043.100881" HC_abs="35.853890" PMx_abs="4.493102" NOx_abs="97.963575" fuel_abs="100.177306" electricity_abs="0"/>
    </tripinfo>
    <tripinfo id="carIn70533:1" depart="57812.00" departLane="-447569998#1_1" departPos="5.10" departSpeed="0.00" departDelay="0.10" arrival="57875.00" arrivalLane="-315358244_1" arrivalPos="33.95" arrivalSpeed="14.09" duration="63.00" routeLength="706.49" waitingTime="0.00" waitingCount="0" stopTime="0.00" timeLoss="6.37" rerouteNo="1" devices="tripinfo_carIn70533:1 routing_carIn70533:1 emissions_carIn70533:1" vType="default_016" speedFactor="1.07" vaporized="">
        <emissions CO_abs="2057.962397" CO2_abs="144146.154907" HC_abs="12.673686" PMx_abs="2.279625" NOx_abs="56.746019" fuel_abs="61.962578" electricity_abs="0"/>
    </tripinfo>
    <tripinfo id="h17600c1:1" depart="57662.00" departLane="272042143_1" departPos="5.10" departSpeed="0.00" departDelay="0.30" arrival="57876.00" arrivalLane="201238729#3_1" arrivalPos="431.02" arrivalSpeed="12.51" duration="214.00" routeLength="2100.26" waitingTime="30.00" waitingCount="1" stopTime="0.00" timeLoss="48.36" rerouteNo="1" devices="tripinfo_h17600c1:1 routing_h17600c1:1 emissions_h17600c1:1" vType="default_016" speedFactor="0.92" vaporized="">
        <emissions CO_abs="8483.298744" CO2_abs="457679.517354" HC_abs="49.240086" PMx_abs="7.428575" NOx_abs="181.589231" fuel_abs="196.739222" electricity_abs="0"/>
    </tripinfo>
    <tripinfo id="carIn24709:1" depart="57753.00" departLane="266565295#5_1" departPos="5.10" departSpeed="0.00" departDelay="2.50" arrival="57896.00" arrivalLane="-24634506#2_1" arrivalPos="71.32" arrivalSpeed="11.62" duration="143.00" routeLength="1534.27" waitingTime="0.00" waitingCount="0" stopTime="0.00" timeLoss="18.28" rerouteNo="1" devices="tripinfo_carIn24709:1 routing_carIn24709:1 emissions_carIn24709:1" vType="default_016" speedFactor="0.91" vaporized="">
        <emissions CO_abs="5010.339955" CO2_abs="341896.109434" HC_abs="30.799399" PMx_abs="5.705680" NOx_abs="137.513556" fuel_abs="146.966824" electricity_abs="0"/>
    </tripinfo>
    <tripinfo id="carIn132499:1" depart="57740.00" departLane="272042143_1" departPos="5.10" departSpeed="0.00" departDelay="0.70" arrival="57897.00" arrivalLane="201238729#3_1" arrivalPos="431.02" arrivalSpeed="14.02" duration="157.00" routeLength="2100.26" waitingTime="0.00" waitingCount="0" stopTime="0.00" timeLoss="18.40" rerouteNo="1" devices="tripinfo_carIn132499:1 routing_carIn132499:1 emissions_carIn132499:1" vType="default_016" speedFactor="1.09" vaporized="">
        <emissions CO_abs="4082.046788" CO2_abs="390181.471640" HC_abs="27.607433" PMx_abs="6.228750" NOx_abs="152.054303" fuel_abs="167.722005" electricity_abs="0"/>
    </tripinfo>
    <tripinfo id="randUni23028:1" depart="57884.00" departLane="124812856#0_1" departPos="5.10" departSpeed="0.00" departDelay="0.10" arrival="57899.00" arrivalLane="201956810_1" arrivalPos="71.65" arrivalSpeed="13.01" duration="15.00" routeLength="134.91" waitingTime="0.00" waitingCount="0" stopTime="0.00" timeLoss="4.33" rerouteNo="1" devices="tripinfo_randUni23028:1 routing_randUni23028:1 emissions_randUni23028:1" vType="random_016" speedFactor="1.02" vaporized="">
        <emissions CO_abs="1161.553985" CO2_abs="59944.195791" HC_abs="6.719381" PMx_abs="1.224845" NOx_abs="25.849843" fuel_abs="25.767369" electricity_abs="0"/>
    </tripinfo>
    <tripinfo id="h17549c1:1" depart="57680.00" departLane="-447569998#1_1" departPos="5.10" departSpeed="0.00" departDelay="0.00" arrival="57900.00" arrivalLane="-315358254#1_1" arrivalPos="137.16" arrivalSpeed="10.45" duration="220.00" routeLength="1746.60" waitingTime="18.00" waitingCount="2" stopTime="0.00" timeLoss="45.14" rerouteNo="1" devices="tripinfo_h17549c1:1 routing_h17549c1:1 emissions_h17549c1:1" vType="default_016" speedFactor="0.78" vaporized="">
        <emissions CO_abs="8382.416746" CO2_abs="408926.479726" HC_abs="47.572155" PMx_abs="6.533848" NOx_abs="163.808566" fuel_abs="175.782736" electricity_abs="0"/>
    </tripinfo>
    <tripinfo id="carIn30817:1" depart="57681.00" departLane="315358244_1" departPos="5.10" departSpeed="0.00" departDelay="0.20" arrival="57903.00" arrivalLane="447569997#1_1" arrivalPos="180.93" arrivalSpeed="7.12" duration="222.00" routeLength="718.04" waitingTime="135.00" waitingCount="2" stopTime="0.00" timeLoss="155.96" rerouteNo="1" devices="tripinfo_carIn30817:1 routing_carIn30817:1 emissions_carIn30817:1" vType="default_016" speedFactor="0.93" vaporized="">
        <emissions CO_abs="23867.975391" CO2_abs="511909.054048" HC_abs="120.645121" PMx_abs="11.262518" NOx_abs="224.598261" fuel_abs="220.058002" electricity_abs="0"/>
    </tripinfo>
    <tripinfo id="h317c2:1" depart="57707.00" departLane="-32978638#0_1" departPos="5.10" departSpeed="0.00" departDelay="0.10" arrival="57904.00" arrivalLane="-266565295#5_1" arrivalPos="172.76" arrivalSpeed="13.48" duration="197.00" routeLength="370.53" waitingTime="161.00" waitingCount="1" stopTime="0.00" timeLoss="170.63" rerouteNo="1" devices="tripinfo_h317c2:1 routing_h317c2:1 emissions_h317c2:1" vType="default_016" speedFactor="1.03" vaporized="">
        <emissions CO_abs="27962.877312" CO2_abs="531014.961510" HC_abs="139.811211" PMx_abs="12.555729" NOx_abs="238.415310" fuel_abs="228.272625" electricity_abs="0"/>
    </tripinfo>
    <tripinfo id="h13377c2:3" depart="57804.00" departLane="315358244_1" departPos="5.10" departSpeed="0.00" departDelay="0.60" arrival="57904.00" arrivalLane="447569997#1_2" arrivalPos="180.93" arrivalSpeed="7.83" duration="100.00" routeLength="726.74" waitingTime="14.00" waitingCount="4" stopTime="0.00" timeLoss="37.35" rerouteNo="1" devices="tripinfo_h13377c2:3 routing_h13377c2:3 emissions_h13377c2:3" vType="default_016" speedFactor="1.07" vaporized="">
        <emissions CO_abs="5424.724007" CO2_abs="223960.398838" HC_abs="29.902838" PMx_abs="4.074162" NOx_abs="92.682933" fuel_abs="96.272470" electricity_abs="0"/>
    </tripinfo>
    <tripinfo id="carIn12365:1" depart="57713.00" departLane="315358244_1" departPos="5.10" departSpeed="0.00" departDelay="0.50" arrival="57906.00" arrivalLane="447569997#1_1" arrivalPos="180.93" arrivalSpeed="7.15" duration="193.00" routeLength="718.04" waitingTime="104.00" waitingCount="3" stopTime="0.00" timeLoss="124.53" rerouteNo="1" devices="tripinfo_carIn12365:1 routing_carIn12365:1 emissions_carIn12365:1" vType="default_016" speedFactor="0.89" vaporized="">
        <emissions CO_abs="19699.070848" CO2_abs="463483.225712" HC_abs="100.532810" PMx_abs="9.932686" NOx_abs="201.976736" fuel_abs="199.239579" electricity_abs="0"/>
    </tripinfo>
    <tripinfo id="carIn13443:1" depart="57729.00" departLane="272042143_1" departPos="5.10" departSpeed="0.00" departDelay="0.80" arrival="57907.00" arrivalLane="399835085#1_1" arrivalPos="212.23" arrivalSpeed="6.69" duration="178.00" routeLength="1757.45" waitingTime="7.00" waitingCount="1" stopTime="0.00" timeLoss="23.54" rerouteNo="1" devices="tripinfo_carIn13443:1 routing_carIn13443:1 emissions_carIn13443:1" vType="default_016" speedFactor="0.92" vaporized="">
        <emissions CO_abs="5349.293911" CO2_abs="362171.738420" HC_abs="32.722848" PMx_abs="5.539744" NOx_abs="142.074253" fuel_abs="155.683309" electricity_abs="0"/>
    </tripinfo>
    <tripinfo id="h330c1:1" depart="57736.00" departLane="-32978638#0_1" departPos="5.10" departSpeed="0.00" departDelay="0.20" arrival="57907.00" arrivalLane="-266565295#5_1" arrivalPos="172.76" arrivalSpeed="14.07" duration="171.00" routeLength="370.53" waitingTime="134.00" waitingCount="1" stopTime="0.00" timeLoss="144.17" rerouteNo="1" devices="tripinfo_h330c1:1 routing_h330c1:1 emissions_h330c1:1" vType="default_016" speedFactor="1.04" vaporized="">
        <emissions CO_abs="23776.189026" CO2_abs="471571.708372" HC_abs="119.330242" PMx_abs="10.942173" NOx_abs="210.242633" fuel_abs="202.718595" electricity_abs="0"/>
    </tripinfo>
    <tripinfo id="carIn53503:1" depart="57764.00" departLane="-306240162#1_0" departPos="5.10" departSpeed="0.00" departDelay="3.40" arrival="57909.00" arrivalLane="24634510#6_1" arrivalPos="76.64" arrivalSpeed="12.55" duration="145.00" routeLength="1440.47" waitingTime="17.00" waitingCount="2" stopTime="0.00" timeLoss="43.58" rerouteNo="1" devices="tripinfo_carIn53503:1 routing_carIn53503:1 emissions_carIn53503:1" vType="default_016" speedFactor="0.97" vaporized="">
        <emissions CO_abs="7002.101453" CO2_abs="382218.913405" HC_abs="40.818530" PMx_abs="6.994198" NOx_abs="157.097524" fuel_abs="164.300216" electricity_abs="0"/>
    </tripinfo>
    <tripinfo id="h3864c1:3" depart="57678.00" departLane="24693977#1_1" departPos="5.10" departSpeed="0.00" departDelay="0.00" arrival="57910.00" arrivalLane="201956820_1" arrivalPos="48.33" arrivalSpeed="13.80" duration="232.00" routeLength="1574.85" waitingTime="72.00" waitingCount="3" stopTime="0.00" timeLoss="107.15" rerouteNo="1" devices="tripinfo_h3864c1:3 routing_h3864c1:3 emissions_h3864c1:3" vType="default_016" speedFactor="1.04" vaporized="">
        <emissions CO_abs="17347.152429" CO2_abs="636542.422774" HC_abs="93.928567" PMx_abs="12.515355" NOx_abs="268.766611" fuel_abs="273.626847" electricity_abs="0"/>
    </tripinfo>
    <tripinfo id="carIn81681:1" depart="57726.00" departLane="272042143_1" departPos="5.10" departSpeed="0.00" departDelay="0.30" arrival="57920.00" arrivalLane="306240162#0_0" arrivalPos="220.43" arrivalSpeed="16.71" duration="194.00" routeLength="2246.89" waitingTime="27.00" waitingCount="2" stopTime="0.00" timeLoss="51.46" rerouteNo="1" devices="tripinfo_carIn81681:1 routing_carIn81681:1 emissions_carIn81681:1" vType="default_016" speedFactor="1.03" vaporized="">
        <emissions CO_abs="9436.205252" CO2_abs="566655.977446" HC_abs="56.298236" PMx_abs="10.401126" NOx_abs="229.895435" fuel_abs="243.581615" electricity_abs="0"/>
    </tripinfo>
    <tripinfo id="randUni3548:1" depart="57726.00" departLane="-447569998#1_1" departPos="5.10" departSpeed="0.00" departDelay="0.00" arrival="57921.00" arrivalLane="-315358254#1_1" arrivalPos="137.16" arrivalSpeed="12.34" duration="195.00" routeLength="1743.98" waitingTime="20.00" waitingCount="2" stopTime="0.00" timeLoss="43.47" rerouteNo="1" devices="tripinfo_randUni3548:1 routing_randUni3548:1 emissions_randUni3548:1" vType="random_016" speedFactor="0.90" vaporized="">
        <emissions CO_abs="8222.980830" CO2_abs="417681.217028" HC_abs="47.137824" PMx_abs="6.999464" NOx_abs="168.285690" fuel_abs="179.545412" electricity_abs="0"/>
    </tripinfo>
    <tripinfo id="carIn14532:1" depart="57743.00" departLane="272042143_1" departPos="5.10" departSpeed="0.00" departDelay="1.90" arrival="57923.00" arrivalLane="399835085#1_1" arrivalPos="212.23" arrivalSpeed="6.95" duration="180.00" routeLength="1757.45" waitingTime="0.00" waitingCount="0" stopTime="0.00" timeLoss="26.77" rerouteNo="1" devices="tripinfo_carIn14532:1 routing_carIn14532:1 emissions_carIn14532:1" vType="default_016" speedFactor="0.93" vaporized="">
        <emissions CO_abs="5834.259333" CO2_abs="377897.466165" HC_abs="35.316456" PMx_abs="6.005294" NOx_abs="150.595423" fuel_abs="162.442957" electricity_abs="0"/>
    </tripinfo>
    <tripinfo id="carIn80913:1" depart="57732.00" departLane="272042143_1" departPos="5.10" departSpeed="0.00" departDelay="0.40" arrival="57924.00" arrivalLane="306240162#0_0" arrivalPos="220.43" arrivalSpeed="14.88" duration="192.00" routeLength="2246.89" waitingTime="8.00" waitingCount="2" stopTime="0.00" timeLoss="35.83" rerouteNo="1" devices="tripinfo_carIn80913:1 routing_carIn80913:1 emissions_carIn80913:1" vType="default_016" speedFactor="0.94" vaporized="">
        <emissions CO_abs="7219.237520" CO2_abs="530069.644160" HC_abs="45.382537" PMx_abs="9.231940" NOx_abs="213.112994" fuel_abs="227.853958" electricity_abs="0"/>
    </tripinfo>
    <tripinfo id="carIn115169:1" depart="57759.00" departLane="24599188#0.94_1" departPos="5.10" departSpeed="0.00" departDelay="0.50" arrival="57924.00" arrivalLane="-10427692#3_1" arrivalPos="28.64" arrivalSpeed="24.81" duration="165.00" routeLength="2183.23" waitingTime="0.00" waitingCount="0" stopTime="0.00" timeLoss="25.97" rerouteNo="1" devices="tripinfo_carIn115169:1 routing_carIn115169:1 emissions_carIn115169:1" vType="default_016" speedFactor="1.22" vaporized="">
        <emissions CO_abs="8132.397430" CO2_abs="592753.404344" HC_abs="50.985490" PMx_abs="11.182242" NOx_abs="243.734785" fuel_abs="254.797703" electricity_abs="0"/>
    </tripinfo>
    <tripinfo id="h6846c2:1" depart="57741.00" departLane="26677213#0_1" departPos="5.10" departSpeed="0.00" departDelay="0.00" arrival="57927.00" arrivalLane="386687235_1" arrivalPos="80.84" arrivalSpeed="15.15" duration="186.00" routeLength="1412.24" waitingTime="36.00" waitingCount="1" stopTime="0.00" timeLoss="64.78" rerouteNo="1" devices="tripinfo_h6846c2:1 routing_h6846c2:1 emissions_h6846c2:1" vType="default_016" speedFactor="1.14" vaporized="">
        <emissions CO_abs="12433.982779" CO2_abs="518637.105629" HC_abs="68.736992" PMx_abs="9.838361" NOx_abs="217.099413" fuel_abs="222.942607" electricity_abs="0"/>
    </tripinfo>
    <tripinfo id="h9953c2:3" depart="57682.00" departLane="-54169231#2_1" departPos="5.10" departSpeed="0.00" departDelay="0.00" arrival="57931.00" arrivalLane="386687235_1" arrivalPos="80.84" arrivalSpeed="14.98" duration="249.00" routeLength="1535.60" waitingTime="115.00" waitingCount="1" stopTime="0.00" timeLoss="141.21" rerouteNo="1" devices="tripinfo_h9953c2:3 routing_h9953c2:3 emissions_h9953c2:3" vType="default_016" speedFactor="1.17" vaporized="">
        <emissions CO_abs="24634.047927" CO2_abs="710423.948620" HC_abs="128.684808" PMx_abs="14.737530" NOx_abs="303.752774" fuel_abs="305.389305" electricity_abs="0"/>
    </tripinfo>
    <tripinfo id="carIn118538:1" depart="57683.00" departLane="-447569998#1_1" departPos="5.10" departSpeed="0.00" departDelay="1.00" arrival="57933.00" arrivalLane="399835085#1_1" arrivalPos="212.23" arrivalSpeed="6.68" duration="250.00" routeLength="1904.55" waitingTime="16.00" waitingCount="2" stopTime="0.00" timeLoss="58.32" rerouteNo="1" devices="tripinfo_carIn118538:1 routing_carIn118538:1 emissions_carIn118538:1" vType="default_016" speedFactor="0.85" vaporized="">
        <emissions CO_abs="10350.144906" CO2_abs="496834.043615" HC_abs="58.603882" PMx_abs="8.259847" NOx_abs="201.536509" fuel_abs="213.570631" electricity_abs="0"/>
    </tripinfo>
    <tripinfo id="carIn29676:1" depart="57789.00" departLane="-160314345#5_1" departPos="5.10" departSpeed="0.00" departDelay="0.00" arrival="57938.00" arrivalLane="-24634505_1" arrivalPos="48.18" arrivalSpeed="14.14" duration="149.00" routeLength="1162.34" waitingTime="30.00" waitingCount="3" stopTime="0.00" timeLoss="64.36" rerouteNo="1" devices="tripinfo_carIn29676:1 routing_carIn29676:1 emissions_carIn29676:1" vType="default_016" speedFactor="1.06" vaporized="">