<?xml version="1.0" encoding="UTF-8"?>

<!-- generated on Thu Nov  4 13:47:33 2021 by Eclipse SUMO sumo Version 1.9.0
<configuration xmlns:xsi="http://www.w3.org/2001/XMLSchema-instance" xsi:noNamespaceSchemaLocation="http://sumo.dlr.de/xsd/sumoConfiguration.xsd">

    <input>
        <net-file value="/mainfs/home/bk2g18/RESCO/environments/ingolstadt21/ingolstadt21.net.xml"/>
        <route-files value="/mainfs/home/bk2g18/RESCO/environments/ingolstadt21/ingolstadt21.rou.xml"/>
    </input>

    <output>
        <tripinfo-output value="/mainfs/home/bk2g18/RESCO/logs/MPLight-tr0-ingolstadt21-21-mplight_full-pressure/tripinfo_49.xml"/>
        <tripinfo-output.write-unfinished value="true"/>
    </output>

    <time>
        <begin value="57600"/>
        <end value="61200"/>
    </time>

    <processing>
        <time-to-teleport value="-1"/>
    </processing>

    <report>
        <xml-validation value="never"/>
        <xml-validation.routes value="never"/>
        <no-warnings value="true"/>
        <no-step-log value="true"/>
    </report>

    <emissions>
        <device.emissions.probability value="1"/>
    </emissions>

    <traci_server>
        <remote-port value="46813"/>
    </traci_server>

    <random_number>
        <random value="true"/>
    </random_number>

</configuration>
-->

<tripinfos xmlns:xsi="http://www.w3.org/2001/XMLSchema-instance" xsi:noNamespaceSchemaLocation="http://sumo.dlr.de/xsd/tripinfo_file.xsd">
    <tripinfo id="carIn60260:1" depart="57606.00" departLane="315358254#0_1" departPos="5.10" departSpeed="0.00" departDelay="0.90" arrival="57653.00" arrivalLane="399835085#1_1" arrivalPos="212.23" arrivalSpeed="8.62" duration="47.00" routeLength="430.98" waitingTime="0.00" waitingCount="0" stopTime="0.00" timeLoss="7.77" rerouteNo="1" devices="tripinfo_carIn60260:1 routing_carIn60260:1 emissions_carIn60260:1" vType="default_016" speedFactor="1.18" vaporized="">
        <emissions CO_abs="1995.295335" CO2_abs="113919.420608" HC_abs="11.720245" PMx_abs="1.841199" NOx_abs="45.718956" fuel_abs="48.969530" electricity_abs="0"/>
    </tripinfo>
    <tripinfo id="h15454c2:3" depart="57612.00" departLane="24608844_1" departPos="5.10" departSpeed="0.00" departDelay="0.50" arrival="57654.00" arrivalLane="32978638#0_1" arrivalPos="49.29" arrivalSpeed="12.52" duration="42.00" routeLength="354.79" waitingTime="0.00" waitingCount="0" stopTime="0.00" timeLoss="6.68" rerouteNo="1" devices="tripinfo_h15454c2:3 routing_h15454c2:3 emissions_h15454c2:3" vType="default_016" speedFactor="0.97" vaporized="">
        <emissions CO_abs="2069.524327" CO2_abs="113254.283760" HC_abs="12.043035" PMx_abs="1.848302" NOx_abs="45.610178" fuel_abs="48.683655" electricity_abs="0"/>
    </tripinfo>
    <tripinfo id="carIn53971:1" depart="57640.00" departLane="272042143_1" departPos="5.10" departSpeed="0.00" departDelay="0.80" arrival="57689.00" arrivalLane="24634414#1_1" arrivalPos="162.19" arrivalSpeed="9.33" duration="49.00" routeLength="493.04" waitingTime="0.00" waitingCount="0" stopTime="0.00" timeLoss="10.37" rerouteNo="1" devices="tripinfo_carIn53971:1 routing_carIn53971:1 emissions_carIn53971:1" vType="default_016" speedFactor="1.19" vaporized="">
        <emissions CO_abs="2591.753295" CO2_abs="156846.216068" HC_abs="15.455346" PMx_abs="2.858345" NOx_abs="64.756338" fuel_abs="67.421484" electricity_abs="0"/>
    </tripinfo>
    <tripinfo id="h7800c1:5" depart="57696.00" departLane="-447569998#1_1" departPos="5.10" departSpeed="0.00" departDelay="0.00" arrival="57720.00" arrivalLane="-447569998#1_1" arrivalPos="180.76" arrivalSpeed="7.74" duration="24.00" routeLength="175.66" waitingTime="0.00" waitingCount="0" stopTime="0.00" timeLoss="3.41" rerouteNo="1" devices="tripinfo_h7800c1:5 routing_h7800c1:5 emissions_h7800c1:5" vType="default_016" speedFactor="1.04" vaporized="">
        <emissions CO_abs="1182.321053" CO2_abs="53433.181075" HC_abs="6.611592" PMx_abs="0.878180" NOx_abs="21.747159" fuel_abs="22.969014" electricity_abs="0"/>
    </tripinfo>
    <tripinfo id="carIn80064:1" depart="57603.00" departLane="128361109#1_1" departPos="5.10" departSpeed="0.00" departDelay="0.40" arrival="57726.00" arrivalLane="-315358254#1_1" arrivalPos="137.16" arrivalSpeed="15.27" duration="123.00" routeLength="1587.97" waitingTime="13.00" waitingCount="1" stopTime="0.00" timeLoss="45.84" rerouteNo="1" devices="tripinfo_carIn80064:1 routing_carIn80064:1 emissions_carIn80064:1" vType="default_016" speedFactor="1.16" vaporized="">
        <emissions CO_abs="9359.397826" CO2_abs="543269.952268" HC_abs="55.634462" PMx_abs="11.054300" NOx_abs="226.754335" fuel_abs="233.527631" electricity_abs="0"/>
    </tripinfo>
    <tripinfo id="h4538c1:1" depart="57701.00" departLane="-10427692#1_1" departPos="5.10" departSpeed="0.00" departDelay="0.00" arrival="57740.00" arrivalLane="-128361102#1_1" arrivalPos="274.68" arrivalSpeed="12.94" duration="39.00" routeLength="440.74" waitingTime="0.00" waitingCount="0" stopTime="0.00" timeLoss="6.48" rerouteNo="1" devices="tripinfo_h4538c1:1 routing_h4538c1:1 emissions_h4538c1:1" vType="default_016" speedFactor="1.00" vaporized="">
        <emissions CO_abs="1537.997270" CO2_abs="105567.488268" HC_abs="9.473126" PMx_abs="1.842668" NOx_abs="42.834720" fuel_abs="45.378925" electricity_abs="0"/>
    </tripinfo>
    <tripinfo id="h317c2:1" depart="57707.00" departLane="-32978638#0_1" departPos="5.10" departSpeed="0.00" departDelay="0.10" arrival="57752.00" arrivalLane="-266565295#5_1" arrivalPos="172.76" arrivalSpeed="16.49" duration="45.00" routeLength="370.53" waitingTime="12.00" waitingCount="1" stopTime="0.00" timeLoss="22.64" rerouteNo="1" devices="tripinfo_h317c2:1 routing_h317c2:1 emissions_h317c2:1" vType="default_016" speedFactor="1.22" vaporized="">
        <emissions CO_abs="3061.296086" CO2_abs="149354.015885" HC_abs="17.482381" PMx_abs="3.002705" NOx_abs="63.278651" fuel_abs="64.201012" electricity_abs="0"/>
    </tripinfo>
    <tripinfo id="h3568c1:3" depart="57656.00" departLane="266565295#5_1" departPos="5.10" departSpeed="0.00" departDelay="0.80" arrival="57767.00" arrivalLane="-24634415_1" arrivalPos="62.03" arrivalSpeed="11.14" duration="111.00" routeLength="807.40" waitingTime="18.00" waitingCount="1" stopTime="0.00" timeLoss="37.72" rerouteNo="1" devices="tripinfo_h3568c1:3 routing_h3568c1:3 emissions_h3568c1:3" vType="default_016" speedFactor="0.88" vaporized="">
        <emissions CO_abs="6214.757889" CO2_abs="262040.152539" HC_abs="34.408340" PMx_abs="4.747708" NOx_abs="108.479145" fuel_abs="112.641482" electricity_abs="0"/>
    </tripinfo>
    <tripinfo id="carIn27009:1" depart="57673.00" departLane="-447569998#1_1" departPos="5.10" departSpeed="0.00" departDelay="0.50" arrival="57772.00" arrivalLane="-26677539_1" arrivalPos="152.75" arrivalSpeed="10.24" duration="99.00" routeLength="699.63" waitingTime="16.00" waitingCount="1" stopTime="0.00" timeLoss="31.04" rerouteNo="1" devices="tripinfo_carIn27009:1 routing_carIn27009:1 emissions_carIn27009:1" vType="default_015" speedFactor="1.24" vaporized="">
        <emissions CO_abs="5162.791875" CO2_abs="213778.446142" HC_abs="28.478385" PMx_abs="3.843178" NOx_abs="88.700135" fuel_abs="91.895623" electricity_abs="0"/>
    </tripinfo>
    <tripinfo id="h3688c1:1" depart="57625.00" departLane="201201950#1_1" departPos="5.10" departSpeed="0.00" departDelay="0.00" arrival="57775.00" arrivalLane="32978638#0_1" arrivalPos="49.29" arrivalSpeed="14.71" duration="150.00" routeLength="1089.75" waitingTime="53.00" waitingCount="2" stopTime="0.00" timeLoss="74.03" rerouteNo="1" devices="tripinfo_h3688c1:1 routing_h3688c1:1 emissions_h3688c1:1" vType="default_016" speedFactor="1.06" vaporized="">
        <emissions CO_abs="11409.072713" CO2_abs="393423.885833" HC_abs="61.168722" PMx_abs="7.773448" NOx_abs="165.581032" fuel_abs="169.119482" electricity_abs="0"/>
    </tripinfo>
    <tripinfo id="h3326c1:2" depart="57656.00" departLane="22716069#0_1" departPos="5.10" departSpeed="0.00" departDelay="0.00" arrival="57777.00" arrivalLane="24634517#13_1" arrivalPos="111.62" arrivalSpeed="12.64" duration="121.00" routeLength="1312.81" waitingTime="0.00" waitingCount="0" stopTime="0.00" timeLoss="15.16" rerouteNo="1" devices="tripinfo_h3326c1:2 routing_h3326c1:2 emissions_h3326c1:2" vType="default_016" speedFactor="0.92" vaporized="">
        <emissions CO_abs="4032.697975" CO2_abs="299583.940121" HC_abs="25.327809" PMx_abs="4.750605" NOx_abs="118.530859" fuel_abs="128.778705" electricity_abs="0"/>
    </tripinfo>
    <tripinfo id="h330c1:1" depart="57736.00" departLane="-32978638#0_1" departPos="5.10" departSpeed="0.00" departDelay="0.20" arrival="57785.00" arrivalLane="-266565295#5_1" arrivalPos="172.76" arrivalSpeed="12.85" duration="49.00" routeLength="370.53" waitingTime="11.00" waitingCount="1" stopTime="0.00" timeLoss="21.35" rerouteNo="1" devices="tripinfo_h330c1:1 routing_h330c1:1 emissions_h330c1:1" vType="default_016" speedFactor="0.99" vaporized="">
        <emissions CO_abs="2945.697249" CO2_abs="129783.617246" HC_abs="16.466678" PMx_abs="2.455337" NOx_abs="54.169905" fuel_abs="55.788984" electricity_abs="0"/>
    </tripinfo>
    <tripinfo id="carIn22761:1" depart="57616.00" departLane="-306240162#1_0" departPos="5.10" departSpeed="0.00" departDelay="2.10" arrival="57789.00" arrivalLane="399835085#1_1" arrivalPos="212.23" arrivalSpeed="8.29" duration="173.00" routeLength="1093.26" waitingTime="74.00" waitingCount="2" stopTime="0.00" timeLoss="103.90" rerouteNo="1" devices="tripinfo_carIn22761:1 routing_carIn22761:1 emissions_carIn22761:1" vType="default_016" speedFactor="1.13" vaporized="">
        <emissions CO_abs="16395.054112" CO2_abs="523152.129481" HC_abs="87.076947" PMx_abs="11.186660" NOx_abs="225.467666" fuel_abs="224.884997" electricity_abs="0"/>
    </tripinfo>
    <tripinfo id="carIn107282:1" depart="57749.00" departLane="-447569998#1_1" departPos="5.10" departSpeed="0.00" departDelay="0.00" arrival="57802.00" arrivalLane="315358242#0_1" arrivalPos="165.37" arrivalSpeed="17.58" duration="53.00" routeLength="448.50" waitingTime="10.00" waitingCount="1" stopTime="0.00" timeLoss="20.37" rerouteNo="1" devices="tripinfo_carIn107282:1 routing_carIn107282:1 emissions_carIn107282:1" vType="default_016" speedFactor="1.27" vaporized="">
        <emissions CO_abs="3487.556515" CO2_abs="150588.744835" HC_abs="19.356701" PMx_abs="2.898398" NOx_abs="62.919853" fuel_abs="64.732304" electricity_abs="0"/>
    </tripinfo>
    <tripinfo id="carIn121703:1" depart="57647.00" departLane="386687232#0_1" departPos="5.10" departSpeed="0.00" departDelay="0.30" arrival="57807.00" arrivalLane="-315358244_1" arrivalPos="33.95" arrivalSpeed="12.48" duration="160.00" routeLength="1157.39" waitingTime="59.00" waitingCount="1" stopTime="0.00" timeLoss="73.75" rerouteNo="1" devices="tripinfo_carIn121703:1 routing_carIn121703:1 emissions_carIn121703:1" vType="default_016" speedFactor="0.98" vaporized="">
        <emissions CO_abs="12026.324903" CO2_abs="396628.721393" HC_abs="64.016184" PMx_abs="7.627083" NOx_abs="165.494553" fuel_abs="170.497912" electricity_abs="0"/>
    </tripinfo>
    <tripinfo id="h11737c1:1" depart="57665.00" departLane="272042143_1" departPos="5.10" departSpeed="0.00" departDelay="1.50" arrival="57817.00" arrivalLane="-315358254#1_1" arrivalPos="137.16" arrivalSpeed="13.57" duration="152.00" routeLength="1596.88" waitingTime="22.00" waitingCount="1" stopTime="0.00" timeLoss="36.65" rerouteNo="1" devices="tripinfo_h11737c1:1 routing_h11737c1:1 emissions_h11737c1:1" vType="default_016" speedFactor="1.01" vaporized="">
        <emissions CO_abs="7188.189034" CO2_abs="397000.377312" HC_abs="41.965315" PMx_abs="6.810024" NOx_abs="159.212370" fuel_abs="170.654894" electricity_abs="0"/>
    </tripinfo>
    <tripinfo id="carIn126288:1" depart="57674.00" departLane="272042143_1" departPos="5.10" departSpeed="0.00" departDelay="0.00" arrival="57819.00" arrivalLane="-315358254#1_1" arrivalPos="137.16" arrivalSpeed="13.87" duration="145.00" routeLength="1596.88" waitingTime="12.00" waitingCount="1" stopTime="0.00" timeLoss="30.57" rerouteNo="1" devices="tripinfo_carIn126288:1 routing_carIn126288:1 emissions_carIn126288:1" vType="default_016" speedFactor="1.02" vaporized="">
        <emissions CO_abs="5604.657767" CO2_abs="366929.530064" HC_abs="34.076622" PMx_abs="6.191846" NOx_abs="146.571668" fuel_abs="157.727877" electricity_abs="0"/>
    </tripinfo>
    <tripinfo id="h7181c1:1" depart="57660.00" departLane="315358254#0_1" departPos="5.10" departSpeed="0.00" departDelay="0.10" arrival="57820.00" arrivalLane="306240162#0_0" arrivalPos="220.43" arrivalSpeed="16.77" duration="160.00" routeLength="932.35" waitingTime="87.00" waitingCount="3" stopTime="0.00" timeLoss="110.28" rerouteNo="1" devices="tripinfo_h7181c1:1 routing_h7181c1:1 emissions_h7181c1:1" vType="default_016" speedFactor="1.04" vaporized="">
        <emissions CO_abs="17576.640148" CO2_abs="535159.363593" HC_abs="92.794238" PMx_abs="11.730054" NOx_abs="232.071495" fuel_abs="230.046790" electricity_abs="0"/>
    </tripinfo>
    <tripinfo id="h5979c1:5" depart="57669.00" departLane="399835085#1_1" departPos="5.10" departSpeed="0.00" departDelay="0.00" arrival="57823.00" arrivalLane="-315358254#1_1" arrivalPos="137.16" arrivalSpeed="11.97" duration="154.00" routeLength="659.33" waitingTime="57.00" waitingCount="2" stopTime="0.00" timeLoss="74.57" rerouteNo="1" devices="tripinfo_h5979c1:5 routing_h5979c1:5 emissions_h5979c1:5" vType="default_016" speedFactor="0.92" vaporized="">
        <emissions CO_abs="12268.718830" CO2_abs="313205.919969" HC_abs="63.135792" PMx_abs="6.328687" NOx_abs="134.565493" fuel_abs="134.638846" electricity_abs="0"/>
    </tripinfo>
    <tripinfo id="randUni15030:1" depart="57735.00" departLane="386687232#0_1" departPos="5.10" departSpeed="0.00" departDelay="0.10" arrival="57824.00" arrivalLane="26677539_1" arrivalPos="151.98" arrivalSpeed="8.33" duration="89.00" routeLength="919.89" waitingTime="0.00" waitingCount="0" stopTime="0.00" timeLoss="11.64" rerouteNo="1" devices="tripinfo_randUni15030:1 routing_randUni15030:1 emissions_randUni15030:1" vType="random_016" speedFactor="1.07" vaporized="">
        <emissions CO_abs="3481.184309" CO2_abs="225217.137868" HC_abs="21.049322" PMx_abs="3.682977" NOx_abs="89.990724" fuel_abs="96.811692" electricity_abs="0"/>
    </tripinfo>
    <tripinfo id="h3154c1:1" depart="57658.00" departLane="24634507_1" departPos="5.10" departSpeed="0.00" departDelay="0.00" arrival="57825.00" arrivalLane="-266565295#5_1" arrivalPos="172.76" arrivalSpeed="15.28" duration="167.00" routeLength="1206.22" waitingTime="65.00" waitingCount="2" stopTime="0.00" timeLoss="88.48" rerouteNo="1" devices="tripinfo_h3154c1:1 routing_h3154c1:1 emissions_h3154c1:1" vType="default_016" speedFactor="1.13" vaporized="">
        <emissions CO_abs="14280.497635" CO2_abs="495664.986896" HC_abs="76.613403" PMx_abs="10.061554" NOx_abs="210.078863" fuel_abs="213.068959" electricity_abs="0"/>
    </tripinfo>
    <tripinfo id="carIn129809:1" depart="57728.00" departLane="-447569998#1_1" departPos="5.10" departSpeed="0.00" departDelay="0.00" arrival="57825.00" arrivalLane="-315358244_1" arrivalPos="33.95" arrivalSpeed="13.73" duration="97.00" routeLength="706.49" waitingTime="29.00" waitingCount="1" stopTime="0.00" timeLoss="40.43" rerouteNo="1" devices="tripinfo_carIn129809:1 routing_carIn129809:1 emissions_carIn129809:1" vType="default_015" speedFactor="1.07" vaporized="">
        <emissions CO_abs="6649.145795" CO2_abs="223197.265157" HC_abs="35.487993" PMx_abs="4.337277" NOx_abs="93.638558" fuel_abs="95.945121" electricity_abs="0"/>
    </tripinfo>
    <tripinfo id="h17600c1:1" depart="57662.00" departLane="272042143_1" departPos="5.10" departSpeed="0.00" departDelay="0.30" arrival="57830.00" arrivalLane="201238729#3_1" arrivalPos="431.02" arrivalSpeed="14.34" duration="168.00" routeLength="2100.26" waitingTime="9.00" waitingCount="1" stopTime="0.00" timeLoss="25.88" rerouteNo="1" devices="tripinfo_h17600c1:1 routing_h17600c1:1 emissions_h17600c1:1" vType="default_016" speedFactor="1.07" vaporized="">
        <emissions CO_abs="4313.577753" CO2_abs="395861.348070" HC_abs="28.659856" PMx_abs="6.130205" NOx_abs="152.717829" fuel_abs="170.163988" electricity_abs="0"/>
    </tripinfo>
    <tripinfo id="h12244c1:3" depart="57612.00" departLane="315358244_1" departPos="5.10" departSpeed="0.00" departDelay="0.40" arrival="57831.00" arrivalLane="386687235_1" arrivalPos="80.84" arrivalSpeed="12.85" duration="219.00" routeLength="1186.14" waitingTime="102.00" waitingCount="3" stopTime="0.00" timeLoss="132.13" rerouteNo="1" devices="tripinfo_h12244c1:3 routing_h12244c1:3 emissions_h12244c1:3" vType="default_016" speedFactor="1.00" vaporized="">
        <emissions CO_abs="19453.841834" CO2_abs="537597.426698" HC_abs="101.137649" PMx_abs="11.004887" NOx_abs="229.594313" fuel_abs="231.097395" electricity_abs="0"/>
    </tripinfo>
    <tripinfo id="carIn12152:1" depart="57647.00" departLane="24599188#0.94_1" departPos="5.10" departSpeed="0.00" departDelay="0.50" arrival="57832.00" arrivalLane="-315358254#1_1" arrivalPos="137.16" arrivalSpeed="13.11" duration="185.00" routeLength="2034.31" waitingTime="2.00" waitingCount="1" stopTime="0.00" timeLoss="23.44" rerouteNo="1" devices="tripinfo_carIn12152:1 routing_carIn12152:1 emissions_carIn12152:1" vType="default_016" speedFactor="0.98" vaporized="">
        <emissions CO_abs="5318.810918" CO2_abs="408562.659566" HC_abs="33.682783" PMx_abs="6.249768" NOx_abs="159.482553" fuel_abs="175.624400" electricity_abs="0"/>
    </tripinfo>
    <tripinfo id="h5216c1:1" depart="57664.00" departLane="224892339#0_1" departPos="5.10" departSpeed="0.00" departDelay="0.00" arrival="57833.00" arrivalLane="386687235_2" arrivalPos="80.84" arrivalSpeed="13.62" duration="169.00" routeLength="1823.78" waitingTime="15.00" waitingCount="3" stopTime="0.00" timeLoss="45.71" rerouteNo="1" devices="tripinfo_h5216c1:1 routing_h5216c1:1 emissions_h5216c1:1" vType="default_016" speedFactor="1.04" vaporized="">
        <emissions CO_abs="7410.819936" CO2_abs="485439.916227" HC_abs="45.161020" PMx_abs="8.646840" NOx_abs="196.829106" fuel_abs="208.669911" electricity_abs="0"/>
    </tripinfo>
    <tripinfo id="h16072c2:3" depart="57663.00" departLane="315358254#0_1" departPos="5.10" departSpeed="0.00" departDelay="2.50" arrival="57834.00" arrivalLane="386687235_1" arrivalPos="80.84" arrivalSpeed="13.11" duration="171.00" routeLength="1611.92" waitingTime="26.00" waitingCount="3" stopTime="0.00" timeLoss="52.26" rerouteNo="1" devices="tripinfo_h16072c2:3 routing_h16072c2:3 emissions_h16072c2:3" vType="default_016" speedFactor="1.00" vaporized="">
        <emissions CO_abs="6803.359107" CO2_abs="384894.317110" HC_abs="39.944979" PMx_abs="6.466187" NOx_abs="153.984468" fuel_abs="165.450995" electricity_abs="0"/>
    </tripinfo>
    <tripinfo id="h17549c1:1" depart="57680.00" departLane="-447569998#1_1" departPos="5.10" departSpeed="0.00" departDelay="0.00" arrival="57842.00" arrivalLane="-315358254#1_1" arrivalPos="137.16" arrivalSpeed="15.69" duration="162.00" routeLength="1746.60" waitingTime="19.00" waitingCount="3" stopTime="0.00" timeLoss="43.04" rerouteNo="1" devices="tripinfo_h17549c1:1 routing_h17549c1:1 emissions_h17549c1:1" vType="default_016" speedFactor="1.15" vaporized="">
        <emissions CO_abs="6789.808045" CO2_abs="428825.513051" HC_abs="40.773873" PMx_abs="7.560058" NOx_abs="172.975549" fuel_abs="184.334123" electricity_abs="0"/>
    </tripinfo>
    <tripinfo id="S5R_frequency1.2" depart="57612.00" departLane="315358250#0_1" departPos="12.10" departSpeed="0.00" departDelay="0.40" arrival="57850.00" arrivalLane="386687235_1" arrivalPos="80.84" arrivalSpeed="12.23" duration="238.00" routeLength="1115.62" waitingTime="110.00" waitingCount="6" stopTime="0.00" timeLoss="156.90" rerouteNo="1" devices="tripinfo_S5R_frequency1.2 routing_S5R_frequency1.2 emissions_S5R_frequency1.2" vType="bus" speedFactor="1.00" vaporized="">
        <emissions CO_abs="4448.468578" CO2_abs="2036602.067856" HC_abs="990.616559" PMx_abs="460.409118" NOx_abs="17827.874007" fuel_abs="868.344891" electricity_abs="0"/>
    </tripinfo>
    <tripinfo id="carIn30817:1" depart="57681.00" departLane="315358244_1" departPos="5.10" departSpeed="0.00" departDelay="0.20" arrival="57852.00" arrivalLane="447569997#1_1" arrivalPos="180.93" arrivalSpeed="8.28" duration="171.00" routeLength="718.04" waitingTime="91.00" waitingCount="2" stopTime="0.00" timeLoss="110.32" rerouteNo="1" devices="tripinfo_carIn30817:1 routing_carIn30817:1 emissions_carIn30817:1" vType="default_016" speedFactor="1.01" vaporized="">
        <emissions CO_abs="17167.200019" CO2_abs="409246.448386" HC_abs="87.760486" PMx_abs="8.857890" NOx_abs="178.578922" fuel_abs="175.924282" electricity_abs="0"/>
    </tripinfo>
    <tripinfo id="carIn8642:1" depart="57774.00" departLane="-447569998#1_1" departPos="5.10" departSpeed="0.00" departDelay="0.90" arrival="57854.00" arrivalLane="-315358244_1" arrivalPos="33.95" arrivalSpeed="12.19" duration="80.00" routeLength="706.49" waitingTime="1.00" waitingCount="1" stopTime="0.00" timeLoss="12.73" rerouteNo="1" devices="tripinfo_carIn8642:1 routing_carIn8642:1 emissions_carIn8642:1" vType="default_016" speedFactor="0.90" vaporized="">
        <emissions CO_abs="3287.158067" CO2_abs="184668.449640" HC_abs="19.228225" PMx_abs="2.931089" NOx_abs="73.687778" fuel_abs="79.381922" electricity_abs="0"/>
    </tripinfo>
    <tripinfo id="carIn12365:1" depart="57713.00" departLane="315358244_1" departPos="5.10" departSpeed="0.00" departDelay="0.50" arrival="57856.00" arrivalLane="447569997#1_1" arrivalPos="180.93" arrivalSpeed="7.79" duration="143.00" routeLength="718.04" waitingTime="56.00" waitingCount="2" stopTime="0.00" timeLoss="80.94" rerouteNo="1" devices="tripinfo_carIn12365:1 routing_carIn12365:1 emissions_carIn12365:1" vType="default_016" speedFactor="1.00" vaporized="">
        <emissions CO_abs="10696.662595" CO2_abs="305024.152065" HC_abs="55.835504" PMx_abs="6.190187" NOx_abs="130.631788" fuel_abs="131.120672" electricity_abs="0"/>
    </tripinfo>
    <tripinfo id="h9563c2:5" depart="57631.00" departLane="315358244_1" departPos="5.10" departSpeed="0.00" departDelay="0.70" arrival="57867.00" arrivalLane="386687235_1" arrivalPos="80.84" arrivalSpeed="14.27" duration="236.00" routeLength="1186.14" waitingTime="129.00" waitingCount="2" stopTime="0.00" timeLoss="154.45" rerouteNo="1" devices="tripinfo_h9563c2:5 routing_h9563c2:5 emissions_h9563c2:5" vType="default_016" speedFactor="1.06" vaporized="">
        <emissions CO_abs="23561.746392" CO2_abs="587053.864486" HC_abs="120.930365" PMx_abs="12.423642" NOx_abs="252.609399" fuel_abs="252.358692" electricity_abs="0"/>
    </tripinfo>
    <tripinfo id="carIn118538:1" depart="57683.00" departLane="-447569998#1_1" departPos="5.10" departSpeed="0.00" departDelay="1.00" arrival="57869.00" arrivalLane="399835085#1_1" arrivalPos="212.23" arrivalSpeed="8.20" duration="186.00" routeLength="1904.55" waitingTime="10.00" waitingCount="3" stopTime="0.00" timeLoss="42.20" rerouteNo="1" devices="tripinfo_carIn118538:1 routing_carIn118538:1 emissions_carIn118538:1" vType="default_016" speedFactor="1.13" vaporized="">
        <emissions CO_abs="6762.004560" CO2_abs="434388.532462" HC_abs="40.861432" PMx_abs="7.287764" NOx_abs="173.431796" fuel_abs="186.725867" electricity_abs="0"/>
    </tripinfo>
    <tripinfo id="carIn73855:1" depart="57743.00" departLane="386687232#0_1" departPos="5.10" departSpeed="0.00" departDelay="0.50" arrival="57873.00" arrivalLane="-315358244_1" arrivalPos="33.95" arrivalSpeed="13.71" duration="130.00" routeLength="1157.39" waitingTime="26.00" waitingCount="2" stopTime="0.00" timeLoss="44.67" rerouteNo="1" devices="tripinfo_carIn73855:1 routing_carIn73855:1 emissions_carIn73855:1" vType="default_016" speedFactor="0.99" vaporized="">
        <emissions CO_abs="7445.133552" CO2_abs="341220.847636" HC_abs="41.874187" PMx_abs="6.184177" NOx_abs="139.924089" fuel_abs="146.677947" electricity_abs="0"/>
    </tripinfo>
    <tripinfo id="carIn126378:1" depart="57746.00" departLane="386687232#0_1" departPos="5.10" departSpeed="0.00" departDelay="1.80" arrival="57875.00" arrivalLane="-315358244_2" arrivalPos="33.95" arrivalSpeed="11.64" duration="129.00" routeLength="1157.39" waitingTime="14.00" waitingCount="1" stopTime="0.00" timeLoss="32.46" rerouteNo="1" devices="tripinfo_carIn126378:1 routing_carIn126378:1 emissions_carIn126378:1" vType="default_016" speedFactor="0.88" vaporized="">
        <emissions CO_abs="5467.513159" CO2_abs="288977.906463" HC_abs="31.615038" PMx_abs="4.872553" NOx_abs="116.694958" fuel_abs="124.220467" electricity_abs="0"/>
    </tripinfo>
    <tripinfo id="carIn81681:1" depart="57726.00" departLane="272042143_1" departPos="5.10" departSpeed="0.00" departDelay="0.30" arrival="57880.00" arrivalLane="306240162#0_0" arrivalPos="220.43" arrivalSpeed="20.43" duration="154.00" routeLength="2246.89" waitingTime="8.00" waitingCount="1" stopTime="0.00" timeLoss="34.64" rerouteNo="1" devices="tripinfo_carIn81681:1 routing_carIn81681:1 emissions_carIn81681:1" vType="default_016" speedFactor="1.23" vaporized="">
        <emissions CO_abs="8849.262655" CO2_abs="624181.234781" HC_abs="54.905048" PMx_abs="12.086609" NOx_abs="255.378831" fuel_abs="268.307173" electricity_abs="0"/>
    </tripinfo>
    <tripinfo id="carIn81860:1" depart="57712.00" departLane="128361102#0_1" departPos="5.10" departSpeed="0.00" departDelay="0.60" arrival="57890.00" arrivalLane="-24634517#17_1" arrivalPos="6.43" arrivalSpeed="6.80" duration="178.00" routeLength="1229.64" waitingTime="47.00" waitingCount="3" stopTime="0.00" timeLoss="81.50" rerouteNo="1" devices="tripinfo_carIn81860:1 routing_carIn81860:1 emissions_carIn81860:1" vType="default_016" speedFactor="0.93" vaporized="">
        <emissions CO_abs="9849.434936" CO2_abs="376916.972929" HC_abs="53.654395" PMx_abs="7.014565" NOx_abs="156.620709" fuel_abs="162.023386" electricity_abs="0"/>
    </tripinfo>
    <tripinfo id="h6541c1:3" depart="57727.00" departLane="201950247#3_1" departPos="5.10" departSpeed="0.00" departDelay="0.00" arrival="57890.00" arrivalLane="32978638#0_1" arrivalPos="49.29" arrivalSpeed="13.58" duration="163.00" routeLength="1176.17" waitingTime="36.00" waitingCount="3" stopTime="0.00" timeLoss="63.43" rerouteNo="1" devices="tripinfo_h6541c1:3 routing_h6541c1:3 emissions_h6541c1:3" vType="default_016" speedFactor="1.02" vaporized="">
        <emissions CO_abs="10141.085765" CO2_abs="408809.468533" HC_abs="55.733204" PMx_abs="7.695810" NOx_abs="170.795093" fuel_abs="175.732213" electricity_abs="0"/>
    </tripinfo>
    <tripinfo id="carIn24709:1" depart="57753.00" departLane="266565295#5_1" departPos="5.10" departSpeed="0.00" departDelay="2.50" arrival="57890.00" arrivalLane="-24634506#2_1" arrivalPos="71.32" arrivalSpeed="13.48" duration="137.00" routeLength="1450.12" waitingTime="0.00" waitingCount="0" stopTime="0.00" timeLoss="17.95" rerouteNo="1" devices="tripinfo_carIn24709:1 routing_carIn24709:1 emissions_carIn24709:1" vType="default_016" speedFactor="1.00" vaporized="">
        <emissions CO_abs="4818.314446" CO2_abs="327700.626046" HC_abs="29.557590" PMx_abs="5.334449" NOx_abs="130.643041" fuel_abs="140.865027" electricity_abs="0"/>
    </tripinfo>
    <tripinfo id="carIn12858:1" depart="57661.00" departLane="128361109#1_1" departPos="5.10" departSpeed="0.00" departDelay="0.90" arrival="57891.00" arrivalLane="399835085#1_1" arrivalPos="212.23" arrivalSpeed="6.80" duration="230.00" routeLength="1738.12" waitingTime="64.00" waitingCount="2" stopTime="0.00" timeLoss="96.90" rerouteNo="1" devices="tripinfo_carIn12858:1 routing_carIn12858:1 emissions_carIn12858:1" vType="default_016" speedFactor="0.87" vaporized="">
        <emissions CO_abs="16918.888339" CO2_abs="618946.966510" HC_abs="91.660090" PMx_abs="12.348550" NOx_abs="260.985120" fuel_abs="266.063124" electricity_abs="0"/>
    </tripinfo>
    <tripinfo id="carIn50326:1" depart="57651.00" departLane="128361102#0_1" departPos="5.10" departSpeed="0.00" departDelay="0.30" arrival="57893.00" arrivalLane="18809673#0_1" arrivalPos="473.56" arrivalSpeed="13.21" duration="242.00" routeLength="1591.07" waitingTime="84.00" waitingCount="2" stopTime="0.00" timeLoss="109.62" rerouteNo="1" devices="tripinfo_carIn50326:1 routing_carIn50326:1 emissions_carIn50326:1" vType="default_016" speedFactor="0.98" vaporized="">
        <emissions CO_abs="18075.343691" CO2_abs="552367.578466" HC_abs="95.212342" PMx_abs="10.854865" NOx_abs="233.037675" fuel_abs="237.445706" electricity_abs="0"/>
    </tripinfo>
    <tripinfo id="carIn53503:1" depart="57765.00" departLane="-306240162#1_0" departPos="5.10" departSpeed="0.00" departDelay="4.40" arrival="57896.00" arrivalLane="24634510#6_1" arrivalPos="76.64" arrivalSpeed="12.26" duration="131.00" routeLength="1440.47" waitingTime="7.00" waitingCount="1" stopTime="0.00" timeLoss="29.22" rerouteNo="1" devices="tripinfo_carIn53503:1 routing_carIn53503:1 emissions_carIn53503:1" vType="default_016" speedFactor="0.97" vaporized="">
        <emissions CO_abs="5047.983062" CO2_abs="344779.929331" HC_abs="30.988097" PMx_abs="5.922567" NOx_abs="138.652166" fuel_abs="148.206293" electricity_abs="0"/>
    </tripinfo>
    <tripinfo id="carIn29676:1" depart="57789.00" departLane="-160314345#5_1" departPos="5.10" departSpeed="0.00" departDelay="0.00" arrival="57897.00" arrivalLane="-24634505_1" arrivalPos="48.18" arrivalSpeed="14.05" duration="108.00" routeLength="1162.34" waitingTime="1.00" waitingCount="1" stopTime="0.00" timeLoss="22.89" rerouteNo="1" devices="tripinfo_carIn29676:1 routing_carIn29676:1 emissions_carIn29676:1" vType="default_016" speedFactor="1.06" vaporized="">