<?xml version="1.0" encoding="UTF-8"?>

<!-- generated on Thu Nov  4 14:31:38 2021 by Eclipse SUMO sumo Version 1.9.0
<configuration xmlns:xsi="http://www.w3.org/2001/XMLSchema-instance" xsi:noNamespaceSchemaLocation="http://sumo.dlr.de/xsd/sumoConfiguration.xsd">

    <input>
        <net-file value="/mainfs/home/bk2g18/RESCO/environments/ingolstadt21/ingolstadt21.net.xml"/>
        <route-files value="/mainfs/home/bk2g18/RESCO/environments/ingolstadt21/ingolstadt21.rou.xml"/>
    </input>

    <output>
        <tripinfo-output value="/mainfs/home/bk2g18/RESCO/logs/MPLight-tr0-ingolstadt21-21-mplight_full-pressure/tripinfo_95.xml"/>
        <tripinfo-output.write-unfinished value="true"/>
    </output>

    <time>
        <begin value="57600"/>
        <end value="61200"/>
    </time>

    <processing>
        <time-to-teleport value="-1"/>
    </processing>

    <report>
        <xml-validation value="never"/>
        <xml-validation.routes value="never"/>
        <no-warnings value="true"/>
        <no-step-log value="true"/>
    </report>

    <emissions>
        <device.emissions.probability value="1"/>
    </emissions>

    <traci_server>
        <remote-port value="39927"/>
    </traci_server>

    <random_number>
        <random value="true"/>
    </random_number>

</configuration>
-->

<tripinfos xmlns:xsi="http://www.w3.org/2001/XMLSchema-instance" xsi:noNamespaceSchemaLocation="http://sumo.dlr.de/xsd/tripinfo_file.xsd">
    <tripinfo id="h15454c2:3" depart="57612.00" departLane="24608844_1" departPos="5.10" departSpeed="0.00" departDelay="0.50" arrival="57651.00" arrivalLane="32978638#0_1" arrivalPos="49.29" arrivalSpeed="14.04" duration="39.00" routeLength="354.79" waitingTime="0.00" waitingCount="0" stopTime="0.00" timeLoss="5.05" rerouteNo="1" devices="tripinfo_h15454c2:3 routing_h15454c2:3 emissions_h15454c2:3" vType="default_016" speedFactor="1.02" vaporized="">
        <emissions CO_abs="1942.171510" CO2_abs="114626.238237" HC_abs="11.530574" PMx_abs="2.023922" NOx_abs="47.054706" fuel_abs="49.273052" electricity_abs="0"/>
    </tripinfo>
    <tripinfo id="carIn53971:1" depart="57640.00" departLane="272042143_1" departPos="5.10" departSpeed="0.00" departDelay="0.80" arrival="57693.00" arrivalLane="24634414#1_1" arrivalPos="162.19" arrivalSpeed="7.71" duration="53.00" routeLength="493.04" waitingTime="0.00" waitingCount="0" stopTime="0.00" timeLoss="8.53" rerouteNo="1" devices="tripinfo_carIn53971:1 routing_carIn53971:1 emissions_carIn53971:1" vType="default_016" speedFactor="1.02" vaporized="">
        <emissions CO_abs="2551.037010" CO2_abs="143717.070695" HC_abs="14.992937" PMx_abs="2.607106" NOx_abs="59.570242" fuel_abs="61.777970" electricity_abs="0"/>
    </tripinfo>
    <tripinfo id="h7800c1:5" depart="57696.00" departLane="-447569998#1_1" departPos="5.10" departSpeed="0.00" departDelay="0.00" arrival="57721.00" arrivalLane="-447569998#1_1" arrivalPos="180.76" arrivalSpeed="8.48" duration="25.00" routeLength="175.66" waitingTime="0.00" waitingCount="0" stopTime="0.00" timeLoss="3.76" rerouteNo="1" devices="tripinfo_h7800c1:5 routing_h7800c1:5 emissions_h7800c1:5" vType="default_016" speedFactor="1.03" vaporized="">
        <emissions CO_abs="1249.422305" CO2_abs="53976.321054" HC_abs="6.932010" PMx_abs="0.908852" NOx_abs="22.116621" fuel_abs="23.202504" electricity_abs="0"/>
    </tripinfo>
    <tripinfo id="h3568c1:3" depart="57656.00" departLane="266565295#5_1" departPos="5.10" departSpeed="0.00" departDelay="0.80" arrival="57723.00" arrivalLane="-24634415_1" arrivalPos="62.03" arrivalSpeed="14.92" duration="67.00" routeLength="807.40" waitingTime="0.00" waitingCount="0" stopTime="0.00" timeLoss="12.85" rerouteNo="1" devices="tripinfo_h3568c1:3 routing_h3568c1:3 emissions_h3568c1:3" vType="default_016" speedFactor="1.19" vaporized="">
        <emissions CO_abs="3347.984065" CO2_abs="239354.298533" HC_abs="20.829277" PMx_abs="4.287631" NOx_abs="97.251063" fuel_abs="102.887888" electricity_abs="0"/>
    </tripinfo>
    <tripinfo id="h5979c1:5" depart="57669.00" departLane="399835085#1_1" departPos="5.10" departSpeed="0.00" departDelay="0.00" arrival="57768.00" arrivalLane="-315358254#1_1" arrivalPos="137.16" arrivalSpeed="10.57" duration="99.00" routeLength="659.33" waitingTime="0.00" waitingCount="0" stopTime="0.00" timeLoss="11.89" rerouteNo="1" devices="tripinfo_h5979c1:5 routing_h5979c1:5 emissions_h5979c1:5" vType="default_016" speedFactor="0.84" vaporized="">
        <emissions CO_abs="3808.316534" CO2_abs="163979.321942" HC_abs="21.091848" PMx_abs="2.638023" NOx_abs="66.441001" fuel_abs="70.489081" electricity_abs="0"/>
    </tripinfo>
    <tripinfo id="h4538c1:1" depart="57701.00" departLane="-10427692#1_1" departPos="5.10" departSpeed="0.00" departDelay="0.00" arrival="57768.00" arrivalLane="-128361102#1_1" arrivalPos="274.68" arrivalSpeed="13.07" duration="67.00" routeLength="440.74" waitingTime="24.00" waitingCount="1" stopTime="0.00" timeLoss="33.14" rerouteNo="1" devices="tripinfo_h4538c1:1 routing_h4538c1:1 emissions_h4538c1:1" vType="default_016" speedFactor="0.95" vaporized="">
        <emissions CO_abs="5156.627699" CO2_abs="173741.238817" HC_abs="27.545834" PMx_abs="3.355928" NOx_abs="72.877135" fuel_abs="74.685616" electricity_abs="0"/>
    </tripinfo>
    <tripinfo id="h3154c1:1" depart="57658.00" departLane="24634507_1" departPos="5.10" departSpeed="0.00" departDelay="0.00" arrival="57778.00" arrivalLane="-266565295#5_1" arrivalPos="172.76" arrivalSpeed="12.79" duration="120.00" routeLength="1206.22" waitingTime="9.00" waitingCount="1" stopTime="0.00" timeLoss="27.16" rerouteNo="1" devices="tripinfo_h3154c1:1 routing_h3154c1:1 emissions_h3154c1:1" vType="default_016" speedFactor="0.96" vaporized="">
        <emissions CO_abs="5047.643688" CO2_abs="300570.495900" HC_abs="30.031454" PMx_abs="5.248426" NOx_abs="122.250618" fuel_abs="129.202883" electricity_abs="0"/>
    </tripinfo>
    <tripinfo id="h3688c1:1" depart="57625.00" departLane="201201950#1_1" departPos="5.10" departSpeed="0.00" departDelay="0.00" arrival="57780.00" arrivalLane="32978638#0_1" arrivalPos="49.29" arrivalSpeed="13.50" duration="155.00" routeLength="1089.75" waitingTime="67.00" waitingCount="1" stopTime="0.00" timeLoss="79.98" rerouteNo="1" devices="tripinfo_h3688c1:1 routing_h3688c1:1 emissions_h3688c1:1" vType="default_016" speedFactor="1.06" vaporized="">
        <emissions CO_abs="13440.724098" CO2_abs="424709.748866" HC_abs="71.131181" PMx_abs="8.587813" NOx_abs="179.798778" fuel_abs="182.568885" electricity_abs="0"/>
    </tripinfo>
    <tripinfo id="h3326c1:2" depart="57656.00" departLane="22716069#0_1" departPos="5.10" departSpeed="0.00" departDelay="0.00" arrival="57781.00" arrivalLane="24634517#13_1" arrivalPos="111.62" arrivalSpeed="11.23" duration="125.00" routeLength="1312.81" waitingTime="0.00" waitingCount="0" stopTime="0.00" timeLoss="15.97" rerouteNo="1" devices="tripinfo_h3326c1:2 routing_h3326c1:2 emissions_h3326c1:2" vType="default_016" speedFactor="0.90" vaporized="">
        <emissions CO_abs="4359.757601" CO2_abs="298921.571049" HC_abs="26.834287" PMx_abs="4.998775" NOx_abs="120.404659" fuel_abs="128.493824" electricity_abs="0"/>
    </tripinfo>
    <tripinfo id="carIn27009:1" depart="57673.00" departLane="-447569998#1_1" departPos="5.10" departSpeed="0.00" departDelay="0.50" arrival="57784.00" arrivalLane="-26677539_1" arrivalPos="152.75" arrivalSpeed="5.89" duration="111.00" routeLength="699.63" waitingTime="0.00" waitingCount="0" stopTime="0.00" timeLoss="13.90" rerouteNo="1" devices="tripinfo_carIn27009:1 routing_carIn27009:1 emissions_carIn27009:1" vType="default_015" speedFactor="0.86" vaporized="">
        <emissions CO_abs="4671.487690" CO2_abs="185575.959241" HC_abs="25.481705" PMx_abs="2.882223" NOx_abs="74.762048" fuel_abs="79.773177" electricity_abs="0"/>
    </tripinfo>
    <tripinfo id="h317c2:1" depart="57707.00" departLane="-32978638#0_1" departPos="5.10" departSpeed="0.00" departDelay="0.10" arrival="57785.00" arrivalLane="-266565295#5_1" arrivalPos="172.76" arrivalSpeed="13.56" duration="78.00" routeLength="370.53" waitingTime="41.00" waitingCount="1" stopTime="0.00" timeLoss="50.17" rerouteNo="1" devices="tripinfo_h317c2:1 routing_h317c2:1 emissions_h317c2:1" vType="default_016" speedFactor="1.00" vaporized="">
        <emissions CO_abs="7966.685431" CO2_abs="213728.072652" HC_abs="41.281974" PMx_abs="4.526450" NOx_abs="92.408015" fuel_abs="91.875392" electricity_abs="0"/>
    </tripinfo>
    <tripinfo id="h330c1:1" depart="57736.00" departLane="-32978638#0_1" departPos="5.10" departSpeed="0.00" departDelay="0.20" arrival="57787.00" arrivalLane="-266565295#5_1" arrivalPos="172.76" arrivalSpeed="13.17" duration="51.00" routeLength="370.53" waitingTime="14.00" waitingCount="1" stopTime="0.00" timeLoss="23.90" rerouteNo="1" devices="tripinfo_h330c1:1 routing_h330c1:1 emissions_h330c1:1" vType="default_016" speedFactor="1.03" vaporized="">
        <emissions CO_abs="3652.026516" CO2_abs="145840.324814" HC_abs="20.056026" PMx_abs="2.913783" NOx_abs="61.974696" fuel_abs="62.691186" electricity_abs="0"/>
    </tripinfo>
    <tripinfo id="carIn107282:1" depart="57749.00" departLane="-447569998#1_1" departPos="5.10" departSpeed="0.00" departDelay="0.00" arrival="57800.00" arrivalLane="315358242#0_1" arrivalPos="165.37" arrivalSpeed="12.49" duration="51.00" routeLength="448.50" waitingTime="0.00" waitingCount="0" stopTime="0.00" timeLoss="5.09" rerouteNo="1" devices="tripinfo_carIn107282:1 routing_carIn107282:1 emissions_carIn107282:1" vType="default_016" speedFactor="0.91" vaporized="">
        <emissions CO_abs="2004.303504" CO2_abs="110443.091173" HC_abs="11.668690" PMx_abs="1.735828" NOx_abs="44.042232" fuel_abs="47.475322" electricity_abs="0"/>
    </tripinfo>
    <tripinfo id="h11737c1:1" depart="57665.00" departLane="272042143_1" departPos="5.10" departSpeed="0.00" departDelay="1.50" arrival="57816.00" arrivalLane="-315358254#1_1" arrivalPos="137.16" arrivalSpeed="11.12" duration="151.00" routeLength="1596.88" waitingTime="0.00" waitingCount="0" stopTime="0.00" timeLoss="13.89" rerouteNo="1" devices="tripinfo_h11737c1:1 routing_h11737c1:1 emissions_h11737c1:1" vType="default_016" speedFactor="0.85" vaporized="">
        <emissions CO_abs="4373.166319" CO2_abs="332803.759364" HC_abs="27.585054" PMx_abs="4.937238" NOx_abs="129.677111" fuel_abs="143.058935" electricity_abs="0"/>
    </tripinfo>
    <tripinfo id="carIn126288:1" depart="57674.00" departLane="272042143_1" departPos="5.10" departSpeed="0.00" departDelay="0.00" arrival="57818.00" arrivalLane="-315358254#1_1" arrivalPos="137.16" arrivalSpeed="12.98" duration="144.00" routeLength="1596.88" waitingTime="0.00" waitingCount="0" stopTime="0.00" timeLoss="24.02" rerouteNo="1" devices="tripinfo_carIn126288:1 routing_carIn126288:1 emissions_carIn126288:1" vType="default_016" speedFactor="0.97" vaporized="">
        <emissions CO_abs="5014.479339" CO2_abs="365335.350190" HC_abs="31.387893" PMx_abs="6.155269" NOx_abs="147.083260" fuel_abs="157.042016" electricity_abs="0"/>
    </tripinfo>
    <tripinfo id="randUni15030:1" depart="57735.00" departLane="386687232#0_1" departPos="5.10" departSpeed="0.00" departDelay="0.10" arrival="57821.00" arrivalLane="26677539_1" arrivalPos="151.98" arrivalSpeed="8.43" duration="86.00" routeLength="919.89" waitingTime="0.00" waitingCount="0" stopTime="0.00" timeLoss="12.33" rerouteNo="1" devices="tripinfo_randUni15030:1 routing_randUni15030:1 emissions_randUni15030:1" vType="random_016" speedFactor="1.14" vaporized="">
        <emissions CO_abs="3241.918649" CO2_abs="215525.984439" HC_abs="19.802460" PMx_abs="3.643242" NOx_abs="86.697162" fuel_abs="92.645628" electricity_abs="0"/>
    </tripinfo>
    <tripinfo id="carIn13443:1" depart="57729.00" departLane="272042143_1" departPos="5.10" departSpeed="0.00" departDelay="0.80" arrival="57872.00" arrivalLane="399835085#1_1" arrivalPos="212.23" arrivalSpeed="8.40" duration="143.00" routeLength="1757.45" waitingTime="0.00" waitingCount="0" stopTime="0.00" timeLoss="17.10" rerouteNo="1" devices="tripinfo_carIn13443:1 routing_carIn13443:1 emissions_carIn13443:1" vType="default_016" speedFactor="1.13" vaporized="">
        <emissions CO_abs="3845.110381" CO2_abs="334255.998543" HC_abs="25.271965" PMx_abs="5.248777" NOx_abs="130.141631" fuel_abs="143.682480" electricity_abs="0"/>
    </tripinfo>
    <tripinfo id="h17600c1:1" depart="57662.00" departLane="272042143_1" departPos="5.10" departSpeed="0.00" departDelay="0.30" arrival="57880.00" arrivalLane="201238729#3_1" arrivalPos="431.02" arrivalSpeed="14.47" duration="218.00" routeLength="2100.26" waitingTime="56.00" waitingCount="1" stopTime="0.00" timeLoss="73.20" rerouteNo="1" devices="tripinfo_h17600c1:1 routing_h17600c1:1 emissions_h17600c1:1" vType="default_016" speedFactor="1.05" vaporized="">
        <emissions CO_abs="12782.921818" CO2_abs="536970.172637" HC_abs="70.771928" PMx_abs="9.868000" NOx_abs="219.316245" fuel_abs="230.824071" electricity_abs="0"/>
    </tripinfo>
    <tripinfo id="carIn129809:1" depart="57729.00" departLane="-447569998#1_1" departPos="5.10" departSpeed="0.00" departDelay="1.00" arrival="57893.00" arrivalLane="-315358244_1" arrivalPos="33.95" arrivalSpeed="12.34" duration="164.00" routeLength="706.49" waitingTime="87.00" waitingCount="1" stopTime="0.00" timeLoss="98.59" rerouteNo="1" devices="tripinfo_carIn129809:1 routing_carIn129809:1 emissions_carIn129809:1" vType="default_015" speedFactor="0.92" vaporized="">
        <emissions CO_abs="16198.718062" CO2_abs="391444.643926" HC_abs="82.897551" PMx_abs="8.215396" NOx_abs="168.971670" fuel_abs="168.271977" electricity_abs="0"/>
    </tripinfo>
    <tripinfo id="carIn8642:1" depart="57774.00" departLane="-447569998#1_1" departPos="5.10" departSpeed="0.00" departDelay="0.90" arrival="57893.00" arrivalLane="-315358244_2" arrivalPos="33.95" arrivalSpeed="12.53" duration="119.00" routeLength="706.49" waitingTime="42.00" waitingCount="1" stopTime="0.00" timeLoss="56.38" rerouteNo="1" devices="tripinfo_carIn8642:1 routing_carIn8642:1 emissions_carIn8642:1" vType="default_016" speedFactor="0.97" vaporized="">
        <emissions CO_abs="8801.540146" CO2_abs="277412.780801" HC_abs="46.537042" PMx_abs="5.302576" NOx_abs="116.228361" fuel_abs="119.251133" electricity_abs="0"/>
    </tripinfo>
    <tripinfo id="carIn70533:1" depart="57812.00" departLane="-447569998#1_1" departPos="5.10" departSpeed="0.00" departDelay="0.10" arrival="57895.00" arrivalLane="-315358244_1" arrivalPos="33.95" arrivalSpeed="12.61" duration="83.00" routeLength="706.49" waitingTime="10.00" waitingCount="1" stopTime="0.00" timeLoss="21.70" rerouteNo="1" devices="tripinfo_carIn70533:1 routing_carIn70533:1 emissions_carIn70533:1" vType="default_016" speedFactor="0.99" vaporized="">
        <emissions CO_abs="3476.513481" CO2_abs="181815.609176" HC_abs="20.058264" PMx_abs="3.117978" NOx_abs="73.898794" fuel_abs="78.155460" electricity_abs="0"/>
    </tripinfo>
    <tripinfo id="carIn132499:1" depart="57740.00" departLane="272042143_1" departPos="5.10" departSpeed="0.00" departDelay="0.70" arrival="57898.00" arrivalLane="201238729#3_1" arrivalPos="431.02" arrivalSpeed="14.73" duration="158.00" routeLength="2100.26" waitingTime="0.00" waitingCount="0" stopTime="0.00" timeLoss="16.22" rerouteNo="1" devices="tripinfo_carIn132499:1 routing_carIn132499:1 emissions_carIn132499:1" vType="default_016" speedFactor="1.07" vaporized="">
        <emissions CO_abs="3885.064777" CO2_abs="365644.043715" HC_abs="26.160550" PMx_abs="5.846316" NOx_abs="142.597382" fuel_abs="157.174470" electricity_abs="0"/>
    </tripinfo>
    <tripinfo id="randUni23028:1" depart="57884.00" departLane="124812856#0_1" departPos="5.10" departSpeed="0.00" departDelay="0.10" arrival="57900.00" arrivalLane="201956810_1" arrivalPos="71.65" arrivalSpeed="12.39" duration="16.00" routeLength="134.91" waitingTime="0.00" waitingCount="0" stopTime="0.00" timeLoss="4.20" rerouteNo="1" devices="tripinfo_randUni23028:1 routing_randUni23028:1 emissions_randUni23028:1" vType="random_016" speedFactor="0.93" vaporized="">
        <emissions CO_abs="1135.383229" CO2_abs="58895.255510" HC_abs="6.554245" PMx_abs="1.089090" NOx_abs="24.596714" fuel_abs="25.316652" electricity_abs="0"/>
    </tripinfo>
    <tripinfo id="carIn13353:1" depart="57838.00" departLane="-447569998#1_1" departPos="5.10" departSpeed="0.00" departDelay="0.30" arrival="57902.00" arrivalLane="-315358244_1" arrivalPos="33.95" arrivalSpeed="13.50" duration="64.00" routeLength="706.49" waitingTime="0.00" waitingCount="0" stopTime="0.00" timeLoss="6.76" rerouteNo="1" devices="tripinfo_carIn13353:1 routing_carIn13353:1 emissions_carIn13353:1" vType="default_016" speedFactor="1.05" vaporized="">
        <emissions CO_abs="2116.001432" CO2_abs="150854.825850" HC_abs="13.084805" PMx_abs="2.397802" NOx_abs="59.435285" fuel_abs="64.846313" electricity_abs="0"/>
    </tripinfo>
    <tripinfo id="carIn63848:1" depart="57841.00" departLane="-447569998#1_1" departPos="5.10" departSpeed="0.00" departDelay="0.80" arrival="57905.00" arrivalLane="-315358244_1" arrivalPos="33.95" arrivalSpeed="13.33" duration="64.00" routeLength="706.49" waitingTime="0.00" waitingCount="0" stopTime="0.00" timeLoss="6.09" rerouteNo="1" devices="tripinfo_carIn63848:1 routing_carIn63848:1 emissions_carIn63848:1" vType="default_016" speedFactor="1.05" vaporized="">
        <emissions CO_abs="2139.446716" CO2_abs="154142.139336" HC_abs="13.338461" PMx_abs="2.544505" NOx_abs="61.436184" fuel_abs="66.259231" electricity_abs="0"/>
    </tripinfo>
    <tripinfo id="carIn14532:1" depart="57743.00" departLane="272042143_1" departPos="5.10" departSpeed="0.00" departDelay="1.90" arrival="57914.00" arrivalLane="399835085#1_1" arrivalPos="212.23" arrivalSpeed="7.37" duration="171.00" routeLength="1757.45" waitingTime="0.00" waitingCount="0" stopTime="0.00" timeLoss="21.34" rerouteNo="1" devices="tripinfo_carIn14532:1 routing_carIn14532:1 emissions_carIn14532:1" vType="default_016" speedFactor="0.95" vaporized="">
        <emissions CO_abs="5176.460166" CO2_abs="366369.330685" HC_abs="32.051089" PMx_abs="5.675474" NOx_abs="144.361419" fuel_abs="157.487359" electricity_abs="0"/>
    </tripinfo>
    <tripinfo id="carIn24709:1" depart="57753.00" departLane="266565295#5_1" departPos="5.10" departSpeed="0.00" departDelay="2.50" arrival="57927.00" arrivalLane="-24634506#2_1" arrivalPos="71.32" arrivalSpeed="12.32" duration="174.00" routeLength="1534.27" waitingTime="32.00" waitingCount="1" stopTime="0.00" timeLoss="56.20" rerouteNo="1" devices="tripinfo_carIn24709:1 routing_carIn24709:1 emissions_carIn24709:1" vType="default_016" speedFactor="0.97" vaporized="">
        <emissions CO_abs="10480.804490" CO2_abs="482560.761771" HC_abs="59.032543" PMx_abs="8.782611" NOx_abs="198.685404" fuel_abs="207.434484" electricity_abs="0"/>
    </tripinfo>
    <tripinfo id="carIn81681:1" depart="57726.00" departLane="272042143_1" departPos="5.10" departSpeed="0.00" departDelay="0.30" arrival="57935.00" arrivalLane="306240162#0_0" arrivalPos="220.43" arrivalSpeed="13.01" duration="209.00" routeLength="2246.89" waitingTime="3.00" waitingCount="1" stopTime="0.00" timeLoss="25.36" rerouteNo="1" devices="tripinfo_carIn81681:1 routing_carIn81681:1 emissions_carIn81681:1" vType="default_016" speedFactor="0.80" vaporized="">
        <emissions CO_abs="6156.620717" CO2_abs="444619.406841" HC_abs="38.334241" PMx_abs="7.102699" NOx_abs="176.056195" fuel_abs="191.123513" electricity_abs="0"/>
    </tripinfo>
    <tripinfo id="carIn101266:1" depart="57737.00" departLane="272042143_1" departPos="5.10" departSpeed="0.00" departDelay="0.50" arrival="57936.00" arrivalLane="306240162#0_0" arrivalPos="220.43" arrivalSpeed="14.94" duration="199.00" routeLength="2246.89" waitingTime="3.00" waitingCount="1" stopTime="0.00" timeLoss="55.57" rerouteNo="1" devices="tripinfo_carIn101266:1 routing_carIn101266:1 emissions_carIn101266:1" vType="default_016" speedFactor="1.03" vaporized="">
        <emissions CO_abs="7308.436041" CO2_abs="527207.691588" HC_abs="45.666934" PMx_abs="9.182886" NOx_abs="213.258616" fuel_abs="226.623697" electricity_abs="0"/>
    </tripinfo>
    <tripinfo id="h3426c1:1" depart="57864.00" departLane="-160314345#2_1" departPos="5.10" departSpeed="0.00" departDelay="0.00" arrival="57942.00" arrivalLane="386687235_1" arrivalPos="80.84" arrivalSpeed="13.11" duration="78.00" routeLength="726.87" waitingTime="0.00" waitingCount="0" stopTime="0.00" timeLoss="8.66" rerouteNo="1" devices="tripinfo_h3426c1:1 routing_h3426c1:1 emissions_h3426c1:1" vType="default_016" speedFactor="0.99" vaporized="">
        <emissions CO_abs="2746.851123" CO2_abs="164747.833516" HC_abs="16.307173" PMx_abs="2.559088" NOx_abs="65.121726" fuel_abs="70.818763" electricity_abs="0"/>
    </tripinfo>
    <tripinfo id="carIn9695:1" depart="57822.00" departLane="272042143_1" departPos="5.10" departSpeed="0.00" departDelay="0.80" arrival="57950.00" arrivalLane="-315358254#1_1" arrivalPos="137.16" arrivalSpeed="13.89" duration="128.00" routeLength="1596.88" waitingTime="0.00" waitingCount="0" stopTime="0.00" timeLoss="12.10" rerouteNo="1" devices="tripinfo_carIn9695:1 routing_carIn9695:1 emissions_carIn9695:1" vType="default_016" speedFactor="1.01" vaporized="">
        <emissions CO_abs="3563.183034" CO2_abs="318230.602791" HC_abs="23.594859" PMx_abs="5.039711" NOx_abs="124.483001" fuel_abs="136.793656" electricity_abs="0"/>
    </tripinfo>
    <tripinfo id="carIn115169:1" depart="57759.00" departLane="24599188#0.94_1" departPos="5.10" departSpeed="0.00" departDelay="0.50" arrival="57953.00" arrivalLane="-10427692#3_1" arrivalPos="28.64" arrivalSpeed="21.68" duration="194.00" routeLength="2183.23" waitingTime="0.00" waitingCount="0" stopTime="0.00" timeLoss="27.06" rerouteNo="1" devices="tripinfo_carIn115169:1 routing_carIn115169:1 emissions_carIn115169:1" vType="default_016" speedFactor="1.01" vaporized="">
        <emissions CO_abs="7281.376769" CO2_abs="522413.154887" HC_abs="45.386787" PMx_abs="8.968072" NOx_abs="210.432073" fuel_abs="224.562969" electricity_abs="0"/>
    </tripinfo>
    <tripinfo id="h4943c1:3" depart="57863.00" departLane="-399835085#0_1" departPos="5.10" departSpeed="0.00" departDelay="2.00" arrival="57960.00" arrivalLane="201238729#3_1" arrivalPos="431.02" arrivalSpeed="15.23" duration="97.00" routeLength="1490.33" waitingTime="0.00" waitingCount="0" stopTime="0.00" timeLoss="16.14" rerouteNo="1" devices="tripinfo_h4943c1:3 routing_h4943c1:3 emissions_h4943c1:3" vType="default_016" speedFactor="1.13" vaporized="">
        <emissions CO_abs="5690.394683" CO2_abs="411075.849493" HC_abs="35.711923" PMx_abs="8.131906" NOx_abs="169.275208" fuel_abs="176.702493" electricity_abs="0"/>
    </tripinfo>
    <tripinfo id="h8222c1:5" depart="57839.00" departLane="266565295#5_1" departPos="5.10" departSpeed="0.00" departDelay="0.90" arrival="57968.00" arrivalLane="-201238724_1" arrivalPos="217.34" arrivalSpeed="14.99" duration="129.00" routeLength="1538.58" waitingTime="3.00" waitingCount="2" stopTime="0.00" timeLoss="28.79" rerouteNo="1" devices="tripinfo_h8222c1:5 routing_h8222c1:5 emissions_h8222c1:5" vType="default_016" speedFactor="1.12" vaporized="">
        <emissions CO_abs="5473.877567" CO2_abs="392595.505819" HC_abs="33.998691" PMx_abs="6.955594" NOx_abs="159.026034" fuel_abs="168.759632" electricity_abs="0"/>
    </tripinfo>
    <tripinfo id="randUni11215:1" depart="57953.00" departLane="124812856#0_1" departPos="5.10" departSpeed="0.00" departDelay="0.30" arrival="57969.00" arrivalLane="201956810_1" arrivalPos="71.65" arrivalSpeed="13.77" duration="16.00" routeLength="134.91" waitingTime="0.00" waitingCount="0" stopTime="0.00" timeLoss="4.55" rerouteNo="1" devices="tripinfo_randUni11215:1 routing_randUni11215:1 emissions_randUni11215:1" vType="random_016" speedFactor="1.00" vaporized="">
        <emissions CO_abs="1358.770809" CO2_abs="71599.835312" HC_abs="7.881151" PMx_abs="1.376363" NOx_abs="30.218033" fuel_abs="30.777733" electricity_abs="0"/>
    </tripinfo>
    <tripinfo id="h7032c2:3" depart="57863.00" departLane="315358244_1" departPos="5.10" departSpeed="0.00" departDelay="0.40" arrival="57973.00" arrivalLane="26677541_1" arrivalPos="152.31" arrivalSpeed="12.05" duration="110.00" routeLength="925.70" waitingTime="0.00" waitingCount="0" stopTime="0.00" timeLoss="13.57" rerouteNo="1" devices="tripinfo_h7032c2:3 routing_h7032c2:3 emissions_h7032c2:3" vType="default_016" speedFactor="0.93" vaporized="">
        <emissions CO_abs="4193.718589" CO2_abs="224954.373694" HC_abs="24.268516" PMx_abs="3.532576" NOx_abs="89.781293" fuel_abs="96.699497" electricity_abs="0"/>
    </tripinfo>
    <tripinfo id="carIn76994:1" depart="57828.00" departLane="272042143_1" departPos="5.10" departSpeed="0.00" departDelay="2.80" arrival="57975.00" arrivalLane="399835085#1_1" arrivalPos="212.23" arrivalSpeed="8.26" duration="147.00" routeLength="1757.45" waitingTime="0.00" waitingCount="0" stopTime="0.00" timeLoss="21.45" rerouteNo="1" devices="tripinfo_carIn76994:1 routing_carIn76994:1 emissions_carIn76994:1" vType="default_016" speedFactor="1.13" vaporized="">
        <emissions CO_abs="4868.406844" CO2_abs="383016.478006" HC_abs="30.928121" PMx_abs="6.367559" NOx_abs="152.206515" fuel_abs="164.642282" electricity_abs="0"/>
    </tripinfo>
    <tripinfo id="carIn80913:1" depart="57732.00" departLane="272042143_1" departPos="5.10" departSpeed="0.00" departDelay="0.40" arrival="57978.00" arrivalLane="306240162#0_0" arrivalPos="220.43" arrivalSpeed="10.73" duration="246.00" routeLength="2246.89" waitingTime="6.00" waitingCount="1" stopTime="0.00" timeLoss="30.12" rerouteNo="1" devices="tripinfo_carIn80913:1 routing_carIn80913:1 emissions_carIn80913:1" vType="default_016" speedFactor="0.68" vaporized="">
        <emissions CO_abs="7599.942799" CO2_abs="465675.815859" HC_abs="45.286449" PMx_abs="7.025636" NOx_abs="183.366781" fuel_abs="200.176246" electricity_abs="0"/>
    </tripinfo>
    <tripinfo id="h7097c1:1" depart="57670.00" departLane="315358242#0_1" departPos="5.10" departSpeed="0.00" departDelay="0.60" arrival="57979.00" arrivalLane="306240162#0_0" arrivalPos="220.43" arrivalSpeed="12.22" duration="309.00" routeLength="2586.94" waitingTime="97.00" waitingCount="2" stopTime="0.00" timeLoss="129.25" rerouteNo="1" devices="tripinfo_h7097c1:1 routing_h7097c1:1 emissions_h7097c1:1" vType="default_016" speedFactor="0.96" vaporized="">
        <emissions CO_abs="21579.841245" CO2_abs="766411.518981" HC_abs="116.203307" PMx_abs="15.024517" NOx_abs="320.602013" fuel_abs="329.453865" electricity_abs="0"/>
    </tripinfo>
    <tripinfo id="carIn113750:1" depart="57961.00" departLane="24599188#0.94_1" departPos="5.10" departSpeed="0.00" departDelay="0.30" arrival="57984.00" arrivalLane="24599188#0.94_1" arrivalPos="186.59" arrivalSpeed="9.24" duration="23.00" routeLength="181.49" waitingTime="0.00" waitingCount="0" stopTime="0.00" timeLoss="4.02" rerouteNo="1" devices="tripinfo_carIn113750:1 routing_carIn113750:1 emissions_carIn113750:1" vType="default_016" speedFactor="1.19" vaporized="">
        <emissions CO_abs="1214.327597" CO2_abs="59960.156475" HC_abs="6.925107" PMx_abs="1.056599" NOx_abs="24.822483" fuel_abs="25.774527" electricity_abs="0"/>
    </tripinfo>
    <tripinfo id="carIn11414:1" depart="57831.00" departLane="272042143_1" departPos="5.10" departSpeed="0.00" departDelay="4.20" arrival="57989.00" arrivalLane="306240162#0_0" arrivalPos="220.43" arrivalSpeed="17.94" duration="158.00" routeLength="2246.89" waitingTime="0.00" waitingCount="0" stopTime="0.00" timeLoss="24.17" rerouteNo="1" devices="tripinfo_carIn11414:1 routing_carIn11414:1 emissions_carIn11414:1" vType="default_016" speedFactor="1.10" vaporized="">
        <emissions CO_abs="6884.210799" CO2_abs="543999.909314" HC_abs="44.100950" PMx_abs="9.984747" NOx_abs="220.187898" fuel_abs="233.840894" electricity_abs="0"/>
    </tripinfo>
    <tripinfo id="carIn95912:1" depart="57825.00" departLane="272042143_1" departPos="5.10" departSpeed="0.00" departDelay="1.40" arrival="57990.00" arrivalLane="201238729#3_1" arrivalPos="431.02" arrivalSpeed="12.81" duration="165.00" routeLength="2100.26" waitingTime="0.00" waitingCount="0" stopTime="0.00" timeLoss="12.42" rerouteNo="1" devices="tripinfo_carIn95912:1 routing_carIn95912:1 emissions_carIn95912:1" vType="default_016" speedFactor="1.00" vaporized="">
        <emissions CO_abs="3563.561389" CO2_abs="372617.773299" HC_abs="24.840304" PMx_abs="5.454660" NOx_abs="142.221024" fuel_abs="160.172600" electricity_abs="0"/>
    </tripinfo>
    <tripinfo id="carIn42952:1" depart="57837.00" departLane="272042143_1" departPos="5.10" departSpeed="0.00" departDelay="7.00" arrival="57991.00" arrivalLane="399835085#1_1" arrivalPos="212.23" arrivalSpeed="7.88" duration="154.00" routeLength="1757.45" waitingTime="0.00" waitingCount="0" stopTime="0.00" timeLoss="14.07" rerouteNo="1" devices="tripinfo_carIn42952:1 routing_carIn42952:1 emissions_carIn42952:1" vType="default_016" speedFactor="1.02" vaporized="">
        <emissions CO_abs="4613.376161" CO2_abs="354908.514040" HC_abs="29.241606" PMx_abs="5.672311" NOx_abs="140.055918" fuel_abs="152.560296" electricity_abs="0"/>
    </tripinfo>
    <tripinfo id="h13194c2:1" depart="57840.00" departLane="272042143_1" departPos="5.10" departSpeed="0.00" departDelay="8.40" arrival="57991.00" arrivalLane="306240162#0_0" arrivalPos="220.43" arrivalSpeed="20.10" duration="151.00" routeLength="2246.89" waitingTime="0.00" waitingCount="0" stopTime="0.00" timeLoss="28.31" rerouteNo="1" devices="tripinfo_h13194c2:1 routing_h13194c2:1 emissions_h13194c2:1" vType="default_016" speedFactor="1.21" vaporized="">
        <emissions CO_abs="7444.804817" CO2_abs="561764.349108" HC_abs="47.206499" PMx_abs="10.759861" NOx_abs="229.797709" fuel_abs="241.476682" electricity_abs="0"/>
    </tripinfo>