<?xml version="1.0" encoding="UTF-8"?>

<!-- generated on Thu Nov  4 14:30:34 2021 by Eclipse SUMO sumo Version 1.9.0
<configuration xmlns:xsi="http://www.w3.org/2001/XMLSchema-instance" xsi:noNamespaceSchemaLocation="http://sumo.dlr.de/xsd/sumoConfiguration.xsd">

    <input>
        <net-file value="/mainfs/home/bk2g18/RESCO/environments/ingolstadt21/ingolstadt21.net.xml"/>
        <route-files value="/mainfs/home/bk2g18/RESCO/environments/ingolstadt21/ingolstadt21.rou.xml"/>
    </input>

    <output>
        <tripinfo-output value="/mainfs/home/bk2g18/RESCO/logs/MPLight-tr0-ingolstadt21-21-mplight_full-pressure/tripinfo_94.xml"/>
        <tripinfo-output.write-unfinished value="true"/>
    </output>

    <time>
        <begin value="57600"/>
        <end value="61200"/>
    </time>

    <processing>
        <time-to-teleport value="-1"/>
    </processing>

    <report>
        <xml-validation value="never"/>
        <xml-validation.routes value="never"/>
        <no-warnings value="true"/>
        <no-step-log value="true"/>
    </report>

    <emissions>
        <device.emissions.probability value="1"/>
    </emissions>

    <traci_server>
        <remote-port value="57135"/>
    </traci_server>

    <random_number>
        <random value="true"/>
    </random_number>

</configuration>
-->

<tripinfos xmlns:xsi="http://www.w3.org/2001/XMLSchema-instance" xsi:noNamespaceSchemaLocation="http://sumo.dlr.de/xsd/tripinfo_file.xsd">
    <tripinfo id="h15454c2:3" depart="57612.00" departLane="24608844_1" departPos="5.10" departSpeed="0.00" departDelay="0.50" arrival="57652.00" arrivalLane="32978638#0_1" arrivalPos="49.29" arrivalSpeed="12.58" duration="40.00" routeLength="354.79" waitingTime="0.00" waitingCount="0" stopTime="0.00" timeLoss="5.84" rerouteNo="1" devices="tripinfo_h15454c2:3 routing_h15454c2:3 emissions_h15454c2:3" vType="default_016" speedFactor="0.99" vaporized="">
        <emissions CO_abs="2000.218301" CO2_abs="107102.734325" HC_abs="11.614910" PMx_abs="1.917606" NOx_abs="44.340666" fuel_abs="46.039107" electricity_abs="0"/>
    </tripinfo>
    <tripinfo id="carIn53971:1" depart="57640.00" departLane="272042143_1" departPos="5.10" departSpeed="0.00" departDelay="0.80" arrival="57699.00" arrivalLane="24634414#1_1" arrivalPos="162.19" arrivalSpeed="7.06" duration="59.00" routeLength="493.04" waitingTime="0.00" waitingCount="0" stopTime="0.00" timeLoss="9.13" rerouteNo="1" devices="tripinfo_carIn53971:1 routing_carIn53971:1 emissions_carIn53971:1" vType="default_016" speedFactor="0.92" vaporized="">
        <emissions CO_abs="2699.264403" CO2_abs="138627.033915" HC_abs="15.501347" PMx_abs="2.323139" NOx_abs="56.399333" fuel_abs="59.590454" electricity_abs="0"/>
    </tripinfo>
    <tripinfo id="h7800c1:5" depart="57696.00" departLane="-447569998#1_1" departPos="5.10" departSpeed="0.00" departDelay="0.00" arrival="57721.00" arrivalLane="-447569998#1_1" arrivalPos="180.76" arrivalSpeed="8.16" duration="25.00" routeLength="175.66" waitingTime="0.00" waitingCount="0" stopTime="0.00" timeLoss="3.45" rerouteNo="1" devices="tripinfo_h7800c1:5 routing_h7800c1:5 emissions_h7800c1:5" vType="default_016" speedFactor="1.01" vaporized="">
        <emissions CO_abs="1082.777921" CO2_abs="47267.340878" HC_abs="6.011839" PMx_abs="0.760114" NOx_abs="19.158417" fuel_abs="20.318594" electricity_abs="0"/>
    </tripinfo>
    <tripinfo id="carIn60260:1" depart="57606.00" departLane="315358254#0_1" departPos="5.10" departSpeed="0.00" departDelay="0.90" arrival="57737.00" arrivalLane="399835085#1_1" arrivalPos="212.23" arrivalSpeed="7.22" duration="131.00" routeLength="430.98" waitingTime="70.00" waitingCount="1" stopTime="0.00" timeLoss="80.35" rerouteNo="1" devices="tripinfo_carIn60260:1 routing_carIn60260:1 emissions_carIn60260:1" vType="default_016" speedFactor="0.92" vaporized="">
        <emissions CO_abs="13456.115128" CO2_abs="294446.990464" HC_abs="68.131802" PMx_abs="6.356742" NOx_abs="128.812137" fuel_abs="126.575941" electricity_abs="0"/>
    </tripinfo>
    <tripinfo id="carIn27009:1" depart="57673.00" departLane="-447569998#1_1" departPos="5.10" departSpeed="0.00" departDelay="0.50" arrival="57771.00" arrivalLane="-26677539_1" arrivalPos="152.75" arrivalSpeed="7.45" duration="98.00" routeLength="699.63" waitingTime="0.00" waitingCount="0" stopTime="0.00" timeLoss="10.56" rerouteNo="1" devices="tripinfo_carIn27009:1 routing_carIn27009:1 emissions_carIn27009:1" vType="default_015" speedFactor="0.96" vaporized="">
        <emissions CO_abs="3662.092493" CO2_abs="168720.736342" HC_abs="20.530328" PMx_abs="2.652519" NOx_abs="67.966979" fuel_abs="72.527127" electricity_abs="0"/>
    </tripinfo>
    <tripinfo id="h3568c1:3" depart="57656.00" departLane="266565295#5_1" departPos="5.10" departSpeed="0.00" departDelay="0.80" arrival="57777.00" arrivalLane="-24634415_1" arrivalPos="62.03" arrivalSpeed="12.87" duration="121.00" routeLength="807.40" waitingTime="35.00" waitingCount="1" stopTime="0.00" timeLoss="52.56" rerouteNo="1" devices="tripinfo_h3568c1:3 routing_h3568c1:3 emissions_h3568c1:3" vType="default_016" speedFactor="0.94" vaporized="">
        <emissions CO_abs="8605.431308" CO2_abs="297210.596677" HC_abs="46.172483" PMx_abs="5.923917" NOx_abs="126.399294" fuel_abs="127.760491" electricity_abs="0"/>
    </tripinfo>
    <tripinfo id="h3326c1:2" depart="57656.00" departLane="22716069#0_1" departPos="5.10" departSpeed="0.00" departDelay="0.00" arrival="57778.00" arrivalLane="24634517#13_1" arrivalPos="111.62" arrivalSpeed="11.98" duration="122.00" routeLength="1312.81" waitingTime="0.00" waitingCount="0" stopTime="0.00" timeLoss="14.31" rerouteNo="1" devices="tripinfo_h3326c1:2 routing_h3326c1:2 emissions_h3326c1:2" vType="default_016" speedFactor="0.91" vaporized="">
        <emissions CO_abs="3998.730304" CO2_abs="288257.700999" HC_abs="24.925192" PMx_abs="4.684569" NOx_abs="114.976134" fuel_abs="123.909933" electricity_abs="0"/>
    </tripinfo>
    <tripinfo id="h3154c1:1" depart="57658.00" departLane="24634507_1" departPos="5.10" departSpeed="0.00" departDelay="0.00" arrival="57780.00" arrivalLane="-266565295#5_1" arrivalPos="172.76" arrivalSpeed="11.42" duration="122.00" routeLength="1206.22" waitingTime="2.00" waitingCount="1" stopTime="0.00" timeLoss="18.59" rerouteNo="1" devices="tripinfo_h3154c1:1 routing_h3154c1:1 emissions_h3154c1:1" vType="default_016" speedFactor="0.87" vaporized="">
        <emissions CO_abs="4152.869532" CO2_abs="283325.254812" HC_abs="25.497171" PMx_abs="4.583341" NOx_abs="113.142967" fuel_abs="121.789875" electricity_abs="0"/>
    </tripinfo>
    <tripinfo id="h7181c1:1" depart="57660.00" departLane="315358254#0_1" departPos="5.10" departSpeed="0.00" departDelay="0.10" arrival="57783.00" arrivalLane="306240162#0_0" arrivalPos="220.43" arrivalSpeed="13.42" duration="123.00" routeLength="932.35" waitingTime="47.00" waitingCount="2" stopTime="0.00" timeLoss="64.36" rerouteNo="1" devices="tripinfo_h7181c1:1 routing_h7181c1:1 emissions_h7181c1:1" vType="default_016" speedFactor="0.88" vaporized="">
        <emissions CO_abs="9614.331253" CO2_abs="336449.887367" HC_abs="51.693090" PMx_abs="6.906633" NOx_abs="142.525713" fuel_abs="144.627862" electricity_abs="0"/>
    </tripinfo>
    <tripinfo id="h317c2:1" depart="57707.00" departLane="-32978638#0_1" departPos="5.10" departSpeed="0.00" departDelay="0.10" arrival="57783.00" arrivalLane="-266565295#5_1" arrivalPos="172.76" arrivalSpeed="15.02" duration="76.00" routeLength="370.53" waitingTime="41.00" waitingCount="1" stopTime="0.00" timeLoss="51.48" rerouteNo="1" devices="tripinfo_h317c2:1 routing_h317c2:1 emissions_h317c2:1" vType="default_016" speedFactor="1.11" vaporized="">
        <emissions CO_abs="8302.541373" CO2_abs="225261.340425" HC_abs="43.112540" PMx_abs="4.934342" NOx_abs="98.421427" fuel_abs="96.832876" electricity_abs="0"/>
    </tripinfo>
    <tripinfo id="h4538c1:1" depart="57701.00" departLane="-10427692#1_1" departPos="5.10" departSpeed="0.00" departDelay="0.00" arrival="57784.00" arrivalLane="-128361102#1_1" arrivalPos="274.68" arrivalSpeed="14.17" duration="83.00" routeLength="440.74" waitingTime="44.00" waitingCount="1" stopTime="0.00" timeLoss="53.30" rerouteNo="1" devices="tripinfo_h4538c1:1 routing_h4538c1:1 emissions_h4538c1:1" vType="default_016" speedFactor="1.09" vaporized="">
        <emissions CO_abs="8280.855437" CO2_abs="222178.976577" HC_abs="42.902282" PMx_abs="4.695910" NOx_abs="95.640070" fuel_abs="95.508236" electricity_abs="0"/>
    </tripinfo>
    <tripinfo id="h330c1:1" depart="57736.00" departLane="-32978638#0_1" departPos="5.10" departSpeed="0.00" departDelay="0.20" arrival="57788.00" arrivalLane="-266565295#5_1" arrivalPos="172.76" arrivalSpeed="12.67" duration="52.00" routeLength="370.53" waitingTime="14.00" waitingCount="1" stopTime="0.00" timeLoss="23.70" rerouteNo="1" devices="tripinfo_h330c1:1 routing_h330c1:1 emissions_h330c1:1" vType="default_016" speedFactor="1.00" vaporized="">
        <emissions CO_abs="3907.664699" CO2_abs="149357.891780" HC_abs="21.309140" PMx_abs="2.919698" NOx_abs="62.993252" fuel_abs="64.203506" electricity_abs="0"/>
    </tripinfo>
    <tripinfo id="carIn107282:1" depart="57749.00" departLane="-447569998#1_1" departPos="5.10" departSpeed="0.00" departDelay="0.00" arrival="57792.00" arrivalLane="315358242#0_1" arrivalPos="165.37" arrivalSpeed="14.34" duration="43.00" routeLength="448.50" waitingTime="0.00" waitingCount="0" stopTime="0.00" timeLoss="4.58" rerouteNo="1" devices="tripinfo_carIn107282:1 routing_carIn107282:1 emissions_carIn107282:1" vType="default_016" speedFactor="1.09" vaporized="">
        <emissions CO_abs="1679.505337" CO2_abs="106066.149266" HC_abs="10.123031" PMx_abs="1.780912" NOx_abs="42.729639" fuel_abs="45.593488" electricity_abs="0"/>
    </tripinfo>
    <tripinfo id="carIn129809:1" depart="57729.00" departLane="-447569998#1_1" departPos="5.10" departSpeed="0.00" departDelay="1.00" arrival="57802.00" arrivalLane="-315358244_1" arrivalPos="33.95" arrivalSpeed="12.85" duration="73.00" routeLength="706.49" waitingTime="0.00" waitingCount="0" stopTime="0.00" timeLoss="7.39" rerouteNo="1" devices="tripinfo_carIn129809:1 routing_carIn129809:1 emissions_carIn129809:1" vType="default_015" speedFactor="0.93" vaporized="">
        <emissions CO_abs="2188.224085" CO2_abs="139378.029072" HC_abs="13.184382" PMx_abs="2.170863" NOx_abs="55.084210" fuel_abs="59.913138" electricity_abs="0"/>
    </tripinfo>
    <tripinfo id="randUni15030:1" depart="57735.00" departLane="386687232#0_1" departPos="5.10" departSpeed="0.00" departDelay="0.10" arrival="57833.00" arrivalLane="26677539_1" arrivalPos="151.98" arrivalSpeed="7.63" duration="98.00" routeLength="919.89" waitingTime="0.00" waitingCount="0" stopTime="0.00" timeLoss="11.03" rerouteNo="1" devices="tripinfo_randUni15030:1 routing_randUni15030:1 emissions_randUni15030:1" vType="random_016" speedFactor="0.97" vaporized="">
        <emissions CO_abs="3315.673262" CO2_abs="197195.697684" HC_abs="19.673660" PMx_abs="3.231819" NOx_abs="79.279432" fuel_abs="84.766593" electricity_abs="0"/>
    </tripinfo>
    <tripinfo id="carIn8642:1" depart="57774.00" departLane="-447569998#1_1" departPos="5.10" departSpeed="0.00" departDelay="0.90" arrival="57841.00" arrivalLane="-315358244_1" arrivalPos="33.95" arrivalSpeed="13.79" duration="67.00" routeLength="706.49" waitingTime="0.00" waitingCount="0" stopTime="0.00" timeLoss="6.54" rerouteNo="1" devices="tripinfo_carIn8642:1 routing_carIn8642:1 emissions_carIn8642:1" vType="default_016" speedFactor="1.01" vaporized="">
        <emissions CO_abs="2091.157364" CO2_abs="151080.799568" HC_abs="12.989892" PMx_abs="2.248823" NOx_abs="58.619490" fuel_abs="64.943659" electricity_abs="0"/>
    </tripinfo>
    <tripinfo id="h11737c1:1" depart="57665.00" departLane="272042143_1" departPos="5.10" departSpeed="0.00" departDelay="1.50" arrival="57856.00" arrivalLane="-315358254#1_1" arrivalPos="137.16" arrivalSpeed="13.43" duration="191.00" routeLength="1596.88" waitingTime="61.00" waitingCount="1" stopTime="0.00" timeLoss="80.18" rerouteNo="1" devices="tripinfo_h11737c1:1 routing_h11737c1:1 emissions_h11737c1:1" vType="default_016" speedFactor="1.05" vaporized="">
        <emissions CO_abs="13468.156460" CO2_abs="475342.532458" HC_abs="72.472410" PMx_abs="9.304953" NOx_abs="199.156055" fuel_abs="204.333408" electricity_abs="0"/>
    </tripinfo>
    <tripinfo id="carIn126288:1" depart="57674.00" departLane="272042143_1" departPos="5.10" departSpeed="0.00" departDelay="0.00" arrival="57859.00" arrivalLane="-315358254#1_1" arrivalPos="137.16" arrivalSpeed="13.19" duration="185.00" routeLength="1596.88" waitingTime="51.00" waitingCount="1" stopTime="0.00" timeLoss="69.48" rerouteNo="1" devices="tripinfo_carIn126288:1 routing_carIn126288:1 emissions_carIn126288:1" vType="default_016" speedFactor="1.01" vaporized="">
        <emissions CO_abs="11463.842906" CO2_abs="438503.289179" HC_abs="62.415100" PMx_abs="8.077714" NOx_abs="180.091733" fuel_abs="188.497473" electricity_abs="0"/>
    </tripinfo>
    <tripinfo id="h17549c1:1" depart="57680.00" departLane="-447569998#1_1" departPos="5.10" departSpeed="0.00" departDelay="0.00" arrival="57863.00" arrivalLane="-315358254#1_1" arrivalPos="137.16" arrivalSpeed="11.92" duration="183.00" routeLength="1743.98" waitingTime="9.00" waitingCount="1" stopTime="0.00" timeLoss="28.89" rerouteNo="1" devices="tripinfo_h17549c1:1 routing_h17549c1:1 emissions_h17549c1:1" vType="default_016" speedFactor="0.89" vaporized="">
        <emissions CO_abs="6003.868167" CO2_abs="363042.686939" HC_abs="35.748876" PMx_abs="5.812791" NOx_abs="144.436345" fuel_abs="156.057812" electricity_abs="0"/>
    </tripinfo>
    <tripinfo id="h5979c1:5" depart="57669.00" departLane="399835085#1_1" departPos="5.10" departSpeed="0.00" departDelay="0.00" arrival="57865.00" arrivalLane="-315358254#1_1" arrivalPos="137.16" arrivalSpeed="12.09" duration="196.00" routeLength="659.33" waitingTime="102.00" waitingCount="2" stopTime="0.00" timeLoss="118.56" rerouteNo="1" devices="tripinfo_h5979c1:5 routing_h5979c1:5 emissions_h5979c1:5" vType="default_016" speedFactor="0.94" vaporized="">
        <emissions CO_abs="19743.778241" CO2_abs="435962.415150" HC_abs="100.042395" PMx_abs="9.302643" NOx_abs="190.108790" fuel_abs="187.410148" electricity_abs="0"/>
    </tripinfo>
    <tripinfo id="h17600c1:1" depart="57662.00" departLane="272042143_1" departPos="5.10" departSpeed="0.00" departDelay="0.30" arrival="57874.00" arrivalLane="201238729#3_1" arrivalPos="431.02" arrivalSpeed="12.71" duration="212.00" routeLength="2100.26" waitingTime="33.00" waitingCount="1" stopTime="0.00" timeLoss="50.37" rerouteNo="1" devices="tripinfo_h17600c1:1 routing_h17600c1:1 emissions_h17600c1:1" vType="default_016" speedFactor="0.94" vaporized="">
        <emissions CO_abs="8856.115175" CO2_abs="450274.343810" HC_abs="50.777335" PMx_abs="7.439607" NOx_abs="179.145187" fuel_abs="193.556289" electricity_abs="0"/>
    </tripinfo>
    <tripinfo id="randUni3548:1" depart="57726.00" departLane="-447569998#1_1" departPos="5.10" departSpeed="0.00" departDelay="0.00" arrival="57884.00" arrivalLane="-315358254#1_1" arrivalPos="137.16" arrivalSpeed="13.43" duration="158.00" routeLength="1746.60" waitingTime="0.00" waitingCount="0" stopTime="0.00" timeLoss="21.38" rerouteNo="1" devices="tripinfo_randUni3548:1 routing_randUni3548:1 emissions_randUni3548:1" vType="random_016" speedFactor="1.00" vaporized="">
        <emissions CO_abs="5066.872400" CO2_abs="369460.460740" HC_abs="31.643724" PMx_abs="5.919899" NOx_abs="145.981043" fuel_abs="158.815763" electricity_abs="0"/>
    </tripinfo>
    <tripinfo id="carIn70533:1" depart="57812.00" departLane="-447569998#1_1" departPos="5.10" departSpeed="0.00" departDelay="0.10" arrival="57894.00" arrivalLane="-315358244_1" arrivalPos="33.95" arrivalSpeed="11.04" duration="82.00" routeLength="706.49" waitingTime="0.00" waitingCount="0" stopTime="0.00" timeLoss="13.20" rerouteNo="1" devices="tripinfo_carIn70533:1 routing_carIn70533:1 emissions_carIn70533:1" vType="default_016" speedFactor="0.88" vaporized="">
        <emissions CO_abs="3150.640781" CO2_abs="170755.860992" HC_abs="18.295212" PMx_abs="2.786597" NOx_abs="68.745776" fuel_abs="73.401398" electricity_abs="0"/>
    </tripinfo>
    <tripinfo id="carIn13353:1" depart="57838.00" departLane="-447569998#1_1" departPos="5.10" departSpeed="0.00" departDelay="0.30" arrival="57899.00" arrivalLane="-315358244_1" arrivalPos="33.95" arrivalSpeed="14.01" duration="61.00" routeLength="706.49" waitingTime="0.00" waitingCount="0" stopTime="0.00" timeLoss="6.26" rerouteNo="1" devices="tripinfo_carIn13353:1 routing_carIn13353:1 emissions_carIn13353:1" vType="default_016" speedFactor="1.10" vaporized="">
        <emissions CO_abs="1958.561090" CO2_abs="147759.358979" HC_abs="12.297413" PMx_abs="2.369090" NOx_abs="58.112492" fuel_abs="63.515592" electricity_abs="0"/>
    </tripinfo>
    <tripinfo id="randUni23028:1" depart="57884.00" departLane="124812856#0_1" departPos="5.10" departSpeed="0.00" departDelay="0.10" arrival="57900.00" arrivalLane="201956810_1" arrivalPos="71.65" arrivalSpeed="11.95" duration="16.00" routeLength="134.91" waitingTime="0.00" waitingCount="0" stopTime="0.00" timeLoss="3.60" rerouteNo="1" devices="tripinfo_randUni23028:1 routing_randUni23028:1 emissions_randUni23028:1" vType="random_016" speedFactor="0.87" vaporized="">
        <emissions CO_abs="1208.410614" CO2_abs="64794.145420" HC_abs="7.025934" PMx_abs="1.193684" NOx_abs="27.022600" fuel_abs="27.852316" electricity_abs="0"/>
    </tripinfo>
    <tripinfo id="carIn81681:1" depart="57726.00" departLane="272042143_1" departPos="5.10" departSpeed="0.00" departDelay="0.30" arrival="57901.00" arrivalLane="306240162#0_0" arrivalPos="220.43" arrivalSpeed="16.33" duration="175.00" routeLength="2246.89" waitingTime="4.00" waitingCount="2" stopTime="0.00" timeLoss="32.00" rerouteNo="1" devices="tripinfo_carIn81681:1 routing_carIn81681:1 emissions_carIn81681:1" vType="default_016" speedFactor="1.04" vaporized="">
        <emissions CO_abs="6912.804914" CO2_abs="535057.485771" HC_abs="44.039048" PMx_abs="9.416226" NOx_abs="213.923839" fuel_abs="229.997712" electricity_abs="0"/>
    </tripinfo>
    <tripinfo id="carIn80913:1" depart="57732.00" departLane="272042143_1" departPos="5.10" departSpeed="0.00" departDelay="0.40" arrival="57903.00" arrivalLane="306240162#0_0" arrivalPos="220.43" arrivalSpeed="17.16" duration="171.00" routeLength="2246.89" waitingTime="0.00" waitingCount="0" stopTime="0.00" timeLoss="31.27" rerouteNo="1" devices="tripinfo_carIn80913:1 routing_carIn80913:1 emissions_carIn80913:1" vType="default_016" speedFactor="1.05" vaporized="">
        <emissions CO_abs="6851.701658" CO2_abs="511654.805980" HC_abs="43.138902" PMx_abs="9.182757" NOx_abs="206.178158" fuel_abs="219.937797" electricity_abs="0"/>
    </tripinfo>
    <tripinfo id="carIn118538:1" depart="57683.00" departLane="-447569998#1_1" departPos="5.10" departSpeed="0.00" departDelay="1.00" arrival="57907.00" arrivalLane="399835085#1_1" arrivalPos="212.23" arrivalSpeed="7.69" duration="224.00" routeLength="1907.17" waitingTime="18.00" waitingCount="2" stopTime="0.00" timeLoss="51.50" rerouteNo="1" devices="tripinfo_carIn118538:1 routing_carIn118538:1 emissions_carIn118538:1" vType="default_016" speedFactor="0.94" vaporized="">
        <emissions CO_abs="8337.045871" CO2_abs="449815.758989" HC_abs="48.408280" PMx_abs="7.520402" NOx_abs="181.600211" fuel_abs="193.358374" electricity_abs="0"/>
    </tripinfo>
    <tripinfo id="carIn13443:1" depart="57729.00" departLane="272042143_1" departPos="5.10" departSpeed="0.00" departDelay="0.80" arrival="57912.00" arrivalLane="399835085#1_1" arrivalPos="212.23" arrivalSpeed="6.80" duration="183.00" routeLength="1757.45" waitingTime="2.00" waitingCount="1" stopTime="0.00" timeLoss="23.75" rerouteNo="1" devices="tripinfo_carIn13443:1 routing_carIn13443:1 emissions_carIn13443:1" vType="default_016" speedFactor="0.89" vaporized="">
        <emissions CO_abs="5330.541324" CO2_abs="348781.506920" HC_abs="32.319531" PMx_abs="5.353410" NOx_abs="137.387736" fuel_abs="149.927457" electricity_abs="0"/>
    </tripinfo>
    <tripinfo id="carIn63848:1" depart="57841.00" departLane="-447569998#1_1" departPos="5.10" departSpeed="0.00" departDelay="0.80" arrival="57913.00" arrivalLane="-315358244_1" arrivalPos="33.95" arrivalSpeed="12.95" duration="72.00" routeLength="706.49" waitingTime="0.00" waitingCount="0" stopTime="0.00" timeLoss="6.81" rerouteNo="1" devices="tripinfo_carIn63848:1 routing_carIn63848:1 emissions_carIn63848:1" vType="default_016" speedFactor="0.93" vaporized="">
        <emissions CO_abs="2317.342957" CO2_abs="154535.649875" HC_abs="14.128013" PMx_abs="2.411182" NOx_abs="61.014213" fuel_abs="66.428714" electricity_abs="0"/>
    </tripinfo>
    <tripinfo id="carIn101266:1" depart="57737.00" departLane="272042143_1" departPos="5.10" departSpeed="0.00" departDelay="0.50" arrival="57914.00" arrivalLane="306240162#0_0" arrivalPos="220.43" arrivalSpeed="15.56" duration="177.00" routeLength="2246.89" waitingTime="0.00" waitingCount="0" stopTime="0.00" timeLoss="24.10" rerouteNo="1" devices="tripinfo_carIn101266:1 routing_carIn101266:1 emissions_carIn101266:1" vType="default_016" speedFactor="0.96" vaporized="">
        <emissions CO_abs="6230.883263" CO2_abs="491275.227271" HC_abs="39.788660" PMx_abs="8.473251" NOx_abs="196.571765" fuel_abs="211.177662" electricity_abs="0"/>
    </tripinfo>
    <tripinfo id="carIn14532:1" depart="57743.00" departLane="272042143_1" departPos="5.10" departSpeed="0.00" departDelay="1.90" arrival="57914.00" arrivalLane="399835085#1_1" arrivalPos="212.23" arrivalSpeed="7.71" duration="171.00" routeLength="1757.45" waitingTime="0.00" waitingCount="0" stopTime="0.00" timeLoss="27.20" rerouteNo="1" devices="tripinfo_carIn14532:1 routing_carIn14532:1 emissions_carIn14532:1" vType="default_016" speedFactor="0.99" vaporized="">
        <emissions CO_abs="6023.920390" CO2_abs="401871.455590" HC_abs="36.795223" PMx_abs="6.656525" NOx_abs="160.962296" fuel_abs="172.747940" electricity_abs="0"/>
    </tripinfo>
    <tripinfo id="carIn132499:1" depart="57740.00" departLane="272042143_1" departPos="5.10" departSpeed="0.00" departDelay="0.70" arrival="57918.00" arrivalLane="201238729#3_1" arrivalPos="431.02" arrivalSpeed="12.76" duration="178.00" routeLength="2100.26" waitingTime="0.00" waitingCount="0" stopTime="0.00" timeLoss="12.67" rerouteNo="1" devices="tripinfo_carIn132499:1 routing_carIn132499:1 emissions_carIn132499:1" vType="default_016" speedFactor="0.92" vaporized="">
        <emissions CO_abs="3834.688649" CO2_abs="363157.226775" HC_abs="25.844439" PMx_abs="5.194016" NOx_abs="138.834377" fuel_abs="156.106309" electricity_abs="0"/>
    </tripinfo>
    <tripinfo id="carIn24709:1" depart="57753.00" departLane="266565295#5_1" departPos="5.10" departSpeed="0.00" departDelay="2.50" arrival="57935.00" arrivalLane="-24634506#2_1" arrivalPos="71.32" arrivalSpeed="12.36" duration="182.00" routeLength="1534.27" waitingTime="39.00" waitingCount="1" stopTime="0.00" timeLoss="62.01" rerouteNo="1" devices="tripinfo_carIn24709:1 routing_carIn24709:1 emissions_carIn24709:1" vType="default_016" speedFactor="0.96" vaporized="">
        <emissions CO_abs="11206.504103" CO2_abs="475451.510590" HC_abs="62.181879" PMx_abs="8.854533" NOx_abs="197.089150" fuel_abs="204.378930" electricity_abs="0"/>
    </tripinfo>
    <tripinfo id="carIn82298:1" depart="57783.00" departLane="-447569998#1_1" departPos="5.10" departSpeed="0.00" departDelay="0.60" arrival="57936.00" arrivalLane="-315358254#1_1" arrivalPos="137.16" arrivalSpeed="13.36" duration="153.00" routeLength="1746.60" waitingTime="0.00" waitingCount="0" stopTime="0.00" timeLoss="18.59" rerouteNo="1" devices="tripinfo_carIn82298:1 routing_carIn82298:1 emissions_carIn82298:1" vType="default_016" speedFactor="1.02" vaporized="">
        <emissions CO_abs="4235.329916" CO2_abs="349055.546045" HC_abs="27.380812" PMx_abs="5.416385" NOx_abs="136.389172" fuel_abs="150.044375" electricity_abs="0"/>
    </tripinfo>
    <tripinfo id="carIn106296:1" depart="57767.00" departLane="124812856#0_1" departPos="5.10" departSpeed="0.00" departDelay="0.00" arrival="57949.00" arrivalLane="18809673#0_1" arrivalPos="473.56" arrivalSpeed="14.64" duration="182.00" routeLength="2096.90" waitingTime="16.00" waitingCount="2" stopTime="0.00" timeLoss="40.83" rerouteNo="1" devices="tripinfo_carIn106296:1 routing_carIn106296:1 emissions_carIn106296:1" vType="default_016" speedFactor="1.10" vaporized="">
        <emissions CO_abs="6139.055850" CO2_abs="476850.376002" HC_abs="39.015966" PMx_abs="8.122398" NOx_abs="189.922088" fuel_abs="204.977308" electricity_abs="0"/>
    </tripinfo>
    <tripinfo id="h3426c1:1" depart="57864.00" departLane="-160314345#2_1" departPos="5.10" departSpeed="0.00" departDelay="0.00" arrival="57950.00" arrivalLane="386687235_1" arrivalPos="80.84" arrivalSpeed="12.39" duration="86.00" routeLength="726.87" waitingTime="0.00" waitingCount="0" stopTime="0.00" timeLoss="9.34" rerouteNo="1" devices="tripinfo_h3426c1:1 routing_h3426c1:1 emissions_h3426c1:1" vType="default_016" speedFactor="0.89" vaporized="">
        <emissions CO_abs="3025.483795" CO2_abs="161332.360073" HC_abs="17.483672" PMx_abs="2.520848" NOx_abs="64.269748" fuel_abs="69.350804" electricity_abs="0"/>
    </tripinfo>
    <tripinfo id="carIn104643:1" depart="57774.00" departLane="124812856#0_1" departPos="5.10" departSpeed="0.00" departDelay="0.50" arrival="57954.00" arrivalLane="18809673#0_1" arrivalPos="473.56" arrivalSpeed="13.64" duration="180.00" routeLength="2096.90" waitingTime="1.00" waitingCount="1" stopTime="0.00" timeLoss="27.23" rerouteNo="1" devices="tripinfo_carIn104643:1 routing_carIn104643:1 emissions_carIn104643:1" vType="default_016" speedFactor="1.01" vaporized="">
        <emissions CO_abs="6003.699876" CO2_abs="450054.258343" HC_abs="37.857106" PMx_abs="7.492406" NOx_abs="179.353539" fuel_abs="193.459161" electricity_abs="0"/>
    </tripinfo>
    <tripinfo id="carIn9695:1" depart="57822.00" departLane="272042143_1" departPos="5.10" departSpeed="0.00" departDelay="0.80" arrival="57959.00" arrivalLane="-315358254#1_1" arrivalPos="137.16" arrivalSpeed="11.98" duration="137.00" routeLength="1596.88" waitingTime="0.00" waitingCount="0" stopTime="0.00" timeLoss="13.38" rerouteNo="1" devices="tripinfo_carIn9695:1 routing_carIn9695:1 emissions_carIn9695:1" vType="default_016" speedFactor="0.94" vaporized="">
        <emissions CO_abs="3812.767680" CO2_abs="315718.076097" HC_abs="24.704942" PMx_abs="4.924747" NOx_abs="123.851250" fuel_abs="135.713907" electricity_abs="0"/>
    </tripinfo>
    <tripinfo id="carIn115169:1" depart="57759.00" departLane="24599188#0.94_1" departPos="5.10" departSpeed="0.00" departDelay="0.50" arrival="57962.00" arrivalLane="-10427692#3_1" arrivalPos="28.64" arrivalSpeed="20.56" duration="203.00" routeLength="2183.23" waitingTime="0.00" waitingCount="0" stopTime="0.00" timeLoss="27.44" rerouteNo="1" devices="tripinfo_carIn115169:1 routing_carIn115169:1 emissions_carIn115169:1" vType="default_016" speedFactor="0.96" vaporized="">
        <emissions CO_abs="7632.326026" CO2_abs="527695.484480" HC_abs="47.100614" PMx_abs="8.893320" NOx_abs="212.381893" fuel_abs="226.834021" electricity_abs="0"/>
    </tripinfo>
    <tripinfo id="h7032c2:3" depart="57863.00" departLane="315358244_1" departPos="5.10" departSpeed="0.00" departDelay="0.40" arrival="57962.00" arrivalLane="26677541_1" arrivalPos="152.31" arrivalSpeed="14.45" duration="99.00" routeLength="925.70" waitingTime="0.00" waitingCount="0" stopTime="0.00" timeLoss="16.28" rerouteNo="1" devices="tripinfo_h7032c2:3 routing_h7032c2:3 emissions_h7032c2:3" vType="default_016" speedFactor="1.07" vaporized="">
        <emissions CO_abs="4706.716458" CO2_abs="270855.856135" HC_abs="27.768885" PMx_abs="4.735522" NOx_abs="110.851826" fuel_abs="116.429841" electricity_abs="0"/>
    </tripinfo>
    <tripinfo id="randUni11215:1" depart="57953.00" departLane="124812856#0_1" departPos="5.10" departSpeed="0.00" departDelay="0.30" arrival="57967.00" arrivalLane="201956810_1" arrivalPos="71.65" arrivalSpeed="15.19" duration="14.00" routeLength="134.91" waitingTime="0.00" waitingCount="0" stopTime="0.00" timeLoss="4.48" rerouteNo="1" devices="tripinfo_randUni11215:1 routing_randUni11215:1 emissions_randUni11215:1" vType="random_016" speedFactor="1.16" vaporized="">
        <emissions CO_abs="1202.107428" CO2_abs="68239.884733" HC_abs="7.090678" PMx_abs="1.301952" NOx_abs="28.641217" fuel_abs="29.333379" electricity_abs="0"/>
    </tripinfo>
    <tripinfo id="h7097c1:1" depart="57670.00" departLane="315358242#0_1" departPos="5.10" departSpeed="0.00" departDelay="0.60" arrival="57971.00" arrivalLane="306240162#0_0" arrivalPos="220.43" arrivalSpeed="16.18" duration="301.00" routeLength="2586.94" waitingTime="101.00" waitingCount="2" stopTime="0.00" timeLoss="125.28" rerouteNo="1" devices="tripinfo_h7097c1:1 routing_h7097c1:1 emissions_h7097c1:1" vType="default_016" speedFactor="0.98" vaporized="">
        <emissions CO_abs="22300.746898" CO2_abs="825298.716506" HC_abs="120.953546" PMx_abs="16.095131" NOx_abs="343.419293" fuel_abs="354.766909" electricity_abs="0"/>
    </tripinfo>
    <tripinfo id="carIn121351:1" depart="57755.00" departLane="-447569998#1_1" departPos="5.10" departSpeed="0.00" departDelay="0.30" arrival="57971.00" arrivalLane="399835085#1_1" arrivalPos="212.23" arrivalSpeed="5.75" duration="216.00" routeLength="1904.55" waitingTime="0.00" waitingCount="0" stopTime="0.00" timeLoss="18.71" rerouteNo="1" devices="tripinfo_carIn121351:1 routing_carIn121351:1 emissions_carIn121351:1" vType="default_015" speedFactor="0.82" vaporized="">