<?xml version="1.0" encoding="UTF-8"?>

<!-- generated on Thu Nov  4 14:01:21 2021 by Eclipse SUMO sumo Version 1.9.0
<configuration xmlns:xsi="http://www.w3.org/2001/XMLSchema-instance" xsi:noNamespaceSchemaLocation="http://sumo.dlr.de/xsd/sumoConfiguration.xsd">

    <input>
        <net-file value="/mainfs/home/bk2g18/RESCO/environments/ingolstadt21/ingolstadt21.net.xml"/>
        <route-files value="/mainfs/home/bk2g18/RESCO/environments/ingolstadt21/ingolstadt21.rou.xml"/>
    </input>

    <output>
        <tripinfo-output value="/mainfs/home/bk2g18/RESCO/logs/MPLight-tr0-ingolstadt21-21-mplight_full-pressure/tripinfo_66.xml"/>
        <tripinfo-output.write-unfinished value="true"/>
    </output>

    <time>
        <begin value="57600"/>
        <end value="61200"/>
    </time>

    <processing>
        <time-to-teleport value="-1"/>
    </processing>

    <report>
        <xml-validation value="never"/>
        <xml-validation.routes value="never"/>
        <no-warnings value="true"/>
        <no-step-log value="true"/>
    </report>

    <emissions>
        <device.emissions.probability value="1"/>
    </emissions>

    <traci_server>
        <remote-port value="41059"/>
    </traci_server>

    <random_number>
        <random value="true"/>
    </random_number>

</configuration>
-->

<tripinfos xmlns:xsi="http://www.w3.org/2001/XMLSchema-instance" xsi:noNamespaceSchemaLocation="http://sumo.dlr.de/xsd/tripinfo_file.xsd">
    <tripinfo id="h15454c2:3" depart="57612.00" departLane="24608844_1" departPos="5.10" departSpeed="0.00" departDelay="0.50" arrival="57648.00" arrivalLane="32978638#0_1" arrivalPos="49.29" arrivalSpeed="15.34" duration="36.00" routeLength="354.79" waitingTime="0.00" waitingCount="0" stopTime="0.00" timeLoss="5.16" rerouteNo="1" devices="tripinfo_h15454c2:3 routing_h15454c2:3 emissions_h15454c2:3" vType="default_016" speedFactor="1.11" vaporized="">
        <emissions CO_abs="1907.836282" CO2_abs="109529.931984" HC_abs="11.270317" PMx_abs="2.020906" NOx_abs="45.500735" fuel_abs="47.082276" electricity_abs="0"/>
    </tripinfo>
    <tripinfo id="carIn60260:1" depart="57606.00" departLane="315358254#0_1" departPos="5.10" departSpeed="0.00" departDelay="0.90" arrival="57671.00" arrivalLane="399835085#1_1" arrivalPos="212.23" arrivalSpeed="8.45" duration="65.00" routeLength="430.98" waitingTime="9.00" waitingCount="1" stopTime="0.00" timeLoss="21.29" rerouteNo="1" devices="tripinfo_carIn60260:1 routing_carIn60260:1 emissions_carIn60260:1" vType="default_016" speedFactor="1.05" vaporized="">
        <emissions CO_abs="3203.704949" CO2_abs="131592.152124" HC_abs="17.652438" PMx_abs="2.402092" NOx_abs="54.896848" fuel_abs="56.566667" electricity_abs="0"/>
    </tripinfo>
    <tripinfo id="carIn53971:1" depart="57640.00" departLane="272042143_1" departPos="5.10" departSpeed="0.00" departDelay="0.80" arrival="57695.00" arrivalLane="24634414#1_1" arrivalPos="162.19" arrivalSpeed="7.43" duration="55.00" routeLength="493.04" waitingTime="0.00" waitingCount="0" stopTime="0.00" timeLoss="9.49" rerouteNo="1" devices="tripinfo_carIn53971:1 routing_carIn53971:1 emissions_carIn53971:1" vType="default_016" speedFactor="1.01" vaporized="">
        <emissions CO_abs="2576.311352" CO2_abs="141964.514322" HC_abs="15.051263" PMx_abs="2.505448" NOx_abs="58.417435" fuel_abs="61.024772" electricity_abs="0"/>
    </tripinfo>
    <tripinfo id="h7800c1:5" depart="57696.00" departLane="-447569998#1_1" departPos="5.10" departSpeed="0.00" departDelay="0.00" arrival="57719.00" arrivalLane="-447569998#1_2" arrivalPos="180.76" arrivalSpeed="8.59" duration="23.00" routeLength="175.66" waitingTime="0.00" waitingCount="0" stopTime="0.00" timeLoss="2.99" rerouteNo="1" devices="tripinfo_h7800c1:5 routing_h7800c1:5 emissions_h7800c1:5" vType="default_016" speedFactor="1.09" vaporized="">
        <emissions CO_abs="1057.112237" CO2_abs="50515.390893" HC_abs="5.974743" PMx_abs="0.819905" NOx_abs="20.461397" fuel_abs="21.714728" electricity_abs="0"/>
    </tripinfo>
    <tripinfo id="h4538c1:1" depart="57701.00" departLane="-10427692#1_1" departPos="5.10" departSpeed="0.00" departDelay="0.00" arrival="57734.00" arrivalLane="-128361102#1_1" arrivalPos="274.68" arrivalSpeed="15.93" duration="33.00" routeLength="440.74" waitingTime="0.00" waitingCount="0" stopTime="0.00" timeLoss="7.04" rerouteNo="1" devices="tripinfo_h4538c1:1 routing_h4538c1:1 emissions_h4538c1:1" vType="default_016" speedFactor="1.22" vaporized="">
        <emissions CO_abs="1568.073239" CO2_abs="109381.261696" HC_abs="9.699487" PMx_abs="1.985048" NOx_abs="44.348474" fuel_abs="47.018215" electricity_abs="0"/>
    </tripinfo>
    <tripinfo id="h3688c1:1" depart="57625.00" departLane="201201950#1_1" departPos="5.10" departSpeed="0.00" departDelay="0.00" arrival="57736.00" arrivalLane="32978638#0_1" arrivalPos="49.29" arrivalSpeed="10.76" duration="111.00" routeLength="1089.75" waitingTime="3.00" waitingCount="1" stopTime="0.00" timeLoss="18.32" rerouteNo="1" devices="tripinfo_h3688c1:1 routing_h3688c1:1 emissions_h3688c1:1" vType="default_016" speedFactor="0.87" vaporized="">
        <emissions CO_abs="3812.964267" CO2_abs="245710.349286" HC_abs="23.072280" PMx_abs="4.005153" NOx_abs="98.449705" fuel_abs="105.620895" electricity_abs="0"/>
    </tripinfo>
    <tripinfo id="h5979c1:5" depart="57669.00" departLane="399835085#1_1" departPos="5.10" departSpeed="0.00" departDelay="0.00" arrival="57753.00" arrivalLane="-315358254#1_1" arrivalPos="137.16" arrivalSpeed="13.10" duration="84.00" routeLength="659.33" waitingTime="0.00" waitingCount="0" stopTime="0.00" timeLoss="9.58" rerouteNo="1" devices="tripinfo_h5979c1:5 routing_h5979c1:5 emissions_h5979c1:5" vType="default_016" speedFactor="0.98" vaporized="">
        <emissions CO_abs="3230.353789" CO2_abs="162287.657814" HC_abs="18.430457" PMx_abs="2.551110" NOx_abs="65.098948" fuel_abs="69.761552" electricity_abs="0"/>
    </tripinfo>
    <tripinfo id="h3568c1:3" depart="57656.00" departLane="266565295#5_1" departPos="5.10" departSpeed="0.00" departDelay="0.80" arrival="57757.00" arrivalLane="-24634415_1" arrivalPos="62.03" arrivalSpeed="13.09" duration="101.00" routeLength="807.40" waitingTime="16.00" waitingCount="1" stopTime="0.00" timeLoss="32.84" rerouteNo="1" devices="tripinfo_h3568c1:3 routing_h3568c1:3 emissions_h3568c1:3" vType="default_016" speedFactor="0.95" vaporized="">
        <emissions CO_abs="5787.840918" CO2_abs="266098.485829" HC_abs="32.600178" PMx_abs="4.930947" NOx_abs="110.602552" fuel_abs="114.385423" electricity_abs="0"/>
    </tripinfo>
    <tripinfo id="carIn121703:1" depart="57647.00" departLane="386687232#0_1" departPos="5.10" departSpeed="0.00" departDelay="0.30" arrival="57758.00" arrivalLane="-315358244_1" arrivalPos="33.95" arrivalSpeed="12.30" duration="111.00" routeLength="1157.39" waitingTime="9.00" waitingCount="1" stopTime="0.00" timeLoss="22.91" rerouteNo="1" devices="tripinfo_carIn121703:1 routing_carIn121703:1 emissions_carIn121703:1" vType="default_016" speedFactor="0.96" vaporized="">
        <emissions CO_abs="3752.127296" CO2_abs="249541.003905" HC_abs="22.911731" PMx_abs="4.131285" NOx_abs="99.635878" fuel_abs="107.267417" electricity_abs="0"/>
    </tripinfo>
    <tripinfo id="h3326c1:2" depart="57656.00" departLane="22716069#0_1" departPos="5.10" departSpeed="0.00" departDelay="0.00" arrival="57764.00" arrivalLane="24634517#13_1" arrivalPos="111.62" arrivalSpeed="13.57" duration="108.00" routeLength="1312.81" waitingTime="0.00" waitingCount="0" stopTime="0.00" timeLoss="14.59" rerouteNo="1" devices="tripinfo_h3326c1:2 routing_h3326c1:2 emissions_h3326c1:2" vType="default_016" speedFactor="1.04" vaporized="">
        <emissions CO_abs="4266.820742" CO2_abs="319000.921420" HC_abs="26.943910" PMx_abs="5.563124" NOx_abs="128.972464" fuel_abs="137.124516" electricity_abs="0"/>
    </tripinfo>
    <tripinfo id="carIn27009:1" depart="57673.00" departLane="-447569998#1_1" departPos="5.10" departSpeed="0.00" departDelay="0.50" arrival="57783.00" arrivalLane="-26677539_1" arrivalPos="152.75" arrivalSpeed="6.09" duration="110.00" routeLength="699.63" waitingTime="0.00" waitingCount="0" stopTime="0.00" timeLoss="15.05" rerouteNo="1" devices="tripinfo_carIn27009:1 routing_carIn27009:1 emissions_carIn27009:1" vType="default_015" speedFactor="0.89" vaporized="">
        <emissions CO_abs="4256.622963" CO2_abs="173558.437154" HC_abs="23.353454" PMx_abs="2.847714" NOx_abs="70.858488" fuel_abs="74.606904" electricity_abs="0"/>
    </tripinfo>
    <tripinfo id="carIn107282:1" depart="57749.00" departLane="-447569998#1_1" departPos="5.10" departSpeed="0.00" departDelay="0.00" arrival="57794.00" arrivalLane="315358242#0_1" arrivalPos="165.37" arrivalSpeed="13.55" duration="45.00" routeLength="448.50" waitingTime="0.00" waitingCount="0" stopTime="0.00" timeLoss="5.32" rerouteNo="1" devices="tripinfo_carIn107282:1 routing_carIn107282:1 emissions_carIn107282:1" vType="default_016" speedFactor="1.05" vaporized="">
        <emissions CO_abs="1843.791686" CO2_abs="114063.392975" HC_abs="11.036796" PMx_abs="1.811010" NOx_abs="45.258528" fuel_abs="49.031368" electricity_abs="0"/>
    </tripinfo>
    <tripinfo id="carIn129809:1" depart="57729.00" departLane="-447569998#1_1" departPos="5.10" departSpeed="0.00" departDelay="1.00" arrival="57798.00" arrivalLane="-315358244_1" arrivalPos="33.95" arrivalSpeed="12.80" duration="69.00" routeLength="706.49" waitingTime="0.00" waitingCount="0" stopTime="0.00" timeLoss="6.51" rerouteNo="1" devices="tripinfo_carIn129809:1 routing_carIn129809:1 emissions_carIn129809:1" vType="default_015" speedFactor="0.96" vaporized="">
        <emissions CO_abs="2248.588782" CO2_abs="146697.847884" HC_abs="13.641623" PMx_abs="2.339936" NOx_abs="58.269733" fuel_abs="63.059517" electricity_abs="0"/>
    </tripinfo>
    <tripinfo id="h11737c1:1" depart="57665.00" departLane="272042143_1" departPos="5.10" departSpeed="0.00" departDelay="1.50" arrival="57809.00" arrivalLane="-315358254#1_1" arrivalPos="137.16" arrivalSpeed="11.20" duration="144.00" routeLength="1596.88" waitingTime="0.00" waitingCount="0" stopTime="0.00" timeLoss="11.54" rerouteNo="1" devices="tripinfo_h11737c1:1 routing_h11737c1:1 emissions_h11737c1:1" vType="default_016" speedFactor="0.88" vaporized="">
        <emissions CO_abs="3742.594566" CO2_abs="299811.037505" HC_abs="23.978964" PMx_abs="4.527080" NOx_abs="117.039718" fuel_abs="128.876433" electricity_abs="0"/>
    </tripinfo>
    <tripinfo id="h7181c1:1" depart="57660.00" departLane="315358254#0_1" departPos="5.10" departSpeed="0.00" departDelay="0.10" arrival="57811.00" arrivalLane="306240162#0_0" arrivalPos="220.43" arrivalSpeed="15.30" duration="151.00" routeLength="932.35" waitingTime="80.00" waitingCount="2" stopTime="0.00" timeLoss="97.79" rerouteNo="1" devices="tripinfo_h7181c1:1 routing_h7181c1:1 emissions_h7181c1:1" vType="default_016" speedFactor="0.96" vaporized="">
        <emissions CO_abs="15284.610670" CO2_abs="443065.334766" HC_abs="79.991181" PMx_abs="9.465564" NOx_abs="190.167708" fuel_abs="190.459724" electricity_abs="0"/>
    </tripinfo>
    <tripinfo id="carIn126288:1" depart="57674.00" departLane="272042143_1" departPos="5.10" departSpeed="0.00" departDelay="0.00" arrival="57824.00" arrivalLane="-315358254#1_1" arrivalPos="137.16" arrivalSpeed="11.14" duration="150.00" routeLength="1596.88" waitingTime="0.00" waitingCount="0" stopTime="0.00" timeLoss="13.53" rerouteNo="1" devices="tripinfo_carIn126288:1 routing_carIn126288:1 emissions_carIn126288:1" vType="default_016" speedFactor="0.85" vaporized="">
        <emissions CO_abs="4027.629141" CO2_abs="305085.214558" HC_abs="25.392807" PMx_abs="4.634436" NOx_abs="119.591367" fuel_abs="131.143697" electricity_abs="0"/>
    </tripinfo>
    <tripinfo id="randUni15030:1" depart="57735.00" departLane="386687232#0_1" departPos="5.10" departSpeed="0.00" departDelay="0.10" arrival="57835.00" arrivalLane="26677539_1" arrivalPos="151.98" arrivalSpeed="7.27" duration="100.00" routeLength="919.89" waitingTime="0.00" waitingCount="0" stopTime="0.00" timeLoss="11.20" rerouteNo="1" devices="tripinfo_randUni15030:1 routing_randUni15030:1 emissions_randUni15030:1" vType="random_016" speedFactor="0.94" vaporized="">
        <emissions CO_abs="3459.398591" CO2_abs="204531.833750" HC_abs="20.463109" PMx_abs="3.169684" NOx_abs="81.012335" fuel_abs="87.920407" electricity_abs="0"/>
    </tripinfo>
    <tripinfo id="h3864c1:3" depart="57678.00" departLane="24693977#1_1" departPos="5.10" departSpeed="0.00" departDelay="0.00" arrival="57840.00" arrivalLane="201956820_1" arrivalPos="48.33" arrivalSpeed="15.28" duration="162.00" routeLength="1574.85" waitingTime="14.00" waitingCount="2" stopTime="0.00" timeLoss="47.19" rerouteNo="1" devices="tripinfo_h3864c1:3 routing_h3864c1:3 emissions_h3864c1:3" vType="default_016" speedFactor="1.13" vaporized="">
        <emissions CO_abs="8436.387815" CO2_abs="479358.007972" HC_abs="49.598838" PMx_abs="8.980332" NOx_abs="198.728837" fuel_abs="206.055660" electricity_abs="0"/>
    </tripinfo>
    <tripinfo id="h17549c1:1" depart="57680.00" departLane="-447569998#1_1" departPos="5.10" departSpeed="0.00" departDelay="0.00" arrival="57848.00" arrivalLane="-315358254#1_1" arrivalPos="137.16" arrivalSpeed="12.45" duration="168.00" routeLength="1746.60" waitingTime="2.00" waitingCount="1" stopTime="0.00" timeLoss="21.41" rerouteNo="1" devices="tripinfo_h17549c1:1 routing_h17549c1:1 emissions_h17549c1:1" vType="default_016" speedFactor="0.93" vaporized="">
        <emissions CO_abs="5215.762500" CO2_abs="370536.987195" HC_abs="32.358230" PMx_abs="5.887984" NOx_abs="146.789572" fuel_abs="159.278641" electricity_abs="0"/>
    </tripinfo>
    <tripinfo id="carIn8642:1" depart="57774.00" departLane="-447569998#1_1" departPos="5.10" departSpeed="0.00" departDelay="0.90" arrival="57849.00" arrivalLane="-315358244_1" arrivalPos="33.95" arrivalSpeed="11.72" duration="75.00" routeLength="706.49" waitingTime="0.00" waitingCount="0" stopTime="0.00" timeLoss="7.19" rerouteNo="1" devices="tripinfo_carIn8642:1 routing_carIn8642:1 emissions_carIn8642:1" vType="default_016" speedFactor="0.89" vaporized="">
        <emissions CO_abs="2615.447217" CO2_abs="162606.634564" HC_abs="15.644741" PMx_abs="2.438042" NOx_abs="63.754145" fuel_abs="69.898391" electricity_abs="0"/>
    </tripinfo>
    <tripinfo id="carIn12365:1" depart="57713.00" departLane="315358244_1" departPos="5.10" departSpeed="0.00" departDelay="0.50" arrival="57860.00" arrivalLane="447569997#1_2" arrivalPos="180.93" arrivalSpeed="8.61" duration="147.00" routeLength="718.04" waitingTime="75.00" waitingCount="2" stopTime="0.00" timeLoss="93.51" rerouteNo="1" devices="tripinfo_carIn12365:1 routing_carIn12365:1 emissions_carIn12365:1" vType="default_016" speedFactor="1.16" vaporized="">
        <emissions CO_abs="14212.339413" CO2_abs="367307.354630" HC_abs="73.286256" PMx_abs="7.871078" NOx_abs="159.227522" fuel_abs="157.894911" electricity_abs="0"/>
    </tripinfo>
    <tripinfo id="carIn30817:1" depart="57681.00" departLane="315358244_1" departPos="5.10" departSpeed="0.00" departDelay="0.20" arrival="57863.00" arrivalLane="447569997#1_1" arrivalPos="180.93" arrivalSpeed="7.11" duration="182.00" routeLength="718.04" waitingTime="97.00" waitingCount="1" stopTime="0.00" timeLoss="116.74" rerouteNo="1" devices="tripinfo_carIn30817:1 routing_carIn30817:1 emissions_carIn30817:1" vType="default_016" speedFactor="0.95" vaporized="">
        <emissions CO_abs="18910.026071" CO2_abs="429709.585425" HC_abs="96.160969" PMx_abs="9.350571" NOx_abs="187.981279" fuel_abs="184.721512" electricity_abs="0"/>
    </tripinfo>
    <tripinfo id="h5216c1:1" depart="57664.00" departLane="224892339#0_1" departPos="5.10" departSpeed="0.00" departDelay="0.00" arrival="57868.00" arrivalLane="386687235_2" arrivalPos="80.84" arrivalSpeed="13.54" duration="204.00" routeLength="1823.78" waitingTime="54.00" waitingCount="2" stopTime="0.00" timeLoss="79.29" rerouteNo="1" devices="tripinfo_h5216c1:1 routing_h5216c1:1 emissions_h5216c1:1" vType="default_016" speedFactor="1.03" vaporized="">
        <emissions CO_abs="12480.224763" CO2_abs="534636.559686" HC_abs="69.313469" PMx_abs="10.093814" NOx_abs="220.893103" fuel_abs="229.820217" electricity_abs="0"/>
    </tripinfo>
    <tripinfo id="randUni3548:1" depart="57726.00" departLane="-447569998#1_1" departPos="5.10" departSpeed="0.00" departDelay="0.00" arrival="57879.00" arrivalLane="-315358254#1_1" arrivalPos="137.16" arrivalSpeed="12.62" duration="153.00" routeLength="1743.98" waitingTime="0.00" waitingCount="0" stopTime="0.00" timeLoss="15.64" rerouteNo="1" devices="tripinfo_randUni3548:1 routing_randUni3548:1 emissions_randUni3548:1" vType="random_016" speedFactor="1.00" vaporized="">
        <emissions CO_abs="4809.056807" CO2_abs="376109.168032" HC_abs="30.666729" PMx_abs="6.021368" NOx_abs="148.459952" fuel_abs="161.673495" electricity_abs="0"/>
    </tripinfo>
    <tripinfo id="h9953c2:3" depart="57682.00" departLane="-54169231#2_1" departPos="5.10" departSpeed="0.00" departDelay="0.00" arrival="57884.00" arrivalLane="386687235_1" arrivalPos="80.84" arrivalSpeed="12.58" duration="202.00" routeLength="1535.60" waitingTime="41.00" waitingCount="3" stopTime="0.00" timeLoss="70.96" rerouteNo="1" devices="tripinfo_h9953c2:3 routing_h9953c2:3 emissions_h9953c2:3" vType="default_016" speedFactor="0.96" vaporized="">
        <emissions CO_abs="11791.746577" CO2_abs="469898.057431" HC_abs="64.721805" PMx_abs="8.956977" NOx_abs="196.945584" fuel_abs="201.991919" electricity_abs="0"/>
    </tripinfo>
    <tripinfo id="carIn48184:1" depart="57613.00" departLane="-306240162#1_0" departPos="5.10" departSpeed="0.00" departDelay="0.70" arrival="57886.00" arrivalLane="386687235_1" arrivalPos="80.84" arrivalSpeed="13.51" duration="273.00" routeLength="2257.41" waitingTime="80.00" waitingCount="4" stopTime="0.00" timeLoss="124.00" rerouteNo="1" devices="tripinfo_carIn48184:1 routing_carIn48184:1 emissions_carIn48184:1" vType="default_016" speedFactor="1.00" vaporized="">
        <emissions CO_abs="19318.559292" CO2_abs="754034.113111" HC_abs="105.760181" PMx_abs="15.031086" NOx_abs="317.376312" fuel_abs="324.131200" electricity_abs="0"/>
    </tripinfo>
    <tripinfo id="carIn13443:1" depart="57729.00" departLane="272042143_1" departPos="5.10" departSpeed="0.00" departDelay="0.80" arrival="57888.00" arrivalLane="399835085#1_1" arrivalPos="212.23" arrivalSpeed="7.54" duration="159.00" routeLength="1757.45" waitingTime="0.00" waitingCount="0" stopTime="0.00" timeLoss="16.27" rerouteNo="1" devices="tripinfo_carIn13443:1 routing_carIn13443:1 emissions_carIn13443:1" vType="default_016" speedFactor="0.99" vaporized="">
        <emissions CO_abs="4488.219721" CO2_abs="339538.034045" HC_abs="28.336653" PMx_abs="5.456804" NOx_abs="134.476458" fuel_abs="145.953162" electricity_abs="0"/>
    </tripinfo>
    <tripinfo id="carIn70533:1" depart="57812.00" departLane="-447569998#1_1" departPos="5.10" departSpeed="0.00" departDelay="0.10" arrival="57889.00" arrivalLane="-315358244_1" arrivalPos="33.95" arrivalSpeed="11.83" duration="77.00" routeLength="706.49" waitingTime="0.00" waitingCount="0" stopTime="0.00" timeLoss="10.46" rerouteNo="1" devices="tripinfo_carIn70533:1 routing_carIn70533:1 emissions_carIn70533:1" vType="default_016" speedFactor="0.91" vaporized="">
        <emissions CO_abs="2658.509340" CO2_abs="155752.689932" HC_abs="15.700432" PMx_abs="2.454513" NOx_abs="61.920837" fuel_abs="66.952082" electricity_abs="0"/>
    </tripinfo>
    <tripinfo id="carIn12152:1" depart="57647.00" departLane="24599188#0.94_1" departPos="5.10" departSpeed="0.00" departDelay="0.50" arrival="57890.00" arrivalLane="-315358254#1_1" arrivalPos="137.16" arrivalSpeed="13.03" duration="243.00" routeLength="2034.31" waitingTime="56.00" waitingCount="2" stopTime="0.00" timeLoss="82.99" rerouteNo="1" devices="tripinfo_carIn12152:1 routing_carIn12152:1 emissions_carIn12152:1" vType="default_016" speedFactor="0.99" vaporized="">
        <emissions CO_abs="13766.583547" CO2_abs="566693.810281" HC_abs="75.856611" PMx_abs="10.364796" NOx_abs="233.032279" fuel_abs="243.601295" electricity_abs="0"/>
    </tripinfo>
    <tripinfo id="carIn24709:1" depart="57753.00" departLane="266565295#5_1" departPos="5.10" departSpeed="0.00" departDelay="2.50" arrival="57894.00" arrivalLane="-24634506#2_1" arrivalPos="71.32" arrivalSpeed="11.69" duration="141.00" routeLength="1534.27" waitingTime="0.00" waitingCount="0" stopTime="0.00" timeLoss="17.01" rerouteNo="1" devices="tripinfo_carIn24709:1 routing_carIn24709:1 emissions_carIn24709:1" vType="default_016" speedFactor="0.93" vaporized="">
        <emissions CO_abs="4727.601704" CO2_abs="346779.064443" HC_abs="29.630430" PMx_abs="5.731506" NOx_abs="138.830613" fuel_abs="149.065614" electricity_abs="0"/>
    </tripinfo>
    <tripinfo id="carIn53503:1" depart="57765.00" departLane="-306240162#1_0" departPos="5.10" departSpeed="0.00" departDelay="4.40" arrival="57895.00" arrivalLane="24634510#6_1" arrivalPos="76.64" arrivalSpeed="11.03" duration="130.00" routeLength="1440.47" waitingTime="0.00" waitingCount="0" stopTime="0.00" timeLoss="15.55" rerouteNo="1" devices="tripinfo_carIn53503:1 routing_carIn53503:1 emissions_carIn53503:1" vType="default_016" speedFactor="0.87" vaporized="">
        <emissions CO_abs="4103.574991" CO2_abs="308055.636152" HC_abs="25.825522" PMx_abs="4.880449" NOx_abs="121.579459" fuel_abs="132.420329" electricity_abs="0"/>
    </tripinfo>
    <tripinfo id="carIn118538:1" depart="57683.00" departLane="-447569998#1_1" departPos="5.10" departSpeed="0.00" departDelay="1.00" arrival="57898.00" arrivalLane="399835085#1_1" arrivalPos="212.23" arrivalSpeed="6.87" duration="215.00" routeLength="1907.17" waitingTime="23.00" waitingCount="2" stopTime="0.00" timeLoss="43.39" rerouteNo="1" devices="tripinfo_carIn118538:1 routing_carIn118538:1 emissions_carIn118538:1" vType="default_016" speedFactor="0.95" vaporized="">
        <emissions CO_abs="8686.405086" CO2_abs="421030.862625" HC_abs="49.327178" PMx_abs="7.130857" NOx_abs="170.184737" fuel_abs="180.985517" electricity_abs="0"/>
    </tripinfo>
    <tripinfo id="randUni23028:1" depart="57884.00" departLane="124812856#0_1" departPos="5.10" departSpeed="0.00" departDelay="0.10" arrival="57900.00" arrivalLane="201956810_1" arrivalPos="71.65" arrivalSpeed="12.63" duration="16.00" routeLength="134.91" waitingTime="0.00" waitingCount="0" stopTime="0.00" timeLoss="4.68" rerouteNo="1" devices="tripinfo_randUni23028:1 routing_randUni23028:1 emissions_randUni23028:1" vType="random_016" speedFactor="0.93" vaporized="">
        <emissions CO_abs="1195.292470" CO2_abs="57060.201233" HC_abs="6.790004" PMx_abs="1.104943" NOx_abs="24.191538" fuel_abs="24.527839" electricity_abs="0"/>
    </tripinfo>
    <tripinfo id="carIn14532:1" depart="57743.00" departLane="272042143_1" departPos="5.10" departSpeed="0.00" departDelay="1.90" arrival="57904.00" arrivalLane="399835085#1_1" arrivalPos="212.23" arrivalSpeed="7.56" duration="161.00" routeLength="1757.45" waitingTime="0.00" waitingCount="0" stopTime="0.00" timeLoss="13.08" rerouteNo="1" devices="tripinfo_carIn14532:1 routing_carIn14532:1 emissions_carIn14532:1" vType="default_016" speedFactor="0.96" vaporized="">
        <emissions CO_abs="4396.264436" CO2_abs="341306.028981" HC_abs="27.912881" PMx_abs="5.141780" NOx_abs="132.871643" fuel_abs="146.713587" electricity_abs="0"/>
    </tripinfo>
    <tripinfo id="h6846c2:1" depart="57741.00" departLane="26677213#0_1" departPos="5.10" departSpeed="0.00" departDelay="0.00" arrival="57909.00" arrivalLane="386687235_1" arrivalPos="80.84" arrivalSpeed="15.25" duration="168.00" routeLength="1412.24" waitingTime="20.00" waitingCount="1" stopTime="0.00" timeLoss="50.69" rerouteNo="1" devices="tripinfo_h6846c2:1 routing_h6846c2:1 emissions_h6846c2:1" vType="default_016" speedFactor="1.17" vaporized="">
        <emissions CO_abs="9869.671416" CO2_abs="485423.673564" HC_abs="56.372760" PMx_abs="9.198122" NOx_abs="203.244673" fuel_abs="208.663898" electricity_abs="0"/>
    </tripinfo>
    <tripinfo id="carIn23683:1" depart="57641.00" departLane="-306240162#1_0" departPos="5.10" departSpeed="0.00" departDelay="0.20" arrival="57920.00" arrivalLane="201956820_1" arrivalPos="48.33" arrivalSpeed="12.64" duration="279.00" routeLength="2993.47" waitingTime="25.00" waitingCount="4" stopTime="0.00" timeLoss="72.14" rerouteNo="1" devices="tripinfo_carIn23683:1 routing_carIn23683:1 emissions_carIn23683:1" vType="default_016" speedFactor="0.97" vaporized="">
        <emissions CO_abs="11564.346771" CO2_abs="765359.966844" HC_abs="70.611661" PMx_abs="13.459818" NOx_abs="309.295996" fuel_abs="328.995750" electricity_abs="0"/>
    </tripinfo>
    <tripinfo id="carIn22761:1" depart="57616.00" departLane="-306240162#1_0" departPos="5.10" departSpeed="0.00" departDelay="2.10" arrival="57922.00" arrivalLane="399835085#1_1" arrivalPos="212.23" arrivalSpeed="8.12" duration="306.00" routeLength="1093.26" waitingTime="207.00" waitingCount="2" stopTime="0.00" timeLoss="231.97" rerouteNo="1" devices="tripinfo_carIn22761:1 routing_carIn22761:1 emissions_carIn22761:1" vType="default_016" speedFactor="1.05" vaporized="">
        <emissions CO_abs="38427.460661" CO2_abs="870048.753082" HC_abs="195.548299" PMx_abs="19.902798" NOx_abs="384.971273" fuel_abs="374.011255" electricity_abs="0"/>
    </tripinfo>
    <tripinfo id="carIn99578:1" depart="57681.00" departLane="-306240162#1_0" departPos="5.10" departSpeed="0.00" departDelay="2.00" arrival="57922.00" arrivalLane="201956820_1" arrivalPos="48.33" arrivalSpeed="15.31" duration="241.00" routeLength="2993.47" waitingTime="0.00" waitingCount="0" stopTime="0.00" timeLoss="61.10" rerouteNo="1" devices="tripinfo_carIn99578:1 routing_carIn99578:1 emissions_carIn99578:1" vType="default_016" speedFactor="1.10" vaporized="">
        <emissions CO_abs="10135.753239" CO2_abs="763253.369725" HC_abs="64.225815" PMx_abs="13.683764" NOx_abs="309.252850" fuel_abs="328.088722" electricity_abs="0"/>
    </tripinfo>
    <tripinfo id="carIn86816:1" depart="57617.00" departLane="128361102#0_1" departPos="5.10" departSpeed="0.00" departDelay="0.80" arrival="57923.00" arrivalLane="201956811#0_1" arrivalPos="40.40" arrivalSpeed="13.99" duration="306.00" routeLength="2067.33" waitingTime="133.00" waitingCount="2" stopTime="0.00" timeLoss="157.96" rerouteNo="1" devices="tripinfo_carIn86816:1 routing_carIn86816:1 emissions_carIn86816:1" vType="default_016" speedFactor="1.02" vaporized="">
        <emissions CO_abs="26210.360005" CO2_abs="763057.383393" HC_abs="137.176450" PMx_abs="15.601523" NOx_abs="324.608392" fuel_abs="328.014969" electricity_abs="0"/>
    </tripinfo>
    <tripinfo id="carIn96510:1" depart="57645.00" departLane="-306240162#1_0" departPos="5.10" departSpeed="0.00" departDelay="0.20" arrival="57923.00" arrivalLane="201956820_2" arrivalPos="48.33" arrivalSpeed="11.70" duration="278.00" routeLength="2993.47" waitingTime="8.00" waitingCount="1" stopTime="0.00" timeLoss="48.49" rerouteNo="1" devices="tripinfo_carIn96510:1 routing_carIn96510:1 emissions_carIn96510:1" vType="default_016" speedFactor="0.87" vaporized="">
        <emissions CO_abs="9722.720116" CO2_abs="670612.623777" HC_abs="59.882707" PMx_abs="11.245126" NOx_abs="268.813447" fuel_abs="288.268235" electricity_abs="0"/>
    </tripinfo>
    <tripinfo id="h12244c1:3" depart="57612.00" departLane="315358244_1" departPos="5.10" departSpeed="0.00" departDelay="0.40" arrival="57924.00" arrivalLane="386687235_1" arrivalPos="80.84" arrivalSpeed="12.99" duration="312.00" routeLength="1186.14" waitingTime="192.00" waitingCount="4" stopTime="0.00" timeLoss="224.16" rerouteNo="1" devices="tripinfo_h12244c1:3 routing_h12244c1:3 emissions_h12244c1:3" vType="default_016" speedFactor="0.99" vaporized="">
        <emissions CO_abs="34215.862531" CO2_abs="773472.479473" HC_abs="173.944823" PMx_abs="17.094035" NOx_abs="338.979914" fuel_abs="332.496530" electricity_abs="0"/>
    </tripinfo>
    <tripinfo id="h7097c1:1" depart="57670.00" departLane="315358242#0_1" departPos="5.10" departSpeed="0.00" departDelay="0.60" arrival="57924.00" arrivalLane="306240162#0_0" arrivalPos="220.43" arrivalSpeed="12.75" duration="254.00" routeLength="2586.94" waitingTime="16.00" waitingCount="1" stopTime="0.00" timeLoss="41.09" rerouteNo="1" devices="tripinfo_h7097c1:1 routing_h7097c1:1 emissions_h7097c1:1" vType="default_016" speedFactor="0.81" vaporized="">
        <emissions CO_abs="8700.857849" CO2_abs="542270.559760" HC_abs="52.150354" PMx_abs="8.800819" NOx_abs="215.441039" fuel_abs="233.100532" electricity_abs="0"/>
    </tripinfo>
    <tripinfo id="carIn119432:1" depart="57690.00" departLane="-306240162#1_0" departPos="5.10" departSpeed="0.00" departDelay="5.30" arrival="57924.00" arrivalLane="201956820_2" arrivalPos="48.33" arrivalSpeed="13.55" duration="234.00" routeLength="2993.47" waitingTime="1.00" waitingCount="1" stopTime="0.00" timeLoss="36.97" rerouteNo="1" devices="tripinfo_carIn119432:1 routing_carIn119432:1 emissions_carIn119432:1" vType="default_016" speedFactor="1.01" vaporized="">
        <emissions CO_abs="8784.827780" CO2_abs="691359.064264" HC_abs="56.248230" PMx_abs="12.297331" NOx_abs="278.837762" fuel_abs="297.184408" electricity_abs="0"/>
    </tripinfo>
    <tripinfo id="h13377c2:3" depart="57808.00" departLane="315358244_1" departPos="5.10" departSpeed="0.00" departDelay="4.60" arrival="57924.00" arrivalLane="447569997#1_1" arrivalPos="180.93" arrivalSpeed="6.90" duration="116.00" routeLength="718.04" waitingTime="35.00" waitingCount="1" stopTime="0.00" timeLoss="45.49" rerouteNo="1" devices="tripinfo_h13377c2:3 routing_h13377c2:3 emissions_h13377c2:3" vType="default_016" speedFactor="0.87" vaporized="">