<?xml version="1.0" encoding="UTF-8"?>

<!-- generated on Thu Nov  4 13:22:17 2021 by Eclipse SUMO sumo Version 1.9.0
<configuration xmlns:xsi="http://www.w3.org/2001/XMLSchema-instance" xsi:noNamespaceSchemaLocation="http://sumo.dlr.de/xsd/sumoConfiguration.xsd">

    <input>
        <net-file value="/mainfs/home/bk2g18/RESCO/environments/ingolstadt21/ingolstadt21.net.xml"/>
        <route-files value="/mainfs/home/bk2g18/RESCO/environments/ingolstadt21/ingolstadt21.rou.xml"/>
    </input>

    <output>
        <tripinfo-output value="/mainfs/home/bk2g18/RESCO/logs/MPLight-tr0-ingolstadt21-21-mplight_full-pressure/tripinfo_12.xml"/>
        <tripinfo-output.write-unfinished value="true"/>
    </output>

    <time>
        <begin value="57600"/>
        <end value="61200"/>
    </time>

    <processing>
        <time-to-teleport value="-1"/>
    </processing>

    <report>
        <xml-validation value="never"/>
        <xml-validation.routes value="never"/>
        <no-warnings value="true"/>
        <no-step-log value="true"/>
    </report>

    <emissions>
        <device.emissions.probability value="1"/>
    </emissions>

    <traci_server>
        <remote-port value="43427"/>
    </traci_server>

    <random_number>
        <random value="true"/>
    </random_number>

</configuration>
-->

<tripinfos xmlns:xsi="http://www.w3.org/2001/XMLSchema-instance" xsi:noNamespaceSchemaLocation="http://sumo.dlr.de/xsd/tripinfo_file.xsd">
    <tripinfo id="h15454c2:3" depart="57612.00" departLane="24608844_1" departPos="5.10" departSpeed="0.00" departDelay="0.50" arrival="57650.00" arrivalLane="32978638#0_1" arrivalPos="49.29" arrivalSpeed="13.24" duration="38.00" routeLength="354.79" waitingTime="0.00" waitingCount="0" stopTime="0.00" timeLoss="4.50" rerouteNo="1" devices="tripinfo_h15454c2:3 routing_h15454c2:3 emissions_h15454c2:3" vType="default_016" speedFactor="1.02" vaporized="">
        <emissions CO_abs="1713.027485" CO2_abs="92168.515264" HC_abs="9.956176" PMx_abs="1.640595" NOx_abs="38.085572" fuel_abs="39.619503" electricity_abs="0"/>
    </tripinfo>
    <tripinfo id="carIn53971:1" depart="57640.00" departLane="272042143_1" departPos="5.10" departSpeed="0.00" departDelay="0.80" arrival="57693.00" arrivalLane="24634414#1_1" arrivalPos="162.19" arrivalSpeed="7.49" duration="53.00" routeLength="493.04" waitingTime="0.00" waitingCount="0" stopTime="0.00" timeLoss="7.62" rerouteNo="1" devices="tripinfo_carIn53971:1 routing_carIn53971:1 emissions_carIn53971:1" vType="default_016" speedFactor="1.01" vaporized="">
        <emissions CO_abs="2107.623483" CO2_abs="124830.156901" HC_abs="12.499881" PMx_abs="2.097954" NOx_abs="50.541462" fuel_abs="53.659449" electricity_abs="0"/>
    </tripinfo>
    <tripinfo id="carIn60260:1" depart="57606.00" departLane="315358254#0_1" departPos="5.10" departSpeed="0.00" departDelay="0.90" arrival="57701.00" arrivalLane="399835085#1_1" arrivalPos="212.23" arrivalSpeed="6.60" duration="95.00" routeLength="430.98" waitingTime="29.00" waitingCount="1" stopTime="0.00" timeLoss="40.39" rerouteNo="1" devices="tripinfo_carIn60260:1 routing_carIn60260:1 emissions_carIn60260:1" vType="default_016" speedFactor="0.84" vaporized="">
        <emissions CO_abs="7194.605655" CO2_abs="187211.689913" HC_abs="37.092985" PMx_abs="3.695081" NOx_abs="79.902993" fuel_abs="80.477309" electricity_abs="0"/>
    </tripinfo>
    <tripinfo id="h7800c1:5" depart="57696.00" departLane="-447569998#1_1" departPos="5.10" departSpeed="0.00" departDelay="0.00" arrival="57721.00" arrivalLane="-447569998#1_1" arrivalPos="180.76" arrivalSpeed="7.89" duration="25.00" routeLength="175.66" waitingTime="0.00" waitingCount="0" stopTime="0.00" timeLoss="3.42" rerouteNo="1" devices="tripinfo_h7800c1:5 routing_h7800c1:5 emissions_h7800c1:5" vType="default_016" speedFactor="0.99" vaporized="">
        <emissions CO_abs="1199.407666" CO2_abs="51014.671569" HC_abs="6.630392" PMx_abs="0.833842" NOx_abs="20.758370" fuel_abs="21.929448" electricity_abs="0"/>
    </tripinfo>
    <tripinfo id="h3688c1:1" depart="57625.00" departLane="201201950#1_1" departPos="5.10" departSpeed="0.00" departDelay="0.00" arrival="57735.00" arrivalLane="32978638#0_1" arrivalPos="49.29" arrivalSpeed="12.23" duration="110.00" routeLength="1089.75" waitingTime="10.00" waitingCount="1" stopTime="0.00" timeLoss="24.71" rerouteNo="1" devices="tripinfo_h3688c1:1 routing_h3688c1:1 emissions_h3688c1:1" vType="default_016" speedFactor="0.94" vaporized="">
        <emissions CO_abs="4436.061704" CO2_abs="259664.494026" HC_abs="26.257174" PMx_abs="4.454541" NOx_abs="105.037995" fuel_abs="111.619266" electricity_abs="0"/>
    </tripinfo>
    <tripinfo id="h4538c1:1" depart="57701.00" departLane="-10427692#1_1" departPos="5.10" departSpeed="0.00" departDelay="0.00" arrival="57737.00" arrivalLane="-128361102#1_1" arrivalPos="274.68" arrivalSpeed="14.25" duration="36.00" routeLength="440.74" waitingTime="0.00" waitingCount="0" stopTime="0.00" timeLoss="6.76" rerouteNo="1" devices="tripinfo_h4538c1:1 routing_h4538c1:1 emissions_h4538c1:1" vType="default_016" speedFactor="1.08" vaporized="">
        <emissions CO_abs="1497.957252" CO2_abs="113703.850189" HC_abs="9.409458" PMx_abs="1.900047" NOx_abs="45.147226" fuel_abs="48.876424" electricity_abs="0"/>
    </tripinfo>
    <tripinfo id="h317c2:1" depart="57707.00" departLane="-32978638#0_1" departPos="5.10" departSpeed="0.00" departDelay="0.10" arrival="57744.00" arrivalLane="-266565295#5_1" arrivalPos="172.76" arrivalSpeed="14.12" duration="37.00" routeLength="370.53" waitingTime="0.00" waitingCount="0" stopTime="0.00" timeLoss="9.90" rerouteNo="1" devices="tripinfo_h317c2:1 routing_h317c2:1 emissions_h317c2:1" vType="default_016" speedFactor="1.02" vaporized="">
        <emissions CO_abs="2038.101977" CO2_abs="118480.180221" HC_abs="12.056441" PMx_abs="2.174342" NOx_abs="48.952376" fuel_abs="50.929620" electricity_abs="0"/>
    </tripinfo>
    <tripinfo id="carIn121703:1" depart="57647.00" departLane="386687232#0_1" departPos="5.10" departSpeed="0.00" departDelay="0.30" arrival="57753.00" arrivalLane="-315358244_1" arrivalPos="33.95" arrivalSpeed="15.38" duration="106.00" routeLength="1157.39" waitingTime="14.00" waitingCount="1" stopTime="0.00" timeLoss="29.93" rerouteNo="1" devices="tripinfo_carIn121703:1 routing_carIn121703:1 emissions_carIn121703:1" vType="default_016" speedFactor="1.11" vaporized="">
        <emissions CO_abs="4770.537550" CO2_abs="289201.663257" HC_abs="28.338957" PMx_abs="5.124655" NOx_abs="116.660126" fuel_abs="124.315814" electricity_abs="0"/>
    </tripinfo>
    <tripinfo id="h9563c2:5" depart="57631.00" departLane="315358244_1" departPos="5.10" departSpeed="0.00" departDelay="0.70" arrival="57757.00" arrivalLane="386687235_1" arrivalPos="80.84" arrivalSpeed="14.09" duration="126.00" routeLength="1186.14" waitingTime="19.00" waitingCount="2" stopTime="0.00" timeLoss="44.71" rerouteNo="1" devices="tripinfo_h9563c2:5 routing_h9563c2:5 emissions_h9563c2:5" vType="default_016" speedFactor="1.07" vaporized="">
        <emissions CO_abs="6268.861616" CO2_abs="324930.247167" HC_abs="36.032379" PMx_abs="5.791492" NOx_abs="132.433588" fuel_abs="139.674677" electricity_abs="0"/>
    </tripinfo>
    <tripinfo id="carIn80064:1" depart="57603.00" departLane="128361109#1_1" departPos="5.10" departSpeed="0.00" departDelay="0.40" arrival="57758.00" arrivalLane="-315358254#1_1" arrivalPos="137.16" arrivalSpeed="15.06" duration="155.00" routeLength="1587.97" waitingTime="42.00" waitingCount="3" stopTime="0.00" timeLoss="76.62" rerouteNo="1" devices="tripinfo_carIn80064:1 routing_carIn80064:1 emissions_carIn80064:1" vType="default_016" speedFactor="1.14" vaporized="">
        <emissions CO_abs="13264.439025" CO2_abs="609011.375889" HC_abs="74.948211" PMx_abs="12.676955" NOx_abs="256.742882" fuel_abs="261.788813" electricity_abs="0"/>
    </tripinfo>
    <tripinfo id="carIn30817:1" depart="57681.00" departLane="315358244_1" departPos="5.10" departSpeed="0.00" departDelay="0.20" arrival="57760.00" arrivalLane="447569997#1_1" arrivalPos="180.93" arrivalSpeed="7.45" duration="79.00" routeLength="718.04" waitingTime="9.00" waitingCount="1" stopTime="0.00" timeLoss="19.26" rerouteNo="1" devices="tripinfo_carIn30817:1 routing_carIn30817:1 emissions_carIn30817:1" vType="default_016" speedFactor="1.04" vaporized="">
        <emissions CO_abs="3254.505250" CO2_abs="170565.989947" HC_abs="18.749571" PMx_abs="2.840767" NOx_abs="68.311306" fuel_abs="73.319853" electricity_abs="0"/>
    </tripinfo>
    <tripinfo id="h3326c1:2" depart="57656.00" departLane="22716069#0_1" departPos="5.10" departSpeed="0.00" departDelay="0.00" arrival="57761.00" arrivalLane="24634517#13_1" arrivalPos="111.62" arrivalSpeed="14.51" duration="105.00" routeLength="1312.81" waitingTime="0.00" waitingCount="0" stopTime="0.00" timeLoss="15.75" rerouteNo="1" devices="tripinfo_h3326c1:2 routing_h3326c1:2 emissions_h3326c1:2" vType="default_016" speedFactor="1.10" vaporized="">
        <emissions CO_abs="4167.316965" CO2_abs="317749.609833" HC_abs="26.403610" PMx_abs="5.519779" NOx_abs="127.923766" fuel_abs="136.586625" electricity_abs="0"/>
    </tripinfo>
    <tripinfo id="carIn27009:1" depart="57673.00" departLane="-447569998#1_1" departPos="5.10" departSpeed="0.00" departDelay="0.50" arrival="57766.00" arrivalLane="-26677539_1" arrivalPos="152.75" arrivalSpeed="8.34" duration="93.00" routeLength="699.63" waitingTime="0.00" waitingCount="0" stopTime="0.00" timeLoss="10.53" rerouteNo="1" devices="tripinfo_carIn27009:1 routing_carIn27009:1 emissions_carIn27009:1" vType="default_015" speedFactor="1.02" vaporized="">
        <emissions CO_abs="3516.790425" CO2_abs="174259.017609" HC_abs="20.008942" PMx_abs="2.760409" NOx_abs="70.228913" fuel_abs="74.907592" electricity_abs="0"/>
    </tripinfo>
    <tripinfo id="carIn22761:1" depart="57616.00" departLane="-306240162#1_0" departPos="5.10" departSpeed="0.00" departDelay="2.10" arrival="57767.00" arrivalLane="399835085#1_1" arrivalPos="212.23" arrivalSpeed="9.54" duration="151.00" routeLength="1093.26" waitingTime="53.00" waitingCount="3" stopTime="0.00" timeLoss="86.63" rerouteNo="1" devices="tripinfo_carIn22761:1 routing_carIn22761:1 emissions_carIn22761:1" vType="default_016" speedFactor="1.20" vaporized="">
        <emissions CO_abs="13117.117199" CO2_abs="486847.623984" HC_abs="71.367549" PMx_abs="10.411331" NOx_abs="209.893120" fuel_abs="209.277110" electricity_abs="0"/>
    </tripinfo>
    <tripinfo id="h5979c1:5" depart="57670.00" departLane="399835085#1_1" departPos="5.10" departSpeed="0.00" departDelay="1.00" arrival="57768.00" arrivalLane="-315358254#1_1" arrivalPos="137.16" arrivalSpeed="12.64" duration="98.00" routeLength="659.33" waitingTime="3.00" waitingCount="1" stopTime="0.00" timeLoss="19.42" rerouteNo="1" devices="tripinfo_h5979c1:5 routing_h5979c1:5 emissions_h5979c1:5" vType="default_016" speedFactor="0.94" vaporized="">
        <emissions CO_abs="4275.839375" CO2_abs="193201.028819" HC_abs="23.907117" PMx_abs="3.152390" NOx_abs="78.367148" fuel_abs="83.050263" electricity_abs="0"/>
    </tripinfo>
    <tripinfo id="h330c1:1" depart="57736.00" departLane="-32978638#0_1" departPos="5.10" departSpeed="0.00" departDelay="0.20" arrival="57775.00" arrivalLane="-266565295#5_1" arrivalPos="172.76" arrivalSpeed="13.93" duration="39.00" routeLength="370.53" waitingTime="2.00" waitingCount="1" stopTime="0.00" timeLoss="11.82" rerouteNo="1" devices="tripinfo_h330c1:1 routing_h330c1:1 emissions_h330c1:1" vType="default_016" speedFactor="1.04" vaporized="">
        <emissions CO_abs="2103.722303" CO2_abs="124855.575120" HC_abs="12.527892" PMx_abs="2.291616" NOx_abs="51.501818" fuel_abs="53.670108" electricity_abs="0"/>
    </tripinfo>
    <tripinfo id="h3568c1:3" depart="57656.00" departLane="266565295#5_1" departPos="5.10" departSpeed="0.00" departDelay="0.80" arrival="57785.00" arrivalLane="-24634415_1" arrivalPos="62.03" arrivalSpeed="13.27" duration="129.00" routeLength="807.40" waitingTime="49.00" waitingCount="1" stopTime="0.00" timeLoss="67.01" rerouteNo="1" devices="tripinfo_h3568c1:3 routing_h3568c1:3 emissions_h3568c1:3" vType="default_016" speedFactor="1.04" vaporized="">
        <emissions CO_abs="11307.803384" CO2_abs="361844.816387" HC_abs="59.918361" PMx_abs="7.359931" NOx_abs="154.377988" fuel_abs="155.545009" electricity_abs="0"/>
    </tripinfo>
    <tripinfo id="h3154c1:1" depart="57658.00" departLane="24634507_1" departPos="5.10" departSpeed="0.00" departDelay="0.00" arrival="57797.00" arrivalLane="-266565295#5_1" arrivalPos="172.76" arrivalSpeed="12.87" duration="139.00" routeLength="1206.22" waitingTime="25.00" waitingCount="2" stopTime="0.00" timeLoss="45.91" rerouteNo="1" devices="tripinfo_h3154c1:1 routing_h3154c1:1 emissions_h3154c1:1" vType="default_016" speedFactor="0.95" vaporized="">
        <emissions CO_abs="7074.479180" CO2_abs="342740.685639" HC_abs="40.229284" PMx_abs="6.091783" NOx_abs="140.118032" fuel_abs="147.331074" electricity_abs="0"/>
    </tripinfo>
    <tripinfo id="carIn12858:1" depart="57661.00" departLane="128361109#1_1" departPos="5.10" departSpeed="0.00" departDelay="0.90" arrival="57804.00" arrivalLane="399835085#1_1" arrivalPos="212.23" arrivalSpeed="8.30" duration="143.00" routeLength="1738.12" waitingTime="4.00" waitingCount="1" stopTime="0.00" timeLoss="31.16" rerouteNo="1" devices="tripinfo_carIn12858:1 routing_carIn12858:1 emissions_carIn12858:1" vType="default_016" speedFactor="1.03" vaporized="">
        <emissions CO_abs="6944.672403" CO2_abs="471003.788383" HC_abs="42.866321" PMx_abs="8.860258" NOx_abs="192.457769" fuel_abs="202.463677" electricity_abs="0"/>
    </tripinfo>
    <tripinfo id="h645c1:1" depart="57622.00" departLane="266565295#5_1" departPos="5.10" departSpeed="0.00" departDelay="0.40" arrival="57814.00" arrivalLane="-315358244_1" arrivalPos="33.95" arrivalSpeed="12.50" duration="192.00" routeLength="1910.83" waitingTime="21.00" waitingCount="2" stopTime="0.00" timeLoss="47.66" rerouteNo="1" devices="tripinfo_h645c1:1 routing_h645c1:1 emissions_h645c1:1" vType="default_016" speedFactor="0.96" vaporized="">
        <emissions CO_abs="6993.605980" CO2_abs="417071.359318" HC_abs="41.551182" PMx_abs="6.883014" NOx_abs="166.195326" fuel_abs="179.282497" electricity_abs="0"/>
    </tripinfo>
    <tripinfo id="carIn129809:1" depart="57729.00" departLane="-447569998#1_1" departPos="5.10" departSpeed="0.00" departDelay="1.00" arrival="57814.00" arrivalLane="-315358244_2" arrivalPos="33.95" arrivalSpeed="12.23" duration="85.00" routeLength="706.49" waitingTime="6.00" waitingCount="1" stopTime="0.00" timeLoss="20.96" rerouteNo="1" devices="tripinfo_carIn129809:1 routing_carIn129809:1 emissions_carIn129809:1" vType="default_015" speedFactor="0.95" vaporized="">
        <emissions CO_abs="3334.482771" CO2_abs="181397.654096" HC_abs="19.421175" PMx_abs="3.170496" NOx_abs="74.269402" fuel_abs="77.975577" electricity_abs="0"/>
    </tripinfo>
    <tripinfo id="h17549c1:1" depart="57680.00" departLane="-447569998#1_1" departPos="5.10" departSpeed="0.00" departDelay="0.00" arrival="57815.00" arrivalLane="-315358254#1_1" arrivalPos="137.16" arrivalSpeed="15.23" duration="135.00" routeLength="1743.98" waitingTime="0.00" waitingCount="0" stopTime="0.00" timeLoss="12.91" rerouteNo="1" devices="tripinfo_h17549c1:1 routing_h17549c1:1 emissions_h17549c1:1" vType="default_016" speedFactor="1.12" vaporized="">
        <emissions CO_abs="4170.133107" CO2_abs="354457.008624" HC_abs="27.093257" PMx_abs="5.860222" NOx_abs="139.860516" fuel_abs="152.365638" electricity_abs="0"/>
    </tripinfo>
    <tripinfo id="h7181c1:1" depart="57660.00" departLane="315358254#0_1" departPos="5.10" departSpeed="0.00" departDelay="0.10" arrival="57818.00" arrivalLane="306240162#0_0" arrivalPos="220.43" arrivalSpeed="16.72" duration="158.00" routeLength="932.35" waitingTime="84.00" waitingCount="2" stopTime="0.00" timeLoss="106.66" rerouteNo="1" devices="tripinfo_h7181c1:1 routing_h7181c1:1 emissions_h7181c1:1" vType="default_016" speedFactor="1.02" vaporized="">
        <emissions CO_abs="16828.843592" CO2_abs="501068.891781" HC_abs="88.511573" PMx_abs="10.980809" NOx_abs="217.504896" fuel_abs="215.392744" electricity_abs="0"/>
    </tripinfo>
    <tripinfo id="h11737c1:1" depart="57665.00" departLane="272042143_1" departPos="5.10" departSpeed="0.00" departDelay="1.50" arrival="57825.00" arrivalLane="-315358254#1_1" arrivalPos="137.16" arrivalSpeed="15.30" duration="160.00" routeLength="1596.88" waitingTime="35.00" waitingCount="1" stopTime="0.00" timeLoss="55.10" rerouteNo="1" devices="tripinfo_h11737c1:1 routing_h11737c1:1 emissions_h11737c1:1" vType="default_016" speedFactor="1.11" vaporized="">
        <emissions CO_abs="9042.656916" CO2_abs="418203.060618" HC_abs="50.959550" PMx_abs="7.833593" NOx_abs="171.988788" fuel_abs="179.769340" electricity_abs="0"/>
    </tripinfo>
    <tripinfo id="carIn126288:1" depart="57674.00" departLane="272042143_1" departPos="5.10" departSpeed="0.00" departDelay="0.00" arrival="57827.00" arrivalLane="-315358254#1_1" arrivalPos="137.16" arrivalSpeed="14.94" duration="153.00" routeLength="1596.88" waitingTime="32.00" waitingCount="1" stopTime="0.00" timeLoss="52.28" rerouteNo="1" devices="tripinfo_carIn126288:1 routing_carIn126288:1 emissions_carIn126288:1" vType="default_016" speedFactor="1.16" vaporized="">
        <emissions CO_abs="9331.664754" CO2_abs="438397.967884" HC_abs="52.766348" PMx_abs="8.338177" NOx_abs="180.959918" fuel_abs="188.450045" electricity_abs="0"/>
    </tripinfo>
    <tripinfo id="h12244c1:3" depart="57612.00" departLane="315358244_1" departPos="5.10" departSpeed="0.00" departDelay="0.40" arrival="57832.00" arrivalLane="386687235_1" arrivalPos="80.84" arrivalSpeed="10.07" duration="220.00" routeLength="1186.14" waitingTime="87.00" waitingCount="4" stopTime="0.00" timeLoss="110.86" rerouteNo="1" devices="tripinfo_h12244c1:3 routing_h12244c1:3 emissions_h12244c1:3" vType="default_016" speedFactor="0.79" vaporized="">
        <emissions CO_abs="15734.527671" CO2_abs="438549.676525" HC_abs="81.839693" PMx_abs="8.616977" NOx_abs="185.791504" fuel_abs="188.520021" electricity_abs="0"/>
    </tripinfo>
    <tripinfo id="carIn12365:1" depart="57713.00" departLane="315358244_1" departPos="5.10" departSpeed="0.00" departDelay="0.50" arrival="57834.00" arrivalLane="447569997#1_1" arrivalPos="180.93" arrivalSpeed="8.14" duration="121.00" routeLength="718.04" waitingTime="49.00" waitingCount="1" stopTime="0.00" timeLoss="62.81" rerouteNo="1" devices="tripinfo_carIn12365:1 routing_carIn12365:1 emissions_carIn12365:1" vType="default_016" speedFactor="1.06" vaporized="">
        <emissions CO_abs="10105.729397" CO2_abs="304289.910197" HC_abs="53.091046" PMx_abs="6.065943" NOx_abs="128.753574" fuel_abs="130.804808" electricity_abs="0"/>
    </tripinfo>
    <tripinfo id="S5R_frequency1.2" depart="57647.00" departLane="315358250#0_1" departPos="12.10" departSpeed="0.00" departDelay="35.40" arrival="57837.00" arrivalLane="386687235_1" arrivalPos="80.84" arrivalSpeed="13.59" duration="190.00" routeLength="1115.62" waitingTime="67.00" waitingCount="4" stopTime="0.00" timeLoss="108.48" rerouteNo="1" devices="tripinfo_S5R_frequency1.2 routing_S5R_frequency1.2 emissions_S5R_frequency1.2" vType="bus" speedFactor="1.00" vaporized="">
        <emissions CO_abs="3599.791004" CO2_abs="1815177.784086" HC_abs="782.951684" PMx_abs="375.792866" NOx_abs="15281.107410" fuel_abs="774.003123" electricity_abs="0"/>
    </tripinfo>
    <tripinfo id="randUni15030:1" depart="57735.00" departLane="386687232#0_1" departPos="5.10" departSpeed="0.00" departDelay="0.10" arrival="57837.00" arrivalLane="26677539_1" arrivalPos="151.98" arrivalSpeed="7.46" duration="102.00" routeLength="919.89" waitingTime="0.00" waitingCount="0" stopTime="0.00" timeLoss="10.62" rerouteNo="1" devices="tripinfo_randUni15030:1 routing_randUni15030:1 emissions_randUni15030:1" vType="random_016" speedFactor="0.91" vaporized="">
        <emissions CO_abs="3472.865956" CO2_abs="207765.852693" HC_abs="20.616364" PMx_abs="3.309199" NOx_abs="82.941320" fuel_abs="89.310408" electricity_abs="0"/>
    </tripinfo>
    <tripinfo id="carIn86816:1" depart="57617.00" departLane="128361102#0_1" departPos="5.10" departSpeed="0.00" departDelay="0.80" arrival="57841.00" arrivalLane="201956811#0_1" arrivalPos="40.40" arrivalSpeed="12.24" duration="224.00" routeLength="2067.33" waitingTime="29.00" waitingCount="2" stopTime="0.00" timeLoss="56.34" rerouteNo="1" devices="tripinfo_carIn86816:1 routing_carIn86816:1 emissions_carIn86816:1" vType="default_016" speedFactor="0.90" vaporized="">
        <emissions CO_abs="9604.723448" CO2_abs="495874.990147" HC_abs="55.284112" PMx_abs="8.465389" NOx_abs="200.478434" fuel_abs="213.157629" electricity_abs="0"/>
    </tripinfo>
    <tripinfo id="carIn118538:1" depart="57683.00" departLane="-447569998#1_1" departPos="5.10" departSpeed="0.00" departDelay="1.00" arrival="57841.00" arrivalLane="399835085#1_1" arrivalPos="212.23" arrivalSpeed="6.01" duration="158.00" routeLength="1907.17" waitingTime="0.00" waitingCount="0" stopTime="0.00" timeLoss="25.92" rerouteNo="1" devices="tripinfo_carIn118538:1 routing_carIn118538:1 emissions_carIn118538:1" vType="default_016" speedFactor="1.23" vaporized="">
        <emissions CO_abs="5071.794682" CO2_abs="403793.846644" HC_abs="32.442865" PMx_abs="6.797791" NOx_abs="160.717194" fuel_abs="173.573443" electricity_abs="0"/>
    </tripinfo>
    <tripinfo id="carIn73855:1" depart="57743.00" departLane="386687232#0_1" departPos="5.10" departSpeed="0.00" departDelay="0.50" arrival="57842.00" arrivalLane="-315358244_1" arrivalPos="33.95" arrivalSpeed="12.67" duration="99.00" routeLength="1157.39" waitingTime="0.00" waitingCount="0" stopTime="0.00" timeLoss="8.13" rerouteNo="1" devices="tripinfo_carIn73855:1 routing_carIn73855:1 emissions_carIn73855:1" vType="default_016" speedFactor="0.93" vaporized="">
        <emissions CO_abs="2401.429759" CO2_abs="199731.783544" HC_abs="15.583412" PMx_abs="3.119760" NOx_abs="78.361413" fuel_abs="85.856270" electricity_abs="0"/>
    </tripinfo>
    <tripinfo id="carIn102915:1" depart="57643.00" departLane="128361102#0_1" departPos="5.10" departSpeed="0.00" departDelay="0.40" arrival="57843.00" arrivalLane="201956811#0_1" arrivalPos="40.40" arrivalSpeed="13.06" duration="200.00" routeLength="2067.33" waitingTime="6.00" waitingCount="2" stopTime="0.00" timeLoss="40.35" rerouteNo="1" devices="tripinfo_carIn102915:1 routing_carIn102915:1 emissions_carIn102915:1" vType="default_016" speedFactor="0.95" vaporized="">
        <emissions CO_abs="6890.098101" CO2_abs="481001.415253" HC_abs="42.598750" PMx_abs="7.976486" NOx_abs="192.753356" fuel_abs="206.762351" electricity_abs="0"/>
    </tripinfo>
    <tripinfo id="carIn107282:1" depart="57749.00" departLane="-447569998#1_1" departPos="5.10" departSpeed="0.00" departDelay="0.00" arrival="57843.00" arrivalLane="315358242#0_1" arrivalPos="165.37" arrivalSpeed="15.24" duration="94.00" routeLength="448.50" waitingTime="48.00" waitingCount="1" stopTime="0.00" timeLoss="57.60" rerouteNo="1" devices="tripinfo_carIn107282:1 routing_carIn107282:1 emissions_carIn107282:1" vType="default_016" speedFactor="1.15" vaporized="">
        <emissions CO_abs="9423.289090" CO2_abs="240282.312238" HC_abs="48.505209" PMx_abs="5.103894" NOx_abs="103.839892" fuel_abs="103.290664" electricity_abs="0"/>
    </tripinfo>
    <tripinfo id="randUni31145:1" depart="57814.00" departLane="10425609#0_1" departPos="5.10" departSpeed="0.00" departDelay="0.30" arrival="57843.00" arrivalLane="201956810_1" arrivalPos="71.65" arrivalSpeed="13.32" duration="29.00" routeLength="255.78" waitingTime="0.00" waitingCount="0" stopTime="0.00" timeLoss="9.39" rerouteNo="1" devices="tripinfo_randUni31145:1 routing_randUni31145:1 emissions_randUni31145:1" vType="random_016" speedFactor="0.98" vaporized="">
        <emissions CO_abs="2073.783244" CO2_abs="107760.250567" HC_abs="11.989990" PMx_abs="2.063878" NOx_abs="45.439817" fuel_abs="46.321598" electricity_abs="0"/>
    </tripinfo>
    <tripinfo id="carIn85747:1" depart="57673.00" departLane="128361109#1_1" departPos="5.10" departSpeed="0.00" departDelay="0.70" arrival="57844.00" arrivalLane="386687235_1" arrivalPos="80.84" arrivalSpeed="15.15" duration="171.00" routeLength="2088.57" waitingTime="17.00" waitingCount="2" stopTime="0.00" timeLoss="38.85" rerouteNo="1" devices="tripinfo_carIn85747:1 routing_carIn85747:1 emissions_carIn85747:1" vType="default_016" speedFactor="1.14" vaporized="">
        <emissions CO_abs="5849.610667" CO2_abs="428243.213832" HC_abs="36.308312" PMx_abs="7.151456" NOx_abs="168.231373" fuel_abs="184.083802" electricity_abs="0"/>
    </tripinfo>
    <tripinfo id="randUni33724:1" depart="57646.00" departLane="128361102#0_1" departPos="5.10" departSpeed="0.00" departDelay="1.20" arrival="57845.00" arrivalLane="201956811#0_1" arrivalPos="40.40" arrivalSpeed="13.07" duration="199.00" routeLength="2067.33" waitingTime="4.00" waitingCount="1" stopTime="0.00" timeLoss="44.81" rerouteNo="1" devices="tripinfo_randUni33724:1 routing_randUni33724:1 emissions_randUni33724:1" vType="random_016" speedFactor="0.98" vaporized="">
        <emissions CO_abs="7427.281012" CO2_abs="499190.091750" HC_abs="45.508359" PMx_abs="8.572380" NOx_abs="202.121738" fuel_abs="214.580668" electricity_abs="0"/>
    </tripinfo>
    <tripinfo id="randUni2407:1" depart="57820.00" departLane="10425609#0_1" departPos="5.10" departSpeed="0.00" departDelay="0.80" arrival="57846.00" arrivalLane="201956810_1" arrivalPos="71.65" arrivalSpeed="14.28" duration="26.00" routeLength="255.78" waitingTime="0.00" waitingCount="0" stopTime="0.00" timeLoss="6.75" rerouteNo="1" devices="tripinfo_randUni2407:1 routing_randUni2407:1 emissions_randUni2407:1" vType="random_016" speedFactor="1.08" vaporized="">
        <emissions CO_abs="1718.089548" CO2_abs="103143.806364" HC_abs="10.260086" PMx_abs="1.909679" NOx_abs="42.843763" fuel_abs="44.337078" electricity_abs="0"/>
    </tripinfo>
    <tripinfo id="carIn12152:1" depart="57647.00" departLane="24599188#0.94_1" departPos="5.10" departSpeed="0.00" departDelay="0.50" arrival="57860.00" arrivalLane="-315358254#1_1" arrivalPos="137.16" arrivalSpeed="13.13" duration="213.00" routeLength="2034.31" waitingTime="35.00" waitingCount="1" stopTime="0.00" timeLoss="59.42" rerouteNo="1" devices="tripinfo_carIn12152:1 routing_carIn12152:1 emissions_carIn12152:1" vType="default_016" speedFactor="1.03" vaporized="">
        <emissions CO_abs="10003.242690" CO2_abs="487324.164123" HC_abs="56.741985" PMx_abs="8.418964" NOx_abs="196.256332" fuel_abs="209.482400" electricity_abs="0"/>
    </tripinfo>
    <tripinfo id="carIn88905:1" depart="57688.00" departLane="128361109#1_1" departPos="5.10" departSpeed="0.00" departDelay="5.80" arrival="57862.00" arrivalLane="386687235_2" arrivalPos="80.84" arrivalSpeed="17.24" duration="174.00" routeLength="2088.57" waitingTime="17.00" waitingCount="3" stopTime="0.00" timeLoss="52.80" rerouteNo="1" devices="tripinfo_carIn88905:1 routing_carIn88905:1 emissions_carIn88905:1" vType="default_016" speedFactor="1.24" vaporized="">
        <emissions CO_abs="6546.333539" CO2_abs="491647.209634" HC_abs="41.252236" PMx_abs="8.829898" NOx_abs="197.994271" fuel_abs="211.337384" electricity_abs="0"/>
    </tripinfo>
    <tripinfo id="carIn75660:1" depart="57679.00" departLane="128361109#1_1" departPos="5.10" departSpeed="0.00" departDelay="3.40" arrival="57863.00" arrivalLane="386687235_1" arrivalPos="80.84" arrivalSpeed="14.18" duration="184.00" routeLength="2088.57" waitingTime="19.00" waitingCount="2" stopTime="0.00" timeLoss="43.18" rerouteNo="1" devices="tripinfo_carIn75660:1 routing_carIn75660:1 emissions_carIn75660:1" vType="default_016" speedFactor="1.07" vaporized="">
        <emissions CO_abs="6655.651169" CO2_abs="455442.628226" HC_abs="40.879748" PMx_abs="7.857203" NOx_abs="182.505569" fuel_abs="195.775526" electricity_abs="0"/>
    </tripinfo>
    <tripinfo id="h19577c1:1" depart="57694.00" departLane="128361109#1_1" departPos="5.10" departSpeed="0.00" departDelay="2.80" arrival="57865.00" arrivalLane="386687235_2" arrivalPos="80.84" arrivalSpeed="13.67" duration="171.00" routeLength="2088.57" waitingTime="0.00" waitingCount="0" stopTime="0.00" timeLoss="18.76" rerouteNo="1" devices="tripinfo_h19577c1:1 routing_h19577c1:1 emissions_h19577c1:1" vType="default_016" speedFactor="0.99" vaporized="">
        <emissions CO_abs="4644.788508" CO2_abs="397812.785167" HC_abs="30.406174" PMx_abs="6.291146" NOx_abs="155.938102" fuel_abs="171.002763" electricity_abs="0"/>
    </tripinfo>
    <tripinfo id="h17600c1:1" depart="57662.00" departLane="272042143_1" departPos="5.10" departSpeed="0.00" departDelay="0.30" arrival="57866.00" arrivalLane="201238729#3_1" arrivalPos="431.02" arrivalSpeed="13.17" duration="204.00" routeLength="2100.26" waitingTime="35.00" waitingCount="1" stopTime="0.00" timeLoss="53.05" rerouteNo="1" devices="tripinfo_h17600c1:1 routing_h17600c1:1 emissions_h17600c1:1" vType="default_016" speedFactor="1.01" vaporized="">
        <emissions CO_abs="8722.814352" CO2_abs="456032.632391" HC_abs="50.328463" PMx_abs="7.692033" NOx_abs="181.683649" fuel_abs="196.031188" electricity_abs="0"/>
    </tripinfo>
    <tripinfo id="carIn7949:1" depart="57676.00" departLane="128361109#1_1" departPos="5.10" departSpeed="0.00" departDelay="2.10" arrival="57866.00" arrivalLane="386687235_1" arrivalPos="80.84" arrivalSpeed="11.99" duration="190.00" routeLength="2088.57" waitingTime="5.00" waitingCount="1" stopTime="0.00" timeLoss="26.40" rerouteNo="1" devices="tripinfo_carIn7949:1 routing_carIn7949:1 emissions_carIn7949:1" vType="default_016" speedFactor="0.92" vaporized="">