<?xml version="1.0" encoding="UTF-8"?>

<!-- generated on Thu Nov  4 14:34:48 2021 by Eclipse SUMO sumo Version 1.9.0
<configuration xmlns:xsi="http://www.w3.org/2001/XMLSchema-instance" xsi:noNamespaceSchemaLocation="http://sumo.dlr.de/xsd/sumoConfiguration.xsd">

    <input>
        <net-file value="/mainfs/home/bk2g18/RESCO/environments/ingolstadt21/ingolstadt21.net.xml"/>
        <route-files value="/mainfs/home/bk2g18/RESCO/environments/ingolstadt21/ingolstadt21.rou.xml"/>
    </input>

    <output>
        <tripinfo-output value="/mainfs/home/bk2g18/RESCO/logs/MPLight-tr0-ingolstadt21-21-mplight_full-pressure/tripinfo_98.xml"/>
        <tripinfo-output.write-unfinished value="true"/>
    </output>

    <time>
        <begin value="57600"/>
        <end value="61200"/>
    </time>

    <processing>
        <time-to-teleport value="-1"/>
    </processing>

    <report>
        <xml-validation value="never"/>
        <xml-validation.routes value="never"/>
        <no-warnings value="true"/>
        <no-step-log value="true"/>
    </report>

    <emissions>
        <device.emissions.probability value="1"/>
    </emissions>

    <traci_server>
        <remote-port value="58986"/>
    </traci_server>

    <random_number>
        <random value="true"/>
    </random_number>

</configuration>
-->

<tripinfos xmlns:xsi="http://www.w3.org/2001/XMLSchema-instance" xsi:noNamespaceSchemaLocation="http://sumo.dlr.de/xsd/tripinfo_file.xsd">
    <tripinfo id="h15454c2:3" depart="57612.00" departLane="24608844_1" departPos="5.10" departSpeed="0.00" departDelay="0.50" arrival="57656.00" arrivalLane="32978638#0_1" arrivalPos="49.29" arrivalSpeed="12.14" duration="44.00" routeLength="354.79" waitingTime="0.00" waitingCount="0" stopTime="0.00" timeLoss="7.00" rerouteNo="1" devices="tripinfo_h15454c2:3 routing_h15454c2:3 emissions_h15454c2:3" vType="default_016" speedFactor="0.94" vaporized="">
        <emissions CO_abs="2117.244201" CO2_abs="114069.584950" HC_abs="12.266412" PMx_abs="1.804297" NOx_abs="45.615254" fuel_abs="49.034233" electricity_abs="0"/>
    </tripinfo>
    <tripinfo id="carIn53971:1" depart="57640.00" departLane="272042143_1" departPos="5.10" departSpeed="0.00" departDelay="0.80" arrival="57699.00" arrivalLane="24634414#1_1" arrivalPos="162.19" arrivalSpeed="7.36" duration="59.00" routeLength="493.04" waitingTime="0.00" waitingCount="0" stopTime="0.00" timeLoss="9.18" rerouteNo="1" devices="tripinfo_carIn53971:1 routing_carIn53971:1 emissions_carIn53971:1" vType="default_016" speedFactor="0.92" vaporized="">
        <emissions CO_abs="2427.823661" CO2_abs="131985.585654" HC_abs="14.098738" PMx_abs="2.113148" NOx_abs="52.934630" fuel_abs="56.735592" electricity_abs="0"/>
    </tripinfo>
    <tripinfo id="h7800c1:5" depart="57696.00" departLane="-447569998#1_1" departPos="5.10" departSpeed="0.00" departDelay="0.00" arrival="57717.00" arrivalLane="-447569998#1_1" arrivalPos="180.76" arrivalSpeed="8.86" duration="21.00" routeLength="175.66" waitingTime="0.00" waitingCount="0" stopTime="0.00" timeLoss="2.98" rerouteNo="1" devices="tripinfo_h7800c1:5 routing_h7800c1:5 emissions_h7800c1:5" vType="default_016" speedFactor="1.17" vaporized="">
        <emissions CO_abs="950.232384" CO2_abs="47719.109146" HC_abs="5.424838" PMx_abs="0.769599" NOx_abs="19.262610" fuel_abs="20.512678" electricity_abs="0"/>
    </tripinfo>
    <tripinfo id="carIn27009:1" depart="57673.00" departLane="-447569998#1_1" departPos="5.10" departSpeed="0.00" departDelay="0.50" arrival="57759.00" arrivalLane="-26677539_1" arrivalPos="152.75" arrivalSpeed="8.68" duration="86.00" routeLength="699.63" waitingTime="0.00" waitingCount="0" stopTime="0.00" timeLoss="9.92" rerouteNo="1" devices="tripinfo_carIn27009:1 routing_carIn27009:1 emissions_carIn27009:1" vType="default_015" speedFactor="1.10" vaporized="">
        <emissions CO_abs="3091.901926" CO2_abs="164646.212422" HC_abs="17.840130" PMx_abs="2.484893" NOx_abs="65.358249" fuel_abs="70.775409" electricity_abs="0"/>
    </tripinfo>
    <tripinfo id="h5979c1:5" depart="57669.00" departLane="399835085#1_1" departPos="5.10" departSpeed="0.00" departDelay="0.00" arrival="57761.00" arrivalLane="-315358254#1_1" arrivalPos="137.16" arrivalSpeed="11.75" duration="92.00" routeLength="659.33" waitingTime="0.00" waitingCount="0" stopTime="0.00" timeLoss="11.05" rerouteNo="1" devices="tripinfo_h5979c1:5 routing_h5979c1:5 emissions_h5979c1:5" vType="default_016" speedFactor="0.90" vaporized="">
        <emissions CO_abs="3611.580800" CO2_abs="162340.348123" HC_abs="20.152961" PMx_abs="2.550115" NOx_abs="65.282905" fuel_abs="69.784511" electricity_abs="0"/>
    </tripinfo>
    <tripinfo id="h3568c1:3" depart="57656.00" departLane="266565295#5_1" departPos="5.10" departSpeed="0.00" departDelay="0.80" arrival="57773.00" arrivalLane="-24634415_1" arrivalPos="62.03" arrivalSpeed="15.52" duration="117.00" routeLength="807.40" waitingTime="41.00" waitingCount="1" stopTime="0.00" timeLoss="59.98" rerouteNo="1" devices="tripinfo_h3568c1:3 routing_h3568c1:3 emissions_h3568c1:3" vType="default_016" speedFactor="1.12" vaporized="">
        <emissions CO_abs="9802.446153" CO2_abs="357648.395324" HC_abs="52.952083" PMx_abs="7.132510" NOx_abs="151.182430" fuel_abs="153.740193" electricity_abs="0"/>
    </tripinfo>
    <tripinfo id="h11737c1:1" depart="57665.00" departLane="272042143_1" departPos="5.10" departSpeed="0.00" departDelay="1.50" arrival="57775.00" arrivalLane="-315358254#1_1" arrivalPos="137.16" arrivalSpeed="16.16" duration="110.00" routeLength="1596.88" waitingTime="0.00" waitingCount="0" stopTime="0.00" timeLoss="13.81" rerouteNo="1" devices="tripinfo_h11737c1:1 routing_h11737c1:1 emissions_h11737c1:1" vType="default_016" speedFactor="1.21" vaporized="">
        <emissions CO_abs="3896.267125" CO2_abs="327537.257598" HC_abs="25.350922" PMx_abs="5.874013" NOx_abs="131.524796" fuel_abs="140.793419" electricity_abs="0"/>
    </tripinfo>
    <tripinfo id="h3326c1:2" depart="57656.00" departLane="22716069#0_1" departPos="5.10" departSpeed="0.00" departDelay="0.00" arrival="57789.00" arrivalLane="24634517#13_1" arrivalPos="111.62" arrivalSpeed="11.51" duration="133.00" routeLength="1312.81" waitingTime="0.00" waitingCount="0" stopTime="0.00" timeLoss="16.39" rerouteNo="1" devices="tripinfo_h3326c1:2 routing_h3326c1:2 emissions_h3326c1:2" vType="default_016" speedFactor="0.84" vaporized="">
        <emissions CO_abs="4076.438989" CO2_abs="275900.789303" HC_abs="24.927072" PMx_abs="4.222432" NOx_abs="108.755098" fuel_abs="118.598784" electricity_abs="0"/>
    </tripinfo>
    <tripinfo id="carIn107282:1" depart="57749.00" departLane="-447569998#1_1" departPos="5.10" departSpeed="0.00" departDelay="0.00" arrival="57791.00" arrivalLane="315358242#0_1" arrivalPos="165.37" arrivalSpeed="15.28" duration="42.00" routeLength="448.50" waitingTime="0.00" waitingCount="0" stopTime="0.00" timeLoss="5.44" rerouteNo="1" devices="tripinfo_carIn107282:1 routing_carIn107282:1 emissions_carIn107282:1" vType="default_016" speedFactor="1.15" vaporized="">
        <emissions CO_abs="1679.169227" CO2_abs="109933.793182" HC_abs="10.148010" PMx_abs="1.829817" NOx_abs="43.898709" fuel_abs="47.256018" electricity_abs="0"/>
    </tripinfo>
    <tripinfo id="h4538c1:1" depart="57701.00" departLane="-10427692#1_1" departPos="5.10" departSpeed="0.00" departDelay="0.00" arrival="57794.00" arrivalLane="-128361102#1_1" arrivalPos="274.68" arrivalSpeed="14.15" duration="93.00" routeLength="440.74" waitingTime="52.00" waitingCount="1" stopTime="0.00" timeLoss="63.15" rerouteNo="1" devices="tripinfo_h4538c1:1 routing_h4538c1:1 emissions_h4538c1:1" vType="default_016" speedFactor="1.06" vaporized="">
        <emissions CO_abs="9931.147354" CO2_abs="247479.516230" HC_abs="50.990538" PMx_abs="5.263199" NOx_abs="106.828044" fuel_abs="106.384743" electricity_abs="0"/>
    </tripinfo>
    <tripinfo id="carIn126288:1" depart="57674.00" departLane="272042143_1" departPos="5.10" departSpeed="0.00" departDelay="0.00" arrival="57801.00" arrivalLane="-315358254#1_1" arrivalPos="137.16" arrivalSpeed="12.74" duration="127.00" routeLength="1596.88" waitingTime="0.00" waitingCount="0" stopTime="0.00" timeLoss="11.74" rerouteNo="1" devices="tripinfo_carIn126288:1 routing_carIn126288:1 emissions_carIn126288:1" vType="default_016" speedFactor="1.01" vaporized="">
        <emissions CO_abs="3148.183431" CO2_abs="299208.166130" HC_abs="21.279760" PMx_abs="4.568324" NOx_abs="115.848837" fuel_abs="128.616833" electricity_abs="0"/>
    </tripinfo>
    <tripinfo id="carIn129809:1" depart="57729.00" departLane="-447569998#1_1" departPos="5.10" departSpeed="0.00" departDelay="1.00" arrival="57813.00" arrivalLane="-315358244_1" arrivalPos="33.95" arrivalSpeed="10.85" duration="84.00" routeLength="706.49" waitingTime="0.00" waitingCount="0" stopTime="0.00" timeLoss="8.83" rerouteNo="1" devices="tripinfo_carIn129809:1 routing_carIn129809:1 emissions_carIn129809:1" vType="default_015" speedFactor="0.81" vaporized="">
        <emissions CO_abs="2681.707799" CO2_abs="139818.305940" HC_abs="15.436318" PMx_abs="2.269647" NOx_abs="56.392577" fuel_abs="60.102616" electricity_abs="0"/>
    </tripinfo>
    <tripinfo id="h17549c1:1" depart="57680.00" departLane="-447569998#1_1" departPos="5.10" departSpeed="0.00" departDelay="0.00" arrival="57828.00" arrivalLane="-315358254#1_1" arrivalPos="137.16" arrivalSpeed="14.68" duration="148.00" routeLength="1743.98" waitingTime="5.00" waitingCount="1" stopTime="0.00" timeLoss="23.28" rerouteNo="1" devices="tripinfo_h17549c1:1 routing_h17549c1:1 emissions_h17549c1:1" vType="default_016" speedFactor="1.09" vaporized="">
        <emissions CO_abs="4639.155029" CO2_abs="361337.686216" HC_abs="29.416000" PMx_abs="6.015315" NOx_abs="143.343456" fuel_abs="155.323566" electricity_abs="0"/>
    </tripinfo>
    <tripinfo id="carIn8642:1" depart="57774.00" departLane="-447569998#1_1" departPos="5.10" departSpeed="0.00" departDelay="0.90" arrival="57836.00" arrivalLane="-315358244_1" arrivalPos="33.95" arrivalSpeed="14.76" duration="62.00" routeLength="706.49" waitingTime="0.00" waitingCount="0" stopTime="0.00" timeLoss="5.83" rerouteNo="1" devices="tripinfo_carIn8642:1 routing_carIn8642:1 emissions_carIn8642:1" vType="default_016" speedFactor="1.07" vaporized="">
        <emissions CO_abs="2006.827235" CO2_abs="156387.719442" HC_abs="12.731200" PMx_abs="2.414187" NOx_abs="60.959906" fuel_abs="67.224651" electricity_abs="0"/>
    </tripinfo>
    <tripinfo id="randUni15030:1" depart="57735.00" departLane="386687232#0_1" departPos="5.10" departSpeed="0.00" departDelay="0.10" arrival="57839.00" arrivalLane="26677539_1" arrivalPos="151.98" arrivalSpeed="7.18" duration="104.00" routeLength="919.89" waitingTime="0.00" waitingCount="0" stopTime="0.00" timeLoss="11.40" rerouteNo="1" devices="tripinfo_randUni15030:1 routing_randUni15030:1 emissions_randUni15030:1" vType="random_016" speedFactor="0.90" vaporized="">
        <emissions CO_abs="3935.769231" CO2_abs="216399.627022" HC_abs="22.907035" PMx_abs="3.430194" NOx_abs="86.532837" fuel_abs="93.022002" electricity_abs="0"/>
    </tripinfo>
    <tripinfo id="randUni3548:1" depart="57726.00" departLane="-447569998#1_1" departPos="5.10" departSpeed="0.00" departDelay="0.00" arrival="57866.00" arrivalLane="-315358254#1_1" arrivalPos="137.16" arrivalSpeed="15.34" duration="140.00" routeLength="1743.98" waitingTime="2.00" waitingCount="1" stopTime="0.00" timeLoss="21.02" rerouteNo="1" devices="tripinfo_randUni3548:1 routing_randUni3548:1 emissions_randUni3548:1" vType="random_016" speedFactor="1.15" vaporized="">
        <emissions CO_abs="4800.810972" CO2_abs="355908.099111" HC_abs="30.054212" PMx_abs="6.202195" NOx_abs="143.088925" fuel_abs="152.989379" electricity_abs="0"/>
    </tripinfo>
    <tripinfo id="carIn118538:1" depart="57683.00" departLane="-447569998#1_1" departPos="5.10" departSpeed="0.00" departDelay="1.00" arrival="57882.00" arrivalLane="399835085#1_1" arrivalPos="212.23" arrivalSpeed="6.13" duration="199.00" routeLength="1904.55" waitingTime="0.00" waitingCount="0" stopTime="0.00" timeLoss="15.79" rerouteNo="1" devices="tripinfo_carIn118538:1 routing_carIn118538:1 emissions_carIn118538:1" vType="default_016" speedFactor="0.89" vaporized="">
        <emissions CO_abs="5173.642280" CO2_abs="350503.052526" HC_abs="31.588423" PMx_abs="5.052752" NOx_abs="135.878729" fuel_abs="150.667832" electricity_abs="0"/>
    </tripinfo>
    <tripinfo id="carIn53503:1" depart="57762.00" departLane="-306240162#1_0" departPos="5.10" departSpeed="0.00" departDelay="1.40" arrival="57884.00" arrivalLane="24634510#6_1" arrivalPos="76.64" arrivalSpeed="14.14" duration="122.00" routeLength="1440.47" waitingTime="3.00" waitingCount="1" stopTime="0.00" timeLoss="24.43" rerouteNo="1" devices="tripinfo_carIn53503:1 routing_carIn53503:1 emissions_carIn53503:1" vType="default_016" speedFactor="1.02" vaporized="">
        <emissions CO_abs="4999.683740" CO2_abs="358397.596364" HC_abs="31.221673" PMx_abs="6.447447" NOx_abs="145.967144" fuel_abs="154.059313" electricity_abs="0"/>
    </tripinfo>
    <tripinfo id="h17600c1:1" depart="57662.00" departLane="272042143_1" departPos="5.10" departSpeed="0.00" departDelay="0.30" arrival="57887.00" arrivalLane="201238729#3_1" arrivalPos="431.02" arrivalSpeed="11.74" duration="225.00" routeLength="2100.26" waitingTime="37.00" waitingCount="1" stopTime="0.00" timeLoss="53.77" rerouteNo="1" devices="tripinfo_h17600c1:1 routing_h17600c1:1 emissions_h17600c1:1" vType="default_016" speedFactor="0.89" vaporized="">
        <emissions CO_abs="10009.049836" CO2_abs="466041.566687" HC_abs="56.387448" PMx_abs="7.853320" NOx_abs="187.293851" fuel_abs="200.334430" electricity_abs="0"/>
    </tripinfo>
    <tripinfo id="carIn70533:1" depart="57812.00" departLane="-447569998#1_1" departPos="5.10" departSpeed="0.00" departDelay="0.10" arrival="57894.00" arrivalLane="-315358244_1" arrivalPos="33.95" arrivalSpeed="13.28" duration="82.00" routeLength="706.49" waitingTime="7.00" waitingCount="1" stopTime="0.00" timeLoss="20.66" rerouteNo="1" devices="tripinfo_carIn70533:1 routing_carIn70533:1 emissions_carIn70533:1" vType="default_016" speedFactor="0.99" vaporized="">
        <emissions CO_abs="3288.209632" CO2_abs="190752.637760" HC_abs="19.410085" PMx_abs="3.250050" NOx_abs="77.189006" fuel_abs="81.996886" electricity_abs="0"/>
    </tripinfo>
    <tripinfo id="randUni23028:1" depart="57884.00" departLane="124812856#0_1" departPos="5.10" departSpeed="0.00" departDelay="0.10" arrival="57899.00" arrivalLane="201956810_1" arrivalPos="71.65" arrivalSpeed="12.85" duration="15.00" routeLength="134.91" waitingTime="0.00" waitingCount="0" stopTime="0.00" timeLoss="3.63" rerouteNo="1" devices="tripinfo_randUni23028:1 routing_randUni23028:1 emissions_randUni23028:1" vType="random_016" speedFactor="0.94" vaporized="">
        <emissions CO_abs="1189.683727" CO2_abs="65600.195242" HC_abs="6.967617" PMx_abs="1.242072" NOx_abs="27.542314" fuel_abs="28.198726" electricity_abs="0"/>
    </tripinfo>
    <tripinfo id="carIn13353:1" depart="57838.00" departLane="-447569998#1_1" departPos="5.10" departSpeed="0.00" departDelay="0.30" arrival="57907.00" arrivalLane="-315358244_1" arrivalPos="33.95" arrivalSpeed="12.16" duration="69.00" routeLength="706.49" waitingTime="0.00" waitingCount="0" stopTime="0.00" timeLoss="6.36" rerouteNo="1" devices="tripinfo_carIn13353:1 routing_carIn13353:1 emissions_carIn13353:1" vType="default_016" speedFactor="0.96" vaporized="">
        <emissions CO_abs="2365.643314" CO2_abs="154685.688787" HC_abs="14.352708" PMx_abs="2.428294" NOx_abs="61.179077" fuel_abs="66.493225" electricity_abs="0"/>
    </tripinfo>
    <tripinfo id="carIn63848:1" depart="57841.00" departLane="-447569998#1_1" departPos="5.10" departSpeed="0.00" departDelay="0.80" arrival="57909.00" arrivalLane="-315358244_1" arrivalPos="33.95" arrivalSpeed="13.73" duration="68.00" routeLength="706.49" waitingTime="0.00" waitingCount="0" stopTime="0.00" timeLoss="7.38" rerouteNo="1" devices="tripinfo_carIn63848:1 routing_carIn63848:1 emissions_carIn63848:1" vType="default_016" speedFactor="1.00" vaporized="">
        <emissions CO_abs="2543.102161" CO2_abs="174546.566147" HC_abs="15.641414" PMx_abs="2.817404" NOx_abs="69.393926" fuel_abs="75.030415" electricity_abs="0"/>
    </tripinfo>
    <tripinfo id="carIn13443:1" depart="57729.00" departLane="272042143_1" departPos="5.10" departSpeed="0.00" departDelay="0.80" arrival="57913.00" arrivalLane="399835085#1_1" arrivalPos="212.23" arrivalSpeed="6.73" duration="184.00" routeLength="1757.45" waitingTime="0.00" waitingCount="0" stopTime="0.00" timeLoss="27.64" rerouteNo="1" devices="tripinfo_carIn13443:1 routing_carIn13443:1 emissions_carIn13443:1" vType="default_016" speedFactor="0.91" vaporized="">
        <emissions CO_abs="5396.157110" CO2_abs="353539.770499" HC_abs="32.715572" PMx_abs="5.384435" NOx_abs="139.297275" fuel_abs="151.972873" electricity_abs="0"/>
    </tripinfo>
    <tripinfo id="h317c2:1" depart="57707.00" departLane="-32978638#0_1" departPos="5.10" departSpeed="0.00" departDelay="0.10" arrival="57914.00" arrivalLane="-266565295#5_1" arrivalPos="172.76" arrivalSpeed="14.65" duration="207.00" routeLength="370.53" waitingTime="171.00" waitingCount="1" stopTime="0.00" timeLoss="181.30" rerouteNo="1" devices="tripinfo_h317c2:1 routing_h317c2:1 emissions_h317c2:1" vType="default_016" speedFactor="1.06" vaporized="">
        <emissions CO_abs="29681.865290" CO2_abs="562111.676003" HC_abs="148.370836" PMx_abs="13.302625" NOx_abs="252.353507" fuel_abs="241.640537" electricity_abs="0"/>
    </tripinfo>
    <tripinfo id="carIn132499:1" depart="57740.00" departLane="272042143_1" departPos="5.10" departSpeed="0.00" departDelay="0.70" arrival="57916.00" arrivalLane="201238729#3_1" arrivalPos="431.02" arrivalSpeed="12.61" duration="176.00" routeLength="2100.26" waitingTime="0.00" waitingCount="0" stopTime="0.00" timeLoss="12.86" rerouteNo="1" devices="tripinfo_carIn132499:1 routing_carIn132499:1 emissions_carIn132499:1" vType="default_016" speedFactor="0.93" vaporized="">
        <emissions CO_abs="3624.639267" CO2_abs="353412.647885" HC_abs="24.652136" PMx_abs="4.975499" NOx_abs="134.408080" fuel_abs="151.917565" electricity_abs="0"/>
    </tripinfo>
    <tripinfo id="carIn14532:1" depart="57743.00" departLane="272042143_1" departPos="5.10" departSpeed="0.00" departDelay="1.90" arrival="57916.00" arrivalLane="399835085#1_1" arrivalPos="212.23" arrivalSpeed="7.02" duration="173.00" routeLength="1757.45" waitingTime="0.00" waitingCount="0" stopTime="0.00" timeLoss="21.50" rerouteNo="1" devices="tripinfo_carIn14532:1 routing_carIn14532:1 emissions_carIn14532:1" vType="default_016" speedFactor="0.93" vaporized="">
        <emissions CO_abs="5577.189124" CO2_abs="383207.321078" HC_abs="34.312759" PMx_abs="6.233310" NOx_abs="153.253122" fuel_abs="164.724981" electricity_abs="0"/>
    </tripinfo>
    <tripinfo id="h330c1:1" depart="57736.00" departLane="-32978638#0_1" departPos="5.10" departSpeed="0.00" departDelay="0.20" arrival="57917.00" arrivalLane="-266565295#5_1" arrivalPos="172.76" arrivalSpeed="13.27" duration="181.00" routeLength="370.53" waitingTime="145.00" waitingCount="1" stopTime="0.00" timeLoss="153.10" rerouteNo="1" devices="tripinfo_h330c1:1 routing_h330c1:1 emissions_h330c1:1" vType="default_016" speedFactor="0.98" vaporized="">
        <emissions CO_abs="25398.182308" CO2_abs="490935.333717" HC_abs="127.168799" PMx_abs="11.487973" NOx_abs="219.599713" fuel_abs="211.042998" electricity_abs="0"/>
    </tripinfo>
    <tripinfo id="carIn24709:1" depart="57753.00" departLane="266565295#5_1" departPos="5.10" departSpeed="0.00" departDelay="2.50" arrival="57923.00" arrivalLane="-24634506#2_1" arrivalPos="71.32" arrivalSpeed="13.30" duration="170.00" routeLength="1450.12" waitingTime="32.00" waitingCount="1" stopTime="0.00" timeLoss="51.69" rerouteNo="1" devices="tripinfo_carIn24709:1 routing_carIn24709:1 emissions_carIn24709:1" vType="default_016" speedFactor="1.01" vaporized="">
        <emissions CO_abs="9090.299160" CO2_abs="391751.622840" HC_abs="50.514535" PMx_abs="6.961730" NOx_abs="160.145966" fuel_abs="168.399855" electricity_abs="0"/>
    </tripinfo>
    <tripinfo id="carIn82298:1" depart="57783.00" departLane="-447569998#1_1" departPos="5.10" departSpeed="0.00" departDelay="0.60" arrival="57928.00" arrivalLane="-315358254#1_1" arrivalPos="137.16" arrivalSpeed="15.00" duration="145.00" routeLength="1746.60" waitingTime="1.00" waitingCount="1" stopTime="0.00" timeLoss="22.11" rerouteNo="1" devices="tripinfo_carIn82298:1 routing_carIn82298:1 emissions_carIn82298:1" vType="default_016" speedFactor="1.11" vaporized="">
        <emissions CO_abs="5036.426139" CO2_abs="381330.610133" HC_abs="31.837462" PMx_abs="6.544039" NOx_abs="152.730956" fuel_abs="163.917490" electricity_abs="0"/>
    </tripinfo>
    <tripinfo id="h3426c1:1" depart="57864.00" departLane="-160314345#2_1" departPos="5.10" departSpeed="0.00" departDelay="0.00" arrival="57933.00" arrivalLane="386687235_1" arrivalPos="80.84" arrivalSpeed="14.51" duration="69.00" routeLength="726.87" waitingTime="0.00" waitingCount="0" stopTime="0.00" timeLoss="7.77" rerouteNo="1" devices="tripinfo_h3426c1:1 routing_h3426c1:1 emissions_h3426c1:1" vType="default_016" speedFactor="1.11" vaporized="">
        <emissions CO_abs="2600.501844" CO2_abs="173326.222567" HC_abs="15.855434" PMx_abs="2.847350" NOx_abs="69.155956" fuel_abs="74.505830" electricity_abs="0"/>
    </tripinfo>
    <tripinfo id="carIn81681:1" depart="57726.00" departLane="272042143_1" departPos="5.10" departSpeed="0.00" departDelay="0.30" arrival="57934.00" arrivalLane="306240162#0_0" arrivalPos="220.43" arrivalSpeed="13.47" duration="208.00" routeLength="2246.89" waitingTime="4.00" waitingCount="1" stopTime="0.00" timeLoss="26.03" rerouteNo="1" devices="tripinfo_carIn81681:1 routing_carIn81681:1 emissions_carIn81681:1" vType="default_016" speedFactor="0.81" vaporized="">
        <emissions CO_abs="5880.979582" CO2_abs="450850.018864" HC_abs="37.200768" PMx_abs="7.095250" NOx_abs="177.264245" fuel_abs="193.801705" electricity_abs="0"/>
    </tripinfo>
    <tripinfo id="carIn80913:1" depart="57732.00" departLane="272042143_1" departPos="5.10" departSpeed="0.00" departDelay="0.40" arrival="57936.00" arrivalLane="306240162#0_0" arrivalPos="220.43" arrivalSpeed="15.92" duration="204.00" routeLength="2246.89" waitingTime="4.00" waitingCount="1" stopTime="0.00" timeLoss="56.31" rerouteNo="1" devices="tripinfo_carIn80913:1 routing_carIn80913:1 emissions_carIn80913:1" vType="default_016" speedFactor="1.00" vaporized="">
        <emissions CO_abs="7359.085659" CO2_abs="526688.880586" HC_abs="45.830595" PMx_abs="9.036897" NOx_abs="212.243012" fuel_abs="226.400928" electricity_abs="0"/>
    </tripinfo>
    <tripinfo id="carIn101266:1" depart="57737.00" departLane="272042143_1" departPos="5.10" departSpeed="0.00" departDelay="0.50" arrival="57938.00" arrivalLane="306240162#0_0" arrivalPos="220.43" arrivalSpeed="15.89" duration="201.00" routeLength="2246.89" waitingTime="2.00" waitingCount="1" stopTime="0.00" timeLoss="51.23" rerouteNo="1" devices="tripinfo_carIn101266:1 routing_carIn101266:1 emissions_carIn101266:1" vType="default_016" speedFactor="0.99" vaporized="">
        <emissions CO_abs="8245.918185" CO2_abs="565260.782512" HC_abs="50.808139" PMx_abs="9.935608" NOx_abs="229.503516" fuel_abs="242.981249" electricity_abs="0"/>
    </tripinfo>
    <tripinfo id="carIn121351:1" depart="57755.00" departLane="-447569998#1_1" departPos="5.10" departSpeed="0.00" departDelay="0.30" arrival="57946.00" arrivalLane="399835085#1_1" arrivalPos="212.23" arrivalSpeed="7.35" duration="191.00" routeLength="1904.55" waitingTime="4.00" waitingCount="1" stopTime="0.00" timeLoss="27.83" rerouteNo="1" devices="tripinfo_carIn121351:1 routing_carIn121351:1 emissions_carIn121351:1" vType="default_015" speedFactor="1.00" vaporized="">
        <emissions CO_abs="5761.529817" CO2_abs="392727.265220" HC_abs="35.298979" PMx_abs="6.005287" NOx_abs="153.717248" fuel_abs="168.817924" electricity_abs="0"/>
    </tripinfo>
    <tripinfo id="carIn9695:1" depart="57822.00" departLane="272042143_1" departPos="5.10" departSpeed="0.00" departDelay="0.80" arrival="57955.00" arrivalLane="-315358254#1_1" arrivalPos="137.16" arrivalSpeed="12.61" duration="133.00" routeLength="1596.88" waitingTime="0.00" waitingCount="0" stopTime="0.00" timeLoss="12.86" rerouteNo="1" devices="tripinfo_carIn9695:1 routing_carIn9695:1 emissions_carIn9695:1" vType="default_016" speedFactor="0.97" vaporized="">
        <emissions CO_abs="3666.719573" CO2_abs="311379.827002" HC_abs="23.944148" PMx_abs="4.876209" NOx_abs="121.991323" fuel_abs="133.848995" electricity_abs="0"/>
    </tripinfo>
    <tripinfo id="carIn115169:1" depart="57759.00" departLane="24599188#0.94_1" departPos="5.10" departSpeed="0.00" departDelay="0.50" arrival="57961.00" arrivalLane="-10427692#3_1" arrivalPos="28.64" arrivalSpeed="20.47" duration="202.00" routeLength="2183.23" waitingTime="0.00" waitingCount="0" stopTime="0.00" timeLoss="27.05" rerouteNo="1" devices="tripinfo_carIn115169:1 routing_carIn115169:1 emissions_carIn115169:1" vType="default_016" speedFactor="0.96" vaporized="">
        <emissions CO_abs="7421.308168" CO2_abs="512525.268541" HC_abs="45.789690" PMx_abs="8.672263" NOx_abs="206.376290" fuel_abs="220.312952" electricity_abs="0"/>
    </tripinfo>
    <tripinfo id="h7032c2:3" depart="57863.00" departLane="315358244_1" departPos="5.10" departSpeed="0.00" departDelay="0.40" arrival="57967.00" arrivalLane="26677541_1" arrivalPos="152.31" arrivalSpeed="13.14" duration="104.00" routeLength="925.70" waitingTime="0.00" waitingCount="0" stopTime="0.00" timeLoss="14.34" rerouteNo="1" devices="tripinfo_h7032c2:3 routing_h7032c2:3 emissions_h7032c2:3" vType="default_016" speedFactor="1.00" vaporized="">
        <emissions CO_abs="4111.632578" CO2_abs="234930.804313" HC_abs="24.182388" PMx_abs="3.934811" NOx_abs="95.172291" fuel_abs="100.987407" electricity_abs="0"/>
    </tripinfo>
    <tripinfo id="randUni11215:1" depart="57953.00" departLane="124812856#0_1" departPos="5.10" departSpeed="0.00" departDelay="0.30" arrival="57967.00" arrivalLane="201956810_1" arrivalPos="71.65" arrivalSpeed="16.70" duration="14.00" routeLength="134.91" waitingTime="0.00" waitingCount="0" stopTime="0.00" timeLoss="4.77" rerouteNo="1" devices="tripinfo_randUni11215:1 routing_randUni11215:1 emissions_randUni11215:1" vType="random_016" speedFactor="1.24" vaporized="">
        <emissions CO_abs="1309.047591" CO2_abs="75935.010154" HC_abs="7.764017" PMx_abs="1.461619" NOx_abs="31.735347" fuel_abs="32.641159" electricity_abs="0"/>
    </tripinfo>
    <tripinfo id="carIn95912:1" depart="57825.00" departLane="272042143_1" departPos="5.10" departSpeed="0.00" departDelay="1.40" arrival="57976.00" arrivalLane="201238729#3_1" arrivalPos="431.02" arrivalSpeed="15.10" duration="151.00" routeLength="2100.26" waitingTime="0.00" waitingCount="0" stopTime="0.00" timeLoss="11.72" rerouteNo="1" devices="tripinfo_carIn95912:1 routing_carIn95912:1 emissions_carIn95912:1" vType="default_016" speedFactor="1.09" vaporized="">
        <emissions CO_abs="3227.374831" CO2_abs="350059.582761" HC_abs="22.672793" PMx_abs="5.318187" NOx_abs="133.888616" fuel_abs="150.475459" electricity_abs="0"/>
    </tripinfo>
    <tripinfo id="carIn76994:1" depart="57828.00" departLane="272042143_1" departPos="5.10" departSpeed="0.00" departDelay="2.80" arrival="57982.00" arrivalLane="399835085#1_1" arrivalPos="212.23" arrivalSpeed="8.69" duration="154.00" routeLength="1757.45" waitingTime="0.00" waitingCount="0" stopTime="0.00" timeLoss="18.64" rerouteNo="1" devices="tripinfo_carIn76994:1 routing_carIn76994:1 emissions_carIn76994:1" vType="default_016" speedFactor="1.05" vaporized="">
        <emissions CO_abs="4358.181581" CO2_abs="349721.943384" HC_abs="27.950458" PMx_abs="5.494076" NOx_abs="137.295549" fuel_abs="150.330802" electricity_abs="0"/>
    </tripinfo>
    <tripinfo id="carIn42952:1" depart="57836.00" departLane="272042143_1" departPos="5.10" departSpeed="0.00" departDelay="6.00" arrival="57985.00" arrivalLane="399835085#1_1" arrivalPos="212.23" arrivalSpeed="8.07" duration="149.00" routeLength="1757.45" waitingTime="0.00" waitingCount="0" stopTime="0.00" timeLoss="18.76" rerouteNo="1" devices="tripinfo_carIn42952:1 routing_carIn42952:1 emissions_carIn42952:1" vType="default_016" speedFactor="1.09" vaporized="">
        <emissions CO_abs="4196.139454" CO2_abs="340325.480294" HC_abs="26.944556" PMx_abs="5.343223" NOx_abs="133.070921" fuel_abs="146.291666" electricity_abs="0"/>
    </tripinfo>
    <tripinfo id="carIn113750:1" depart="57961.00" departLane="24599188#0.94_1" departPos="5.10" departSpeed="0.00" departDelay="0.30" arrival="57986.00" arrivalLane="24599188#0.94_1" arrivalPos="186.59" arrivalSpeed="8.19" duration="25.00" routeLength="181.49" waitingTime="0.00" waitingCount="0" stopTime="0.00" timeLoss="4.69" rerouteNo="1" devices="tripinfo_carIn113750:1 routing_carIn113750:1 emissions_carIn113750:1" vType="default_016" speedFactor="1.09" vaporized="">
        <emissions CO_abs="1277.422647" CO2_abs="57628.115780" HC_abs="7.149066" PMx_abs="0.990171" NOx_abs="23.746290" fuel_abs="24.772201" electricity_abs="0"/>
    </tripinfo>
    <tripinfo id="carIn89697:1" depart="57851.00" departLane="272042143_1" departPos="5.10" departSpeed="0.00" departDelay="13.00" arrival="57995.00" arrivalLane="201238729#3_1" arrivalPos="431.02" arrivalSpeed="15.42" duration="144.00" routeLength="2100.26" waitingTime="0.00" waitingCount="0" stopTime="0.00" timeLoss="15.81" rerouteNo="1" devices="tripinfo_carIn89697:1 routing_carIn89697:1 emissions_carIn89697:1" vType="default_016" speedFactor="1.19" vaporized="">