<?xml version="1.0" encoding="UTF-8"?>

<!-- generated on Thu Nov  4 13:19:39 2021 by Eclipse SUMO sumo Version 1.9.0
<configuration xmlns:xsi="http://www.w3.org/2001/XMLSchema-instance" xsi:noNamespaceSchemaLocation="http://sumo.dlr.de/xsd/sumoConfiguration.xsd">

    <input>
        <net-file value="/mainfs/home/bk2g18/RESCO/environments/ingolstadt21/ingolstadt21.net.xml"/>
        <route-files value="/mainfs/home/bk2g18/RESCO/environments/ingolstadt21/ingolstadt21.rou.xml"/>
    </input>

    <output>
        <tripinfo-output value="/mainfs/home/bk2g18/RESCO/logs/MPLight-tr0-ingolstadt21-21-mplight_full-pressure/tripinfo_8.xml"/>
        <tripinfo-output.write-unfinished value="true"/>
    </output>

    <time>
        <begin value="57600"/>
        <end value="61200"/>
    </time>

    <processing>
        <time-to-teleport value="-1"/>
    </processing>

    <report>
        <xml-validation value="never"/>
        <xml-validation.routes value="never"/>
        <no-warnings value="true"/>
        <no-step-log value="true"/>
    </report>

    <emissions>
        <device.emissions.probability value="1"/>
    </emissions>

    <traci_server>
        <remote-port value="59059"/>
    </traci_server>

    <random_number>
        <random value="true"/>
    </random_number>

</configuration>
-->

<tripinfos xmlns:xsi="http://www.w3.org/2001/XMLSchema-instance" xsi:noNamespaceSchemaLocation="http://sumo.dlr.de/xsd/tripinfo_file.xsd">
    <tripinfo id="h15454c2:3" depart="57612.00" departLane="24608844_1" departPos="5.10" departSpeed="0.00" departDelay="0.50" arrival="57652.00" arrivalLane="32978638#0_1" arrivalPos="49.29" arrivalSpeed="13.43" duration="40.00" routeLength="354.79" waitingTime="0.00" waitingCount="0" stopTime="0.00" timeLoss="5.97" rerouteNo="1" devices="tripinfo_h15454c2:3 routing_h15454c2:3 emissions_h15454c2:3" vType="default_016" speedFactor="0.99" vaporized="">
        <emissions CO_abs="2195.441856" CO2_abs="120427.805485" HC_abs="12.815060" PMx_abs="2.138107" NOx_abs="49.664305" fuel_abs="51.767003" electricity_abs="0"/>
    </tripinfo>
    <tripinfo id="carIn60260:1" depart="57606.00" departLane="315358254#0_1" departPos="5.10" departSpeed="0.00" departDelay="0.90" arrival="57663.00" arrivalLane="399835085#1_1" arrivalPos="212.23" arrivalSpeed="7.99" duration="57.00" routeLength="430.98" waitingTime="0.00" waitingCount="0" stopTime="0.00" timeLoss="11.39" rerouteNo="1" devices="tripinfo_carIn60260:1 routing_carIn60260:1 emissions_carIn60260:1" vType="default_016" speedFactor="1.02" vaporized="">
        <emissions CO_abs="2642.783493" CO2_abs="126466.264945" HC_abs="14.964751" PMx_abs="2.166940" NOx_abs="51.856292" fuel_abs="54.363077" electricity_abs="0"/>
    </tripinfo>
    <tripinfo id="carIn53971:1" depart="57640.00" departLane="272042143_1" departPos="5.10" departSpeed="0.00" departDelay="0.80" arrival="57690.00" arrivalLane="24634414#1_1" arrivalPos="162.19" arrivalSpeed="8.57" duration="50.00" routeLength="493.04" waitingTime="0.00" waitingCount="0" stopTime="0.00" timeLoss="8.37" rerouteNo="1" devices="tripinfo_carIn53971:1 routing_carIn53971:1 emissions_carIn53971:1" vType="default_016" speedFactor="1.09" vaporized="">
        <emissions CO_abs="2378.131875" CO2_abs="140899.984814" HC_abs="14.119337" PMx_abs="2.432667" NOx_abs="57.423740" fuel_abs="60.567124" electricity_abs="0"/>
    </tripinfo>
    <tripinfo id="h3688c1:1" depart="57625.00" departLane="201201950#1_1" departPos="5.10" departSpeed="0.00" departDelay="0.00" arrival="57714.00" arrivalLane="32978638#0_1" arrivalPos="49.29" arrivalSpeed="15.85" duration="89.00" routeLength="1089.75" waitingTime="4.00" waitingCount="1" stopTime="0.00" timeLoss="19.04" rerouteNo="1" devices="tripinfo_h3688c1:1 routing_h3688c1:1 emissions_h3688c1:1" vType="default_016" speedFactor="1.14" vaporized="">
        <emissions CO_abs="3826.632188" CO2_abs="278851.141843" HC_abs="23.925449" PMx_abs="5.026464" NOx_abs="113.286192" fuel_abs="119.865752" electricity_abs="0"/>
    </tripinfo>
    <tripinfo id="h4538c1:1" depart="57701.00" departLane="-10427692#1_1" departPos="5.10" departSpeed="0.00" departDelay="0.00" arrival="57738.00" arrivalLane="-128361102#1_1" arrivalPos="274.68" arrivalSpeed="13.53" duration="37.00" routeLength="440.74" waitingTime="0.00" waitingCount="0" stopTime="0.00" timeLoss="7.12" rerouteNo="1" devices="tripinfo_h4538c1:1 routing_h4538c1:1 emissions_h4538c1:1" vType="default_016" speedFactor="1.05" vaporized="">
        <emissions CO_abs="1486.842460" CO2_abs="105542.241118" HC_abs="9.224725" PMx_abs="1.795859" NOx_abs="42.371604" fuel_abs="45.368114" electricity_abs="0"/>
    </tripinfo>
    <tripinfo id="h3568c1:3" depart="57656.00" departLane="266565295#5_1" departPos="5.10" departSpeed="0.00" departDelay="0.80" arrival="57744.00" arrivalLane="-24634415_1" arrivalPos="62.03" arrivalSpeed="15.16" duration="88.00" routeLength="807.40" waitingTime="11.00" waitingCount="1" stopTime="0.00" timeLoss="29.32" rerouteNo="1" devices="tripinfo_h3568c1:3 routing_h3568c1:3 emissions_h3568c1:3" vType="default_016" speedFactor="1.11" vaporized="">
        <emissions CO_abs="5139.585247" CO2_abs="254661.434385" HC_abs="29.406696" PMx_abs="4.982229" NOx_abs="107.405631" fuel_abs="109.468342" electricity_abs="0"/>
    </tripinfo>
    <tripinfo id="h7800c1:5" depart="57696.00" departLane="-447569998#1_1" departPos="5.10" departSpeed="0.00" departDelay="0.00" arrival="57745.00" arrivalLane="-447569998#1_2" arrivalPos="180.76" arrivalSpeed="3.66" duration="49.00" routeLength="175.66" waitingTime="20.00" waitingCount="1" stopTime="0.00" timeLoss="27.10" rerouteNo="1" devices="tripinfo_h7800c1:5 routing_h7800c1:5 emissions_h7800c1:5" vType="default_016" speedFactor="0.97" vaporized="">
        <emissions CO_abs="3667.193846" CO2_abs="93084.309010" HC_abs="18.842541" PMx_abs="1.801878" NOx_abs="39.537145" fuel_abs="40.014587" electricity_abs="0"/>
    </tripinfo>
    <tripinfo id="carIn121703:1" depart="57647.00" departLane="386687232#0_1" departPos="5.10" departSpeed="0.00" departDelay="0.30" arrival="57748.00" arrivalLane="-315358244_1" arrivalPos="33.95" arrivalSpeed="13.37" duration="101.00" routeLength="1157.39" waitingTime="4.00" waitingCount="1" stopTime="0.00" timeLoss="15.46" rerouteNo="1" devices="tripinfo_carIn121703:1 routing_carIn121703:1 emissions_carIn121703:1" vType="default_016" speedFactor="0.99" vaporized="">
        <emissions CO_abs="3050.006876" CO2_abs="238137.883540" HC_abs="19.447694" PMx_abs="3.817115" NOx_abs="93.791406" fuel_abs="102.365472" electricity_abs="0"/>
    </tripinfo>
    <tripinfo id="h317c2:1" depart="57707.00" departLane="-32978638#0_1" departPos="5.10" departSpeed="0.00" departDelay="0.10" arrival="57752.00" arrivalLane="-266565295#5_1" arrivalPos="172.76" arrivalSpeed="16.65" duration="45.00" routeLength="370.53" waitingTime="10.00" waitingCount="1" stopTime="0.00" timeLoss="22.27" rerouteNo="1" devices="tripinfo_h317c2:1 routing_h317c2:1 emissions_h317c2:1" vType="default_016" speedFactor="1.21" vaporized="">
        <emissions CO_abs="3245.290009" CO2_abs="159146.166369" HC_abs="18.567144" PMx_abs="3.156279" NOx_abs="66.956953" fuel_abs="68.410321" electricity_abs="0"/>
    </tripinfo>
    <tripinfo id="h5979c1:5" depart="57669.00" departLane="399835085#1_1" departPos="5.10" departSpeed="0.00" departDelay="0.00" arrival="57756.00" arrivalLane="-315358254#1_1" arrivalPos="137.16" arrivalSpeed="15.65" duration="87.00" routeLength="659.33" waitingTime="6.00" waitingCount="1" stopTime="0.00" timeLoss="26.08" rerouteNo="1" devices="tripinfo_h5979c1:5 routing_h5979c1:5 emissions_h5979c1:5" vType="default_016" speedFactor="1.20" vaporized="">
        <emissions CO_abs="3815.021875" CO2_abs="185583.681374" HC_abs="21.735552" PMx_abs="3.490396" NOx_abs="78.027912" fuel_abs="79.774904" electricity_abs="0"/>
    </tripinfo>
    <tripinfo id="carIn30817:1" depart="57681.00" departLane="315358244_1" departPos="5.10" departSpeed="0.00" departDelay="0.20" arrival="57756.00" arrivalLane="447569997#1_1" arrivalPos="180.93" arrivalSpeed="7.22" duration="75.00" routeLength="718.04" waitingTime="1.00" waitingCount="1" stopTime="0.00" timeLoss="11.90" rerouteNo="1" devices="tripinfo_carIn30817:1 routing_carIn30817:1 emissions_carIn30817:1" vType="default_016" speedFactor="0.98" vaporized="">
        <emissions CO_abs="2938.664752" CO2_abs="178421.975501" HC_abs="17.520135" PMx_abs="2.892846" NOx_abs="71.332937" fuel_abs="76.696532" electricity_abs="0"/>
    </tripinfo>
    <tripinfo id="carIn22761:1" depart="57616.00" departLane="-306240162#1_0" departPos="5.10" departSpeed="0.00" departDelay="2.10" arrival="57759.00" arrivalLane="399835085#1_1" arrivalPos="212.23" arrivalSpeed="9.26" duration="143.00" routeLength="1093.26" waitingTime="43.00" waitingCount="2" stopTime="0.00" timeLoss="74.37" rerouteNo="1" devices="tripinfo_carIn22761:1 routing_carIn22761:1 emissions_carIn22761:1" vType="default_016" speedFactor="1.14" vaporized="">
        <emissions CO_abs="11837.785004" CO2_abs="467602.521258" HC_abs="65.018935" PMx_abs="9.728870" NOx_abs="199.284425" fuel_abs="201.004192" electricity_abs="0"/>
    </tripinfo>
    <tripinfo id="h12244c1:3" depart="57612.00" departLane="315358244_1" departPos="5.10" departSpeed="0.00" departDelay="0.40" arrival="57761.00" arrivalLane="386687235_1" arrivalPos="80.84" arrivalSpeed="16.46" duration="149.00" routeLength="1186.14" waitingTime="53.00" waitingCount="2" stopTime="0.00" timeLoss="79.69" rerouteNo="1" devices="tripinfo_h12244c1:3 routing_h12244c1:3 emissions_h12244c1:3" vType="default_016" speedFactor="1.25" vaporized="">
        <emissions CO_abs="12278.092574" CO2_abs="445613.094335" HC_abs="66.250974" PMx_abs="9.120137" NOx_abs="188.630651" fuel_abs="191.552869" electricity_abs="0"/>
    </tripinfo>
    <tripinfo id="h9563c2:5" depart="57631.00" departLane="315358244_1" departPos="5.10" departSpeed="0.00" departDelay="0.70" arrival="57764.00" arrivalLane="386687235_1" arrivalPos="80.84" arrivalSpeed="13.57" duration="133.00" routeLength="1186.14" waitingTime="21.00" waitingCount="2" stopTime="0.00" timeLoss="45.76" rerouteNo="1" devices="tripinfo_h9563c2:5 routing_h9563c2:5 emissions_h9563c2:5" vType="default_016" speedFactor="1.00" vaporized="">
        <emissions CO_abs="6155.239332" CO2_abs="317434.267555" HC_abs="35.401754" PMx_abs="5.399968" NOx_abs="127.549491" fuel_abs="136.452909" electricity_abs="0"/>
    </tripinfo>
    <tripinfo id="h7181c1:1" depart="57660.00" departLane="315358254#0_1" departPos="5.10" departSpeed="0.00" departDelay="0.10" arrival="57770.00" arrivalLane="306240162#0_0" arrivalPos="220.43" arrivalSpeed="19.74" duration="110.00" routeLength="932.35" waitingTime="44.00" waitingCount="2" stopTime="0.00" timeLoss="66.00" rerouteNo="1" devices="tripinfo_h7181c1:1 routing_h7181c1:1 emissions_h7181c1:1" vType="default_016" speedFactor="1.19" vaporized="">
        <emissions CO_abs="11203.343073" CO2_abs="430897.227284" HC_abs="61.334514" PMx_abs="9.318218" NOx_abs="183.624962" fuel_abs="185.225958" electricity_abs="0"/>
    </tripinfo>
    <tripinfo id="carIn118591:1" depart="57689.00" departLane="315358244_1" departPos="5.10" departSpeed="0.00" departDelay="0.20" arrival="57771.00" arrivalLane="386687235_1" arrivalPos="80.84" arrivalSpeed="17.38" duration="82.00" routeLength="1186.14" waitingTime="0.00" waitingCount="0" stopTime="0.00" timeLoss="12.47" rerouteNo="1" devices="tripinfo_carIn118591:1 routing_carIn118591:1 emissions_carIn118591:1" vType="default_016" speedFactor="1.25" vaporized="">
        <emissions CO_abs="3145.288587" CO2_abs="272631.735864" HC_abs="20.701329" PMx_abs="4.789993" NOx_abs="108.503562" fuel_abs="117.192138" electricity_abs="0"/>
    </tripinfo>
    <tripinfo id="h645c1:1" depart="57622.00" departLane="266565295#5_1" departPos="5.10" departSpeed="0.00" departDelay="0.40" arrival="57772.00" arrivalLane="-315358244_1" arrivalPos="33.95" arrivalSpeed="15.63" duration="150.00" routeLength="1910.83" waitingTime="8.00" waitingCount="1" stopTime="0.00" timeLoss="27.05" rerouteNo="1" devices="tripinfo_h645c1:1 routing_h645c1:1 emissions_h645c1:1" vType="default_016" speedFactor="1.13" vaporized="">
        <emissions CO_abs="5241.661257" CO2_abs="424462.340589" HC_abs="33.625202" PMx_abs="7.131159" NOx_abs="167.663163" fuel_abs="182.457984" electricity_abs="0"/>
    </tripinfo>
    <tripinfo id="h3326c1:2" depart="57656.00" departLane="22716069#0_1" departPos="5.10" departSpeed="0.00" departDelay="0.00" arrival="57776.00" arrivalLane="24634517#13_1" arrivalPos="111.62" arrivalSpeed="12.19" duration="120.00" routeLength="1312.81" waitingTime="0.00" waitingCount="0" stopTime="0.00" timeLoss="14.64" rerouteNo="1" devices="tripinfo_h3326c1:2 routing_h3326c1:2 emissions_h3326c1:2" vType="default_016" speedFactor="0.93" vaporized="">
        <emissions CO_abs="4206.137216" CO2_abs="315592.030295" HC_abs="26.508525" PMx_abs="5.092883" NOx_abs="125.406367" fuel_abs="135.659751" electricity_abs="0"/>
    </tripinfo>
    <tripinfo id="carIn12365:1" depart="57713.00" departLane="315358244_1" departPos="5.10" departSpeed="0.00" departDelay="0.50" arrival="57784.00" arrivalLane="447569997#1_1" arrivalPos="180.93" arrivalSpeed="7.60" duration="71.00" routeLength="718.04" waitingTime="0.00" waitingCount="0" stopTime="0.00" timeLoss="7.44" rerouteNo="1" devices="tripinfo_carIn12365:1 routing_carIn12365:1 emissions_carIn12365:1" vType="default_016" speedFactor="0.97" vaporized="">
        <emissions CO_abs="2455.777435" CO2_abs="162559.100044" HC_abs="14.944950" PMx_abs="2.544536" NOx_abs="64.187592" fuel_abs="69.877683" electricity_abs="0"/>
    </tripinfo>
    <tripinfo id="h330c1:1" depart="57736.00" departLane="-32978638#0_1" departPos="5.10" departSpeed="0.00" departDelay="0.20" arrival="57794.00" arrivalLane="-266565295#5_1" arrivalPos="172.76" arrivalSpeed="14.14" duration="58.00" routeLength="370.53" waitingTime="23.00" waitingCount="1" stopTime="0.00" timeLoss="32.39" rerouteNo="1" devices="tripinfo_h330c1:1 routing_h330c1:1 emissions_h330c1:1" vType="default_016" speedFactor="1.09" vaporized="">
        <emissions CO_abs="4922.205754" CO2_abs="174356.749107" HC_abs="26.531010" PMx_abs="3.519840" NOx_abs="74.041252" fuel_abs="74.949763" electricity_abs="0"/>
    </tripinfo>
    <tripinfo id="S5R_frequency1.2" depart="57656.00" departLane="315358250#0_1" departPos="12.10" departSpeed="0.00" departDelay="44.40" arrival="57797.00" arrivalLane="386687235_1" arrivalPos="80.84" arrivalSpeed="13.59" duration="141.00" routeLength="1115.62" waitingTime="36.00" waitingCount="2" stopTime="0.00" timeLoss="59.28" rerouteNo="1" devices="tripinfo_S5R_frequency1.2 routing_S5R_frequency1.2 emissions_S5R_frequency1.2" vType="bus" speedFactor="1.00" vaporized="">
        <emissions CO_abs="2831.365827" CO2_abs="1510014.248851" HC_abs="618.329802" PMx_abs="297.913780" NOx_abs="12425.453270" fuel_abs="643.921728" electricity_abs="0"/>
    </tripinfo>
    <tripinfo id="carIn80064:1" depart="57603.00" departLane="128361109#1_1" departPos="5.10" departSpeed="0.00" departDelay="0.40" arrival="57798.00" arrivalLane="-315358254#1_1" arrivalPos="137.16" arrivalSpeed="15.08" duration="195.00" routeLength="1587.97" waitingTime="67.00" waitingCount="4" stopTime="0.00" timeLoss="114.00" rerouteNo="1" devices="tripinfo_carIn80064:1 routing_carIn80064:1 emissions_carIn80064:1" vType="default_016" speedFactor="1.11" vaporized="">
        <emissions CO_abs="16153.468375" CO2_abs="643961.182106" HC_abs="88.917500" PMx_abs="13.467523" NOx_abs="272.680891" fuel_abs="276.813939" electricity_abs="0"/>
    </tripinfo>
    <tripinfo id="carIn86816:1" depart="57617.00" departLane="128361102#0_1" departPos="5.10" departSpeed="0.00" departDelay="0.80" arrival="57804.00" arrivalLane="201956811#0_1" arrivalPos="40.40" arrivalSpeed="12.21" duration="187.00" routeLength="2067.33" waitingTime="0.00" waitingCount="0" stopTime="0.00" timeLoss="28.50" rerouteNo="1" devices="tripinfo_carIn86816:1 routing_carIn86816:1 emissions_carIn86816:1" vType="default_016" speedFactor="0.95" vaporized="">
        <emissions CO_abs="6412.420350" CO2_abs="467601.649862" HC_abs="40.110485" PMx_abs="7.688551" NOx_abs="186.497866" fuel_abs="201.002256" electricity_abs="0"/>
    </tripinfo>
    <tripinfo id="h11737c1:1" depart="57665.00" departLane="272042143_1" departPos="5.10" departSpeed="0.00" departDelay="1.50" arrival="57810.00" arrivalLane="-315358254#1_1" arrivalPos="137.16" arrivalSpeed="11.79" duration="145.00" routeLength="1596.88" waitingTime="0.00" waitingCount="0" stopTime="0.00" timeLoss="16.98" rerouteNo="1" devices="tripinfo_h11737c1:1 routing_h11737c1:1 emissions_h11737c1:1" vType="default_016" speedFactor="0.92" vaporized="">
        <emissions CO_abs="3951.957289" CO2_abs="306316.588674" HC_abs="25.094533" PMx_abs="4.692719" NOx_abs="119.841093" fuel_abs="131.672927" electricity_abs="0"/>
    </tripinfo>
    <tripinfo id="carIn126288:1" depart="57674.00" departLane="272042143_1" departPos="5.10" departSpeed="0.00" departDelay="0.00" arrival="57811.00" arrivalLane="-315358254#1_1" arrivalPos="137.16" arrivalSpeed="13.48" duration="137.00" routeLength="1596.88" waitingTime="0.00" waitingCount="0" stopTime="0.00" timeLoss="23.45" rerouteNo="1" devices="tripinfo_carIn126288:1 routing_carIn126288:1 emissions_carIn126288:1" vType="default_016" speedFactor="1.03" vaporized="">
        <emissions CO_abs="4422.335140" CO2_abs="343804.219346" HC_abs="28.154972" PMx_abs="5.706834" NOx_abs="137.287963" fuel_abs="147.786636" electricity_abs="0"/>
    </tripinfo>
    <tripinfo id="carIn27009:1" depart="57673.00" departLane="-447569998#1_1" departPos="5.10" departSpeed="0.00" departDelay="0.50" arrival="57813.00" arrivalLane="-26677539_1" arrivalPos="152.75" arrivalSpeed="7.84" duration="140.00" routeLength="699.63" waitingTime="42.00" waitingCount="1" stopTime="0.00" timeLoss="57.85" rerouteNo="1" devices="tripinfo_carIn27009:1 routing_carIn27009:1 emissions_carIn27009:1" vType="default_015" speedFactor="1.03" vaporized="">
        <emissions CO_abs="9987.091033" CO2_abs="281058.041746" HC_abs="51.988921" PMx_abs="5.467794" NOx_abs="119.505068" fuel_abs="120.818769" electricity_abs="0"/>
    </tripinfo>
    <tripinfo id="carIn107282:1" depart="57749.00" departLane="-447569998#1_1" departPos="5.10" departSpeed="0.00" departDelay="0.00" arrival="57827.00" arrivalLane="315358242#0_1" arrivalPos="165.37" arrivalSpeed="13.48" duration="78.00" routeLength="448.50" waitingTime="25.00" waitingCount="1" stopTime="0.00" timeLoss="34.61" rerouteNo="1" devices="tripinfo_carIn107282:1 routing_carIn107282:1 emissions_carIn107282:1" vType="default_016" speedFactor="0.98" vaporized="">
        <emissions CO_abs="5613.760341" CO2_abs="185336.998344" HC_abs="29.860074" PMx_abs="3.423412" NOx_abs="77.059244" fuel_abs="79.670551" electricity_abs="0"/>
    </tripinfo>
    <tripinfo id="carIn50326:1" depart="57651.00" departLane="128361102#0_1" departPos="5.10" departSpeed="0.00" departDelay="0.30" arrival="57830.00" arrivalLane="18809673#0_1" arrivalPos="473.56" arrivalSpeed="14.87" duration="179.00" routeLength="1591.07" waitingTime="41.00" waitingCount="1" stopTime="0.00" timeLoss="63.30" rerouteNo="1" devices="tripinfo_carIn50326:1 routing_carIn50326:1 emissions_carIn50326:1" vType="default_016" speedFactor="1.12" vaporized="">
        <emissions CO_abs="11253.556964" CO2_abs="476576.061539" HC_abs="62.310473" PMx_abs="8.749754" NOx_abs="195.554434" fuel_abs="204.862646" electricity_abs="0"/>
    </tripinfo>
    <tripinfo id="carIn85747:1" depart="57673.00" departLane="128361109#1_1" departPos="5.10" departSpeed="0.00" departDelay="0.70" arrival="57844.00" arrivalLane="386687235_1" arrivalPos="80.84" arrivalSpeed="17.25" duration="171.00" routeLength="2088.57" waitingTime="32.00" waitingCount="2" stopTime="0.00" timeLoss="54.16" rerouteNo="1" devices="tripinfo_carIn85747:1 routing_carIn85747:1 emissions_carIn85747:1" vType="default_016" speedFactor="1.30" vaporized="">
        <emissions CO_abs="9303.077017" CO2_abs="529256.936321" HC_abs="54.650644" PMx_abs="9.849397" NOx_abs="213.367517" fuel_abs="227.505743" electricity_abs="0"/>
    </tripinfo>
    <tripinfo id="randUni31145:1" depart="57814.00" departLane="10425609#0_1" departPos="5.10" departSpeed="0.00" departDelay="0.30" arrival="57844.00" arrivalLane="201956810_1" arrivalPos="71.65" arrivalSpeed="13.51" duration="30.00" routeLength="255.78" waitingTime="0.00" waitingCount="0" stopTime="0.00" timeLoss="10.41" rerouteNo="1" devices="tripinfo_randUni31145:1 routing_randUni31145:1 emissions_randUni31145:1" vType="random_016" speedFactor="1.00" vaporized="">
        <emissions CO_abs="2109.336077" CO2_abs="109415.137104" HC_abs="12.166169" PMx_abs="2.036852" NOx_abs="45.687879" fuel_abs="47.033062" electricity_abs="0"/>
    </tripinfo>
    <tripinfo id="randUni2407:1" depart="57820.00" departLane="10425609#0_1" departPos="5.10" departSpeed="0.00" departDelay="0.80" arrival="57848.00" arrivalLane="201956810_1" arrivalPos="71.65" arrivalSpeed="11.61" duration="28.00" routeLength="255.78" waitingTime="0.00" waitingCount="0" stopTime="0.00" timeLoss="5.81" rerouteNo="1" devices="tripinfo_randUni2407:1 routing_randUni2407:1 emissions_randUni2407:1" vType="random_016" speedFactor="0.89" vaporized="">
        <emissions CO_abs="1539.588703" CO2_abs="86676.323963" HC_abs="9.043378" PMx_abs="1.553846" NOx_abs="35.813497" fuel_abs="37.258563" electricity_abs="0"/>
    </tripinfo>
    <tripinfo id="carIn107084:1" depart="57601.00" departLane="124812856#0_1" departPos="5.10" departSpeed="0.00" departDelay="0.70" arrival="57852.00" arrivalLane="-128361102#1_1" arrivalPos="274.68" arrivalSpeed="11.30" duration="251.00" routeLength="2232.46" waitingTime="28.00" waitingCount="2" stopTime="0.00" timeLoss="55.58" rerouteNo="1" devices="tripinfo_carIn107084:1 routing_carIn107084:1 emissions_carIn107084:1" vType="default_016" speedFactor="0.84" vaporized="">
        <emissions CO_abs="9844.311965" CO2_abs="511130.475386" HC_abs="56.630989" PMx_abs="8.242978" NOx_abs="204.051952" fuel_abs="219.716012" electricity_abs="0"/>
    </tripinfo>
    <tripinfo id="carIn77943:1" depart="57608.00" departLane="124812856#0_1" departPos="5.10" departSpeed="0.00" departDelay="2.50" arrival="57854.00" arrivalLane="-128361102#1_1" arrivalPos="274.68" arrivalSpeed="12.79" duration="246.00" routeLength="2250.49" waitingTime="37.00" waitingCount="2" stopTime="0.00" timeLoss="80.96" rerouteNo="1" devices="tripinfo_carIn77943:1 routing_carIn77943:1 emissions_carIn77943:1" vType="default_016" speedFactor="0.99" vaporized="">
        <emissions CO_abs="12029.850555" CO2_abs="580905.765862" HC_abs="68.373561" PMx_abs="10.376057" NOx_abs="237.723182" fuel_abs="249.709071" electricity_abs="0"/>
    </tripinfo>
    <tripinfo id="randUni15030:1" depart="57735.00" departLane="386687232#0_1" departPos="5.10" departSpeed="0.00" departDelay="0.10" arrival="57854.00" arrivalLane="26677539_1" arrivalPos="151.98" arrivalSpeed="7.16" duration="119.00" routeLength="919.89" waitingTime="17.00" waitingCount="2" stopTime="0.00" timeLoss="35.58" rerouteNo="1" devices="tripinfo_randUni15030:1 routing_randUni15030:1 emissions_randUni15030:1" vType="random_016" speedFactor="1.00" vaporized="">
        <emissions CO_abs="5791.017827" CO2_abs="257815.143468" HC_abs="32.368562" PMx_abs="4.543343" NOx_abs="105.706279" fuel_abs="110.825244" electricity_abs="0"/>
    </tripinfo>
    <tripinfo id="carIn88905:1" depart="57688.00" departLane="128361109#1_1" departPos="5.10" departSpeed="0.00" departDelay="5.80" arrival="57855.00" arrivalLane="386687235_1" arrivalPos="80.84" arrivalSpeed="14.34" duration="167.00" routeLength="2088.57" waitingTime="8.00" waitingCount="1" stopTime="0.00" timeLoss="26.70" rerouteNo="1" devices="tripinfo_carIn88905:1 routing_carIn88905:1 emissions_carIn88905:1" vType="default_016" speedFactor="1.07" vaporized="">
        <emissions CO_abs="4505.520782" CO2_abs="394821.228557" HC_abs="29.524146" PMx_abs="6.166675" NOx_abs="152.663600" fuel_abs="169.716980" electricity_abs="0"/>
    </tripinfo>
    <tripinfo id="carIn81046:1" depart="57611.00" departLane="124812856#0_1" departPos="5.10" departSpeed="0.00" departDelay="2.50" arrival="57856.00" arrivalLane="-128361102#1_1" arrivalPos="274.68" arrivalSpeed="13.20" duration="245.00" routeLength="2250.49" waitingTime="36.00" waitingCount="2" stopTime="0.00" timeLoss="82.95" rerouteNo="1" devices="tripinfo_carIn81046:1 routing_carIn81046:1 emissions_carIn81046:1" vType="default_016" speedFactor="1.02" vaporized="">
        <emissions CO_abs="12381.027094" CO2_abs="617849.298289" HC_abs="70.847324" PMx_abs="11.020464" NOx_abs="252.552600" fuel_abs="265.589365" electricity_abs="0"/>
    </tripinfo>
    <tripinfo id="carIn7949:1" depart="57676.00" departLane="128361109#1_1" departPos="5.10" departSpeed="0.00" departDelay="2.10" arrival="57857.00" arrivalLane="386687235_1" arrivalPos="80.84" arrivalSpeed="14.14" duration="181.00" routeLength="2088.57" waitingTime="17.00" waitingCount="1" stopTime="0.00" timeLoss="34.04" rerouteNo="1" devices="tripinfo_carIn7949:1 routing_carIn7949:1 emissions_carIn7949:1" vType="default_016" speedFactor="1.02" vaporized="">
        <emissions CO_abs="6166.259648" CO2_abs="422463.738459" HC_abs="37.862541" PMx_abs="6.872879" NOx_abs="166.197022" fuel_abs="181.599976" electricity_abs="0"/>
    </tripinfo>
    <tripinfo id="h7097c1:1" depart="57670.00" departLane="315358242#0_1" departPos="5.10" departSpeed="0.00" departDelay="0.60" arrival="57859.00" arrivalLane="306240162#0_0" arrivalPos="220.43" arrivalSpeed="17.24" duration="189.00" routeLength="2586.94" waitingTime="3.00" waitingCount="1" stopTime="0.00" timeLoss="33.92" rerouteNo="1" devices="tripinfo_h7097c1:1 routing_h7097c1:1 emissions_h7097c1:1" vType="default_016" speedFactor="1.11" vaporized="">
        <emissions CO_abs="7916.509983" CO2_abs="639491.761689" HC_abs="51.085440" PMx_abs="11.547098" NOx_abs="257.340134" fuel_abs="274.888693" electricity_abs="0"/>
    </tripinfo>
    <tripinfo id="h9953c2:3" depart="57682.00" departLane="-54169231#2_1" departPos="5.10" departSpeed="0.00" departDelay="0.00" arrival="57860.00" arrivalLane="386687235_2" arrivalPos="80.84" arrivalSpeed="15.89" duration="178.00" routeLength="1535.60" waitingTime="38.00" waitingCount="2" stopTime="0.00" timeLoss="70.66" rerouteNo="1" devices="tripinfo_h9953c2:3 routing_h9953c2:3 emissions_h9953c2:3" vType="default_016" speedFactor="1.18" vaporized="">
        <emissions CO_abs="11603.046893" CO2_abs="499172.801151" HC_abs="64.524351" PMx_abs="9.594731" NOx_abs="207.924825" fuel_abs="214.575314" electricity_abs="0"/>
    </tripinfo>
    <tripinfo id="carIn46110:1" depart="57684.00" departLane="315358244_1" departPos="5.10" departSpeed="0.00" departDelay="1.20" arrival="57860.00" arrivalLane="32978638#0_1" arrivalPos="49.29" arrivalSpeed="13.55" duration="176.00" routeLength="1764.04" waitingTime="22.00" waitingCount="3" stopTime="0.00" timeLoss="50.57" rerouteNo="1" devices="tripinfo_carIn46110:1 routing_carIn46110:1 emissions_carIn46110:1" vType="default_016" speedFactor="1.02" vaporized="">
        <emissions CO_abs="7981.393298" CO2_abs="451214.868707" HC_abs="46.927494" PMx_abs="7.948113" NOx_abs="183.039969" fuel_abs="193.959032" electricity_abs="0"/>
    </tripinfo>
    <tripinfo id="h16072c2:3" depart="57663.00" departLane="315358254#0_1" departPos="5.10" departSpeed="0.00" departDelay="2.50" arrival="57861.00" arrivalLane="386687235_1" arrivalPos="80.84" arrivalSpeed="13.92" duration="198.00" routeLength="1611.92" waitingTime="63.00" waitingCount="3" stopTime="0.00" timeLoss="86.87" rerouteNo="1" devices="tripinfo_h16072c2:3 routing_h16072c2:3 emissions_h16072c2:3" vType="default_016" speedFactor="1.06" vaporized="">
        <emissions CO_abs="13060.272131" CO2_abs="486722.195970" HC_abs="70.896090" PMx_abs="9.359864" NOx_abs="202.410262" fuel_abs="209.224814" electricity_abs="0"/>
    </tripinfo>
    <tripinfo id="h6541c1:3" depart="57727.00" departLane="201950247#3_1" departPos="5.10" departSpeed="0.00" departDelay="0.00" arrival="57862.00" arrivalLane="32978638#0_1" arrivalPos="49.29" arrivalSpeed="15.66" duration="135.00" routeLength="1176.17" waitingTime="20.00" waitingCount="2" stopTime="0.00" timeLoss="45.48" rerouteNo="1" devices="tripinfo_h6541c1:3 routing_h6541c1:3 emissions_h6541c1:3" vType="default_016" speedFactor="1.15" vaporized="">
        <emissions CO_abs="7009.416616" CO2_abs="359596.893636" HC_abs="40.242062" PMx_abs="6.515161" NOx_abs="147.826094" fuel_abs="154.576344" electricity_abs="0"/>
    </tripinfo>
    <tripinfo id="h2831c1:1" depart="57600.00" departLane="201089423#0_1" departPos="5.10" departSpeed="0.00" departDelay="0.00" arrival="57863.00" arrivalLane="-315358244_1" arrivalPos="33.95" arrivalSpeed="14.19" duration="263.00" routeLength="2672.18" waitingTime="52.00" waitingCount="2" stopTime="0.00" timeLoss="84.86" rerouteNo="1" devices="tripinfo_h2831c1:1 routing_h2831c1:1 emissions_h2831c1:1" vType="default_016" speedFactor="1.09" vaporized="">
        <emissions CO_abs="13929.842777" CO2_abs="693205.103389" HC_abs="79.266113" PMx_abs="12.339706" NOx_abs="280.245540" fuel_abs="297.982188" electricity_abs="0"/>
    </tripinfo>
    <tripinfo id="carIn129809:1" depart="57729.00" departLane="-447569998#1_1" departPos="5.10" departSpeed="0.00" departDelay="1.00" arrival="57863.00" arrivalLane="-315358244_2" arrivalPos="33.95" arrivalSpeed="12.77" duration="134.00" routeLength="706.49" waitingTime="50.00" waitingCount="2" stopTime="0.00" timeLoss="72.34" rerouteNo="1" devices="tripinfo_carIn129809:1 routing_carIn129809:1 emissions_carIn129809:1" vType="default_015" speedFactor="0.98" vaporized="">
        <emissions CO_abs="10274.523027" CO2_abs="302915.758887" HC_abs="53.880080" PMx_abs="6.138158" NOx_abs="129.483713" fuel_abs="130.214074" electricity_abs="0"/>
    </tripinfo>