<?xml version="1.0" encoding="UTF-8"?>

<!-- generated on Thu Nov  4 13:49:43 2021 by Eclipse SUMO sumo Version 1.9.0
<configuration xmlns:xsi="http://www.w3.org/2001/XMLSchema-instance" xsi:noNamespaceSchemaLocation="http://sumo.dlr.de/xsd/sumoConfiguration.xsd">

    <input>
        <net-file value="/mainfs/home/bk2g18/RESCO/environments/ingolstadt21/ingolstadt21.net.xml"/>
        <route-files value="/mainfs/home/bk2g18/RESCO/environments/ingolstadt21/ingolstadt21.rou.xml"/>
    </input>

    <output>
        <tripinfo-output value="/mainfs/home/bk2g18/RESCO/logs/MPLight-tr0-ingolstadt21-21-mplight_full-pressure/tripinfo_52.xml"/>
        <tripinfo-output.write-unfinished value="true"/>
    </output>

    <time>
        <begin value="57600"/>
        <end value="61200"/>
    </time>

    <processing>
        <time-to-teleport value="-1"/>
    </processing>

    <report>
        <xml-validation value="never"/>
        <xml-validation.routes value="never"/>
        <no-warnings value="true"/>
        <no-step-log value="true"/>
    </report>

    <emissions>
        <device.emissions.probability value="1"/>
    </emissions>

    <traci_server>
        <remote-port value="50170"/>
    </traci_server>

    <random_number>
        <random value="true"/>
    </random_number>

</configuration>
-->

<tripinfos xmlns:xsi="http://www.w3.org/2001/XMLSchema-instance" xsi:noNamespaceSchemaLocation="http://sumo.dlr.de/xsd/tripinfo_file.xsd">
    <tripinfo id="h15454c2:3" depart="57612.00" departLane="24608844_1" departPos="5.10" departSpeed="0.00" departDelay="0.50" arrival="57650.00" arrivalLane="32978638#0_1" arrivalPos="49.29" arrivalSpeed="13.42" duration="38.00" routeLength="354.79" waitingTime="0.00" waitingCount="0" stopTime="0.00" timeLoss="4.84" rerouteNo="1" devices="tripinfo_h15454c2:3 routing_h15454c2:3 emissions_h15454c2:3" vType="default_016" speedFactor="1.04" vaporized="">
        <emissions CO_abs="1835.863832" CO2_abs="108067.114715" HC_abs="10.874775" PMx_abs="1.862056" NOx_abs="43.984088" fuel_abs="46.453638" electricity_abs="0"/>
    </tripinfo>
    <tripinfo id="carIn60260:1" depart="57606.00" departLane="315358254#0_1" departPos="5.10" departSpeed="0.00" departDelay="0.90" arrival="57684.00" arrivalLane="399835085#1_1" arrivalPos="212.23" arrivalSpeed="7.31" duration="78.00" routeLength="430.98" waitingTime="21.00" waitingCount="1" stopTime="0.00" timeLoss="31.13" rerouteNo="1" devices="tripinfo_carIn60260:1 routing_carIn60260:1 emissions_carIn60260:1" vType="default_016" speedFactor="0.99" vaporized="">
        <emissions CO_abs="5767.832460" CO2_abs="181697.549471" HC_abs="30.488672" PMx_abs="3.489126" NOx_abs="76.811178" fuel_abs="78.106047" electricity_abs="0"/>
    </tripinfo>
    <tripinfo id="carIn53971:1" depart="57640.00" departLane="272042143_1" departPos="5.10" departSpeed="0.00" departDelay="0.80" arrival="57692.00" arrivalLane="24634414#1_1" arrivalPos="162.19" arrivalSpeed="8.13" duration="52.00" routeLength="493.04" waitingTime="0.00" waitingCount="0" stopTime="0.00" timeLoss="8.21" rerouteNo="1" devices="tripinfo_carIn53971:1 routing_carIn53971:1 emissions_carIn53971:1" vType="default_016" speedFactor="1.04" vaporized="">
        <emissions CO_abs="2290.344470" CO2_abs="134353.247057" HC_abs="13.567173" PMx_abs="2.310994" NOx_abs="54.689200" fuel_abs="57.752985" electricity_abs="0"/>
    </tripinfo>
    <tripinfo id="carIn80064:1" depart="57603.00" departLane="128361109#1_1" departPos="5.10" departSpeed="0.00" departDelay="0.40" arrival="57719.00" arrivalLane="-315358254#1_1" arrivalPos="137.16" arrivalSpeed="13.65" duration="116.00" routeLength="1587.97" waitingTime="2.00" waitingCount="1" stopTime="0.00" timeLoss="25.53" rerouteNo="1" devices="tripinfo_carIn80064:1 routing_carIn80064:1 emissions_carIn80064:1" vType="default_016" speedFactor="1.00" vaporized="">
        <emissions CO_abs="6593.207782" CO2_abs="465657.926887" HC_abs="41.193030" PMx_abs="8.982043" NOx_abs="191.479810" fuel_abs="200.165179" electricity_abs="0"/>
    </tripinfo>
    <tripinfo id="h7800c1:5" depart="57696.00" departLane="-447569998#1_1" departPos="5.10" departSpeed="0.00" departDelay="0.00" arrival="57729.00" arrivalLane="-447569998#1_1" arrivalPos="180.76" arrivalSpeed="5.41" duration="33.00" routeLength="175.66" waitingTime="0.00" waitingCount="0" stopTime="0.00" timeLoss="4.87" rerouteNo="1" devices="tripinfo_h7800c1:5 routing_h7800c1:5 emissions_h7800c1:5" vType="default_016" speedFactor="0.77" vaporized="">
        <emissions CO_abs="1771.626931" CO2_abs="60473.718176" HC_abs="9.443950" PMx_abs="1.007704" NOx_abs="24.850061" fuel_abs="25.995824" electricity_abs="0"/>
    </tripinfo>
    <tripinfo id="h3568c1:3" depart="57656.00" departLane="266565295#5_1" departPos="5.10" departSpeed="0.00" departDelay="0.80" arrival="57736.00" arrivalLane="-24634415_1" arrivalPos="62.03" arrivalSpeed="13.18" duration="80.00" routeLength="807.40" waitingTime="0.00" waitingCount="0" stopTime="0.00" timeLoss="12.58" rerouteNo="1" devices="tripinfo_h3568c1:3 routing_h3568c1:3 emissions_h3568c1:3" vType="default_016" speedFactor="0.96" vaporized="">
        <emissions CO_abs="3365.524229" CO2_abs="212909.523730" HC_abs="20.319183" PMx_abs="3.718509" NOx_abs="86.870438" fuel_abs="91.520831" electricity_abs="0"/>
    </tripinfo>
    <tripinfo id="h317c2:1" depart="57707.00" departLane="-32978638#0_1" departPos="5.10" departSpeed="0.00" departDelay="0.10" arrival="57736.00" arrivalLane="-266565295#5_1" arrivalPos="172.76" arrivalSpeed="15.68" duration="29.00" routeLength="370.53" waitingTime="0.00" waitingCount="0" stopTime="0.00" timeLoss="6.22" rerouteNo="1" devices="tripinfo_h317c2:1 routing_h317c2:1 emissions_h317c2:1" vType="default_016" speedFactor="1.21" vaporized="">
        <emissions CO_abs="1898.130823" CO2_abs="126742.752986" HC_abs="11.577932" PMx_abs="2.423151" NOx_abs="52.529994" fuel_abs="54.480996" electricity_abs="0"/>
    </tripinfo>
    <tripinfo id="h4538c1:1" depart="57701.00" departLane="-10427692#1_1" departPos="5.10" departSpeed="0.00" departDelay="0.00" arrival="57738.00" arrivalLane="-128361102#1_1" arrivalPos="274.68" arrivalSpeed="13.02" duration="37.00" routeLength="440.74" waitingTime="0.00" waitingCount="0" stopTime="0.00" timeLoss="5.86" rerouteNo="1" devices="tripinfo_h4538c1:1 routing_h4538c1:1 emissions_h4538c1:1" vType="default_016" speedFactor="1.03" vaporized="">
        <emissions CO_abs="1495.917493" CO2_abs="113007.014079" HC_abs="9.434559" PMx_abs="1.881088" NOx_abs="45.016808" fuel_abs="48.576892" electricity_abs="0"/>
    </tripinfo>
    <tripinfo id="h5979c1:5" depart="57669.00" departLane="399835085#1_1" departPos="5.10" departSpeed="0.00" departDelay="0.00" arrival="57748.00" arrivalLane="-315358254#1_1" arrivalPos="137.16" arrivalSpeed="14.29" duration="79.00" routeLength="659.33" waitingTime="0.00" waitingCount="0" stopTime="0.00" timeLoss="9.44" rerouteNo="1" devices="tripinfo_h5979c1:5 routing_h5979c1:5 emissions_h5979c1:5" vType="default_016" speedFactor="1.05" vaporized="">
        <emissions CO_abs="3268.139863" CO2_abs="174598.613514" HC_abs="18.903371" PMx_abs="2.961593" NOx_abs="71.230273" fuel_abs="75.053090" electricity_abs="0"/>
    </tripinfo>
    <tripinfo id="h3326c1:2" depart="57656.00" departLane="22716069#0_1" departPos="5.10" departSpeed="0.00" departDelay="0.00" arrival="57774.00" arrivalLane="24634517#13_1" arrivalPos="111.62" arrivalSpeed="13.26" duration="118.00" routeLength="1312.81" waitingTime="0.00" waitingCount="0" stopTime="0.00" timeLoss="16.29" rerouteNo="1" devices="tripinfo_h3326c1:2 routing_h3326c1:2 emissions_h3326c1:2" vType="default_016" speedFactor="0.96" vaporized="">
        <emissions CO_abs="4268.574578" CO2_abs="310698.990744" HC_abs="26.711716" PMx_abs="5.230336" NOx_abs="124.860873" fuel_abs="133.556216" electricity_abs="0"/>
    </tripinfo>
    <tripinfo id="carIn27009:1" depart="57673.00" departLane="-447569998#1_1" departPos="5.10" departSpeed="0.00" departDelay="0.50" arrival="57778.00" arrivalLane="-26677539_1" arrivalPos="152.75" arrivalSpeed="8.13" duration="105.00" routeLength="699.63" waitingTime="15.00" waitingCount="1" stopTime="0.00" timeLoss="28.65" rerouteNo="1" devices="tripinfo_carIn27009:1 routing_carIn27009:1 emissions_carIn27009:1" vType="default_015" speedFactor="1.10" vaporized="">
        <emissions CO_abs="5419.192579" CO2_abs="216309.281794" HC_abs="29.661409" PMx_abs="3.708832" NOx_abs="88.764073" fuel_abs="92.983961" electricity_abs="0"/>
    </tripinfo>
    <tripinfo id="h330c1:1" depart="57736.00" departLane="-32978638#0_1" departPos="5.10" departSpeed="0.00" departDelay="0.20" arrival="57784.00" arrivalLane="-266565295#5_1" arrivalPos="172.76" arrivalSpeed="13.34" duration="48.00" routeLength="370.53" waitingTime="13.00" waitingCount="1" stopTime="0.00" timeLoss="21.93" rerouteNo="1" devices="tripinfo_h330c1:1 routing_h330c1:1 emissions_h330c1:1" vType="default_016" speedFactor="1.05" vaporized="">
        <emissions CO_abs="3401.672003" CO2_abs="148154.038292" HC_abs="18.950949" PMx_abs="2.821903" NOx_abs="61.824770" fuel_abs="63.685734" electricity_abs="0"/>
    </tripinfo>
    <tripinfo id="h11737c1:1" depart="57665.00" departLane="272042143_1" departPos="5.10" departSpeed="0.00" departDelay="1.50" arrival="57798.00" arrivalLane="-315358254#1_1" arrivalPos="137.16" arrivalSpeed="13.15" duration="133.00" routeLength="1596.88" waitingTime="0.00" waitingCount="0" stopTime="0.00" timeLoss="12.90" rerouteNo="1" devices="tripinfo_h11737c1:1 routing_h11737c1:1 emissions_h11737c1:1" vType="default_016" speedFactor="0.97" vaporized="">
        <emissions CO_abs="3724.365260" CO2_abs="321791.968517" HC_abs="24.442432" PMx_abs="5.036044" NOx_abs="125.969107" fuel_abs="138.324690" electricity_abs="0"/>
    </tripinfo>
    <tripinfo id="carIn126288:1" depart="57674.00" departLane="272042143_1" departPos="5.10" departSpeed="0.00" departDelay="0.00" arrival="57800.00" arrivalLane="-315358254#1_1" arrivalPos="137.16" arrivalSpeed="13.44" duration="126.00" routeLength="1596.88" waitingTime="0.00" waitingCount="0" stopTime="0.00" timeLoss="11.70" rerouteNo="1" devices="tripinfo_carIn126288:1 routing_carIn126288:1 emissions_carIn126288:1" vType="default_016" speedFactor="1.02" vaporized="">
        <emissions CO_abs="3635.693527" CO2_abs="309198.224816" HC_abs="23.807740" PMx_abs="5.124499" NOx_abs="122.688890" fuel_abs="132.910809" electricity_abs="0"/>
    </tripinfo>
    <tripinfo id="h7181c1:1" depart="57660.00" departLane="315358254#0_1" departPos="5.10" departSpeed="0.00" departDelay="0.10" arrival="57801.00" arrivalLane="306240162#0_0" arrivalPos="220.43" arrivalSpeed="15.83" duration="141.00" routeLength="932.35" waitingTime="68.00" waitingCount="2" stopTime="0.00" timeLoss="87.81" rerouteNo="1" devices="tripinfo_h7181c1:1 routing_h7181c1:1 emissions_h7181c1:1" vType="default_016" speedFactor="0.97" vaporized="">
        <emissions CO_abs="13707.953784" CO2_abs="439837.761295" HC_abs="72.778487" PMx_abs="9.425311" NOx_abs="189.265170" fuel_abs="189.070963" electricity_abs="0"/>
    </tripinfo>
    <tripinfo id="h17600c1:1" depart="57662.00" departLane="272042143_1" departPos="5.10" departSpeed="0.00" departDelay="0.30" arrival="57818.00" arrivalLane="201238729#3_1" arrivalPos="431.02" arrivalSpeed="13.67" duration="156.00" routeLength="2100.26" waitingTime="0.00" waitingCount="0" stopTime="0.00" timeLoss="12.18" rerouteNo="1" devices="tripinfo_h17600c1:1 routing_h17600c1:1 emissions_h17600c1:1" vType="default_016" speedFactor="1.06" vaporized="">
        <emissions CO_abs="3986.254374" CO2_abs="388683.568293" HC_abs="27.117995" PMx_abs="6.236947" NOx_abs="151.763911" fuel_abs="167.077990" electricity_abs="0"/>
    </tripinfo>
    <tripinfo id="carIn107084:1" depart="57601.00" departLane="124812856#0_1" departPos="5.10" departSpeed="0.00" departDelay="0.70" arrival="57819.00" arrivalLane="-128361102#1_1" arrivalPos="274.68" arrivalSpeed="12.12" duration="218.00" routeLength="2250.49" waitingTime="21.00" waitingCount="1" stopTime="0.00" timeLoss="43.32" rerouteNo="1" devices="tripinfo_carIn107084:1 routing_carIn107084:1 emissions_carIn107084:1" vType="default_016" speedFactor="0.94" vaporized="">
        <emissions CO_abs="8513.126139" CO2_abs="510664.011646" HC_abs="50.656049" PMx_abs="8.407507" NOx_abs="203.406030" fuel_abs="219.514266" electricity_abs="0"/>
    </tripinfo>
    <tripinfo id="carIn121703:1" depart="57647.00" departLane="386687232#0_1" departPos="5.10" departSpeed="0.00" departDelay="0.30" arrival="57823.00" arrivalLane="-315358244_1" arrivalPos="33.95" arrivalSpeed="13.64" duration="176.00" routeLength="1157.39" waitingTime="79.00" waitingCount="1" stopTime="0.00" timeLoss="92.96" rerouteNo="1" devices="tripinfo_carIn121703:1 routing_carIn121703:1 emissions_carIn121703:1" vType="default_016" speedFactor="1.02" vaporized="">
        <emissions CO_abs="15644.763219" CO2_abs="454155.440573" HC_abs="81.826873" PMx_abs="9.188778" NOx_abs="192.385058" fuel_abs="195.227702" electricity_abs="0"/>
    </tripinfo>
    <tripinfo id="randUni15030:1" depart="57735.00" departLane="386687232#0_1" departPos="5.10" departSpeed="0.00" departDelay="0.10" arrival="57828.00" arrivalLane="26677539_1" arrivalPos="151.98" arrivalSpeed="8.14" duration="93.00" routeLength="919.89" waitingTime="0.00" waitingCount="0" stopTime="0.00" timeLoss="12.55" rerouteNo="1" devices="tripinfo_randUni15030:1 routing_randUni15030:1 emissions_randUni15030:1" vType="random_016" speedFactor="1.04" vaporized="">
        <emissions CO_abs="3477.673667" CO2_abs="214310.469862" HC_abs="20.828767" PMx_abs="3.598194" NOx_abs="86.503958" fuel_abs="92.123336" electricity_abs="0"/>
    </tripinfo>
    <tripinfo id="carIn77943:1" depart="57608.00" departLane="124812856#0_1" departPos="5.10" departSpeed="0.00" departDelay="2.50" arrival="57829.00" arrivalLane="-128361102#1_1" arrivalPos="274.68" arrivalSpeed="11.46" duration="221.00" routeLength="2250.49" waitingTime="7.00" waitingCount="2" stopTime="0.00" timeLoss="35.67" rerouteNo="1" devices="tripinfo_carIn77943:1 routing_carIn77943:1 emissions_carIn77943:1" vType="default_016" speedFactor="0.89" vaporized="">
        <emissions CO_abs="7003.644127" CO2_abs="488122.260082" HC_abs="43.248064" PMx_abs="7.890256" NOx_abs="194.550991" fuel_abs="209.823600" electricity_abs="0"/>
    </tripinfo>
    <tripinfo id="carIn81046:1" depart="57611.00" departLane="124812856#0_1" departPos="5.10" departSpeed="0.00" departDelay="2.50" arrival="57831.00" arrivalLane="-128361102#1_1" arrivalPos="274.68" arrivalSpeed="13.07" duration="220.00" routeLength="2250.49" waitingTime="7.00" waitingCount="2" stopTime="0.00" timeLoss="54.26" rerouteNo="1" devices="tripinfo_carIn81046:1 routing_carIn81046:1 emissions_carIn81046:1" vType="default_016" speedFactor="1.00" vaporized="">
        <emissions CO_abs="8513.371230" CO2_abs="572754.616765" HC_abs="52.209462" PMx_abs="9.939239" NOx_abs="232.987072" fuel_abs="246.202735" electricity_abs="0"/>
    </tripinfo>
    <tripinfo id="h19804c1:3" depart="57617.00" departLane="124812856#0_1" departPos="5.10" departSpeed="0.00" departDelay="1.50" arrival="57832.00" arrivalLane="-128361102#1_1" arrivalPos="274.68" arrivalSpeed="13.07" duration="215.00" routeLength="2250.49" waitingTime="0.00" waitingCount="0" stopTime="0.00" timeLoss="41.47" rerouteNo="1" devices="tripinfo_h19804c1:3 routing_h19804c1:3 emissions_h19804c1:3" vType="default_016" speedFactor="0.95" vaporized="">
        <emissions CO_abs="8307.494947" CO2_abs="568277.449916" HC_abs="51.137884" PMx_abs="9.681341" NOx_abs="229.903922" fuel_abs="244.278359" electricity_abs="0"/>
    </tripinfo>
    <tripinfo id="carIn107842:1" depart="57622.00" departLane="124812856#0_1" departPos="5.10" departSpeed="0.00" departDelay="0.90" arrival="57834.00" arrivalLane="-128361102#1_1" arrivalPos="274.68" arrivalSpeed="13.72" duration="212.00" routeLength="2250.49" waitingTime="0.00" waitingCount="0" stopTime="0.00" timeLoss="48.64" rerouteNo="1" devices="tripinfo_carIn107842:1 routing_carIn107842:1 emissions_carIn107842:1" vType="default_016" speedFactor="1.01" vaporized="">
        <emissions CO_abs="8500.734411" CO2_abs="579749.806714" HC_abs="52.349321" PMx_abs="10.220085" NOx_abs="236.937387" fuel_abs="249.209317" electricity_abs="0"/>
    </tripinfo>
    <tripinfo id="carIn77438:1" depart="57614.00" departLane="124812856#0_1" departPos="5.10" departSpeed="0.00" departDelay="1.10" arrival="57836.00" arrivalLane="-128361102#1_1" arrivalPos="274.68" arrivalSpeed="15.29" duration="222.00" routeLength="2250.49" waitingTime="10.00" waitingCount="1" stopTime="0.00" timeLoss="73.95" rerouteNo="1" devices="tripinfo_carIn77438:1 routing_carIn77438:1 emissions_carIn77438:1" vType="default_016" speedFactor="1.11" vaporized="">
        <emissions CO_abs="10291.495896" CO2_abs="632493.167203" HC_abs="61.803019" PMx_abs="11.633767" NOx_abs="261.870910" fuel_abs="271.881507" electricity_abs="0"/>
    </tripinfo>
    <tripinfo id="carIn81860:1" depart="57712.00" departLane="128361102#0_1" departPos="5.10" departSpeed="0.00" departDelay="0.60" arrival="57837.00" arrivalLane="-24634517#17_1" arrivalPos="6.43" arrivalSpeed="8.60" duration="125.00" routeLength="1229.64" waitingTime="15.00" waitingCount="1" stopTime="0.00" timeLoss="44.22" rerouteNo="1" devices="tripinfo_carIn81860:1 routing_carIn81860:1 emissions_carIn81860:1" vType="default_016" speedFactor="1.12" vaporized="">
        <emissions CO_abs="5850.923666" CO2_abs="340414.319039" HC_abs="34.503717" PMx_abs="5.978939" NOx_abs="137.316824" fuel_abs="146.330279" electricity_abs="0"/>
    </tripinfo>
    <tripinfo id="carIn3969:1" depart="57627.00" departLane="124812856#0_1" departPos="5.10" departSpeed="0.00" departDelay="3.30" arrival="57838.00" arrivalLane="-128361102#1_1" arrivalPos="274.68" arrivalSpeed="13.61" duration="211.00" routeLength="2250.49" waitingTime="17.00" waitingCount="2" stopTime="0.00" timeLoss="53.66" rerouteNo="1" devices="tripinfo_carIn3969:1 routing_carIn3969:1 emissions_carIn3969:1" vType="default_016" speedFactor="1.04" vaporized="">
        <emissions CO_abs="7874.562919" CO2_abs="530046.670553" HC_abs="48.282266" PMx_abs="9.228272" NOx_abs="214.357807" fuel_abs="227.844508" electricity_abs="0"/>
    </tripinfo>
    <tripinfo id="carIn7949:1" depart="57676.00" departLane="128361109#1_1" departPos="5.10" departSpeed="0.00" departDelay="2.10" arrival="57839.00" arrivalLane="386687235_1" arrivalPos="80.84" arrivalSpeed="14.12" duration="163.00" routeLength="2088.57" waitingTime="7.00" waitingCount="1" stopTime="0.00" timeLoss="24.44" rerouteNo="1" devices="tripinfo_carIn7949:1 routing_carIn7949:1 emissions_carIn7949:1" vType="default_016" speedFactor="1.09" vaporized="">
        <emissions CO_abs="4045.022654" CO2_abs="377395.912394" HC_abs="26.911131" PMx_abs="5.851888" NOx_abs="145.450755" fuel_abs="162.226411" electricity_abs="0"/>
    </tripinfo>
    <tripinfo id="carIn107282:1" depart="57749.00" departLane="-447569998#1_1" departPos="5.10" departSpeed="0.00" departDelay="0.00" arrival="57844.00" arrivalLane="315358242#0_1" arrivalPos="165.37" arrivalSpeed="15.30" duration="95.00" routeLength="448.50" waitingTime="49.00" waitingCount="1" stopTime="0.00" timeLoss="58.28" rerouteNo="1" devices="tripinfo_carIn107282:1 routing_carIn107282:1 emissions_carIn107282:1" vType="default_016" speedFactor="1.15" vaporized="">
        <emissions CO_abs="9370.088414" CO2_abs="235869.447672" HC_abs="48.201820" PMx_abs="5.032226" NOx_abs="102.216538" fuel_abs="101.393759" electricity_abs="0"/>
    </tripinfo>
    <tripinfo id="50R_frequency3.17" depart="57674.00" departLane="-18809673#6_1" departPos="12.10" departSpeed="0.00" departDelay="0.70" arrival="57849.00" arrivalLane="201956811#0_1" arrivalPos="40.40" arrivalSpeed="13.53" duration="175.00" routeLength="1954.47" waitingTime="5.00" waitingCount="1" stopTime="0.00" timeLoss="29.95" rerouteNo="1" devices="tripinfo_50R_frequency3.17 routing_50R_frequency3.17 emissions_50R_frequency3.17" vType="bus" speedFactor="1.00" vaporized="">
        <emissions CO_abs="3357.863454" CO2_abs="2120824.112845" HC_abs="704.540851" PMx_abs="360.192665" NOx_abs="16413.229906" fuel_abs="904.511024" electricity_abs="0"/>
    </tripinfo>
    <tripinfo id="carIn22761:1" depart="57616.00" departLane="-306240162#1_0" departPos="5.10" departSpeed="0.00" departDelay="2.10" arrival="57859.00" arrivalLane="399835085#1_1" arrivalPos="212.23" arrivalSpeed="8.54" duration="243.00" routeLength="1093.26" waitingTime="146.00" waitingCount="2" stopTime="0.00" timeLoss="175.06" rerouteNo="1" devices="tripinfo_carIn22761:1 routing_carIn22761:1 emissions_carIn22761:1" vType="default_016" speedFactor="1.14" vaporized="">
        <emissions CO_abs="28129.072670" CO2_abs="711632.283740" HC_abs="144.934908" PMx_abs="15.847501" NOx_abs="311.580513" fuel_abs="305.910036" electricity_abs="0"/>
    </tripinfo>
    <tripinfo id="h15382c1:3" depart="57625.00" departLane="124812856#0_1" departPos="5.10" departSpeed="0.00" departDelay="2.80" arrival="57862.00" arrivalLane="-128361102#1_1" arrivalPos="274.68" arrivalSpeed="11.12" duration="237.00" routeLength="2250.49" waitingTime="9.00" waitingCount="2" stopTime="0.00" timeLoss="50.61" rerouteNo="1" devices="tripinfo_h15382c1:3 routing_h15382c1:3 emissions_h15382c1:3" vType="default_016" speedFactor="0.88" vaporized="">
        <emissions CO_abs="7983.013966" CO2_abs="508990.901680" HC_abs="48.181762" PMx_abs="8.326629" NOx_abs="204.151401" fuel_abs="218.794530" electricity_abs="0"/>
    </tripinfo>
    <tripinfo id="h20540c1:1" depart="57634.00" departLane="10425609#0_1" departPos="5.10" departSpeed="0.00" departDelay="0.50" arrival="57864.00" arrivalLane="-128361102#1_1" arrivalPos="274.68" arrivalSpeed="13.78" duration="230.00" routeLength="2113.04" waitingTime="52.00" waitingCount="1" stopTime="0.00" timeLoss="89.99" rerouteNo="1" devices="tripinfo_h20540c1:1 routing_h20540c1:1 emissions_h20540c1:1" vType="default_016" speedFactor="1.11" vaporized="">
        <emissions CO_abs="13559.695033" CO2_abs="566501.779615" HC_abs="74.810789" PMx_abs="10.435871" NOx_abs="232.520514" fuel_abs="243.518531" electricity_abs="0"/>
    </tripinfo>
    <tripinfo id="carIn85747:1" depart="57673.00" departLane="128361109#1_1" departPos="5.10" departSpeed="0.00" departDelay="0.70" arrival="57864.00" arrivalLane="386687235_1" arrivalPos="80.84" arrivalSpeed="12.25" duration="191.00" routeLength="2088.57" waitingTime="12.00" waitingCount="2" stopTime="0.00" timeLoss="35.29" rerouteNo="1" devices="tripinfo_carIn85747:1 routing_carIn85747:1 emissions_carIn85747:1" vType="default_016" speedFactor="0.97" vaporized="">
        <emissions CO_abs="6153.653143" CO2_abs="442586.308691" HC_abs="38.366059" PMx_abs="7.271931" NOx_abs="175.893849" fuel_abs="190.249359" electricity_abs="0"/>
    </tripinfo>
    <tripinfo id="carIn88905:1" depart="57689.00" departLane="128361109#1_1" departPos="5.10" departSpeed="0.00" departDelay="6.80" arrival="57864.00" arrivalLane="386687235_2" arrivalPos="80.84" arrivalSpeed="13.04" duration="175.00" routeLength="2088.57" waitingTime="0.00" waitingCount="0" stopTime="0.00" timeLoss="18.56" rerouteNo="1" devices="tripinfo_carIn88905:1 routing_carIn88905:1 emissions_carIn88905:1" vType="default_016" speedFactor="0.96" vaporized="">
        <emissions CO_abs="4472.621148" CO2_abs="383857.232576" HC_abs="29.286827" PMx_abs="5.949107" NOx_abs="149.828558" fuel_abs="165.004031" electricity_abs="0"/>
    </tripinfo>
    <tripinfo id="h19413c1:1" depart="57686.00" departLane="128361109#1_1" departPos="5.10" departSpeed="0.00" departDelay="6.90" arrival="57865.00" arrivalLane="386687235_1" arrivalPos="80.84" arrivalSpeed="13.67" duration="179.00" routeLength="2088.57" waitingTime="0.00" waitingCount="0" stopTime="0.00" timeLoss="37.30" rerouteNo="1" devices="tripinfo_h19413c1:1 routing_h19413c1:1 emissions_h19413c1:1" vType="default_016" speedFactor="1.06" vaporized="">
        <emissions CO_abs="6268.930545" CO2_abs="471620.672045" HC_abs="39.597548" PMx_abs="8.042518" NOx_abs="189.328081" fuel_abs="202.729316" electricity_abs="0"/>
    </tripinfo>
    <tripinfo id="h5216c1:1" depart="57664.00" departLane="224892339#0_1" departPos="5.10" departSpeed="0.00" departDelay="0.00" arrival="57866.00" arrivalLane="386687235_2" arrivalPos="80.84" arrivalSpeed="14.36" duration="202.00" routeLength="1823.78" waitingTime="46.00" waitingCount="3" stopTime="0.00" timeLoss="78.85" rerouteNo="1" devices="tripinfo_h5216c1:1 routing_h5216c1:1 emissions_h5216c1:1" vType="default_016" speedFactor="1.04" vaporized="">
        <emissions CO_abs="11392.497067" CO2_abs="532883.351529" HC_abs="64.390037" PMx_abs="10.118540" NOx_abs="220.958616" fuel_abs="229.065557" electricity_abs="0"/>
    </tripinfo>
    <tripinfo id="h16072c2:3" depart="57663.00" departLane="315358254#0_1" departPos="5.10" departSpeed="0.00" departDelay="2.50" arrival="57867.00" arrivalLane="386687235_2" arrivalPos="80.84" arrivalSpeed="15.56" duration="204.00" routeLength="1611.92" waitingTime="62.00" waitingCount="3" stopTime="0.00" timeLoss="106.53" rerouteNo="1" devices="tripinfo_h16072c2:3 routing_h16072c2:3 emissions_h16072c2:3" vType="default_016" speedFactor="1.20" vaporized="">
        <emissions CO_abs="14261.558212" CO2_abs="550700.830148" HC_abs="77.879307" PMx_abs="10.721831" NOx_abs="230.112762" fuel_abs="236.726314" electricity_abs="0"/>
    </tripinfo>
    <tripinfo id="carIn75660:1" depart="57679.00" departLane="128361109#1_1" departPos="5.10" departSpeed="0.00" departDelay="3.40" arrival="57868.00" arrivalLane="386687235_1" arrivalPos="80.84" arrivalSpeed="12.76" duration="189.00" routeLength="2088.57" waitingTime="3.00" waitingCount="1" stopTime="0.00" timeLoss="27.26" rerouteNo="1" devices="tripinfo_carIn75660:1 routing_carIn75660:1 emissions_carIn75660:1" vType="default_016" speedFactor="0.93" vaporized="">
        <emissions CO_abs="5246.189090" CO2_abs="422560.194771" HC_abs="33.657307" PMx_abs="6.269168" NOx_abs="163.433854" fuel_abs="181.641476" electricity_abs="0"/>
    </tripinfo>
    <tripinfo id="carIn12858:1" depart="57661.00" departLane="128361109#1_1" departPos="5.10" departSpeed="0.00" departDelay="0.90" arrival="57870.00" arrivalLane="399835085#1_1" arrivalPos="212.23" arrivalSpeed="7.37" duration="209.00" routeLength="1738.12" waitingTime="56.00" waitingCount="1" stopTime="0.00" timeLoss="83.94" rerouteNo="1" devices="tripinfo_carIn12858:1 routing_carIn12858:1 emissions_carIn12858:1" vType="default_016" speedFactor="0.92" vaporized="">
        <emissions CO_abs="15357.809687" CO2_abs="582777.492369" HC_abs="83.650994" PMx_abs="11.633255" NOx_abs="245.278046" fuel_abs="250.514702" electricity_abs="0"/>
    </tripinfo>
    <tripinfo id="carIn50326:1" depart="57651.00" departLane="128361102#0_1" departPos="5.10" departSpeed="0.00" departDelay="0.30" arrival="57873.00" arrivalLane="18809673#0_1" arrivalPos="473.56" arrivalSpeed="12.18" duration="222.00" routeLength="1591.07" waitingTime="60.00" waitingCount="2" stopTime="0.00" timeLoss="84.48" rerouteNo="1" devices="tripinfo_carIn50326:1 routing_carIn50326:1 emissions_carIn50326:1" vType="default_016" speedFactor="0.94" vaporized="">
        <emissions CO_abs="12976.627901" CO2_abs="481248.519287" HC_abs="70.242872" PMx_abs="8.549305" NOx_abs="196.964960" fuel_abs="206.872862" electricity_abs="0"/>
    </tripinfo>
    <tripinfo id="carIn82278:1" depart="57702.00" departLane="-306240162#1_0" departPos="5.10" departSpeed="0.00" departDelay="0.70" arrival="57873.00" arrivalLane="399835085#1_1" arrivalPos="212.23" arrivalSpeed="8.42" duration="171.00" routeLength="1093.26" waitingTime="63.00" waitingCount="2" stopTime="0.00" timeLoss="95.43" rerouteNo="1" devices="tripinfo_carIn82278:1 routing_carIn82278:1 emissions_carIn82278:1" vType="default_016" speedFactor="1.04" vaporized="">
        <emissions CO_abs="15173.283648" CO2_abs="494872.826465" HC_abs="80.803219" PMx_abs="10.449914" NOx_abs="212.740342" fuel_abs="212.728582" electricity_abs="0"/>
    </tripinfo>
    <tripinfo id="carIn73855:1" depart="57743.00" departLane="386687232#0_1" departPos="5.10" departSpeed="0.00" departDelay="0.50" arrival="57873.00" arrivalLane="-315358244_2" arrivalPos="33.95" arrivalSpeed="13.39" duration="130.00" routeLength="1157.39" waitingTime="28.00" waitingCount="1" stopTime="0.00" timeLoss="43.21" rerouteNo="1" devices="tripinfo_carIn73855:1 routing_carIn73855:1 emissions_carIn73855:1" vType="default_016" speedFactor="0.97" vaporized="">
        <emissions CO_abs="7155.670639" CO2_abs="310384.097317" HC_abs="39.843504" PMx_abs="5.617322" NOx_abs="127.226894" fuel_abs="133.422737" electricity_abs="0"/>
    </tripinfo>
    <tripinfo id="carIn126378:1" depart="57746.00" departLane="386687232#0_1" departPos="5.10" departSpeed="0.00" departDelay="1.80" arrival="57873.00" arrivalLane="-315358244_1" arrivalPos="33.95" arrivalSpeed="14.51" duration="127.00" routeLength="1157.39" waitingTime="33.00" waitingCount="1" stopTime="0.00" timeLoss="48.62" rerouteNo="1" devices="tripinfo_carIn126378:1 routing_carIn126378:1 emissions_carIn126378:1" vType="default_016" speedFactor="1.07" vaporized="">
        <emissions CO_abs="8063.504431" CO2_abs="335669.148220" HC_abs="44.419110" PMx_abs="6.136763" NOx_abs="137.104419" fuel_abs="144.292098" electricity_abs="0"/>
    </tripinfo>
    <tripinfo id="carIn129809:1" depart="57729.00" departLane="-447569998#1_1" departPos="5.10" departSpeed="0.00" departDelay="1.00" arrival="57876.00" arrivalLane="-315358244_1" arrivalPos="33.95" arrivalSpeed="11.83" duration="147.00" routeLength="706.49" waitingTime="66.00" waitingCount="1" stopTime="0.00" timeLoss="81.30" rerouteNo="1" devices="tripinfo_carIn129809:1 routing_carIn129809:1 emissions_carIn129809:1" vType="default_015" speedFactor="0.93" vaporized="">