<?xml version="1.0" encoding="UTF-8"?>

<!-- generated on Thu Nov  4 14:12:04 2021 by Eclipse SUMO sumo Version 1.9.0
<configuration xmlns:xsi="http://www.w3.org/2001/XMLSchema-instance" xsi:noNamespaceSchemaLocation="http://sumo.dlr.de/xsd/sumoConfiguration.xsd">

    <input>
        <net-file value="/mainfs/home/bk2g18/RESCO/environments/ingolstadt21/ingolstadt21.net.xml"/>
        <route-files value="/mainfs/home/bk2g18/RESCO/environments/ingolstadt21/ingolstadt21.rou.xml"/>
    </input>

    <output>
        <tripinfo-output value="/mainfs/home/bk2g18/RESCO/logs/MPLight-tr0-ingolstadt21-21-mplight_full-pressure/tripinfo_77.xml"/>
        <tripinfo-output.write-unfinished value="true"/>
    </output>

    <time>
        <begin value="57600"/>
        <end value="61200"/>
    </time>

    <processing>
        <time-to-teleport value="-1"/>
    </processing>

    <report>
        <xml-validation value="never"/>
        <xml-validation.routes value="never"/>
        <no-warnings value="true"/>
        <no-step-log value="true"/>
    </report>

    <emissions>
        <device.emissions.probability value="1"/>
    </emissions>

    <traci_server>
        <remote-port value="57238"/>
    </traci_server>

    <random_number>
        <random value="true"/>
    </random_number>

</configuration>
-->

<tripinfos xmlns:xsi="http://www.w3.org/2001/XMLSchema-instance" xsi:noNamespaceSchemaLocation="http://sumo.dlr.de/xsd/tripinfo_file.xsd">
    <tripinfo id="h15454c2:3" depart="57612.00" departLane="24608844_1" departPos="5.10" departSpeed="0.00" departDelay="0.50" arrival="57652.00" arrivalLane="32978638#0_1" arrivalPos="49.29" arrivalSpeed="14.57" duration="40.00" routeLength="354.79" waitingTime="0.00" waitingCount="0" stopTime="0.00" timeLoss="8.64" rerouteNo="1" devices="tripinfo_h15454c2:3 routing_h15454c2:3 emissions_h15454c2:3" vType="default_016" speedFactor="1.09" vaporized="">
        <emissions CO_abs="2358.779134" CO2_abs="130299.957073" HC_abs="13.783867" PMx_abs="2.277784" NOx_abs="53.479550" fuel_abs="56.010681" electricity_abs="0"/>
    </tripinfo>
    <tripinfo id="carIn53971:1" depart="57640.00" departLane="272042143_1" departPos="5.10" departSpeed="0.00" departDelay="0.80" arrival="57694.00" arrivalLane="24634414#1_1" arrivalPos="162.19" arrivalSpeed="8.23" duration="54.00" routeLength="493.04" waitingTime="0.00" waitingCount="0" stopTime="0.00" timeLoss="9.65" rerouteNo="1" devices="tripinfo_carIn53971:1 routing_carIn53971:1 emissions_carIn53971:1" vType="default_016" speedFactor="1.04" vaporized="">
        <emissions CO_abs="2677.305027" CO2_abs="154661.902381" HC_abs="15.806465" PMx_abs="2.688603" NOx_abs="63.224224" fuel_abs="66.482830" electricity_abs="0"/>
    </tripinfo>
    <tripinfo id="h7800c1:5" depart="57696.00" departLane="-447569998#1_1" departPos="5.10" departSpeed="0.00" departDelay="0.00" arrival="57725.00" arrivalLane="-447569998#1_2" arrivalPos="180.76" arrivalSpeed="4.87" duration="29.00" routeLength="175.66" waitingTime="1.00" waitingCount="1" stopTime="0.00" timeLoss="8.58" rerouteNo="1" devices="tripinfo_h7800c1:5 routing_h7800c1:5 emissions_h7800c1:5" vType="default_016" speedFactor="1.05" vaporized="">
        <emissions CO_abs="1238.045357" CO2_abs="51284.000558" HC_abs="6.827926" PMx_abs="0.923560" NOx_abs="21.422307" fuel_abs="22.045120" electricity_abs="0"/>
    </tripinfo>
    <tripinfo id="carIn121703:1" depart="57647.00" departLane="386687232#0_1" departPos="5.10" departSpeed="0.00" departDelay="0.30" arrival="57736.00" arrivalLane="-315358244_1" arrivalPos="33.95" arrivalSpeed="14.31" duration="89.00" routeLength="1157.39" waitingTime="0.00" waitingCount="0" stopTime="0.00" timeLoss="8.56" rerouteNo="1" devices="tripinfo_carIn121703:1 routing_carIn121703:1 emissions_carIn121703:1" vType="default_016" speedFactor="1.05" vaporized="">
        <emissions CO_abs="2375.910819" CO2_abs="224229.105914" HC_abs="15.998032" PMx_abs="3.500427" NOx_abs="87.000710" fuel_abs="96.386453" electricity_abs="0"/>
    </tripinfo>
    <tripinfo id="carIn22761:1" depart="57616.00" departLane="-306240162#1_0" departPos="5.10" departSpeed="0.00" departDelay="2.10" arrival="57738.00" arrivalLane="399835085#1_1" arrivalPos="212.23" arrivalSpeed="7.72" duration="122.00" routeLength="1093.26" waitingTime="18.00" waitingCount="1" stopTime="0.00" timeLoss="39.55" rerouteNo="1" devices="tripinfo_carIn22761:1 routing_carIn22761:1 emissions_carIn22761:1" vType="default_016" speedFactor="0.95" vaporized="">
        <emissions CO_abs="7189.936455" CO2_abs="336504.420989" HC_abs="40.702890" PMx_abs="6.460088" NOx_abs="140.085757" fuel_abs="144.649880" electricity_abs="0"/>
    </tripinfo>
    <tripinfo id="h3568c1:3" depart="57656.00" departLane="266565295#5_1" departPos="5.10" departSpeed="0.00" departDelay="0.80" arrival="57764.00" arrivalLane="-24634415_1" arrivalPos="62.03" arrivalSpeed="14.40" duration="108.00" routeLength="807.40" waitingTime="28.00" waitingCount="1" stopTime="0.00" timeLoss="47.50" rerouteNo="1" devices="tripinfo_h3568c1:3 routing_h3568c1:3 emissions_h3568c1:3" vType="default_016" speedFactor="1.08" vaporized="">
        <emissions CO_abs="7986.494518" CO2_abs="317269.627098" HC_abs="43.807918" PMx_abs="6.233192" NOx_abs="133.856873" fuel_abs="136.382324" electricity_abs="0"/>
    </tripinfo>
    <tripinfo id="h4538c1:1" depart="57701.00" departLane="-10427692#1_1" departPos="5.10" departSpeed="0.00" departDelay="0.00" arrival="57775.00" arrivalLane="-128361102#1_1" arrivalPos="274.68" arrivalSpeed="13.54" duration="74.00" routeLength="440.74" waitingTime="31.00" waitingCount="1" stopTime="0.00" timeLoss="43.68" rerouteNo="1" devices="tripinfo_h4538c1:1 routing_h4538c1:1 emissions_h4538c1:1" vType="default_016" speedFactor="1.04" vaporized="">
        <emissions CO_abs="6094.860834" CO2_abs="182029.061854" HC_abs="32.002181" PMx_abs="3.629183" NOx_abs="76.906532" fuel_abs="78.248713" electricity_abs="0"/>
    </tripinfo>
    <tripinfo id="h317c2:1" depart="57707.00" departLane="-32978638#0_1" departPos="5.10" departSpeed="0.00" departDelay="0.10" arrival="57785.00" arrivalLane="-266565295#5_1" arrivalPos="172.76" arrivalSpeed="13.31" duration="78.00" routeLength="370.53" waitingTime="42.00" waitingCount="1" stopTime="0.00" timeLoss="50.29" rerouteNo="1" devices="tripinfo_h317c2:1 routing_h317c2:1 emissions_h317c2:1" vType="default_016" speedFactor="1.00" vaporized="">
        <emissions CO_abs="8145.310040" CO2_abs="216768.556401" HC_abs="42.192535" PMx_abs="4.640015" NOx_abs="94.110155" fuel_abs="93.182384" electricity_abs="0"/>
    </tripinfo>
    <tripinfo id="carIn107282:1" depart="57749.00" departLane="-447569998#1_1" departPos="5.10" departSpeed="0.00" departDelay="0.00" arrival="57788.00" arrivalLane="315358242#0_1" arrivalPos="165.37" arrivalSpeed="16.31" duration="39.00" routeLength="448.50" waitingTime="0.00" waitingCount="0" stopTime="0.00" timeLoss="4.35" rerouteNo="1" devices="tripinfo_carIn107282:1 routing_carIn107282:1 emissions_carIn107282:1" vType="default_016" speedFactor="1.20" vaporized="">
        <emissions CO_abs="1754.817633" CO2_abs="118445.475060" HC_abs="10.766973" PMx_abs="2.067753" NOx_abs="47.879155" fuel_abs="50.914662" electricity_abs="0"/>
    </tripinfo>
    <tripinfo id="h330c1:1" depart="57736.00" departLane="-32978638#0_1" departPos="5.10" departSpeed="0.00" departDelay="0.20" arrival="57789.00" arrivalLane="-266565295#5_1" arrivalPos="172.76" arrivalSpeed="12.48" duration="53.00" routeLength="370.53" waitingTime="12.00" waitingCount="1" stopTime="0.00" timeLoss="22.85" rerouteNo="1" devices="tripinfo_h330c1:1 routing_h330c1:1 emissions_h330c1:1" vType="default_016" speedFactor="0.92" vaporized="">
        <emissions CO_abs="3035.393978" CO2_abs="130707.366351" HC_abs="16.876962" PMx_abs="2.387917" NOx_abs="54.099609" fuel_abs="56.186247" electricity_abs="0"/>
    </tripinfo>
    <tripinfo id="carIn129809:1" depart="57729.00" departLane="-447569998#1_1" departPos="5.10" departSpeed="0.00" departDelay="1.00" arrival="57791.00" arrivalLane="-315358244_1" arrivalPos="33.95" arrivalSpeed="14.77" duration="62.00" routeLength="706.49" waitingTime="0.00" waitingCount="0" stopTime="0.00" timeLoss="7.30" rerouteNo="1" devices="tripinfo_carIn129809:1 routing_carIn129809:1 emissions_carIn129809:1" vType="default_015" speedFactor="1.12" vaporized="">
        <emissions CO_abs="2067.969425" CO2_abs="147709.854127" HC_abs="12.865902" PMx_abs="2.433143" NOx_abs="58.724785" fuel_abs="63.494298" electricity_abs="0"/>
    </tripinfo>
    <tripinfo id="h3326c1:2" depart="57656.00" departLane="22716069#0_1" departPos="5.10" departSpeed="0.00" departDelay="0.00" arrival="57793.00" arrivalLane="24634517#13_1" arrivalPos="111.62" arrivalSpeed="10.48" duration="137.00" routeLength="1312.81" waitingTime="0.00" waitingCount="0" stopTime="0.00" timeLoss="15.79" rerouteNo="1" devices="tripinfo_h3326c1:2 routing_h3326c1:2 emissions_h3326c1:2" vType="default_016" speedFactor="0.81" vaporized="">
        <emissions CO_abs="4575.690547" CO2_abs="304287.990056" HC_abs="27.828570" PMx_abs="4.541033" NOx_abs="119.324851" fuel_abs="130.801546" electricity_abs="0"/>
    </tripinfo>
    <tripinfo id="carIn27009:1" depart="57673.00" departLane="-447569998#1_1" departPos="5.10" departSpeed="0.00" departDelay="0.50" arrival="57796.00" arrivalLane="-26677539_1" arrivalPos="152.75" arrivalSpeed="7.61" duration="123.00" routeLength="699.63" waitingTime="20.00" waitingCount="1" stopTime="0.00" timeLoss="36.35" rerouteNo="1" devices="tripinfo_carIn27009:1 routing_carIn27009:1 emissions_carIn27009:1" vType="default_015" speedFactor="0.97" vaporized="">
        <emissions CO_abs="6680.587388" CO2_abs="229041.456045" HC_abs="35.674024" PMx_abs="3.968355" NOx_abs="94.499686" fuel_abs="98.457805" electricity_abs="0"/>
    </tripinfo>
    <tripinfo id="randUni15030:1" depart="57735.00" departLane="386687232#0_1" departPos="5.10" departSpeed="0.00" departDelay="0.10" arrival="57830.00" arrivalLane="26677539_1" arrivalPos="151.98" arrivalSpeed="7.76" duration="95.00" routeLength="919.89" waitingTime="0.00" waitingCount="0" stopTime="0.00" timeLoss="10.88" rerouteNo="1" devices="tripinfo_randUni15030:1 routing_randUni15030:1 emissions_randUni15030:1" vType="random_016" speedFactor="0.99" vaporized="">
        <emissions CO_abs="3455.236133" CO2_abs="217525.614018" HC_abs="20.771166" PMx_abs="3.545434" NOx_abs="87.139310" fuel_abs="93.505490" electricity_abs="0"/>
    </tripinfo>
    <tripinfo id="carIn80064:1" depart="57603.00" departLane="128361109#1_1" departPos="5.10" departSpeed="0.00" departDelay="0.40" arrival="57837.00" arrivalLane="-315358254#1_1" arrivalPos="137.16" arrivalSpeed="13.45" duration="234.00" routeLength="1587.97" waitingTime="113.00" waitingCount="3" stopTime="0.00" timeLoss="147.27" rerouteNo="1" devices="tripinfo_carIn80064:1 routing_carIn80064:1 emissions_carIn80064:1" vType="default_016" speedFactor="1.04" vaporized="">
        <emissions CO_abs="23057.505019" CO2_abs="750311.868103" HC_abs="122.886038" PMx_abs="16.151430" NOx_abs="322.642546" fuel_abs="322.532705" electricity_abs="0"/>
    </tripinfo>
    <tripinfo id="h3688c1:1" depart="57625.00" departLane="201201950#1_1" departPos="5.10" departSpeed="0.00" departDelay="0.00" arrival="57838.00" arrivalLane="32978638#0_1" arrivalPos="49.29" arrivalSpeed="9.73" duration="213.00" routeLength="1089.75" waitingTime="91.00" waitingCount="2" stopTime="0.00" timeLoss="109.79" rerouteNo="1" devices="tripinfo_h3688c1:1 routing_h3688c1:1 emissions_h3688c1:1" vType="default_016" speedFactor="0.78" vaporized="">
        <emissions CO_abs="18090.247082" CO2_abs="469867.633419" HC_abs="93.302106" PMx_abs="9.477071" NOx_abs="200.756751" fuel_abs="201.983387" electricity_abs="0"/>
    </tripinfo>
    <tripinfo id="carIn60260:1" depart="57606.00" departLane="315358254#0_1" departPos="5.10" departSpeed="0.00" departDelay="0.90" arrival="57844.00" arrivalLane="399835085#1_1" arrivalPos="212.23" arrivalSpeed="7.49" duration="238.00" routeLength="430.98" waitingTime="179.00" waitingCount="1" stopTime="0.00" timeLoss="190.76" rerouteNo="1" devices="tripinfo_carIn60260:1 routing_carIn60260:1 emissions_carIn60260:1" vType="default_016" speedFactor="0.97" vaporized="">
        <emissions CO_abs="31571.235972" CO2_abs="593450.454856" HC_abs="157.644050" PMx_abs="13.784981" NOx_abs="265.380335" fuel_abs="255.112981" electricity_abs="0"/>
    </tripinfo>
    <tripinfo id="carIn8642:1" depart="57774.00" departLane="-447569998#1_1" departPos="5.10" departSpeed="0.00" departDelay="0.90" arrival="57854.00" arrivalLane="-315358244_1" arrivalPos="33.95" arrivalSpeed="11.66" duration="80.00" routeLength="706.49" waitingTime="1.00" waitingCount="1" stopTime="0.00" timeLoss="12.89" rerouteNo="1" devices="tripinfo_carIn8642:1 routing_carIn8642:1 emissions_carIn8642:1" vType="default_016" speedFactor="0.90" vaporized="">
        <emissions CO_abs="3271.224594" CO2_abs="184701.796527" HC_abs="19.163485" PMx_abs="2.964128" NOx_abs="73.893553" fuel_abs="79.396195" electricity_abs="0"/>
    </tripinfo>
    <tripinfo id="carIn70533:1" depart="57812.00" departLane="-447569998#1_1" departPos="5.10" departSpeed="0.00" departDelay="0.10" arrival="57870.00" arrivalLane="-315358244_1" arrivalPos="33.95" arrivalSpeed="16.12" duration="58.00" routeLength="706.49" waitingTime="0.00" waitingCount="0" stopTime="0.00" timeLoss="6.48" rerouteNo="1" devices="tripinfo_carIn70533:1 routing_carIn70533:1 emissions_carIn70533:1" vType="default_016" speedFactor="1.17" vaporized="">
        <emissions CO_abs="2246.042675" CO2_abs="153508.384468" HC_abs="13.795902" PMx_abs="2.710384" NOx_abs="62.220133" fuel_abs="65.986638" electricity_abs="0"/>
    </tripinfo>
    <tripinfo id="h5239c1:3" depart="57834.00" departLane="315358254#0_1" departPos="5.10" departSpeed="0.00" departDelay="0.80" arrival="57889.00" arrivalLane="224892361#3_1" arrivalPos="220.30" arrivalSpeed="18.34" duration="55.00" routeLength="793.34" waitingTime="0.00" waitingCount="0" stopTime="0.00" timeLoss="7.80" rerouteNo="1" devices="tripinfo_h5239c1:3 routing_h5239c1:3 emissions_h5239c1:3" vType="default_016" speedFactor="0.87" vaporized="">
        <emissions CO_abs="2773.298488" CO2_abs="212401.880532" HC_abs="17.597637" PMx_abs="3.939019" NOx_abs="85.954050" fuel_abs="91.301974" electricity_abs="0"/>
    </tripinfo>
    <tripinfo id="h17600c1:1" depart="57662.00" departLane="272042143_1" departPos="5.10" departSpeed="0.00" departDelay="0.30" arrival="57895.00" arrivalLane="201238729#3_1" arrivalPos="431.02" arrivalSpeed="12.21" duration="233.00" routeLength="2100.26" waitingTime="48.00" waitingCount="1" stopTime="0.00" timeLoss="67.37" rerouteNo="1" devices="tripinfo_h17600c1:1 routing_h17600c1:1 emissions_h17600c1:1" vType="default_016" speedFactor="0.92" vaporized="">
        <emissions CO_abs="11971.290085" CO2_abs="507991.917353" HC_abs="66.317195" PMx_abs="8.827492" NOx_abs="205.719294" fuel_abs="218.367887" electricity_abs="0"/>
    </tripinfo>
    <tripinfo id="randUni23028:1" depart="57884.00" departLane="124812856#0_1" departPos="5.10" departSpeed="0.00" departDelay="0.10" arrival="57899.00" arrivalLane="201956810_1" arrivalPos="71.65" arrivalSpeed="14.79" duration="15.00" routeLength="134.91" waitingTime="0.00" waitingCount="0" stopTime="0.00" timeLoss="5.11" rerouteNo="1" devices="tripinfo_randUni23028:1 routing_randUni23028:1 emissions_randUni23028:1" vType="random_016" speedFactor="1.09" vaporized="">
        <emissions CO_abs="1401.138378" CO2_abs="74712.529941" HC_abs="8.118689" PMx_abs="1.453085" NOx_abs="31.551637" fuel_abs="32.115712" electricity_abs="0"/>
    </tripinfo>
    <tripinfo id="h7181c1:1" depart="57660.00" departLane="315358254#0_1" departPos="5.10" departSpeed="0.00" departDelay="0.10" arrival="57901.00" arrivalLane="306240162#0_0" arrivalPos="220.43" arrivalSpeed="15.63" duration="241.00" routeLength="932.35" waitingTime="168.00" waitingCount="2" stopTime="0.00" timeLoss="187.05" rerouteNo="1" devices="tripinfo_h7181c1:1 routing_h7181c1:1 emissions_h7181c1:1" vType="default_016" speedFactor="0.95" vaporized="">
        <emissions CO_abs="30538.460120" CO2_abs="690022.337620" HC_abs="155.302741" PMx_abs="15.789254" NOx_abs="304.134929" fuel_abs="296.622753" electricity_abs="0"/>
    </tripinfo>
    <tripinfo id="carIn132499:1" depart="57740.00" departLane="272042143_1" departPos="5.10" departSpeed="0.00" departDelay="0.70" arrival="57903.00" arrivalLane="201238729#3_1" arrivalPos="431.02" arrivalSpeed="12.76" duration="163.00" routeLength="2100.26" waitingTime="0.00" waitingCount="0" stopTime="0.00" timeLoss="12.88" rerouteNo="1" devices="tripinfo_carIn132499:1 routing_carIn132499:1 emissions_carIn132499:1" vType="default_016" speedFactor="1.01" vaporized="">
        <emissions CO_abs="3949.007462" CO2_abs="381368.763270" HC_abs="26.894759" PMx_abs="5.953932" NOx_abs="148.400809" fuel_abs="163.933933" electricity_abs="0"/>
    </tripinfo>
    <tripinfo id="carIn13353:1" depart="57838.00" departLane="-447569998#1_1" departPos="5.10" departSpeed="0.00" departDelay="0.30" arrival="57904.00" arrivalLane="-315358244_1" arrivalPos="33.95" arrivalSpeed="13.81" duration="66.00" routeLength="706.49" waitingTime="0.00" waitingCount="0" stopTime="0.00" timeLoss="6.83" rerouteNo="1" devices="tripinfo_carIn13353:1 routing_carIn13353:1 emissions_carIn13353:1" vType="default_016" speedFactor="1.03" vaporized="">
        <emissions CO_abs="2224.095422" CO2_abs="155019.938275" HC_abs="13.707414" PMx_abs="2.404184" NOx_abs="60.813242" fuel_abs="66.636855" electricity_abs="0"/>
    </tripinfo>
    <tripinfo id="carIn63848:1" depart="57841.00" departLane="-447569998#1_1" departPos="5.10" departSpeed="0.00" departDelay="0.80" arrival="57905.00" arrivalLane="-315358244_2" arrivalPos="33.95" arrivalSpeed="14.25" duration="64.00" routeLength="706.49" waitingTime="0.00" waitingCount="0" stopTime="0.00" timeLoss="8.01" rerouteNo="1" devices="tripinfo_carIn63848:1 routing_carIn63848:1 emissions_carIn63848:1" vType="default_016" speedFactor="1.09" vaporized="">
        <emissions CO_abs="2317.907888" CO2_abs="169594.562212" HC_abs="14.413696" PMx_abs="2.731378" NOx_abs="66.993357" fuel_abs="72.901652" electricity_abs="0"/>
    </tripinfo>
    <tripinfo id="randUni31145:1" depart="57814.00" departLane="10425609#0_1" departPos="5.10" departSpeed="0.00" departDelay="0.30" arrival="57916.00" arrivalLane="201956810_1" arrivalPos="71.65" arrivalSpeed="12.09" duration="102.00" routeLength="255.78" waitingTime="71.00" waitingCount="1" stopTime="0.00" timeLoss="80.19" rerouteNo="1" devices="tripinfo_randUni31145:1 routing_randUni31145:1 emissions_randUni31145:1" vType="random_016" speedFactor="0.90" vaporized="">
        <emissions CO_abs="12658.555608" CO2_abs="274311.944839" HC_abs="64.083856" PMx_abs="6.195716" NOx_abs="121.523349" fuel_abs="117.920064" electricity_abs="0"/>
    </tripinfo>
    <tripinfo id="randUni2407:1" depart="57820.00" departLane="10425609#0_1" departPos="5.10" departSpeed="0.00" departDelay="0.80" arrival="57918.00" arrivalLane="201956810_1" arrivalPos="71.65" arrivalSpeed="15.02" duration="98.00" routeLength="255.78" waitingTime="66.00" waitingCount="1" stopTime="0.00" timeLoss="82.07" rerouteNo="1" devices="tripinfo_randUni2407:1 routing_randUni2407:1 emissions_randUni2407:1" vType="random_016" speedFactor="1.26" vaporized="">
        <emissions CO_abs="12333.197915" CO2_abs="274198.465340" HC_abs="62.616536" PMx_abs="6.237668" NOx_abs="121.861371" fuel_abs="117.870929" electricity_abs="0"/>
    </tripinfo>
    <tripinfo id="h3426c1:1" depart="57864.00" departLane="-160314345#2_1" departPos="5.10" departSpeed="0.00" departDelay="0.00" arrival="57936.00" arrivalLane="386687235_1" arrivalPos="80.84" arrivalSpeed="13.86" duration="72.00" routeLength="726.87" waitingTime="0.00" waitingCount="0" stopTime="0.00" timeLoss="8.12" rerouteNo="1" devices="tripinfo_h3426c1:1 routing_h3426c1:1 emissions_h3426c1:1" vType="default_016" speedFactor="1.06" vaporized="">
        <emissions CO_abs="2636.108803" CO2_abs="169401.553779" HC_abs="15.947505" PMx_abs="2.775679" NOx_abs="67.650710" fuel_abs="72.818862" electricity_abs="0"/>
    </tripinfo>
    <tripinfo id="carIn21399:1" depart="57771.00" departLane="128361109#1_1" departPos="5.10" departSpeed="0.00" departDelay="3.30" arrival="57937.00" arrivalLane="-315358254#1_1" arrivalPos="137.16" arrivalSpeed="12.93" duration="166.00" routeLength="1587.97" waitingTime="47.00" waitingCount="2" stopTime="0.00" timeLoss="75.67" rerouteNo="1" devices="tripinfo_carIn21399:1 routing_carIn21399:1 emissions_carIn21399:1" vType="default_016" speedFactor="0.99" vaporized="">
        <emissions CO_abs="12557.685289" CO2_abs="529002.337307" HC_abs="69.794078" PMx_abs="10.851436" NOx_abs="223.089431" fuel_abs="227.397260" electricity_abs="0"/>
    </tripinfo>
    <tripinfo id="carIn115169:1" depart="57759.00" departLane="24599188#0.94_1" departPos="5.10" departSpeed="0.00" departDelay="0.50" arrival="57949.00" arrivalLane="-10427692#3_1" arrivalPos="28.64" arrivalSpeed="22.56" duration="190.00" routeLength="2183.23" waitingTime="0.00" waitingCount="0" stopTime="0.00" timeLoss="26.28" rerouteNo="1" devices="tripinfo_carIn115169:1 routing_carIn115169:1 emissions_carIn115169:1" vType="default_016" speedFactor="1.04" vaporized="">
        <emissions CO_abs="7317.817566" CO2_abs="536617.169167" HC_abs="45.912174" PMx_abs="9.176826" NOx_abs="215.523125" fuel_abs="230.668626" electricity_abs="0"/>
    </tripinfo>
    <tripinfo id="carIn104131:1" depart="57837.00" departLane="-306240162#1_0" departPos="5.10" departSpeed="0.00" departDelay="2.10" arrival="57959.00" arrivalLane="-315358254#1_1" arrivalPos="137.16" arrivalSpeed="10.49" duration="122.00" routeLength="1512.65" waitingTime="5.00" waitingCount="1" stopTime="0.00" timeLoss="22.77" rerouteNo="1" devices="tripinfo_carIn104131:1 routing_carIn104131:1 emissions_carIn104131:1" vType="default_016" speedFactor="0.83" vaporized="">
        <emissions CO_abs="4872.674647" CO2_abs="343399.145710" HC_abs="30.191060" PMx_abs="6.138506" NOx_abs="138.546977" fuel_abs="147.612361" electricity_abs="0"/>
    </tripinfo>
    <tripinfo id="carIn79268:1" depart="57858.00" departLane="-306240162#1_0" departPos="5.10" departSpeed="0.00" departDelay="0.70" arrival="57961.00" arrivalLane="-315358254#1_1" arrivalPos="137.16" arrivalSpeed="12.56" duration="103.00" routeLength="1512.65" waitingTime="0.00" waitingCount="0" stopTime="0.00" timeLoss="18.46" rerouteNo="1" devices="tripinfo_carIn79268:1 routing_carIn79268:1 emissions_carIn79268:1" vType="default_016" speedFactor="0.98" vaporized="">
        <emissions CO_abs="4571.016157" CO2_abs="352113.258359" HC_abs="29.186488" PMx_abs="6.638744" NOx_abs="143.216939" fuel_abs="151.357414" electricity_abs="0"/>
    </tripinfo>
    <tripinfo id="h7032c2:3" depart="57863.00" departLane="315358244_1" departPos="5.10" departSpeed="0.00" departDelay="0.40" arrival="57962.00" arrivalLane="26677541_1" arrivalPos="152.31" arrivalSpeed="13.79" duration="99.00" routeLength="925.70" waitingTime="0.00" waitingCount="0" stopTime="0.00" timeLoss="14.23" rerouteNo="1" devices="tripinfo_h7032c2:3 routing_h7032c2:3 emissions_h7032c2:3" vType="default_016" speedFactor="1.06" vaporized="">
        <emissions CO_abs="4163.164166" CO2_abs="246483.626917" HC_abs="24.684598" PMx_abs="4.157384" NOx_abs="99.756248" fuel_abs="105.953359" electricity_abs="0"/>
    </tripinfo>
    <tripinfo id="randUni11215:1" depart="57953.00" departLane="124812856#0_1" departPos="5.10" departSpeed="0.00" departDelay="0.30" arrival="57969.00" arrivalLane="201956810_1" arrivalPos="71.65" arrivalSpeed="12.63" duration="16.00" routeLength="134.91" waitingTime="0.00" waitingCount="0" stopTime="0.00" timeLoss="4.74" rerouteNo="1" devices="tripinfo_randUni11215:1 routing_randUni11215:1 emissions_randUni11215:1" vType="random_016" speedFactor="0.98" vaporized="">
        <emissions CO_abs="1233.750401" CO2_abs="64679.012974" HC_abs="7.139923" PMx_abs="1.200228" NOx_abs="26.998750" fuel_abs="27.802839" electricity_abs="0"/>
    </tripinfo>
    <tripinfo id="randUni16001:1" depart="57912.00" departLane="10425609#0_1" departPos="5.10" departSpeed="0.00" departDelay="0.30" arrival="57977.00" arrivalLane="201956810_1" arrivalPos="71.65" arrivalSpeed="11.58" duration="65.00" routeLength="255.78" waitingTime="30.00" waitingCount="1" stopTime="0.00" timeLoss="41.50" rerouteNo="1" devices="tripinfo_randUni16001:1 routing_randUni16001:1 emissions_randUni16001:1" vType="random_016" speedFactor="0.85" vaporized="">
        <emissions CO_abs="6325.373091" CO2_abs="167739.641295" HC_abs="32.745707" PMx_abs="3.596594" NOx_abs="73.271401" fuel_abs="72.106272" electricity_abs="0"/>
    </tripinfo>
    <tripinfo id="h13377c2:3" depart="57804.00" departLane="315358244_1" departPos="5.10" departSpeed="0.00" departDelay="0.60" arrival="57981.00" arrivalLane="447569997#1_1" arrivalPos="180.93" arrivalSpeed="8.24" duration="177.00" routeLength="726.74" waitingTime="89.00" waitingCount="3" stopTime="0.00" timeLoss="110.24" rerouteNo="1" devices="tripinfo_h13377c2:3 routing_h13377c2:3 emissions_h13377c2:3" vType="default_016" speedFactor="1.02" vaporized="">
        <emissions CO_abs="17588.014233" CO2_abs="409954.834882" HC_abs="89.673204" PMx_abs="8.813467" NOx_abs="178.575616" fuel_abs="176.229218" electricity_abs="0"/>
    </tripinfo>
    <tripinfo id="carIn113750:1" depart="57961.00" departLane="24599188#0.94_1" departPos="5.10" departSpeed="0.00" departDelay="0.30" arrival="57986.00" arrivalLane="24599188#0.94_1" arrivalPos="186.59" arrivalSpeed="7.97" duration="25.00" routeLength="181.49" waitingTime="0.00" waitingCount="0" stopTime="0.00" timeLoss="3.57" rerouteNo="1" devices="tripinfo_carIn113750:1 routing_carIn113750:1 emissions_carIn113750:1" vType="default_016" speedFactor="1.06" vaporized="">
        <emissions CO_abs="1208.162024" CO2_abs="54429.170625" HC_abs="6.747796" PMx_abs="0.870508" NOx_abs="21.970424" fuel_abs="23.397197" electricity_abs="0"/>
    </tripinfo>
    <tripinfo id="carIn85747:1" depart="57673.00" departLane="128361109#1_1" departPos="5.10" departSpeed="0.00" departDelay="0.70" arrival="58000.00" arrivalLane="386687235_1" arrivalPos="80.84" arrivalSpeed="14.91" duration="327.00" routeLength="2088.57" waitingTime="170.00" waitingCount="2" stopTime="0.00" timeLoss="191.15" rerouteNo="1" devices="tripinfo_carIn85747:1 routing_carIn85747:1 emissions_carIn85747:1" vType="default_016" speedFactor="1.11" vaporized="">
        <emissions CO_abs="30498.110658" CO2_abs="831142.936766" HC_abs="157.956466" PMx_abs="17.086798" NOx_abs="352.247871" fuel_abs="357.284526" electricity_abs="0"/>
    </tripinfo>
    <tripinfo id="carIn88905:1" depart="57688.00" departLane="128361109#1_1" departPos="5.10" departSpeed="0.00" departDelay="5.80" arrival="58000.00" arrivalLane="386687235_2" arrivalPos="80.84" arrivalSpeed="14.23" duration="312.00" routeLength="2088.57" waitingTime="144.00" waitingCount="2" stopTime="0.00" timeLoss="175.56" rerouteNo="1" devices="tripinfo_carIn88905:1 routing_carIn88905:1 emissions_carIn88905:1" vType="default_016" speedFactor="1.11" vaporized="">
        <emissions CO_abs="27448.919996" CO2_abs="781603.339915" HC_abs="143.087505" PMx_abs="15.911618" NOx_abs="330.911930" fuel_abs="335.988018" electricity_abs="0"/>
    </tripinfo>
    <tripinfo id="carIn75660:1" depart="57679.00" departLane="128361109#1_1" departPos="5.10" departSpeed="0.00" departDelay="3.40" arrival="58004.00" arrivalLane="386687235_1" arrivalPos="80.84" arrivalSpeed="13.92" duration="325.00" routeLength="2088.57" waitingTime="154.00" waitingCount="2" stopTime="0.00" timeLoss="181.23" rerouteNo="1" devices="tripinfo_carIn75660:1 routing_carIn75660:1 emissions_carIn75660:1" vType="default_016" speedFactor="1.05" vaporized="">
        <emissions CO_abs="28456.959756" CO2_abs="798524.623686" HC_abs="148.174319" PMx_abs="16.147157" NOx_abs="337.874988" fuel_abs="343.262470" electricity_abs="0"/>
    </tripinfo>
    <tripinfo id="carIn5824:1" depart="57700.00" departLane="128361109#1_1" departPos="5.10" departSpeed="0.00" departDelay="5.60" arrival="58006.00" arrivalLane="386687235_2" arrivalPos="80.84" arrivalSpeed="14.01" duration="306.00" routeLength="2088.57" waitingTime="128.00" waitingCount="2" stopTime="0.00" timeLoss="167.15" rerouteNo="1" devices="tripinfo_carIn5824:1 routing_carIn5824:1 emissions_carIn5824:1" vType="default_016" speedFactor="1.09" vaporized="">
        <emissions CO_abs="25554.500554" CO2_abs="750958.671534" HC_abs="133.938421" PMx_abs="15.200762" NOx_abs="318.426977" fuel_abs="322.814147" electricity_abs="0"/>
    </tripinfo>
    <tripinfo id="h19577c1:1" depart="57694.00" departLane="128361109#1_1" departPos="5.10" departSpeed="0.00" departDelay="2.80" arrival="58011.00" arrivalLane="386687235_1" arrivalPos="80.84" arrivalSpeed="12.02" duration="317.00" routeLength="2088.57" waitingTime="132.00" waitingCount="2" stopTime="0.00" timeLoss="157.45" rerouteNo="1" devices="tripinfo_h19577c1:1 routing_h19577c1:1 emissions_h19577c1:1" vType="default_016" speedFactor="0.94" vaporized="">
        <emissions CO_abs="25613.087801" CO2_abs="730964.869117" HC_abs="133.685170" PMx_abs="14.438923" NOx_abs="307.927288" fuel_abs="314.220580" electricity_abs="0"/>
    </tripinfo>
    <tripinfo id="carIn95912:1" depart="57825.00" departLane="272042143_1" departPos="5.10" departSpeed="0.00" departDelay="1.40" arrival="58020.00" arrivalLane="201238729#3_1" arrivalPos="431.02" arrivalSpeed="11.04" duration="195.00" routeLength="2100.26" waitingTime="0.00" waitingCount="0" stopTime="0.00" timeLoss="14.05" rerouteNo="1" devices="tripinfo_carIn95912:1 routing_carIn95912:1 emissions_carIn95912:1" vType="default_016" speedFactor="0.84" vaporized="">