<?xml version="1.0" encoding="UTF-8"?>

<!-- generated on Thu Nov  4 13:32:43 2021 by Eclipse SUMO sumo Version 1.9.0
<configuration xmlns:xsi="http://www.w3.org/2001/XMLSchema-instance" xsi:noNamespaceSchemaLocation="http://sumo.dlr.de/xsd/sumoConfiguration.xsd">

    <input>
        <net-file value="/mainfs/home/bk2g18/RESCO/environments/ingolstadt21/ingolstadt21.net.xml"/>
        <route-files value="/mainfs/home/bk2g18/RESCO/environments/ingolstadt21/ingolstadt21.rou.xml"/>
    </input>

    <output>
        <tripinfo-output value="/mainfs/home/bk2g18/RESCO/logs/MPLight-tr0-ingolstadt21-21-mplight_full-pressure/tripinfo_28.xml"/>
        <tripinfo-output.write-unfinished value="true"/>
    </output>

    <time>
        <begin value="57600"/>
        <end value="61200"/>
    </time>

    <processing>
        <time-to-teleport value="-1"/>
    </processing>

    <report>
        <xml-validation value="never"/>
        <xml-validation.routes value="never"/>
        <no-warnings value="true"/>
        <no-step-log value="true"/>
    </report>

    <emissions>
        <device.emissions.probability value="1"/>
    </emissions>

    <traci_server>
        <remote-port value="42278"/>
    </traci_server>

    <random_number>
        <random value="true"/>
    </random_number>

</configuration>
-->

<tripinfos xmlns:xsi="http://www.w3.org/2001/XMLSchema-instance" xsi:noNamespaceSchemaLocation="http://sumo.dlr.de/xsd/tripinfo_file.xsd">
    <tripinfo id="h15454c2:3" depart="57612.00" departLane="24608844_1" departPos="5.10" departSpeed="0.00" departDelay="0.50" arrival="57652.00" arrivalLane="32978638#0_1" arrivalPos="49.29" arrivalSpeed="12.89" duration="40.00" routeLength="354.79" waitingTime="0.00" waitingCount="0" stopTime="0.00" timeLoss="4.79" rerouteNo="1" devices="tripinfo_h15454c2:3 routing_h15454c2:3 emissions_h15454c2:3" vType="default_016" speedFactor="0.99" vaporized="">
        <emissions CO_abs="1696.865378" CO2_abs="97162.783269" HC_abs="9.979630" PMx_abs="1.597044" NOx_abs="39.131489" fuel_abs="41.766462" electricity_abs="0"/>
    </tripinfo>
    <tripinfo id="carIn60260:1" depart="57606.00" departLane="315358254#0_1" departPos="5.10" departSpeed="0.00" departDelay="0.90" arrival="57658.00" arrivalLane="399835085#1_1" arrivalPos="212.23" arrivalSpeed="7.40" duration="52.00" routeLength="430.98" waitingTime="0.00" waitingCount="0" stopTime="0.00" timeLoss="6.93" rerouteNo="1" devices="tripinfo_carIn60260:1 routing_carIn60260:1 emissions_carIn60260:1" vType="default_016" speedFactor="1.01" vaporized="">
        <emissions CO_abs="2226.266475" CO2_abs="114742.342749" HC_abs="12.785832" PMx_abs="1.880942" NOx_abs="46.461585" fuel_abs="49.323392" electricity_abs="0"/>
    </tripinfo>
    <tripinfo id="carIn53971:1" depart="57640.00" departLane="272042143_1" departPos="5.10" departSpeed="0.00" departDelay="0.80" arrival="57689.00" arrivalLane="24634414#1_1" arrivalPos="162.19" arrivalSpeed="8.57" duration="49.00" routeLength="493.04" waitingTime="0.00" waitingCount="0" stopTime="0.00" timeLoss="8.60" rerouteNo="1" devices="tripinfo_carIn53971:1 routing_carIn53971:1 emissions_carIn53971:1" vType="default_016" speedFactor="1.14" vaporized="">
        <emissions CO_abs="2586.261567" CO2_abs="153107.553938" HC_abs="15.388367" PMx_abs="2.815249" NOx_abs="63.502829" fuel_abs="65.814398" electricity_abs="0"/>
    </tripinfo>
    <tripinfo id="h7800c1:5" depart="57696.00" departLane="-447569998#1_1" departPos="5.10" departSpeed="0.00" departDelay="0.00" arrival="57720.00" arrivalLane="-447569998#1_1" arrivalPos="180.76" arrivalSpeed="7.67" duration="24.00" routeLength="175.66" waitingTime="0.00" waitingCount="0" stopTime="0.00" timeLoss="3.49" rerouteNo="1" devices="tripinfo_h7800c1:5 routing_h7800c1:5 emissions_h7800c1:5" vType="default_016" speedFactor="1.05" vaporized="">
        <emissions CO_abs="1210.921322" CO2_abs="55384.866829" HC_abs="6.776260" PMx_abs="0.853313" NOx_abs="22.165101" fuel_abs="23.808049" electricity_abs="0"/>
    </tripinfo>
    <tripinfo id="h3568c1:3" depart="57656.00" departLane="266565295#5_1" departPos="5.10" departSpeed="0.00" departDelay="0.80" arrival="57738.00" arrivalLane="-24634415_1" arrivalPos="62.03" arrivalSpeed="14.07" duration="82.00" routeLength="807.40" waitingTime="3.00" waitingCount="1" stopTime="0.00" timeLoss="22.61" rerouteNo="1" devices="tripinfo_h3568c1:3 routing_h3568c1:3 emissions_h3568c1:3" vType="default_016" speedFactor="1.10" vaporized="">
        <emissions CO_abs="4217.183016" CO2_abs="244281.985371" HC_abs="24.970182" PMx_abs="4.604074" NOx_abs="101.956639" fuel_abs="105.006304" electricity_abs="0"/>
    </tripinfo>
    <tripinfo id="h3154c1:1" depart="57658.00" departLane="24634507_1" departPos="5.10" departSpeed="0.00" departDelay="0.00" arrival="57746.00" arrivalLane="-266565295#5_1" arrivalPos="172.76" arrivalSpeed="15.30" duration="88.00" routeLength="1206.22" waitingTime="0.00" waitingCount="0" stopTime="0.00" timeLoss="12.72" rerouteNo="1" devices="tripinfo_h3154c1:1 routing_h3154c1:1 emissions_h3154c1:1" vType="default_016" speedFactor="1.19" vaporized="">
        <emissions CO_abs="3711.520378" CO2_abs="293470.875181" HC_abs="23.863529" PMx_abs="5.279536" NOx_abs="118.707607" fuel_abs="126.149941" electricity_abs="0"/>
    </tripinfo>
    <tripinfo id="S5R_frequency1.2" depart="57616.00" departLane="315358250#0_1" departPos="12.10" departSpeed="0.00" departDelay="4.40" arrival="57747.00" arrivalLane="386687235_1" arrivalPos="80.84" arrivalSpeed="13.62" duration="131.00" routeLength="1115.62" waitingTime="33.00" waitingCount="1" stopTime="0.00" timeLoss="49.52" rerouteNo="1" devices="tripinfo_S5R_frequency1.2 routing_S5R_frequency1.2 emissions_S5R_frequency1.2" vType="bus" speedFactor="1.00" vaporized="">
        <emissions CO_abs="2770.290347" CO2_abs="1505318.116799" HC_abs="601.088026" PMx_abs="291.973957" NOx_abs="12300.926569" fuel_abs="641.927637" electricity_abs="0"/>
    </tripinfo>
    <tripinfo id="h7181c1:1" depart="57660.00" departLane="315358254#0_1" departPos="5.10" departSpeed="0.00" departDelay="0.10" arrival="57751.00" arrivalLane="306240162#0_0" arrivalPos="220.43" arrivalSpeed="14.95" duration="91.00" routeLength="932.35" waitingTime="11.00" waitingCount="2" stopTime="0.00" timeLoss="35.70" rerouteNo="1" devices="tripinfo_h7181c1:1 routing_h7181c1:1 emissions_h7181c1:1" vType="default_016" speedFactor="0.94" vaporized="">
        <emissions CO_abs="5696.225284" CO2_abs="316360.807916" HC_abs="33.432933" PMx_abs="6.229395" NOx_abs="132.413514" fuel_abs="135.989812" electricity_abs="0"/>
    </tripinfo>
    <tripinfo id="h5979c1:5" depart="57669.00" departLane="399835085#1_1" departPos="5.10" departSpeed="0.00" departDelay="0.00" arrival="57751.00" arrivalLane="-315358254#1_1" arrivalPos="137.16" arrivalSpeed="15.37" duration="82.00" routeLength="659.33" waitingTime="0.00" waitingCount="0" stopTime="0.00" timeLoss="19.42" rerouteNo="1" devices="tripinfo_h5979c1:5 routing_h5979c1:5 emissions_h5979c1:5" vType="default_016" speedFactor="1.17" vaporized="">
        <emissions CO_abs="3586.042994" CO2_abs="181430.151312" HC_abs="20.531163" PMx_abs="3.052608" NOx_abs="73.809111" fuel_abs="77.989911" electricity_abs="0"/>
    </tripinfo>
    <tripinfo id="h4538c1:1" depart="57701.00" departLane="-10427692#1_1" departPos="5.10" departSpeed="0.00" departDelay="0.00" arrival="57760.00" arrivalLane="-128361102#1_1" arrivalPos="274.68" arrivalSpeed="12.02" duration="59.00" routeLength="440.74" waitingTime="13.00" waitingCount="1" stopTime="0.00" timeLoss="22.89" rerouteNo="1" devices="tripinfo_h4538c1:1 routing_h4538c1:1 emissions_h4538c1:1" vType="default_016" speedFactor="0.88" vaporized="">
        <emissions CO_abs="3129.432748" CO2_abs="135046.694103" HC_abs="17.399429" PMx_abs="2.430318" NOx_abs="55.674742" fuel_abs="58.051612" electricity_abs="0"/>
    </tripinfo>
    <tripinfo id="h3326c1:2" depart="57656.00" departLane="22716069#0_1" departPos="5.10" departSpeed="0.00" departDelay="0.00" arrival="57761.00" arrivalLane="24634517#13_1" arrivalPos="111.62" arrivalSpeed="14.79" duration="105.00" routeLength="1312.81" waitingTime="0.00" waitingCount="0" stopTime="0.00" timeLoss="15.79" rerouteNo="1" devices="tripinfo_h3326c1:2 routing_h3326c1:2 emissions_h3326c1:2" vType="default_016" speedFactor="1.09" vaporized="">
        <emissions CO_abs="4032.342193" CO2_abs="309877.744292" HC_abs="25.559526" PMx_abs="5.387037" NOx_abs="124.810548" fuel_abs="133.202810" electricity_abs="0"/>
    </tripinfo>
    <tripinfo id="h12244c1:3" depart="57612.00" departLane="315358244_1" departPos="5.10" departSpeed="0.00" departDelay="0.40" arrival="57773.00" arrivalLane="386687235_1" arrivalPos="80.84" arrivalSpeed="12.91" duration="161.00" routeLength="1186.14" waitingTime="49.00" waitingCount="3" stopTime="0.00" timeLoss="74.92" rerouteNo="1" devices="tripinfo_h12244c1:3 routing_h12244c1:3 emissions_h12244c1:3" vType="default_016" speedFactor="1.00" vaporized="">
        <emissions CO_abs="10437.097561" CO2_abs="383276.378877" HC_abs="56.478539" PMx_abs="7.372348" NOx_abs="160.330146" fuel_abs="164.757109" electricity_abs="0"/>
    </tripinfo>
    <tripinfo id="carIn80064:1" depart="57603.00" departLane="128361109#1_1" departPos="5.10" departSpeed="0.00" departDelay="0.40" arrival="57776.00" arrivalLane="-315358254#1_1" arrivalPos="137.16" arrivalSpeed="12.81" duration="173.00" routeLength="1587.97" waitingTime="50.00" waitingCount="2" stopTime="0.00" timeLoss="79.88" rerouteNo="1" devices="tripinfo_carIn80064:1 routing_carIn80064:1 emissions_carIn80064:1" vType="default_016" speedFactor="0.97" vaporized="">
        <emissions CO_abs="13887.493397" CO2_abs="589261.002793" HC_abs="77.219500" PMx_abs="11.912795" NOx_abs="247.030984" fuel_abs="253.300295" electricity_abs="0"/>
    </tripinfo>
    <tripinfo id="carIn27009:1" depart="57673.00" departLane="-447569998#1_1" departPos="5.10" departSpeed="0.00" departDelay="0.50" arrival="57783.00" arrivalLane="-26677539_1" arrivalPos="152.75" arrivalSpeed="7.83" duration="110.00" routeLength="699.63" waitingTime="12.00" waitingCount="1" stopTime="0.00" timeLoss="28.66" rerouteNo="1" devices="tripinfo_carIn27009:1 routing_carIn27009:1 emissions_carIn27009:1" vType="default_015" speedFactor="1.04" vaporized="">
        <emissions CO_abs="5520.265316" CO2_abs="218891.280854" HC_abs="30.175888" PMx_abs="3.746792" NOx_abs="89.976787" fuel_abs="94.093894" electricity_abs="0"/>
    </tripinfo>
    <tripinfo id="h645c1:1" depart="57622.00" departLane="266565295#5_1" departPos="5.10" departSpeed="0.00" departDelay="0.40" arrival="57793.00" arrivalLane="-315358244_1" arrivalPos="33.95" arrivalSpeed="13.80" duration="171.00" routeLength="1910.83" waitingTime="18.00" waitingCount="2" stopTime="0.00" timeLoss="42.56" rerouteNo="1" devices="tripinfo_h645c1:1 routing_h645c1:1 emissions_h645c1:1" vType="default_016" speedFactor="1.08" vaporized="">
        <emissions CO_abs="6137.542537" CO2_abs="420276.907892" HC_abs="37.762062" PMx_abs="7.073617" NOx_abs="166.945619" fuel_abs="180.659587" electricity_abs="0"/>
    </tripinfo>
    <tripinfo id="carIn121703:1" depart="57647.00" departLane="386687232#0_1" departPos="5.10" departSpeed="0.00" departDelay="0.30" arrival="57793.00" arrivalLane="-315358244_2" arrivalPos="33.95" arrivalSpeed="12.40" duration="146.00" routeLength="1157.39" waitingTime="31.00" waitingCount="3" stopTime="0.00" timeLoss="52.45" rerouteNo="1" devices="tripinfo_carIn121703:1 routing_carIn121703:1 emissions_carIn121703:1" vType="default_016" speedFactor="0.90" vaporized="">
        <emissions CO_abs="7182.047979" CO2_abs="327705.959413" HC_abs="40.326389" PMx_abs="5.698744" NOx_abs="133.425584" fuel_abs="140.868743" electricity_abs="0"/>
    </tripinfo>
    <tripinfo id="h11737c1:1" depart="57665.00" departLane="272042143_1" departPos="5.10" departSpeed="0.00" departDelay="1.50" arrival="57795.00" arrivalLane="-315358254#1_1" arrivalPos="137.16" arrivalSpeed="14.03" duration="130.00" routeLength="1596.88" waitingTime="0.00" waitingCount="0" stopTime="0.00" timeLoss="17.43" rerouteNo="1" devices="tripinfo_h11737c1:1 routing_h11737c1:1 emissions_h11737c1:1" vType="default_016" speedFactor="1.03" vaporized="">
        <emissions CO_abs="4166.957120" CO2_abs="348619.459773" HC_abs="27.108166" PMx_abs="5.717246" NOx_abs="138.125413" fuel_abs="149.856401" electricity_abs="0"/>
    </tripinfo>
    <tripinfo id="h3688c1:1" depart="57625.00" departLane="201201950#1_1" departPos="5.10" departSpeed="0.00" departDelay="0.00" arrival="57796.00" arrivalLane="32978638#0_1" arrivalPos="49.29" arrivalSpeed="11.16" duration="171.00" routeLength="1089.75" waitingTime="62.00" waitingCount="2" stopTime="0.00" timeLoss="81.13" rerouteNo="1" devices="tripinfo_h3688c1:1 routing_h3688c1:1 emissions_h3688c1:1" vType="default_016" speedFactor="0.89" vaporized="">
        <emissions CO_abs="12133.715004" CO2_abs="393937.119679" HC_abs="64.430859" PMx_abs="7.500108" NOx_abs="164.710472" fuel_abs="169.341074" electricity_abs="0"/>
    </tripinfo>
    <tripinfo id="carIn126288:1" depart="57674.00" departLane="272042143_1" departPos="5.10" departSpeed="0.00" departDelay="0.00" arrival="57806.00" arrivalLane="-315358254#1_1" arrivalPos="137.16" arrivalSpeed="13.03" duration="132.00" routeLength="1596.88" waitingTime="0.00" waitingCount="0" stopTime="0.00" timeLoss="12.87" rerouteNo="1" devices="tripinfo_carIn126288:1 routing_carIn126288:1 emissions_carIn126288:1" vType="default_016" speedFactor="0.98" vaporized="">
        <emissions CO_abs="3704.922220" CO2_abs="322467.416321" HC_abs="24.378819" PMx_abs="5.045461" NOx_abs="126.203942" fuel_abs="138.615018" electricity_abs="0"/>
    </tripinfo>
    <tripinfo id="h9563c2:5" depart="57631.00" departLane="315358244_1" departPos="5.10" departSpeed="0.00" departDelay="0.70" arrival="57808.00" arrivalLane="386687235_1" arrivalPos="80.84" arrivalSpeed="10.67" duration="177.00" routeLength="1186.14" waitingTime="47.00" waitingCount="4" stopTime="0.00" timeLoss="72.84" rerouteNo="1" devices="tripinfo_h9563c2:5 routing_h9563c2:5 emissions_h9563c2:5" vType="default_016" speedFactor="0.83" vaporized="">
        <emissions CO_abs="9905.006592" CO2_abs="358482.291023" HC_abs="53.434051" PMx_abs="6.568138" NOx_abs="148.714145" fuel_abs="154.099537" electricity_abs="0"/>
    </tripinfo>
    <tripinfo id="carIn86816:1" depart="57617.00" departLane="128361102#0_1" departPos="5.10" departSpeed="0.00" departDelay="0.80" arrival="57812.00" arrivalLane="201956811#0_1" arrivalPos="40.40" arrivalSpeed="14.41" duration="195.00" routeLength="2067.33" waitingTime="17.00" waitingCount="2" stopTime="0.00" timeLoss="54.08" rerouteNo="1" devices="tripinfo_carIn86816:1 routing_carIn86816:1 emissions_carIn86816:1" vType="default_016" speedFactor="1.08" vaporized="">
        <emissions CO_abs="8552.147946" CO2_abs="529070.202479" HC_abs="51.300816" PMx_abs="9.391434" NOx_abs="214.605727" fuel_abs="227.425124" electricity_abs="0"/>
    </tripinfo>
    <tripinfo id="carIn107282:1" depart="57749.00" departLane="-447569998#1_1" departPos="5.10" departSpeed="0.00" departDelay="0.00" arrival="57815.00" arrivalLane="315358242#0_1" arrivalPos="165.37" arrivalSpeed="14.59" duration="66.00" routeLength="448.50" waitingTime="17.00" waitingCount="1" stopTime="0.00" timeLoss="26.33" rerouteNo="1" devices="tripinfo_carIn107282:1 routing_carIn107282:1 emissions_carIn107282:1" vType="default_016" speedFactor="1.07" vaporized="">
        <emissions CO_abs="4108.902690" CO2_abs="159435.920555" HC_abs="22.448603" PMx_abs="3.036772" NOx_abs="66.765614" fuel_abs="68.535748" electricity_abs="0"/>
    </tripinfo>
    <tripinfo id="h317c2:1" depart="57707.00" departLane="-32978638#0_1" departPos="5.10" departSpeed="0.00" departDelay="0.10" arrival="57826.00" arrivalLane="-266565295#5_1" arrivalPos="172.76" arrivalSpeed="12.27" duration="119.00" routeLength="370.53" waitingTime="80.00" waitingCount="1" stopTime="0.00" timeLoss="90.64" rerouteNo="1" devices="tripinfo_h317c2:1 routing_h317c2:1 emissions_h317c2:1" vType="default_016" speedFactor="0.97" vaporized="">
        <emissions CO_abs="14026.522947" CO2_abs="306243.521627" HC_abs="71.059933" PMx_abs="6.861245" NOx_abs="135.009485" fuel_abs="131.646702" electricity_abs="0"/>
    </tripinfo>
    <tripinfo id="h330c1:1" depart="57736.00" departLane="-32978638#0_1" departPos="5.10" departSpeed="0.00" departDelay="0.20" arrival="57828.00" arrivalLane="-266565295#5_1" arrivalPos="172.76" arrivalSpeed="13.89" duration="92.00" routeLength="370.53" waitingTime="54.00" waitingCount="1" stopTime="0.00" timeLoss="64.55" rerouteNo="1" devices="tripinfo_h330c1:1 routing_h330c1:1 emissions_h330c1:1" vType="default_016" speedFactor="1.03" vaporized="">
        <emissions CO_abs="10140.728965" CO2_abs="246569.893669" HC_abs="51.982089" PMx_abs="5.435193" NOx_abs="108.186175" fuel_abs="105.993592" electricity_abs="0"/>
    </tripinfo>
    <tripinfo id="h3864c1:3" depart="57678.00" departLane="24693977#1_1" departPos="5.10" departSpeed="0.00" departDelay="0.00" arrival="57830.00" arrivalLane="201956820_1" arrivalPos="48.33" arrivalSpeed="14.51" duration="152.00" routeLength="1574.85" waitingTime="8.00" waitingCount="1" stopTime="0.00" timeLoss="32.03" rerouteNo="1" devices="tripinfo_h3864c1:3 routing_h3864c1:3 emissions_h3864c1:3" vType="default_016" speedFactor="1.07" vaporized="">
        <emissions CO_abs="6620.796959" CO2_abs="428320.712268" HC_abs="40.197892" PMx_abs="7.519141" NOx_abs="174.273901" fuel_abs="184.116907" electricity_abs="0"/>
    </tripinfo>
    <tripinfo id="randUni15030:1" depart="57735.00" departLane="386687232#0_1" departPos="5.10" departSpeed="0.00" departDelay="0.10" arrival="57839.00" arrivalLane="26677539_1" arrivalPos="151.98" arrivalSpeed="6.92" duration="104.00" routeLength="919.89" waitingTime="0.00" waitingCount="0" stopTime="0.00" timeLoss="11.65" rerouteNo="1" devices="tripinfo_randUni15030:1 routing_randUni15030:1 emissions_randUni15030:1" vType="random_016" speedFactor="0.91" vaporized="">
        <emissions CO_abs="3587.419321" CO2_abs="204254.361063" HC_abs="21.066482" PMx_abs="3.340501" NOx_abs="82.226267" fuel_abs="87.800958" electricity_abs="0"/>
    </tripinfo>
    <tripinfo id="randUni31145:1" depart="57814.00" departLane="10425609#0_1" departPos="5.10" departSpeed="0.00" departDelay="0.30" arrival="57844.00" arrivalLane="201956810_1" arrivalPos="71.65" arrivalSpeed="13.18" duration="30.00" routeLength="255.78" waitingTime="0.00" waitingCount="0" stopTime="0.00" timeLoss="9.32" rerouteNo="1" devices="tripinfo_randUni31145:1 routing_randUni31145:1 emissions_randUni31145:1" vType="random_016" speedFactor="0.97" vaporized="">
        <emissions CO_abs="2096.800117" CO2_abs="112205.730075" HC_abs="12.197832" PMx_abs="2.125473" NOx_abs="47.123048" fuel_abs="48.232509" electricity_abs="0"/>
    </tripinfo>
    <tripinfo id="carIn30817:1" depart="57681.00" departLane="315358244_1" departPos="5.10" departSpeed="0.00" departDelay="0.20" arrival="57845.00" arrivalLane="447569997#1_1" arrivalPos="180.93" arrivalSpeed="7.92" duration="164.00" routeLength="718.04" waitingTime="90.00" waitingCount="1" stopTime="0.00" timeLoss="103.10" rerouteNo="1" devices="tripinfo_carIn30817:1 routing_carIn30817:1 emissions_carIn30817:1" vType="default_016" speedFactor="1.02" vaporized="">
        <emissions CO_abs="17099.420783" CO2_abs="408402.705993" HC_abs="87.431696" PMx_abs="8.792706" NOx_abs="177.699423" fuel_abs="175.561646" electricity_abs="0"/>
    </tripinfo>
    <tripinfo id="carIn12152:1" depart="57647.00" departLane="24599188#0.94_1" departPos="5.10" departSpeed="0.00" departDelay="0.50" arrival="57846.00" arrivalLane="-315358254#1_1" arrivalPos="137.16" arrivalSpeed="14.01" duration="199.00" routeLength="2034.31" waitingTime="23.00" waitingCount="2" stopTime="0.00" timeLoss="46.16" rerouteNo="1" devices="tripinfo_carIn12152:1 routing_carIn12152:1 emissions_carIn12152:1" vType="default_016" speedFactor="1.04" vaporized="">
        <emissions CO_abs="7625.071268" CO2_abs="461292.559488" HC_abs="45.418197" PMx_abs="7.568184" NOx_abs="182.663186" fuel_abs="198.291499" electricity_abs="0"/>
    </tripinfo>
    <tripinfo id="randUni2407:1" depart="57820.00" departLane="10425609#0_1" departPos="5.10" departSpeed="0.00" departDelay="0.80" arrival="57846.00" arrivalLane="201956810_1" arrivalPos="71.65" arrivalSpeed="15.31" duration="26.00" routeLength="255.78" waitingTime="0.00" waitingCount="0" stopTime="0.00" timeLoss="8.12" rerouteNo="1" devices="tripinfo_randUni2407:1 routing_randUni2407:1 emissions_randUni2407:1" vType="random_016" speedFactor="1.17" vaporized="">
        <emissions CO_abs="1933.910724" CO2_abs="104881.125854" HC_abs="11.301905" PMx_abs="2.076490" NOx_abs="44.582843" fuel_abs="45.083816" electricity_abs="0"/>
    </tripinfo>
    <tripinfo id="h17549c1:1" depart="57680.00" departLane="-447569998#1_1" departPos="5.10" departSpeed="0.00" departDelay="0.00" arrival="57849.00" arrivalLane="-315358254#1_1" arrivalPos="137.16" arrivalSpeed="13.50" duration="169.00" routeLength="1746.60" waitingTime="8.00" waitingCount="2" stopTime="0.00" timeLoss="30.95" rerouteNo="1" devices="tripinfo_h17549c1:1 routing_h17549c1:1 emissions_h17549c1:1" vType="default_016" speedFactor="0.99" vaporized="">
        <emissions CO_abs="5697.976082" CO2_abs="400297.507657" HC_abs="35.262869" PMx_abs="6.511424" NOx_abs="159.027323" fuel_abs="172.071343" electricity_abs="0"/>
    </tripinfo>
    <tripinfo id="h16072c2:3" depart="57663.00" departLane="315358254#0_1" departPos="5.10" departSpeed="0.00" departDelay="2.50" arrival="57852.00" arrivalLane="386687235_1" arrivalPos="80.84" arrivalSpeed="11.82" duration="189.00" routeLength="1611.92" waitingTime="44.00" waitingCount="1" stopTime="0.00" timeLoss="61.32" rerouteNo="1" devices="tripinfo_h16072c2:3 routing_h16072c2:3 emissions_h16072c2:3" vType="default_016" speedFactor="0.92" vaporized="">
        <emissions CO_abs="11025.189169" CO2_abs="437472.708452" HC_abs="60.400808" PMx_abs="7.897853" NOx_abs="179.376808" fuel_abs="188.054284" electricity_abs="0"/>
    </tripinfo>
    <tripinfo id="carIn8642:1" depart="57774.00" departLane="-447569998#1_1" departPos="5.10" departSpeed="0.00" departDelay="0.90" arrival="57852.00" arrivalLane="-315358244_1" arrivalPos="33.95" arrivalSpeed="14.58" duration="78.00" routeLength="706.49" waitingTime="11.00" waitingCount="1" stopTime="0.00" timeLoss="23.72" rerouteNo="1" devices="tripinfo_carIn8642:1 routing_carIn8642:1 emissions_carIn8642:1" vType="default_016" speedFactor="1.10" vaporized="">
        <emissions CO_abs="3599.627277" CO2_abs="197572.351939" HC_abs="20.983927" PMx_abs="3.524389" NOx_abs="80.761850" fuel_abs="84.928347" electricity_abs="0"/>
    </tripinfo>
    <tripinfo id="carIn85747:1" depart="57673.00" departLane="128361109#1_1" departPos="5.10" departSpeed="0.00" departDelay="0.70" arrival="57853.00" arrivalLane="386687235_2" arrivalPos="80.84" arrivalSpeed="16.59" duration="180.00" routeLength="2088.57" waitingTime="27.00" waitingCount="3" stopTime="0.00" timeLoss="57.42" rerouteNo="1" devices="tripinfo_carIn85747:1 routing_carIn85747:1 emissions_carIn85747:1" vType="default_016" speedFactor="1.23" vaporized="">
        <emissions CO_abs="8322.661470" CO2_abs="511550.046144" HC_abs="49.772081" PMx_abs="9.377802" NOx_abs="207.018344" fuel_abs="219.893753" electricity_abs="0"/>
    </tripinfo>
    <tripinfo id="50R_frequency3.17" depart="57674.00" departLane="-18809673#6_1" departPos="12.10" departSpeed="0.00" departDelay="0.70" arrival="57854.00" arrivalLane="201956811#0_1" arrivalPos="40.40" arrivalSpeed="12.05" duration="180.00" routeLength="1954.47" waitingTime="6.00" waitingCount="1" stopTime="0.00" timeLoss="35.20" rerouteNo="1" devices="tripinfo_50R_frequency3.17 routing_50R_frequency3.17 emissions_50R_frequency3.17" vType="bus" speedFactor="1.00" vaporized="">
        <emissions CO_abs="3413.842047" CO2_abs="2119409.170064" HC_abs="721.002217" PMx_abs="365.527828" NOx_abs="16498.099973" fuel_abs="903.897958" electricity_abs="0"/>
    </tripinfo>
    <tripinfo id="h19413c1:1" depart="57686.00" departLane="128361109#1_1" departPos="5.10" departSpeed="0.00" departDelay="6.90" arrival="57854.00" arrivalLane="386687235_1" arrivalPos="80.84" arrivalSpeed="13.98" duration="168.00" routeLength="2088.57" waitingTime="3.00" waitingCount="1" stopTime="0.00" timeLoss="29.01" rerouteNo="1" devices="tripinfo_h19413c1:1 routing_h19413c1:1 emissions_h19413c1:1" vType="default_016" speedFactor="1.09" vaporized="">
        <emissions CO_abs="5249.738057" CO2_abs="447336.369818" HC_abs="34.212623" PMx_abs="7.216736" NOx_abs="175.484349" fuel_abs="192.290702" electricity_abs="0"/>
    </tripinfo>
    <tripinfo id="carIn50326:1" depart="57651.00" departLane="128361102#0_1" departPos="5.10" departSpeed="0.00" departDelay="0.30" arrival="57855.00" arrivalLane="18809673#0_1" arrivalPos="473.56" arrivalSpeed="11.77" duration="204.00" routeLength="1591.07" waitingTime="40.00" waitingCount="2" stopTime="0.00" timeLoss="65.21" rerouteNo="1" devices="tripinfo_carIn50326:1 routing_carIn50326:1 emissions_carIn50326:1" vType="default_016" speedFactor="0.94" vaporized="">
        <emissions CO_abs="10559.503444" CO2_abs="434471.111196" HC_abs="58.166641" PMx_abs="7.601090" NOx_abs="177.163168" fuel_abs="186.763978" electricity_abs="0"/>
    </tripinfo>
    <tripinfo id="carIn75660:1" depart="57680.00" departLane="128361109#1_1" departPos="5.10" departSpeed="0.00" departDelay="4.40" arrival="57855.00" arrivalLane="386687235_2" arrivalPos="80.84" arrivalSpeed="13.09" duration="175.00" routeLength="2088.57" waitingTime="1.00" waitingCount="1" stopTime="0.00" timeLoss="26.35" rerouteNo="1" devices="tripinfo_carIn75660:1 routing_carIn75660:1 emissions_carIn75660:1" vType="default_016" speedFactor="1.01" vaporized="">
        <emissions CO_abs="5475.393319" CO2_abs="436718.137192" HC_abs="35.098555" PMx_abs="7.069356" NOx_abs="172.522028" fuel_abs="187.726557" electricity_abs="0"/>
    </tripinfo>
    <tripinfo id="carIn129809:1" depart="57729.00" departLane="-447569998#1_1" departPos="5.10" departSpeed="0.00" departDelay="1.00" arrival="57855.00" arrivalLane="-315358244_1" arrivalPos="33.95" arrivalSpeed="11.18" duration="126.00" routeLength="706.49" waitingTime="38.00" waitingCount="2" stopTime="0.00" timeLoss="53.11" rerouteNo="1" devices="tripinfo_carIn129809:1 routing_carIn129809:1 emissions_carIn129809:1" vType="default_015" speedFactor="0.84" vaporized="">
        <emissions CO_abs="8824.837699" CO2_abs="261023.720432" HC_abs="46.256367" PMx_abs="5.098229" NOx_abs="110.698024" fuel_abs="112.206218" electricity_abs="0"/>
    </tripinfo>
    <tripinfo id="carIn126378:1" depart="57746.00" departLane="386687232#0_1" departPos="5.10" departSpeed="0.00" departDelay="1.80" arrival="57855.00" arrivalLane="-315358244_2" arrivalPos="33.95" arrivalSpeed="13.28" duration="109.00" routeLength="1157.39" waitingTime="4.00" waitingCount="1" stopTime="0.00" timeLoss="21.66" rerouteNo="1" devices="tripinfo_carIn126378:1 routing_carIn126378:1 emissions_carIn126378:1" vType="default_016" speedFactor="0.97" vaporized="">
        <emissions CO_abs="4237.849443" CO2_abs="282153.580743" HC_abs="25.892693" PMx_abs="4.718609" NOx_abs="113.064157" fuel_abs="121.286135" electricity_abs="0"/>
    </tripinfo>
    <tripinfo id="carIn73855:1" depart="57743.00" departLane="386687232#0_1" departPos="5.10" departSpeed="0.00" departDelay="0.50" arrival="57856.00" arrivalLane="-315358244_1" arrivalPos="33.95" arrivalSpeed="12.80" duration="113.00" routeLength="1157.39" waitingTime="10.00" waitingCount="2" stopTime="0.00" timeLoss="33.77" rerouteNo="1" devices="tripinfo_carIn73855:1 routing_carIn73855:1 emissions_carIn73855:1" vType="default_016" speedFactor="1.06" vaporized="">
        <emissions CO_abs="4661.167818" CO2_abs="287925.538427" HC_abs="27.989742" PMx_abs="5.146065" NOx_abs="117.459342" fuel_abs="123.767045" electricity_abs="0"/>
    </tripinfo>
    <tripinfo id="carIn12775:1" depart="57676.00" departLane="10425609#0_1" departPos="5.10" departSpeed="0.00" departDelay="0.60" arrival="57857.00" arrivalLane="18809673#0_1" arrivalPos="473.56" arrivalSpeed="16.49" duration="181.00" routeLength="1959.45" waitingTime="29.00" waitingCount="2" stopTime="0.00" timeLoss="60.21" rerouteNo="1" devices="tripinfo_carIn12775:1 routing_carIn12775:1 emissions_carIn12775:1" vType="default_016" speedFactor="1.21" vaporized="">
        <emissions CO_abs="9377.765646" CO2_abs="515796.096832" HC_abs="54.398423" PMx_abs="9.450765" NOx_abs="209.291059" fuel_abs="221.719696" electricity_abs="0"/>
    </tripinfo>
    <tripinfo id="carIn88905:1" depart="57689.00" departLane="128361109#1_1" departPos="5.10" departSpeed="0.00" departDelay="6.80" arrival="57860.00" arrivalLane="386687235_1" arrivalPos="80.84" arrivalSpeed="12.70" duration="171.00" routeLength="2088.57" waitingTime="0.00" waitingCount="0" stopTime="0.00" timeLoss="12.95" rerouteNo="1" devices="tripinfo_carIn88905:1 routing_carIn88905:1 emissions_carIn88905:1" vType="default_016" speedFactor="0.96" vaporized="">
        <emissions CO_abs="3546.798641" CO2_abs="355261.229709" HC_abs="24.356737" PMx_abs="5.071086" NOx_abs="135.351058" fuel_abs="152.712027" electricity_abs="0"/>
    </tripinfo>
    <tripinfo id="carIn12365:1" depart="57713.00" departLane="315358244_1" departPos="5.10" departSpeed="0.00" departDelay="0.50" arrival="57861.00" arrivalLane="447569997#1_1" arrivalPos="180.93" arrivalSpeed="6.14" duration="148.00" routeLength="718.04" waitingTime="58.00" waitingCount="1" stopTime="0.00" timeLoss="72.53" rerouteNo="1" devices="tripinfo_carIn12365:1 routing_carIn12365:1 emissions_carIn12365:1" vType="default_016" speedFactor="0.81" vaporized="">