<?xml version="1.0" encoding="UTF-8"?>

<!-- generated on Thu Nov  4 13:43:51 2021 by Eclipse SUMO sumo Version 1.9.0
<configuration xmlns:xsi="http://www.w3.org/2001/XMLSchema-instance" xsi:noNamespaceSchemaLocation="http://sumo.dlr.de/xsd/sumoConfiguration.xsd">

    <input>
        <net-file value="/mainfs/home/bk2g18/RESCO/environments/ingolstadt21/ingolstadt21.net.xml"/>
        <route-files value="/mainfs/home/bk2g18/RESCO/environments/ingolstadt21/ingolstadt21.rou.xml"/>
    </input>

    <output>
        <tripinfo-output value="/mainfs/home/bk2g18/RESCO/logs/MPLight-tr0-ingolstadt21-21-mplight_full-pressure/tripinfo_44.xml"/>
        <tripinfo-output.write-unfinished value="true"/>
    </output>

    <time>
        <begin value="57600"/>
        <end value="61200"/>
    </time>

    <processing>
        <time-to-teleport value="-1"/>
    </processing>

    <report>
        <xml-validation value="never"/>
        <xml-validation.routes value="never"/>
        <no-warnings value="true"/>
        <no-step-log value="true"/>
    </report>

    <emissions>
        <device.emissions.probability value="1"/>
    </emissions>

    <traci_server>
        <remote-port value="51507"/>
    </traci_server>

    <random_number>
        <random value="true"/>
    </random_number>

</configuration>
-->

<tripinfos xmlns:xsi="http://www.w3.org/2001/XMLSchema-instance" xsi:noNamespaceSchemaLocation="http://sumo.dlr.de/xsd/tripinfo_file.xsd">
    <tripinfo id="h15454c2:3" depart="57612.00" departLane="24608844_1" departPos="5.10" departSpeed="0.00" departDelay="0.50" arrival="57655.00" arrivalLane="32978638#0_1" arrivalPos="49.29" arrivalSpeed="12.41" duration="43.00" routeLength="354.79" waitingTime="0.00" waitingCount="0" stopTime="0.00" timeLoss="5.29" rerouteNo="1" devices="tripinfo_h15454c2:3 routing_h15454c2:3 emissions_h15454c2:3" vType="default_016" speedFactor="0.91" vaporized="">
        <emissions CO_abs="1843.326512" CO2_abs="95551.116078" HC_abs="10.592981" PMx_abs="1.528346" NOx_abs="38.388687" fuel_abs="41.073865" electricity_abs="0"/>
    </tripinfo>
    <tripinfo id="carIn60260:1" depart="57606.00" departLane="315358254#0_1" departPos="5.10" departSpeed="0.00" departDelay="0.90" arrival="57657.00" arrivalLane="399835085#1_1" arrivalPos="212.23" arrivalSpeed="8.11" duration="51.00" routeLength="430.98" waitingTime="0.00" waitingCount="0" stopTime="0.00" timeLoss="6.26" rerouteNo="1" devices="tripinfo_carIn60260:1 routing_carIn60260:1 emissions_carIn60260:1" vType="default_016" speedFactor="1.04" vaporized="">
        <emissions CO_abs="2109.546362" CO2_abs="115027.195153" HC_abs="12.280512" PMx_abs="1.963288" NOx_abs="47.021677" fuel_abs="49.445622" electricity_abs="0"/>
    </tripinfo>
    <tripinfo id="carIn53971:1" depart="57640.00" departLane="272042143_1" departPos="5.10" departSpeed="0.00" departDelay="0.80" arrival="57693.00" arrivalLane="24634414#1_1" arrivalPos="162.19" arrivalSpeed="8.05" duration="53.00" routeLength="493.04" waitingTime="0.00" waitingCount="0" stopTime="0.00" timeLoss="7.75" rerouteNo="1" devices="tripinfo_carIn53971:1 routing_carIn53971:1 emissions_carIn53971:1" vType="default_016" speedFactor="1.01" vaporized="">
        <emissions CO_abs="2205.690365" CO2_abs="128397.067894" HC_abs="13.024052" PMx_abs="2.124136" NOx_abs="51.833750" fuel_abs="55.192797" electricity_abs="0"/>
    </tripinfo>
    <tripinfo id="h7800c1:5" depart="57696.00" departLane="-447569998#1_1" departPos="5.10" departSpeed="0.00" departDelay="0.00" arrival="57718.00" arrivalLane="-447569998#1_1" arrivalPos="180.76" arrivalSpeed="9.24" duration="22.00" routeLength="175.66" waitingTime="0.00" waitingCount="0" stopTime="0.00" timeLoss="2.57" rerouteNo="1" devices="tripinfo_h7800c1:5 routing_h7800c1:5 emissions_h7800c1:5" vType="default_016" speedFactor="1.12" vaporized="">
        <emissions CO_abs="997.484469" CO2_abs="49373.032764" HC_abs="5.688042" PMx_abs="0.852366" NOx_abs="20.319012" fuel_abs="21.223562" electricity_abs="0"/>
    </tripinfo>
    <tripinfo id="h3568c1:3" depart="57656.00" departLane="266565295#5_1" departPos="5.10" departSpeed="0.00" departDelay="0.80" arrival="57730.00" arrivalLane="-24634415_1" arrivalPos="62.03" arrivalSpeed="14.28" duration="74.00" routeLength="807.40" waitingTime="0.00" waitingCount="0" stopTime="0.00" timeLoss="12.68" rerouteNo="1" devices="tripinfo_h3568c1:3 routing_h3568c1:3 emissions_h3568c1:3" vType="default_016" speedFactor="1.06" vaporized="">
        <emissions CO_abs="3071.081822" CO2_abs="205300.389041" HC_abs="18.798010" PMx_abs="3.708364" NOx_abs="84.156526" fuel_abs="88.249683" electricity_abs="0"/>
    </tripinfo>
    <tripinfo id="carIn121703:1" depart="57647.00" departLane="386687232#0_1" departPos="5.10" departSpeed="0.00" departDelay="0.30" arrival="57736.00" arrivalLane="-315358244_1" arrivalPos="33.95" arrivalSpeed="14.30" duration="89.00" routeLength="1157.39" waitingTime="0.00" waitingCount="0" stopTime="0.00" timeLoss="7.86" rerouteNo="1" devices="tripinfo_carIn121703:1 routing_carIn121703:1 emissions_carIn121703:1" vType="default_016" speedFactor="1.04" vaporized="">
        <emissions CO_abs="2299.936844" CO2_abs="219270.283506" HC_abs="15.533352" PMx_abs="3.411335" NOx_abs="85.017423" fuel_abs="94.254864" electricity_abs="0"/>
    </tripinfo>
    <tripinfo id="h3688c1:1" depart="57625.00" departLane="201201950#1_1" departPos="5.10" departSpeed="0.00" departDelay="0.00" arrival="57742.00" arrivalLane="32978638#0_1" arrivalPos="49.29" arrivalSpeed="10.31" duration="117.00" routeLength="1089.75" waitingTime="0.00" waitingCount="0" stopTime="0.00" timeLoss="10.93" rerouteNo="1" devices="tripinfo_h3688c1:1 routing_h3688c1:1 emissions_h3688c1:1" vType="default_016" speedFactor="0.76" vaporized="">
        <emissions CO_abs="3525.791767" CO2_abs="231404.819887" HC_abs="21.343809" PMx_abs="3.326286" NOx_abs="90.129120" fuel_abs="99.472124" electricity_abs="0"/>
    </tripinfo>
    <tripinfo id="h317c2:1" depart="57707.00" departLane="-32978638#0_1" departPos="5.10" departSpeed="0.00" departDelay="0.10" arrival="57745.00" arrivalLane="-266565295#5_1" arrivalPos="172.76" arrivalSpeed="13.93" duration="38.00" routeLength="370.53" waitingTime="0.00" waitingCount="0" stopTime="0.00" timeLoss="10.83" rerouteNo="1" devices="tripinfo_h317c2:1 routing_h317c2:1 emissions_h317c2:1" vType="default_016" speedFactor="1.01" vaporized="">
        <emissions CO_abs="2042.714388" CO2_abs="122920.638992" HC_abs="12.166548" PMx_abs="2.160473" NOx_abs="50.069046" fuel_abs="52.838480" electricity_abs="0"/>
    </tripinfo>
    <tripinfo id="h7181c1:1" depart="57660.00" departLane="315358254#0_1" departPos="5.10" departSpeed="0.00" departDelay="0.10" arrival="57749.00" arrivalLane="306240162#0_0" arrivalPos="220.43" arrivalSpeed="18.38" duration="89.00" routeLength="932.35" waitingTime="23.00" waitingCount="2" stopTime="0.00" timeLoss="43.17" rerouteNo="1" devices="tripinfo_h7181c1:1 routing_h7181c1:1 emissions_h7181c1:1" vType="default_016" speedFactor="1.12" vaporized="">
        <emissions CO_abs="7328.567526" CO2_abs="340602.355458" HC_abs="41.582358" PMx_abs="7.223011" NOx_abs="144.837761" fuel_abs="146.410561" electricity_abs="0"/>
    </tripinfo>
    <tripinfo id="carIn22761:1" depart="57616.00" departLane="-306240162#1_0" departPos="5.10" departSpeed="0.00" departDelay="2.10" arrival="57755.00" arrivalLane="399835085#1_1" arrivalPos="212.23" arrivalSpeed="6.08" duration="139.00" routeLength="1093.26" waitingTime="16.00" waitingCount="2" stopTime="0.00" timeLoss="40.55" rerouteNo="1" devices="tripinfo_carIn22761:1 routing_carIn22761:1 emissions_carIn22761:1" vType="default_016" speedFactor="0.79" vaporized="">
        <emissions CO_abs="6326.084147" CO2_abs="304903.149598" HC_abs="35.888616" PMx_abs="5.493138" NOx_abs="125.196928" fuel_abs="131.066064" electricity_abs="0"/>
    </tripinfo>
    <tripinfo id="carIn80064:1" depart="57603.00" departLane="128361109#1_1" departPos="5.10" departSpeed="0.00" departDelay="0.40" arrival="57759.00" arrivalLane="-315358254#1_1" arrivalPos="137.16" arrivalSpeed="10.95" duration="156.00" routeLength="1587.97" waitingTime="23.00" waitingCount="2" stopTime="0.00" timeLoss="49.47" rerouteNo="1" devices="tripinfo_carIn80064:1 routing_carIn80064:1 emissions_carIn80064:1" vType="default_016" speedFactor="0.84" vaporized="">
        <emissions CO_abs="8125.494322" CO2_abs="450156.279187" HC_abs="47.619169" PMx_abs="8.535851" NOx_abs="185.937313" fuel_abs="193.503250" electricity_abs="0"/>
    </tripinfo>
    <tripinfo id="h3326c1:2" depart="57656.00" departLane="22716069#0_1" departPos="5.10" departSpeed="0.00" departDelay="0.00" arrival="57767.00" arrivalLane="24634517#13_1" arrivalPos="111.62" arrivalSpeed="13.92" duration="111.00" routeLength="1312.81" waitingTime="0.00" waitingCount="0" stopTime="0.00" timeLoss="14.54" rerouteNo="1" devices="tripinfo_h3326c1:2 routing_h3326c1:2 emissions_h3326c1:2" vType="default_016" speedFactor="1.01" vaporized="">
        <emissions CO_abs="3767.759355" CO2_abs="299678.424122" HC_abs="24.077859" PMx_abs="4.875596" NOx_abs="118.713090" fuel_abs="128.818955" electricity_abs="0"/>
    </tripinfo>
    <tripinfo id="h5979c1:5" depart="57669.00" departLane="399835085#1_1" departPos="5.10" departSpeed="0.00" departDelay="0.00" arrival="57767.00" arrivalLane="-315358254#1_1" arrivalPos="137.16" arrivalSpeed="13.82" duration="98.00" routeLength="659.33" waitingTime="8.00" waitingCount="1" stopTime="0.00" timeLoss="29.97" rerouteNo="1" devices="tripinfo_h5979c1:5 routing_h5979c1:5 emissions_h5979c1:5" vType="default_016" speedFactor="1.08" vaporized="">
        <emissions CO_abs="4857.991362" CO2_abs="211111.474067" HC_abs="27.045701" PMx_abs="3.868904" NOx_abs="88.357247" fuel_abs="90.748839" electricity_abs="0"/>
    </tripinfo>
    <tripinfo id="h4538c1:1" depart="57701.00" departLane="-10427692#1_1" departPos="5.10" departSpeed="0.00" departDelay="0.00" arrival="57776.00" arrivalLane="-128361102#1_1" arrivalPos="274.68" arrivalSpeed="13.37" duration="75.00" routeLength="440.74" waitingTime="32.00" waitingCount="1" stopTime="0.00" timeLoss="42.58" rerouteNo="1" devices="tripinfo_h4538c1:1 routing_h4538c1:1 emissions_h4538c1:1" vType="default_016" speedFactor="0.98" vaporized="">
        <emissions CO_abs="6471.071652" CO2_abs="188718.766144" HC_abs="33.871011" PMx_abs="3.797818" NOx_abs="80.139041" fuel_abs="81.124470" electricity_abs="0"/>
    </tripinfo>
    <tripinfo id="carIn27009:1" depart="57673.00" departLane="-447569998#1_1" departPos="5.10" departSpeed="0.00" departDelay="0.50" arrival="57783.00" arrivalLane="-26677539_1" arrivalPos="152.75" arrivalSpeed="7.09" duration="110.00" routeLength="699.63" waitingTime="0.00" waitingCount="0" stopTime="0.00" timeLoss="14.82" rerouteNo="1" devices="tripinfo_carIn27009:1 routing_carIn27009:1 emissions_carIn27009:1" vType="default_015" speedFactor="0.89" vaporized="">
        <emissions CO_abs="4751.411948" CO2_abs="198249.378468" HC_abs="26.171499" PMx_abs="3.234711" NOx_abs="80.807547" fuel_abs="85.220639" electricity_abs="0"/>
    </tripinfo>
    <tripinfo id="h11737c1:1" depart="57665.00" departLane="272042143_1" departPos="5.10" departSpeed="0.00" departDelay="1.50" arrival="57796.00" arrivalLane="-315358254#1_1" arrivalPos="137.16" arrivalSpeed="13.84" duration="131.00" routeLength="1596.88" waitingTime="0.00" waitingCount="0" stopTime="0.00" timeLoss="13.59" rerouteNo="1" devices="tripinfo_h11737c1:1 routing_h11737c1:1 emissions_h11737c1:1" vType="default_016" speedFactor="1.00" vaporized="">
        <emissions CO_abs="3881.575320" CO2_abs="336324.527588" HC_abs="25.475150" PMx_abs="5.276912" NOx_abs="131.552035" fuel_abs="144.571604" electricity_abs="0"/>
    </tripinfo>
    <tripinfo id="carIn107282:1" depart="57749.00" departLane="-447569998#1_1" departPos="5.10" departSpeed="0.00" departDelay="0.00" arrival="57796.00" arrivalLane="315358242#0_1" arrivalPos="165.37" arrivalSpeed="13.38" duration="47.00" routeLength="448.50" waitingTime="0.00" waitingCount="0" stopTime="0.00" timeLoss="4.88" rerouteNo="1" devices="tripinfo_carIn107282:1 routing_carIn107282:1 emissions_carIn107282:1" vType="default_016" speedFactor="0.99" vaporized="">
        <emissions CO_abs="1803.916177" CO2_abs="109659.844499" HC_abs="10.750514" PMx_abs="1.741289" NOx_abs="43.633474" fuel_abs="47.138470" electricity_abs="0"/>
    </tripinfo>
    <tripinfo id="carIn126288:1" depart="57674.00" departLane="272042143_1" departPos="5.10" departSpeed="0.00" departDelay="0.00" arrival="57798.00" arrivalLane="-315358254#1_1" arrivalPos="137.16" arrivalSpeed="14.18" duration="124.00" routeLength="1596.88" waitingTime="0.00" waitingCount="0" stopTime="0.00" timeLoss="14.09" rerouteNo="1" devices="tripinfo_carIn126288:1 routing_carIn126288:1 emissions_carIn126288:1" vType="default_016" speedFactor="1.07" vaporized="">
        <emissions CO_abs="3697.957047" CO2_abs="324556.691887" HC_abs="24.364364" PMx_abs="5.288025" NOx_abs="127.746634" fuel_abs="139.512812" electricity_abs="0"/>
    </tripinfo>
    <tripinfo id="carIn86816:1" depart="57617.00" departLane="128361102#0_1" departPos="5.10" departSpeed="0.00" departDelay="0.80" arrival="57801.00" arrivalLane="201956811#0_1" arrivalPos="40.40" arrivalSpeed="14.48" duration="184.00" routeLength="2067.33" waitingTime="19.00" waitingCount="2" stopTime="0.00" timeLoss="47.49" rerouteNo="1" devices="tripinfo_carIn86816:1 routing_carIn86816:1 emissions_carIn86816:1" vType="default_016" speedFactor="1.11" vaporized="">
        <emissions CO_abs="8326.102842" CO2_abs="508806.200546" HC_abs="49.736425" PMx_abs="9.077710" NOx_abs="206.004686" fuel_abs="218.714551" electricity_abs="0"/>
    </tripinfo>
    <tripinfo id="carIn50326:1" depart="57651.00" departLane="128361102#0_1" departPos="5.10" departSpeed="0.00" departDelay="0.30" arrival="57801.00" arrivalLane="18809673#0_1" arrivalPos="473.56" arrivalSpeed="14.17" duration="150.00" routeLength="1591.07" waitingTime="0.00" waitingCount="0" stopTime="0.00" timeLoss="23.37" rerouteNo="1" devices="tripinfo_carIn50326:1 routing_carIn50326:1 emissions_carIn50326:1" vType="default_016" speedFactor="1.03" vaporized="">
        <emissions CO_abs="5141.957632" CO2_abs="359427.928252" HC_abs="31.748206" PMx_abs="5.974082" NOx_abs="143.820293" fuel_abs="154.502997" electricity_abs="0"/>
    </tripinfo>
    <tripinfo id="h3154c1:1" depart="57658.00" departLane="24634507_1" departPos="5.10" departSpeed="0.00" departDelay="0.00" arrival="57805.00" arrivalLane="-266565295#5_1" arrivalPos="172.76" arrivalSpeed="12.59" duration="147.00" routeLength="1206.22" waitingTime="36.00" waitingCount="1" stopTime="0.00" timeLoss="51.36" rerouteNo="1" devices="tripinfo_h3154c1:1 routing_h3154c1:1 emissions_h3154c1:1" vType="default_016" speedFactor="0.93" vaporized="">
        <emissions CO_abs="8437.831978" CO2_abs="335857.812486" HC_abs="46.249496" PMx_abs="6.069023" NOx_abs="137.947592" fuel_abs="144.373526" electricity_abs="0"/>
    </tripinfo>
    <tripinfo id="h17549c1:1" depart="57680.00" departLane="-447569998#1_1" departPos="5.10" departSpeed="0.00" departDelay="0.00" arrival="57815.00" arrivalLane="-315358254#1_1" arrivalPos="137.16" arrivalSpeed="16.83" duration="135.00" routeLength="1746.60" waitingTime="9.00" waitingCount="1" stopTime="0.00" timeLoss="28.47" rerouteNo="1" devices="tripinfo_h17549c1:1 routing_h17549c1:1 emissions_h17549c1:1" vType="default_016" speedFactor="1.29" vaporized="">
        <emissions CO_abs="5432.866920" CO2_abs="417128.794205" HC_abs="34.489686" PMx_abs="7.395843" NOx_abs="166.657879" fuel_abs="179.305339" electricity_abs="0"/>
    </tripinfo>
    <tripinfo id="carIn102915:1" depart="57643.00" departLane="128361102#0_1" departPos="5.10" departSpeed="0.00" departDelay="0.40" arrival="57821.00" arrivalLane="201956811#0_1" arrivalPos="40.40" arrivalSpeed="15.08" duration="178.00" routeLength="2067.33" waitingTime="12.00" waitingCount="2" stopTime="0.00" timeLoss="38.83" rerouteNo="1" devices="tripinfo_carIn102915:1 routing_carIn102915:1 emissions_carIn102915:1" vType="default_016" speedFactor="1.09" vaporized="">
        <emissions CO_abs="6283.862038" CO2_abs="480173.827268" HC_abs="39.648762" PMx_abs="8.139776" NOx_abs="191.381421" fuel_abs="206.406005" electricity_abs="0"/>
    </tripinfo>
    <tripinfo id="h645c1:1" depart="57622.00" departLane="266565295#5_1" departPos="5.10" departSpeed="0.00" departDelay="0.40" arrival="57823.00" arrivalLane="-315358244_1" arrivalPos="33.95" arrivalSpeed="12.96" duration="201.00" routeLength="1910.83" waitingTime="33.00" waitingCount="3" stopTime="0.00" timeLoss="57.70" rerouteNo="1" devices="tripinfo_h645c1:1 routing_h645c1:1 emissions_h645c1:1" vType="default_016" speedFactor="0.96" vaporized="">
        <emissions CO_abs="8414.224148" CO2_abs="437837.575504" HC_abs="48.547949" PMx_abs="7.608688" NOx_abs="177.313259" fuel_abs="188.209369" electricity_abs="0"/>
    </tripinfo>
    <tripinfo id="h16072c2:3" depart="57663.00" departLane="315358254#0_1" departPos="5.10" departSpeed="0.00" departDelay="2.50" arrival="57823.00" arrivalLane="386687235_1" arrivalPos="80.84" arrivalSpeed="15.39" duration="160.00" routeLength="1611.92" waitingTime="36.00" waitingCount="1" stopTime="0.00" timeLoss="55.82" rerouteNo="1" devices="tripinfo_h16072c2:3 routing_h16072c2:3 emissions_h16072c2:3" vType="default_016" speedFactor="1.13" vaporized="">
        <emissions CO_abs="9624.557382" CO2_abs="433048.497955" HC_abs="53.991610" PMx_abs="8.235497" NOx_abs="179.005365" fuel_abs="186.150847" electricity_abs="0"/>
    </tripinfo>
    <tripinfo id="carIn129809:1" depart="57729.00" departLane="-447569998#1_1" departPos="5.10" departSpeed="0.00" departDelay="1.00" arrival="57823.00" arrivalLane="-315358244_2" arrivalPos="33.95" arrivalSpeed="15.45" duration="94.00" routeLength="706.49" waitingTime="20.00" waitingCount="2" stopTime="0.00" timeLoss="40.70" rerouteNo="1" devices="tripinfo_carIn129809:1 routing_carIn129809:1 emissions_carIn129809:1" vType="default_015" speedFactor="1.14" vaporized="">
        <emissions CO_abs="5786.833283" CO2_abs="238657.478699" HC_abs="31.911617" PMx_abs="4.529647" NOx_abs="99.602443" fuel_abs="102.589965" electricity_abs="0"/>
    </tripinfo>
    <tripinfo id="h330c1:1" depart="57736.00" departLane="-32978638#0_1" departPos="5.10" departSpeed="0.00" departDelay="0.20" arrival="57824.00" arrivalLane="-266565295#5_1" arrivalPos="172.76" arrivalSpeed="13.82" duration="88.00" routeLength="370.53" waitingTime="52.00" waitingCount="1" stopTime="0.00" timeLoss="61.55" rerouteNo="1" devices="tripinfo_h330c1:1 routing_h330c1:1 emissions_h330c1:1" vType="default_016" speedFactor="1.05" vaporized="">
        <emissions CO_abs="10095.797222" CO2_abs="255960.324170" HC_abs="52.010784" PMx_abs="5.620089" NOx_abs="111.949222" fuel_abs="110.029966" electricity_abs="0"/>
    </tripinfo>
    <tripinfo id="h17600c1:1" depart="57662.00" departLane="272042143_1" departPos="5.10" departSpeed="0.00" departDelay="0.30" arrival="57829.00" arrivalLane="201238729#3_1" arrivalPos="431.02" arrivalSpeed="14.51" duration="167.00" routeLength="2100.26" waitingTime="12.00" waitingCount="1" stopTime="0.00" timeLoss="27.39" rerouteNo="1" devices="tripinfo_h17600c1:1 routing_h17600c1:1 emissions_h17600c1:1" vType="default_016" speedFactor="1.09" vaporized="">
        <emissions CO_abs="5214.976668" CO2_abs="413694.250448" HC_abs="33.350437" PMx_abs="6.903209" NOx_abs="163.247943" fuel_abs="177.829417" electricity_abs="0"/>
    </tripinfo>
    <tripinfo id="carIn30817:1" depart="57681.00" departLane="315358244_1" departPos="5.10" departSpeed="0.00" departDelay="0.20" arrival="57829.00" arrivalLane="447569997#1_1" arrivalPos="180.93" arrivalSpeed="7.17" duration="148.00" routeLength="718.04" waitingTime="71.00" waitingCount="1" stopTime="0.00" timeLoss="86.22" rerouteNo="1" devices="tripinfo_carIn30817:1 routing_carIn30817:1 emissions_carIn30817:1" vType="default_016" speedFactor="1.01" vaporized="">
        <emissions CO_abs="14481.509384" CO2_abs="367126.977907" HC_abs="74.528555" PMx_abs="7.714096" NOx_abs="158.654778" fuel_abs="157.817803" electricity_abs="0"/>
    </tripinfo>
    <tripinfo id="carIn12365:1" depart="57713.00" departLane="315358244_1" departPos="5.10" departSpeed="0.00" departDelay="0.50" arrival="57829.00" arrivalLane="447569997#1_2" arrivalPos="180.93" arrivalSpeed="8.60" duration="116.00" routeLength="718.04" waitingTime="42.00" waitingCount="1" stopTime="0.00" timeLoss="59.78" rerouteNo="1" devices="tripinfo_carIn12365:1 routing_carIn12365:1 emissions_carIn12365:1" vType="default_016" speedFactor="1.10" vaporized="">
        <emissions CO_abs="9624.184885" CO2_abs="303996.552233" HC_abs="50.900212" PMx_abs="5.942323" NOx_abs="128.149750" fuel_abs="130.678453" electricity_abs="0"/>
    </tripinfo>
    <tripinfo id="carIn12152:1" depart="57647.00" departLane="24599188#0.94_1" departPos="5.10" departSpeed="0.00" departDelay="0.50" arrival="57839.00" arrivalLane="-315358254#1_1" arrivalPos="137.16" arrivalSpeed="13.15" duration="192.00" routeLength="2034.31" waitingTime="6.00" waitingCount="1" stopTime="0.00" timeLoss="31.29" rerouteNo="1" devices="tripinfo_carIn12152:1 routing_carIn12152:1 emissions_carIn12152:1" vType="default_016" speedFactor="0.98" vaporized="">
        <emissions CO_abs="5690.576307" CO2_abs="419131.236488" HC_abs="35.595276" PMx_abs="6.401278" NOx_abs="163.343889" fuel_abs="180.167633" electricity_abs="0"/>
    </tripinfo>
    <tripinfo id="carIn12775:1" depart="57676.00" departLane="10425609#0_1" departPos="5.10" departSpeed="0.00" departDelay="0.60" arrival="57840.00" arrivalLane="18809673#0_1" arrivalPos="473.56" arrivalSpeed="14.26" duration="164.00" routeLength="1959.45" waitingTime="0.00" waitingCount="0" stopTime="0.00" timeLoss="24.80" rerouteNo="1" devices="tripinfo_carIn12775:1 routing_carIn12775:1 emissions_carIn12775:1" vType="default_016" speedFactor="1.04" vaporized="">
        <emissions CO_abs="5161.527291" CO2_abs="392022.270025" HC_abs="32.664736" PMx_abs="6.527582" NOx_abs="156.254364" fuel_abs="168.513618" electricity_abs="0"/>
    </tripinfo>
    <tripinfo id="randUni31145:1" depart="57814.00" departLane="10425609#0_1" departPos="5.10" departSpeed="0.00" departDelay="0.30" arrival="57843.00" arrivalLane="201956810_1" arrivalPos="71.65" arrivalSpeed="13.92" duration="29.00" routeLength="255.78" waitingTime="0.00" waitingCount="0" stopTime="0.00" timeLoss="10.16" rerouteNo="1" devices="tripinfo_randUni31145:1 routing_randUni31145:1 emissions_randUni31145:1" vType="random_016" speedFactor="1.04" vaporized="">
        <emissions CO_abs="2161.677866" CO2_abs="112313.845755" HC_abs="12.490341" PMx_abs="2.181744" NOx_abs="47.540853" fuel_abs="48.278950" electricity_abs="0"/>
    </tripinfo>
    <tripinfo id="carIn81860:1" depart="57712.00" departLane="128361102#0_1" departPos="5.10" departSpeed="0.00" departDelay="0.60" arrival="57846.00" arrivalLane="-24634517#17_1" arrivalPos="6.43" arrivalSpeed="8.23" duration="134.00" routeLength="1229.64" waitingTime="23.00" waitingCount="2" stopTime="0.00" timeLoss="51.28" rerouteNo="1" devices="tripinfo_carIn81860:1 routing_carIn81860:1 emissions_carIn81860:1" vType="default_016" speedFactor="1.09" vaporized="">
        <emissions CO_abs="7380.443184" CO2_abs="366802.153884" HC_abs="42.060222" PMx_abs="6.618423" NOx_abs="149.844934" fuel_abs="157.673909" electricity_abs="0"/>
    </tripinfo>
    <tripinfo id="randUni15030:1" depart="57735.00" departLane="386687232#0_1" departPos="5.10" departSpeed="0.00" departDelay="0.10" arrival="57849.00" arrivalLane="26677539_1" arrivalPos="151.98" arrivalSpeed="8.65" duration="114.00" routeLength="919.89" waitingTime="23.00" waitingCount="2" stopTime="0.00" timeLoss="41.52" rerouteNo="1" devices="tripinfo_randUni15030:1 routing_randUni15030:1 emissions_randUni15030:1" vType="random_016" speedFactor="1.16" vaporized="">
        <emissions CO_abs="6733.377603" CO2_abs="294130.402558" HC_abs="37.483097" PMx_abs="5.466035" NOx_abs="121.905347" fuel_abs="126.435552" electricity_abs="0"/>
    </tripinfo>
    <tripinfo id="randUni2407:1" depart="57821.00" departLane="10425609#0_1" departPos="5.10" departSpeed="0.00" departDelay="1.80" arrival="57850.00" arrivalLane="201956810_1" arrivalPos="71.65" arrivalSpeed="10.53" duration="29.00" routeLength="255.78" waitingTime="0.00" waitingCount="0" stopTime="0.00" timeLoss="6.12" rerouteNo="1" devices="tripinfo_randUni2407:1 routing_randUni2407:1 emissions_randUni2407:1" vType="random_016" speedFactor="0.84" vaporized="">
        <emissions CO_abs="1740.608191" CO2_abs="90897.451080" HC_abs="10.057535" PMx_abs="1.657978" NOx_abs="37.861983" fuel_abs="39.073102" electricity_abs="0"/>
    </tripinfo>
    <tripinfo id="50R_frequency3.17" depart="57674.00" departLane="-18809673#6_1" departPos="12.10" departSpeed="0.00" departDelay="0.70" arrival="57855.00" arrivalLane="201956811#0_1" arrivalPos="40.40" arrivalSpeed="12.03" duration="181.00" routeLength="1954.47" waitingTime="12.00" waitingCount="1" stopTime="0.00" timeLoss="35.52" rerouteNo="1" devices="tripinfo_50R_frequency3.17 routing_50R_frequency3.17 emissions_50R_frequency3.17" vType="bus" speedFactor="1.00" vaporized="">
        <emissions CO_abs="3218.456952" CO2_abs="1996046.946701" HC_abs="684.239338" PMx_abs="344.842488" NOx_abs="15538.020131" fuel_abs="851.289650" electricity_abs="0"/>
    </tripinfo>
    <tripinfo id="carIn8642:1" depart="57774.00" departLane="-447569998#1_1" departPos="5.10" departSpeed="0.00" departDelay="0.90" arrival="57855.00" arrivalLane="-315358244_1" arrivalPos="33.95" arrivalSpeed="13.73" duration="81.00" routeLength="706.49" waitingTime="13.00" waitingCount="1" stopTime="0.00" timeLoss="24.46" rerouteNo="1" devices="tripinfo_carIn8642:1 routing_carIn8642:1 emissions_carIn8642:1" vType="default_016" speedFactor="1.08" vaporized="">
        <emissions CO_abs="3707.665859" CO2_abs="178730.317758" HC_abs="20.975549" PMx_abs="3.110116" NOx_abs="72.269079" fuel_abs="76.829449" electricity_abs="0"/>
    </tripinfo>
    <tripinfo id="carIn28951:1" depart="57606.00" departLane="10425609#0_1" departPos="5.10" departSpeed="0.00" departDelay="0.20" arrival="57859.00" arrivalLane="-128361102#1_1" arrivalPos="274.68" arrivalSpeed="13.06" duration="253.00" routeLength="2113.04" waitingTime="65.00" waitingCount="1" stopTime="0.00" timeLoss="87.67" rerouteNo="1" devices="tripinfo_carIn28951:1 routing_carIn28951:1 emissions_carIn28951:1" vType="default_016" speedFactor="0.95" vaporized="">
        <emissions CO_abs="15607.659439" CO2_abs="602306.070545" HC_abs="85.133801" PMx_abs="11.059552" NOx_abs="248.055952" fuel_abs="258.910500" electricity_abs="0"/>
    </tripinfo>
    <tripinfo id="carIn107842:1" depart="57623.00" departLane="124812856#0_1" departPos="5.10" departSpeed="0.00" departDelay="1.90" arrival="57860.00" arrivalLane="-128361102#1_1" arrivalPos="274.68" arrivalSpeed="14.23" duration="237.00" routeLength="2250.49" waitingTime="39.00" waitingCount="3" stopTime="0.00" timeLoss="83.84" rerouteNo="1" devices="tripinfo_carIn107842:1 routing_carIn107842:1 emissions_carIn107842:1" vType="default_016" speedFactor="1.07" vaporized="">
        <emissions CO_abs="12537.930288" CO2_abs="619578.001009" HC_abs="71.588076" PMx_abs="11.436194" NOx_abs="255.456856" fuel_abs="266.331997" electricity_abs="0"/>
    </tripinfo>
    <tripinfo id="carIn118538:1" depart="57683.00" departLane="-447569998#1_1" departPos="5.10" departSpeed="0.00" departDelay="1.00" arrival="57862.00" arrivalLane="399835085#1_1" arrivalPos="212.23" arrivalSpeed="8.42" duration="179.00" routeLength="1907.17" waitingTime="8.00" waitingCount="1" stopTime="0.00" timeLoss="25.90" rerouteNo="1" devices="tripinfo_carIn118538:1 routing_carIn118538:1 emissions_carIn118538:1" vType="default_016" speedFactor="1.06" vaporized="">
        <emissions CO_abs="5176.869415" CO2_abs="387128.468165" HC_abs="32.430231" PMx_abs="5.857394" NOx_abs="150.164816" fuel_abs="166.410969" electricity_abs="0"/>
    </tripinfo>
    <tripinfo id="carIn13443:1" depart="57729.00" departLane="272042143_1" departPos="5.10" departSpeed="0.00" departDelay="0.80" arrival="57879.00" arrivalLane="399835085#1_1" arrivalPos="212.23" arrivalSpeed="8.98" duration="150.00" routeLength="1757.45" waitingTime="0.00" waitingCount="0" stopTime="0.00" timeLoss="25.40" rerouteNo="1" devices="tripinfo_carIn13443:1 routing_carIn13443:1 emissions_carIn13443:1" vType="default_016" speedFactor="1.13" vaporized="">
        <emissions CO_abs="4973.548337" CO2_abs="378113.699317" HC_abs="31.427651" PMx_abs="6.258126" NOx_abs="150.433689" fuel_abs="162.534965" electricity_abs="0"/>
    </tripinfo>
    <tripinfo id="h13377c2:3" depart="57808.00" departLane="315358244_1" departPos="5.10" departSpeed="0.00" departDelay="4.60" arrival="57880.00" arrivalLane="447569997#1_1" arrivalPos="180.93" arrivalSpeed="9.46" duration="72.00" routeLength="718.04" waitingTime="5.00" waitingCount="1" stopTime="0.00" timeLoss="19.86" rerouteNo="1" devices="tripinfo_h13377c2:3 routing_h13377c2:3 emissions_h13377c2:3" vType="default_016" speedFactor="1.20" vaporized="">
        <emissions CO_abs="3209.680980" CO2_abs="196846.665045" HC_abs="19.227134" PMx_abs="3.474265" NOx_abs="80.057854" fuel_abs="84.616161" electricity_abs="0"/>
    </tripinfo>
    <tripinfo id="carIn107084:1" depart="57601.00" departLane="124812856#0_1" departPos="5.10" departSpeed="0.00" departDelay="0.70" arrival="57881.00" arrivalLane="-128361102#1_1" arrivalPos="274.68" arrivalSpeed="11.63" duration="280.00" routeLength="2250.49" waitingTime="54.00" waitingCount="3" stopTime="0.00" timeLoss="92.66" rerouteNo="1" devices="tripinfo_carIn107084:1 routing_carIn107084:1 emissions_carIn107084:1" vType="default_016" speedFactor="0.88" vaporized="">