<?xml version="1.0" encoding="UTF-8"?>

<!-- generated on Thu Nov  4 14:16:24 2021 by Eclipse SUMO sumo Version 1.9.0
<configuration xmlns:xsi="http://www.w3.org/2001/XMLSchema-instance" xsi:noNamespaceSchemaLocation="http://sumo.dlr.de/xsd/sumoConfiguration.xsd">

    <input>
        <net-file value="/mainfs/home/bk2g18/RESCO/environments/ingolstadt21/ingolstadt21.net.xml"/>
        <route-files value="/mainfs/home/bk2g18/RESCO/environments/ingolstadt21/ingolstadt21.rou.xml"/>
    </input>

    <output>
        <tripinfo-output value="/mainfs/home/bk2g18/RESCO/logs/MPLight-tr0-ingolstadt21-21-mplight_full-pressure/tripinfo_81.xml"/>
        <tripinfo-output.write-unfinished value="true"/>
    </output>

    <time>
        <begin value="57600"/>
        <end value="61200"/>
    </time>

    <processing>
        <time-to-teleport value="-1"/>
    </processing>

    <report>
        <xml-validation value="never"/>
        <xml-validation.routes value="never"/>
        <no-warnings value="true"/>
        <no-step-log value="true"/>
    </report>

    <emissions>
        <device.emissions.probability value="1"/>
    </emissions>

    <traci_server>
        <remote-port value="49577"/>
    </traci_server>

    <random_number>
        <random value="true"/>
    </random_number>

</configuration>
-->

<tripinfos xmlns:xsi="http://www.w3.org/2001/XMLSchema-instance" xsi:noNamespaceSchemaLocation="http://sumo.dlr.de/xsd/tripinfo_file.xsd">
    <tripinfo id="h15454c2:3" depart="57612.00" departLane="24608844_1" departPos="5.10" departSpeed="0.00" departDelay="0.50" arrival="57650.00" arrivalLane="32978638#0_1" arrivalPos="49.29" arrivalSpeed="14.84" duration="38.00" routeLength="354.79" waitingTime="0.00" waitingCount="0" stopTime="0.00" timeLoss="7.86" rerouteNo="1" devices="tripinfo_h15454c2:3 routing_h15454c2:3 emissions_h15454c2:3" vType="default_016" speedFactor="1.16" vaporized="">
        <emissions CO_abs="2239.848655" CO2_abs="125256.175777" HC_abs="13.157689" PMx_abs="2.358412" NOx_abs="52.516208" fuel_abs="53.842280" electricity_abs="0"/>
    </tripinfo>
    <tripinfo id="carIn53971:1" depart="57640.00" departLane="272042143_1" departPos="5.10" departSpeed="0.00" departDelay="0.80" arrival="57694.00" arrivalLane="24634414#1_1" arrivalPos="162.19" arrivalSpeed="7.74" duration="54.00" routeLength="493.04" waitingTime="0.00" waitingCount="0" stopTime="0.00" timeLoss="8.63" rerouteNo="1" devices="tripinfo_carIn53971:1 routing_carIn53971:1 emissions_carIn53971:1" vType="default_016" speedFactor="1.01" vaporized="">
        <emissions CO_abs="2556.296850" CO2_abs="143011.818609" HC_abs="14.984999" PMx_abs="2.520282" NOx_abs="58.832086" fuel_abs="61.474937" electricity_abs="0"/>
    </tripinfo>
    <tripinfo id="carIn60260:1" depart="57606.00" departLane="315358254#0_1" departPos="5.10" departSpeed="0.00" departDelay="0.90" arrival="57709.00" arrivalLane="399835085#1_1" arrivalPos="212.23" arrivalSpeed="9.02" duration="103.00" routeLength="430.98" waitingTime="52.00" waitingCount="1" stopTime="0.00" timeLoss="61.63" rerouteNo="1" devices="tripinfo_carIn60260:1 routing_carIn60260:1 emissions_carIn60260:1" vType="default_016" speedFactor="1.13" vaporized="">
        <emissions CO_abs="10173.169762" CO2_abs="254752.150266" HC_abs="52.295170" PMx_abs="5.451452" NOx_abs="111.043980" fuel_abs="109.510875" electricity_abs="0"/>
    </tripinfo>
    <tripinfo id="h7800c1:5" depart="57696.00" departLane="-447569998#1_1" departPos="5.10" departSpeed="0.00" departDelay="0.00" arrival="57720.00" arrivalLane="-447569998#1_1" arrivalPos="180.76" arrivalSpeed="7.69" duration="24.00" routeLength="175.66" waitingTime="0.00" waitingCount="0" stopTime="0.00" timeLoss="3.19" rerouteNo="1" devices="tripinfo_h7800c1:5 routing_h7800c1:5 emissions_h7800c1:5" vType="default_016" speedFactor="1.01" vaporized="">
        <emissions CO_abs="1014.952931" CO2_abs="44385.346927" HC_abs="5.638358" PMx_abs="0.719114" NOx_abs="18.010984" fuel_abs="19.079716" electricity_abs="0"/>
    </tripinfo>
    <tripinfo id="h7181c1:1" depart="57660.00" departLane="315358254#0_1" departPos="5.10" departSpeed="0.00" departDelay="0.10" arrival="57724.00" arrivalLane="306240162#0_0" arrivalPos="220.43" arrivalSpeed="16.63" duration="64.00" routeLength="932.35" waitingTime="0.00" waitingCount="0" stopTime="0.00" timeLoss="13.15" rerouteNo="1" devices="tripinfo_h7181c1:1 routing_h7181c1:1 emissions_h7181c1:1" vType="default_016" speedFactor="1.01" vaporized="">
        <emissions CO_abs="3706.917933" CO2_abs="255671.692718" HC_abs="22.896761" PMx_abs="4.986695" NOx_abs="105.451828" fuel_abs="109.901611" electricity_abs="0"/>
    </tripinfo>
    <tripinfo id="carIn121703:1" depart="57647.00" departLane="386687232#0_1" departPos="5.10" departSpeed="0.00" departDelay="0.30" arrival="57739.00" arrivalLane="-315358244_1" arrivalPos="33.95" arrivalSpeed="13.83" duration="92.00" routeLength="1157.39" waitingTime="0.00" waitingCount="0" stopTime="0.00" timeLoss="7.78" rerouteNo="1" devices="tripinfo_carIn121703:1 routing_carIn121703:1 emissions_carIn121703:1" vType="default_016" speedFactor="1.00" vaporized="">
        <emissions CO_abs="2548.849384" CO2_abs="224757.193704" HC_abs="16.847222" PMx_abs="3.619862" NOx_abs="88.394612" fuel_abs="96.613387" electricity_abs="0"/>
    </tripinfo>
    <tripinfo id="h317c2:1" depart="57707.00" departLane="-32978638#0_1" departPos="5.10" departSpeed="0.00" departDelay="0.10" arrival="57744.00" arrivalLane="-266565295#5_1" arrivalPos="172.76" arrivalSpeed="13.55" duration="37.00" routeLength="370.53" waitingTime="1.00" waitingCount="1" stopTime="0.00" timeLoss="10.65" rerouteNo="1" devices="tripinfo_h317c2:1 routing_h317c2:1 emissions_h317c2:1" vType="default_016" speedFactor="1.03" vaporized="">
        <emissions CO_abs="1966.646594" CO2_abs="111036.692763" HC_abs="11.584061" PMx_abs="2.106251" NOx_abs="46.477865" fuel_abs="47.729910" electricity_abs="0"/>
    </tripinfo>
    <tripinfo id="h5979c1:5" depart="57669.00" departLane="399835085#1_1" departPos="5.10" departSpeed="0.00" departDelay="0.00" arrival="57765.00" arrivalLane="-315358254#1_1" arrivalPos="137.16" arrivalSpeed="13.59" duration="96.00" routeLength="659.33" waitingTime="0.00" waitingCount="0" stopTime="0.00" timeLoss="21.27" rerouteNo="1" devices="tripinfo_h5979c1:5 routing_h5979c1:5 emissions_h5979c1:5" vType="default_016" speedFactor="0.98" vaporized="">
        <emissions CO_abs="4552.607461" CO2_abs="200483.691146" HC_abs="25.347516" PMx_abs="3.417566" NOx_abs="82.253500" fuel_abs="86.180695" electricity_abs="0"/>
    </tripinfo>
    <tripinfo id="h3154c1:1" depart="57658.00" departLane="24634507_1" departPos="5.10" departSpeed="0.00" departDelay="0.00" arrival="57769.00" arrivalLane="-266565295#5_1" arrivalPos="172.76" arrivalSpeed="12.21" duration="111.00" routeLength="1206.22" waitingTime="0.00" waitingCount="0" stopTime="0.00" timeLoss="11.55" rerouteNo="1" devices="tripinfo_h3154c1:1 routing_h3154c1:1 emissions_h3154c1:1" vType="default_016" speedFactor="0.90" vaporized="">
        <emissions CO_abs="3283.347943" CO2_abs="245012.235940" HC_abs="20.646280" PMx_abs="3.886401" NOx_abs="97.034370" fuel_abs="105.320570" electricity_abs="0"/>
    </tripinfo>
    <tripinfo id="h3326c1:2" depart="57656.00" departLane="22716069#0_1" departPos="5.10" departSpeed="0.00" departDelay="0.00" arrival="57771.00" arrivalLane="24634517#13_1" arrivalPos="111.62" arrivalSpeed="12.70" duration="115.00" routeLength="1312.81" waitingTime="0.00" waitingCount="0" stopTime="0.00" timeLoss="14.13" rerouteNo="1" devices="tripinfo_h3326c1:2 routing_h3326c1:2 emissions_h3326c1:2" vType="default_016" speedFactor="0.97" vaporized="">
        <emissions CO_abs="4213.568435" CO2_abs="318866.103646" HC_abs="26.656256" PMx_abs="5.316677" NOx_abs="127.581066" fuel_abs="137.066869" electricity_abs="0"/>
    </tripinfo>
    <tripinfo id="h11737c1:1" depart="57665.00" departLane="272042143_1" departPos="5.10" departSpeed="0.00" departDelay="1.50" arrival="57777.00" arrivalLane="-315358254#1_1" arrivalPos="137.16" arrivalSpeed="16.25" duration="112.00" routeLength="1596.88" waitingTime="0.00" waitingCount="0" stopTime="0.00" timeLoss="14.98" rerouteNo="1" devices="tripinfo_h11737c1:1 routing_h11737c1:1 emissions_h11737c1:1" vType="default_016" speedFactor="1.20" vaporized="">
        <emissions CO_abs="3630.392637" CO2_abs="326908.041103" HC_abs="24.024322" PMx_abs="5.532699" NOx_abs="128.898447" fuel_abs="140.523246" electricity_abs="0"/>
    </tripinfo>
    <tripinfo id="h4538c1:1" depart="57701.00" departLane="-10427692#1_1" departPos="5.10" departSpeed="0.00" departDelay="0.00" arrival="57777.00" arrivalLane="-128361102#1_1" arrivalPos="274.68" arrivalSpeed="12.55" duration="76.00" routeLength="440.74" waitingTime="33.00" waitingCount="1" stopTime="0.00" timeLoss="43.09" rerouteNo="1" devices="tripinfo_h4538c1:1 routing_h4538c1:1 emissions_h4538c1:1" vType="default_016" speedFactor="0.95" vaporized="">
        <emissions CO_abs="6253.119216" CO2_abs="186126.156821" HC_abs="32.815582" PMx_abs="3.644041" NOx_abs="78.390343" fuel_abs="80.010032" electricity_abs="0"/>
    </tripinfo>
    <tripinfo id="h330c1:1" depart="57736.00" departLane="-32978638#0_1" departPos="5.10" departSpeed="0.00" departDelay="0.20" arrival="57779.00" arrivalLane="-266565295#5_1" arrivalPos="172.76" arrivalSpeed="10.21" duration="43.00" routeLength="370.53" waitingTime="0.00" waitingCount="0" stopTime="0.00" timeLoss="9.52" rerouteNo="1" devices="tripinfo_h330c1:1 routing_h330c1:1 emissions_h330c1:1" vType="default_016" speedFactor="0.82" vaporized="">
        <emissions CO_abs="2048.188933" CO2_abs="113362.600981" HC_abs="11.948467" PMx_abs="1.845000" NOx_abs="45.598371" fuel_abs="48.730207" electricity_abs="0"/>
    </tripinfo>
    <tripinfo id="carIn126288:1" depart="57674.00" departLane="272042143_1" departPos="5.10" departSpeed="0.00" departDelay="0.00" arrival="57780.00" arrivalLane="-315358254#1_1" arrivalPos="137.16" arrivalSpeed="16.33" duration="106.00" routeLength="1596.88" waitingTime="0.00" waitingCount="0" stopTime="0.00" timeLoss="11.27" rerouteNo="1" devices="tripinfo_carIn126288:1 routing_carIn126288:1 emissions_carIn126288:1" vType="default_016" speedFactor="1.23" vaporized="">
        <emissions CO_abs="3713.607959" CO2_abs="316881.820804" HC_abs="24.364764" PMx_abs="5.752603" NOx_abs="127.647423" fuel_abs="136.212995" electricity_abs="0"/>
    </tripinfo>
    <tripinfo id="carIn27009:1" depart="57673.00" departLane="-447569998#1_1" departPos="5.10" departSpeed="0.00" departDelay="0.50" arrival="57784.00" arrivalLane="-26677539_1" arrivalPos="152.75" arrivalSpeed="7.52" duration="111.00" routeLength="699.63" waitingTime="12.00" waitingCount="1" stopTime="0.00" timeLoss="26.87" rerouteNo="1" devices="tripinfo_carIn27009:1 routing_carIn27009:1 emissions_carIn27009:1" vType="default_015" speedFactor="1.00" vaporized="">
        <emissions CO_abs="5527.174446" CO2_abs="216400.852397" HC_abs="30.145912" PMx_abs="3.697255" NOx_abs="88.950505" fuel_abs="93.023410" electricity_abs="0"/>
    </tripinfo>
    <tripinfo id="h3568c1:3" depart="57656.00" departLane="266565295#5_1" departPos="5.10" departSpeed="0.00" departDelay="0.80" arrival="57796.00" arrivalLane="-24634415_1" arrivalPos="62.03" arrivalSpeed="10.14" duration="140.00" routeLength="807.40" waitingTime="38.00" waitingCount="1" stopTime="0.00" timeLoss="55.40" rerouteNo="1" devices="tripinfo_h3568c1:3 routing_h3568c1:3 emissions_h3568c1:3" vType="default_016" speedFactor="0.77" vaporized="">
        <emissions CO_abs="9547.398533" CO2_abs="301270.112185" HC_abs="50.462701" PMx_abs="5.685177" NOx_abs="126.561773" fuel_abs="129.506677" electricity_abs="0"/>
    </tripinfo>
    <tripinfo id="carIn129809:1" depart="57729.00" departLane="-447569998#1_1" departPos="5.10" departSpeed="0.00" departDelay="1.00" arrival="57806.00" arrivalLane="-315358244_1" arrivalPos="33.95" arrivalSpeed="14.20" duration="77.00" routeLength="706.49" waitingTime="9.00" waitingCount="1" stopTime="0.00" timeLoss="19.74" rerouteNo="1" devices="tripinfo_carIn129809:1 routing_carIn129809:1 emissions_carIn129809:1" vType="default_015" speedFactor="1.05" vaporized="">
        <emissions CO_abs="2936.811688" CO2_abs="168793.932436" HC_abs="17.202209" PMx_abs="2.679762" NOx_abs="66.507211" fuel_abs="72.558088" electricity_abs="0"/>
    </tripinfo>
    <tripinfo id="carIn107282:1" depart="57749.00" departLane="-447569998#1_1" departPos="5.10" departSpeed="0.00" departDelay="0.00" arrival="57816.00" arrivalLane="315358242#0_1" arrivalPos="165.37" arrivalSpeed="13.44" duration="67.00" routeLength="448.50" waitingTime="17.00" waitingCount="1" stopTime="0.00" timeLoss="24.83" rerouteNo="1" devices="tripinfo_carIn107282:1 routing_carIn107282:1 emissions_carIn107282:1" vType="default_016" speedFactor="1.00" vaporized="">
        <emissions CO_abs="4429.952814" CO2_abs="159082.515513" HC_abs="23.879304" PMx_abs="2.974520" NOx_abs="66.397863" fuel_abs="68.384184" electricity_abs="0"/>
    </tripinfo>
    <tripinfo id="h17549c1:1" depart="57680.00" departLane="-447569998#1_1" departPos="5.10" departSpeed="0.00" departDelay="0.00" arrival="57823.00" arrivalLane="-315358254#1_1" arrivalPos="137.16" arrivalSpeed="16.02" duration="143.00" routeLength="1746.60" waitingTime="9.00" waitingCount="1" stopTime="0.00" timeLoss="25.23" rerouteNo="1" devices="tripinfo_h17549c1:1 routing_h17549c1:1 emissions_h17549c1:1" vType="default_016" speedFactor="1.16" vaporized="">
        <emissions CO_abs="5245.134026" CO2_abs="395230.034579" HC_abs="32.860559" PMx_abs="6.702055" NOx_abs="156.615206" fuel_abs="169.892468" electricity_abs="0"/>
    </tripinfo>
    <tripinfo id="randUni15030:1" depart="57735.00" departLane="386687232#0_1" departPos="5.10" departSpeed="0.00" departDelay="0.10" arrival="57827.00" arrivalLane="26677539_1" arrivalPos="151.98" arrivalSpeed="8.20" duration="92.00" routeLength="919.89" waitingTime="0.00" waitingCount="0" stopTime="0.00" timeLoss="11.08" rerouteNo="1" devices="tripinfo_randUni15030:1 routing_randUni15030:1 emissions_randUni15030:1" vType="random_016" speedFactor="1.03" vaporized="">
        <emissions CO_abs="3525.376426" CO2_abs="223472.842683" HC_abs="21.237441" PMx_abs="3.655694" NOx_abs="89.482883" fuel_abs="96.061936" electricity_abs="0"/>
    </tripinfo>
    <tripinfo id="carIn8642:1" depart="57774.00" departLane="-447569998#1_1" departPos="5.10" departSpeed="0.00" departDelay="0.90" arrival="57849.00" arrivalLane="-315358244_1" arrivalPos="33.95" arrivalSpeed="12.39" duration="75.00" routeLength="706.49" waitingTime="0.00" waitingCount="0" stopTime="0.00" timeLoss="7.73" rerouteNo="1" devices="tripinfo_carIn8642:1 routing_carIn8642:1 emissions_carIn8642:1" vType="default_016" speedFactor="0.90" vaporized="">
        <emissions CO_abs="2433.435339" CO2_abs="154251.531788" HC_abs="14.628347" PMx_abs="2.324939" NOx_abs="60.522434" fuel_abs="66.306795" electricity_abs="0"/>
    </tripinfo>
    <tripinfo id="carIn118538:1" depart="57683.00" departLane="-447569998#1_1" departPos="5.10" departSpeed="0.00" departDelay="1.00" arrival="57861.00" arrivalLane="399835085#1_1" arrivalPos="212.23" arrivalSpeed="8.61" duration="178.00" routeLength="1904.55" waitingTime="5.00" waitingCount="1" stopTime="0.00" timeLoss="23.48" rerouteNo="1" devices="tripinfo_carIn118538:1 routing_carIn118538:1 emissions_carIn118538:1" vType="default_016" speedFactor="1.05" vaporized="">
        <emissions CO_abs="4961.904951" CO2_abs="371043.023174" HC_abs="31.084010" PMx_abs="5.713174" NOx_abs="144.690271" fuel_abs="159.496315" electricity_abs="0"/>
    </tripinfo>
    <tripinfo id="carIn126378:1" depart="57746.00" departLane="386687232#0_1" departPos="5.10" departSpeed="0.00" departDelay="1.80" arrival="57862.00" arrivalLane="-315358244_1" arrivalPos="33.95" arrivalSpeed="14.48" duration="116.00" routeLength="1157.39" waitingTime="25.00" waitingCount="1" stopTime="0.00" timeLoss="39.25" rerouteNo="1" devices="tripinfo_carIn126378:1 routing_carIn126378:1 emissions_carIn126378:1" vType="default_016" speedFactor="1.11" vaporized="">
        <emissions CO_abs="6277.549618" CO2_abs="305027.688255" HC_abs="35.648620" PMx_abs="5.534833" NOx_abs="124.071869" fuel_abs="131.119634" electricity_abs="0"/>
    </tripinfo>
    <tripinfo id="carIn73855:1" depart="57743.00" departLane="386687232#0_1" departPos="5.10" departSpeed="0.00" departDelay="0.50" arrival="57867.00" arrivalLane="-315358244_1" arrivalPos="33.95" arrivalSpeed="12.31" duration="124.00" routeLength="1157.39" waitingTime="23.00" waitingCount="1" stopTime="0.00" timeLoss="37.43" rerouteNo="1" devices="tripinfo_carIn73855:1 routing_carIn73855:1 emissions_carIn73855:1" vType="default_016" speedFactor="0.98" vaporized="">
        <emissions CO_abs="5957.938910" CO2_abs="301116.471941" HC_abs="34.142942" PMx_abs="5.154870" NOx_abs="121.206971" fuel_abs="129.438565" electricity_abs="0"/>
    </tripinfo>
    <tripinfo id="carIn24709:1" depart="57753.00" departLane="266565295#5_1" departPos="5.10" departSpeed="0.00" departDelay="2.50" arrival="57877.00" arrivalLane="-24634506#2_1" arrivalPos="71.32" arrivalSpeed="13.68" duration="124.00" routeLength="1450.12" waitingTime="0.00" waitingCount="0" stopTime="0.00" timeLoss="12.85" rerouteNo="1" devices="tripinfo_carIn24709:1 routing_carIn24709:1 emissions_carIn24709:1" vType="default_016" speedFactor="1.06" vaporized="">
        <emissions CO_abs="4014.507259" CO2_abs="307403.131816" HC_abs="25.399746" PMx_abs="5.076163" NOx_abs="122.134213" fuel_abs="132.139505" electricity_abs="0"/>
    </tripinfo>
    <tripinfo id="randUni3548:1" depart="57726.00" departLane="-447569998#1_1" departPos="5.10" departSpeed="0.00" departDelay="0.00" arrival="57878.00" arrivalLane="-315358254#1_1" arrivalPos="137.16" arrivalSpeed="14.91" duration="152.00" routeLength="1746.60" waitingTime="12.00" waitingCount="1" stopTime="0.00" timeLoss="27.91" rerouteNo="1" devices="tripinfo_randUni3548:1 routing_randUni3548:1 emissions_randUni3548:1" vType="random_016" speedFactor="1.11" vaporized="">
        <emissions CO_abs="5506.657835" CO2_abs="387334.574992" HC_abs="34.030783" PMx_abs="6.460740" NOx_abs="153.418805" fuel_abs="166.498998" electricity_abs="0"/>
    </tripinfo>
    <tripinfo id="carIn53503:1" depart="57765.00" departLane="-306240162#1_0" departPos="5.10" departSpeed="0.00" departDelay="4.40" arrival="57895.00" arrivalLane="24634510#6_1" arrivalPos="76.64" arrivalSpeed="14.31" duration="130.00" routeLength="1440.47" waitingTime="18.00" waitingCount="1" stopTime="0.00" timeLoss="37.43" rerouteNo="1" devices="tripinfo_carIn53503:1 routing_carIn53503:1 emissions_carIn53503:1" vType="default_016" speedFactor="1.08" vaporized="">
        <emissions CO_abs="6758.820534" CO2_abs="399414.265073" HC_abs="39.936160" PMx_abs="7.280605" NOx_abs="162.481037" fuel_abs="171.691474" electricity_abs="0"/>
    </tripinfo>
    <tripinfo id="carIn13443:1" depart="57729.00" departLane="272042143_1" departPos="5.10" departSpeed="0.00" departDelay="0.80" arrival="57901.00" arrivalLane="399835085#1_1" arrivalPos="212.23" arrivalSpeed="6.25" duration="172.00" routeLength="1757.45" waitingTime="0.00" waitingCount="0" stopTime="0.00" timeLoss="15.12" rerouteNo="1" devices="tripinfo_carIn13443:1 routing_carIn13443:1 emissions_carIn13443:1" vType="default_016" speedFactor="0.91" vaporized="">
        <emissions CO_abs="4821.121240" CO2_abs="347912.024905" HC_abs="29.966193" PMx_abs="5.161570" NOx_abs="135.519532" fuel_abs="149.553587" electricity_abs="0"/>
    </tripinfo>
    <tripinfo id="randUni23028:1" depart="57884.00" departLane="124812856#0_1" departPos="5.10" departSpeed="0.00" departDelay="0.10" arrival="57901.00" arrivalLane="201956810_1" arrivalPos="71.65" arrivalSpeed="9.90" duration="17.00" routeLength="134.91" waitingTime="0.00" waitingCount="0" stopTime="0.00" timeLoss="3.38" rerouteNo="1" devices="tripinfo_randUni23028:1 routing_randUni23028:1 emissions_randUni23028:1" vType="random_016" speedFactor="0.76" vaporized="">
        <emissions CO_abs="1071.747416" CO2_abs="50948.196413" HC_abs="6.080163" PMx_abs="0.978219" NOx_abs="21.626786" fuel_abs="21.900547" electricity_abs="0"/>
    </tripinfo>
    <tripinfo id="carIn14532:1" depart="57743.00" departLane="272042143_1" departPos="5.10" departSpeed="0.00" departDelay="1.90" arrival="57903.00" arrivalLane="399835085#1_1" arrivalPos="212.23" arrivalSpeed="8.45" duration="160.00" routeLength="1757.45" waitingTime="0.00" waitingCount="0" stopTime="0.00" timeLoss="32.08" rerouteNo="1" devices="tripinfo_carIn14532:1 routing_carIn14532:1 emissions_carIn14532:1" vType="default_016" speedFactor="1.11" vaporized="">
        <emissions CO_abs="5807.274734" CO2_abs="406414.569459" HC_abs="35.995738" PMx_abs="7.090658" NOx_abs="164.954422" fuel_abs="174.700061" electricity_abs="0"/>
    </tripinfo>
    <tripinfo id="carIn81681:1" depart="57726.00" departLane="272042143_1" departPos="5.10" departSpeed="0.00" departDelay="0.30" arrival="57910.00" arrivalLane="306240162#0_0" arrivalPos="220.43" arrivalSpeed="16.72" duration="184.00" routeLength="2246.89" waitingTime="20.00" waitingCount="1" stopTime="0.00" timeLoss="41.13" rerouteNo="1" devices="tripinfo_carIn81681:1 routing_carIn81681:1 emissions_carIn81681:1" vType="default_016" speedFactor="1.03" vaporized="">
        <emissions CO_abs="8429.037684" CO2_abs="531533.550662" HC_abs="50.844959" PMx_abs="9.564239" NOx_abs="214.244990" fuel_abs="228.483904" electricity_abs="0"/>
    </tripinfo>
    <tripinfo id="carIn80913:1" depart="57732.00" departLane="272042143_1" departPos="5.10" departSpeed="0.00" departDelay="0.40" arrival="57913.00" arrivalLane="306240162#0_0" arrivalPos="220.43" arrivalSpeed="15.15" duration="181.00" routeLength="2246.89" waitingTime="0.00" waitingCount="0" stopTime="0.00" timeLoss="31.02" rerouteNo="1" devices="tripinfo_carIn80913:1 routing_carIn80913:1 emissions_carIn80913:1" vType="default_016" speedFactor="0.99" vaporized="">
        <emissions CO_abs="7569.218802" CO2_abs="550474.639102" HC_abs="47.493382" PMx_abs="9.992040" NOx_abs="224.321021" fuel_abs="236.624577" electricity_abs="0"/>
    </tripinfo>
    <tripinfo id="carIn101266:1" depart="57737.00" departLane="272042143_1" departPos="5.10" departSpeed="0.00" departDelay="0.50" arrival="57916.00" arrivalLane="306240162#0_0" arrivalPos="220.43" arrivalSpeed="16.13" duration="179.00" routeLength="2246.89" waitingTime="0.00" waitingCount="0" stopTime="0.00" timeLoss="30.94" rerouteNo="1" devices="tripinfo_carIn101266:1 routing_carIn101266:1 emissions_carIn101266:1" vType="default_016" speedFactor="1.00" vaporized="">
        <emissions CO_abs="7642.261361" CO2_abs="565237.026749" HC_abs="48.201898" PMx_abs="10.155667" NOx_abs="229.169987" fuel_abs="242.970377" electricity_abs="0"/>
    </tripinfo>
    <tripinfo id="h13377c2:3" depart="57804.00" departLane="315358244_1" departPos="5.10" departSpeed="0.00" departDelay="0.60" arrival="57918.00" arrivalLane="447569997#1_1" arrivalPos="180.93" arrivalSpeed="6.86" duration="114.00" routeLength="726.74" waitingTime="22.00" waitingCount="2" stopTime="0.00" timeLoss="40.22" rerouteNo="1" devices="tripinfo_h13377c2:3 routing_h13377c2:3 emissions_h13377c2:3" vType="default_016" speedFactor="0.91" vaporized="">
        <emissions CO_abs="6182.658846" CO2_abs="218410.489749" HC_abs="33.207429" PMx_abs="3.927272" NOx_abs="90.294996" fuel_abs="93.887581" electricity_abs="0"/>
    </tripinfo>
    <tripinfo id="carIn106296:1" depart="57767.00" departLane="124812856#0_1" departPos="5.10" departSpeed="0.00" departDelay="0.00" arrival="57939.00" arrivalLane="18809673#0_1" arrivalPos="473.56" arrivalSpeed="14.42" duration="172.00" routeLength="2096.90" waitingTime="8.00" waitingCount="1" stopTime="0.00" timeLoss="30.77" rerouteNo="1" devices="tripinfo_carIn106296:1 routing_carIn106296:1 emissions_carIn106296:1" vType="default_016" speedFactor="1.10" vaporized="">
        <emissions CO_abs="6041.210651" CO2_abs="464624.856226" HC_abs="38.319329" PMx_abs="7.878111" NOx_abs="184.906739" fuel_abs="199.722192" electricity_abs="0"/>
    </tripinfo>
    <tripinfo id="h3426c1:1" depart="57864.00" departLane="-160314345#2_1" departPos="5.10" departSpeed="0.00" departDelay="0.00" arrival="57939.00" arrivalLane="386687235_1" arrivalPos="80.84" arrivalSpeed="13.53" duration="75.00" routeLength="726.87" waitingTime="0.00" waitingCount="0" stopTime="0.00" timeLoss="8.86" rerouteNo="1" devices="tripinfo_h3426c1:1 routing_h3426c1:1 emissions_h3426c1:1" vType="default_016" speedFactor="1.03" vaporized="">
        <emissions CO_abs="2484.242428" CO2_abs="149563.235427" HC_abs="14.764366" PMx_abs="2.354722" NOx_abs="59.319934" fuel_abs="64.291431" electricity_abs="0"/>
    </tripinfo>
    <tripinfo id="carIn23683:1" depart="57641.00" departLane="-306240162#1_0" departPos="5.10" departSpeed="0.00" departDelay="0.20" arrival="57940.00" arrivalLane="201956820_2" arrivalPos="48.33" arrivalSpeed="13.69" duration="299.00" routeLength="2993.47" waitingTime="61.00" waitingCount="3" stopTime="0.00" timeLoss="104.96" rerouteNo="1" devices="tripinfo_carIn23683:1 routing_carIn23683:1 emissions_carIn23683:1" vType="default_016" speedFactor="1.02" vaporized="">
        <emissions CO_abs="19164.947270" CO2_abs="904403.807521" HC_abs="108.539307" PMx_abs="17.542068" NOx_abs="376.335560" fuel_abs="388.766952" electricity_abs="0"/>
    </tripinfo>
    <tripinfo id="carIn96510:1" depart="57645.00" departLane="-306240162#1_0" departPos="5.10" departSpeed="0.00" departDelay="0.20" arrival="57940.00" arrivalLane="201956820_1" arrivalPos="48.33" arrivalSpeed="15.16" duration="295.00" routeLength="2993.47" waitingTime="56.00" waitingCount="2" stopTime="0.00" timeLoss="113.72" rerouteNo="1" devices="tripinfo_carIn96510:1 routing_carIn96510:1 emissions_carIn96510:1" vType="default_016" speedFactor="1.10" vaporized="">
        <emissions CO_abs="19329.938045" CO2_abs="952530.980835" HC_abs="110.657213" PMx_abs="18.674985" NOx_abs="398.162207" fuel_abs="409.453840" electricity_abs="0"/>
    </tripinfo>
    <tripinfo id="carIn99578:1" depart="57681.00" departLane="-306240162#1_0" departPos="5.10" departSpeed="0.00" departDelay="2.00" arrival="57941.00" arrivalLane="201956820_2" arrivalPos="48.33" arrivalSpeed="15.14" duration="260.00" routeLength="2993.47" waitingTime="34.00" waitingCount="2" stopTime="0.00" timeLoss="81.23" rerouteNo="1" devices="tripinfo_carIn99578:1 routing_carIn99578:1 emissions_carIn99578:1" vType="default_016" speedFactor="1.11" vaporized="">
        <emissions CO_abs="14022.850389" CO2_abs="841760.386810" HC_abs="83.620338" PMx_abs="15.804356" NOx_abs="345.221877" fuel_abs="361.836751" electricity_abs="0"/>
    </tripinfo>
    <tripinfo id="carIn104643:1" depart="57774.00" departLane="124812856#0_1" departPos="5.10" departSpeed="0.00" departDelay="0.50" arrival="57945.00" arrivalLane="18809673#0_1" arrivalPos="473.56" arrivalSpeed="13.57" duration="171.00" routeLength="2096.90" waitingTime="3.00" waitingCount="1" stopTime="0.00" timeLoss="20.54" rerouteNo="1" devices="tripinfo_carIn104643:1 routing_carIn104643:1 emissions_carIn104643:1" vType="default_016" speedFactor="1.03" vaporized="">
        <emissions CO_abs="4257.700960" CO2_abs="395283.017165" HC_abs="28.471291" PMx_abs="5.967729" NOx_abs="152.314939" fuel_abs="169.915518" electricity_abs="0"/>
    </tripinfo>
    <tripinfo id="carIn82298:1" depart="57783.00" departLane="-447569998#1_1" departPos="5.10" departSpeed="0.00" departDelay="0.60" arrival="57948.00" arrivalLane="-315358254#1_1" arrivalPos="137.16" arrivalSpeed="12.45" duration="165.00" routeLength="1743.98" waitingTime="1.00" waitingCount="1" stopTime="0.00" timeLoss="19.38" rerouteNo="1" devices="tripinfo_carIn82298:1 routing_carIn82298:1 emissions_carIn82298:1" vType="default_016" speedFactor="0.94" vaporized="">
        <emissions CO_abs="4949.490766" CO2_abs="355816.031551" HC_abs="30.766726" PMx_abs="5.444442" NOx_abs="139.391862" fuel_abs="152.950998" electricity_abs="0"/>
    </tripinfo>
    <tripinfo id="carIn9695:1" depart="57822.00" departLane="272042143_1" departPos="5.10" departSpeed="0.00" departDelay="0.80" arrival="57952.00" arrivalLane="-315358254#1_1" arrivalPos="137.16" arrivalSpeed="12.65" duration="130.00" routeLength="1596.88" waitingTime="0.00" waitingCount="0" stopTime="0.00" timeLoss="11.72" rerouteNo="1" devices="tripinfo_carIn9695:1 routing_carIn9695:1 emissions_carIn9695:1" vType="default_016" speedFactor="0.98" vaporized="">
        <emissions CO_abs="3483.330984" CO2_abs="309866.568857" HC_abs="23.038279" PMx_abs="4.801173" NOx_abs="120.735778" fuel_abs="133.198474" electricity_abs="0"/>
    </tripinfo>
    <tripinfo id="carIn115169:1" depart="57759.00" departLane="24599188#0.94_1" departPos="5.10" departSpeed="0.00" departDelay="0.50" arrival="57961.00" arrivalLane="-10427692#3_1" arrivalPos="28.64" arrivalSpeed="21.88" duration="202.00" routeLength="2183.23" waitingTime="2.00" waitingCount="1" stopTime="0.00" timeLoss="31.46" rerouteNo="1" devices="tripinfo_carIn115169:1 routing_carIn115169:1 emissions_carIn115169:1" vType="default_016" speedFactor="0.99" vaporized="">
        <emissions CO_abs="7562.136770" CO2_abs="539217.292846" HC_abs="47.033365" PMx_abs="9.066130" NOx_abs="216.009507" fuel_abs="231.786675" electricity_abs="0"/>
    </tripinfo>
    <tripinfo id="h7032c2:3" depart="57863.00" departLane="315358244_1" departPos="5.10" departSpeed="0.00" departDelay="0.40" arrival="57961.00" arrivalLane="26677541_1" arrivalPos="152.31" arrivalSpeed="14.36" duration="98.00" routeLength="925.70" waitingTime="0.00" waitingCount="0" stopTime="0.00" timeLoss="13.25" rerouteNo="1" devices="tripinfo_h7032c2:3 routing_h7032c2:3 emissions_h7032c2:3" vType="default_016" speedFactor="1.05" vaporized="">