<?xml version="1.0" encoding="UTF-8"?>

<!-- generated on Thu Nov  4 14:09:06 2021 by Eclipse SUMO sumo Version 1.9.0
<configuration xmlns:xsi="http://www.w3.org/2001/XMLSchema-instance" xsi:noNamespaceSchemaLocation="http://sumo.dlr.de/xsd/sumoConfiguration.xsd">

    <input>
        <net-file value="/mainfs/home/bk2g18/RESCO/environments/ingolstadt21/ingolstadt21.net.xml"/>
        <route-files value="/mainfs/home/bk2g18/RESCO/environments/ingolstadt21/ingolstadt21.rou.xml"/>
    </input>

    <output>
        <tripinfo-output value="/mainfs/home/bk2g18/RESCO/logs/MPLight-tr0-ingolstadt21-21-mplight_full-pressure/tripinfo_74.xml"/>
        <tripinfo-output.write-unfinished value="true"/>
    </output>

    <time>
        <begin value="57600"/>
        <end value="61200"/>
    </time>

    <processing>
        <time-to-teleport value="-1"/>
    </processing>

    <report>
        <xml-validation value="never"/>
        <xml-validation.routes value="never"/>
        <no-warnings value="true"/>
        <no-step-log value="true"/>
    </report>

    <emissions>
        <device.emissions.probability value="1"/>
    </emissions>

    <traci_server>
        <remote-port value="47025"/>
    </traci_server>

    <random_number>
        <random value="true"/>
    </random_number>

</configuration>
-->

<tripinfos xmlns:xsi="http://www.w3.org/2001/XMLSchema-instance" xsi:noNamespaceSchemaLocation="http://sumo.dlr.de/xsd/tripinfo_file.xsd">
    <tripinfo id="h15454c2:3" depart="57612.00" departLane="24608844_1" departPos="5.10" departSpeed="0.00" departDelay="0.50" arrival="57649.00" arrivalLane="32978638#0_1" arrivalPos="49.29" arrivalSpeed="14.86" duration="37.00" routeLength="354.79" waitingTime="0.00" waitingCount="0" stopTime="0.00" timeLoss="5.91" rerouteNo="1" devices="tripinfo_h15454c2:3 routing_h15454c2:3 emissions_h15454c2:3" vType="default_016" speedFactor="1.12" vaporized="">
        <emissions CO_abs="2097.197442" CO2_abs="125406.981247" HC_abs="12.498588" PMx_abs="2.254097" NOx_abs="51.680111" fuel_abs="53.907166" electricity_abs="0"/>
    </tripinfo>
    <tripinfo id="carIn53971:1" depart="57640.00" departLane="272042143_1" departPos="5.10" departSpeed="0.00" departDelay="0.80" arrival="57695.00" arrivalLane="24634414#1_1" arrivalPos="162.19" arrivalSpeed="7.93" duration="55.00" routeLength="493.04" waitingTime="0.00" waitingCount="0" stopTime="0.00" timeLoss="7.54" rerouteNo="1" devices="tripinfo_carIn53971:1 routing_carIn53971:1 emissions_carIn53971:1" vType="default_016" speedFactor="0.97" vaporized="">
        <emissions CO_abs="2560.239038" CO2_abs="147297.723931" HC_abs="15.095924" PMx_abs="2.538933" NOx_abs="60.129578" fuel_abs="63.317307" electricity_abs="0"/>
    </tripinfo>
    <tripinfo id="carIn60260:1" depart="57606.00" departLane="315358254#0_1" departPos="5.10" departSpeed="0.00" departDelay="0.90" arrival="57708.00" arrivalLane="399835085#1_1" arrivalPos="212.23" arrivalSpeed="6.32" duration="102.00" routeLength="430.98" waitingTime="52.00" waitingCount="1" stopTime="0.00" timeLoss="62.66" rerouteNo="1" devices="tripinfo_carIn60260:1 routing_carIn60260:1 emissions_carIn60260:1" vType="default_016" speedFactor="1.17" vaporized="">
        <emissions CO_abs="10048.215479" CO2_abs="252127.646207" HC_abs="51.655217" PMx_abs="5.330888" NOx_abs="109.327891" fuel_abs="108.382771" electricity_abs="0"/>
    </tripinfo>
    <tripinfo id="h7800c1:5" depart="57696.00" departLane="-447569998#1_1" departPos="5.10" departSpeed="0.00" departDelay="0.00" arrival="57720.00" arrivalLane="-447569998#1_1" arrivalPos="180.76" arrivalSpeed="8.02" duration="24.00" routeLength="175.66" waitingTime="0.00" waitingCount="0" stopTime="0.00" timeLoss="3.31" rerouteNo="1" devices="tripinfo_h7800c1:5 routing_h7800c1:5 emissions_h7800c1:5" vType="default_016" speedFactor="1.03" vaporized="">
        <emissions CO_abs="1099.710675" CO2_abs="49414.002014" HC_abs="6.142147" PMx_abs="0.809016" NOx_abs="20.099516" fuel_abs="21.241322" electricity_abs="0"/>
    </tripinfo>
    <tripinfo id="h4538c1:1" depart="57701.00" departLane="-10427692#1_1" departPos="5.10" departSpeed="0.00" departDelay="0.00" arrival="57735.00" arrivalLane="-128361102#1_1" arrivalPos="274.68" arrivalSpeed="15.24" duration="34.00" routeLength="440.74" waitingTime="0.00" waitingCount="0" stopTime="0.00" timeLoss="5.94" rerouteNo="1" devices="tripinfo_h4538c1:1 routing_h4538c1:1 emissions_h4538c1:1" vType="default_016" speedFactor="1.15" vaporized="">
        <emissions CO_abs="1548.969756" CO2_abs="118137.720523" HC_abs="9.828818" PMx_abs="2.083514" NOx_abs="47.606121" fuel_abs="50.782195" electricity_abs="0"/>
    </tripinfo>
    <tripinfo id="h3568c1:3" depart="57656.00" departLane="266565295#5_1" departPos="5.10" departSpeed="0.00" departDelay="0.80" arrival="57739.00" arrivalLane="-24634415_1" arrivalPos="62.03" arrivalSpeed="12.29" duration="83.00" routeLength="807.40" waitingTime="0.00" waitingCount="0" stopTime="0.00" timeLoss="13.08" rerouteNo="1" devices="tripinfo_h3568c1:3 routing_h3568c1:3 emissions_h3568c1:3" vType="default_016" speedFactor="0.93" vaporized="">
        <emissions CO_abs="3379.093390" CO2_abs="212568.383019" HC_abs="20.332117" PMx_abs="3.499334" NOx_abs="85.296148" fuel_abs="91.374537" electricity_abs="0"/>
    </tripinfo>
    <tripinfo id="h317c2:1" depart="57707.00" departLane="-32978638#0_1" departPos="5.10" departSpeed="0.00" departDelay="0.10" arrival="57747.00" arrivalLane="-266565295#5_1" arrivalPos="172.76" arrivalSpeed="12.61" duration="40.00" routeLength="370.53" waitingTime="0.00" waitingCount="0" stopTime="0.00" timeLoss="10.09" rerouteNo="1" devices="tripinfo_h317c2:1 routing_h317c2:1 emissions_h317c2:1" vType="default_016" speedFactor="0.93" vaporized="">
        <emissions CO_abs="1966.449693" CO2_abs="111863.360636" HC_abs="11.576034" PMx_abs="1.978520" NOx_abs="45.863275" fuel_abs="48.085469" electricity_abs="0"/>
    </tripinfo>
    <tripinfo id="h3326c1:2" depart="57656.00" departLane="22716069#0_1" departPos="5.10" departSpeed="0.00" departDelay="0.00" arrival="57764.00" arrivalLane="24634517#13_1" arrivalPos="111.62" arrivalSpeed="13.59" duration="108.00" routeLength="1312.81" waitingTime="0.00" waitingCount="0" stopTime="0.00" timeLoss="14.73" rerouteNo="1" devices="tripinfo_h3326c1:2 routing_h3326c1:2 emissions_h3326c1:2" vType="default_016" speedFactor="1.04" vaporized="">
        <emissions CO_abs="3993.506382" CO2_abs="313468.600121" HC_abs="25.500123" PMx_abs="5.268581" NOx_abs="125.148807" fuel_abs="134.746570" electricity_abs="0"/>
    </tripinfo>
    <tripinfo id="carIn27009:1" depart="57673.00" departLane="-447569998#1_1" departPos="5.10" departSpeed="0.00" departDelay="0.50" arrival="57767.00" arrivalLane="-26677539_1" arrivalPos="152.75" arrivalSpeed="9.05" duration="94.00" routeLength="699.63" waitingTime="5.00" waitingCount="1" stopTime="0.00" timeLoss="19.18" rerouteNo="1" devices="tripinfo_carIn27009:1 routing_carIn27009:1 emissions_carIn27009:1" vType="default_015" speedFactor="1.12" vaporized="">
        <emissions CO_abs="3832.031375" CO2_abs="187718.557317" HC_abs="21.763499" PMx_abs="3.021959" NOx_abs="75.798279" fuel_abs="80.693338" electricity_abs="0"/>
    </tripinfo>
    <tripinfo id="h5979c1:5" depart="57669.00" departLane="399835085#1_1" departPos="5.10" departSpeed="0.00" departDelay="0.00" arrival="57771.00" arrivalLane="-315358254#1_1" arrivalPos="137.16" arrivalSpeed="10.52" duration="102.00" routeLength="659.33" waitingTime="0.00" waitingCount="0" stopTime="0.00" timeLoss="12.48" rerouteNo="1" devices="tripinfo_h5979c1:5 routing_h5979c1:5 emissions_h5979c1:5" vType="default_016" speedFactor="0.82" vaporized="">
        <emissions CO_abs="4175.697825" CO2_abs="175449.864799" HC_abs="23.011648" PMx_abs="2.758909" NOx_abs="70.681743" fuel_abs="75.420057" electricity_abs="0"/>
    </tripinfo>
    <tripinfo id="carIn22761:1" depart="57616.00" departLane="-306240162#1_0" departPos="5.10" departSpeed="0.00" departDelay="2.10" arrival="57772.00" arrivalLane="399835085#1_1" arrivalPos="212.23" arrivalSpeed="8.66" duration="156.00" routeLength="1093.26" waitingTime="53.00" waitingCount="2" stopTime="0.00" timeLoss="81.62" rerouteNo="1" devices="tripinfo_carIn22761:1 routing_carIn22761:1 emissions_carIn22761:1" vType="default_016" speedFactor="1.05" vaporized="">
        <emissions CO_abs="12540.111407" CO2_abs="443556.663194" HC_abs="67.612897" PMx_abs="9.250489" NOx_abs="189.604142" fuel_abs="190.668856" electricity_abs="0"/>
    </tripinfo>
    <tripinfo id="h7181c1:1" depart="57660.00" departLane="315358254#0_1" departPos="5.10" departSpeed="0.00" departDelay="0.10" arrival="57792.00" arrivalLane="306240162#0_0" arrivalPos="220.43" arrivalSpeed="14.26" duration="132.00" routeLength="932.35" waitingTime="54.00" waitingCount="2" stopTime="0.00" timeLoss="75.43" rerouteNo="1" devices="tripinfo_h7181c1:1 routing_h7181c1:1 emissions_h7181c1:1" vType="default_016" speedFactor="0.91" vaporized="">
        <emissions CO_abs="11835.673520" CO2_abs="409782.964729" HC_abs="63.472418" PMx_abs="8.509255" NOx_abs="174.433898" fuel_abs="176.151071" electricity_abs="0"/>
    </tripinfo>
    <tripinfo id="carIn107282:1" depart="57749.00" departLane="-447569998#1_1" departPos="5.10" departSpeed="0.00" departDelay="0.00" arrival="57799.00" arrivalLane="315358242#0_1" arrivalPos="165.37" arrivalSpeed="12.84" duration="50.00" routeLength="448.50" waitingTime="0.00" waitingCount="0" stopTime="0.00" timeLoss="5.18" rerouteNo="1" devices="tripinfo_carIn107282:1 routing_carIn107282:1 emissions_carIn107282:1" vType="default_016" speedFactor="0.93" vaporized="">
        <emissions CO_abs="1973.538469" CO2_abs="110980.210854" HC_abs="11.548579" PMx_abs="1.775043" NOx_abs="44.426236" fuel_abs="47.706131" electricity_abs="0"/>
    </tripinfo>
    <tripinfo id="h11737c1:1" depart="57665.00" departLane="272042143_1" departPos="5.10" departSpeed="0.00" departDelay="1.50" arrival="57807.00" arrivalLane="-315358254#1_1" arrivalPos="137.16" arrivalSpeed="12.43" duration="142.00" routeLength="1596.88" waitingTime="5.00" waitingCount="1" stopTime="0.00" timeLoss="22.12" rerouteNo="1" devices="tripinfo_h11737c1:1 routing_h11737c1:1 emissions_h11737c1:1" vType="default_016" speedFactor="0.97" vaporized="">
        <emissions CO_abs="4165.708940" CO2_abs="325697.038697" HC_abs="26.569770" PMx_abs="5.308195" NOx_abs="129.187705" fuel_abs="140.003297" electricity_abs="0"/>
    </tripinfo>
    <tripinfo id="carIn126288:1" depart="57674.00" departLane="272042143_1" departPos="5.10" departSpeed="0.00" departDelay="0.00" arrival="57812.00" arrivalLane="-315358254#1_1" arrivalPos="137.16" arrivalSpeed="12.16" duration="138.00" routeLength="1596.88" waitingTime="0.00" waitingCount="0" stopTime="0.00" timeLoss="13.65" rerouteNo="1" devices="tripinfo_carIn126288:1 routing_carIn126288:1 emissions_carIn126288:1" vType="default_016" speedFactor="0.94" vaporized="">
        <emissions CO_abs="3928.499998" CO2_abs="329289.362362" HC_abs="25.529913" PMx_abs="5.020365" NOx_abs="128.362715" fuel_abs="141.547775" electricity_abs="0"/>
    </tripinfo>
    <tripinfo id="randUni15030:1" depart="57735.00" departLane="386687232#0_1" departPos="5.10" departSpeed="0.00" departDelay="0.10" arrival="57819.00" arrivalLane="26677539_1" arrivalPos="151.98" arrivalSpeed="9.11" duration="84.00" routeLength="919.89" waitingTime="0.00" waitingCount="0" stopTime="0.00" timeLoss="12.05" rerouteNo="1" devices="tripinfo_randUni15030:1 routing_randUni15030:1 emissions_randUni15030:1" vType="random_016" speedFactor="1.16" vaporized="">
        <emissions CO_abs="3415.436792" CO2_abs="232907.293928" HC_abs="20.991635" PMx_abs="3.981262" NOx_abs="93.806208" fuel_abs="100.116998" electricity_abs="0"/>
    </tripinfo>
    <tripinfo id="carIn82278:1" depart="57702.00" departLane="-306240162#1_0" departPos="5.10" departSpeed="0.00" departDelay="0.70" arrival="57827.00" arrivalLane="399835085#1_1" arrivalPos="212.23" arrivalSpeed="7.53" duration="125.00" routeLength="1093.26" waitingTime="16.00" waitingCount="1" stopTime="0.00" timeLoss="42.02" rerouteNo="1" devices="tripinfo_carIn82278:1 routing_carIn82278:1 emissions_carIn82278:1" vType="default_016" speedFactor="0.94" vaporized="">
        <emissions CO_abs="7537.198602" CO2_abs="355969.138453" HC_abs="42.624842" PMx_abs="6.643571" NOx_abs="146.537986" fuel_abs="153.017247" electricity_abs="0"/>
    </tripinfo>
    <tripinfo id="h3864c1:3" depart="57678.00" departLane="24693977#1_1" departPos="5.10" departSpeed="0.00" departDelay="0.00" arrival="57832.00" arrivalLane="201956820_2" arrivalPos="48.33" arrivalSpeed="12.75" duration="154.00" routeLength="1574.85" waitingTime="0.00" waitingCount="0" stopTime="0.00" timeLoss="17.45" rerouteNo="1" devices="tripinfo_h3864c1:3 routing_h3864c1:3 emissions_h3864c1:3" vType="default_016" speedFactor="0.95" vaporized="">
        <emissions CO_abs="5496.344217" CO2_abs="355022.476055" HC_abs="33.312552" PMx_abs="5.960442" NOx_abs="143.310635" fuel_abs="152.609466" electricity_abs="0"/>
    </tripinfo>
    <tripinfo id="carIn80064:1" depart="57603.00" departLane="128361109#1_1" departPos="5.10" departSpeed="0.00" departDelay="0.40" arrival="57859.00" arrivalLane="-315358254#1_1" arrivalPos="137.16" arrivalSpeed="13.77" duration="256.00" routeLength="1587.97" waitingTime="139.00" waitingCount="2" stopTime="0.00" timeLoss="168.04" rerouteNo="1" devices="tripinfo_carIn80064:1 routing_carIn80064:1 emissions_carIn80064:1" vType="default_016" speedFactor="1.02" vaporized="">
        <emissions CO_abs="28696.299046" CO2_abs="839845.523847" HC_abs="150.632757" PMx_abs="18.310346" NOx_abs="362.899017" fuel_abs="361.022164" electricity_abs="0"/>
    </tripinfo>
    <tripinfo id="carIn129809:1" depart="57729.00" departLane="-447569998#1_1" departPos="5.10" departSpeed="0.00" departDelay="1.00" arrival="57873.00" arrivalLane="-315358244_2" arrivalPos="33.95" arrivalSpeed="14.98" duration="144.00" routeLength="706.49" waitingTime="74.00" waitingCount="1" stopTime="0.00" timeLoss="88.52" rerouteNo="1" devices="tripinfo_carIn129809:1 routing_carIn129809:1 emissions_carIn129809:1" vType="default_015" speedFactor="1.09" vaporized="">
        <emissions CO_abs="14395.343768" CO2_abs="370565.540424" HC_abs="74.231460" PMx_abs="7.881635" NOx_abs="160.364896" fuel_abs="159.295649" electricity_abs="0"/>
    </tripinfo>
    <tripinfo id="carIn121703:1" depart="57647.00" departLane="386687232#0_1" departPos="5.10" departSpeed="0.00" departDelay="0.30" arrival="57874.00" arrivalLane="-315358244_1" arrivalPos="33.95" arrivalSpeed="13.05" duration="227.00" routeLength="1157.39" waitingTime="129.00" waitingCount="1" stopTime="0.00" timeLoss="143.42" rerouteNo="1" devices="tripinfo_carIn121703:1 routing_carIn121703:1 emissions_carIn121703:1" vType="default_016" speedFactor="1.01" vaporized="">
        <emissions CO_abs="23850.966211" CO2_abs="580775.274425" HC_abs="122.241422" PMx_abs="12.487439" NOx_abs="251.500146" fuel_abs="249.659848" electricity_abs="0"/>
    </tripinfo>
    <tripinfo id="carIn13443:1" depart="57729.00" departLane="272042143_1" departPos="5.10" departSpeed="0.00" departDelay="0.80" arrival="57874.00" arrivalLane="399835085#1_1" arrivalPos="212.23" arrivalSpeed="8.60" duration="145.00" routeLength="1757.45" waitingTime="0.00" waitingCount="0" stopTime="0.00" timeLoss="13.44" rerouteNo="1" devices="tripinfo_carIn13443:1 routing_carIn13443:1 emissions_carIn13443:1" vType="default_016" speedFactor="1.08" vaporized="">
        <emissions CO_abs="3842.359026" CO2_abs="320848.047825" HC_abs="24.887568" PMx_abs="5.137566" NOx_abs="125.876437" fuel_abs="137.918902" electricity_abs="0"/>
    </tripinfo>
    <tripinfo id="carIn8642:1" depart="57774.00" departLane="-447569998#1_1" departPos="5.10" departSpeed="0.00" departDelay="0.90" arrival="57876.00" arrivalLane="-315358244_1" arrivalPos="33.95" arrivalSpeed="12.46" duration="102.00" routeLength="706.49" waitingTime="21.00" waitingCount="1" stopTime="0.00" timeLoss="34.84" rerouteNo="1" devices="tripinfo_carIn8642:1 routing_carIn8642:1 emissions_carIn8642:1" vType="default_016" speedFactor="0.90" vaporized="">
        <emissions CO_abs="5748.573211" CO2_abs="214429.972753" HC_abs="31.171130" PMx_abs="3.972248" NOx_abs="89.395079" fuel_abs="92.176033" electricity_abs="0"/>
    </tripinfo>
    <tripinfo id="carIn81681:1" depart="57726.00" departLane="272042143_1" departPos="5.10" departSpeed="0.00" departDelay="0.30" arrival="57880.00" arrivalLane="306240162#0_0" arrivalPos="220.43" arrivalSpeed="17.72" duration="154.00" routeLength="2246.89" waitingTime="1.00" waitingCount="1" stopTime="0.00" timeLoss="21.86" rerouteNo="1" devices="tripinfo_carIn81681:1 routing_carIn81681:1 emissions_carIn81681:1" vType="default_016" speedFactor="1.12" vaporized="">
        <emissions CO_abs="6444.711223" CO2_abs="516923.637303" HC_abs="41.502774" PMx_abs="9.545751" NOx_abs="208.831830" fuel_abs="222.201943" electricity_abs="0"/>
    </tripinfo>
    <tripinfo id="carIn53503:1" depart="57765.00" departLane="-306240162#1_0" departPos="5.10" departSpeed="0.00" departDelay="4.40" arrival="57881.00" arrivalLane="24634510#6_1" arrivalPos="76.64" arrivalSpeed="14.51" duration="116.00" routeLength="1440.47" waitingTime="0.00" waitingCount="0" stopTime="0.00" timeLoss="25.75" rerouteNo="1" devices="tripinfo_carIn53503:1 routing_carIn53503:1 emissions_carIn53503:1" vType="default_016" speedFactor="1.10" vaporized="">
        <emissions CO_abs="5770.901410" CO2_abs="395589.992745" HC_abs="35.477372" PMx_abs="7.286145" NOx_abs="162.095895" fuel_abs="170.046621" electricity_abs="0"/>
    </tripinfo>
    <tripinfo id="carIn70533:1" depart="57812.00" departLane="-447569998#1_1" departPos="5.10" departSpeed="0.00" departDelay="0.10" arrival="57883.00" arrivalLane="-315358244_1" arrivalPos="33.95" arrivalSpeed="13.95" duration="71.00" routeLength="706.49" waitingTime="5.00" waitingCount="1" stopTime="0.00" timeLoss="14.28" rerouteNo="1" devices="tripinfo_carIn70533:1 routing_carIn70533:1 emissions_carIn70533:1" vType="default_016" speedFactor="1.07" vaporized="">
        <emissions CO_abs="2569.580213" CO2_abs="170024.059194" HC_abs="15.627305" PMx_abs="2.777424" NOx_abs="67.557518" fuel_abs="73.086422" electricity_abs="0"/>
    </tripinfo>
    <tripinfo id="carIn24709:1" depart="57753.00" departLane="266565295#5_1" departPos="5.10" departSpeed="0.00" departDelay="2.50" arrival="57888.00" arrivalLane="-24634506#2_1" arrivalPos="71.32" arrivalSpeed="13.38" duration="135.00" routeLength="1534.27" waitingTime="0.00" waitingCount="0" stopTime="0.00" timeLoss="18.48" rerouteNo="1" devices="tripinfo_carIn24709:1 routing_carIn24709:1 emissions_carIn24709:1" vType="default_016" speedFactor="0.97" vaporized="">
        <emissions CO_abs="4571.259753" CO2_abs="357185.370106" HC_abs="29.154905" PMx_abs="5.879836" NOx_abs="142.307519" fuel_abs="153.538676" electricity_abs="0"/>
    </tripinfo>
    <tripinfo id="randUni23028:1" depart="57884.00" departLane="124812856#0_1" departPos="5.10" departSpeed="0.00" departDelay="0.10" arrival="57899.00" arrivalLane="201956810_1" arrivalPos="71.65" arrivalSpeed="13.82" duration="15.00" routeLength="134.91" waitingTime="0.00" waitingCount="0" stopTime="0.00" timeLoss="4.42" rerouteNo="1" devices="tripinfo_randUni23028:1 routing_randUni23028:1 emissions_randUni23028:1" vType="random_016" speedFactor="1.06" vaporized="">
        <emissions CO_abs="1302.933514" CO2_abs="67353.208473" HC_abs="7.541260" PMx_abs="1.380725" NOx_abs="29.047517" fuel_abs="28.952172" electricity_abs="0"/>
    </tripinfo>
    <tripinfo id="carIn17767:1" depart="57638.00" departLane="124812856#0_1" departPos="5.10" departSpeed="0.00" departDelay="10.80" arrival="57901.00" arrivalLane="-128361102#1_1" arrivalPos="274.68" arrivalSpeed="17.16" duration="263.00" routeLength="2232.46" waitingTime="95.00" waitingCount="1" stopTime="0.00" timeLoss="130.81" rerouteNo="1" devices="tripinfo_carIn17767:1 routing_carIn17767:1 emissions_carIn17767:1" vType="default_016" speedFactor="1.24" vaporized="">
        <emissions CO_abs="22647.773380" CO2_abs="828128.576623" HC_abs="122.550813" PMx_abs="16.671949" NOx_abs="348.298740" fuel_abs="355.982741" electricity_abs="0"/>
    </tripinfo>
    <tripinfo id="carIn107084:1" depart="57601.00" departLane="124812856#0_1" departPos="5.10" departSpeed="0.00" departDelay="0.70" arrival="57912.00" arrivalLane="-128361102#1_1" arrivalPos="274.68" arrivalSpeed="12.01" duration="311.00" routeLength="2250.49" waitingTime="94.00" waitingCount="2" stopTime="0.00" timeLoss="121.04" rerouteNo="1" devices="tripinfo_carIn107084:1 routing_carIn107084:1 emissions_carIn107084:1" vType="default_016" speedFactor="0.87" vaporized="">
        <emissions CO_abs="20362.629228" CO2_abs="702490.396283" HC_abs="109.069442" PMx_abs="13.051133" NOx_abs="291.541021" fuel_abs="301.977755" electricity_abs="0"/>
    </tripinfo>
    <tripinfo id="carIn77943:1" depart="57608.00" departLane="124812856#0_1" departPos="5.10" departSpeed="0.00" departDelay="2.50" arrival="57914.00" arrivalLane="-128361102#1_1" arrivalPos="274.68" arrivalSpeed="12.15" duration="306.00" routeLength="2250.49" waitingTime="90.00" waitingCount="2" stopTime="0.00" timeLoss="132.72" rerouteNo="1" devices="tripinfo_carIn77943:1 routing_carIn77943:1 emissions_carIn77943:1" vType="default_016" speedFactor="0.95" vaporized="">
        <emissions CO_abs="21406.023579" CO2_abs="769027.283066" HC_abs="115.503854" PMx_abs="14.853954" NOx_abs="322.917565" fuel_abs="330.578162" electricity_abs="0"/>
    </tripinfo>
    <tripinfo id="carIn63848:1" depart="57841.00" departLane="-447569998#1_1" departPos="5.10" departSpeed="0.00" departDelay="0.80" arrival="57915.00" arrivalLane="-315358244_2" arrivalPos="33.95" arrivalSpeed="14.81" duration="74.00" routeLength="706.49" waitingTime="0.00" waitingCount="0" stopTime="0.00" timeLoss="19.51" rerouteNo="1" devices="tripinfo_carIn63848:1 routing_carIn63848:1 emissions_carIn63848:1" vType="default_016" speedFactor="1.12" vaporized="">
        <emissions CO_abs="3309.944753" CO2_abs="176087.833094" HC_abs="19.168805" PMx_abs="2.965698" NOx_abs="70.891941" fuel_abs="75.693381" electricity_abs="0"/>
    </tripinfo>
    <tripinfo id="carIn81046:1" depart="57611.00" departLane="124812856#0_1" departPos="5.10" departSpeed="0.00" departDelay="2.50" arrival="57916.00" arrivalLane="-128361102#1_1" arrivalPos="274.68" arrivalSpeed="11.99" duration="305.00" routeLength="2250.49" waitingTime="88.00" waitingCount="2" stopTime="0.00" timeLoss="132.54" rerouteNo="1" devices="tripinfo_carIn81046:1 routing_carIn81046:1 emissions_carIn81046:1" vType="default_016" speedFactor="0.96" vaporized="">
        <emissions CO_abs="21335.368009" CO2_abs="798024.175508" HC_abs="115.888929" PMx_abs="15.418284" NOx_abs="335.171566" fuel_abs="343.042158" electricity_abs="0"/>
    </tripinfo>
    <tripinfo id="carIn77438:1" depart="57614.00" departLane="124812856#0_1" departPos="5.10" departSpeed="0.00" departDelay="1.10" arrival="57917.00" arrivalLane="-128361102#1_1" arrivalPos="274.68" arrivalSpeed="13.00" duration="303.00" routeLength="2250.49" waitingTime="86.00" waitingCount="2" stopTime="0.00" timeLoss="137.71" rerouteNo="1" devices="tripinfo_carIn77438:1 routing_carIn77438:1 emissions_carIn77438:1" vType="default_016" speedFactor="0.99" vaporized="">
        <emissions CO_abs="21830.976462" CO2_abs="814400.972558" HC_abs="118.564259" PMx_abs="15.933223" NOx_abs="343.374008" fuel_abs="350.081701" electricity_abs="0"/>
    </tripinfo>
    <tripinfo id="h17600c1:1" depart="57662.00" departLane="272042143_1" departPos="5.10" departSpeed="0.00" departDelay="0.30" arrival="57917.00" arrivalLane="201238729#3_1" arrivalPos="431.02" arrivalSpeed="16.05" duration="255.00" routeLength="2100.26" waitingTime="108.00" waitingCount="1" stopTime="0.00" timeLoss="124.97" rerouteNo="1" devices="tripinfo_h17600c1:1 routing_h17600c1:1 emissions_h17600c1:1" vType="default_016" speedFactor="1.17" vaporized="">
        <emissions CO_abs="20871.824176" CO2_abs="684345.140279" HC_abs="110.930288" PMx_abs="13.478314" NOx_abs="284.357293" fuel_abs="294.177854" electricity_abs="0"/>
    </tripinfo>
    <tripinfo id="h19804c1:3" depart="57617.00" departLane="124812856#0_1" departPos="5.10" departSpeed="0.00" departDelay="1.50" arrival="57920.00" arrivalLane="-128361102#1_1" arrivalPos="274.68" arrivalSpeed="12.19" duration="303.00" routeLength="2250.49" waitingTime="85.00" waitingCount="2" stopTime="0.00" timeLoss="117.93" rerouteNo="1" devices="tripinfo_h19804c1:3 routing_h19804c1:3 emissions_h19804c1:3" vType="default_016" speedFactor="0.89" vaporized="">
        <emissions CO_abs="19699.166360" CO2_abs="719369.475976" HC_abs="106.481708" PMx_abs="13.381820" NOx_abs="298.525991" fuel_abs="309.232523" electricity_abs="0"/>
    </tripinfo>
    <tripinfo id="carIn132499:1" depart="57740.00" departLane="272042143_1" departPos="5.10" departSpeed="0.00" departDelay="0.70" arrival="57920.00" arrivalLane="201238729#3_1" arrivalPos="431.02" arrivalSpeed="13.43" duration="180.00" routeLength="2100.26" waitingTime="14.00" waitingCount="1" stopTime="0.00" timeLoss="35.13" rerouteNo="1" devices="tripinfo_carIn132499:1 routing_carIn132499:1 emissions_carIn132499:1" vType="default_016" speedFactor="1.05" vaporized="">
        <emissions CO_abs="6085.518753" CO2_abs="418855.445627" HC_abs="37.447225" PMx_abs="6.914079" NOx_abs="165.612095" fuel_abs="180.048725" electricity_abs="0"/>
    </tripinfo>
    <tripinfo id="carIn107842:1" depart="57623.00" departLane="124812856#0_1" departPos="5.10" departSpeed="0.00" departDelay="1.90" arrival="57921.00" arrivalLane="-128361102#1_1" arrivalPos="274.68" arrivalSpeed="13.26" duration="298.00" routeLength="2250.49" waitingTime="85.00" waitingCount="2" stopTime="0.00" timeLoss="134.47" rerouteNo="1" devices="tripinfo_carIn107842:1 routing_carIn107842:1 emissions_carIn107842:1" vType="default_016" speedFactor="1.00" vaporized="">
        <emissions CO_abs="21636.050809" CO2_abs="838008.616515" HC_abs="118.233353" PMx_abs="16.251968" NOx_abs="352.197230" fuel_abs="360.229310" electricity_abs="0"/>
    </tripinfo>
    <tripinfo id="h15382c1:3" depart="57626.00" departLane="124812856#0_1" departPos="5.10" departSpeed="0.00" departDelay="3.80" arrival="57923.00" arrivalLane="-128361102#1_1" arrivalPos="274.68" arrivalSpeed="13.62" duration="297.00" routeLength="2250.49" waitingTime="87.00" waitingCount="3" stopTime="0.00" timeLoss="135.33" rerouteNo="1" devices="tripinfo_h15382c1:3 routing_h15382c1:3 emissions_h15382c1:3" vType="default_016" speedFactor="1.02" vaporized="">
        <emissions CO_abs="20453.413962" CO2_abs="755458.608163" HC_abs="110.880728" PMx_abs="14.789740" NOx_abs="317.882240" fuel_abs="324.744723" electricity_abs="0"/>
    </tripinfo>
    <tripinfo id="carIn14532:1" depart="57743.00" departLane="272042143_1" departPos="5.10" departSpeed="0.00" departDelay="1.90" arrival="57923.00" arrivalLane="399835085#1_1" arrivalPos="212.23" arrivalSpeed="6.00" duration="180.00" routeLength="1757.45" waitingTime="0.00" waitingCount="0" stopTime="0.00" timeLoss="14.93" rerouteNo="1" devices="tripinfo_carIn14532:1 routing_carIn14532:1 emissions_carIn14532:1" vType="default_016" speedFactor="0.86" vaporized="">
        <emissions CO_abs="4902.569600" CO2_abs="343414.614931" HC_abs="30.202086" PMx_abs="4.975029" NOx_abs="133.250320" fuel_abs="147.620609" electricity_abs="0"/>
    </tripinfo>
    <tripinfo id="carIn3969:1" depart="57629.00" departLane="124812856#0_1" departPos="5.10" departSpeed="0.00" departDelay="5.30" arrival="57925.00" arrivalLane="-128361102#1_1" arrivalPos="274.68" arrivalSpeed="13.81" duration="296.00" routeLength="2250.49" waitingTime="86.00" waitingCount="3" stopTime="0.00" timeLoss="132.15" rerouteNo="1" devices="tripinfo_carIn3969:1 routing_carIn3969:1 emissions_carIn3969:1" vType="default_016" speedFactor="1.00" vaporized="">
        <emissions CO_abs="20109.738325" CO2_abs="755549.284438" HC_abs="109.330360" PMx_abs="14.653367" NOx_abs="317.045429" fuel_abs="324.783620" electricity_abs="0"/>
    </tripinfo>
    <tripinfo id="carIn56649:1" depart="57632.00" departLane="124812856#0_1" departPos="5.10" departSpeed="0.00" departDelay="8.10" arrival="57926.00" arrivalLane="-128361102#1_1" arrivalPos="274.68" arrivalSpeed="13.55" duration="294.00" routeLength="2250.49" waitingTime="83.00" waitingCount="3" stopTime="0.00" timeLoss="132.02" rerouteNo="1" devices="tripinfo_carIn56649:1 routing_carIn56649:1 emissions_carIn56649:1" vType="default_016" speedFactor="1.01" vaporized="">
        <emissions CO_abs="19831.497186" CO2_abs="761117.074614" HC_abs="108.196990" PMx_abs="14.721040" NOx_abs="319.075388" fuel_abs="327.176715" electricity_abs="0"/>
    </tripinfo>
    <tripinfo id="carIn13353:1" depart="57838.00" departLane="-447569998#1_1" departPos="5.10" departSpeed="0.00" departDelay="0.30" arrival="57931.00" arrivalLane="-315358244_1" arrivalPos="33.95" arrivalSpeed="9.99" duration="93.00" routeLength="706.49" waitingTime="0.00" waitingCount="0" stopTime="0.00" timeLoss="9.58" rerouteNo="1" devices="tripinfo_carIn13353:1 routing_carIn13353:1 emissions_carIn13353:1" vType="default_016" speedFactor="0.73" vaporized="">
        <emissions CO_abs="3293.994610" CO2_abs="159814.666312" HC_abs="18.648218" PMx_abs="2.448673" NOx_abs="63.670333" fuel_abs="68.698699" electricity_abs="0"/>
    </tripinfo>
    <tripinfo id="carIn80913:1" depart="57732.00" departLane="272042143_1" departPos="5.10" departSpeed="0.00" departDelay="0.40" arrival="57944.00" arrivalLane="306240162#0_0" arrivalPos="220.43" arrivalSpeed="12.73" duration="212.00" routeLength="2246.89" waitingTime="8.00" waitingCount="1" stopTime="0.00" timeLoss="30.52" rerouteNo="1" devices="tripinfo_carIn80913:1 routing_carIn80913:1 emissions_carIn80913:1" vType="default_016" speedFactor="0.81" vaporized="">