<?xml version="1.0" encoding="UTF-8"?>

<!-- generated on Thu Nov  4 13:43:06 2021 by Eclipse SUMO sumo Version 1.9.0
<configuration xmlns:xsi="http://www.w3.org/2001/XMLSchema-instance" xsi:noNamespaceSchemaLocation="http://sumo.dlr.de/xsd/sumoConfiguration.xsd">

    <input>
        <net-file value="/mainfs/home/bk2g18/RESCO/environments/ingolstadt21/ingolstadt21.net.xml"/>
        <route-files value="/mainfs/home/bk2g18/RESCO/environments/ingolstadt21/ingolstadt21.rou.xml"/>
    </input>

    <output>
        <tripinfo-output value="/mainfs/home/bk2g18/RESCO/logs/MPLight-tr0-ingolstadt21-21-mplight_full-pressure/tripinfo_43.xml"/>
        <tripinfo-output.write-unfinished value="true"/>
    </output>

    <time>
        <begin value="57600"/>
        <end value="61200"/>
    </time>

    <processing>
        <time-to-teleport value="-1"/>
    </processing>

    <report>
        <xml-validation value="never"/>
        <xml-validation.routes value="never"/>
        <no-warnings value="true"/>
        <no-step-log value="true"/>
    </report>

    <emissions>
        <device.emissions.probability value="1"/>
    </emissions>

    <traci_server>
        <remote-port value="52012"/>
    </traci_server>

    <random_number>
        <random value="true"/>
    </random_number>

</configuration>
-->

<tripinfos xmlns:xsi="http://www.w3.org/2001/XMLSchema-instance" xsi:noNamespaceSchemaLocation="http://sumo.dlr.de/xsd/tripinfo_file.xsd">
    <tripinfo id="h15454c2:3" depart="57612.00" departLane="24608844_1" departPos="5.10" departSpeed="0.00" departDelay="0.50" arrival="57657.00" arrivalLane="32978638#0_1" arrivalPos="49.29" arrivalSpeed="11.12" duration="45.00" routeLength="354.79" waitingTime="0.00" waitingCount="0" stopTime="0.00" timeLoss="6.19" rerouteNo="1" devices="tripinfo_h15454c2:3 routing_h15454c2:3 emissions_h15454c2:3" vType="default_016" speedFactor="0.89" vaporized="">
        <emissions CO_abs="1948.489858" CO2_abs="97456.561821" HC_abs="11.119400" PMx_abs="1.595047" NOx_abs="39.467544" fuel_abs="41.892940" electricity_abs="0"/>
    </tripinfo>
    <tripinfo id="carIn60260:1" depart="57606.00" departLane="315358254#0_1" departPos="5.10" departSpeed="0.00" departDelay="0.90" arrival="57665.00" arrivalLane="399835085#1_1" arrivalPos="212.23" arrivalSpeed="7.34" duration="59.00" routeLength="430.98" waitingTime="0.00" waitingCount="0" stopTime="0.00" timeLoss="8.91" rerouteNo="1" devices="tripinfo_carIn60260:1 routing_carIn60260:1 emissions_carIn60260:1" vType="default_016" speedFactor="0.93" vaporized="">
        <emissions CO_abs="2525.166263" CO2_abs="117876.511002" HC_abs="14.207035" PMx_abs="1.918374" NOx_abs="47.786642" fuel_abs="50.670862" electricity_abs="0"/>
    </tripinfo>
    <tripinfo id="carIn53971:1" depart="57640.00" departLane="272042143_1" departPos="5.10" departSpeed="0.00" departDelay="0.80" arrival="57687.00" arrivalLane="24634414#1_1" arrivalPos="162.19" arrivalSpeed="10.23" duration="47.00" routeLength="493.04" waitingTime="0.00" waitingCount="0" stopTime="0.00" timeLoss="10.04" rerouteNo="1" devices="tripinfo_carIn53971:1 routing_carIn53971:1 emissions_carIn53971:1" vType="default_016" speedFactor="1.26" vaporized="">
        <emissions CO_abs="2687.459894" CO2_abs="166932.166637" HC_abs="16.142612" PMx_abs="3.060146" NOx_abs="68.916463" fuel_abs="71.756929" electricity_abs="0"/>
    </tripinfo>
    <tripinfo id="carIn80064:1" depart="57603.00" departLane="128361109#1_1" departPos="5.10" departSpeed="0.00" departDelay="0.40" arrival="57718.00" arrivalLane="-315358254#1_1" arrivalPos="137.16" arrivalSpeed="14.83" duration="115.00" routeLength="1587.97" waitingTime="6.00" waitingCount="1" stopTime="0.00" timeLoss="37.62" rerouteNo="1" devices="tripinfo_carIn80064:1 routing_carIn80064:1 emissions_carIn80064:1" vType="default_016" speedFactor="1.16" vaporized="">
        <emissions CO_abs="7629.870143" CO2_abs="515459.914154" HC_abs="47.039586" PMx_abs="10.348402" NOx_abs="213.583787" fuel_abs="221.572529" electricity_abs="0"/>
    </tripinfo>
    <tripinfo id="h7800c1:5" depart="57696.00" departLane="-447569998#1_1" departPos="5.10" departSpeed="0.00" departDelay="0.00" arrival="57725.00" arrivalLane="-447569998#1_2" arrivalPos="180.76" arrivalSpeed="4.19" duration="29.00" routeLength="175.66" waitingTime="2.00" waitingCount="1" stopTime="0.00" timeLoss="8.54" rerouteNo="1" devices="tripinfo_h7800c1:5 routing_h7800c1:5 emissions_h7800c1:5" vType="default_016" speedFactor="1.04" vaporized="">
        <emissions CO_abs="1284.170964" CO2_abs="53089.440157" HC_abs="7.069212" PMx_abs="0.900841" NOx_abs="21.814493" fuel_abs="22.821300" electricity_abs="0"/>
    </tripinfo>
    <tripinfo id="h4538c1:1" depart="57701.00" departLane="-10427692#1_1" departPos="5.10" departSpeed="0.00" departDelay="0.00" arrival="57739.00" arrivalLane="-128361102#1_1" arrivalPos="274.68" arrivalSpeed="13.28" duration="38.00" routeLength="440.74" waitingTime="0.00" waitingCount="0" stopTime="0.00" timeLoss="6.78" rerouteNo="1" devices="tripinfo_h4538c1:1 routing_h4538c1:1 emissions_h4538c1:1" vType="default_016" speedFactor="1.03" vaporized="">
        <emissions CO_abs="1587.915586" CO2_abs="102173.805140" HC_abs="9.638245" PMx_abs="1.823729" NOx_abs="41.773063" fuel_abs="43.920147" electricity_abs="0"/>
    </tripinfo>
    <tripinfo id="h3568c1:3" depart="57656.00" departLane="266565295#5_1" departPos="5.10" departSpeed="0.00" departDelay="0.80" arrival="57751.00" arrivalLane="-24634415_1" arrivalPos="62.03" arrivalSpeed="11.36" duration="95.00" routeLength="807.40" waitingTime="0.00" waitingCount="0" stopTime="0.00" timeLoss="18.37" rerouteNo="1" devices="tripinfo_h3568c1:3 routing_h3568c1:3 emissions_h3568c1:3" vType="default_016" speedFactor="0.85" vaporized="">
        <emissions CO_abs="4305.089232" CO2_abs="229505.222000" HC_abs="24.964645" PMx_abs="4.054114" NOx_abs="94.615536" fuel_abs="98.655061" electricity_abs="0"/>
    </tripinfo>
    <tripinfo id="h7181c1:1" depart="57660.00" departLane="315358254#0_1" departPos="5.10" departSpeed="0.00" departDelay="0.10" arrival="57751.00" arrivalLane="306240162#0_0" arrivalPos="220.43" arrivalSpeed="15.25" duration="91.00" routeLength="932.35" waitingTime="11.00" waitingCount="2" stopTime="0.00" timeLoss="35.98" rerouteNo="1" devices="tripinfo_h7181c1:1 routing_h7181c1:1 emissions_h7181c1:1" vType="default_016" speedFactor="0.94" vaporized="">
        <emissions CO_abs="4518.528861" CO2_abs="279276.790789" HC_abs="27.187711" PMx_abs="5.340432" NOx_abs="115.838511" fuel_abs="120.048810" electricity_abs="0"/>
    </tripinfo>
    <tripinfo id="carIn121703:1" depart="57647.00" departLane="386687232#0_1" departPos="5.10" departSpeed="0.00" departDelay="0.30" arrival="57763.00" arrivalLane="-315358244_1" arrivalPos="33.95" arrivalSpeed="10.66" duration="116.00" routeLength="1157.39" waitingTime="2.00" waitingCount="1" stopTime="0.00" timeLoss="17.58" rerouteNo="1" devices="tripinfo_carIn121703:1 routing_carIn121703:1 emissions_carIn121703:1" vType="default_016" speedFactor="0.86" vaporized="">
        <emissions CO_abs="3715.842534" CO2_abs="244825.498126" HC_abs="22.607216" PMx_abs="3.960723" NOx_abs="97.836397" fuel_abs="105.240514" electricity_abs="0"/>
    </tripinfo>
    <tripinfo id="h3326c1:2" depart="57656.00" departLane="22716069#0_1" departPos="5.10" departSpeed="0.00" departDelay="0.00" arrival="57763.00" arrivalLane="24634517#13_1" arrivalPos="111.62" arrivalSpeed="14.46" duration="107.00" routeLength="1312.81" waitingTime="0.00" waitingCount="0" stopTime="0.00" timeLoss="15.80" rerouteNo="1" devices="tripinfo_h3326c1:2 routing_h3326c1:2 emissions_h3326c1:2" vType="default_016" speedFactor="1.06" vaporized="">
        <emissions CO_abs="4117.056617" CO2_abs="313901.018570" HC_abs="26.078880" PMx_abs="5.416087" NOx_abs="126.394807" fuel_abs="134.932315" electricity_abs="0"/>
    </tripinfo>
    <tripinfo id="h5979c1:5" depart="57669.00" departLane="399835085#1_1" departPos="5.10" departSpeed="0.00" departDelay="0.00" arrival="57769.00" arrivalLane="-315358254#1_1" arrivalPos="137.16" arrivalSpeed="12.10" duration="100.00" routeLength="659.33" waitingTime="4.00" waitingCount="1" stopTime="0.00" timeLoss="17.32" rerouteNo="1" devices="tripinfo_h5979c1:5 routing_h5979c1:5 emissions_h5979c1:5" vType="default_016" speedFactor="0.89" vaporized="">
        <emissions CO_abs="3977.621357" CO2_abs="173820.840518" HC_abs="22.088405" PMx_abs="2.780902" NOx_abs="70.216905" fuel_abs="74.719597" electricity_abs="0"/>
    </tripinfo>
    <tripinfo id="h9563c2:5" depart="57631.00" departLane="315358244_1" departPos="5.10" departSpeed="0.00" departDelay="0.70" arrival="57772.00" arrivalLane="386687235_1" arrivalPos="80.84" arrivalSpeed="15.57" duration="141.00" routeLength="1186.14" waitingTime="34.00" waitingCount="3" stopTime="0.00" timeLoss="68.02" rerouteNo="1" devices="tripinfo_h9563c2:5 routing_h9563c2:5 emissions_h9563c2:5" vType="default_016" speedFactor="1.18" vaporized="">
        <emissions CO_abs="8467.831839" CO2_abs="362268.989753" HC_abs="46.945685" PMx_abs="6.898832" NOx_abs="150.072941" fuel_abs="155.725761" electricity_abs="0"/>
    </tripinfo>
    <tripinfo id="S5R_frequency1.2" depart="57612.00" departLane="315358250#0_1" departPos="12.10" departSpeed="0.00" departDelay="0.40" arrival="57780.00" arrivalLane="386687235_1" arrivalPos="80.84" arrivalSpeed="13.75" duration="168.00" routeLength="1115.62" waitingTime="58.00" waitingCount="2" stopTime="0.00" timeLoss="86.06" rerouteNo="1" devices="tripinfo_S5R_frequency1.2 routing_S5R_frequency1.2 emissions_S5R_frequency1.2" vType="bus" speedFactor="1.00" vaporized="">
        <emissions CO_abs="3254.895565" CO2_abs="1636189.875158" HC_abs="713.951644" PMx_abs="340.040679" NOx_abs="13784.316421" fuel_abs="697.685479" electricity_abs="0"/>
    </tripinfo>
    <tripinfo id="carIn28951:1" depart="57606.00" departLane="10425609#0_1" departPos="5.10" departSpeed="0.00" departDelay="0.20" arrival="57781.00" arrivalLane="-128361102#1_1" arrivalPos="274.68" arrivalSpeed="15.56" duration="175.00" routeLength="2113.04" waitingTime="6.00" waitingCount="2" stopTime="0.00" timeLoss="36.56" rerouteNo="1" devices="tripinfo_carIn28951:1 routing_carIn28951:1 emissions_carIn28951:1" vType="default_016" speedFactor="1.12" vaporized="">
        <emissions CO_abs="6248.331977" CO2_abs="499604.073994" HC_abs="39.888929" PMx_abs="8.467612" NOx_abs="198.673853" fuel_abs="214.758019" electricity_abs="0"/>
    </tripinfo>
    <tripinfo id="h3688c1:1" depart="57625.00" departLane="201201950#1_1" departPos="5.10" departSpeed="0.00" departDelay="0.00" arrival="57786.00" arrivalLane="32978638#0_1" arrivalPos="49.29" arrivalSpeed="11.39" duration="161.00" routeLength="1089.75" waitingTime="58.00" waitingCount="1" stopTime="0.00" timeLoss="72.24" rerouteNo="1" devices="tripinfo_h3688c1:1 routing_h3688c1:1 emissions_h3688c1:1" vType="default_016" speedFactor="0.90" vaporized="">
        <emissions CO_abs="12182.264378" CO2_abs="389109.523862" HC_abs="64.533603" PMx_abs="7.390149" NOx_abs="162.331206" fuel_abs="167.266066" electricity_abs="0"/>
    </tripinfo>
    <tripinfo id="carIn27009:1" depart="57673.00" departLane="-447569998#1_1" departPos="5.10" departSpeed="0.00" departDelay="0.50" arrival="57793.00" arrivalLane="-26677539_1" arrivalPos="152.75" arrivalSpeed="8.20" duration="120.00" routeLength="699.63" waitingTime="23.00" waitingCount="1" stopTime="0.00" timeLoss="38.62" rerouteNo="1" devices="tripinfo_carIn27009:1 routing_carIn27009:1 emissions_carIn27009:1" vType="default_015" speedFactor="1.03" vaporized="">
        <emissions CO_abs="6836.619183" CO2_abs="230377.511122" HC_abs="36.451366" PMx_abs="4.191034" NOx_abs="96.254898" fuel_abs="99.031938" electricity_abs="0"/>
    </tripinfo>
    <tripinfo id="h317c2:1" depart="57707.00" departLane="-32978638#0_1" departPos="5.10" departSpeed="0.00" departDelay="0.10" arrival="57798.00" arrivalLane="-266565295#5_1" arrivalPos="172.76" arrivalSpeed="11.00" duration="91.00" routeLength="370.53" waitingTime="50.00" waitingCount="1" stopTime="0.00" timeLoss="59.47" rerouteNo="1" devices="tripinfo_h317c2:1 routing_h317c2:1 emissions_h317c2:1" vType="default_016" speedFactor="0.88" vaporized="">
        <emissions CO_abs="9351.938356" CO2_abs="225925.337726" HC_abs="47.870441" PMx_abs="4.816915" NOx_abs="98.100974" fuel_abs="97.119366" electricity_abs="0"/>
    </tripinfo>
    <tripinfo id="carIn107282:1" depart="57749.00" departLane="-447569998#1_1" departPos="5.10" departSpeed="0.00" departDelay="0.00" arrival="57799.00" arrivalLane="315358242#0_1" arrivalPos="165.37" arrivalSpeed="12.21" duration="50.00" routeLength="448.50" waitingTime="0.00" waitingCount="0" stopTime="0.00" timeLoss="5.63" rerouteNo="1" devices="tripinfo_carIn107282:1 routing_carIn107282:1 emissions_carIn107282:1" vType="default_016" speedFactor="0.95" vaporized="">
        <emissions CO_abs="1942.796782" CO2_abs="107808.527671" HC_abs="11.337157" PMx_abs="1.738030" NOx_abs="43.250496" fuel_abs="46.342747" electricity_abs="0"/>
    </tripinfo>
    <tripinfo id="h330c1:1" depart="57736.00" departLane="-32978638#0_1" departPos="5.10" departSpeed="0.00" departDelay="0.20" arrival="57800.00" arrivalLane="-266565295#5_1" arrivalPos="172.76" arrivalSpeed="13.43" duration="64.00" routeLength="370.53" waitingTime="23.00" waitingCount="1" stopTime="0.00" timeLoss="35.26" rerouteNo="1" devices="tripinfo_h330c1:1 routing_h330c1:1 emissions_h330c1:1" vType="default_016" speedFactor="0.99" vaporized="">
        <emissions CO_abs="5587.732379" CO2_abs="186539.838311" HC_abs="29.826681" PMx_abs="3.731736" NOx_abs="79.400006" fuel_abs="80.187125" electricity_abs="0"/>
    </tripinfo>
    <tripinfo id="h645c1:1" depart="57622.00" departLane="266565295#5_1" departPos="5.10" departSpeed="0.00" departDelay="0.40" arrival="57804.00" arrivalLane="-315358244_1" arrivalPos="33.95" arrivalSpeed="13.70" duration="182.00" routeLength="1910.83" waitingTime="20.00" waitingCount="2" stopTime="0.00" timeLoss="41.54" rerouteNo="1" devices="tripinfo_h645c1:1 routing_h645c1:1 emissions_h645c1:1" vType="default_016" speedFactor="0.99" vaporized="">
        <emissions CO_abs="6612.893977" CO2_abs="398054.990140" HC_abs="39.380748" PMx_abs="6.545090" NOx_abs="158.010082" fuel_abs="171.108143" electricity_abs="0"/>
    </tripinfo>
    <tripinfo id="carIn107084:1" depart="57601.00" departLane="124812856#0_1" departPos="5.10" departSpeed="0.00" departDelay="0.70" arrival="57805.00" arrivalLane="-128361102#1_1" arrivalPos="274.68" arrivalSpeed="13.98" duration="204.00" routeLength="2250.49" waitingTime="13.00" waitingCount="2" stopTime="0.00" timeLoss="46.13" rerouteNo="1" devices="tripinfo_carIn107084:1 routing_carIn107084:1 emissions_carIn107084:1" vType="default_016" speedFactor="1.04" vaporized="">
        <emissions CO_abs="7656.210214" CO2_abs="543312.036397" HC_abs="47.474878" PMx_abs="9.220739" NOx_abs="217.869631" fuel_abs="233.546747" electricity_abs="0"/>
    </tripinfo>
    <tripinfo id="carIn129809:1" depart="57729.00" departLane="-447569998#1_1" departPos="5.10" departSpeed="0.00" departDelay="1.00" arrival="57808.00" arrivalLane="-315358244_1" arrivalPos="33.95" arrivalSpeed="12.98" duration="79.00" routeLength="706.49" waitingTime="8.00" waitingCount="1" stopTime="0.00" timeLoss="18.57" rerouteNo="1" devices="tripinfo_carIn129809:1 routing_carIn129809:1 emissions_carIn129809:1" vType="default_015" speedFactor="1.00" vaporized="">
        <emissions CO_abs="2699.900360" CO2_abs="161188.325534" HC_abs="16.001014" PMx_abs="2.590876" NOx_abs="64.008582" fuel_abs="69.288567" electricity_abs="0"/>
    </tripinfo>
    <tripinfo id="h17600c1:1" depart="57662.00" departLane="272042143_1" departPos="5.10" departSpeed="0.00" departDelay="0.30" arrival="57822.00" arrivalLane="201238729#3_1" arrivalPos="431.02" arrivalSpeed="13.90" duration="160.00" routeLength="2100.26" waitingTime="0.00" waitingCount="0" stopTime="0.00" timeLoss="11.38" rerouteNo="1" devices="tripinfo_h17600c1:1 routing_h17600c1:1 emissions_h17600c1:1" vType="default_016" speedFactor="1.02" vaporized="">
        <emissions CO_abs="3399.131926" CO2_abs="348750.270713" HC_abs="23.549347" PMx_abs="5.278759" NOx_abs="134.193551" fuel_abs="149.912761" electricity_abs="0"/>
    </tripinfo>
    <tripinfo id="carIn22761:1" depart="57616.00" departLane="-306240162#1_0" departPos="5.10" departSpeed="0.00" departDelay="2.10" arrival="57833.00" arrivalLane="399835085#1_1" arrivalPos="212.23" arrivalSpeed="7.88" duration="217.00" routeLength="1093.26" waitingTime="113.00" waitingCount="2" stopTime="0.00" timeLoss="140.77" rerouteNo="1" devices="tripinfo_carIn22761:1 routing_carIn22761:1 emissions_carIn22761:1" vType="default_016" speedFactor="1.02" vaporized="">
        <emissions CO_abs="22522.843329" CO2_abs="619243.967513" HC_abs="117.159445" PMx_abs="13.370157" NOx_abs="267.785562" fuel_abs="266.194010" electricity_abs="0"/>
    </tripinfo>
    <tripinfo id="randUni15030:1" depart="57735.00" departLane="386687232#0_1" departPos="5.10" departSpeed="0.00" departDelay="0.10" arrival="57834.00" arrivalLane="26677539_1" arrivalPos="151.98" arrivalSpeed="7.48" duration="99.00" routeLength="919.89" waitingTime="0.00" waitingCount="0" stopTime="0.00" timeLoss="11.63" rerouteNo="1" devices="tripinfo_randUni15030:1 routing_randUni15030:1 emissions_randUni15030:1" vType="random_016" speedFactor="0.96" vaporized="">
        <emissions CO_abs="3638.615077" CO2_abs="214053.442661" HC_abs="21.507763" PMx_abs="3.375742" NOx_abs="85.256961" fuel_abs="92.013298" electricity_abs="0"/>
    </tripinfo>
    <tripinfo id="carIn82278:1" depart="57702.00" departLane="-306240162#1_0" departPos="5.10" departSpeed="0.00" departDelay="0.70" arrival="57837.00" arrivalLane="399835085#1_1" arrivalPos="212.23" arrivalSpeed="8.07" duration="135.00" routeLength="1093.26" waitingTime="34.00" waitingCount="1" stopTime="0.00" timeLoss="55.62" rerouteNo="1" devices="tripinfo_carIn82278:1 routing_carIn82278:1 emissions_carIn82278:1" vType="default_016" speedFactor="0.98" vaporized="">
        <emissions CO_abs="9540.059390" CO2_abs="373240.056267" HC_abs="52.241083" PMx_abs="7.450619" NOx_abs="157.794237" fuel_abs="160.441908" electricity_abs="0"/>
    </tripinfo>
    <tripinfo id="h3864c1:3" depart="57678.00" departLane="24693977#1_1" departPos="5.10" departSpeed="0.00" departDelay="0.00" arrival="57841.00" arrivalLane="201956820_1" arrivalPos="48.33" arrivalSpeed="13.71" duration="163.00" routeLength="1574.85" waitingTime="9.00" waitingCount="1" stopTime="0.00" timeLoss="35.03" rerouteNo="1" devices="tripinfo_h3864c1:3 routing_h3864c1:3 emissions_h3864c1:3" vType="default_016" speedFactor="1.01" vaporized="">
        <emissions CO_abs="6662.968265" CO2_abs="409179.418762" HC_abs="39.904659" PMx_abs="7.091764" NOx_abs="166.255200" fuel_abs="175.889268" electricity_abs="0"/>
    </tripinfo>
    <tripinfo id="carIn50326:1" depart="57651.00" departLane="128361102#0_1" departPos="5.10" departSpeed="0.00" departDelay="0.30" arrival="57847.00" arrivalLane="18809673#0_1" arrivalPos="473.56" arrivalSpeed="14.68" duration="196.00" routeLength="1591.07" waitingTime="52.00" waitingCount="2" stopTime="0.00" timeLoss="79.58" rerouteNo="1" devices="tripinfo_carIn50326:1 routing_carIn50326:1 emissions_carIn50326:1" vType="default_016" speedFactor="1.11" vaporized="">
        <emissions CO_abs="12730.124370" CO2_abs="492352.812216" HC_abs="69.389896" PMx_abs="9.343622" NOx_abs="204.559928" fuel_abs="211.644911" electricity_abs="0"/>
    </tripinfo>
    <tripinfo id="h11737c1:1" depart="57665.00" departLane="272042143_1" departPos="5.10" departSpeed="0.00" departDelay="1.50" arrival="57848.00" arrivalLane="-315358254#1_1" arrivalPos="137.16" arrivalSpeed="11.90" duration="183.00" routeLength="1596.88" waitingTime="36.00" waitingCount="1" stopTime="0.00" timeLoss="52.28" rerouteNo="1" devices="tripinfo_h11737c1:1 routing_h11737c1:1 emissions_h11737c1:1" vType="default_016" speedFactor="0.89" vaporized="">
        <emissions CO_abs="8988.719495" CO2_abs="391552.330588" HC_abs="50.053118" PMx_abs="6.927132" NOx_abs="159.881758" fuel_abs="168.314151" electricity_abs="0"/>
    </tripinfo>
    <tripinfo id="carIn126288:1" depart="57674.00" departLane="272042143_1" departPos="5.10" departSpeed="0.00" departDelay="0.00" arrival="57849.00" arrivalLane="-315358254#1_1" arrivalPos="137.16" arrivalSpeed="14.25" duration="175.00" routeLength="1596.88" waitingTime="34.00" waitingCount="1" stopTime="0.00" timeLoss="65.76" rerouteNo="1" devices="tripinfo_carIn126288:1 routing_carIn126288:1 emissions_carIn126288:1" vType="default_016" speedFactor="1.07" vaporized="">
        <emissions CO_abs="9737.637805" CO2_abs="455127.662355" HC_abs="55.017339" PMx_abs="8.349868" NOx_abs="187.325087" fuel_abs="195.641861" electricity_abs="0"/>
    </tripinfo>
    <tripinfo id="carIn12152:1" depart="57647.00" departLane="24599188#0.94_1" departPos="5.10" departSpeed="0.00" departDelay="0.50" arrival="57851.00" arrivalLane="-315358254#1_1" arrivalPos="137.16" arrivalSpeed="13.15" duration="204.00" routeLength="2034.31" waitingTime="26.00" waitingCount="1" stopTime="0.00" timeLoss="47.02" rerouteNo="1" devices="tripinfo_carIn12152:1 routing_carIn12152:1 emissions_carIn12152:1" vType="default_016" speedFactor="1.01" vaporized="">
        <emissions CO_abs="8615.381725" CO2_abs="469739.605042" HC_abs="50.109348" PMx_abs="7.861443" NOx_abs="187.761489" fuel_abs="201.922963" electricity_abs="0"/>
    </tripinfo>
    <tripinfo id="carIn81860:1" depart="57712.00" departLane="128361102#0_1" departPos="5.10" departSpeed="0.00" departDelay="0.60" arrival="57852.00" arrivalLane="-24634517#17_1" arrivalPos="6.43" arrivalSpeed="8.33" duration="140.00" routeLength="1229.64" waitingTime="11.00" waitingCount="2" stopTime="0.00" timeLoss="45.92" rerouteNo="1" devices="tripinfo_carIn81860:1 routing_carIn81860:1 emissions_carIn81860:1" vType="default_016" speedFactor="0.96" vaporized="">
        <emissions CO_abs="6360.500251" CO2_abs="340610.028154" HC_abs="36.964457" PMx_abs="6.177297" NOx_abs="140.586804" fuel_abs="146.414367" electricity_abs="0"/>
    </tripinfo>
    <tripinfo id="h17890c1:3" depart="57792.00" departLane="386687232#0_1" departPos="5.10" departSpeed="0.00" departDelay="0.00" arrival="57857.00" arrivalLane="32978638#0_1" arrivalPos="49.29" arrivalSpeed="15.67" duration="65.00" routeLength="792.72" waitingTime="0.00" waitingCount="0" stopTime="0.00" timeLoss="14.00" rerouteNo="1" devices="tripinfo_h17890c1:3 routing_h17890c1:3 emissions_h17890c1:3" vType="default_016" speedFactor="1.16" vaporized="">
        <emissions CO_abs="3281.983094" CO2_abs="224699.542403" HC_abs="20.293363" PMx_abs="4.220693" NOx_abs="92.760993" fuel_abs="96.588266" electricity_abs="0"/>
    </tripinfo>
    <tripinfo id="50R_frequency3.17" depart="57674.00" departLane="-18809673#6_1" departPos="12.10" departSpeed="0.00" departDelay="0.70" arrival="57861.00" arrivalLane="201956811#0_1" arrivalPos="40.40" arrivalSpeed="13.54" duration="187.00" routeLength="1954.47" waitingTime="15.00" waitingCount="1" stopTime="0.00" timeLoss="41.49" rerouteNo="1" devices="tripinfo_50R_frequency3.17 routing_50R_frequency3.17 emissions_50R_frequency3.17" vType="bus" speedFactor="1.00" vaporized="">
        <emissions CO_abs="3763.973451" CO2_abs="2311400.668647" HC_abs="795.628226" PMx_abs="402.389346" NOx_abs="18063.098953" fuel_abs="985.770141" electricity_abs="0"/>
    </tripinfo>
    <tripinfo id="carIn73855:1" depart="57743.00" departLane="386687232#0_1" departPos="5.10" departSpeed="0.00" departDelay="0.50" arrival="57863.00" arrivalLane="-315358244_1" arrivalPos="33.95" arrivalSpeed="15.19" duration="120.00" routeLength="1157.39" waitingTime="26.00" waitingCount="2" stopTime="0.00" timeLoss="46.13" rerouteNo="1" devices="tripinfo_carIn73855:1 routing_carIn73855:1 emissions_carIn73855:1" vType="default_016" speedFactor="1.15" vaporized="">
        <emissions CO_abs="6326.803312" CO2_abs="325714.860397" HC_abs="36.297017" PMx_abs="5.973788" NOx_abs="132.739281" fuel_abs="140.011833" electricity_abs="0"/>
    </tripinfo>
    <tripinfo id="carIn126378:1" depart="57746.00" departLane="386687232#0_1" departPos="5.10" departSpeed="0.00" departDelay="1.80" arrival="57863.00" arrivalLane="-315358244_2" arrivalPos="33.95" arrivalSpeed="14.10" duration="117.00" routeLength="1157.39" waitingTime="15.00" waitingCount="2" stopTime="0.00" timeLoss="34.49" rerouteNo="1" devices="tripinfo_carIn126378:1 routing_carIn126378:1 emissions_carIn126378:1" vType="default_016" speedFactor="1.02" vaporized="">
        <emissions CO_abs="4405.190705" CO2_abs="291688.517553" HC_abs="26.914692" PMx_abs="5.048760" NOx_abs="117.661849" fuel_abs="125.384604" electricity_abs="0"/>
    </tripinfo>
    <tripinfo id="h19804c1:3" depart="57617.00" departLane="124812856#0_1" departPos="5.10" departSpeed="0.00" departDelay="1.50" arrival="57872.00" arrivalLane="-128361102#1_1" arrivalPos="274.68" arrivalSpeed="10.53" duration="255.00" routeLength="2232.46" waitingTime="34.00" waitingCount="2" stopTime="0.00" timeLoss="60.24" rerouteNo="1" devices="tripinfo_h19804c1:3 routing_h19804c1:3 emissions_h19804c1:3" vType="default_016" speedFactor="0.83" vaporized="">
        <emissions CO_abs="10597.013519" CO2_abs="521162.934136" HC_abs="60.282583" PMx_abs="8.453607" NOx_abs="208.362340" fuel_abs="224.028998" electricity_abs="0"/>
    </tripinfo>
    <tripinfo id="carIn77943:1" depart="57608.00" departLane="124812856#0_1" departPos="5.10" departSpeed="0.00" departDelay="2.50" arrival="57874.00" arrivalLane="-128361102#1_1" arrivalPos="274.68" arrivalSpeed="13.19" duration="266.00" routeLength="2250.49" waitingTime="51.00" waitingCount="2" stopTime="0.00" timeLoss="98.89" rerouteNo="1" devices="tripinfo_carIn77943:1 routing_carIn77943:1 emissions_carIn77943:1" vType="default_016" speedFactor="0.98" vaporized="">
        <emissions CO_abs="14704.918265" CO2_abs="662365.020530" HC_abs="82.421177" PMx_abs="12.047679" NOx_abs="272.869360" fuel_abs="284.725738" electricity_abs="0"/>
    </tripinfo>
    <tripinfo id="carIn81046:1" depart="57611.00" departLane="124812856#0_1" departPos="5.10" departSpeed="0.00" departDelay="2.50" arrival="57876.00" arrivalLane="-128361102#1_1" arrivalPos="274.68" arrivalSpeed="10.81" duration="265.00" routeLength="2250.49" waitingTime="37.00" waitingCount="2" stopTime="0.00" timeLoss="70.37" rerouteNo="1" devices="tripinfo_carIn81046:1 routing_carIn81046:1 emissions_carIn81046:1" vType="default_016" speedFactor="0.84" vaporized="">
        <emissions CO_abs="12213.361108" CO2_abs="563979.288560" HC_abs="68.671978" PMx_abs="9.502401" NOx_abs="228.063349" fuel_abs="242.434259" electricity_abs="0"/>
    </tripinfo>
    <tripinfo id="carIn77438:1" depart="57614.00" departLane="124812856#0_1" departPos="5.10" departSpeed="0.00" departDelay="1.10" arrival="57878.00" arrivalLane="-128361102#1_1" arrivalPos="274.68" arrivalSpeed="13.96" duration="264.00" routeLength="2250.49" waitingTime="34.00" waitingCount="2" stopTime="0.00" timeLoss="113.05" rerouteNo="1" devices="tripinfo_carIn77438:1 routing_carIn77438:1 emissions_carIn77438:1" vType="default_016" speedFactor="1.09" vaporized="">
        <emissions CO_abs="12453.928322" CO2_abs="617959.492839" HC_abs="71.151308" PMx_abs="10.983152" NOx_abs="253.885983" fuel_abs="265.636693" electricity_abs="0"/>
    </tripinfo>
    <tripinfo id="carIn12365:1" depart="57713.00" departLane="315358244_1" departPos="5.10" departSpeed="0.00" departDelay="0.50" arrival="57881.00" arrivalLane="447569997#1_2" arrivalPos="180.93" arrivalSpeed="8.83" duration="168.00" routeLength="718.04" waitingTime="88.00" waitingCount="1" stopTime="0.00" timeLoss="111.98" rerouteNo="1" devices="tripinfo_carIn12365:1 routing_carIn12365:1 emissions_carIn12365:1" vType="default_016" speedFactor="1.10" vaporized="">
        <emissions CO_abs="17762.879618" CO2_abs="436357.052668" HC_abs="91.101111" PMx_abs="9.365316" NOx_abs="189.886991" fuel_abs="187.578075" electricity_abs="0"/>
    </tripinfo>
    <tripinfo id="carIn30817:1" depart="57681.00" departLane="315358244_1" departPos="5.10" departSpeed="0.00" departDelay="0.20" arrival="57882.00" arrivalLane="447569997#1_1" arrivalPos="180.93" arrivalSpeed="6.81" duration="201.00" routeLength="718.04" waitingTime="118.00" waitingCount="1" stopTime="0.00" timeLoss="136.15" rerouteNo="1" devices="tripinfo_carIn30817:1 routing_carIn30817:1 emissions_carIn30817:1" vType="default_016" speedFactor="0.94" vaporized="">
        <emissions CO_abs="22258.151592" CO2_abs="490117.730357" HC_abs="112.810794" PMx_abs="10.708256" NOx_abs="214.454873" fuel_abs="210.690027" electricity_abs="0"/>
    </tripinfo>
    <tripinfo id="h15382c1:3" depart="57626.00" departLane="124812856#0_1" departPos="5.10" departSpeed="0.00" departDelay="3.80" arrival="57883.00" arrivalLane="-128361102#1_1" arrivalPos="274.68" arrivalSpeed="9.92" duration="257.00" routeLength="2232.46" waitingTime="10.00" waitingCount="3" stopTime="0.00" timeLoss="44.39" rerouteNo="1" devices="tripinfo_h15382c1:3 routing_h15382c1:3 emissions_h15382c1:3" vType="default_016" speedFactor="0.77" vaporized="">
        <emissions CO_abs="8297.313615" CO2_abs="490942.193498" HC_abs="49.049304" PMx_abs="7.440898" NOx_abs="193.884179" fuel_abs="211.037455" electricity_abs="0"/>
    </tripinfo>
    <tripinfo id="h3536c1:1" depart="57767.00" departLane="-24634413#2_1" departPos="5.10" departSpeed="0.00" departDelay="0.00" arrival="57883.00" arrivalLane="32978638#0_1" arrivalPos="49.29" arrivalSpeed="17.04" duration="116.00" routeLength="953.61" waitingTime="19.00" waitingCount="1" stopTime="0.00" timeLoss="42.84" rerouteNo="1" devices="tripinfo_h3536c1:1 routing_h3536c1:1 emissions_h3536c1:1" vType="default_016" speedFactor="1.23" vaporized="">