<?xml version="1.0" encoding="UTF-8"?>

<!-- generated on Thu Nov  4 13:31:25 2021 by Eclipse SUMO sumo Version 1.9.0
<configuration xmlns:xsi="http://www.w3.org/2001/XMLSchema-instance" xsi:noNamespaceSchemaLocation="http://sumo.dlr.de/xsd/sumoConfiguration.xsd">

    <input>
        <net-file value="/mainfs/home/bk2g18/RESCO/environments/ingolstadt21/ingolstadt21.net.xml"/>
        <route-files value="/mainfs/home/bk2g18/RESCO/environments/ingolstadt21/ingolstadt21.rou.xml"/>
    </input>

    <output>
        <tripinfo-output value="/mainfs/home/bk2g18/RESCO/logs/MPLight-tr0-ingolstadt21-21-mplight_full-pressure/tripinfo_26.xml"/>
        <tripinfo-output.write-unfinished value="true"/>
    </output>

    <time>
        <begin value="57600"/>
        <end value="61200"/>
    </time>

    <processing>
        <time-to-teleport value="-1"/>
    </processing>

    <report>
        <xml-validation value="never"/>
        <xml-validation.routes value="never"/>
        <no-warnings value="true"/>
        <no-step-log value="true"/>
    </report>

    <emissions>
        <device.emissions.probability value="1"/>
    </emissions>

    <traci_server>
        <remote-port value="40332"/>
    </traci_server>

    <random_number>
        <random value="true"/>
    </random_number>

</configuration>
-->

<tripinfos xmlns:xsi="http://www.w3.org/2001/XMLSchema-instance" xsi:noNamespaceSchemaLocation="http://sumo.dlr.de/xsd/tripinfo_file.xsd">
    <tripinfo id="h15454c2:3" depart="57612.00" departLane="24608844_1" departPos="5.10" departSpeed="0.00" departDelay="0.50" arrival="57652.00" arrivalLane="32978638#0_1" arrivalPos="49.29" arrivalSpeed="13.52" duration="40.00" routeLength="354.79" waitingTime="0.00" waitingCount="0" stopTime="0.00" timeLoss="4.80" rerouteNo="1" devices="tripinfo_h15454c2:3 routing_h15454c2:3 emissions_h15454c2:3" vType="default_016" speedFactor="0.98" vaporized="">
        <emissions CO_abs="1782.481143" CO2_abs="101506.129752" HC_abs="10.470882" PMx_abs="1.673860" NOx_abs="40.919645" fuel_abs="43.633495" electricity_abs="0"/>
    </tripinfo>
    <tripinfo id="carIn60260:1" depart="57606.00" departLane="315358254#0_1" departPos="5.10" departSpeed="0.00" departDelay="0.90" arrival="57663.00" arrivalLane="399835085#1_1" arrivalPos="212.23" arrivalSpeed="6.59" duration="57.00" routeLength="430.98" waitingTime="0.00" waitingCount="0" stopTime="0.00" timeLoss="6.82" rerouteNo="1" devices="tripinfo_carIn60260:1 routing_carIn60260:1 emissions_carIn60260:1" vType="default_016" speedFactor="0.92" vaporized="">
        <emissions CO_abs="2223.922297" CO2_abs="108476.973190" HC_abs="12.614192" PMx_abs="1.716003" NOx_abs="43.568297" fuel_abs="46.630339" electricity_abs="0"/>
    </tripinfo>
    <tripinfo id="carIn53971:1" depart="57640.00" departLane="272042143_1" departPos="5.10" departSpeed="0.00" departDelay="0.80" arrival="57693.00" arrivalLane="24634414#1_1" arrivalPos="162.19" arrivalSpeed="7.46" duration="53.00" routeLength="493.04" waitingTime="0.00" waitingCount="0" stopTime="0.00" timeLoss="7.50" rerouteNo="1" devices="tripinfo_carIn53971:1 routing_carIn53971:1 emissions_carIn53971:1" vType="default_016" speedFactor="1.00" vaporized="">
        <emissions CO_abs="2138.839036" CO2_abs="122250.951679" HC_abs="12.578043" PMx_abs="2.088749" NOx_abs="49.777241" fuel_abs="52.550756" electricity_abs="0"/>
    </tripinfo>
    <tripinfo id="carIn80064:1" depart="57603.00" departLane="128361109#1_1" departPos="5.10" departSpeed="0.00" departDelay="0.40" arrival="57733.00" arrivalLane="-315358254#1_1" arrivalPos="137.16" arrivalSpeed="11.61" duration="130.00" routeLength="1587.97" waitingTime="6.00" waitingCount="1" stopTime="0.00" timeLoss="28.23" rerouteNo="1" devices="tripinfo_carIn80064:1 routing_carIn80064:1 emissions_carIn80064:1" vType="default_016" speedFactor="0.88" vaporized="">
        <emissions CO_abs="6109.765492" CO2_abs="424854.825402" HC_abs="37.818605" PMx_abs="7.848253" NOx_abs="173.251131" fuel_abs="182.626287" electricity_abs="0"/>
    </tripinfo>
    <tripinfo id="h7800c1:5" depart="57696.00" departLane="-447569998#1_1" departPos="5.10" departSpeed="0.00" departDelay="0.00" arrival="57735.00" arrivalLane="-447569998#1_2" arrivalPos="180.76" arrivalSpeed="4.85" duration="39.00" routeLength="175.66" waitingTime="3.00" waitingCount="1" stopTime="0.00" timeLoss="11.33" rerouteNo="1" devices="tripinfo_h7800c1:5 routing_h7800c1:5 emissions_h7800c1:5" vType="default_016" speedFactor="0.78" vaporized="">
        <emissions CO_abs="2020.552880" CO2_abs="64560.316086" HC_abs="10.691418" PMx_abs="1.201760" NOx_abs="27.304075" fuel_abs="27.752451" electricity_abs="0"/>
    </tripinfo>
    <tripinfo id="h317c2:1" depart="57707.00" departLane="-32978638#0_1" departPos="5.10" departSpeed="0.00" departDelay="0.10" arrival="57740.00" arrivalLane="-266565295#5_1" arrivalPos="172.76" arrivalSpeed="13.40" duration="33.00" routeLength="370.53" waitingTime="0.00" waitingCount="0" stopTime="0.00" timeLoss="5.36" rerouteNo="1" devices="tripinfo_h317c2:1 routing_h317c2:1 emissions_h317c2:1" vType="default_016" speedFactor="1.01" vaporized="">
        <emissions CO_abs="1684.415401" CO2_abs="102697.944070" HC_abs="10.090535" PMx_abs="1.964314" NOx_abs="43.010777" fuel_abs="44.145305" electricity_abs="0"/>
    </tripinfo>
    <tripinfo id="h7181c1:1" depart="57660.00" departLane="315358254#0_1" departPos="5.10" departSpeed="0.00" departDelay="0.10" arrival="57747.00" arrivalLane="306240162#0_0" arrivalPos="220.43" arrivalSpeed="17.01" duration="87.00" routeLength="932.35" waitingTime="13.00" waitingCount="2" stopTime="0.00" timeLoss="38.22" rerouteNo="1" devices="tripinfo_h7181c1:1 routing_h7181c1:1 emissions_h7181c1:1" vType="default_016" speedFactor="1.06" vaporized="">
        <emissions CO_abs="5736.752270" CO2_abs="345463.939354" HC_abs="34.353590" PMx_abs="7.014632" NOx_abs="145.085745" fuel_abs="148.499338" electricity_abs="0"/>
    </tripinfo>
    <tripinfo id="carIn30817:1" depart="57681.00" departLane="315358244_1" departPos="5.10" departSpeed="0.00" departDelay="0.20" arrival="57748.00" arrivalLane="447569997#1_1" arrivalPos="180.93" arrivalSpeed="7.88" duration="67.00" routeLength="718.04" waitingTime="0.00" waitingCount="0" stopTime="0.00" timeLoss="6.34" rerouteNo="1" devices="tripinfo_carIn30817:1 routing_carIn30817:1 emissions_carIn30817:1" vType="default_016" speedFactor="1.02" vaporized="">
        <emissions CO_abs="2181.034229" CO2_abs="152340.191910" HC_abs="13.418241" PMx_abs="2.439141" NOx_abs="60.353827" fuel_abs="65.484800" electricity_abs="0"/>
    </tripinfo>
    <tripinfo id="carIn121703:1" depart="57647.00" departLane="386687232#0_1" departPos="5.10" departSpeed="0.00" departDelay="0.30" arrival="57754.00" arrivalLane="-315358244_1" arrivalPos="33.95" arrivalSpeed="14.04" duration="107.00" routeLength="1157.39" waitingTime="8.00" waitingCount="2" stopTime="0.00" timeLoss="27.01" rerouteNo="1" devices="tripinfo_carIn121703:1 routing_carIn121703:1 emissions_carIn121703:1" vType="default_016" speedFactor="1.06" vaporized="">
        <emissions CO_abs="3733.817596" CO2_abs="274277.687620" HC_abs="23.361513" PMx_abs="4.684783" NOx_abs="109.822223" fuel_abs="117.900193" electricity_abs="0"/>
    </tripinfo>
    <tripinfo id="h3568c1:3" depart="57656.00" departLane="266565295#5_1" departPos="5.10" departSpeed="0.00" departDelay="0.80" arrival="57754.00" arrivalLane="-24634415_1" arrivalPos="62.03" arrivalSpeed="13.78" duration="98.00" routeLength="807.40" waitingTime="18.00" waitingCount="1" stopTime="0.00" timeLoss="33.75" rerouteNo="1" devices="tripinfo_h3568c1:3 routing_h3568c1:3 emissions_h3568c1:3" vType="default_016" speedFactor="1.00" vaporized="">
        <emissions CO_abs="5837.104594" CO2_abs="278244.814777" HC_abs="33.077473" PMx_abs="5.060753" NOx_abs="114.613427" fuel_abs="119.606660" electricity_abs="0"/>
    </tripinfo>
    <tripinfo id="h4538c1:1" depart="57701.00" departLane="-10427692#1_1" departPos="5.10" departSpeed="0.00" departDelay="0.00" arrival="57762.00" arrivalLane="-128361102#1_1" arrivalPos="274.68" arrivalSpeed="15.96" duration="61.00" routeLength="440.74" waitingTime="23.00" waitingCount="1" stopTime="0.00" timeLoss="33.06" rerouteNo="1" devices="tripinfo_h4538c1:1 routing_h4538c1:1 emissions_h4538c1:1" vType="default_016" speedFactor="1.16" vaporized="">
        <emissions CO_abs="5112.936448" CO2_abs="178701.417727" HC_abs="27.449982" PMx_abs="3.671037" NOx_abs="76.039727" fuel_abs="76.817357" electricity_abs="0"/>
    </tripinfo>
    <tripinfo id="h330c1:1" depart="57736.00" departLane="-32978638#0_1" departPos="5.10" departSpeed="0.00" departDelay="0.20" arrival="57766.00" arrivalLane="-266565295#5_1" arrivalPos="172.76" arrivalSpeed="15.45" duration="30.00" routeLength="370.53" waitingTime="0.00" waitingCount="0" stopTime="0.00" timeLoss="6.09" rerouteNo="1" devices="tripinfo_h330c1:1 routing_h330c1:1 emissions_h330c1:1" vType="default_016" speedFactor="1.14" vaporized="">
        <emissions CO_abs="1830.770841" CO2_abs="121872.175891" HC_abs="11.165937" PMx_abs="2.333769" NOx_abs="50.710948" fuel_abs="52.387337" electricity_abs="0"/>
    </tripinfo>
    <tripinfo id="h5979c1:5" depart="57669.00" departLane="399835085#1_1" departPos="5.10" departSpeed="0.00" departDelay="0.00" arrival="57769.00" arrivalLane="-315358254#1_1" arrivalPos="137.16" arrivalSpeed="12.61" duration="100.00" routeLength="659.33" waitingTime="4.00" waitingCount="1" stopTime="0.00" timeLoss="19.21" rerouteNo="1" devices="tripinfo_h5979c1:5 routing_h5979c1:5 emissions_h5979c1:5" vType="default_016" speedFactor="0.91" vaporized="">
        <emissions CO_abs="4580.832097" CO2_abs="197672.230660" HC_abs="25.392388" PMx_abs="3.224733" NOx_abs="80.162167" fuel_abs="84.972452" electricity_abs="0"/>
    </tripinfo>
    <tripinfo id="h11737c1:1" depart="57665.00" departLane="272042143_1" departPos="5.10" departSpeed="0.00" departDelay="1.50" arrival="57787.00" arrivalLane="-315358254#1_1" arrivalPos="137.16" arrivalSpeed="17.11" duration="122.00" routeLength="1596.88" waitingTime="9.00" waitingCount="1" stopTime="0.00" timeLoss="28.09" rerouteNo="1" devices="tripinfo_h11737c1:1 routing_h11737c1:1 emissions_h11737c1:1" vType="default_016" speedFactor="1.24" vaporized="">
        <emissions CO_abs="5186.890321" CO2_abs="389656.578913" HC_abs="32.614788" PMx_abs="7.056928" NOx_abs="157.073242" fuel_abs="167.496040" electricity_abs="0"/>
    </tripinfo>
    <tripinfo id="h3326c1:2" depart="57656.00" departLane="22716069#0_1" departPos="5.10" departSpeed="0.00" departDelay="0.00" arrival="57794.00" arrivalLane="24634517#13_1" arrivalPos="111.62" arrivalSpeed="10.03" duration="138.00" routeLength="1312.81" waitingTime="0.00" waitingCount="0" stopTime="0.00" timeLoss="18.22" rerouteNo="1" devices="tripinfo_h3326c1:2 routing_h3326c1:2 emissions_h3326c1:2" vType="default_016" speedFactor="0.82" vaporized="">
        <emissions CO_abs="4857.728241" CO2_abs="304558.705041" HC_abs="29.171584" PMx_abs="4.877758" NOx_abs="121.789048" fuel_abs="130.917623" electricity_abs="0"/>
    </tripinfo>
    <tripinfo id="carIn27009:1" depart="57673.00" departLane="-447569998#1_1" departPos="5.10" departSpeed="0.00" departDelay="0.50" arrival="57795.00" arrivalLane="-26677539_1" arrivalPos="152.75" arrivalSpeed="8.65" duration="122.00" routeLength="699.63" waitingTime="35.00" waitingCount="1" stopTime="0.00" timeLoss="49.55" rerouteNo="1" devices="tripinfo_carIn27009:1 routing_carIn27009:1 emissions_carIn27009:1" vType="default_015" speedFactor="1.15" vaporized="">
        <emissions CO_abs="8372.568867" CO2_abs="261758.371493" HC_abs="44.211528" PMx_abs="5.041429" NOx_abs="110.774412" fuel_abs="112.521700" electricity_abs="0"/>
    </tripinfo>
    <tripinfo id="carIn129809:1" depart="57729.00" departLane="-447569998#1_1" departPos="5.10" departSpeed="0.00" departDelay="1.00" arrival="57803.00" arrivalLane="-315358244_1" arrivalPos="33.95" arrivalSpeed="15.00" duration="74.00" routeLength="706.49" waitingTime="8.00" waitingCount="1" stopTime="0.00" timeLoss="20.25" rerouteNo="1" devices="tripinfo_carIn129809:1 routing_carIn129809:1 emissions_carIn129809:1" vType="default_015" speedFactor="1.12" vaporized="">
        <emissions CO_abs="3264.082288" CO2_abs="182364.784331" HC_abs="19.130695" PMx_abs="3.235099" NOx_abs="74.202476" fuel_abs="78.391236" electricity_abs="0"/>
    </tripinfo>
    <tripinfo id="carIn126288:1" depart="57674.00" departLane="272042143_1" departPos="5.10" departSpeed="0.00" departDelay="0.00" arrival="57805.00" arrivalLane="-315358254#1_1" arrivalPos="137.16" arrivalSpeed="12.65" duration="131.00" routeLength="1596.88" waitingTime="0.00" waitingCount="0" stopTime="0.00" timeLoss="12.86" rerouteNo="1" devices="tripinfo_carIn126288:1 routing_carIn126288:1 emissions_carIn126288:1" vType="default_016" speedFactor="0.99" vaporized="">
        <emissions CO_abs="3788.859441" CO2_abs="329857.929787" HC_abs="24.933587" PMx_abs="5.228392" NOx_abs="129.339575" fuel_abs="141.791799" electricity_abs="0"/>
    </tripinfo>
    <tripinfo id="h9563c2:5" depart="57631.00" departLane="315358244_1" departPos="5.10" departSpeed="0.00" departDelay="0.70" arrival="57817.00" arrivalLane="386687235_1" arrivalPos="80.84" arrivalSpeed="13.94" duration="186.00" routeLength="1186.14" waitingTime="73.00" waitingCount="5" stopTime="0.00" timeLoss="106.21" rerouteNo="1" devices="tripinfo_h9563c2:5 routing_h9563c2:5 emissions_h9563c2:5" vType="default_016" speedFactor="1.09" vaporized="">
        <emissions CO_abs="14392.217343" CO2_abs="483385.843151" HC_abs="76.850292" PMx_abs="9.758457" NOx_abs="204.952443" fuel_abs="207.791032" electricity_abs="0"/>
    </tripinfo>
    <tripinfo id="carIn12152:1" depart="57647.00" departLane="24599188#0.94_1" departPos="5.10" departSpeed="0.00" departDelay="0.50" arrival="57821.00" arrivalLane="-315358254#1_1" arrivalPos="137.16" arrivalSpeed="15.81" duration="174.00" routeLength="2034.31" waitingTime="10.00" waitingCount="2" stopTime="0.00" timeLoss="35.43" rerouteNo="1" devices="tripinfo_carIn12152:1 routing_carIn12152:1 emissions_carIn12152:1" vType="default_016" speedFactor="1.14" vaporized="">
        <emissions CO_abs="6114.719543" CO2_abs="462319.633566" HC_abs="38.501908" PMx_abs="7.880384" NOx_abs="184.309635" fuel_abs="198.731276" electricity_abs="0"/>
    </tripinfo>
    <tripinfo id="carIn107282:1" depart="57749.00" departLane="-447569998#1_1" departPos="5.10" departSpeed="0.00" departDelay="0.00" arrival="57825.00" arrivalLane="315358242#0_1" arrivalPos="165.37" arrivalSpeed="14.34" duration="76.00" routeLength="448.50" waitingTime="29.00" waitingCount="1" stopTime="0.00" timeLoss="37.15" rerouteNo="1" devices="tripinfo_carIn107282:1 routing_carIn107282:1 emissions_carIn107282:1" vType="default_016" speedFactor="1.09" vaporized="">
        <emissions CO_abs="6309.205361" CO2_abs="198255.131797" HC_abs="33.345521" PMx_abs="3.903896" NOx_abs="83.678245" fuel_abs="85.223570" electricity_abs="0"/>
    </tripinfo>
    <tripinfo id="h17600c1:1" depart="57662.00" departLane="272042143_1" departPos="5.10" departSpeed="0.00" departDelay="0.30" arrival="57830.00" arrivalLane="201238729#3_1" arrivalPos="431.02" arrivalSpeed="13.62" duration="168.00" routeLength="2100.26" waitingTime="7.00" waitingCount="1" stopTime="0.00" timeLoss="24.01" rerouteNo="1" devices="tripinfo_h17600c1:1 routing_h17600c1:1 emissions_h17600c1:1" vType="default_016" speedFactor="1.05" vaporized="">
        <emissions CO_abs="4744.768215" CO2_abs="406190.525141" HC_abs="30.966422" PMx_abs="6.556066" NOx_abs="159.186183" fuel_abs="174.603864" electricity_abs="0"/>
    </tripinfo>
    <tripinfo id="randUni15030:1" depart="57735.00" departLane="386687232#0_1" departPos="5.10" departSpeed="0.00" departDelay="0.10" arrival="57830.00" arrivalLane="26677539_1" arrivalPos="151.98" arrivalSpeed="8.14" duration="95.00" routeLength="919.89" waitingTime="0.00" waitingCount="0" stopTime="0.00" timeLoss="11.13" rerouteNo="1" devices="tripinfo_randUni15030:1 routing_randUni15030:1 emissions_randUni15030:1" vType="random_016" speedFactor="1.00" vaporized="">
        <emissions CO_abs="3426.110656" CO2_abs="203985.356511" HC_abs="20.326135" PMx_abs="3.401618" NOx_abs="82.369187" fuel_abs="87.685103" electricity_abs="0"/>
    </tripinfo>
    <tripinfo id="h12244c1:3" depart="57612.00" departLane="315358244_1" departPos="5.10" departSpeed="0.00" departDelay="0.40" arrival="57831.00" arrivalLane="386687235_1" arrivalPos="80.84" arrivalSpeed="10.79" duration="219.00" routeLength="1186.14" waitingTime="82.00" waitingCount="4" stopTime="0.00" timeLoss="114.50" rerouteNo="1" devices="tripinfo_h12244c1:3 routing_h12244c1:3 emissions_h12244c1:3" vType="default_016" speedFactor="0.83" vaporized="">
        <emissions CO_abs="15269.479254" CO2_abs="458378.568044" HC_abs="80.190768" PMx_abs="8.848074" NOx_abs="193.008143" fuel_abs="197.043149" electricity_abs="0"/>
    </tripinfo>
    <tripinfo id="carIn12775:1" depart="57676.00" departLane="10425609#0_1" departPos="5.10" departSpeed="0.00" departDelay="0.60" arrival="57843.00" arrivalLane="18809673#0_1" arrivalPos="473.56" arrivalSpeed="14.64" duration="167.00" routeLength="1959.45" waitingTime="8.00" waitingCount="1" stopTime="0.00" timeLoss="37.83" rerouteNo="1" devices="tripinfo_carIn12775:1 routing_carIn12775:1 emissions_carIn12775:1" vType="default_016" speedFactor="1.12" vaporized="">
        <emissions CO_abs="5779.786923" CO2_abs="412017.723558" HC_abs="35.748925" PMx_abs="7.025362" NOx_abs="164.568523" fuel_abs="177.108892" electricity_abs="0"/>
    </tripinfo>
    <tripinfo id="h16072c2:3" depart="57663.00" departLane="315358254#0_1" departPos="5.10" departSpeed="0.00" departDelay="2.50" arrival="57844.00" arrivalLane="386687235_1" arrivalPos="80.84" arrivalSpeed="11.46" duration="181.00" routeLength="1611.92" waitingTime="27.00" waitingCount="3" stopTime="0.00" timeLoss="50.60" rerouteNo="1" devices="tripinfo_h16072c2:3 routing_h16072c2:3 emissions_h16072c2:3" vType="default_016" speedFactor="0.90" vaporized="">
        <emissions CO_abs="7546.124250" CO2_abs="386545.422888" HC_abs="43.344444" PMx_abs="6.504378" NOx_abs="155.631813" fuel_abs="166.161242" electricity_abs="0"/>
    </tripinfo>
    <tripinfo id="h5216c1:1" depart="57664.00" departLane="224892339#0_1" departPos="5.10" departSpeed="0.00" departDelay="0.00" arrival="57844.00" arrivalLane="386687235_2" arrivalPos="80.84" arrivalSpeed="14.10" duration="180.00" routeLength="1823.78" waitingTime="26.00" waitingCount="2" stopTime="0.00" timeLoss="54.28" rerouteNo="1" devices="tripinfo_h5216c1:1 routing_h5216c1:1 emissions_h5216c1:1" vType="default_016" speedFactor="1.02" vaporized="">
        <emissions CO_abs="9323.269620" CO2_abs="510600.512673" HC_abs="54.477094" PMx_abs="9.420657" NOx_abs="209.702715" fuel_abs="219.486131" electricity_abs="0"/>
    </tripinfo>
    <tripinfo id="h9953c2:3" depart="57682.00" departLane="-54169231#2_1" departPos="5.10" departSpeed="0.00" departDelay="0.00" arrival="57845.00" arrivalLane="386687235_2" arrivalPos="80.84" arrivalSpeed="14.10" duration="163.00" routeLength="1535.60" waitingTime="14.00" waitingCount="2" stopTime="0.00" timeLoss="43.50" rerouteNo="1" devices="tripinfo_h9953c2:3 routing_h9953c2:3 emissions_h9953c2:3" vType="default_016" speedFactor="1.05" vaporized="">
        <emissions CO_abs="7277.332619" CO2_abs="413489.859390" HC_abs="42.753666" PMx_abs="7.430556" NOx_abs="169.715084" fuel_abs="177.742194" electricity_abs="0"/>
    </tripinfo>
    <tripinfo id="carIn48184:1" depart="57613.00" departLane="-306240162#1_0" departPos="5.10" departSpeed="0.00" departDelay="0.70" arrival="57846.00" arrivalLane="386687235_1" arrivalPos="80.84" arrivalSpeed="13.59" duration="233.00" routeLength="2257.41" waitingTime="50.00" waitingCount="3" stopTime="0.00" timeLoss="86.17" rerouteNo="1" devices="tripinfo_carIn48184:1 routing_carIn48184:1 emissions_carIn48184:1" vType="default_016" speedFactor="1.01" vaporized="">
        <emissions CO_abs="14101.464350" CO2_abs="689751.396377" HC_abs="80.349367" PMx_abs="13.008545" NOx_abs="284.098045" fuel_abs="296.496656" electricity_abs="0"/>
    </tripinfo>
    <tripinfo id="carIn28951:1" depart="57606.00" departLane="10425609#0_1" departPos="5.10" departSpeed="0.00" departDelay="0.20" arrival="57849.00" arrivalLane="-128361102#1_1" arrivalPos="274.68" arrivalSpeed="12.33" duration="243.00" routeLength="2113.04" waitingTime="51.00" waitingCount="1" stopTime="0.00" timeLoss="72.60" rerouteNo="1" devices="tripinfo_carIn28951:1 routing_carIn28951:1 emissions_carIn28951:1" vType="default_016" speedFactor="0.91" vaporized="">
        <emissions CO_abs="13295.728596" CO2_abs="576244.037173" HC_abs="73.939592" PMx_abs="10.019156" NOx_abs="233.687642" fuel_abs="247.706794" electricity_abs="0"/>
    </tripinfo>
    <tripinfo id="h20540c1:1" depart="57634.00" departLane="10425609#0_1" departPos="5.10" departSpeed="0.00" departDelay="0.50" arrival="57851.00" arrivalLane="-128361102#1_1" arrivalPos="274.68" arrivalSpeed="14.19" duration="217.00" routeLength="2113.04" waitingTime="33.00" waitingCount="3" stopTime="0.00" timeLoss="70.97" rerouteNo="1" devices="tripinfo_h20540c1:1 routing_h20540c1:1 emissions_h20540c1:1" vType="default_016" speedFactor="1.06" vaporized="">
        <emissions CO_abs="10533.311370" CO2_abs="576375.112696" HC_abs="61.363400" PMx_abs="10.341886" NOx_abs="235.092874" fuel_abs="247.760328" electricity_abs="0"/>
    </tripinfo>
    <tripinfo id="h19804c1:3" depart="57617.00" departLane="124812856#0_1" departPos="5.10" departSpeed="0.00" departDelay="1.50" arrival="57852.00" arrivalLane="-128361102#1_1" arrivalPos="274.68" arrivalSpeed="14.25" duration="235.00" routeLength="2250.49" waitingTime="41.00" waitingCount="3" stopTime="0.00" timeLoss="81.36" rerouteNo="1" devices="tripinfo_h19804c1:3 routing_h19804c1:3 emissions_h19804c1:3" vType="default_016" speedFactor="1.07" vaporized="">
        <emissions CO_abs="11798.386371" CO2_abs="617886.435428" HC_abs="68.162349" PMx_abs="11.449219" NOx_abs="254.603825" fuel_abs="265.604224" electricity_abs="0"/>
    </tripinfo>
    <tripinfo id="carIn82220:1" depart="57619.00" departLane="-306240162#1_0" departPos="5.10" departSpeed="0.00" departDelay="3.50" arrival="57852.00" arrivalLane="386687235_1" arrivalPos="80.84" arrivalSpeed="11.16" duration="233.00" routeLength="2257.41" waitingTime="27.00" waitingCount="2" stopTime="0.00" timeLoss="58.09" rerouteNo="1" devices="tripinfo_carIn82220:1 routing_carIn82220:1 emissions_carIn82220:1" vType="default_016" speedFactor="0.85" vaporized="">
        <emissions CO_abs="10723.020181" CO2_abs="572136.713952" HC_abs="62.100011" PMx_abs="9.899058" NOx_abs="231.401699" fuel_abs="245.939169" electricity_abs="0"/>
    </tripinfo>
    <tripinfo id="carIn22761:1" depart="57616.00" departLane="-306240162#1_0" departPos="5.10" departSpeed="0.00" departDelay="2.10" arrival="57853.00" arrivalLane="399835085#1_1" arrivalPos="212.23" arrivalSpeed="7.82" duration="237.00" routeLength="1093.26" waitingTime="136.00" waitingCount="2" stopTime="0.00" timeLoss="161.82" rerouteNo="1" devices="tripinfo_carIn22761:1 routing_carIn22761:1 emissions_carIn22761:1" vType="default_016" speedFactor="1.04" vaporized="">
        <emissions CO_abs="25936.893978" CO2_abs="653018.126141" HC_abs="133.522820" PMx_abs="14.456882" NOx_abs="285.768825" fuel_abs="280.713705" electricity_abs="0"/>
    </tripinfo>
    <tripinfo id="carIn75660:1" depart="57679.00" departLane="128361109#1_1" departPos="5.10" departSpeed="0.00" departDelay="3.40" arrival="57853.00" arrivalLane="386687235_2" arrivalPos="80.84" arrivalSpeed="13.99" duration="174.00" routeLength="2088.57" waitingTime="9.00" waitingCount="1" stopTime="0.00" timeLoss="28.73" rerouteNo="1" devices="tripinfo_carIn75660:1 routing_carIn75660:1 emissions_carIn75660:1" vType="default_016" speedFactor="1.04" vaporized="">
        <emissions CO_abs="5136.760037" CO2_abs="414871.602717" HC_abs="33.061594" PMx_abs="6.804496" NOx_abs="163.733952" fuel_abs="178.335543" electricity_abs="0"/>
    </tripinfo>
    <tripinfo id="carIn85747:1" depart="57673.00" departLane="128361109#1_1" departPos="5.10" departSpeed="0.00" departDelay="0.70" arrival="57854.00" arrivalLane="386687235_1" arrivalPos="80.84" arrivalSpeed="12.73" duration="181.00" routeLength="2088.57" waitingTime="10.00" waitingCount="1" stopTime="0.00" timeLoss="31.33" rerouteNo="1" devices="tripinfo_carIn85747:1 routing_carIn85747:1 emissions_carIn85747:1" vType="default_016" speedFactor="1.01" vaporized="">
        <emissions CO_abs="5610.143777" CO2_abs="432953.181145" HC_abs="35.546556" PMx_abs="6.736851" NOx_abs="168.423554" fuel_abs="186.108816" electricity_abs="0"/>
    </tripinfo>
    <tripinfo id="carIn12365:1" depart="57713.00" departLane="315358244_1" departPos="5.10" departSpeed="0.00" departDelay="0.50" arrival="57856.00" arrivalLane="447569997#1_1" arrivalPos="180.93" arrivalSpeed="7.33" duration="143.00" routeLength="718.04" waitingTime="67.00" waitingCount="1" stopTime="0.00" timeLoss="81.56" rerouteNo="1" devices="tripinfo_carIn12365:1 routing_carIn12365:1 emissions_carIn12365:1" vType="default_016" speedFactor="1.01" vaporized="">
        <emissions CO_abs="13224.599602" CO2_abs="349763.536221" HC_abs="68.377967" PMx_abs="7.214439" NOx_abs="150.021172" fuel_abs="150.353477" electricity_abs="0"/>
    </tripinfo>
    <tripinfo id="carIn88905:1" depart="57688.00" departLane="128361109#1_1" departPos="5.10" departSpeed="0.00" departDelay="5.80" arrival="57857.00" arrivalLane="386687235_1" arrivalPos="80.84" arrivalSpeed="13.62" duration="169.00" routeLength="2088.57" waitingTime="5.00" waitingCount="1" stopTime="0.00" timeLoss="24.20" rerouteNo="1" devices="tripinfo_carIn88905:1 routing_carIn88905:1 emissions_carIn88905:1" vType="default_016" speedFactor="1.04" vaporized="">
        <emissions CO_abs="4482.416559" CO2_abs="401105.817888" HC_abs="29.731473" PMx_abs="6.269699" NOx_abs="155.907553" fuel_abs="172.418323" electricity_abs="0"/>
    </tripinfo>
    <tripinfo id="50R_frequency3.17" depart="57674.00" departLane="-18809673#6_1" departPos="12.10" departSpeed="0.00" departDelay="0.70" arrival="57859.00" arrivalLane="201956811#0_1" arrivalPos="40.40" arrivalSpeed="12.96" duration="185.00" routeLength="1954.47" waitingTime="14.00" waitingCount="1" stopTime="0.00" timeLoss="39.59" rerouteNo="1" devices="tripinfo_50R_frequency3.17 routing_50R_frequency3.17 emissions_50R_frequency3.17" vType="bus" speedFactor="1.00" vaporized="">
        <emissions CO_abs="3496.245605" CO2_abs="2169937.141210" HC_abs="727.849711" PMx_abs="373.655461" NOx_abs="16906.292811" fuel_abs="925.436012" electricity_abs="0"/>
    </tripinfo>
    <tripinfo id="carIn8642:1" depart="57774.00" departLane="-447569998#1_1" departPos="5.10" departSpeed="0.00" departDelay="0.90" arrival="57863.00" arrivalLane="-315358244_1" arrivalPos="33.95" arrivalSpeed="14.47" duration="89.00" routeLength="706.49" waitingTime="16.00" waitingCount="2" stopTime="0.00" timeLoss="32.23" rerouteNo="1" devices="tripinfo_carIn8642:1 routing_carIn8642:1 emissions_carIn8642:1" vType="default_016" speedFactor="1.06" vaporized="">
        <emissions CO_abs="4240.785960" CO2_abs="209226.345851" HC_abs="24.106645" PMx_abs="3.657137" NOx_abs="85.088922" fuel_abs="89.938396" electricity_abs="0"/>
    </tripinfo>
    <tripinfo id="carIn126378:1" depart="57746.00" departLane="386687232#0_1" departPos="5.10" departSpeed="0.00" departDelay="1.80" arrival="57865.00" arrivalLane="-315358244_1" arrivalPos="33.95" arrivalSpeed="13.90" duration="119.00" routeLength="1157.39" waitingTime="22.00" waitingCount="1" stopTime="0.00" timeLoss="36.91" rerouteNo="1" devices="tripinfo_carIn126378:1 routing_carIn126378:1 emissions_carIn126378:1" vType="default_016" speedFactor="1.03" vaporized="">
        <emissions CO_abs="5961.004708" CO2_abs="295239.288198" HC_abs="34.078392" PMx_abs="5.330487" NOx_abs="120.563311" fuel_abs="126.911874" electricity_abs="0"/>
    </tripinfo>
    <tripinfo id="h3154c1:1" depart="57658.00" departLane="24634507_1" departPos="5.10" departSpeed="0.00" departDelay="0.00" arrival="57866.00" arrivalLane="-266565295#5_1" arrivalPos="172.76" arrivalSpeed="13.77" duration="208.00" routeLength="1206.22" waitingTime="105.00" waitingCount="2" stopTime="0.00" timeLoss="125.67" rerouteNo="1" devices="tripinfo_h3154c1:1 routing_h3154c1:1 emissions_h3154c1:1" vType="default_016" speedFactor="1.08" vaporized="">
        <emissions CO_abs="20947.286241" CO2_abs="581989.730803" HC_abs="109.025456" PMx_abs="12.403181" NOx_abs="251.261161" fuel_abs="250.179539" electricity_abs="0"/>
    </tripinfo>
    <tripinfo id="h2831c1:1" depart="57600.00" departLane="201089423#0_1" departPos="5.10" departSpeed="0.00" departDelay="0.00" arrival="57867.00" arrivalLane="-315358244_2" arrivalPos="33.95" arrivalSpeed="12.87" duration="267.00" routeLength="2672.18" waitingTime="46.00" waitingCount="2" stopTime="0.00" timeLoss="72.75" rerouteNo="1" devices="tripinfo_h2831c1:1 routing_h2831c1:1 emissions_h2831c1:1" vType="default_016" speedFactor="1.00" vaporized="">
        <emissions CO_abs="12292.720740" CO2_abs="635471.160840" HC_abs="70.638603" PMx_abs="10.836373" NOx_abs="254.575969" fuel_abs="273.164874" electricity_abs="0"/>
    </tripinfo>
    <tripinfo id="carIn12858:1" depart="57661.00" departLane="128361109#1_1" departPos="5.10" departSpeed="0.00" departDelay="0.90" arrival="57867.00" arrivalLane="399835085#1_1" arrivalPos="212.23" arrivalSpeed="6.70" duration="206.00" routeLength="1738.12" waitingTime="33.00" waitingCount="2" stopTime="0.00" timeLoss="64.66" rerouteNo="1" devices="tripinfo_carIn12858:1 routing_carIn12858:1 emissions_carIn12858:1" vType="default_016" speedFactor="0.82" vaporized="">