<?xml version="1.0" encoding="UTF-8"?>

<!-- generated on Thu Nov  4 13:38:18 2021 by Eclipse SUMO sumo Version 1.9.0
<configuration xmlns:xsi="http://www.w3.org/2001/XMLSchema-instance" xsi:noNamespaceSchemaLocation="http://sumo.dlr.de/xsd/sumoConfiguration.xsd">

    <input>
        <net-file value="/mainfs/home/bk2g18/RESCO/environments/ingolstadt21/ingolstadt21.net.xml"/>
        <route-files value="/mainfs/home/bk2g18/RESCO/environments/ingolstadt21/ingolstadt21.rou.xml"/>
    </input>

    <output>
        <tripinfo-output value="/mainfs/home/bk2g18/RESCO/logs/MPLight-tr0-ingolstadt21-21-mplight_full-pressure/tripinfo_36.xml"/>
        <tripinfo-output.write-unfinished value="true"/>
    </output>

    <time>
        <begin value="57600"/>
        <end value="61200"/>
    </time>

    <processing>
        <time-to-teleport value="-1"/>
    </processing>

    <report>
        <xml-validation value="never"/>
        <xml-validation.routes value="never"/>
        <no-warnings value="true"/>
        <no-step-log value="true"/>
    </report>

    <emissions>
        <device.emissions.probability value="1"/>
    </emissions>

    <traci_server>
        <remote-port value="44165"/>
    </traci_server>

    <random_number>
        <random value="true"/>
    </random_number>

</configuration>
-->

<tripinfos xmlns:xsi="http://www.w3.org/2001/XMLSchema-instance" xsi:noNamespaceSchemaLocation="http://sumo.dlr.de/xsd/tripinfo_file.xsd">
    <tripinfo id="carIn60260:1" depart="57606.00" departLane="315358254#0_1" departPos="5.10" departSpeed="0.00" departDelay="0.90" arrival="57656.00" arrivalLane="399835085#1_1" arrivalPos="212.23" arrivalSpeed="8.08" duration="50.00" routeLength="430.98" waitingTime="0.00" waitingCount="0" stopTime="0.00" timeLoss="7.48" rerouteNo="1" devices="tripinfo_carIn60260:1 routing_carIn60260:1 emissions_carIn60260:1" vType="default_016" speedFactor="1.08" vaporized="">
        <emissions CO_abs="2079.469694" CO2_abs="116872.156679" HC_abs="12.157336" PMx_abs="1.886619" NOx_abs="46.943421" fuel_abs="50.238820" electricity_abs="0"/>
    </tripinfo>
    <tripinfo id="h15454c2:3" depart="57612.00" departLane="24608844_1" departPos="5.10" departSpeed="0.00" departDelay="0.50" arrival="57662.00" arrivalLane="32978638#0_1" arrivalPos="49.29" arrivalSpeed="10.74" duration="50.00" routeLength="354.79" waitingTime="1.00" waitingCount="1" stopTime="0.00" timeLoss="9.41" rerouteNo="1" devices="tripinfo_h15454c2:3 routing_h15454c2:3 emissions_h15454c2:3" vType="default_016" speedFactor="0.85" vaporized="">
        <emissions CO_abs="2296.714755" CO2_abs="102284.210011" HC_abs="12.823693" PMx_abs="1.757293" NOx_abs="42.027506" fuel_abs="43.968247" electricity_abs="0"/>
    </tripinfo>
    <tripinfo id="carIn53971:1" depart="57640.00" departLane="272042143_1" departPos="5.10" departSpeed="0.00" departDelay="0.80" arrival="57702.00" arrivalLane="24634414#1_1" arrivalPos="162.19" arrivalSpeed="5.89" duration="62.00" routeLength="493.04" waitingTime="0.00" waitingCount="0" stopTime="0.00" timeLoss="8.22" rerouteNo="1" devices="tripinfo_carIn53971:1 routing_carIn53971:1 emissions_carIn53971:1" vType="default_016" speedFactor="0.85" vaporized="">
        <emissions CO_abs="2509.955629" CO2_abs="127466.703494" HC_abs="14.367764" PMx_abs="2.076337" NOx_abs="51.521006" fuel_abs="54.793166" electricity_abs="0"/>
    </tripinfo>
    <tripinfo id="h3568c1:3" depart="57656.00" departLane="266565295#5_1" departPos="5.10" departSpeed="0.00" departDelay="0.80" arrival="57735.00" arrivalLane="-24634415_1" arrivalPos="62.03" arrivalSpeed="12.82" duration="79.00" routeLength="807.40" waitingTime="0.00" waitingCount="0" stopTime="0.00" timeLoss="12.10" rerouteNo="1" devices="tripinfo_h3568c1:3 routing_h3568c1:3 emissions_h3568c1:3" vType="default_016" speedFactor="0.96" vaporized="">
        <emissions CO_abs="3063.298923" CO2_abs="204566.570858" HC_abs="18.720351" PMx_abs="3.428884" NOx_abs="82.364904" fuel_abs="87.934637" electricity_abs="0"/>
    </tripinfo>
    <tripinfo id="h7800c1:5" depart="57696.00" departLane="-447569998#1_1" departPos="5.10" departSpeed="0.00" departDelay="0.00" arrival="57735.00" arrivalLane="-447569998#1_2" arrivalPos="180.76" arrivalSpeed="3.34" duration="39.00" routeLength="175.66" waitingTime="11.00" waitingCount="1" stopTime="0.00" timeLoss="17.45" rerouteNo="1" devices="tripinfo_h7800c1:5 routing_h7800c1:5 emissions_h7800c1:5" vType="default_016" speedFactor="0.99" vaporized="">
        <emissions CO_abs="2250.396193" CO2_abs="68506.842536" HC_abs="11.822210" PMx_abs="1.245513" NOx_abs="28.645358" fuel_abs="29.449089" electricity_abs="0"/>
    </tripinfo>
    <tripinfo id="h3688c1:1" depart="57625.00" departLane="201201950#1_1" departPos="5.10" departSpeed="0.00" departDelay="0.00" arrival="57742.00" arrivalLane="32978638#0_1" arrivalPos="49.29" arrivalSpeed="13.15" duration="117.00" routeLength="1089.75" waitingTime="19.00" waitingCount="1" stopTime="0.00" timeLoss="33.89" rerouteNo="1" devices="tripinfo_h3688c1:1 routing_h3688c1:1 emissions_h3688c1:1" vType="default_016" speedFactor="0.96" vaporized="">
        <emissions CO_abs="5747.708211" CO2_abs="290145.671446" HC_abs="32.952685" PMx_abs="5.142538" NOx_abs="118.347170" fuel_abs="124.722326" electricity_abs="0"/>
    </tripinfo>
    <tripinfo id="carIn22761:1" depart="57616.00" departLane="-306240162#1_0" departPos="5.10" departSpeed="0.00" departDelay="2.10" arrival="57743.00" arrivalLane="399835085#1_1" arrivalPos="212.23" arrivalSpeed="7.23" duration="127.00" routeLength="1093.26" waitingTime="15.00" waitingCount="1" stopTime="0.00" timeLoss="37.62" rerouteNo="1" devices="tripinfo_carIn22761:1 routing_carIn22761:1 emissions_carIn22761:1" vType="default_016" speedFactor="0.87" vaporized="">
        <emissions CO_abs="6720.882424" CO2_abs="310241.905789" HC_abs="37.785994" PMx_abs="5.877657" NOx_abs="128.819588" fuel_abs="133.360822" electricity_abs="0"/>
    </tripinfo>
    <tripinfo id="h4538c1:1" depart="57701.00" departLane="-10427692#1_1" departPos="5.10" departSpeed="0.00" departDelay="0.00" arrival="57743.00" arrivalLane="-128361102#1_1" arrivalPos="274.68" arrivalSpeed="11.46" duration="42.00" routeLength="440.74" waitingTime="0.00" waitingCount="0" stopTime="0.00" timeLoss="6.94" rerouteNo="1" devices="tripinfo_h4538c1:1 routing_h4538c1:1 emissions_h4538c1:1" vType="default_016" speedFactor="0.91" vaporized="">
        <emissions CO_abs="1621.080795" CO2_abs="107145.280253" HC_abs="9.881445" PMx_abs="1.784608" NOx_abs="43.088576" fuel_abs="46.057317" electricity_abs="0"/>
    </tripinfo>
    <tripinfo id="h7181c1:1" depart="57660.00" departLane="315358254#0_1" departPos="5.10" departSpeed="0.00" departDelay="0.10" arrival="57751.00" arrivalLane="306240162#0_0" arrivalPos="220.43" arrivalSpeed="15.78" duration="91.00" routeLength="932.35" waitingTime="19.00" waitingCount="2" stopTime="0.00" timeLoss="38.51" rerouteNo="1" devices="tripinfo_h7181c1:1 routing_h7181c1:1 emissions_h7181c1:1" vType="default_016" speedFactor="0.98" vaporized="">
        <emissions CO_abs="6085.220546" CO2_abs="323082.283764" HC_abs="35.403444" PMx_abs="6.408546" NOx_abs="134.701939" fuel_abs="138.879333" electricity_abs="0"/>
    </tripinfo>
    <tripinfo id="carIn121703:1" depart="57647.00" departLane="386687232#0_1" departPos="5.10" departSpeed="0.00" departDelay="0.30" arrival="57753.00" arrivalLane="-315358244_1" arrivalPos="33.95" arrivalSpeed="13.63" duration="106.00" routeLength="1157.39" waitingTime="7.00" waitingCount="1" stopTime="0.00" timeLoss="21.18" rerouteNo="1" devices="tripinfo_carIn121703:1 routing_carIn121703:1 emissions_carIn121703:1" vType="default_016" speedFactor="1.00" vaporized="">
        <emissions CO_abs="3514.564811" CO2_abs="244456.563428" HC_abs="21.691134" PMx_abs="4.071281" NOx_abs="97.571262" fuel_abs="105.081664" electricity_abs="0"/>
    </tripinfo>
    <tripinfo id="h12244c1:3" depart="57612.00" departLane="315358244_1" departPos="5.10" departSpeed="0.00" departDelay="0.40" arrival="57757.00" arrivalLane="386687235_1" arrivalPos="80.84" arrivalSpeed="13.78" duration="145.00" routeLength="1186.14" waitingTime="37.00" waitingCount="3" stopTime="0.00" timeLoss="64.66" rerouteNo="1" devices="tripinfo_h12244c1:3 routing_h12244c1:3 emissions_h12244c1:3" vType="default_016" speedFactor="1.08" vaporized="">
        <emissions CO_abs="8470.488086" CO2_abs="365202.607907" HC_abs="47.082037" PMx_abs="7.042209" NOx_abs="152.599335" fuel_abs="156.986554" electricity_abs="0"/>
    </tripinfo>
    <tripinfo id="h3154c1:1" depart="57658.00" departLane="24634507_1" departPos="5.10" departSpeed="0.00" departDelay="0.00" arrival="57761.00" arrivalLane="-266565295#5_1" arrivalPos="172.76" arrivalSpeed="16.03" duration="103.00" routeLength="1206.22" waitingTime="13.00" waitingCount="1" stopTime="0.00" timeLoss="30.25" rerouteNo="1" devices="tripinfo_h3154c1:1 routing_h3154c1:1 emissions_h3154c1:1" vType="default_016" speedFactor="1.23" vaporized="">
        <emissions CO_abs="5396.104744" CO2_abs="330442.270412" HC_abs="32.226780" PMx_abs="6.100047" NOx_abs="134.521608" fuel_abs="142.043067" electricity_abs="0"/>
    </tripinfo>
    <tripinfo id="h5979c1:5" depart="57669.00" departLane="399835085#1_1" departPos="5.10" departSpeed="0.00" departDelay="0.00" arrival="57761.00" arrivalLane="-315358254#1_1" arrivalPos="137.16" arrivalSpeed="13.56" duration="92.00" routeLength="659.33" waitingTime="8.00" waitingCount="1" stopTime="0.00" timeLoss="22.45" rerouteNo="1" devices="tripinfo_h5979c1:5 routing_h5979c1:5 emissions_h5979c1:5" vType="default_016" speedFactor="1.05" vaporized="">
        <emissions CO_abs="3972.627956" CO2_abs="183809.288328" HC_abs="22.318100" PMx_abs="3.068096" NOx_abs="74.660313" fuel_abs="79.012933" electricity_abs="0"/>
    </tripinfo>
    <tripinfo id="h3326c1:2" depart="57656.00" departLane="22716069#0_1" departPos="5.10" departSpeed="0.00" departDelay="0.00" arrival="57768.00" arrivalLane="24634517#13_1" arrivalPos="111.62" arrivalSpeed="12.82" duration="112.00" routeLength="1312.81" waitingTime="0.00" waitingCount="0" stopTime="0.00" timeLoss="14.51" rerouteNo="1" devices="tripinfo_h3326c1:2 routing_h3326c1:2 emissions_h3326c1:2" vType="default_016" speedFactor="1.00" vaporized="">
        <emissions CO_abs="4095.139353" CO2_abs="301939.130509" HC_abs="25.740205" PMx_abs="5.154489" NOx_abs="121.597012" fuel_abs="129.790594" electricity_abs="0"/>
    </tripinfo>
    <tripinfo id="carIn30817:1" depart="57681.00" departLane="315358244_1" departPos="5.10" departSpeed="0.00" departDelay="0.20" arrival="57782.00" arrivalLane="447569997#1_1" arrivalPos="180.93" arrivalSpeed="7.84" duration="101.00" routeLength="718.04" waitingTime="29.00" waitingCount="1" stopTime="0.00" timeLoss="43.88" rerouteNo="1" devices="tripinfo_carIn30817:1 routing_carIn30817:1 emissions_carIn30817:1" vType="default_016" speedFactor="1.08" vaporized="">
        <emissions CO_abs="7208.760663" CO2_abs="254513.797999" HC_abs="38.774790" PMx_abs="4.985519" NOx_abs="107.256425" fuel_abs="109.406658" electricity_abs="0"/>
    </tripinfo>
    <tripinfo id="h9563c2:5" depart="57631.00" departLane="315358244_1" departPos="5.10" departSpeed="0.00" departDelay="0.70" arrival="57784.00" arrivalLane="386687235_1" arrivalPos="80.84" arrivalSpeed="11.39" duration="153.00" routeLength="1186.14" waitingTime="35.00" waitingCount="2" stopTime="0.00" timeLoss="57.32" rerouteNo="1" devices="tripinfo_h9563c2:5 routing_h9563c2:5 emissions_h9563c2:5" vType="default_016" speedFactor="0.91" vaporized="">
        <emissions CO_abs="8428.737640" CO2_abs="347825.795827" HC_abs="46.481017" PMx_abs="6.225846" NOx_abs="142.744856" fuel_abs="149.517942" electricity_abs="0"/>
    </tripinfo>
    <tripinfo id="carIn12365:1" depart="57713.00" departLane="315358244_1" departPos="5.10" departSpeed="0.00" departDelay="0.50" arrival="57785.00" arrivalLane="447569997#1_1" arrivalPos="180.93" arrivalSpeed="8.30" duration="72.00" routeLength="718.04" waitingTime="0.00" waitingCount="0" stopTime="0.00" timeLoss="14.11" rerouteNo="1" devices="tripinfo_carIn12365:1 routing_carIn12365:1 emissions_carIn12365:1" vType="default_016" speedFactor="1.07" vaporized="">
        <emissions CO_abs="2805.185901" CO2_abs="175795.695409" HC_abs="16.850763" PMx_abs="2.947949" NOx_abs="70.810243" fuel_abs="75.567378" electricity_abs="0"/>
    </tripinfo>
    <tripinfo id="h330c1:1" depart="57736.00" departLane="-32978638#0_1" departPos="5.10" departSpeed="0.00" departDelay="0.20" arrival="57787.00" arrivalLane="-266565295#5_2" arrivalPos="172.76" arrivalSpeed="13.58" duration="51.00" routeLength="370.53" waitingTime="14.00" waitingCount="1" stopTime="0.00" timeLoss="24.31" rerouteNo="1" devices="tripinfo_h330c1:1 routing_h330c1:1 emissions_h330c1:1" vType="default_016" speedFactor="1.05" vaporized="">
        <emissions CO_abs="3699.499238" CO2_abs="155640.604055" HC_abs="20.492709" PMx_abs="3.021987" NOx_abs="65.443694" fuel_abs="66.903930" electricity_abs="0"/>
    </tripinfo>
    <tripinfo id="h317c2:1" depart="57707.00" departLane="-32978638#0_1" departPos="5.10" departSpeed="0.00" departDelay="0.10" arrival="57789.00" arrivalLane="-266565295#5_1" arrivalPos="172.76" arrivalSpeed="11.26" duration="82.00" routeLength="370.53" waitingTime="41.00" waitingCount="1" stopTime="0.00" timeLoss="48.96" rerouteNo="1" devices="tripinfo_h317c2:1 routing_h317c2:1 emissions_h317c2:1" vType="default_016" speedFactor="0.84" vaporized="">
        <emissions CO_abs="7582.978957" CO2_abs="196934.967296" HC_abs="39.140460" PMx_abs="4.134077" NOx_abs="85.200354" fuel_abs="84.656768" electricity_abs="0"/>
    </tripinfo>
    <tripinfo id="S5R_frequency1.2" depart="57634.00" departLane="315358250#0_1" departPos="12.10" departSpeed="0.00" departDelay="22.40" arrival="57792.00" arrivalLane="386687235_1" arrivalPos="80.84" arrivalSpeed="13.26" duration="158.00" routeLength="1115.62" waitingTime="40.00" waitingCount="2" stopTime="0.00" timeLoss="76.99" rerouteNo="1" devices="tripinfo_S5R_frequency1.2 routing_S5R_frequency1.2 emissions_S5R_frequency1.2" vType="bus" speedFactor="1.00" vaporized="">
        <emissions CO_abs="3091.433643" CO2_abs="1682990.119020" HC_abs="653.616354" PMx_abs="324.801621" NOx_abs="13763.945028" fuel_abs="717.677349" electricity_abs="0"/>
    </tripinfo>
    <tripinfo id="h11737c1:1" depart="57665.00" departLane="272042143_1" departPos="5.10" departSpeed="0.00" departDelay="1.50" arrival="57796.00" arrivalLane="-315358254#1_1" arrivalPos="137.16" arrivalSpeed="13.52" duration="131.00" routeLength="1596.88" waitingTime="0.00" waitingCount="0" stopTime="0.00" timeLoss="15.10" rerouteNo="1" devices="tripinfo_h11737c1:1 routing_h11737c1:1 emissions_h11737c1:1" vType="default_016" speedFactor="1.00" vaporized="">
        <emissions CO_abs="4085.997315" CO2_abs="326779.645257" HC_abs="26.243698" PMx_abs="5.422357" NOx_abs="130.053346" fuel_abs="140.468453" electricity_abs="0"/>
    </tripinfo>
    <tripinfo id="carIn107282:1" depart="57749.00" departLane="-447569998#1_1" departPos="5.10" departSpeed="0.00" departDelay="0.00" arrival="57798.00" arrivalLane="315358242#0_1" arrivalPos="165.37" arrivalSpeed="12.41" duration="49.00" routeLength="448.50" waitingTime="0.00" waitingCount="0" stopTime="0.00" timeLoss="4.92" rerouteNo="1" devices="tripinfo_carIn107282:1 routing_carIn107282:1 emissions_carIn107282:1" vType="default_016" speedFactor="0.94" vaporized="">
        <emissions CO_abs="1840.329611" CO2_abs="105651.690740" HC_abs="10.823484" PMx_abs="1.702640" NOx_abs="42.320801" fuel_abs="45.415558" electricity_abs="0"/>
    </tripinfo>
    <tripinfo id="carIn27009:1" depart="57673.00" departLane="-447569998#1_1" departPos="5.10" departSpeed="0.00" departDelay="0.50" arrival="57801.00" arrivalLane="-26677539_1" arrivalPos="152.75" arrivalSpeed="8.00" duration="128.00" routeLength="699.63" waitingTime="32.00" waitingCount="1" stopTime="0.00" timeLoss="48.63" rerouteNo="1" devices="tripinfo_carIn27009:1 routing_carIn27009:1 emissions_carIn27009:1" vType="default_015" speedFactor="1.06" vaporized="">
        <emissions CO_abs="8716.528410" CO2_abs="268272.377625" HC_abs="45.892092" PMx_abs="5.012176" NOx_abs="112.739113" fuel_abs="115.322197" electricity_abs="0"/>
    </tripinfo>
    <tripinfo id="carIn86816:1" depart="57617.00" departLane="128361102#0_1" departPos="5.10" departSpeed="0.00" departDelay="0.80" arrival="57802.00" arrivalLane="201956811#0_1" arrivalPos="40.40" arrivalSpeed="15.18" duration="185.00" routeLength="2067.33" waitingTime="20.00" waitingCount="2" stopTime="0.00" timeLoss="49.35" rerouteNo="1" devices="tripinfo_carIn86816:1 routing_carIn86816:1 emissions_carIn86816:1" vType="default_016" speedFactor="1.11" vaporized="">
        <emissions CO_abs="7794.431378" CO2_abs="509645.507032" HC_abs="47.203377" PMx_abs="9.006125" NOx_abs="205.620944" fuel_abs="219.074991" electricity_abs="0"/>
    </tripinfo>
    <tripinfo id="carIn126288:1" depart="57674.00" departLane="272042143_1" departPos="5.10" departSpeed="0.00" departDelay="0.00" arrival="57807.00" arrivalLane="-315358254#1_1" arrivalPos="137.16" arrivalSpeed="14.06" duration="133.00" routeLength="1596.88" waitingTime="4.00" waitingCount="1" stopTime="0.00" timeLoss="20.95" rerouteNo="1" devices="tripinfo_carIn126288:1 routing_carIn126288:1 emissions_carIn126288:1" vType="default_016" speedFactor="1.04" vaporized="">
        <emissions CO_abs="4218.284134" CO2_abs="350191.790285" HC_abs="27.277896" PMx_abs="5.699467" NOx_abs="138.117155" fuel_abs="150.532391" electricity_abs="0"/>
    </tripinfo>
    <tripinfo id="carIn82278:1" depart="57702.00" departLane="-306240162#1_0" departPos="5.10" departSpeed="0.00" departDelay="0.70" arrival="57814.00" arrivalLane="399835085#1_1" arrivalPos="212.23" arrivalSpeed="7.39" duration="112.00" routeLength="1093.26" waitingTime="6.00" waitingCount="1" stopTime="0.00" timeLoss="36.71" rerouteNo="1" devices="tripinfo_carIn82278:1 routing_carIn82278:1 emissions_carIn82278:1" vType="default_016" speedFactor="1.03" vaporized="">
        <emissions CO_abs="6561.124455" CO2_abs="362487.872581" HC_abs="38.427112" PMx_abs="6.972522" NOx_abs="151.154213" fuel_abs="155.818070" electricity_abs="0"/>
    </tripinfo>
    <tripinfo id="h645c1:1" depart="57622.00" departLane="266565295#5_1" departPos="5.10" departSpeed="0.00" departDelay="0.40" arrival="57824.00" arrivalLane="-315358244_2" arrivalPos="33.95" arrivalSpeed="14.70" duration="202.00" routeLength="1910.83" waitingTime="47.00" waitingCount="3" stopTime="0.00" timeLoss="78.41" rerouteNo="1" devices="tripinfo_h645c1:1 routing_h645c1:1 emissions_h645c1:1" vType="default_016" speedFactor="1.13" vaporized="">
        <emissions CO_abs="11977.766954" CO2_abs="575020.208518" HC_abs="67.650899" PMx_abs="10.567598" NOx_abs="234.704994" fuel_abs="247.178882" electricity_abs="0"/>
    </tripinfo>
    <tripinfo id="carIn129809:1" depart="57729.00" departLane="-447569998#1_1" departPos="5.10" departSpeed="0.00" departDelay="1.00" arrival="57824.00" arrivalLane="-315358244_1" arrivalPos="33.95" arrivalSpeed="12.55" duration="95.00" routeLength="706.49" waitingTime="15.00" waitingCount="2" stopTime="0.00" timeLoss="32.57" rerouteNo="1" devices="tripinfo_carIn129809:1 routing_carIn129809:1 emissions_carIn129809:1" vType="default_015" speedFactor="0.98" vaporized="">
        <emissions CO_abs="4211.927087" CO2_abs="206084.071913" HC_abs="23.983504" PMx_abs="3.609017" NOx_abs="84.303692" fuel_abs="88.587642" electricity_abs="0"/>
    </tripinfo>
    <tripinfo id="carIn28951:1" depart="57606.00" departLane="10425609#0_1" departPos="5.10" departSpeed="0.00" departDelay="0.20" arrival="57825.00" arrivalLane="-128361102#1_1" arrivalPos="274.68" arrivalSpeed="13.24" duration="219.00" routeLength="2113.04" waitingTime="38.00" waitingCount="3" stopTime="0.00" timeLoss="69.14" rerouteNo="1" devices="tripinfo_carIn28951:1 routing_carIn28951:1 emissions_carIn28951:1" vType="default_016" speedFactor="1.03" vaporized="">
        <emissions CO_abs="11342.915437" CO2_abs="571679.650689" HC_abs="65.058950" PMx_abs="10.483812" NOx_abs="234.941431" fuel_abs="245.742348" electricity_abs="0"/>
    </tripinfo>
    <tripinfo id="h17600c1:1" depart="57662.00" departLane="272042143_1" departPos="5.10" departSpeed="0.00" departDelay="0.30" arrival="57832.00" arrivalLane="201238729#3_1" arrivalPos="431.02" arrivalSpeed="12.92" duration="170.00" routeLength="2100.26" waitingTime="0.00" waitingCount="0" stopTime="0.00" timeLoss="17.56" rerouteNo="1" devices="tripinfo_h17600c1:1 routing_h17600c1:1 emissions_h17600c1:1" vType="default_016" speedFactor="1.00" vaporized="">
        <emissions CO_abs="4617.155369" CO2_abs="414610.307955" HC_abs="30.669797" PMx_abs="6.421488" NOx_abs="161.333473" fuel_abs="178.223352" electricity_abs="0"/>
    </tripinfo>
    <tripinfo id="carIn12152:1" depart="57647.00" departLane="24599188#0.94_1" departPos="5.10" departSpeed="0.00" departDelay="0.50" arrival="57838.00" arrivalLane="-315358254#1_1" arrivalPos="137.16" arrivalSpeed="12.18" duration="191.00" routeLength="2034.31" waitingTime="2.00" waitingCount="1" stopTime="0.00" timeLoss="20.93" rerouteNo="1" devices="tripinfo_carIn12152:1 routing_carIn12152:1 emissions_carIn12152:1" vType="default_016" speedFactor="0.93" vaporized="">
        <emissions CO_abs="5081.328577" CO2_abs="407640.969266" HC_abs="32.529435" PMx_abs="5.904446" NOx_abs="157.001178" fuel_abs="175.228516" electricity_abs="0"/>
    </tripinfo>
    <tripinfo id="randUni15030:1" depart="57735.00" departLane="386687232#0_1" departPos="5.10" departSpeed="0.00" departDelay="0.10" arrival="57839.00" arrivalLane="26677539_1" arrivalPos="151.98" arrivalSpeed="8.21" duration="104.00" routeLength="919.89" waitingTime="5.00" waitingCount="1" stopTime="0.00" timeLoss="21.09" rerouteNo="1" devices="tripinfo_randUni15030:1 routing_randUni15030:1 emissions_randUni15030:1" vType="random_016" speedFactor="1.01" vaporized="">
        <emissions CO_abs="3809.553607" CO2_abs="225366.131538" HC_abs="22.571817" PMx_abs="3.663320" NOx_abs="90.274474" fuel_abs="96.876021" electricity_abs="0"/>
    </tripinfo>
    <tripinfo id="carIn73855:1" depart="57743.00" departLane="386687232#0_1" departPos="5.10" departSpeed="0.00" departDelay="0.50" arrival="57842.00" arrivalLane="-315358244_1" arrivalPos="33.95" arrivalSpeed="14.21" duration="99.00" routeLength="1157.39" waitingTime="6.00" waitingCount="1" stopTime="0.00" timeLoss="22.79" rerouteNo="1" devices="tripinfo_carIn73855:1 routing_carIn73855:1 emissions_carIn73855:1" vType="default_016" speedFactor="1.11" vaporized="">
        <emissions CO_abs="3903.720778" CO2_abs="272514.414823" HC_abs="24.149451" PMx_abs="4.845385" NOx_abs="110.390168" fuel_abs="117.142112" electricity_abs="0"/>
    </tripinfo>
    <tripinfo id="carIn126378:1" depart="57746.00" departLane="386687232#0_1" departPos="5.10" departSpeed="0.00" departDelay="1.80" arrival="57844.00" arrivalLane="-315358244_1" arrivalPos="33.95" arrivalSpeed="12.60" duration="98.00" routeLength="1157.39" waitingTime="0.00" waitingCount="0" stopTime="0.00" timeLoss="13.48" rerouteNo="1" devices="tripinfo_carIn126378:1 routing_carIn126378:1 emissions_carIn126378:1" vType="default_016" speedFactor="0.99" vaporized="">
        <emissions CO_abs="3177.790585" CO2_abs="252772.455100" HC_abs="20.335567" PMx_abs="4.039713" NOx_abs="99.564796" fuel_abs="108.656211" electricity_abs="0"/>
    </tripinfo>
    <tripinfo id="carIn50326:1" depart="57651.00" departLane="128361102#0_1" departPos="5.10" departSpeed="0.00" departDelay="0.30" arrival="57845.00" arrivalLane="18809673#0_1" arrivalPos="473.56" arrivalSpeed="12.63" duration="194.00" routeLength="1591.07" waitingTime="39.00" waitingCount="1" stopTime="0.00" timeLoss="60.86" rerouteNo="1" devices="tripinfo_carIn50326:1 routing_carIn50326:1 emissions_carIn50326:1" vType="default_016" speedFactor="0.97" vaporized="">
        <emissions CO_abs="10742.708980" CO2_abs="440944.758466" HC_abs="59.152346" PMx_abs="7.761246" NOx_abs="179.825833" fuel_abs="189.546750" electricity_abs="0"/>
    </tripinfo>
    <tripinfo id="h16072c2:3" depart="57663.00" departLane="315358254#0_1" departPos="5.10" departSpeed="0.00" departDelay="2.50" arrival="57854.00" arrivalLane="386687235_1" arrivalPos="80.84" arrivalSpeed="11.68" duration="191.00" routeLength="1611.92" waitingTime="41.00" waitingCount="2" stopTime="0.00" timeLoss="63.58" rerouteNo="1" devices="tripinfo_h16072c2:3 routing_h16072c2:3 emissions_h16072c2:3" vType="default_016" speedFactor="0.93" vaporized="">
        <emissions CO_abs="10157.045118" CO2_abs="437111.620909" HC_abs="56.441033" PMx_abs="7.772077" NOx_abs="178.559892" fuel_abs="187.898501" electricity_abs="0"/>
    </tripinfo>
    <tripinfo id="carIn7949:1" depart="57676.00" departLane="128361109#1_1" departPos="5.10" departSpeed="0.00" departDelay="2.10" arrival="57867.00" arrivalLane="386687235_1" arrivalPos="80.84" arrivalSpeed="14.47" duration="191.00" routeLength="2088.57" waitingTime="40.00" waitingCount="1" stopTime="0.00" timeLoss="56.55" rerouteNo="1" devices="tripinfo_carIn7949:1 routing_carIn7949:1 emissions_carIn7949:1" vType="default_016" speedFactor="1.12" vaporized="">
        <emissions CO_abs="9319.558838" CO2_abs="469261.835889" HC_abs="53.129793" PMx_abs="8.149462" NOx_abs="186.895761" fuel_abs="201.717969" electricity_abs="0"/>
    </tripinfo>
    <tripinfo id="carIn81860:1" depart="57712.00" departLane="128361102#0_1" departPos="5.10" departSpeed="0.00" departDelay="0.60" arrival="57867.00" arrivalLane="-24634517#17_1" arrivalPos="6.43" arrivalSpeed="8.53" duration="155.00" routeLength="1229.64" waitingTime="30.00" waitingCount="3" stopTime="0.00" timeLoss="67.87" rerouteNo="1" devices="tripinfo_carIn81860:1 routing_carIn81860:1 emissions_carIn81860:1" vType="default_016" speedFactor="1.04" vaporized="">
        <emissions CO_abs="7001.903531" CO2_abs="334426.638863" HC_abs="39.671056" PMx_abs="6.062966" NOx_abs="136.985723" fuel_abs="143.757128" electricity_abs="0"/>
    </tripinfo>
    <tripinfo id="carIn107084:1" depart="57601.00" departLane="124812856#0_1" departPos="5.10" departSpeed="0.00" departDelay="0.70" arrival="57871.00" arrivalLane="-128361102#1_1" arrivalPos="274.68" arrivalSpeed="12.12" duration="270.00" routeLength="2250.49" waitingTime="48.00" waitingCount="4" stopTime="0.00" timeLoss="84.28" rerouteNo="1" devices="tripinfo_carIn107084:1 routing_carIn107084:1 emissions_carIn107084:1" vType="default_016" speedFactor="0.89" vaporized="">
        <emissions CO_abs="12809.168925" CO2_abs="602020.924665" HC_abs="72.315151" PMx_abs="10.324783" NOx_abs="244.131627" fuel_abs="258.786558" electricity_abs="0"/>
    </tripinfo>
    <tripinfo id="carIn77943:1" depart="57607.00" departLane="124812856#0_1" departPos="5.10" departSpeed="0.00" departDelay="1.50" arrival="57873.00" arrivalLane="-128361102#1_1" arrivalPos="274.68" arrivalSpeed="12.10" duration="266.00" routeLength="2250.49" waitingTime="44.00" waitingCount="3" stopTime="0.00" timeLoss="81.74" rerouteNo="1" devices="tripinfo_carIn77943:1 routing_carIn77943:1 emissions_carIn77943:1" vType="default_016" speedFactor="0.89" vaporized="">
        <emissions CO_abs="13313.063029" CO2_abs="599642.716338" HC_abs="74.592879" PMx_abs="10.572685" NOx_abs="245.047682" fuel_abs="257.764286" electricity_abs="0"/>
    </tripinfo>
    <tripinfo id="carIn77438:1" depart="57613.00" departLane="124812856#0_1" departPos="5.10" departSpeed="0.00" departDelay="0.10" arrival="57874.00" arrivalLane="-128361102#1_1" arrivalPos="274.68" arrivalSpeed="13.13" duration="261.00" routeLength="2250.49" waitingTime="36.00" waitingCount="1" stopTime="0.00" timeLoss="104.30" rerouteNo="1" devices="tripinfo_carIn77438:1 routing_carIn77438:1 emissions_carIn77438:1" vType="default_016" speedFactor="1.05" vaporized="">
        <emissions CO_abs="13262.187245" CO2_abs="634268.109839" HC_abs="75.223966" PMx_abs="11.336076" NOx_abs="260.093114" fuel_abs="272.647540" electricity_abs="0"/>
    </tripinfo>
    <tripinfo id="h6541c1:3" depart="57727.00" departLane="201950247#3_1" departPos="5.10" departSpeed="0.00" departDelay="0.00" arrival="57875.00" arrivalLane="32978638#0_1" arrivalPos="49.29" arrivalSpeed="10.63" duration="148.00" routeLength="1176.17" waitingTime="2.00" waitingCount="2" stopTime="0.00" timeLoss="26.58" rerouteNo="1" devices="tripinfo_h6541c1:3 routing_h6541c1:3 emissions_h6541c1:3" vType="default_016" speedFactor="0.84" vaporized="">
        <emissions CO_abs="5985.623105" CO2_abs="311177.049859" HC_abs="34.437379" PMx_abs="5.070971" NOx_abs="125.586207" fuel_abs="133.763266" electricity_abs="0"/>
    </tripinfo>
    <tripinfo id="carIn46110:1" depart="57684.00" departLane="315358244_1" departPos="5.10" departSpeed="0.00" departDelay="1.20" arrival="57876.00" arrivalLane="32978638#0_2" arrivalPos="49.29" arrivalSpeed="12.77" duration="192.00" routeLength="1768.36" waitingTime="27.00" waitingCount="2" stopTime="0.00" timeLoss="58.58" rerouteNo="1" devices="tripinfo_carIn46110:1 routing_carIn46110:1 emissions_carIn46110:1" vType="default_016" speedFactor="0.97" vaporized="">
        <emissions CO_abs="8838.771654" CO2_abs="468050.846197" HC_abs="51.175866" PMx_abs="8.080289" NOx_abs="189.594957" fuel_abs="201.196788" electricity_abs="0"/>
    </tripinfo>
    <tripinfo id="randUni31145:1" depart="57814.00" departLane="10425609#0_1" departPos="5.10" departSpeed="0.00" departDelay="0.30" arrival="57876.00" arrivalLane="201956810_1" arrivalPos="71.65" arrivalSpeed="11.46" duration="62.00" routeLength="255.78" waitingTime="29.00" waitingCount="1" stopTime="0.00" timeLoss="40.04" rerouteNo="1" devices="tripinfo_randUni31145:1 routing_randUni31145:1 emissions_randUni31145:1" vType="random_016" speedFactor="0.90" vaporized="">