<?xml version="1.0" encoding="UTF-8"?>

<!-- generated on Thu Nov  4 13:44:33 2021 by Eclipse SUMO sumo Version 1.9.0
<configuration xmlns:xsi="http://www.w3.org/2001/XMLSchema-instance" xsi:noNamespaceSchemaLocation="http://sumo.dlr.de/xsd/sumoConfiguration.xsd">

    <input>
        <net-file value="/mainfs/home/bk2g18/RESCO/environments/ingolstadt21/ingolstadt21.net.xml"/>
        <route-files value="/mainfs/home/bk2g18/RESCO/environments/ingolstadt21/ingolstadt21.rou.xml"/>
    </input>

    <output>
        <tripinfo-output value="/mainfs/home/bk2g18/RESCO/logs/MPLight-tr0-ingolstadt21-21-mplight_full-pressure/tripinfo_45.xml"/>
        <tripinfo-output.write-unfinished value="true"/>
    </output>

    <time>
        <begin value="57600"/>
        <end value="61200"/>
    </time>

    <processing>
        <time-to-teleport value="-1"/>
    </processing>

    <report>
        <xml-validation value="never"/>
        <xml-validation.routes value="never"/>
        <no-warnings value="true"/>
        <no-step-log value="true"/>
    </report>

    <emissions>
        <device.emissions.probability value="1"/>
    </emissions>

    <traci_server>
        <remote-port value="57060"/>
    </traci_server>

    <random_number>
        <random value="true"/>
    </random_number>

</configuration>
-->

<tripinfos xmlns:xsi="http://www.w3.org/2001/XMLSchema-instance" xsi:noNamespaceSchemaLocation="http://sumo.dlr.de/xsd/tripinfo_file.xsd">
    <tripinfo id="h15454c2:3" depart="57612.00" departLane="24608844_1" departPos="5.10" departSpeed="0.00" departDelay="0.50" arrival="57663.00" arrivalLane="32978638#0_1" arrivalPos="49.29" arrivalSpeed="11.03" duration="51.00" routeLength="354.79" waitingTime="0.00" waitingCount="0" stopTime="0.00" timeLoss="10.28" rerouteNo="1" devices="tripinfo_h15454c2:3 routing_h15454c2:3 emissions_h15454c2:3" vType="default_016" speedFactor="0.84" vaporized="">
        <emissions CO_abs="2649.981574" CO2_abs="117381.150288" HC_abs="14.780839" PMx_abs="2.018834" NOx_abs="48.283961" fuel_abs="50.457875" electricity_abs="0"/>
    </tripinfo>
    <tripinfo id="carIn60260:1" depart="57606.00" departLane="315358254#0_1" departPos="5.10" departSpeed="0.00" departDelay="0.90" arrival="57668.00" arrivalLane="399835085#1_1" arrivalPos="212.23" arrivalSpeed="7.49" duration="62.00" routeLength="430.98" waitingTime="0.00" waitingCount="0" stopTime="0.00" timeLoss="11.11" rerouteNo="1" devices="tripinfo_carIn60260:1 routing_carIn60260:1 emissions_carIn60260:1" vType="default_016" speedFactor="0.91" vaporized="">
        <emissions CO_abs="2805.133639" CO2_abs="126294.729236" HC_abs="15.687660" PMx_abs="2.134841" NOx_abs="51.708354" fuel_abs="54.289515" electricity_abs="0"/>
    </tripinfo>
    <tripinfo id="carIn53971:1" depart="57640.00" departLane="272042143_1" departPos="5.10" departSpeed="0.00" departDelay="0.80" arrival="57702.00" arrivalLane="24634414#1_1" arrivalPos="162.19" arrivalSpeed="7.26" duration="62.00" routeLength="493.04" waitingTime="0.00" waitingCount="0" stopTime="0.00" timeLoss="9.74" rerouteNo="1" devices="tripinfo_carIn53971:1 routing_carIn53971:1 emissions_carIn53971:1" vType="default_016" speedFactor="0.88" vaporized="">
        <emissions CO_abs="2679.556308" CO2_abs="137233.962511" HC_abs="15.370229" PMx_abs="2.253084" NOx_abs="55.522732" fuel_abs="58.991705" electricity_abs="0"/>
    </tripinfo>
    <tripinfo id="h3688c1:1" depart="57625.00" departLane="201201950#1_1" departPos="5.10" departSpeed="0.00" departDelay="0.00" arrival="57706.00" arrivalLane="32978638#0_1" arrivalPos="49.29" arrivalSpeed="15.20" duration="81.00" routeLength="1089.75" waitingTime="0.00" waitingCount="0" stopTime="0.00" timeLoss="13.25" rerouteNo="1" devices="tripinfo_h3688c1:1 routing_h3688c1:1 emissions_h3688c1:1" vType="default_016" speedFactor="1.18" vaporized="">
        <emissions CO_abs="3606.402568" CO2_abs="281519.816465" HC_abs="22.886084" PMx_abs="5.060414" NOx_abs="113.872526" fuel_abs="121.012720" electricity_abs="0"/>
    </tripinfo>
    <tripinfo id="h7800c1:5" depart="57696.00" departLane="-447569998#1_1" departPos="5.10" departSpeed="0.00" departDelay="0.00" arrival="57718.00" arrivalLane="-447569998#1_1" arrivalPos="180.76" arrivalSpeed="8.83" duration="22.00" routeLength="175.66" waitingTime="0.00" waitingCount="0" stopTime="0.00" timeLoss="2.86" rerouteNo="1" devices="tripinfo_h7800c1:5 routing_h7800c1:5 emissions_h7800c1:5" vType="default_016" speedFactor="1.12" vaporized="">
        <emissions CO_abs="1130.263398" CO2_abs="56357.658945" HC_abs="6.445744" PMx_abs="0.923619" NOx_abs="22.859123" fuel_abs="24.226053" electricity_abs="0"/>
    </tripinfo>
    <tripinfo id="h12244c1:3" depart="57612.00" departLane="315358244_1" departPos="5.10" departSpeed="0.00" departDelay="0.40" arrival="57744.00" arrivalLane="386687235_1" arrivalPos="80.84" arrivalSpeed="15.60" duration="132.00" routeLength="1186.14" waitingTime="32.00" waitingCount="2" stopTime="0.00" timeLoss="56.01" rerouteNo="1" devices="tripinfo_h12244c1:3 routing_h12244c1:3 emissions_h12244c1:3" vType="default_016" speedFactor="1.14" vaporized="">
        <emissions CO_abs="7803.054780" CO2_abs="359006.981113" HC_abs="43.919437" PMx_abs="6.883697" NOx_abs="149.224735" fuel_abs="154.322961" electricity_abs="0"/>
    </tripinfo>
    <tripinfo id="h9563c2:5" depart="57631.00" departLane="315358244_1" departPos="5.10" departSpeed="0.00" departDelay="0.70" arrival="57748.00" arrivalLane="386687235_1" arrivalPos="80.84" arrivalSpeed="14.43" duration="117.00" routeLength="1186.14" waitingTime="18.00" waitingCount="1" stopTime="0.00" timeLoss="36.94" rerouteNo="1" devices="tripinfo_h9563c2:5 routing_h9563c2:5 emissions_h9563c2:5" vType="default_016" speedFactor="1.08" vaporized="">
        <emissions CO_abs="5592.692662" CO2_abs="316160.013064" HC_abs="32.769230" PMx_abs="5.550054" NOx_abs="127.563769" fuel_abs="135.904475" electricity_abs="0"/>
    </tripinfo>
    <tripinfo id="carIn30817:1" depart="57681.00" departLane="315358244_1" departPos="5.10" departSpeed="0.00" departDelay="0.20" arrival="57759.00" arrivalLane="447569997#1_1" arrivalPos="180.93" arrivalSpeed="9.01" duration="78.00" routeLength="718.04" waitingTime="9.00" waitingCount="1" stopTime="0.00" timeLoss="21.43" rerouteNo="1" devices="tripinfo_carIn30817:1 routing_carIn30817:1 emissions_carIn30817:1" vType="default_016" speedFactor="1.09" vaporized="">
        <emissions CO_abs="3237.786057" CO2_abs="178402.626037" HC_abs="18.902126" PMx_abs="3.031232" NOx_abs="71.899428" fuel_abs="76.688292" electricity_abs="0"/>
    </tripinfo>
    <tripinfo id="carIn121703:1" depart="57647.00" departLane="386687232#0_1" departPos="5.10" departSpeed="0.00" departDelay="0.30" arrival="57763.00" arrivalLane="-315358244_1" arrivalPos="33.95" arrivalSpeed="13.95" duration="116.00" routeLength="1157.39" waitingTime="22.00" waitingCount="1" stopTime="0.00" timeLoss="36.59" rerouteNo="1" devices="tripinfo_carIn121703:1 routing_carIn121703:1 emissions_carIn121703:1" vType="default_016" speedFactor="1.06" vaporized="">
        <emissions CO_abs="6481.520736" CO2_abs="308175.465465" HC_abs="36.716226" PMx_abs="5.708594" NOx_abs="126.820048" fuel_abs="132.472620" electricity_abs="0"/>
    </tripinfo>
    <tripinfo id="h4538c1:1" depart="57701.00" departLane="-10427692#1_1" departPos="5.10" departSpeed="0.00" departDelay="0.00" arrival="57764.00" arrivalLane="-128361102#1_1" arrivalPos="274.68" arrivalSpeed="14.72" duration="63.00" routeLength="440.74" waitingTime="24.00" waitingCount="1" stopTime="0.00" timeLoss="33.62" rerouteNo="1" devices="tripinfo_h4538c1:1 routing_h4538c1:1 emissions_h4538c1:1" vType="default_016" speedFactor="1.10" vaporized="">
        <emissions CO_abs="4942.953626" CO2_abs="174629.095017" HC_abs="26.565323" PMx_abs="3.430731" NOx_abs="73.246688" fuel_abs="75.067012" electricity_abs="0"/>
    </tripinfo>
    <tripinfo id="h317c2:1" depart="57707.00" departLane="-32978638#0_1" departPos="5.10" departSpeed="0.00" departDelay="0.10" arrival="57764.00" arrivalLane="-266565295#5_1" arrivalPos="172.76" arrivalSpeed="14.43" duration="57.00" routeLength="370.53" waitingTime="21.00" waitingCount="1" stopTime="0.00" timeLoss="32.18" rerouteNo="1" devices="tripinfo_h317c2:1 routing_h317c2:1 emissions_h317c2:1" vType="default_016" speedFactor="1.12" vaporized="">
        <emissions CO_abs="4668.368965" CO2_abs="165426.130198" HC_abs="25.115929" PMx_abs="3.330467" NOx_abs="70.237329" fuel_abs="71.110807" electricity_abs="0"/>
    </tripinfo>
    <tripinfo id="S5R_frequency1.2" depart="57612.00" departLane="315358250#0_1" departPos="12.10" departSpeed="0.00" departDelay="0.40" arrival="57767.00" arrivalLane="386687235_1" arrivalPos="80.84" arrivalSpeed="13.39" duration="155.00" routeLength="1115.62" waitingTime="40.00" waitingCount="3" stopTime="0.00" timeLoss="73.30" rerouteNo="1" devices="tripinfo_S5R_frequency1.2 routing_S5R_frequency1.2 emissions_S5R_frequency1.2" vType="bus" speedFactor="1.00" vaporized="">
        <emissions CO_abs="2926.194128" CO2_abs="1641551.749796" HC_abs="614.879921" PMx_abs="308.480002" NOx_abs="13274.302860" fuel_abs="700.024957" electricity_abs="0"/>
    </tripinfo>
    <tripinfo id="h3326c1:2" depart="57656.00" departLane="22716069#0_1" departPos="5.10" departSpeed="0.00" departDelay="0.00" arrival="57767.00" arrivalLane="24634517#13_1" arrivalPos="111.62" arrivalSpeed="13.46" duration="111.00" routeLength="1312.81" waitingTime="0.00" waitingCount="0" stopTime="0.00" timeLoss="15.11" rerouteNo="1" devices="tripinfo_h3326c1:2 routing_h3326c1:2 emissions_h3326c1:2" vType="default_016" speedFactor="1.02" vaporized="">
        <emissions CO_abs="4105.082504" CO2_abs="309407.612111" HC_abs="25.926863" PMx_abs="5.244656" NOx_abs="124.109068" fuel_abs="133.000971" electricity_abs="0"/>
    </tripinfo>
    <tripinfo id="carIn80064:1" depart="57603.00" departLane="128361109#1_1" departPos="5.10" departSpeed="0.00" departDelay="0.40" arrival="57770.00" arrivalLane="-315358254#1_1" arrivalPos="137.16" arrivalSpeed="15.09" duration="167.00" routeLength="1587.97" waitingTime="52.00" waitingCount="2" stopTime="0.00" timeLoss="86.24" rerouteNo="1" devices="tripinfo_carIn80064:1 routing_carIn80064:1 emissions_carIn80064:1" vType="default_016" speedFactor="1.10" vaporized="">
        <emissions CO_abs="15051.348906" CO2_abs="620597.236612" HC_abs="83.414418" PMx_abs="13.016491" NOx_abs="263.258667" fuel_abs="266.770172" electricity_abs="0"/>
    </tripinfo>
    <tripinfo id="h330c1:1" depart="57736.00" departLane="-32978638#0_1" departPos="5.10" departSpeed="0.00" departDelay="0.20" arrival="57773.00" arrivalLane="-266565295#5_1" arrivalPos="172.76" arrivalSpeed="10.98" duration="37.00" routeLength="370.53" waitingTime="0.00" waitingCount="0" stopTime="0.00" timeLoss="5.78" rerouteNo="1" devices="tripinfo_h330c1:1 routing_h330c1:1 emissions_h330c1:1" vType="default_016" speedFactor="0.88" vaporized="">
        <emissions CO_abs="1624.408436" CO2_abs="98219.965049" HC_abs="9.702446" PMx_abs="1.743760" NOx_abs="40.359920" fuel_abs="42.220631" electricity_abs="0"/>
    </tripinfo>
    <tripinfo id="h7181c1:1" depart="57660.00" departLane="315358254#0_1" departPos="5.10" departSpeed="0.00" departDelay="0.10" arrival="57781.00" arrivalLane="306240162#0_0" arrivalPos="220.43" arrivalSpeed="15.53" duration="121.00" routeLength="932.35" waitingTime="39.00" waitingCount="3" stopTime="0.00" timeLoss="69.33" rerouteNo="1" devices="tripinfo_h7181c1:1 routing_h7181c1:1 emissions_h7181c1:1" vType="default_016" speedFactor="1.00" vaporized="">
        <emissions CO_abs="9447.847207" CO2_abs="392347.616964" HC_abs="52.326672" PMx_abs="8.136256" NOx_abs="166.934807" fuel_abs="168.654658" electricity_abs="0"/>
    </tripinfo>
    <tripinfo id="h3568c1:3" depart="57656.00" departLane="266565295#5_1" departPos="5.10" departSpeed="0.00" departDelay="0.80" arrival="57784.00" arrivalLane="-24634415_1" arrivalPos="62.03" arrivalSpeed="14.11" duration="128.00" routeLength="807.40" waitingTime="48.00" waitingCount="1" stopTime="0.00" timeLoss="64.98" rerouteNo="1" devices="tripinfo_h3568c1:3 routing_h3568c1:3 emissions_h3568c1:3" vType="default_016" speedFactor="1.02" vaporized="">
        <emissions CO_abs="10893.915717" CO2_abs="360815.150644" HC_abs="58.100487" PMx_abs="7.292028" NOx_abs="153.680492" fuel_abs="155.102147" electricity_abs="0"/>
    </tripinfo>
    <tripinfo id="carIn27009:1" depart="57673.00" departLane="-447569998#1_1" departPos="5.10" departSpeed="0.00" departDelay="0.50" arrival="57787.00" arrivalLane="-26677539_1" arrivalPos="152.75" arrivalSpeed="7.53" duration="114.00" routeLength="699.63" waitingTime="11.00" waitingCount="1" stopTime="0.00" timeLoss="25.99" rerouteNo="1" devices="tripinfo_carIn27009:1 routing_carIn27009:1 emissions_carIn27009:1" vType="default_015" speedFactor="0.95" vaporized="">
        <emissions CO_abs="4994.732274" CO2_abs="197710.941868" HC_abs="27.276412" PMx_abs="3.302856" NOx_abs="80.934934" fuel_abs="84.989301" electricity_abs="0"/>
    </tripinfo>
    <tripinfo id="h11737c1:1" depart="57665.00" departLane="272042143_1" departPos="5.10" departSpeed="0.00" departDelay="1.50" arrival="57796.00" arrivalLane="-315358254#1_1" arrivalPos="137.16" arrivalSpeed="13.04" duration="131.00" routeLength="1596.88" waitingTime="0.00" waitingCount="0" stopTime="0.00" timeLoss="14.59" rerouteNo="1" devices="tripinfo_h11737c1:1 routing_h11737c1:1 emissions_h11737c1:1" vType="default_016" speedFactor="1.00" vaporized="">
        <emissions CO_abs="4058.609924" CO2_abs="339937.867447" HC_abs="26.354849" PMx_abs="5.435007" NOx_abs="133.714011" fuel_abs="146.124772" electricity_abs="0"/>
    </tripinfo>
    <tripinfo id="carIn126288:1" depart="57674.00" departLane="272042143_1" departPos="5.10" departSpeed="0.00" departDelay="0.00" arrival="57798.00" arrivalLane="-315358254#1_1" arrivalPos="137.16" arrivalSpeed="13.79" duration="124.00" routeLength="1596.88" waitingTime="0.00" waitingCount="0" stopTime="0.00" timeLoss="13.72" rerouteNo="1" devices="tripinfo_carIn126288:1 routing_carIn126288:1 emissions_carIn126288:1" vType="default_016" speedFactor="1.06" vaporized="">
        <emissions CO_abs="3651.331077" CO2_abs="314127.197694" HC_abs="23.881773" PMx_abs="5.198222" NOx_abs="124.284554" fuel_abs="135.029545" electricity_abs="0"/>
    </tripinfo>
    <tripinfo id="h5979c1:5" depart="57669.00" departLane="399835085#1_1" departPos="5.10" departSpeed="0.00" departDelay="0.00" arrival="57803.00" arrivalLane="-315358254#1_1" arrivalPos="137.16" arrivalSpeed="10.61" duration="134.00" routeLength="659.33" waitingTime="29.00" waitingCount="2" stopTime="0.00" timeLoss="44.56" rerouteNo="1" devices="tripinfo_h5979c1:5 routing_h5979c1:5 emissions_h5979c1:5" vType="default_016" speedFactor="0.81" vaporized="">
        <emissions CO_abs="8203.147306" CO2_abs="238988.507290" HC_abs="42.869731" PMx_abs="4.514807" NOx_abs="101.015663" fuel_abs="102.734217" electricity_abs="0"/>
    </tripinfo>
    <tripinfo id="carIn107282:1" depart="57749.00" departLane="-447569998#1_1" departPos="5.10" departSpeed="0.00" departDelay="0.00" arrival="57806.00" arrivalLane="315358242#0_1" arrivalPos="165.37" arrivalSpeed="13.24" duration="57.00" routeLength="448.50" waitingTime="5.00" waitingCount="1" stopTime="0.00" timeLoss="15.22" rerouteNo="1" devices="tripinfo_carIn107282:1 routing_carIn107282:1 emissions_carIn107282:1" vType="default_016" speedFactor="1.00" vaporized="">
        <emissions CO_abs="2546.665199" CO2_abs="132414.584838" HC_abs="14.664550" PMx_abs="2.200712" NOx_abs="53.456016" fuel_abs="56.919992" electricity_abs="0"/>
    </tripinfo>
    <tripinfo id="carIn22761:1" depart="57616.00" departLane="-306240162#1_0" departPos="5.10" departSpeed="0.00" departDelay="2.10" arrival="57818.00" arrivalLane="399835085#1_1" arrivalPos="212.23" arrivalSpeed="6.46" duration="202.00" routeLength="1093.26" waitingTime="90.00" waitingCount="2" stopTime="0.00" timeLoss="117.17" rerouteNo="1" devices="tripinfo_carIn22761:1 routing_carIn22761:1 emissions_carIn22761:1" vType="default_016" speedFactor="0.91" vaporized="">
        <emissions CO_abs="19101.426156" CO2_abs="534545.424769" HC_abs="99.557533" PMx_abs="11.184842" NOx_abs="229.427855" fuel_abs="229.784902" electricity_abs="0"/>
    </tripinfo>
    <tripinfo id="carIn12858:1" depart="57661.00" departLane="128361109#1_1" departPos="5.10" departSpeed="0.00" departDelay="0.90" arrival="57820.00" arrivalLane="399835085#1_1" arrivalPos="212.23" arrivalSpeed="8.23" duration="159.00" routeLength="1738.12" waitingTime="13.00" waitingCount="1" stopTime="0.00" timeLoss="44.75" rerouteNo="1" devices="tripinfo_carIn12858:1 routing_carIn12858:1 emissions_carIn12858:1" vType="default_016" speedFactor="1.01" vaporized="">
        <emissions CO_abs="9122.886977" CO2_abs="508997.262060" HC_abs="53.658804" PMx_abs="9.842597" NOx_abs="210.975388" fuel_abs="218.796231" electricity_abs="0"/>
    </tripinfo>
    <tripinfo id="carIn12365:1" depart="57713.00" departLane="315358244_1" departPos="5.10" departSpeed="0.00" departDelay="0.50" arrival="57820.00" arrivalLane="447569997#1_1" arrivalPos="180.93" arrivalSpeed="8.67" duration="107.00" routeLength="718.04" waitingTime="32.00" waitingCount="2" stopTime="0.00" timeLoss="53.84" rerouteNo="1" devices="tripinfo_carIn12365:1 routing_carIn12365:1 emissions_carIn12365:1" vType="default_016" speedFactor="1.17" vaporized="">
        <emissions CO_abs="7582.574301" CO2_abs="272610.854769" HC_abs="40.889123" PMx_abs="5.246219" NOx_abs="114.266612" fuel_abs="117.185981" electricity_abs="0"/>
    </tripinfo>
    <tripinfo id="randUni15030:1" depart="57735.00" departLane="386687232#0_1" departPos="5.10" departSpeed="0.00" departDelay="0.10" arrival="57826.00" arrivalLane="26677539_1" arrivalPos="151.98" arrivalSpeed="9.66" duration="91.00" routeLength="919.89" waitingTime="6.00" waitingCount="1" stopTime="0.00" timeLoss="21.33" rerouteNo="1" devices="tripinfo_randUni15030:1 routing_randUni15030:1 emissions_randUni15030:1" vType="random_016" speedFactor="1.21" vaporized="">
        <emissions CO_abs="3838.798102" CO2_abs="246664.542546" HC_abs="23.205676" PMx_abs="4.342035" NOx_abs="100.321632" fuel_abs="106.030629" electricity_abs="0"/>
    </tripinfo>
    <tripinfo id="h17600c1:1" depart="57662.00" departLane="272042143_1" departPos="5.10" departSpeed="0.00" departDelay="0.30" arrival="57831.00" arrivalLane="201238729#3_1" arrivalPos="431.02" arrivalSpeed="13.87" duration="169.00" routeLength="2100.26" waitingTime="8.00" waitingCount="1" stopTime="0.00" timeLoss="25.76" rerouteNo="1" devices="tripinfo_h17600c1:1 routing_h17600c1:1 emissions_h17600c1:1" vType="default_016" speedFactor="1.06" vaporized="">
        <emissions CO_abs="5046.577289" CO2_abs="396644.496614" HC_abs="32.215285" PMx_abs="6.559837" NOx_abs="156.594406" fuel_abs="170.500550" electricity_abs="0"/>
    </tripinfo>
    <tripinfo id="h645c1:1" depart="57622.00" departLane="266565295#5_1" departPos="5.10" departSpeed="0.00" departDelay="0.40" arrival="57833.00" arrivalLane="-315358244_2" arrivalPos="33.95" arrivalSpeed="13.48" duration="211.00" routeLength="1910.83" waitingTime="40.00" waitingCount="3" stopTime="0.00" timeLoss="72.22" rerouteNo="1" devices="tripinfo_h645c1:1 routing_h645c1:1 emissions_h645c1:1" vType="default_016" speedFactor="1.00" vaporized="">
        <emissions CO_abs="9641.831384" CO2_abs="485934.126611" HC_abs="55.226852" PMx_abs="8.495001" NOx_abs="196.722084" fuel_abs="208.884424" electricity_abs="0"/>
    </tripinfo>
    <tripinfo id="carIn81860:1" depart="57712.00" departLane="128361102#0_1" departPos="5.10" departSpeed="0.00" departDelay="0.60" arrival="57833.00" arrivalLane="-24634517#17_1" arrivalPos="6.43" arrivalSpeed="8.05" duration="121.00" routeLength="1229.64" waitingTime="15.00" waitingCount="1" stopTime="0.00" timeLoss="37.50" rerouteNo="1" devices="tripinfo_carIn81860:1 routing_carIn81860:1 emissions_carIn81860:1" vType="default_016" speedFactor="1.08" vaporized="">
        <emissions CO_abs="5940.686982" CO2_abs="313631.514177" HC_abs="34.430311" PMx_abs="5.800392" NOx_abs="129.137688" fuel_abs="134.817408" electricity_abs="0"/>
    </tripinfo>
    <tripinfo id="carIn129809:1" depart="57729.00" departLane="-447569998#1_1" departPos="5.10" departSpeed="0.00" departDelay="1.00" arrival="57834.00" arrivalLane="-315358244_1" arrivalPos="33.95" arrivalSpeed="12.45" duration="105.00" routeLength="706.49" waitingTime="27.00" waitingCount="1" stopTime="0.00" timeLoss="42.08" rerouteNo="1" devices="tripinfo_carIn129809:1 routing_carIn129809:1 emissions_carIn129809:1" vType="default_015" speedFactor="0.97" vaporized="">
        <emissions CO_abs="6811.288784" CO2_abs="245496.998372" HC_abs="36.731811" PMx_abs="4.535869" NOx_abs="101.790447" fuel_abs="105.530939" electricity_abs="0"/>
    </tripinfo>
    <tripinfo id="carIn73855:1" depart="57743.00" departLane="386687232#0_1" departPos="5.10" departSpeed="0.00" departDelay="0.50" arrival="57835.00" arrivalLane="-315358244_1" arrivalPos="33.95" arrivalSpeed="14.91" duration="92.00" routeLength="1157.39" waitingTime="0.00" waitingCount="0" stopTime="0.00" timeLoss="14.14" rerouteNo="1" devices="tripinfo_carIn73855:1 routing_carIn73855:1 emissions_carIn73855:1" vType="default_016" speedFactor="1.08" vaporized="">
        <emissions CO_abs="3263.398681" CO2_abs="260844.813124" HC_abs="20.872634" PMx_abs="4.386448" NOx_abs="103.743287" fuel_abs="112.125856" electricity_abs="0"/>
    </tripinfo>
    <tripinfo id="carIn8642:1" depart="57774.00" departLane="-447569998#1_1" departPos="5.10" departSpeed="0.00" departDelay="0.90" arrival="57844.00" arrivalLane="-315358244_1" arrivalPos="33.95" arrivalSpeed="14.16" duration="70.00" routeLength="706.49" waitingTime="1.00" waitingCount="1" stopTime="0.00" timeLoss="10.85" rerouteNo="1" devices="tripinfo_carIn8642:1 routing_carIn8642:1 emissions_carIn8642:1" vType="default_016" speedFactor="1.02" vaporized="">
        <emissions CO_abs="2467.009852" CO2_abs="157164.985172" HC_abs="14.887806" PMx_abs="2.550659" NOx_abs="62.568086" fuel_abs="67.558916" electricity_abs="0"/>
    </tripinfo>
    <tripinfo id="h17549c1:1" depart="57680.00" departLane="-447569998#1_1" departPos="5.10" departSpeed="0.00" departDelay="0.00" arrival="57845.00" arrivalLane="-315358254#1_1" arrivalPos="137.16" arrivalSpeed="15.17" duration="165.00" routeLength="1746.60" waitingTime="16.00" waitingCount="3" stopTime="0.00" timeLoss="42.38" rerouteNo="1" devices="tripinfo_h17549c1:1 routing_h17549c1:1 emissions_h17549c1:1" vType="default_016" speedFactor="1.11" vaporized="">
        <emissions CO_abs="5767.749663" CO2_abs="414898.196115" HC_abs="35.841735" PMx_abs="7.115030" NOx_abs="166.157464" fuel_abs="178.346973" electricity_abs="0"/>
    </tripinfo>
    <tripinfo id="carIn118591:1" depart="57689.00" departLane="315358244_1" departPos="5.10" departSpeed="0.00" departDelay="0.20" arrival="57845.00" arrivalLane="386687235_1" arrivalPos="80.84" arrivalSpeed="14.49" duration="156.00" routeLength="1186.14" waitingTime="55.00" waitingCount="2" stopTime="0.00" timeLoss="74.11" rerouteNo="1" devices="tripinfo_carIn118591:1 routing_carIn118591:1 emissions_carIn118591:1" vType="default_016" speedFactor="1.06" vaporized="">
        <emissions CO_abs="11494.725273" CO2_abs="396746.805148" HC_abs="61.474192" PMx_abs="7.761771" NOx_abs="166.114912" fuel_abs="170.548010" electricity_abs="0"/>
    </tripinfo>
    <tripinfo id="h3154c1:1" depart="57658.00" departLane="24634507_1" departPos="5.10" departSpeed="0.00" departDelay="0.00" arrival="57856.00" arrivalLane="-266565295#5_1" arrivalPos="172.76" arrivalSpeed="13.53" duration="198.00" routeLength="1206.22" waitingTime="90.00" waitingCount="2" stopTime="0.00" timeLoss="112.93" rerouteNo="1" devices="tripinfo_h3154c1:1 routing_h3154c1:1 emissions_h3154c1:1" vType="default_016" speedFactor="1.04" vaporized="">
        <emissions CO_abs="18198.831109" CO2_abs="539566.494712" HC_abs="95.523729" PMx_abs="11.123174" NOx_abs="230.496445" fuel_abs="231.942630" electricity_abs="0"/>
    </tripinfo>
    <tripinfo id="50R_frequency3.17" depart="57674.00" departLane="-18809673#6_1" departPos="12.10" departSpeed="0.00" departDelay="0.70" arrival="57857.00" arrivalLane="201956811#0_1" arrivalPos="40.40" arrivalSpeed="13.86" duration="183.00" routeLength="1954.47" waitingTime="14.00" waitingCount="1" stopTime="0.00" timeLoss="38.55" rerouteNo="1" devices="tripinfo_50R_frequency3.17 routing_50R_frequency3.17 emissions_50R_frequency3.17" vType="bus" speedFactor="1.00" vaporized="">
        <emissions CO_abs="3560.603323" CO2_abs="2188941.997767" HC_abs="754.874662" PMx_abs="380.855913" NOx_abs="17096.441154" fuel_abs="933.547102" electricity_abs="0"/>
    </tripinfo>
    <tripinfo id="carIn86816:1" depart="57617.00" departLane="128361102#0_1" departPos="5.10" departSpeed="0.00" departDelay="0.80" arrival="57862.00" arrivalLane="201956811#0_1" arrivalPos="40.40" arrivalSpeed="16.46" duration="245.00" routeLength="2067.33" waitingTime="93.00" waitingCount="1" stopTime="0.00" timeLoss="118.08" rerouteNo="1" devices="tripinfo_carIn86816:1 routing_carIn86816:1 emissions_carIn86816:1" vType="default_016" speedFactor="1.19" vaporized="">
        <emissions CO_abs="20547.663784" CO2_abs="697429.389482" HC_abs="109.725802" PMx_abs="14.237487" NOx_abs="294.523401" fuel_abs="299.800786" electricity_abs="0"/>
    </tripinfo>
    <tripinfo id="carIn50326:1" depart="57651.00" departLane="128361102#0_1" departPos="5.10" departSpeed="0.00" departDelay="0.30" arrival="57862.00" arrivalLane="18809673#0_1" arrivalPos="473.56" arrivalSpeed="12.72" duration="211.00" routeLength="1591.07" waitingTime="60.00" waitingCount="1" stopTime="0.00" timeLoss="81.98" rerouteNo="1" devices="tripinfo_carIn50326:1 routing_carIn50326:1 emissions_carIn50326:1" vType="default_016" speedFactor="1.01" vaporized="">
        <emissions CO_abs="14093.820922" CO2_abs="511114.661937" HC_abs="76.059314" PMx_abs="9.571522" NOx_abs="212.058325" fuel_abs="219.710869" electricity_abs="0"/>
    </tripinfo>
    <tripinfo id="carIn77943:1" depart="57608.00" departLane="124812856#0_1" departPos="5.10" departSpeed="0.00" departDelay="2.50" arrival="57863.00" arrivalLane="-128361102#1_1" arrivalPos="274.68" arrivalSpeed="10.63" duration="255.00" routeLength="2232.46" waitingTime="18.00" waitingCount="1" stopTime="0.00" timeLoss="51.44" rerouteNo="1" devices="tripinfo_carIn77943:1 routing_carIn77943:1 emissions_carIn77943:1" vType="default_016" speedFactor="0.80" vaporized="">
        <emissions CO_abs="9654.907619" CO2_abs="516067.392195" HC_abs="55.907200" PMx_abs="8.471233" NOx_abs="207.826528" fuel_abs="221.837650" electricity_abs="0"/>
    </tripinfo>
    <tripinfo id="h15382c1:3" depart="57626.00" departLane="124812856#0_1" departPos="5.10" departSpeed="0.00" departDelay="3.80" arrival="57864.00" arrivalLane="-128361102#1_1" arrivalPos="274.68" arrivalSpeed="11.00" duration="238.00" routeLength="2232.46" waitingTime="4.00" waitingCount="1" stopTime="0.00" timeLoss="98.91" rerouteNo="1" devices="tripinfo_h15382c1:3 routing_h15382c1:3 emissions_h15382c1:3" vType="default_016" speedFactor="1.17" vaporized="">
        <emissions CO_abs="9822.893783" CO2_abs="607958.182251" HC_abs="58.953728" PMx_abs="10.527939" NOx_abs="248.263465" fuel_abs="261.335836" electricity_abs="0"/>
    </tripinfo>
    <tripinfo id="carIn70533:1" depart="57812.00" departLane="-447569998#1_1" departPos="5.10" departSpeed="0.00" departDelay="0.10" arrival="57883.00" arrivalLane="-315358244_1" arrivalPos="33.95" arrivalSpeed="12.25" duration="71.00" routeLength="706.49" waitingTime="0.00" waitingCount="0" stopTime="0.00" timeLoss="6.48" rerouteNo="1" devices="tripinfo_carIn70533:1 routing_carIn70533:1 emissions_carIn70533:1" vType="default_016" speedFactor="0.93" vaporized="">
        <emissions CO_abs="2266.191850" CO2_abs="146667.632064" HC_abs="13.719606" PMx_abs="2.341252" NOx_abs="58.353142" fuel_abs="63.046532" electricity_abs="0"/>
    </tripinfo>
    <tripinfo id="carIn12775:1" depart="57676.00" departLane="10425609#0_1" departPos="5.10" departSpeed="0.00" departDelay="0.60" arrival="57887.00" arrivalLane="18809673#0_1" arrivalPos="473.56" arrivalSpeed="11.39" duration="211.00" routeLength="1959.45" waitingTime="25.00" waitingCount="2" stopTime="0.00" timeLoss="49.43" rerouteNo="1" devices="tripinfo_carIn12775:1 routing_carIn12775:1 emissions_carIn12775:1" vType="default_016" speedFactor="0.90" vaporized="">
        <emissions CO_abs="8476.144991" CO2_abs="448005.912352" HC_abs="48.992320" PMx_abs="7.413430" NOx_abs="179.529039" fuel_abs="192.580744" electricity_abs="0"/>
    </tripinfo>
    <tripinfo id="carIn53503:1" depart="57764.00" departLane="-306240162#1_0" departPos="5.10" departSpeed="0.00" departDelay="3.40" arrival="57893.00" arrivalLane="24634510#6_1" arrivalPos="76.64" arrivalSpeed="15.61" duration="129.00" routeLength="1440.47" waitingTime="11.00" waitingCount="2" stopTime="0.00" timeLoss="43.10" rerouteNo="1" devices="tripinfo_carIn53503:1 routing_carIn53503:1 emissions_carIn53503:1" vType="default_016" speedFactor="1.16" vaporized="">
        <emissions CO_abs="7277.588466" CO2_abs="438888.055125" HC_abs="43.555053" PMx_abs="8.533647" NOx_abs="183.372719" fuel_abs="188.658567" electricity_abs="0"/>
    </tripinfo>
    <tripinfo id="carIn13443:1" depart="57729.00" departLane="272042143_1" departPos="5.10" departSpeed="0.00" departDelay="0.80" arrival="57895.00" arrivalLane="399835085#1_1" arrivalPos="212.23" arrivalSpeed="7.17" duration="166.00" routeLength="1757.45" waitingTime="5.00" waitingCount="1" stopTime="0.00" timeLoss="22.06" rerouteNo="1" devices="tripinfo_carIn13443:1 routing_carIn13443:1 emissions_carIn13443:1" vType="default_016" speedFactor="0.99" vaporized="">