<?xml version="1.0" encoding="UTF-8"?>

<!-- generated on Thu Nov  4 14:17:31 2021 by Eclipse SUMO sumo Version 1.9.0
<configuration xmlns:xsi="http://www.w3.org/2001/XMLSchema-instance" xsi:noNamespaceSchemaLocation="http://sumo.dlr.de/xsd/sumoConfiguration.xsd">

    <input>
        <net-file value="/mainfs/home/bk2g18/RESCO/environments/ingolstadt21/ingolstadt21.net.xml"/>
        <route-files value="/mainfs/home/bk2g18/RESCO/environments/ingolstadt21/ingolstadt21.rou.xml"/>
    </input>

    <output>
        <tripinfo-output value="/mainfs/home/bk2g18/RESCO/logs/MPLight-tr0-ingolstadt21-21-mplight_full-pressure/tripinfo_82.xml"/>
        <tripinfo-output.write-unfinished value="true"/>
    </output>

    <time>
        <begin value="57600"/>
        <end value="61200"/>
    </time>

    <processing>
        <time-to-teleport value="-1"/>
    </processing>

    <report>
        <xml-validation value="never"/>
        <xml-validation.routes value="never"/>
        <no-warnings value="true"/>
        <no-step-log value="true"/>
    </report>

    <emissions>
        <device.emissions.probability value="1"/>
    </emissions>

    <traci_server>
        <remote-port value="49566"/>
    </traci_server>

    <random_number>
        <random value="true"/>
    </random_number>

</configuration>
-->

<tripinfos xmlns:xsi="http://www.w3.org/2001/XMLSchema-instance" xsi:noNamespaceSchemaLocation="http://sumo.dlr.de/xsd/tripinfo_file.xsd">
    <tripinfo id="h15454c2:3" depart="57612.00" departLane="24608844_1" departPos="5.10" departSpeed="0.00" departDelay="0.50" arrival="57654.00" arrivalLane="32978638#0_1" arrivalPos="49.29" arrivalSpeed="12.42" duration="42.00" routeLength="354.79" waitingTime="0.00" waitingCount="0" stopTime="0.00" timeLoss="5.98" rerouteNo="1" devices="tripinfo_h15454c2:3 routing_h15454c2:3 emissions_h15454c2:3" vType="default_016" speedFactor="0.96" vaporized="">
        <emissions CO_abs="2162.668483" CO2_abs="116070.083081" HC_abs="12.557659" PMx_abs="2.038956" NOx_abs="47.763657" fuel_abs="49.893865" electricity_abs="0"/>
    </tripinfo>
    <tripinfo id="carIn53971:1" depart="57640.00" departLane="272042143_1" departPos="5.10" departSpeed="0.00" departDelay="0.80" arrival="57690.00" arrivalLane="24634414#1_1" arrivalPos="162.19" arrivalSpeed="8.87" duration="50.00" routeLength="493.04" waitingTime="0.00" waitingCount="0" stopTime="0.00" timeLoss="9.00" rerouteNo="1" devices="tripinfo_carIn53971:1 routing_carIn53971:1 emissions_carIn53971:1" vType="default_016" speedFactor="1.11" vaporized="">
        <emissions CO_abs="2532.049688" CO2_abs="152556.574381" HC_abs="15.083296" PMx_abs="2.716107" NOx_abs="62.620297" fuel_abs="65.577656" electricity_abs="0"/>
    </tripinfo>
    <tripinfo id="h7800c1:5" depart="57696.00" departLane="-447569998#1_1" departPos="5.10" departSpeed="0.00" departDelay="0.00" arrival="57724.00" arrivalLane="-447569998#1_1" arrivalPos="180.76" arrivalSpeed="7.09" duration="28.00" routeLength="175.66" waitingTime="0.00" waitingCount="0" stopTime="0.00" timeLoss="4.14" rerouteNo="1" devices="tripinfo_h7800c1:5 routing_h7800c1:5 emissions_h7800c1:5" vType="default_016" speedFactor="0.91" vaporized="">
        <emissions CO_abs="1275.986361" CO2_abs="49387.349236" HC_abs="6.940597" PMx_abs="0.822517" NOx_abs="20.237494" fuel_abs="21.229989" electricity_abs="0"/>
    </tripinfo>
    <tripinfo id="h3568c1:3" depart="57656.00" departLane="266565295#5_1" departPos="5.10" departSpeed="0.00" departDelay="0.80" arrival="57734.00" arrivalLane="-24634415_1" arrivalPos="62.03" arrivalSpeed="13.94" duration="78.00" routeLength="807.40" waitingTime="0.00" waitingCount="0" stopTime="0.00" timeLoss="15.29" rerouteNo="1" devices="tripinfo_h3568c1:3 routing_h3568c1:3 emissions_h3568c1:3" vType="default_016" speedFactor="1.03" vaporized="">
        <emissions CO_abs="3719.059770" CO2_abs="239863.695452" HC_abs="22.567854" PMx_abs="4.269010" NOx_abs="98.163736" fuel_abs="103.107129" electricity_abs="0"/>
    </tripinfo>
    <tripinfo id="h317c2:1" depart="57707.00" departLane="-32978638#0_1" departPos="5.10" departSpeed="0.00" departDelay="0.10" arrival="57748.00" arrivalLane="-266565295#5_1" arrivalPos="172.76" arrivalSpeed="11.80" duration="41.00" routeLength="370.53" waitingTime="0.00" waitingCount="0" stopTime="0.00" timeLoss="8.79" rerouteNo="1" devices="tripinfo_h317c2:1 routing_h317c2:1 emissions_h317c2:1" vType="default_016" speedFactor="0.85" vaporized="">
        <emissions CO_abs="1920.903518" CO2_abs="102935.462112" HC_abs="11.152526" PMx_abs="1.814577" NOx_abs="42.315634" fuel_abs="44.247821" electricity_abs="0"/>
    </tripinfo>
    <tripinfo id="h3326c1:2" depart="57656.00" departLane="22716069#0_1" departPos="5.10" departSpeed="0.00" departDelay="0.00" arrival="57757.00" arrivalLane="24634517#13_1" arrivalPos="111.62" arrivalSpeed="14.44" duration="101.00" routeLength="1312.81" waitingTime="0.00" waitingCount="0" stopTime="0.00" timeLoss="14.79" rerouteNo="1" devices="tripinfo_h3326c1:2 routing_h3326c1:2 emissions_h3326c1:2" vType="default_016" speedFactor="1.13" vaporized="">
        <emissions CO_abs="4350.936883" CO2_abs="330322.111401" HC_abs="27.506518" PMx_abs="5.939161" NOx_abs="134.221333" fuel_abs="141.990695" electricity_abs="0"/>
    </tripinfo>
    <tripinfo id="h5979c1:5" depart="57669.00" departLane="399835085#1_1" departPos="5.10" departSpeed="0.00" departDelay="0.00" arrival="57758.00" arrivalLane="-315358254#1_1" arrivalPos="137.16" arrivalSpeed="12.80" duration="89.00" routeLength="659.33" waitingTime="0.00" waitingCount="0" stopTime="0.00" timeLoss="12.70" rerouteNo="1" devices="tripinfo_h5979c1:5 routing_h5979c1:5 emissions_h5979c1:5" vType="default_016" speedFactor="0.96" vaporized="">
        <emissions CO_abs="3820.637336" CO2_abs="178967.360721" HC_abs="21.503113" PMx_abs="2.875949" NOx_abs="72.315444" fuel_abs="76.931661" electricity_abs="0"/>
    </tripinfo>
    <tripinfo id="h4538c1:1" depart="57701.00" departLane="-10427692#1_1" departPos="5.10" departSpeed="0.00" departDelay="0.00" arrival="57773.00" arrivalLane="-128361102#1_1" arrivalPos="274.68" arrivalSpeed="14.84" duration="72.00" routeLength="440.74" waitingTime="31.00" waitingCount="1" stopTime="0.00" timeLoss="43.55" rerouteNo="1" devices="tripinfo_h4538c1:1 routing_h4538c1:1 emissions_h4538c1:1" vType="default_016" speedFactor="1.13" vaporized="">
        <emissions CO_abs="6222.642190" CO2_abs="191395.017851" HC_abs="32.767737" PMx_abs="3.898638" NOx_abs="81.186885" fuel_abs="82.274576" electricity_abs="0"/>
    </tripinfo>
    <tripinfo id="carIn27009:1" depart="57673.00" departLane="-447569998#1_1" departPos="5.10" departSpeed="0.00" departDelay="0.50" arrival="57778.00" arrivalLane="-26677539_1" arrivalPos="152.75" arrivalSpeed="6.31" duration="105.00" routeLength="699.63" waitingTime="0.00" waitingCount="0" stopTime="0.00" timeLoss="12.74" rerouteNo="1" devices="tripinfo_carIn27009:1 routing_carIn27009:1 emissions_carIn27009:1" vType="default_015" speedFactor="0.91" vaporized="">
        <emissions CO_abs="3759.949822" CO2_abs="160851.289726" HC_abs="20.777739" PMx_abs="2.483923" NOx_abs="64.606257" fuel_abs="69.144616" electricity_abs="0"/>
    </tripinfo>
    <tripinfo id="h3154c1:1" depart="57658.00" departLane="24634507_1" departPos="5.10" departSpeed="0.00" departDelay="0.00" arrival="57780.00" arrivalLane="-266565295#5_1" arrivalPos="172.76" arrivalSpeed="10.73" duration="122.00" routeLength="1206.22" waitingTime="0.00" waitingCount="0" stopTime="0.00" timeLoss="16.40" rerouteNo="1" devices="tripinfo_h3154c1:1 routing_h3154c1:1 emissions_h3154c1:1" vType="default_016" speedFactor="0.85" vaporized="">
        <emissions CO_abs="4128.229596" CO2_abs="279005.815690" HC_abs="25.261026" PMx_abs="4.409493" NOx_abs="110.897129" fuel_abs="119.933302" electricity_abs="0"/>
    </tripinfo>
    <tripinfo id="carIn121703:1" depart="57647.00" departLane="386687232#0_1" departPos="5.10" departSpeed="0.00" departDelay="0.30" arrival="57789.00" arrivalLane="-315358244_1" arrivalPos="33.95" arrivalSpeed="11.93" duration="142.00" routeLength="1157.39" waitingTime="38.00" waitingCount="1" stopTime="0.00" timeLoss="51.58" rerouteNo="1" devices="tripinfo_carIn121703:1 routing_carIn121703:1 emissions_carIn121703:1" vType="default_016" speedFactor="0.94" vaporized="">
        <emissions CO_abs="8565.608141" CO2_abs="323373.811668" HC_abs="46.559706" PMx_abs="6.004327" NOx_abs="133.739917" fuel_abs="139.007236" electricity_abs="0"/>
    </tripinfo>
    <tripinfo id="h11737c1:1" depart="57665.00" departLane="272042143_1" departPos="5.10" departSpeed="0.00" departDelay="1.50" arrival="57796.00" arrivalLane="-315358254#1_1" arrivalPos="137.16" arrivalSpeed="13.47" duration="131.00" routeLength="1596.88" waitingTime="0.00" waitingCount="0" stopTime="0.00" timeLoss="12.78" rerouteNo="1" devices="tripinfo_h11737c1:1 routing_h11737c1:1 emissions_h11737c1:1" vType="default_016" speedFactor="0.99" vaporized="">
        <emissions CO_abs="3549.095519" CO2_abs="318703.233594" HC_abs="23.572394" PMx_abs="4.930204" NOx_abs="124.147169" fuel_abs="136.996968" electricity_abs="0"/>
    </tripinfo>
    <tripinfo id="carIn107282:1" depart="57749.00" departLane="-447569998#1_1" departPos="5.10" departSpeed="0.00" departDelay="0.00" arrival="57801.00" arrivalLane="315358242#0_1" arrivalPos="165.37" arrivalSpeed="11.87" duration="52.00" routeLength="448.50" waitingTime="0.00" waitingCount="0" stopTime="0.00" timeLoss="5.14" rerouteNo="1" devices="tripinfo_carIn107282:1 routing_carIn107282:1 emissions_carIn107282:1" vType="default_016" speedFactor="0.89" vaporized="">
        <emissions CO_abs="2033.788089" CO2_abs="108763.588636" HC_abs="11.748389" PMx_abs="1.637437" NOx_abs="42.918933" fuel_abs="46.753528" electricity_abs="0"/>
    </tripinfo>
    <tripinfo id="carIn126288:1" depart="57674.00" departLane="272042143_1" departPos="5.10" departSpeed="0.00" departDelay="0.00" arrival="57802.00" arrivalLane="-315358254#1_1" arrivalPos="137.16" arrivalSpeed="13.07" duration="128.00" routeLength="1596.88" waitingTime="0.00" waitingCount="0" stopTime="0.00" timeLoss="10.92" rerouteNo="1" devices="tripinfo_carIn126288:1 routing_carIn126288:1 emissions_carIn126288:1" vType="default_016" speedFactor="1.00" vaporized="">
        <emissions CO_abs="3191.755100" CO2_abs="295348.027337" HC_abs="21.418348" PMx_abs="4.642516" NOx_abs="115.364771" fuel_abs="126.957378" electricity_abs="0"/>
    </tripinfo>
    <tripinfo id="carIn129809:1" depart="57729.00" departLane="-447569998#1_1" departPos="5.10" departSpeed="0.00" departDelay="1.00" arrival="57809.00" arrivalLane="-315358244_1" arrivalPos="33.95" arrivalSpeed="13.19" duration="80.00" routeLength="706.49" waitingTime="6.00" waitingCount="1" stopTime="0.00" timeLoss="17.18" rerouteNo="1" devices="tripinfo_carIn129809:1 routing_carIn129809:1 emissions_carIn129809:1" vType="default_015" speedFactor="0.96" vaporized="">
        <emissions CO_abs="2693.867122" CO2_abs="158907.365024" HC_abs="15.956791" PMx_abs="2.607522" NOx_abs="63.699412" fuel_abs="68.307996" electricity_abs="0"/>
    </tripinfo>
    <tripinfo id="h330c1:1" depart="57736.00" departLane="-32978638#0_1" departPos="5.10" departSpeed="0.00" departDelay="0.20" arrival="57812.00" arrivalLane="-266565295#5_1" arrivalPos="172.76" arrivalSpeed="15.54" duration="76.00" routeLength="370.53" waitingTime="43.00" waitingCount="1" stopTime="0.00" timeLoss="52.72" rerouteNo="1" devices="tripinfo_h330c1:1 routing_h330c1:1 emissions_h330c1:1" vType="default_016" speedFactor="1.17" vaporized="">
        <emissions CO_abs="8824.519789" CO2_abs="229766.033770" HC_abs="45.606819" PMx_abs="5.143411" NOx_abs="101.158020" fuel_abs="98.769434" electricity_abs="0"/>
    </tripinfo>
    <tripinfo id="randUni15030:1" depart="57735.00" departLane="386687232#0_1" departPos="5.10" departSpeed="0.00" departDelay="0.10" arrival="57830.00" arrivalLane="26677539_1" arrivalPos="151.98" arrivalSpeed="7.33" duration="95.00" routeLength="919.89" waitingTime="0.00" waitingCount="0" stopTime="0.00" timeLoss="11.89" rerouteNo="1" devices="tripinfo_randUni15030:1 routing_randUni15030:1 emissions_randUni15030:1" vType="random_016" speedFactor="1.01" vaporized="">
        <emissions CO_abs="3460.427074" CO2_abs="210407.302153" HC_abs="20.615064" PMx_abs="3.437393" NOx_abs="84.366059" fuel_abs="90.445698" electricity_abs="0"/>
    </tripinfo>
    <tripinfo id="carIn8642:1" depart="57774.00" departLane="-447569998#1_1" departPos="5.10" departSpeed="0.00" departDelay="0.90" arrival="57839.00" arrivalLane="-315358244_1" arrivalPos="33.95" arrivalSpeed="14.21" duration="65.00" routeLength="706.49" waitingTime="0.00" waitingCount="0" stopTime="0.00" timeLoss="6.62" rerouteNo="1" devices="tripinfo_carIn8642:1 routing_carIn8642:1 emissions_carIn8642:1" vType="default_016" speedFactor="1.04" vaporized="">
        <emissions CO_abs="2157.463870" CO2_abs="157061.944071" HC_abs="13.447953" PMx_abs="2.358415" NOx_abs="60.988620" fuel_abs="67.514682" electricity_abs="0"/>
    </tripinfo>
    <tripinfo id="h17549c1:1" depart="57680.00" departLane="-447569998#1_1" departPos="5.10" departSpeed="0.00" departDelay="0.00" arrival="57856.00" arrivalLane="-315358254#1_1" arrivalPos="137.16" arrivalSpeed="11.41" duration="176.00" routeLength="1743.98" waitingTime="0.00" waitingCount="0" stopTime="0.00" timeLoss="15.09" rerouteNo="1" devices="tripinfo_h17549c1:1 routing_h17549c1:1 emissions_h17549c1:1" vType="default_016" speedFactor="0.85" vaporized="">
        <emissions CO_abs="4672.054211" CO2_abs="315233.863264" HC_abs="28.549683" PMx_abs="4.836349" NOx_abs="124.257114" fuel_abs="135.506512" electricity_abs="0"/>
    </tripinfo>
    <tripinfo id="carIn81681:1" depart="57726.00" departLane="272042143_1" departPos="5.10" departSpeed="0.00" departDelay="0.30" arrival="57879.00" arrivalLane="306240162#0_0" arrivalPos="220.43" arrivalSpeed="19.25" duration="153.00" routeLength="2246.89" waitingTime="4.00" waitingCount="1" stopTime="0.00" timeLoss="28.06" rerouteNo="1" devices="tripinfo_carIn81681:1 routing_carIn81681:1 emissions_carIn81681:1" vType="default_016" speedFactor="1.18" vaporized="">
        <emissions CO_abs="6866.784457" CO2_abs="522953.786636" HC_abs="43.684678" PMx_abs="9.872804" NOx_abs="212.728375" fuel_abs="224.794007" electricity_abs="0"/>
    </tripinfo>
    <tripinfo id="carIn13443:1" depart="57729.00" departLane="272042143_1" departPos="5.10" departSpeed="0.00" departDelay="0.80" arrival="57887.00" arrivalLane="399835085#1_1" arrivalPos="212.23" arrivalSpeed="7.12" duration="158.00" routeLength="1757.45" waitingTime="0.00" waitingCount="0" stopTime="0.00" timeLoss="16.11" rerouteNo="1" devices="tripinfo_carIn13443:1 routing_carIn13443:1 emissions_carIn13443:1" vType="default_016" speedFactor="1.00" vaporized="">
        <emissions CO_abs="4125.769946" CO2_abs="326569.154635" HC_abs="26.306123" PMx_abs="4.986512" NOx_abs="127.286312" fuel_abs="140.378652" electricity_abs="0"/>
    </tripinfo>
    <tripinfo id="carIn70533:1" depart="57812.00" departLane="-447569998#1_1" departPos="5.10" departSpeed="0.00" departDelay="0.10" arrival="57894.00" arrivalLane="-315358244_1" arrivalPos="33.95" arrivalSpeed="13.16" duration="82.00" routeLength="706.49" waitingTime="6.00" waitingCount="1" stopTime="0.00" timeLoss="18.03" rerouteNo="1" devices="tripinfo_carIn70533:1 routing_carIn70533:1 emissions_carIn70533:1" vType="default_016" speedFactor="0.95" vaporized="">
        <emissions CO_abs="3125.409074" CO2_abs="177473.384177" HC_abs="18.355651" PMx_abs="2.959517" NOx_abs="71.646629" fuel_abs="76.288801" electricity_abs="0"/>
    </tripinfo>
    <tripinfo id="randUni23028:1" depart="57884.00" departLane="124812856#0_1" departPos="5.10" departSpeed="0.00" departDelay="0.10" arrival="57899.00" arrivalLane="201956810_1" arrivalPos="71.65" arrivalSpeed="13.54" duration="15.00" routeLength="134.91" waitingTime="0.00" waitingCount="0" stopTime="0.00" timeLoss="3.93" rerouteNo="1" devices="tripinfo_randUni23028:1 routing_randUni23028:1 emissions_randUni23028:1" vType="random_016" speedFactor="1.00" vaporized="">
        <emissions CO_abs="1058.839644" CO2_abs="59072.135511" HC_abs="6.200029" PMx_abs="1.108128" NOx_abs="24.695678" fuel_abs="25.392598" electricity_abs="0"/>
    </tripinfo>
    <tripinfo id="carIn101266:1" depart="57737.00" departLane="272042143_1" departPos="5.10" departSpeed="0.00" departDelay="0.50" arrival="57900.00" arrivalLane="306240162#0_0" arrivalPos="220.43" arrivalSpeed="17.59" duration="163.00" routeLength="2246.89" waitingTime="0.00" waitingCount="0" stopTime="0.00" timeLoss="25.39" rerouteNo="1" devices="tripinfo_carIn101266:1 routing_carIn101266:1 emissions_carIn101266:1" vType="default_016" speedFactor="1.08" vaporized="">
        <emissions CO_abs="6313.288406" CO2_abs="511952.741972" HC_abs="40.800367" PMx_abs="9.177277" NOx_abs="205.345994" fuel_abs="220.065526" electricity_abs="0"/>
    </tripinfo>
    <tripinfo id="carIn24709:1" depart="57753.00" departLane="266565295#5_1" departPos="5.10" departSpeed="0.00" departDelay="2.50" arrival="57901.00" arrivalLane="-24634506#2_1" arrivalPos="71.32" arrivalSpeed="15.47" duration="148.00" routeLength="1534.27" waitingTime="24.00" waitingCount="1" stopTime="0.00" timeLoss="49.56" rerouteNo="1" devices="tripinfo_carIn24709:1 routing_carIn24709:1 emissions_carIn24709:1" vType="default_016" speedFactor="1.15" vaporized="">
        <emissions CO_abs="9340.569277" CO2_abs="500906.007062" HC_abs="54.347211" PMx_abs="9.621955" NOx_abs="208.274053" fuel_abs="215.318429" electricity_abs="0"/>
    </tripinfo>
    <tripinfo id="randUni3548:1" depart="57726.00" departLane="-447569998#1_1" departPos="5.10" departSpeed="0.00" departDelay="0.00" arrival="57905.00" arrivalLane="-315358254#1_1" arrivalPos="137.16" arrivalSpeed="11.04" duration="179.00" routeLength="1746.60" waitingTime="6.00" waitingCount="1" stopTime="0.00" timeLoss="24.63" rerouteNo="1" devices="tripinfo_randUni3548:1 routing_randUni3548:1 emissions_randUni3548:1" vType="random_016" speedFactor="0.89" vaporized="">
        <emissions CO_abs="5166.565555" CO2_abs="363080.572825" HC_abs="31.924466" PMx_abs="5.604500" NOx_abs="142.966736" fuel_abs="156.073714" electricity_abs="0"/>
    </tripinfo>
    <tripinfo id="carIn13353:1" depart="57838.00" departLane="-447569998#1_1" departPos="5.10" departSpeed="0.00" departDelay="0.30" arrival="57905.00" arrivalLane="-315358244_1" arrivalPos="33.95" arrivalSpeed="13.17" duration="67.00" routeLength="706.49" waitingTime="0.00" waitingCount="0" stopTime="0.00" timeLoss="7.23" rerouteNo="1" devices="tripinfo_carIn13353:1 routing_carIn13353:1 emissions_carIn13353:1" vType="default_016" speedFactor="1.00" vaporized="">
        <emissions CO_abs="2057.515277" CO2_abs="153580.394796" HC_abs="12.879913" PMx_abs="2.256691" NOx_abs="59.293542" fuel_abs="66.018131" electricity_abs="0"/>
    </tripinfo>
    <tripinfo id="carIn63848:1" depart="57841.00" departLane="-447569998#1_1" departPos="5.10" departSpeed="0.00" departDelay="0.80" arrival="57906.00" arrivalLane="-315358244_2" arrivalPos="33.95" arrivalSpeed="14.13" duration="65.00" routeLength="706.49" waitingTime="0.00" waitingCount="0" stopTime="0.00" timeLoss="7.61" rerouteNo="1" devices="tripinfo_carIn63848:1 routing_carIn63848:1 emissions_carIn63848:1" vType="default_016" speedFactor="1.07" vaporized="">
        <emissions CO_abs="2118.226420" CO2_abs="145049.751956" HC_abs="13.009617" PMx_abs="2.386053" NOx_abs="57.813855" fuel_abs="62.350890" electricity_abs="0"/>
    </tripinfo>
    <tripinfo id="carIn96510:1" depart="57645.00" departLane="-306240162#1_0" departPos="5.10" departSpeed="0.00" departDelay="0.20" arrival="57908.00" arrivalLane="201956820_1" arrivalPos="48.33" arrivalSpeed="16.88" duration="263.00" routeLength="2993.47" waitingTime="32.00" waitingCount="2" stopTime="0.00" timeLoss="103.92" rerouteNo="1" devices="tripinfo_carIn96510:1 routing_carIn96510:1 emissions_carIn96510:1" vType="default_016" speedFactor="1.25" vaporized="">
        <emissions CO_abs="15608.983831" CO2_abs="887034.910678" HC_abs="92.172819" PMx_abs="17.330389" NOx_abs="369.018802" fuel_abs="381.297953" electricity_abs="0"/>
    </tripinfo>
    <tripinfo id="carIn23683:1" depart="57641.00" departLane="-306240162#1_0" departPos="5.10" departSpeed="0.00" departDelay="0.20" arrival="57909.00" arrivalLane="201956820_1" arrivalPos="48.33" arrivalSpeed="13.59" duration="268.00" routeLength="2993.47" waitingTime="36.00" waitingCount="3" stopTime="0.00" timeLoss="81.47" rerouteNo="1" devices="tripinfo_carIn23683:1 routing_carIn23683:1 emissions_carIn23683:1" vType="default_016" speedFactor="1.06" vaporized="">
        <emissions CO_abs="14144.241935" CO2_abs="813618.820378" HC_abs="83.390877" PMx_abs="15.391796" NOx_abs="334.674863" fuel_abs="349.740176" electricity_abs="0"/>
    </tripinfo>
    <tripinfo id="carIn118538:1" depart="57683.00" departLane="-447569998#1_1" departPos="5.10" departSpeed="0.00" departDelay="1.00" arrival="57926.00" arrivalLane="399835085#1_1" arrivalPos="212.23" arrivalSpeed="5.24" duration="243.00" routeLength="1907.17" waitingTime="0.00" waitingCount="0" stopTime="0.00" timeLoss="22.53" rerouteNo="1" devices="tripinfo_carIn118538:1 routing_carIn118538:1 emissions_carIn118538:1" vType="default_016" speedFactor="0.73" vaporized="">
        <emissions CO_abs="7556.141429" CO2_abs="381036.847839" HC_abs="43.056587" PMx_abs="5.516756" NOx_abs="149.563639" fuel_abs="163.794581" electricity_abs="0"/>
    </tripinfo>
    <tripinfo id="carIn14532:1" depart="57743.00" departLane="272042143_1" departPos="5.10" departSpeed="0.00" departDelay="1.90" arrival="57928.00" arrivalLane="399835085#1_1" arrivalPos="212.23" arrivalSpeed="8.04" duration="185.00" routeLength="1757.45" waitingTime="0.00" waitingCount="0" stopTime="0.00" timeLoss="43.88" rerouteNo="1" devices="tripinfo_carIn14532:1 routing_carIn14532:1 emissions_carIn14532:1" vType="default_016" speedFactor="1.01" vaporized="">
        <emissions CO_abs="6369.984556" CO2_abs="399837.938135" HC_abs="38.249826" PMx_abs="6.328896" NOx_abs="158.897378" fuel_abs="171.874520" electricity_abs="0"/>
    </tripinfo>
    <tripinfo id="carIn80913:1" depart="57732.00" departLane="272042143_1" departPos="5.10" departSpeed="0.00" departDelay="0.40" arrival="57933.00" arrivalLane="306240162#0_0" arrivalPos="220.43" arrivalSpeed="13.43" duration="201.00" routeLength="2246.89" waitingTime="0.00" waitingCount="0" stopTime="0.00" timeLoss="21.14" rerouteNo="1" devices="tripinfo_carIn80913:1 routing_carIn80913:1 emissions_carIn80913:1" vType="default_016" speedFactor="0.82" vaporized="">
        <emissions CO_abs="5978.455338" CO2_abs="455435.495102" HC_abs="37.802710" PMx_abs="7.106516" NOx_abs="178.839646" fuel_abs="195.772931" electricity_abs="0"/>
    </tripinfo>
    <tripinfo id="carIn82298:1" depart="57783.00" departLane="-447569998#1_1" departPos="5.10" departSpeed="0.00" departDelay="0.60" arrival="57940.00" arrivalLane="-315358254#1_1" arrivalPos="137.16" arrivalSpeed="12.59" duration="157.00" routeLength="1743.98" waitingTime="0.00" waitingCount="0" stopTime="0.00" timeLoss="14.36" rerouteNo="1" devices="tripinfo_carIn82298:1 routing_carIn82298:1 emissions_carIn82298:1" vType="default_016" speedFactor="0.96" vaporized="">
        <emissions CO_abs="4307.189517" CO2_abs="344508.364932" HC_abs="27.575191" PMx_abs="5.185385" NOx_abs="133.943889" fuel_abs="148.090050" electricity_abs="0"/>
    </tripinfo>
    <tripinfo id="h3426c1:1" depart="57864.00" departLane="-160314345#2_1" departPos="5.10" departSpeed="0.00" departDelay="0.00" arrival="57941.00" arrivalLane="386687235_1" arrivalPos="80.84" arrivalSpeed="12.67" duration="77.00" routeLength="726.87" waitingTime="0.00" waitingCount="0" stopTime="0.00" timeLoss="7.74" rerouteNo="1" devices="tripinfo_h3426c1:1 routing_h3426c1:1 emissions_h3426c1:1" vType="default_016" speedFactor="0.98" vaporized="">
        <emissions CO_abs="2383.899006" CO2_abs="145076.524841" HC_abs="14.204431" PMx_abs="2.269055" NOx_abs="57.476068" fuel_abs="62.362766" electricity_abs="0"/>
    </tripinfo>
    <tripinfo id="carIn121351:1" depart="57755.00" departLane="-447569998#1_1" departPos="5.10" departSpeed="0.00" departDelay="0.30" arrival="57944.00" arrivalLane="399835085#1_1" arrivalPos="212.23" arrivalSpeed="6.73" duration="189.00" routeLength="1907.17" waitingTime="0.00" waitingCount="0" stopTime="0.00" timeLoss="16.95" rerouteNo="1" devices="tripinfo_carIn121351:1 routing_carIn121351:1 emissions_carIn121351:1" vType="default_015" speedFactor="0.95" vaporized="">
        <emissions CO_abs="4897.005681" CO2_abs="357912.994838" HC_abs="30.497125" PMx_abs="5.037957" NOx_abs="137.286714" fuel_abs="153.853009" electricity_abs="0"/>
    </tripinfo>
    <tripinfo id="carIn115169:1" depart="57759.00" departLane="24599188#0.94_1" departPos="5.10" departSpeed="0.00" departDelay="0.50" arrival="57947.00" arrivalLane="-10427692#3_1" arrivalPos="28.64" arrivalSpeed="22.87" duration="188.00" routeLength="2183.23" waitingTime="0.00" waitingCount="0" stopTime="0.00" timeLoss="25.41" rerouteNo="1" devices="tripinfo_carIn115169:1 routing_carIn115169:1 emissions_carIn115169:1" vType="default_016" speedFactor="1.04" vaporized="">
        <emissions CO_abs="7185.908790" CO2_abs="543221.629338" HC_abs="45.399940" PMx_abs="9.310598" NOx_abs="218.126702" fuel_abs="233.507381" electricity_abs="0"/>
    </tripinfo>
    <tripinfo id="h8222c1:5" depart="57839.00" departLane="266565295#5_1" departPos="5.10" departSpeed="0.00" departDelay="0.90" arrival="57961.00" arrivalLane="-201238724_1" arrivalPos="217.34" arrivalSpeed="13.80" duration="122.00" routeLength="1538.58" waitingTime="0.00" waitingCount="0" stopTime="0.00" timeLoss="11.22" rerouteNo="1" devices="tripinfo_h8222c1:5 routing_h8222c1:5 emissions_h8222c1:5" vType="default_016" speedFactor="1.02" vaporized="">
        <emissions CO_abs="3362.301105" CO2_abs="297670.340770" HC_abs="22.236918" PMx_abs="4.743268" NOx_abs="116.600283" fuel_abs="127.955672" electricity_abs="0"/>
    </tripinfo>
    <tripinfo id="h7032c2:3" depart="57863.00" departLane="315358244_1" departPos="5.10" departSpeed="0.00" departDelay="0.40" arrival="57965.00" arrivalLane="26677541_1" arrivalPos="152.31" arrivalSpeed="13.87" duration="102.00" routeLength="925.70" waitingTime="0.00" waitingCount="0" stopTime="0.00" timeLoss="14.45" rerouteNo="1" devices="tripinfo_h7032c2:3 routing_h7032c2:3 emissions_h7032c2:3" vType="default_016" speedFactor="1.02" vaporized="">
        <emissions CO_abs="4094.014256" CO2_abs="240278.085424" HC_abs="24.194415" PMx_abs="3.866455" NOx_abs="96.023328" fuel_abs="103.286165" electricity_abs="0"/>
    </tripinfo>
    <tripinfo id="randUni11215:1" depart="57953.00" departLane="124812856#0_1" departPos="5.10" departSpeed="0.00" departDelay="0.30" arrival="57967.00" arrivalLane="201956810_1" arrivalPos="71.65" arrivalSpeed="14.12" duration="14.00" routeLength="134.91" waitingTime="0.00" waitingCount="0" stopTime="0.00" timeLoss="3.89" rerouteNo="1" devices="tripinfo_randUni11215:1 routing_randUni11215:1 emissions_randUni11215:1" vType="random_016" speedFactor="1.04" vaporized="">
        <emissions CO_abs="1149.004117" CO2_abs="65434.020729" HC_abs="6.752755" PMx_abs="1.228659" NOx_abs="27.309208" fuel_abs="28.127284" electricity_abs="0"/>
    </tripinfo>
    <tripinfo id="carIn132499:1" depart="57740.00" departLane="272042143_1" departPos="5.10" departSpeed="0.00" departDelay="0.70" arrival="57970.00" arrivalLane="201238729#3_1" arrivalPos="431.02" arrivalSpeed="14.34" duration="230.00" routeLength="2100.26" waitingTime="67.00" waitingCount="1" stopTime="0.00" timeLoss="86.09" rerouteNo="1" devices="tripinfo_carIn132499:1 routing_carIn132499:1 emissions_carIn132499:1" vType="default_016" speedFactor="1.05" vaporized="">
        <emissions CO_abs="14844.535015" CO2_abs="569209.206852" HC_abs="80.776664" PMx_abs="10.444199" NOx_abs="232.455340" fuel_abs="244.683573" electricity_abs="0"/>
    </tripinfo>
    <tripinfo id="h17600c1:1" depart="57662.00" departLane="272042143_1" departPos="5.10" departSpeed="0.00" departDelay="0.30" arrival="57974.00" arrivalLane="201238729#3_1" arrivalPos="431.02" arrivalSpeed="13.08" duration="312.00" routeLength="2100.26" waitingTime="134.00" waitingCount="1" stopTime="0.00" timeLoss="151.51" rerouteNo="1" devices="tripinfo_h17600c1:1 routing_h17600c1:1 emissions_h17600c1:1" vType="default_016" speedFactor="0.94" vaporized="">
        <emissions CO_abs="25640.375172" CO2_abs="717236.060728" HC_abs="133.473479" PMx_abs="14.144642" NOx_abs="301.669299" fuel_abs="308.319468" electricity_abs="0"/>
    </tripinfo>
    <tripinfo id="h8468c1:3" depart="57760.00" departLane="176550249#3_1" departPos="5.10" departSpeed="0.00" departDelay="0.00" arrival="57979.00" arrivalLane="201238729#3_1" arrivalPos="431.02" arrivalSpeed="11.80" duration="219.00" routeLength="1949.14" waitingTime="37.00" waitingCount="1" stopTime="0.00" timeLoss="57.18" rerouteNo="1" devices="tripinfo_h8468c1:3 routing_h8468c1:3 emissions_h8468c1:3" vType="default_016" speedFactor="0.88" vaporized="">
        <emissions CO_abs="9918.252136" CO2_abs="460331.537984" HC_abs="55.775550" PMx_abs="7.419012" NOx_abs="182.800376" fuel_abs="197.880440" electricity_abs="0"/>
    </tripinfo>
    <tripinfo id="carIn9695:1" depart="57822.00" departLane="272042143_1" departPos="5.10" departSpeed="0.00" departDelay="0.80" arrival="57979.00" arrivalLane="-315358254#1_1" arrivalPos="137.16" arrivalSpeed="11.01" duration="157.00" routeLength="1596.88" waitingTime="0.00" waitingCount="0" stopTime="0.00" timeLoss="15.41" rerouteNo="1" devices="tripinfo_carIn9695:1 routing_carIn9695:1 emissions_carIn9695:1" vType="default_016" speedFactor="0.82" vaporized="">