<?xml version="1.0" encoding="UTF-8"?>

<!-- generated on Thu Nov  4 13:39:40 2021 by Eclipse SUMO sumo Version 1.9.0
<configuration xmlns:xsi="http://www.w3.org/2001/XMLSchema-instance" xsi:noNamespaceSchemaLocation="http://sumo.dlr.de/xsd/sumoConfiguration.xsd">

    <input>
        <net-file value="/mainfs/home/bk2g18/RESCO/environments/ingolstadt21/ingolstadt21.net.xml"/>
        <route-files value="/mainfs/home/bk2g18/RESCO/environments/ingolstadt21/ingolstadt21.rou.xml"/>
    </input>

    <output>
        <tripinfo-output value="/mainfs/home/bk2g18/RESCO/logs/MPLight-tr0-ingolstadt21-21-mplight_full-pressure/tripinfo_38.xml"/>
        <tripinfo-output.write-unfinished value="true"/>
    </output>

    <time>
        <begin value="57600"/>
        <end value="61200"/>
    </time>

    <processing>
        <time-to-teleport value="-1"/>
    </processing>

    <report>
        <xml-validation value="never"/>
        <xml-validation.routes value="never"/>
        <no-warnings value="true"/>
        <no-step-log value="true"/>
    </report>

    <emissions>
        <device.emissions.probability value="1"/>
    </emissions>

    <traci_server>
        <remote-port value="56749"/>
    </traci_server>

    <random_number>
        <random value="true"/>
    </random_number>

</configuration>
-->

<tripinfos xmlns:xsi="http://www.w3.org/2001/XMLSchema-instance" xsi:noNamespaceSchemaLocation="http://sumo.dlr.de/xsd/tripinfo_file.xsd">
    <tripinfo id="h15454c2:3" depart="57612.00" departLane="24608844_1" departPos="5.10" departSpeed="0.00" departDelay="0.50" arrival="57650.00" arrivalLane="32978638#0_1" arrivalPos="49.29" arrivalSpeed="15.16" duration="38.00" routeLength="354.79" waitingTime="0.00" waitingCount="0" stopTime="0.00" timeLoss="6.56" rerouteNo="1" devices="tripinfo_h15454c2:3 routing_h15454c2:3 emissions_h15454c2:3" vType="default_016" speedFactor="1.12" vaporized="">
        <emissions CO_abs="2252.530121" CO2_abs="131103.434851" HC_abs="13.334342" PMx_abs="2.341124" NOx_abs="53.975068" fuel_abs="56.355901" electricity_abs="0"/>
    </tripinfo>
    <tripinfo id="carIn60260:1" depart="57606.00" departLane="315358254#0_1" departPos="5.10" departSpeed="0.00" departDelay="0.90" arrival="57661.00" arrivalLane="399835085#1_1" arrivalPos="212.23" arrivalSpeed="7.67" duration="55.00" routeLength="430.98" waitingTime="0.00" waitingCount="0" stopTime="0.00" timeLoss="7.61" rerouteNo="1" devices="tripinfo_carIn60260:1 routing_carIn60260:1 emissions_carIn60260:1" vType="default_016" speedFactor="0.97" vaporized="">
        <emissions CO_abs="2485.936928" CO2_abs="123363.235061" HC_abs="14.156586" PMx_abs="1.984778" NOx_abs="49.749033" fuel_abs="53.029320" electricity_abs="0"/>
    </tripinfo>
    <tripinfo id="carIn53971:1" depart="57640.00" departLane="272042143_1" departPos="5.10" departSpeed="0.00" departDelay="0.80" arrival="57698.00" arrivalLane="24634414#1_1" arrivalPos="162.19" arrivalSpeed="6.79" duration="58.00" routeLength="493.04" waitingTime="0.00" waitingCount="0" stopTime="0.00" timeLoss="9.60" rerouteNo="1" devices="tripinfo_carIn53971:1 routing_carIn53971:1 emissions_carIn53971:1" vType="default_016" speedFactor="0.94" vaporized="">
        <emissions CO_abs="2811.278662" CO2_abs="151992.597374" HC_abs="16.329741" PMx_abs="2.558383" NOx_abs="61.769647" fuel_abs="65.335669" electricity_abs="0"/>
    </tripinfo>
    <tripinfo id="carIn80064:1" depart="57603.00" departLane="128361109#1_1" departPos="5.10" departSpeed="0.00" departDelay="0.40" arrival="57724.00" arrivalLane="-315358254#1_1" arrivalPos="137.16" arrivalSpeed="12.68" duration="121.00" routeLength="1587.97" waitingTime="6.00" waitingCount="1" stopTime="0.00" timeLoss="27.87" rerouteNo="1" devices="tripinfo_carIn80064:1 routing_carIn80064:1 emissions_carIn80064:1" vType="default_016" speedFactor="0.96" vaporized="">
        <emissions CO_abs="6724.206286" CO2_abs="468275.514599" HC_abs="41.813067" PMx_abs="8.886612" NOx_abs="191.764388" fuel_abs="201.290648" electricity_abs="0"/>
    </tripinfo>
    <tripinfo id="h3568c1:3" depart="57656.00" departLane="266565295#5_1" departPos="5.10" departSpeed="0.00" departDelay="0.80" arrival="57731.00" arrivalLane="-24634415_1" arrivalPos="62.03" arrivalSpeed="13.40" duration="75.00" routeLength="807.40" waitingTime="0.00" waitingCount="0" stopTime="0.00" timeLoss="12.03" rerouteNo="1" devices="tripinfo_h3568c1:3 routing_h3568c1:3 emissions_h3568c1:3" vType="default_016" speedFactor="1.03" vaporized="">
        <emissions CO_abs="3257.737858" CO2_abs="218500.961498" HC_abs="19.971270" PMx_abs="3.815149" NOx_abs="88.752995" fuel_abs="93.924229" electricity_abs="0"/>
    </tripinfo>
    <tripinfo id="h317c2:1" depart="57707.00" departLane="-32978638#0_1" departPos="5.10" departSpeed="0.00" departDelay="0.10" arrival="57742.00" arrivalLane="-266565295#5_1" arrivalPos="172.76" arrivalSpeed="12.77" duration="35.00" routeLength="370.53" waitingTime="0.00" waitingCount="0" stopTime="0.00" timeLoss="5.62" rerouteNo="1" devices="tripinfo_h317c2:1 routing_h317c2:1 emissions_h317c2:1" vType="default_016" speedFactor="0.94" vaporized="">
        <emissions CO_abs="1547.811778" CO2_abs="99191.378601" HC_abs="9.384553" PMx_abs="1.780715" NOx_abs="40.790529" fuel_abs="42.638101" electricity_abs="0"/>
    </tripinfo>
    <tripinfo id="h3688c1:1" depart="57625.00" departLane="201201950#1_1" departPos="5.10" departSpeed="0.00" departDelay="0.00" arrival="57743.00" arrivalLane="32978638#0_1" arrivalPos="49.29" arrivalSpeed="11.49" duration="118.00" routeLength="1089.75" waitingTime="14.00" waitingCount="1" stopTime="0.00" timeLoss="27.39" rerouteNo="1" devices="tripinfo_h3688c1:1 routing_h3688c1:1 emissions_h3688c1:1" vType="default_016" speedFactor="0.88" vaporized="">
        <emissions CO_abs="5111.507162" CO2_abs="270856.243800" HC_abs="29.590145" PMx_abs="4.654296" NOx_abs="109.923785" fuel_abs="116.430520" electricity_abs="0"/>
    </tripinfo>
    <tripinfo id="carIn121703:1" depart="57647.00" departLane="386687232#0_1" departPos="5.10" departSpeed="0.00" departDelay="0.30" arrival="57743.00" arrivalLane="-315358244_1" arrivalPos="33.95" arrivalSpeed="14.32" duration="96.00" routeLength="1157.39" waitingTime="5.00" waitingCount="1" stopTime="0.00" timeLoss="19.31" rerouteNo="1" devices="tripinfo_carIn121703:1 routing_carIn121703:1 emissions_carIn121703:1" vType="default_016" speedFactor="1.10" vaporized="">
        <emissions CO_abs="3958.005805" CO2_abs="280898.019735" HC_abs="24.505740" PMx_abs="4.864718" NOx_abs="112.482320" fuel_abs="120.746037" electricity_abs="0"/>
    </tripinfo>
    <tripinfo id="h3154c1:1" depart="57658.00" departLane="24634507_1" departPos="5.10" departSpeed="0.00" departDelay="0.00" arrival="57758.00" arrivalLane="-266565295#5_1" arrivalPos="172.76" arrivalSpeed="14.68" duration="100.00" routeLength="1206.22" waitingTime="0.00" waitingCount="0" stopTime="0.00" timeLoss="17.10" rerouteNo="1" devices="tripinfo_h3154c1:1 routing_h3154c1:1 emissions_h3154c1:1" vType="default_016" speedFactor="1.07" vaporized="">
        <emissions CO_abs="4275.197714" CO2_abs="311579.416778" HC_abs="26.716877" PMx_abs="5.417561" NOx_abs="125.639506" fuel_abs="133.934461" electricity_abs="0"/>
    </tripinfo>
    <tripinfo id="h5979c1:5" depart="57669.00" departLane="399835085#1_1" departPos="5.10" departSpeed="0.00" departDelay="0.00" arrival="57758.00" arrivalLane="-315358254#1_1" arrivalPos="137.16" arrivalSpeed="12.60" duration="89.00" routeLength="659.33" waitingTime="2.00" waitingCount="1" stopTime="0.00" timeLoss="15.36" rerouteNo="1" devices="tripinfo_h5979c1:5 routing_h5979c1:5 emissions_h5979c1:5" vType="default_016" speedFactor="0.99" vaporized="">
        <emissions CO_abs="3646.171765" CO2_abs="171113.839057" HC_abs="20.564002" PMx_abs="2.925071" NOx_abs="70.178430" fuel_abs="73.555449" electricity_abs="0"/>
    </tripinfo>
    <tripinfo id="h4538c1:1" depart="57701.00" departLane="-10427692#1_1" departPos="5.10" departSpeed="0.00" departDelay="0.00" arrival="57762.00" arrivalLane="-128361102#1_1" arrivalPos="274.68" arrivalSpeed="11.50" duration="61.00" routeLength="440.74" waitingTime="14.00" waitingCount="1" stopTime="0.00" timeLoss="22.99" rerouteNo="1" devices="tripinfo_h4538c1:1 routing_h4538c1:1 emissions_h4538c1:1" vType="default_016" speedFactor="0.83" vaporized="">
        <emissions CO_abs="3790.857667" CO2_abs="138382.305493" HC_abs="20.487163" PMx_abs="2.582162" NOx_abs="57.755764" fuel_abs="59.485817" electricity_abs="0"/>
    </tripinfo>
    <tripinfo id="h3326c1:2" depart="57656.00" departLane="22716069#0_1" departPos="5.10" departSpeed="0.00" departDelay="0.00" arrival="57764.00" arrivalLane="24634517#13_1" arrivalPos="111.62" arrivalSpeed="13.82" duration="108.00" routeLength="1312.81" waitingTime="0.00" waitingCount="0" stopTime="0.00" timeLoss="14.18" rerouteNo="1" devices="tripinfo_h3326c1:2 routing_h3326c1:2 emissions_h3326c1:2" vType="default_016" speedFactor="1.03" vaporized="">
        <emissions CO_abs="4105.648494" CO2_abs="328121.065531" HC_abs="26.324956" PMx_abs="5.528289" NOx_abs="131.039186" fuel_abs="141.044944" electricity_abs="0"/>
    </tripinfo>
    <tripinfo id="h7800c1:5" depart="57696.00" departLane="-447569998#1_1" departPos="5.10" departSpeed="0.00" departDelay="0.00" arrival="57765.00" arrivalLane="-447569998#1_2" arrivalPos="180.76" arrivalSpeed="3.73" duration="69.00" routeLength="175.66" waitingTime="40.00" waitingCount="1" stopTime="0.00" timeLoss="47.23" rerouteNo="1" devices="tripinfo_h7800c1:5 routing_h7800c1:5 emissions_h7800c1:5" vType="default_016" speedFactor="0.98" vaporized="">
        <emissions CO_abs="7265.240725" CO2_abs="145591.790670" HC_abs="36.475087" PMx_abs="3.249852" NOx_abs="64.430504" fuel_abs="62.586894" electricity_abs="0"/>
    </tripinfo>
    <tripinfo id="h330c1:1" depart="57736.00" departLane="-32978638#0_1" departPos="5.10" departSpeed="0.00" departDelay="0.20" arrival="57778.00" arrivalLane="-266565295#5_1" arrivalPos="172.76" arrivalSpeed="10.83" duration="42.00" routeLength="370.53" waitingTime="1.00" waitingCount="1" stopTime="0.00" timeLoss="9.74" rerouteNo="1" devices="tripinfo_h330c1:1 routing_h330c1:1 emissions_h330c1:1" vType="default_016" speedFactor="0.84" vaporized="">
        <emissions CO_abs="1947.721415" CO2_abs="107952.597441" HC_abs="11.384490" PMx_abs="1.852010" NOx_abs="44.022616" fuel_abs="46.404509" electricity_abs="0"/>
    </tripinfo>
    <tripinfo id="h7181c1:1" depart="57660.00" departLane="315358254#0_1" departPos="5.10" departSpeed="0.00" departDelay="0.10" arrival="57781.00" arrivalLane="306240162#0_0" arrivalPos="220.43" arrivalSpeed="15.66" duration="121.00" routeLength="932.35" waitingTime="50.00" waitingCount="2" stopTime="0.00" timeLoss="69.76" rerouteNo="1" devices="tripinfo_h7181c1:1 routing_h7181c1:1 emissions_h7181c1:1" vType="default_016" speedFactor="1.01" vaporized="">
        <emissions CO_abs="11673.483500" CO2_abs="420083.311792" HC_abs="63.189008" PMx_abs="8.915395" NOx_abs="179.665559" fuel_abs="180.578207" electricity_abs="0"/>
    </tripinfo>
    <tripinfo id="S5R_frequency1.2" depart="57612.00" departLane="315358250#0_1" departPos="12.10" departSpeed="0.00" departDelay="0.40" arrival="57796.00" arrivalLane="386687235_1" arrivalPos="80.84" arrivalSpeed="13.33" duration="184.00" routeLength="1115.62" waitingTime="77.00" waitingCount="3" stopTime="0.00" timeLoss="102.90" rerouteNo="1" devices="tripinfo_S5R_frequency1.2 routing_S5R_frequency1.2 emissions_S5R_frequency1.2" vType="bus" speedFactor="1.00" vaporized="">
        <emissions CO_abs="3479.421371" CO2_abs="1635945.988831" HC_abs="776.430065" PMx_abs="361.355216" NOx_abs="14156.140114" fuel_abs="697.541339" electricity_abs="0"/>
    </tripinfo>
    <tripinfo id="h9563c2:5" depart="57631.00" departLane="315358244_1" departPos="5.10" departSpeed="0.00" departDelay="0.70" arrival="57799.00" arrivalLane="386687235_1" arrivalPos="80.84" arrivalSpeed="13.58" duration="168.00" routeLength="1186.14" waitingTime="46.00" waitingCount="2" stopTime="0.00" timeLoss="79.10" rerouteNo="1" devices="tripinfo_h9563c2:5 routing_h9563c2:5 emissions_h9563c2:5" vType="default_016" speedFactor="0.98" vaporized="">
        <emissions CO_abs="11146.174132" CO2_abs="403747.641028" HC_abs="60.192313" PMx_abs="7.602275" NOx_abs="167.837251" fuel_abs="173.557376" electricity_abs="0"/>
    </tripinfo>
    <tripinfo id="carIn86816:1" depart="57617.00" departLane="128361102#0_1" departPos="5.10" departSpeed="0.00" departDelay="0.80" arrival="57804.00" arrivalLane="201956811#0_1" arrivalPos="40.40" arrivalSpeed="13.16" duration="187.00" routeLength="2067.33" waitingTime="6.00" waitingCount="1" stopTime="0.00" timeLoss="30.43" rerouteNo="1" devices="tripinfo_carIn86816:1 routing_carIn86816:1 emissions_carIn86816:1" vType="default_016" speedFactor="0.97" vaporized="">
        <emissions CO_abs="6518.105687" CO2_abs="481143.408784" HC_abs="40.929424" PMx_abs="7.970722" NOx_abs="192.007894" fuel_abs="206.823158" electricity_abs="0"/>
    </tripinfo>
    <tripinfo id="carIn12365:1" depart="57713.00" departLane="315358244_1" departPos="5.10" departSpeed="0.00" departDelay="0.50" arrival="57804.00" arrivalLane="447569997#1_2" arrivalPos="180.93" arrivalSpeed="9.01" duration="91.00" routeLength="718.04" waitingTime="9.00" waitingCount="1" stopTime="0.00" timeLoss="34.58" rerouteNo="1" devices="tripinfo_carIn12365:1 routing_carIn12365:1 emissions_carIn12365:1" vType="default_016" speedFactor="1.10" vaporized="">
        <emissions CO_abs="4579.912268" CO2_abs="218687.590788" HC_abs="25.957594" PMx_abs="3.891206" NOx_abs="90.110970" fuel_abs="94.005386" electricity_abs="0"/>
    </tripinfo>
    <tripinfo id="carIn30817:1" depart="57681.00" departLane="315358244_1" departPos="5.10" departSpeed="0.00" departDelay="0.20" arrival="57805.00" arrivalLane="447569997#1_1" arrivalPos="180.93" arrivalSpeed="7.72" duration="124.00" routeLength="718.04" waitingTime="40.00" waitingCount="1" stopTime="0.00" timeLoss="58.24" rerouteNo="1" devices="tripinfo_carIn30817:1 routing_carIn30817:1 emissions_carIn30817:1" vType="default_016" speedFactor="0.94" vaporized="">
        <emissions CO_abs="9214.393966" CO2_abs="276200.674364" HC_abs="48.415655" PMx_abs="5.528218" NOx_abs="117.810872" fuel_abs="118.730042" electricity_abs="0"/>
    </tripinfo>
    <tripinfo id="carIn22761:1" depart="57616.00" departLane="-306240162#1_0" departPos="5.10" departSpeed="0.00" departDelay="2.10" arrival="57813.00" arrivalLane="399835085#1_1" arrivalPos="212.23" arrivalSpeed="6.13" duration="197.00" routeLength="1093.26" waitingTime="79.00" waitingCount="2" stopTime="0.00" timeLoss="102.56" rerouteNo="1" devices="tripinfo_carIn22761:1 routing_carIn22761:1 emissions_carIn22761:1" vType="default_016" speedFactor="0.83" vaporized="">
        <emissions CO_abs="16064.442294" CO2_abs="479558.665000" HC_abs="84.295626" PMx_abs="9.627816" NOx_abs="203.150074" fuel_abs="206.147450" electricity_abs="0"/>
    </tripinfo>
    <tripinfo id="carIn12858:1" depart="57661.00" departLane="128361109#1_1" departPos="5.10" departSpeed="0.00" departDelay="0.90" arrival="57815.00" arrivalLane="399835085#1_1" arrivalPos="212.23" arrivalSpeed="8.50" duration="154.00" routeLength="1738.12" waitingTime="12.00" waitingCount="1" stopTime="0.00" timeLoss="41.85" rerouteNo="1" devices="tripinfo_carIn12858:1 routing_carIn12858:1 emissions_carIn12858:1" vType="default_016" speedFactor="1.03" vaporized="">
        <emissions CO_abs="8751.009542" CO2_abs="526922.738749" HC_abs="52.412076" PMx_abs="10.133707" NOx_abs="217.152944" fuel_abs="226.501213" electricity_abs="0"/>
    </tripinfo>
    <tripinfo id="h11737c1:1" depart="57665.00" departLane="272042143_1" departPos="5.10" departSpeed="0.00" departDelay="1.50" arrival="57815.00" arrivalLane="-315358254#1_1" arrivalPos="137.16" arrivalSpeed="15.14" duration="150.00" routeLength="1596.88" waitingTime="26.00" waitingCount="2" stopTime="0.00" timeLoss="51.66" rerouteNo="1" devices="tripinfo_h11737c1:1 routing_h11737c1:1 emissions_h11737c1:1" vType="default_016" speedFactor="1.18" vaporized="">
        <emissions CO_abs="7941.319926" CO2_abs="440349.538410" HC_abs="46.303491" PMx_abs="8.124204" NOx_abs="179.412978" fuel_abs="189.288148" electricity_abs="0"/>
    </tripinfo>
    <tripinfo id="carIn50326:1" depart="57651.00" departLane="128361102#0_1" departPos="5.10" departSpeed="0.00" departDelay="0.30" arrival="57819.00" arrivalLane="18809673#0_1" arrivalPos="473.56" arrivalSpeed="12.85" duration="168.00" routeLength="1591.07" waitingTime="16.00" waitingCount="1" stopTime="0.00" timeLoss="35.81" rerouteNo="1" devices="tripinfo_carIn50326:1 routing_carIn50326:1 emissions_carIn50326:1" vType="default_016" speedFactor="0.98" vaporized="">
        <emissions CO_abs="6927.192617" CO2_abs="374806.766885" HC_abs="40.257533" PMx_abs="6.268384" NOx_abs="150.510539" fuel_abs="161.114978" electricity_abs="0"/>
    </tripinfo>
    <tripinfo id="carIn126288:1" depart="57674.00" departLane="272042143_1" departPos="5.10" departSpeed="0.00" departDelay="0.00" arrival="57819.00" arrivalLane="-315358254#1_1" arrivalPos="137.16" arrivalSpeed="13.22" duration="145.00" routeLength="1596.88" waitingTime="13.00" waitingCount="1" stopTime="0.00" timeLoss="29.97" rerouteNo="1" devices="tripinfo_carIn126288:1 routing_carIn126288:1 emissions_carIn126288:1" vType="default_016" speedFactor="1.01" vaporized="">
        <emissions CO_abs="5197.630128" CO2_abs="343715.011603" HC_abs="31.646377" PMx_abs="5.739802" NOx_abs="136.899076" fuel_abs="147.748956" electricity_abs="0"/>
    </tripinfo>
    <tripinfo id="h19804c1:3" depart="57617.00" departLane="124812856#0_1" departPos="5.10" departSpeed="0.00" departDelay="1.50" arrival="57820.00" arrivalLane="-128361102#1_1" arrivalPos="274.68" arrivalSpeed="16.99" duration="203.00" routeLength="2232.46" waitingTime="30.00" waitingCount="3" stopTime="0.00" timeLoss="75.37" rerouteNo="1" devices="tripinfo_h19804c1:3 routing_h19804c1:3 emissions_h19804c1:3" vType="default_016" speedFactor="1.28" vaporized="">
        <emissions CO_abs="12192.714858" CO2_abs="696484.485043" HC_abs="71.923047" PMx_abs="13.664247" NOx_abs="290.271686" fuel_abs="299.388374" electricity_abs="0"/>
    </tripinfo>
    <tripinfo id="randUni15030:1" depart="57735.00" departLane="386687232#0_1" departPos="5.10" departSpeed="0.00" departDelay="0.10" arrival="57820.00" arrivalLane="26677539_1" arrivalPos="151.98" arrivalSpeed="8.38" duration="85.00" routeLength="919.89" waitingTime="0.00" waitingCount="0" stopTime="0.00" timeLoss="11.34" rerouteNo="1" devices="tripinfo_randUni15030:1 routing_randUni15030:1 emissions_randUni15030:1" vType="random_016" speedFactor="1.13" vaporized="">
        <emissions CO_abs="3398.674408" CO2_abs="217982.263338" HC_abs="20.531084" PMx_abs="3.728642" NOx_abs="88.184485" fuel_abs="93.701484" electricity_abs="0"/>
    </tripinfo>
    <tripinfo id="carIn102915:1" depart="57643.00" departLane="128361102#0_1" departPos="5.10" departSpeed="0.00" departDelay="0.40" arrival="57821.00" arrivalLane="201956811#0_1" arrivalPos="40.40" arrivalSpeed="12.88" duration="178.00" routeLength="2067.33" waitingTime="3.00" waitingCount="1" stopTime="0.00" timeLoss="24.76" rerouteNo="1" devices="tripinfo_carIn102915:1 routing_carIn102915:1 emissions_carIn102915:1" vType="default_016" speedFactor="0.99" vaporized="">
        <emissions CO_abs="5589.532920" CO2_abs="418234.843739" HC_abs="35.189282" PMx_abs="6.892656" NOx_abs="166.384360" fuel_abs="179.781444" electricity_abs="0"/>
    </tripinfo>
    <tripinfo id="randUni33724:1" depart="57646.00" departLane="128361102#0_1" departPos="5.10" departSpeed="0.00" departDelay="1.20" arrival="57823.00" arrivalLane="201956811#0_1" arrivalPos="40.40" arrivalSpeed="15.26" duration="177.00" routeLength="2067.33" waitingTime="2.00" waitingCount="1" stopTime="0.00" timeLoss="52.52" rerouteNo="1" devices="tripinfo_randUni33724:1 routing_randUni33724:1 emissions_randUni33724:1" vType="random_016" speedFactor="1.22" vaporized="">
        <emissions CO_abs="6520.343518" CO2_abs="489113.670162" HC_abs="41.142890" PMx_abs="8.393181" NOx_abs="196.883254" fuel_abs="210.248712" electricity_abs="0"/>
    </tripinfo>
    <tripinfo id="h645c1:1" depart="57622.00" departLane="266565295#5_1" departPos="5.10" departSpeed="0.00" departDelay="0.40" arrival="57834.00" arrivalLane="-315358244_1" arrivalPos="33.95" arrivalSpeed="14.30" duration="212.00" routeLength="1910.83" waitingTime="50.00" waitingCount="3" stopTime="0.00" timeLoss="78.21" rerouteNo="1" devices="tripinfo_h645c1:1 routing_h645c1:1 emissions_h645c1:1" vType="default_016" speedFactor="1.04" vaporized="">
        <emissions CO_abs="12616.120047" CO2_abs="545886.318692" HC_abs="70.170418" PMx_abs="9.959562" NOx_abs="223.462040" fuel_abs="234.656478" electricity_abs="0"/>
    </tripinfo>
    <tripinfo id="carIn27009:1" depart="57673.00" departLane="-447569998#1_1" departPos="5.10" departSpeed="0.00" departDelay="0.50" arrival="57835.00" arrivalLane="-26677539_1" arrivalPos="152.75" arrivalSpeed="7.33" duration="162.00" routeLength="699.63" waitingTime="62.00" waitingCount="1" stopTime="0.00" timeLoss="76.22" rerouteNo="1" devices="tripinfo_carIn27009:1 routing_carIn27009:1 emissions_carIn27009:1" vType="default_015" speedFactor="0.98" vaporized="">
        <emissions CO_abs="13688.136740" CO2_abs="334206.535060" HC_abs="70.058018" PMx_abs="6.701514" NOx_abs="143.279472" fuel_abs="143.667036" electricity_abs="0"/>
    </tripinfo>
    <tripinfo id="carIn107282:1" depart="57749.00" departLane="-447569998#1_1" departPos="5.10" departSpeed="0.00" departDelay="0.00" arrival="57836.00" arrivalLane="315358242#0_1" arrivalPos="165.37" arrivalSpeed="12.76" duration="87.00" routeLength="448.50" waitingTime="34.00" waitingCount="1" stopTime="0.00" timeLoss="43.82" rerouteNo="1" devices="tripinfo_carIn107282:1 routing_carIn107282:1 emissions_carIn107282:1" vType="default_016" speedFactor="0.96" vaporized="">
        <emissions CO_abs="7039.421477" CO2_abs="198007.547853" HC_abs="36.673033" PMx_abs="4.026761" NOx_abs="84.873161" fuel_abs="85.117531" electricity_abs="0"/>
    </tripinfo>
    <tripinfo id="h12244c1:3" depart="57612.00" departLane="315358244_1" departPos="5.10" departSpeed="0.00" departDelay="0.40" arrival="57837.00" arrivalLane="386687235_1" arrivalPos="80.84" arrivalSpeed="12.30" duration="225.00" routeLength="1186.14" waitingTime="98.00" waitingCount="4" stopTime="0.00" timeLoss="127.97" rerouteNo="1" devices="tripinfo_h12244c1:3 routing_h12244c1:3 emissions_h12244c1:3" vType="default_016" speedFactor="0.89" vaporized="">
        <emissions CO_abs="18077.179538" CO2_abs="508216.938947" HC_abs="94.172976" PMx_abs="10.163570" NOx_abs="215.940521" fuel_abs="218.467642" electricity_abs="0"/>
    </tripinfo>
    <tripinfo id="h3864c1:3" depart="57678.00" departLane="24693977#1_1" departPos="5.10" departSpeed="0.00" departDelay="0.00" arrival="57838.00" arrivalLane="201956820_1" arrivalPos="48.33" arrivalSpeed="15.60" duration="160.00" routeLength="1574.85" waitingTime="23.00" waitingCount="2" stopTime="0.00" timeLoss="53.22" rerouteNo="1" devices="tripinfo_h3864c1:3 routing_h3864c1:3 emissions_h3864c1:3" vType="default_016" speedFactor="1.20" vaporized="">
        <emissions CO_abs="9999.837885" CO2_abs="501954.132767" HC_abs="57.459067" PMx_abs="9.809370" NOx_abs="210.723192" fuel_abs="215.769185" electricity_abs="0"/>
    </tripinfo>
    <tripinfo id="carIn73855:1" depart="57743.00" departLane="386687232#0_1" departPos="5.10" departSpeed="0.00" departDelay="0.50" arrival="57838.00" arrivalLane="-315358244_1" arrivalPos="33.95" arrivalSpeed="13.43" duration="95.00" routeLength="1157.39" waitingTime="0.00" waitingCount="0" stopTime="0.00" timeLoss="8.32" rerouteNo="1" devices="tripinfo_carIn73855:1 routing_carIn73855:1 emissions_carIn73855:1" vType="default_016" speedFactor="0.98" vaporized="">
        <emissions CO_abs="2598.182964" CO2_abs="224961.234167" HC_abs="17.049826" PMx_abs="3.491579" NOx_abs="87.663267" fuel_abs="96.701333" electricity_abs="0"/>
    </tripinfo>
    <tripinfo id="carIn107084:1" depart="57601.00" departLane="124812856#0_1" departPos="5.10" departSpeed="0.00" departDelay="0.70" arrival="57839.00" arrivalLane="-128361102#1_1" arrivalPos="274.68" arrivalSpeed="14.12" duration="238.00" routeLength="2250.49" waitingTime="56.00" waitingCount="1" stopTime="0.00" timeLoss="78.84" rerouteNo="1" devices="tripinfo_carIn107084:1 routing_carIn107084:1 emissions_carIn107084:1" vType="default_016" speedFactor="1.04" vaporized="">
        <emissions CO_abs="13771.264391" CO2_abs="612546.862754" HC_abs="76.990815" PMx_abs="11.135981" NOx_abs="250.057121" fuel_abs="263.311174" electricity_abs="0"/>
    </tripinfo>
    <tripinfo id="h17600c1:1" depart="57662.00" departLane="272042143_1" departPos="5.10" departSpeed="0.00" departDelay="0.30" arrival="57842.00" arrivalLane="201238729#3_1" arrivalPos="431.02" arrivalSpeed="13.32" duration="180.00" routeLength="2100.26" waitingTime="6.00" waitingCount="2" stopTime="0.00" timeLoss="26.65" rerouteNo="1" devices="tripinfo_h17600c1:1 routing_h17600c1:1 emissions_h17600c1:1" vType="default_016" speedFactor="0.99" vaporized="">
        <emissions CO_abs="5042.006686" CO2_abs="413999.281836" HC_abs="32.598173" PMx_abs="6.592857" NOx_abs="162.659156" fuel_abs="177.960749" electricity_abs="0"/>
    </tripinfo>
    <tripinfo id="carIn118591:1" depart="57689.00" departLane="315358244_1" departPos="5.10" departSpeed="0.00" departDelay="0.20" arrival="57843.00" arrivalLane="386687235_1" arrivalPos="80.84" arrivalSpeed="13.03" duration="154.00" routeLength="1186.14" waitingTime="39.00" waitingCount="2" stopTime="0.00" timeLoss="63.42" rerouteNo="1" devices="tripinfo_carIn118591:1 routing_carIn118591:1 emissions_carIn118591:1" vType="default_016" speedFactor="0.96" vaporized="">
        <emissions CO_abs="8858.895515" CO2_abs="373798.018908" HC_abs="49.100357" PMx_abs="6.927987" NOx_abs="154.681106" fuel_abs="160.681971" electricity_abs="0"/>
    </tripinfo>
    <tripinfo id="carIn12775:1" depart="57676.00" departLane="10425609#0_1" departPos="5.10" departSpeed="0.00" departDelay="0.60" arrival="57844.00" arrivalLane="18809673#0_1" arrivalPos="473.56" arrivalSpeed="13.82" duration="168.00" routeLength="1959.45" waitingTime="0.00" waitingCount="0" stopTime="0.00" timeLoss="27.66" rerouteNo="1" devices="tripinfo_carIn12775:1 routing_carIn12775:1 emissions_carIn12775:1" vType="default_016" speedFactor="1.04" vaporized="">
        <emissions CO_abs="5250.116568" CO2_abs="414533.540900" HC_abs="33.363124" PMx_abs="6.517780" NOx_abs="162.102046" fuel_abs="178.190695" electricity_abs="0"/>
    </tripinfo>
    <tripinfo id="carIn12152:1" depart="57647.00" departLane="24599188#0.94_1" departPos="5.10" departSpeed="0.00" departDelay="0.50" arrival="57847.00" arrivalLane="-315358254#1_1" arrivalPos="137.16" arrivalSpeed="12.17" duration="200.00" routeLength="2034.31" waitingTime="6.00" waitingCount="1" stopTime="0.00" timeLoss="29.24" rerouteNo="1" devices="tripinfo_carIn12152:1 routing_carIn12152:1 emissions_carIn12152:1" vType="default_016" speedFactor="0.93" vaporized="">
        <emissions CO_abs="6173.412377" CO2_abs="423889.711309" HC_abs="37.922773" PMx_abs="6.572813" NOx_abs="166.728946" fuel_abs="182.213228" electricity_abs="0"/>
    </tripinfo>
    <tripinfo id="h6541c1:3" depart="57727.00" departLane="201950247#3_1" departPos="5.10" departSpeed="0.00" departDelay="0.00" arrival="57859.00" arrivalLane="32978638#0_1" arrivalPos="49.29" arrivalSpeed="15.38" duration="132.00" routeLength="1176.17" waitingTime="16.00" waitingCount="2" stopTime="0.00" timeLoss="40.99" rerouteNo="1" devices="tripinfo_h6541c1:3 routing_h6541c1:3 emissions_h6541c1:3" vType="default_016" speedFactor="1.12" vaporized="">
        <emissions CO_abs="7185.550255" CO2_abs="371103.053225" HC_abs="41.421989" PMx_abs="6.871819" NOx_abs="153.713038" fuel_abs="159.522110" electricity_abs="0"/>
    </tripinfo>
    <tripinfo id="randUni31145:1" depart="57814.00" departLane="10425609#0_1" departPos="5.10" departSpeed="0.00" departDelay="0.30" arrival="57863.00" arrivalLane="201956810_1" arrivalPos="71.65" arrivalSpeed="15.02" duration="49.00" routeLength="255.78" waitingTime="20.00" waitingCount="1" stopTime="0.00" timeLoss="30.22" rerouteNo="1" devices="tripinfo_randUni31145:1 routing_randUni31145:1 emissions_randUni31145:1" vType="random_016" speedFactor="1.10" vaporized="">
        <emissions CO_abs="4930.751785" CO2_abs="165772.027662" HC_abs="26.341565" PMx_abs="3.441884" NOx_abs="71.350391" fuel_abs="71.259525" electricity_abs="0"/>
    </tripinfo>
    <tripinfo id="carIn48184:1" depart="57613.00" departLane="-306240162#1_0" departPos="5.10" departSpeed="0.00" departDelay="0.70" arrival="57864.00" arrivalLane="386687235_2" arrivalPos="80.84" arrivalSpeed="13.46" duration="251.00" routeLength="2257.41" waitingTime="62.00" waitingCount="3" stopTime="0.00" timeLoss="98.24" rerouteNo="1" devices="tripinfo_carIn48184:1 routing_carIn48184:1 emissions_carIn48184:1" vType="default_016" speedFactor="0.98" vaporized="">
        <emissions CO_abs="15129.036548" CO2_abs="677779.494038" HC_abs="84.839916" PMx_abs="12.869173" NOx_abs="280.440660" fuel_abs="291.351318" electricity_abs="0"/>
    </tripinfo>
    <tripinfo id="h16072c2:3" depart="57663.00" departLane="315358254#0_1" departPos="5.10" departSpeed="0.00" departDelay="2.50" arrival="57864.00" arrivalLane="386687235_1" arrivalPos="80.84" arrivalSpeed="14.01" duration="201.00" routeLength="1611.92" waitingTime="62.00" waitingCount="3" stopTime="0.00" timeLoss="87.31" rerouteNo="1" devices="tripinfo_h16072c2:3 routing_h16072c2:3 emissions_h16072c2:3" vType="default_016" speedFactor="1.03" vaporized="">
        <emissions CO_abs="13103.161495" CO2_abs="496174.630790" HC_abs="71.292423" PMx_abs="9.506271" NOx_abs="206.664190" fuel_abs="213.287898" electricity_abs="0"/>