<?xml version="1.0" encoding="UTF-8"?>

<!-- generated on Thu Nov  4 13:59:32 2021 by Eclipse SUMO sumo Version 1.9.0
<configuration xmlns:xsi="http://www.w3.org/2001/XMLSchema-instance" xsi:noNamespaceSchemaLocation="http://sumo.dlr.de/xsd/sumoConfiguration.xsd">

    <input>
        <net-file value="/mainfs/home/bk2g18/RESCO/environments/ingolstadt21/ingolstadt21.net.xml"/>
        <route-files value="/mainfs/home/bk2g18/RESCO/environments/ingolstadt21/ingolstadt21.rou.xml"/>
    </input>

    <output>
        <tripinfo-output value="/mainfs/home/bk2g18/RESCO/logs/MPLight-tr0-ingolstadt21-21-mplight_full-pressure/tripinfo_64.xml"/>
        <tripinfo-output.write-unfinished value="true"/>
    </output>

    <time>
        <begin value="57600"/>
        <end value="61200"/>
    </time>

    <processing>
        <time-to-teleport value="-1"/>
    </processing>

    <report>
        <xml-validation value="never"/>
        <xml-validation.routes value="never"/>
        <no-warnings value="true"/>
        <no-step-log value="true"/>
    </report>

    <emissions>
        <device.emissions.probability value="1"/>
    </emissions>

    <traci_server>
        <remote-port value="55909"/>
    </traci_server>

    <random_number>
        <random value="true"/>
    </random_number>

</configuration>
-->

<tripinfos xmlns:xsi="http://www.w3.org/2001/XMLSchema-instance" xsi:noNamespaceSchemaLocation="http://sumo.dlr.de/xsd/tripinfo_file.xsd">
    <tripinfo id="h15454c2:3" depart="57612.00" departLane="24608844_1" departPos="5.10" departSpeed="0.00" departDelay="0.50" arrival="57655.00" arrivalLane="32978638#0_1" arrivalPos="49.29" arrivalSpeed="13.25" duration="43.00" routeLength="354.79" waitingTime="0.00" waitingCount="0" stopTime="0.00" timeLoss="7.63" rerouteNo="1" devices="tripinfo_h15454c2:3 routing_h15454c2:3 emissions_h15454c2:3" vType="default_016" speedFactor="0.98" vaporized="">
        <emissions CO_abs="2340.945540" CO2_abs="119641.825206" HC_abs="13.452557" PMx_abs="2.124544" NOx_abs="49.464930" fuel_abs="51.429265" electricity_abs="0"/>
    </tripinfo>
    <tripinfo id="carIn53971:1" depart="57640.00" departLane="272042143_1" departPos="5.10" departSpeed="0.00" departDelay="0.80" arrival="57689.00" arrivalLane="24634414#1_1" arrivalPos="162.19" arrivalSpeed="9.17" duration="49.00" routeLength="493.04" waitingTime="0.00" waitingCount="0" stopTime="0.00" timeLoss="10.04" rerouteNo="1" devices="tripinfo_carIn53971:1 routing_carIn53971:1 emissions_carIn53971:1" vType="default_016" speedFactor="1.17" vaporized="">
        <emissions CO_abs="2569.368088" CO2_abs="156787.438204" HC_abs="15.377411" PMx_abs="2.817325" NOx_abs="64.443969" fuel_abs="67.396270" electricity_abs="0"/>
    </tripinfo>
    <tripinfo id="h7800c1:5" depart="57696.00" departLane="-447569998#1_1" departPos="5.10" departSpeed="0.00" departDelay="0.00" arrival="57720.00" arrivalLane="-447569998#1_1" arrivalPos="180.76" arrivalSpeed="7.68" duration="24.00" routeLength="175.66" waitingTime="0.00" waitingCount="0" stopTime="0.00" timeLoss="2.91" rerouteNo="1" devices="tripinfo_h7800c1:5 routing_h7800c1:5 emissions_h7800c1:5" vType="default_016" speedFactor="1.04" vaporized="">
        <emissions CO_abs="1114.154826" CO2_abs="50870.667142" HC_abs="6.237237" PMx_abs="0.806935" NOx_abs="20.503052" fuel_abs="21.867517" electricity_abs="0"/>
    </tripinfo>
    <tripinfo id="carIn60260:1" depart="57606.00" departLane="315358254#0_1" departPos="5.10" departSpeed="0.00" departDelay="0.90" arrival="57728.00" arrivalLane="399835085#1_1" arrivalPos="212.23" arrivalSpeed="8.25" duration="122.00" routeLength="430.98" waitingTime="71.00" waitingCount="1" stopTime="0.00" timeLoss="81.42" rerouteNo="1" devices="tripinfo_carIn60260:1 routing_carIn60260:1 emissions_carIn60260:1" vType="default_016" speedFactor="1.14" vaporized="">
        <emissions CO_abs="13041.998938" CO2_abs="291231.887311" HC_abs="66.205317" PMx_abs="6.398379" NOx_abs="127.825769" fuel_abs="125.193475" electricity_abs="0"/>
    </tripinfo>
    <tripinfo id="h3568c1:3" depart="57656.00" departLane="266565295#5_1" departPos="5.10" departSpeed="0.00" departDelay="0.80" arrival="57728.00" arrivalLane="-24634415_1" arrivalPos="62.03" arrivalSpeed="14.22" duration="72.00" routeLength="807.40" waitingTime="0.00" waitingCount="0" stopTime="0.00" timeLoss="13.37" rerouteNo="1" devices="tripinfo_h3568c1:3 routing_h3568c1:3 emissions_h3568c1:3" vType="default_016" speedFactor="1.11" vaporized="">
        <emissions CO_abs="3403.365996" CO2_abs="220742.730880" HC_abs="20.656161" PMx_abs="4.010705" NOx_abs="90.652273" fuel_abs="94.887718" electricity_abs="0"/>
    </tripinfo>
    <tripinfo id="h5979c1:5" depart="57669.00" departLane="399835085#1_1" departPos="5.10" departSpeed="0.00" departDelay="0.00" arrival="57750.00" arrivalLane="-315358254#1_1" arrivalPos="137.16" arrivalSpeed="12.97" duration="81.00" routeLength="659.33" waitingTime="0.00" waitingCount="0" stopTime="0.00" timeLoss="9.22" rerouteNo="1" devices="tripinfo_h5979c1:5 routing_h5979c1:5 emissions_h5979c1:5" vType="default_016" speedFactor="1.02" vaporized="">
        <emissions CO_abs="3281.330862" CO2_abs="176617.106710" HC_abs="19.017907" PMx_abs="2.862208" NOx_abs="71.200266" fuel_abs="75.920949" electricity_abs="0"/>
    </tripinfo>
    <tripinfo id="h4538c1:1" depart="57701.00" departLane="-10427692#1_1" departPos="5.10" departSpeed="0.00" departDelay="0.00" arrival="57755.00" arrivalLane="-128361102#1_1" arrivalPos="274.68" arrivalSpeed="14.15" duration="54.00" routeLength="440.74" waitingTime="12.00" waitingCount="1" stopTime="0.00" timeLoss="23.46" rerouteNo="1" devices="tripinfo_h4538c1:1 routing_h4538c1:1 emissions_h4538c1:1" vType="default_016" speedFactor="1.05" vaporized="">
        <emissions CO_abs="3213.352086" CO2_abs="143835.956089" HC_abs="17.973943" PMx_abs="2.648327" NOx_abs="59.249795" fuel_abs="61.829638" electricity_abs="0"/>
    </tripinfo>
    <tripinfo id="h317c2:1" depart="57707.00" departLane="-32978638#0_1" departPos="5.10" departSpeed="0.00" departDelay="0.10" arrival="57756.00" arrivalLane="-266565295#5_1" arrivalPos="172.76" arrivalSpeed="12.99" duration="49.00" routeLength="370.53" waitingTime="11.00" waitingCount="1" stopTime="0.00" timeLoss="19.75" rerouteNo="1" devices="tripinfo_h317c2:1 routing_h317c2:1 emissions_h317c2:1" vType="default_016" speedFactor="0.95" vaporized="">
        <emissions CO_abs="3310.432386" CO2_abs="134232.444640" HC_abs="18.230059" PMx_abs="2.578005" NOx_abs="56.372665" fuel_abs="57.701521" electricity_abs="0"/>
    </tripinfo>
    <tripinfo id="h3326c1:2" depart="57656.00" departLane="22716069#0_1" departPos="5.10" departSpeed="0.00" departDelay="0.00" arrival="57760.00" arrivalLane="24634517#13_1" arrivalPos="111.62" arrivalSpeed="15.04" duration="104.00" routeLength="1312.81" waitingTime="0.00" waitingCount="0" stopTime="0.00" timeLoss="14.47" rerouteNo="1" devices="tripinfo_h3326c1:2 routing_h3326c1:2 emissions_h3326c1:2" vType="default_016" speedFactor="1.09" vaporized="">
        <emissions CO_abs="4166.937800" CO2_abs="333425.816976" HC_abs="26.770376" PMx_abs="5.740545" NOx_abs="133.659155" fuel_abs="143.325067" electricity_abs="0"/>
    </tripinfo>
    <tripinfo id="carIn81046:1" depart="57611.00" departLane="124812856#0_1" departPos="5.10" departSpeed="0.00" departDelay="2.50" arrival="57779.00" arrivalLane="-128361102#1_1" arrivalPos="274.68" arrivalSpeed="14.69" duration="168.00" routeLength="2232.46" waitingTime="0.00" waitingCount="0" stopTime="0.00" timeLoss="25.62" rerouteNo="1" devices="tripinfo_carIn81046:1 routing_carIn81046:1 emissions_carIn81046:1" vType="default_016" speedFactor="1.15" vaporized="">
        <emissions CO_abs="5444.770606" CO2_abs="464135.180378" HC_abs="35.498245" PMx_abs="7.844121" NOx_abs="184.132239" fuel_abs="199.511257" electricity_abs="0"/>
    </tripinfo>
    <tripinfo id="carIn27009:1" depart="57673.00" departLane="-447569998#1_1" departPos="5.10" departSpeed="0.00" departDelay="0.50" arrival="57781.00" arrivalLane="-26677539_1" arrivalPos="152.75" arrivalSpeed="7.40" duration="108.00" routeLength="699.63" waitingTime="0.00" waitingCount="0" stopTime="0.00" timeLoss="14.67" rerouteNo="1" devices="tripinfo_carIn27009:1 routing_carIn27009:1 emissions_carIn27009:1" vType="default_015" speedFactor="0.90" vaporized="">
        <emissions CO_abs="4463.672703" CO2_abs="181527.564245" HC_abs="24.454326" PMx_abs="2.851759" NOx_abs="73.257312" fuel_abs="78.032770" electricity_abs="0"/>
    </tripinfo>
    <tripinfo id="carIn107282:1" depart="57749.00" departLane="-447569998#1_1" departPos="5.10" departSpeed="0.00" departDelay="0.00" arrival="57799.00" arrivalLane="315358242#0_1" arrivalPos="165.37" arrivalSpeed="12.66" duration="50.00" routeLength="448.50" waitingTime="0.00" waitingCount="0" stopTime="0.00" timeLoss="5.66" rerouteNo="1" devices="tripinfo_carIn107282:1 routing_carIn107282:1 emissions_carIn107282:1" vType="default_016" speedFactor="0.94" vaporized="">
        <emissions CO_abs="1999.864187" CO2_abs="111507.115670" HC_abs="11.690408" PMx_abs="1.832334" NOx_abs="44.894537" fuel_abs="47.932573" electricity_abs="0"/>
    </tripinfo>
    <tripinfo id="h7181c1:1" depart="57660.00" departLane="315358254#0_1" departPos="5.10" departSpeed="0.00" departDelay="0.10" arrival="57812.00" arrivalLane="306240162#0_0" arrivalPos="220.43" arrivalSpeed="14.27" duration="152.00" routeLength="932.35" waitingTime="69.00" waitingCount="3" stopTime="0.00" timeLoss="95.46" rerouteNo="1" devices="tripinfo_h7181c1:1 routing_h7181c1:1 emissions_h7181c1:1" vType="default_016" speedFactor="0.91" vaporized="">
        <emissions CO_abs="13654.432023" CO2_abs="435659.934105" HC_abs="72.488739" PMx_abs="9.164873" NOx_abs="186.860023" fuel_abs="187.275354" electricity_abs="0"/>
    </tripinfo>
    <tripinfo id="h11737c1:1" depart="57665.00" departLane="272042143_1" departPos="5.10" departSpeed="0.00" departDelay="1.50" arrival="57817.00" arrivalLane="-315358254#1_1" arrivalPos="137.16" arrivalSpeed="12.35" duration="152.00" routeLength="1596.88" waitingTime="10.00" waitingCount="1" stopTime="0.00" timeLoss="25.16" rerouteNo="1" devices="tripinfo_h11737c1:1 routing_h11737c1:1 emissions_h11737c1:1" vType="default_016" speedFactor="0.91" vaporized="">
        <emissions CO_abs="4519.393974" CO2_abs="331171.633341" HC_abs="28.269637" PMx_abs="5.188537" NOx_abs="130.269810" fuel_abs="142.357129" electricity_abs="0"/>
    </tripinfo>
    <tripinfo id="h16072c2:3" depart="57663.00" departLane="315358254#0_1" departPos="5.10" departSpeed="0.00" departDelay="2.50" arrival="57823.00" arrivalLane="386687235_2" arrivalPos="80.84" arrivalSpeed="15.47" duration="160.00" routeLength="1611.92" waitingTime="19.00" waitingCount="3" stopTime="0.00" timeLoss="62.43" rerouteNo="1" devices="tripinfo_h16072c2:3 routing_h16072c2:3 emissions_h16072c2:3" vType="default_016" speedFactor="1.20" vaporized="">
        <emissions CO_abs="7576.343142" CO2_abs="438517.292425" HC_abs="44.663916" PMx_abs="8.040636" NOx_abs="179.635110" fuel_abs="188.500214" electricity_abs="0"/>
    </tripinfo>
    <tripinfo id="randUni15030:1" depart="57735.00" departLane="386687232#0_1" departPos="5.10" departSpeed="0.00" departDelay="0.10" arrival="57826.00" arrivalLane="26677539_1" arrivalPos="151.98" arrivalSpeed="8.72" duration="91.00" routeLength="919.89" waitingTime="0.00" waitingCount="0" stopTime="0.00" timeLoss="11.93" rerouteNo="1" devices="tripinfo_randUni15030:1 routing_randUni15030:1 emissions_randUni15030:1" vType="random_016" speedFactor="1.05" vaporized="">
        <emissions CO_abs="3617.651279" CO2_abs="223741.767703" HC_abs="21.594020" PMx_abs="3.646496" NOx_abs="89.543499" fuel_abs="96.177616" electricity_abs="0"/>
    </tripinfo>
    <tripinfo id="carIn126288:1" depart="57674.00" departLane="272042143_1" departPos="5.10" departSpeed="0.00" departDelay="0.00" arrival="57829.00" arrivalLane="-315358254#1_1" arrivalPos="137.16" arrivalSpeed="11.08" duration="155.00" routeLength="1596.88" waitingTime="0.00" waitingCount="0" stopTime="0.00" timeLoss="13.99" rerouteNo="1" devices="tripinfo_carIn126288:1 routing_carIn126288:1 emissions_carIn126288:1" vType="default_016" speedFactor="0.83" vaporized="">
        <emissions CO_abs="4331.738735" CO2_abs="322271.480278" HC_abs="27.146458" PMx_abs="4.775473" NOx_abs="125.744894" fuel_abs="138.531602" electricity_abs="0"/>
    </tripinfo>
    <tripinfo id="carIn81860:1" depart="57712.00" departLane="128361102#0_1" departPos="5.10" departSpeed="0.00" departDelay="0.60" arrival="57836.00" arrivalLane="-24634517#17_1" arrivalPos="6.43" arrivalSpeed="8.21" duration="124.00" routeLength="1229.64" waitingTime="13.00" waitingCount="1" stopTime="0.00" timeLoss="39.54" rerouteNo="1" devices="tripinfo_carIn81860:1 routing_carIn81860:1 emissions_carIn81860:1" vType="default_016" speedFactor="1.06" vaporized="">
        <emissions CO_abs="6183.491757" CO2_abs="342078.182252" HC_abs="36.215831" PMx_abs="6.199959" NOx_abs="140.015361" fuel_abs="147.045418" electricity_abs="0"/>
    </tripinfo>
    <tripinfo id="h17600c1:1" depart="57662.00" departLane="272042143_1" departPos="5.10" departSpeed="0.00" departDelay="0.30" arrival="57842.00" arrivalLane="201238729#3_1" arrivalPos="431.02" arrivalSpeed="12.81" duration="180.00" routeLength="2100.26" waitingTime="9.00" waitingCount="1" stopTime="0.00" timeLoss="27.31" rerouteNo="1" devices="tripinfo_h17600c1:1 routing_h17600c1:1 emissions_h17600c1:1" vType="default_016" speedFactor="0.99" vaporized="">
        <emissions CO_abs="5276.663546" CO2_abs="411073.880774" HC_abs="33.534649" PMx_abs="6.433923" NOx_abs="160.397217" fuel_abs="176.703678" electricity_abs="0"/>
    </tripinfo>
    <tripinfo id="h5216c1:1" depart="57664.00" departLane="224892339#0_1" departPos="5.10" departSpeed="0.00" departDelay="0.00" arrival="57844.00" arrivalLane="386687235_1" arrivalPos="80.84" arrivalSpeed="12.16" duration="180.00" routeLength="1823.78" waitingTime="15.00" waitingCount="3" stopTime="0.00" timeLoss="45.59" rerouteNo="1" devices="tripinfo_h5216c1:1 routing_h5216c1:1 emissions_h5216c1:1" vType="default_016" speedFactor="0.95" vaporized="">
        <emissions CO_abs="7139.804246" CO2_abs="460249.327090" HC_abs="43.289463" PMx_abs="7.834227" NOx_abs="185.192031" fuel_abs="197.842116" electricity_abs="0"/>
    </tripinfo>
    <tripinfo id="h3864c1:3" depart="57678.00" departLane="24693977#1_1" departPos="5.10" departSpeed="0.00" departDelay="0.00" arrival="57849.00" arrivalLane="201956820_2" arrivalPos="48.33" arrivalSpeed="16.21" duration="171.00" routeLength="1574.85" waitingTime="29.00" waitingCount="2" stopTime="0.00" timeLoss="61.10" rerouteNo="1" devices="tripinfo_h3864c1:3 routing_h3864c1:3 emissions_h3864c1:3" vType="default_016" speedFactor="1.18" vaporized="">
        <emissions CO_abs="10262.493724" CO2_abs="515637.009221" HC_abs="58.755455" PMx_abs="9.812515" NOx_abs="214.188204" fuel_abs="221.651304" electricity_abs="0"/>
    </tripinfo>
    <tripinfo id="carIn121703:1" depart="57647.00" departLane="386687232#0_1" departPos="5.10" departSpeed="0.00" departDelay="0.30" arrival="57863.00" arrivalLane="-315358244_1" arrivalPos="33.95" arrivalSpeed="14.26" duration="216.00" routeLength="1157.39" waitingTime="117.00" waitingCount="2" stopTime="0.00" timeLoss="136.88" rerouteNo="1" devices="tripinfo_carIn121703:1 routing_carIn121703:1 emissions_carIn121703:1" vType="default_016" speedFactor="1.07" vaporized="">
        <emissions CO_abs="21399.596524" CO2_abs="562617.371853" HC_abs="110.675672" PMx_abs="12.041685" NOx_abs="243.208996" fuel_abs="241.852877" electricity_abs="0"/>
    </tripinfo>
    <tripinfo id="carIn129809:1" depart="57729.00" departLane="-447569998#1_1" departPos="5.10" departSpeed="0.00" departDelay="1.00" arrival="57864.00" arrivalLane="-315358244_2" arrivalPos="33.95" arrivalSpeed="11.86" duration="135.00" routeLength="706.49" waitingTime="50.00" waitingCount="2" stopTime="0.00" timeLoss="67.84" rerouteNo="1" devices="tripinfo_carIn129809:1 routing_carIn129809:1 emissions_carIn129809:1" vType="default_015" speedFactor="0.90" vaporized="">
        <emissions CO_abs="10789.512105" CO2_abs="315724.965849" HC_abs="56.468771" PMx_abs="6.115536" NOx_abs="133.097980" fuel_abs="135.720858" electricity_abs="0"/>
    </tripinfo>
    <tripinfo id="carIn8642:1" depart="57774.00" departLane="-447569998#1_1" departPos="5.10" departSpeed="0.00" departDelay="0.90" arrival="57866.00" arrivalLane="-315358244_1" arrivalPos="33.95" arrivalSpeed="14.64" duration="92.00" routeLength="706.49" waitingTime="20.00" waitingCount="1" stopTime="0.00" timeLoss="34.89" rerouteNo="1" devices="tripinfo_carIn8642:1 routing_carIn8642:1 emissions_carIn8642:1" vType="default_016" speedFactor="1.06" vaporized="">
        <emissions CO_abs="5878.704568" CO2_abs="242028.083654" HC_abs="32.412548" PMx_abs="4.447415" NOx_abs="100.013959" fuel_abs="104.039106" electricity_abs="0"/>
    </tripinfo>
    <tripinfo id="carIn73855:1" depart="57743.00" departLane="386687232#0_1" departPos="5.10" departSpeed="0.00" departDelay="0.50" arrival="57867.00" arrivalLane="-315358244_1" arrivalPos="33.95" arrivalSpeed="14.41" duration="124.00" routeLength="1157.39" waitingTime="27.00" waitingCount="1" stopTime="0.00" timeLoss="45.20" rerouteNo="1" devices="tripinfo_carIn73855:1 routing_carIn73855:1 emissions_carIn73855:1" vType="default_016" speedFactor="1.07" vaporized="">
        <emissions CO_abs="7504.105223" CO2_abs="346096.754941" HC_abs="42.287863" PMx_abs="6.531430" NOx_abs="143.259422" fuel_abs="148.773509" electricity_abs="0"/>
    </tripinfo>
    <tripinfo id="carIn53503:1" depart="57763.00" departLane="-306240162#1_0" departPos="5.10" departSpeed="0.00" departDelay="2.40" arrival="57871.00" arrivalLane="24634510#6_1" arrivalPos="76.64" arrivalSpeed="15.69" duration="108.00" routeLength="1440.47" waitingTime="0.00" waitingCount="0" stopTime="0.00" timeLoss="23.09" rerouteNo="1" devices="tripinfo_carIn53503:1 routing_carIn53503:1 emissions_carIn53503:1" vType="default_016" speedFactor="1.16" vaporized="">
        <emissions CO_abs="4070.423050" CO2_abs="339659.974874" HC_abs="26.332725" PMx_abs="5.924026" NOx_abs="136.064453" fuel_abs="146.004619" electricity_abs="0"/>
    </tripinfo>
    <tripinfo id="h8343c1:5" depart="57679.00" departLane="315358254#0_1" departPos="5.10" departSpeed="0.00" departDelay="0.60" arrival="57873.00" arrivalLane="-24634510#5_1" arrivalPos="236.88" arrivalSpeed="12.77" duration="194.00" routeLength="2056.84" waitingTime="33.00" waitingCount="2" stopTime="0.00" timeLoss="61.77" rerouteNo="1" devices="tripinfo_h8343c1:5 routing_h8343c1:5 emissions_h8343c1:5" vType="default_016" speedFactor="0.94" vaporized="">
        <emissions CO_abs="11794.205501" CO2_abs="598468.584991" HC_abs="67.896996" PMx_abs="11.432733" NOx_abs="246.805060" fuel_abs="257.257303" electricity_abs="0"/>
    </tripinfo>
    <tripinfo id="randUni31145:1" depart="57814.00" departLane="10425609#0_1" departPos="5.10" departSpeed="0.00" departDelay="0.30" arrival="57873.00" arrivalLane="201956810_1" arrivalPos="71.65" arrivalSpeed="13.72" duration="59.00" routeLength="255.78" waitingTime="29.00" waitingCount="1" stopTime="0.00" timeLoss="39.71" rerouteNo="1" devices="tripinfo_randUni31145:1 routing_randUni31145:1 emissions_randUni31145:1" vType="random_016" speedFactor="1.01" vaporized="">
        <emissions CO_abs="6022.109737" CO2_abs="174571.853328" HC_abs="31.543584" PMx_abs="3.727040" NOx_abs="75.879735" fuel_abs="75.042809" electricity_abs="0"/>
    </tripinfo>
    <tripinfo id="carIn50326:1" depart="57651.00" departLane="128361102#0_1" departPos="5.10" departSpeed="0.00" departDelay="0.30" arrival="57874.00" arrivalLane="18809673#0_1" arrivalPos="473.56" arrivalSpeed="12.36" duration="223.00" routeLength="1591.07" waitingTime="59.00" waitingCount="1" stopTime="0.00" timeLoss="86.21" rerouteNo="1" devices="tripinfo_carIn50326:1 routing_carIn50326:1 emissions_carIn50326:1" vType="default_016" speedFactor="0.94" vaporized="">
        <emissions CO_abs="14868.313782" CO2_abs="500374.343490" HC_abs="79.356362" PMx_abs="9.414536" NOx_abs="208.611617" fuel_abs="215.094754" electricity_abs="0"/>
    </tripinfo>
    <tripinfo id="50R_frequency3.17" depart="57674.00" departLane="-18809673#6_1" departPos="12.10" departSpeed="0.00" departDelay="0.70" arrival="57875.00" arrivalLane="201956811#0_1" arrivalPos="40.40" arrivalSpeed="11.97" duration="201.00" routeLength="1954.47" waitingTime="20.00" waitingCount="2" stopTime="0.00" timeLoss="55.85" rerouteNo="1" devices="tripinfo_50R_frequency3.17 routing_50R_frequency3.17 emissions_50R_frequency3.17" vType="bus" speedFactor="1.00" vaporized="">
        <emissions CO_abs="3960.873434" CO2_abs="2377091.144636" HC_abs="837.573887" PMx_abs="421.998908" NOx_abs="18732.924148" fuel_abs="1013.763883" electricity_abs="0"/>
    </tripinfo>
    <tripinfo id="carIn13443:1" depart="57729.00" departLane="272042143_1" departPos="5.10" departSpeed="0.00" departDelay="0.80" arrival="57876.00" arrivalLane="399835085#1_1" arrivalPos="212.23" arrivalSpeed="8.24" duration="147.00" routeLength="1757.45" waitingTime="0.00" waitingCount="0" stopTime="0.00" timeLoss="20.71" rerouteNo="1" devices="tripinfo_carIn13443:1 routing_carIn13443:1 emissions_carIn13443:1" vType="default_016" speedFactor="1.12" vaporized="">
        <emissions CO_abs="4382.837512" CO2_abs="355189.249390" HC_abs="28.208419" PMx_abs="5.837580" NOx_abs="140.900866" fuel_abs="152.680552" electricity_abs="0"/>
    </tripinfo>
    <tripinfo id="carIn70533:1" depart="57812.00" departLane="-447569998#1_1" departPos="5.10" departSpeed="0.00" departDelay="0.10" arrival="57882.00" arrivalLane="-315358244_2" arrivalPos="33.95" arrivalSpeed="13.74" duration="70.00" routeLength="706.49" waitingTime="0.00" waitingCount="0" stopTime="0.00" timeLoss="10.31" rerouteNo="1" devices="tripinfo_carIn70533:1 routing_carIn70533:1 emissions_carIn70533:1" vType="default_016" speedFactor="1.02" vaporized="">
        <emissions CO_abs="3042.959807" CO2_abs="186370.490110" HC_abs="18.213274" PMx_abs="3.193951" NOx_abs="75.636758" fuel_abs="80.112996" electricity_abs="0"/>
    </tripinfo>
    <tripinfo id="carIn126378:1" depart="57746.00" departLane="386687232#0_1" departPos="5.10" departSpeed="0.00" departDelay="1.80" arrival="57884.00" arrivalLane="-315358244_1" arrivalPos="33.95" arrivalSpeed="12.11" duration="138.00" routeLength="1157.39" waitingTime="26.00" waitingCount="2" stopTime="0.00" timeLoss="48.02" rerouteNo="1" devices="tripinfo_carIn126378:1 routing_carIn126378:1 emissions_carIn126378:1" vType="default_016" speedFactor="0.94" vaporized="">
        <emissions CO_abs="6560.034897" CO2_abs="321120.994826" HC_abs="37.364581" PMx_abs="5.608920" NOx_abs="130.617637" fuel_abs="138.037693" electricity_abs="0"/>
    </tripinfo>
    <tripinfo id="carIn24709:1" depart="57753.00" departLane="266565295#5_1" departPos="5.10" departSpeed="0.00" departDelay="2.50" arrival="57884.00" arrivalLane="-24634506#2_1" arrivalPos="71.32" arrivalSpeed="12.65" duration="131.00" routeLength="1450.12" waitingTime="0.00" waitingCount="0" stopTime="0.00" timeLoss="12.62" rerouteNo="1" devices="tripinfo_carIn24709:1 routing_carIn24709:1 emissions_carIn24709:1" vType="default_016" speedFactor="1.00" vaporized="">
        <emissions CO_abs="4052.610192" CO2_abs="312598.067787" HC_abs="25.669730" PMx_abs="4.894796" NOx_abs="122.707394" fuel_abs="134.372950" electricity_abs="0"/>
    </tripinfo>
    <tripinfo id="carIn12152:1" depart="57647.00" departLane="24599188#0.94_1" departPos="5.10" departSpeed="0.00" departDelay="0.50" arrival="57891.00" arrivalLane="-315358254#1_1" arrivalPos="137.16" arrivalSpeed="11.80" duration="244.00" routeLength="2034.31" waitingTime="34.00" waitingCount="2" stopTime="0.00" timeLoss="62.95" rerouteNo="1" devices="tripinfo_carIn12152:1 routing_carIn12152:1 emissions_carIn12152:1" vType="default_016" speedFactor="0.88" vaporized="">
        <emissions CO_abs="10729.382745" CO2_abs="502372.395584" HC_abs="60.467287" PMx_abs="8.324507" NOx_abs="202.149882" fuel_abs="215.951783" electricity_abs="0"/>
    </tripinfo>
    <tripinfo id="carIn132499:1" depart="57740.00" departLane="272042143_1" departPos="5.10" departSpeed="0.00" departDelay="0.70" arrival="57899.00" arrivalLane="201238729#3_1" arrivalPos="431.02" arrivalSpeed="14.94" duration="159.00" routeLength="2100.26" waitingTime="3.00" waitingCount="1" stopTime="0.00" timeLoss="19.39" rerouteNo="1" devices="tripinfo_carIn132499:1 routing_carIn132499:1 emissions_carIn132499:1" vType="default_016" speedFactor="1.09" vaporized="">
        <emissions CO_abs="4214.778568" CO2_abs="397372.897131" HC_abs="28.325079" PMx_abs="6.350404" NOx_abs="154.637979" fuel_abs="170.813340" electricity_abs="0"/>
    </tripinfo>
    <tripinfo id="randUni23028:1" depart="57884.00" departLane="124812856#0_1" departPos="5.10" departSpeed="0.00" departDelay="0.10" arrival="57900.00" arrivalLane="201956810_1" arrivalPos="71.65" arrivalSpeed="11.03" duration="16.00" routeLength="134.91" waitingTime="0.00" waitingCount="0" stopTime="0.00" timeLoss="3.57" rerouteNo="1" devices="tripinfo_randUni23028:1 routing_randUni23028:1 emissions_randUni23028:1" vType="random_016" speedFactor="0.89" vaporized="">
        <emissions CO_abs="1009.141483" CO2_abs="54323.872476" HC_abs="5.871309" PMx_abs="0.995471" NOx_abs="22.632935" fuel_abs="23.351583" electricity_abs="0"/>
    </tripinfo>
    <tripinfo id="h13377c2:3" depart="57804.00" departLane="315358244_1" departPos="5.10" departSpeed="0.00" departDelay="0.60" arrival="57901.00" arrivalLane="447569997#1_1" arrivalPos="180.93" arrivalSpeed="7.64" duration="97.00" routeLength="726.74" waitingTime="11.00" waitingCount="3" stopTime="0.00" timeLoss="28.96" rerouteNo="1" devices="tripinfo_h13377c2:3 routing_h13377c2:3 emissions_h13377c2:3" vType="default_016" speedFactor="0.99" vaporized="">
        <emissions CO_abs="4863.492112" CO2_abs="211740.791079" HC_abs="27.046827" PMx_abs="3.692090" NOx_abs="86.691825" fuel_abs="91.019711" electricity_abs="0"/>
    </tripinfo>
    <tripinfo id="carIn12775:1" depart="57676.00" departLane="10425609#0_1" departPos="5.10" departSpeed="0.00" departDelay="0.60" arrival="57904.00" arrivalLane="18809673#0_1" arrivalPos="473.56" arrivalSpeed="18.48" duration="228.00" routeLength="1959.45" waitingTime="86.00" waitingCount="2" stopTime="0.00" timeLoss="119.12" rerouteNo="1" devices="tripinfo_carIn12775:1 routing_carIn12775:1 emissions_carIn12775:1" vType="default_016" speedFactor="1.33" vaporized="">
        <emissions CO_abs="18569.773412" CO2_abs="663535.470073" HC_abs="99.975733" PMx_abs="13.545348" NOx_abs="279.048847" fuel_abs="285.230243" electricity_abs="0"/>
    </tripinfo>
    <tripinfo id="carIn85747:1" depart="57673.00" departLane="128361109#1_1" departPos="5.10" departSpeed="0.00" departDelay="0.70" arrival="57905.00" arrivalLane="386687235_1" arrivalPos="80.84" arrivalSpeed="13.49" duration="232.00" routeLength="2088.57" waitingTime="57.00" waitingCount="2" stopTime="0.00" timeLoss="79.30" rerouteNo="1" devices="tripinfo_carIn85747:1 routing_carIn85747:1 emissions_carIn85747:1" vType="default_016" speedFactor="0.99" vaporized="">
        <emissions CO_abs="12904.275159" CO2_abs="536043.329411" HC_abs="71.199160" PMx_abs="9.459506" NOx_abs="217.012128" fuel_abs="230.426310" electricity_abs="0"/>
    </tripinfo>
    <tripinfo id="carIn99233:1" depart="57691.00" departLane="128361109#1_1" departPos="5.10" departSpeed="0.00" departDelay="1.90" arrival="57905.00" arrivalLane="386687235_2" arrivalPos="80.84" arrivalSpeed="14.61" duration="214.00" routeLength="2088.57" waitingTime="31.00" waitingCount="2" stopTime="0.00" timeLoss="72.63" rerouteNo="1" devices="tripinfo_carIn99233:1 routing_carIn99233:1 emissions_carIn99233:1" vType="default_016" speedFactor="1.07" vaporized="">
        <emissions CO_abs="9323.673369" CO2_abs="512516.780516" HC_abs="54.370711" PMx_abs="9.076490" NOx_abs="208.387783" fuel_abs="220.310355" electricity_abs="0"/>
    </tripinfo>
    <tripinfo id="carIn88905:1" depart="57688.00" departLane="128361109#1_1" departPos="5.10" departSpeed="0.00" departDelay="5.80" arrival="57906.00" arrivalLane="386687235_2" arrivalPos="80.84" arrivalSpeed="15.10" duration="218.00" routeLength="2088.57" waitingTime="43.00" waitingCount="3" stopTime="0.00" timeLoss="86.32" rerouteNo="1" devices="tripinfo_carIn88905:1 routing_carIn88905:1 emissions_carIn88905:1" vType="default_016" speedFactor="1.14" vaporized="">
        <emissions CO_abs="11274.142489" CO2_abs="539329.079560" HC_abs="63.975856" PMx_abs="10.044888" NOx_abs="222.045309" fuel_abs="231.836435" electricity_abs="0"/>
    </tripinfo>
    <tripinfo id="carIn5824:1" depart="57700.00" departLane="128361109#1_1" departPos="5.10" departSpeed="0.00" departDelay="5.60" arrival="57908.00" arrivalLane="386687235_2" arrivalPos="80.84" arrivalSpeed="13.66" duration="208.00" routeLength="2088.57" waitingTime="23.00" waitingCount="3" stopTime="0.00" timeLoss="67.44" rerouteNo="1" devices="tripinfo_carIn5824:1 routing_carIn5824:1 emissions_carIn5824:1" vType="default_016" speedFactor="1.07" vaporized="">
        <emissions CO_abs="8680.456702" CO2_abs="504616.574648" HC_abs="51.262403" PMx_abs="8.682790" NOx_abs="202.758085" fuel_abs="216.914420" electricity_abs="0"/>
    </tripinfo>
    <tripinfo id="carIn86816:1" depart="57617.00" departLane="128361102#0_1" departPos="5.10" departSpeed="0.00" departDelay="0.80" arrival="57912.00" arrivalLane="201956811#0_1" arrivalPos="40.40" arrivalSpeed="11.38" duration="295.00" routeLength="2067.33" waitingTime="98.00" waitingCount="2" stopTime="0.00" timeLoss="125.99" rerouteNo="1" devices="tripinfo_carIn86816:1 routing_carIn86816:1 emissions_carIn86816:1" vType="default_016" speedFactor="0.90" vaporized="">