<?xml version="1.0" encoding="UTF-8"?>

<!-- generated on Thu Nov  4 14:36:53 2021 by Eclipse SUMO sumo Version 1.9.0
<configuration xmlns:xsi="http://www.w3.org/2001/XMLSchema-instance" xsi:noNamespaceSchemaLocation="http://sumo.dlr.de/xsd/sumoConfiguration.xsd">

    <input>
        <net-file value="/mainfs/home/bk2g18/RESCO/environments/ingolstadt21/ingolstadt21.net.xml"/>
        <route-files value="/mainfs/home/bk2g18/RESCO/environments/ingolstadt21/ingolstadt21.rou.xml"/>
    </input>

    <output>
        <tripinfo-output value="/mainfs/home/bk2g18/RESCO/logs/MPLight-tr0-ingolstadt21-21-mplight_full-pressure/tripinfo_100.xml"/>
        <tripinfo-output.write-unfinished value="true"/>
    </output>

    <time>
        <begin value="57600"/>
        <end value="61200"/>
    </time>

    <processing>
        <time-to-teleport value="-1"/>
    </processing>

    <report>
        <xml-validation value="never"/>
        <xml-validation.routes value="never"/>
        <no-warnings value="true"/>
        <no-step-log value="true"/>
    </report>

    <emissions>
        <device.emissions.probability value="1"/>
    </emissions>

    <traci_server>
        <remote-port value="45147"/>
    </traci_server>

    <random_number>
        <random value="true"/>
    </random_number>

</configuration>
-->

<tripinfos xmlns:xsi="http://www.w3.org/2001/XMLSchema-instance" xsi:noNamespaceSchemaLocation="http://sumo.dlr.de/xsd/tripinfo_file.xsd">
    <tripinfo id="h15454c2:3" depart="57612.00" departLane="24608844_1" departPos="5.10" departSpeed="0.00" departDelay="0.50" arrival="57655.00" arrivalLane="32978638#0_1" arrivalPos="49.29" arrivalSpeed="12.61" duration="43.00" routeLength="354.79" waitingTime="0.00" waitingCount="0" stopTime="0.00" timeLoss="7.30" rerouteNo="1" devices="tripinfo_h15454c2:3 routing_h15454c2:3 emissions_h15454c2:3" vType="default_016" speedFactor="0.97" vaporized="">
        <emissions CO_abs="2161.872463" CO2_abs="115901.779805" HC_abs="12.542893" PMx_abs="1.998925" NOx_abs="47.453984" fuel_abs="49.821577" electricity_abs="0"/>
    </tripinfo>
    <tripinfo id="carIn53971:1" depart="57640.00" departLane="272042143_1" departPos="5.10" departSpeed="0.00" departDelay="0.80" arrival="57694.00" arrivalLane="24634414#1_1" arrivalPos="162.19" arrivalSpeed="8.22" duration="54.00" routeLength="493.04" waitingTime="0.00" waitingCount="0" stopTime="0.00" timeLoss="8.90" rerouteNo="1" devices="tripinfo_carIn53971:1 routing_carIn53971:1 emissions_carIn53971:1" vType="default_016" speedFactor="1.01" vaporized="">
        <emissions CO_abs="2621.781724" CO2_abs="149076.288628" HC_abs="15.414568" PMx_abs="2.593131" NOx_abs="61.000282" fuel_abs="64.081830" electricity_abs="0"/>
    </tripinfo>
    <tripinfo id="h7800c1:5" depart="57696.00" departLane="-447569998#1_1" departPos="5.10" departSpeed="0.00" departDelay="0.00" arrival="57723.00" arrivalLane="-447569998#1_1" arrivalPos="180.76" arrivalSpeed="6.37" duration="27.00" routeLength="175.66" waitingTime="0.00" waitingCount="0" stopTime="0.00" timeLoss="3.65" rerouteNo="1" devices="tripinfo_h7800c1:5 routing_h7800c1:5 emissions_h7800c1:5" vType="default_016" speedFactor="0.92" vaporized="">
        <emissions CO_abs="1274.796905" CO2_abs="52074.504088" HC_abs="6.993502" PMx_abs="0.839468" NOx_abs="21.157582" fuel_abs="22.385090" electricity_abs="0"/>
    </tripinfo>
    <tripinfo id="h3326c1:2" depart="57656.00" departLane="22716069#0_1" departPos="5.10" departSpeed="0.00" departDelay="0.00" arrival="57753.00" arrivalLane="24634517#13_1" arrivalPos="111.62" arrivalSpeed="15.79" duration="97.00" routeLength="1312.81" waitingTime="0.00" waitingCount="0" stopTime="0.00" timeLoss="14.19" rerouteNo="1" devices="tripinfo_h3326c1:2 routing_h3326c1:2 emissions_h3326c1:2" vType="default_016" speedFactor="1.18" vaporized="">
        <emissions CO_abs="4256.024429" CO2_abs="331287.335459" HC_abs="27.027518" PMx_abs="5.946364" NOx_abs="134.018613" fuel_abs="142.405565" electricity_abs="0"/>
    </tripinfo>
    <tripinfo id="h5979c1:5" depart="57669.00" departLane="399835085#1_1" departPos="5.10" departSpeed="0.00" departDelay="0.00" arrival="57753.00" arrivalLane="-315358254#1_1" arrivalPos="137.16" arrivalSpeed="13.30" duration="84.00" routeLength="659.33" waitingTime="0.00" waitingCount="0" stopTime="0.00" timeLoss="10.68" rerouteNo="1" devices="tripinfo_h5979c1:5 routing_h5979c1:5 emissions_h5979c1:5" vType="default_016" speedFactor="1.00" vaporized="">
        <emissions CO_abs="3291.505899" CO2_abs="163505.098081" HC_abs="18.753497" PMx_abs="2.665321" NOx_abs="66.237607" fuel_abs="70.284767" electricity_abs="0"/>
    </tripinfo>
    <tripinfo id="h3568c1:3" depart="57656.00" departLane="266565295#5_1" departPos="5.10" departSpeed="0.00" departDelay="0.80" arrival="57754.00" arrivalLane="-24634415_1" arrivalPos="62.03" arrivalSpeed="14.23" duration="98.00" routeLength="807.40" waitingTime="18.00" waitingCount="1" stopTime="0.00" timeLoss="36.03" rerouteNo="1" devices="tripinfo_h3568c1:3 routing_h3568c1:3 emissions_h3568c1:3" vType="default_016" speedFactor="1.04" vaporized="">
        <emissions CO_abs="5656.835024" CO2_abs="280237.508715" HC_abs="32.345121" PMx_abs="5.267099" NOx_abs="116.503447" fuel_abs="120.462795" electricity_abs="0"/>
    </tripinfo>
    <tripinfo id="h3154c1:1" depart="57658.00" departLane="24634507_1" departPos="5.10" departSpeed="0.00" departDelay="0.00" arrival="57767.00" arrivalLane="-266565295#5_1" arrivalPos="172.76" arrivalSpeed="13.21" duration="109.00" routeLength="1206.22" waitingTime="3.00" waitingCount="1" stopTime="0.00" timeLoss="22.05" rerouteNo="1" devices="tripinfo_h3154c1:1 routing_h3154c1:1 emissions_h3154c1:1" vType="default_016" speedFactor="1.03" vaporized="">
        <emissions CO_abs="4392.565529" CO2_abs="302339.442751" HC_abs="27.041798" PMx_abs="5.248894" NOx_abs="122.278390" fuel_abs="129.962779" electricity_abs="0"/>
    </tripinfo>
    <tripinfo id="h4538c1:1" depart="57701.00" departLane="-10427692#1_1" departPos="5.10" departSpeed="0.00" departDelay="0.00" arrival="57783.00" arrivalLane="-128361102#1_1" arrivalPos="274.68" arrivalSpeed="15.37" duration="82.00" routeLength="440.74" waitingTime="43.00" waitingCount="1" stopTime="0.00" timeLoss="53.66" rerouteNo="1" devices="tripinfo_h4538c1:1 routing_h4538c1:1 emissions_h4538c1:1" vType="default_016" speedFactor="1.11" vaporized="">
        <emissions CO_abs="8051.277759" CO2_abs="231070.568479" HC_abs="41.993474" PMx_abs="4.708902" NOx_abs="97.971870" fuel_abs="99.330284" electricity_abs="0"/>
    </tripinfo>
    <tripinfo id="h11737c1:1" depart="57665.00" departLane="272042143_1" departPos="5.10" departSpeed="0.00" departDelay="1.50" arrival="57791.00" arrivalLane="-315358254#1_1" arrivalPos="137.16" arrivalSpeed="14.16" duration="126.00" routeLength="1596.88" waitingTime="0.00" waitingCount="0" stopTime="0.00" timeLoss="17.54" rerouteNo="1" devices="tripinfo_h11737c1:1 routing_h11737c1:1 emissions_h11737c1:1" vType="default_016" speedFactor="1.08" vaporized="">
        <emissions CO_abs="4122.625512" CO2_abs="347811.644012" HC_abs="26.813293" PMx_abs="5.810720" NOx_abs="137.973013" fuel_abs="149.508998" electricity_abs="0"/>
    </tripinfo>
    <tripinfo id="carIn27009:1" depart="57673.00" departLane="-447569998#1_1" departPos="5.10" departSpeed="0.00" departDelay="0.50" arrival="57791.00" arrivalLane="-26677539_1" arrivalPos="152.75" arrivalSpeed="6.06" duration="118.00" routeLength="699.63" waitingTime="0.00" waitingCount="0" stopTime="0.00" timeLoss="14.55" rerouteNo="1" devices="tripinfo_carIn27009:1 routing_carIn27009:1 emissions_carIn27009:1" vType="default_015" speedFactor="0.81" vaporized="">
        <emissions CO_abs="4975.237794" CO2_abs="189037.938412" HC_abs="26.948657" PMx_abs="3.003156" NOx_abs="76.659978" fuel_abs="81.261447" electricity_abs="0"/>
    </tripinfo>
    <tripinfo id="carIn129809:1" depart="57729.00" departLane="-447569998#1_1" departPos="5.10" departSpeed="0.00" departDelay="1.00" arrival="57800.00" arrivalLane="-315358244_1" arrivalPos="33.95" arrivalSpeed="12.45" duration="71.00" routeLength="706.49" waitingTime="0.00" waitingCount="0" stopTime="0.00" timeLoss="7.03" rerouteNo="1" devices="tripinfo_carIn129809:1 routing_carIn129809:1 emissions_carIn129809:1" vType="default_015" speedFactor="0.95" vaporized="">
        <emissions CO_abs="2278.705043" CO2_abs="147779.080750" HC_abs="13.772032" PMx_abs="2.190670" NOx_abs="57.574536" fuel_abs="63.524566" electricity_abs="0"/>
    </tripinfo>
    <tripinfo id="carIn107282:1" depart="57749.00" departLane="-447569998#1_1" departPos="5.10" departSpeed="0.00" departDelay="0.00" arrival="57801.00" arrivalLane="315358242#0_1" arrivalPos="165.37" arrivalSpeed="12.32" duration="52.00" routeLength="448.50" waitingTime="0.00" waitingCount="0" stopTime="0.00" timeLoss="5.06" rerouteNo="1" devices="tripinfo_carIn107282:1 routing_carIn107282:1 emissions_carIn107282:1" vType="default_016" speedFactor="0.89" vaporized="">
        <emissions CO_abs="1974.839717" CO2_abs="107781.551278" HC_abs="11.467994" PMx_abs="1.672070" NOx_abs="42.869956" fuel_abs="46.331273" electricity_abs="0"/>
    </tripinfo>
    <tripinfo id="carIn126288:1" depart="57674.00" departLane="272042143_1" departPos="5.10" departSpeed="0.00" departDelay="0.00" arrival="57803.00" arrivalLane="-315358254#1_1" arrivalPos="137.16" arrivalSpeed="13.72" duration="129.00" routeLength="1596.88" waitingTime="0.00" waitingCount="0" stopTime="0.00" timeLoss="13.85" rerouteNo="1" devices="tripinfo_carIn126288:1 routing_carIn126288:1 emissions_carIn126288:1" vType="default_016" speedFactor="1.01" vaporized="">
        <emissions CO_abs="3669.476574" CO2_abs="323379.490996" HC_abs="24.219984" PMx_abs="5.100132" NOx_abs="126.512386" fuel_abs="139.007005" electricity_abs="0"/>
    </tripinfo>
    <tripinfo id="h17549c1:1" depart="57680.00" departLane="-447569998#1_1" departPos="5.10" departSpeed="0.00" departDelay="0.00" arrival="57814.00" arrivalLane="-315358254#1_1" arrivalPos="137.16" arrivalSpeed="15.15" duration="134.00" routeLength="1746.60" waitingTime="0.00" waitingCount="0" stopTime="0.00" timeLoss="13.10" rerouteNo="1" devices="tripinfo_h17549c1:1 routing_h17549c1:1 emissions_h17549c1:1" vType="default_016" speedFactor="1.13" vaporized="">
        <emissions CO_abs="3861.405433" CO2_abs="335561.538125" HC_abs="25.280872" PMx_abs="5.494959" NOx_abs="131.977704" fuel_abs="144.243319" electricity_abs="0"/>
    </tripinfo>
    <tripinfo id="randUni15030:1" depart="57735.00" departLane="386687232#0_1" departPos="5.10" departSpeed="0.00" departDelay="0.10" arrival="57827.00" arrivalLane="26677539_1" arrivalPos="151.98" arrivalSpeed="8.73" duration="92.00" routeLength="919.89" waitingTime="0.00" waitingCount="0" stopTime="0.00" timeLoss="12.39" rerouteNo="1" devices="tripinfo_randUni15030:1 routing_randUni15030:1 emissions_randUni15030:1" vType="random_016" speedFactor="1.05" vaporized="">
        <emissions CO_abs="3559.859061" CO2_abs="222631.848356" HC_abs="21.363291" PMx_abs="3.684593" NOx_abs="89.411464" fuel_abs="95.700400" electricity_abs="0"/>
    </tripinfo>
    <tripinfo id="carIn8642:1" depart="57774.00" departLane="-447569998#1_1" departPos="5.10" departSpeed="0.00" departDelay="0.90" arrival="57840.00" arrivalLane="-315358244_1" arrivalPos="33.95" arrivalSpeed="13.39" duration="66.00" routeLength="706.49" waitingTime="0.00" waitingCount="0" stopTime="0.00" timeLoss="6.71" rerouteNo="1" devices="tripinfo_carIn8642:1 routing_carIn8642:1 emissions_carIn8642:1" vType="default_016" speedFactor="1.02" vaporized="">
        <emissions CO_abs="2000.927088" CO2_abs="147540.468084" HC_abs="12.409721" PMx_abs="2.186943" NOx_abs="57.014703" fuel_abs="63.421790" electricity_abs="0"/>
    </tripinfo>
    <tripinfo id="h17600c1:1" depart="57662.00" departLane="272042143_1" departPos="5.10" departSpeed="0.00" departDelay="0.30" arrival="57874.00" arrivalLane="201238729#3_1" arrivalPos="431.02" arrivalSpeed="12.63" duration="212.00" routeLength="2100.26" waitingTime="33.00" waitingCount="1" stopTime="0.00" timeLoss="50.99" rerouteNo="1" devices="tripinfo_h17600c1:1 routing_h17600c1:1 emissions_h17600c1:1" vType="default_016" speedFactor="0.94" vaporized="">
        <emissions CO_abs="9164.609684" CO2_abs="486153.362803" HC_abs="52.980784" PMx_abs="7.760671" NOx_abs="191.518671" fuel_abs="208.979443" electricity_abs="0"/>
    </tripinfo>
    <tripinfo id="carIn70533:1" depart="57812.00" departLane="-447569998#1_1" departPos="5.10" departSpeed="0.00" departDelay="0.10" arrival="57875.00" arrivalLane="-315358244_1" arrivalPos="33.95" arrivalSpeed="14.44" duration="63.00" routeLength="706.49" waitingTime="0.00" waitingCount="0" stopTime="0.00" timeLoss="6.16" rerouteNo="1" devices="tripinfo_carIn70533:1 routing_carIn70533:1 emissions_carIn70533:1" vType="default_016" speedFactor="1.06" vaporized="">
        <emissions CO_abs="2169.029553" CO2_abs="149970.622465" HC_abs="13.348603" PMx_abs="2.464737" NOx_abs="59.757154" fuel_abs="64.466153" electricity_abs="0"/>
    </tripinfo>
    <tripinfo id="carIn118538:1" depart="57683.00" departLane="-447569998#1_1" departPos="5.10" departSpeed="0.00" departDelay="1.00" arrival="57877.00" arrivalLane="399835085#1_1" arrivalPos="212.23" arrivalSpeed="7.10" duration="194.00" routeLength="1904.55" waitingTime="0.00" waitingCount="0" stopTime="0.00" timeLoss="17.96" rerouteNo="1" devices="tripinfo_carIn118538:1 routing_carIn118538:1 emissions_carIn118538:1" vType="default_016" speedFactor="0.92" vaporized="">
        <emissions CO_abs="5775.754537" CO2_abs="388029.700554" HC_abs="35.185731" PMx_abs="5.564775" NOx_abs="150.048135" fuel_abs="166.799206" electricity_abs="0"/>
    </tripinfo>
    <tripinfo id="carIn13443:1" depart="57729.00" departLane="272042143_1" departPos="5.10" departSpeed="0.00" departDelay="0.80" arrival="57879.00" arrivalLane="399835085#1_1" arrivalPos="212.23" arrivalSpeed="8.98" duration="150.00" routeLength="1757.45" waitingTime="0.00" waitingCount="0" stopTime="0.00" timeLoss="22.63" rerouteNo="1" devices="tripinfo_carIn13443:1 routing_carIn13443:1 emissions_carIn13443:1" vType="default_016" speedFactor="1.12" vaporized="">
        <emissions CO_abs="4767.143681" CO2_abs="373756.337569" HC_abs="30.324060" PMx_abs="6.168642" NOx_abs="147.840072" fuel_abs="160.661884" electricity_abs="0"/>
    </tripinfo>
    <tripinfo id="randUni3548:1" depart="57726.00" departLane="-447569998#1_1" departPos="5.10" departSpeed="0.00" departDelay="0.00" arrival="57883.00" arrivalLane="-315358254#1_1" arrivalPos="137.16" arrivalSpeed="12.18" duration="157.00" routeLength="1743.98" waitingTime="0.00" waitingCount="0" stopTime="0.00" timeLoss="13.88" rerouteNo="1" devices="tripinfo_randUni3548:1 routing_randUni3548:1 emissions_randUni3548:1" vType="random_016" speedFactor="0.95" vaporized="">
        <emissions CO_abs="4330.834977" CO2_abs="338679.696879" HC_abs="27.583252" PMx_abs="5.248730" NOx_abs="132.849231" fuel_abs="145.584378" electricity_abs="0"/>
    </tripinfo>
    <tripinfo id="randUni23028:1" depart="57884.00" departLane="124812856#0_1" departPos="5.10" departSpeed="0.00" departDelay="0.10" arrival="57897.00" arrivalLane="201956810_1" arrivalPos="71.65" arrivalSpeed="16.05" duration="13.00" routeLength="134.91" waitingTime="0.00" waitingCount="0" stopTime="0.00" timeLoss="3.99" rerouteNo="1" devices="tripinfo_randUni23028:1 routing_randUni23028:1 emissions_randUni23028:1" vType="random_016" speedFactor="1.21" vaporized="">
        <emissions CO_abs="1224.005344" CO2_abs="68958.227010" HC_abs="7.222812" PMx_abs="1.396258" NOx_abs="29.454646" fuel_abs="29.642049" electricity_abs="0"/>
    </tripinfo>
    <tripinfo id="carIn13353:1" depart="57838.00" departLane="-447569998#1_1" departPos="5.10" departSpeed="0.00" departDelay="0.30" arrival="57898.00" arrivalLane="-315358244_1" arrivalPos="33.95" arrivalSpeed="15.54" duration="60.00" routeLength="706.49" waitingTime="0.00" waitingCount="0" stopTime="0.00" timeLoss="6.24" rerouteNo="1" devices="tripinfo_carIn13353:1 routing_carIn13353:1 emissions_carIn13353:1" vType="default_016" speedFactor="1.13" vaporized="">
        <emissions CO_abs="2063.686473" CO2_abs="155704.319510" HC_abs="12.887236" PMx_abs="2.559802" NOx_abs="61.588448" fuel_abs="66.930693" electricity_abs="0"/>
    </tripinfo>
    <tripinfo id="carIn81681:1" depart="57726.00" departLane="272042143_1" departPos="5.10" departSpeed="0.00" departDelay="0.30" arrival="57902.00" arrivalLane="306240162#0_0" arrivalPos="220.43" arrivalSpeed="14.30" duration="176.00" routeLength="2246.89" waitingTime="0.00" waitingCount="0" stopTime="0.00" timeLoss="17.79" rerouteNo="1" devices="tripinfo_carIn81681:1 routing_carIn81681:1 emissions_carIn81681:1" vType="default_016" speedFactor="0.93" vaporized="">
        <emissions CO_abs="5615.407390" CO2_abs="461695.694889" HC_abs="36.393282" PMx_abs="7.762569" NOx_abs="183.474093" fuel_abs="198.462840" electricity_abs="0"/>
    </tripinfo>
    <tripinfo id="carIn63848:1" depart="57841.00" departLane="-447569998#1_1" departPos="5.10" departSpeed="0.00" departDelay="0.80" arrival="57902.00" arrivalLane="-315358244_1" arrivalPos="33.95" arrivalSpeed="13.98" duration="61.00" routeLength="706.49" waitingTime="0.00" waitingCount="0" stopTime="0.00" timeLoss="5.90" rerouteNo="1" devices="tripinfo_carIn63848:1 routing_carIn63848:1 emissions_carIn63848:1" vType="default_016" speedFactor="1.10" vaporized="">
        <emissions CO_abs="2156.599645" CO2_abs="158592.398729" HC_abs="13.488126" PMx_abs="2.608129" NOx_abs="62.984413" fuel_abs="68.172198" electricity_abs="0"/>
    </tripinfo>
    <tripinfo id="carIn80913:1" depart="57732.00" departLane="272042143_1" departPos="5.10" departSpeed="0.00" departDelay="0.40" arrival="57904.00" arrivalLane="306240162#0_0" arrivalPos="220.43" arrivalSpeed="17.31" duration="172.00" routeLength="2246.89" waitingTime="0.00" waitingCount="0" stopTime="0.00" timeLoss="37.21" rerouteNo="1" devices="tripinfo_carIn80913:1 routing_carIn80913:1 emissions_carIn80913:1" vType="default_016" speedFactor="1.10" vaporized="">
        <emissions CO_abs="6780.339898" CO2_abs="534899.476394" HC_abs="43.414985" PMx_abs="9.503784" NOx_abs="215.706618" fuel_abs="229.929406" electricity_abs="0"/>
    </tripinfo>
    <tripinfo id="carIn24709:1" depart="57753.00" departLane="266565295#5_1" departPos="5.10" departSpeed="0.00" departDelay="2.50" arrival="57911.00" arrivalLane="-24634506#2_1" arrivalPos="71.32" arrivalSpeed="13.21" duration="158.00" routeLength="1450.12" waitingTime="23.00" waitingCount="1" stopTime="0.00" timeLoss="41.87" rerouteNo="1" devices="tripinfo_carIn24709:1 routing_carIn24709:1 emissions_carIn24709:1" vType="default_016" speedFactor="1.02" vaporized="">
        <emissions CO_abs="7640.060826" CO2_abs="374259.527140" HC_abs="43.536309" PMx_abs="6.754072" NOx_abs="153.653492" fuel_abs="160.879582" electricity_abs="0"/>
    </tripinfo>
    <tripinfo id="carIn101266:1" depart="57737.00" departLane="272042143_1" departPos="5.10" departSpeed="0.00" departDelay="0.50" arrival="57921.00" arrivalLane="306240162#0_0" arrivalPos="220.43" arrivalSpeed="15.25" duration="184.00" routeLength="2246.89" waitingTime="8.00" waitingCount="1" stopTime="0.00" timeLoss="30.21" rerouteNo="1" devices="tripinfo_carIn101266:1 routing_carIn101266:1 emissions_carIn101266:1" vType="default_016" speedFactor="0.96" vaporized="">
        <emissions CO_abs="5841.120246" CO2_abs="471698.356480" HC_abs="37.700447" PMx_abs="7.948364" NOx_abs="187.065026" fuel_abs="202.762669" electricity_abs="0"/>
    </tripinfo>
    <tripinfo id="carIn132499:1" depart="57740.00" departLane="272042143_1" departPos="5.10" departSpeed="0.00" departDelay="0.70" arrival="57925.00" arrivalLane="201238729#3_1" arrivalPos="431.02" arrivalSpeed="11.11" duration="185.00" routeLength="2100.26" waitingTime="0.00" waitingCount="0" stopTime="0.00" timeLoss="14.18" rerouteNo="1" devices="tripinfo_carIn132499:1 routing_carIn132499:1 emissions_carIn132499:1" vType="default_016" speedFactor="0.89" vaporized="">
        <emissions CO_abs="4135.241549" CO2_abs="374209.575551" HC_abs="27.428518" PMx_abs="5.202287" NOx_abs="142.507654" fuel_abs="160.857601" electricity_abs="0"/>
    </tripinfo>
    <tripinfo id="carIn14532:1" depart="57743.00" departLane="272042143_1" departPos="5.10" departSpeed="0.00" departDelay="1.90" arrival="57925.00" arrivalLane="399835085#1_1" arrivalPos="212.23" arrivalSpeed="6.82" duration="182.00" routeLength="1757.45" waitingTime="0.00" waitingCount="0" stopTime="0.00" timeLoss="16.04" rerouteNo="1" devices="tripinfo_carIn14532:1 routing_carIn14532:1 emissions_carIn14532:1" vType="default_016" speedFactor="0.85" vaporized="">
        <emissions CO_abs="5104.666166" CO2_abs="339301.896600" HC_abs="31.021983" PMx_abs="4.943213" NOx_abs="132.057534" fuel_abs="145.852868" electricity_abs="0"/>
    </tripinfo>
    <tripinfo id="h317c2:1" depart="57707.00" departLane="-32978638#0_1" departPos="5.10" departSpeed="0.00" departDelay="0.10" arrival="57926.00" arrivalLane="-266565295#5_1" arrivalPos="172.76" arrivalSpeed="12.56" duration="219.00" routeLength="370.53" waitingTime="182.00" waitingCount="1" stopTime="0.00" timeLoss="189.72" rerouteNo="1" devices="tripinfo_h317c2:1 routing_h317c2:1 emissions_h317c2:1" vType="default_016" speedFactor="0.93" vaporized="">
        <emissions CO_abs="31075.769486" CO2_abs="566447.366529" HC_abs="154.806076" PMx_abs="13.541219" NOx_abs="255.471532" fuel_abs="243.505122" electricity_abs="0"/>
    </tripinfo>
    <tripinfo id="carIn82298:1" depart="57783.00" departLane="-447569998#1_1" departPos="5.10" departSpeed="0.00" departDelay="0.60" arrival="57927.00" arrivalLane="-315358254#1_1" arrivalPos="137.16" arrivalSpeed="14.49" duration="144.00" routeLength="1746.60" waitingTime="0.00" waitingCount="0" stopTime="0.00" timeLoss="13.19" rerouteNo="1" devices="tripinfo_carIn82298:1 routing_carIn82298:1 emissions_carIn82298:1" vType="default_016" speedFactor="1.05" vaporized="">
        <emissions CO_abs="3872.729954" CO2_abs="332527.983574" HC_abs="25.299494" PMx_abs="5.240678" NOx_abs="129.934108" fuel_abs="142.939645" electricity_abs="0"/>
    </tripinfo>
    <tripinfo id="h330c1:1" depart="57736.00" departLane="-32978638#0_1" departPos="5.10" departSpeed="0.00" departDelay="0.20" arrival="57928.00" arrivalLane="-266565295#5_1" arrivalPos="172.76" arrivalSpeed="13.05" duration="192.00" routeLength="370.53" waitingTime="152.00" waitingCount="1" stopTime="0.00" timeLoss="164.23" rerouteNo="1" devices="tripinfo_h330c1:1 routing_h330c1:1 emissions_h330c1:1" vType="default_016" speedFactor="1.00" vaporized="">
        <emissions CO_abs="26298.327147" CO2_abs="507125.552093" HC_abs="131.664452" PMx_abs="11.900256" NOx_abs="227.145751" fuel_abs="218.002835" electricity_abs="0"/>
    </tripinfo>
    <tripinfo id="carIn121351:1" depart="57755.00" departLane="-447569998#1_1" departPos="5.10" departSpeed="0.00" departDelay="0.30" arrival="57934.00" arrivalLane="399835085#1_1" arrivalPos="212.23" arrivalSpeed="8.10" duration="179.00" routeLength="1904.55" waitingTime="0.00" waitingCount="0" stopTime="0.00" timeLoss="16.23" rerouteNo="1" devices="tripinfo_carIn121351:1 routing_carIn121351:1 emissions_carIn121351:1" vType="default_015" speedFactor="0.99" vaporized="">
        <emissions CO_abs="4695.624767" CO2_abs="351465.281601" HC_abs="29.426907" PMx_abs="5.037291" NOx_abs="135.125484" fuel_abs="151.081173" electricity_abs="0"/>
    </tripinfo>
    <tripinfo id="h3426c1:1" depart="57864.00" departLane="-160314345#2_1" departPos="5.10" departSpeed="0.00" departDelay="0.00" arrival="57946.00" arrivalLane="386687235_1" arrivalPos="80.84" arrivalSpeed="12.53" duration="82.00" routeLength="726.87" waitingTime="0.00" waitingCount="0" stopTime="0.00" timeLoss="8.79" rerouteNo="1" devices="tripinfo_h3426c1:1 routing_h3426c1:1 emissions_h3426c1:1" vType="default_016" speedFactor="0.94" vaporized="">
        <emissions CO_abs="2734.659197" CO2_abs="155430.673003" HC_abs="16.024538" PMx_abs="2.393080" NOx_abs="61.550391" fuel_abs="66.813802" electricity_abs="0"/>
    </tripinfo>
    <tripinfo id="carIn75660:1" depart="57679.00" departLane="128361109#1_1" departPos="5.10" departSpeed="0.00" departDelay="3.40" arrival="57947.00" arrivalLane="386687235_1" arrivalPos="80.84" arrivalSpeed="15.53" duration="268.00" routeLength="2088.57" waitingTime="115.00" waitingCount="1" stopTime="0.00" timeLoss="140.28" rerouteNo="1" devices="tripinfo_carIn75660:1 routing_carIn75660:1 emissions_carIn75660:1" vType="default_016" speedFactor="1.18" vaporized="">
        <emissions CO_abs="23328.880812" CO2_abs="715939.872009" HC_abs="122.875437" PMx_abs="14.511376" NOx_abs="301.657985" fuel_abs="307.759903" electricity_abs="0"/>
    </tripinfo>
    <tripinfo id="carIn115169:1" depart="57759.00" departLane="24599188#0.94_1" departPos="5.10" departSpeed="0.00" departDelay="0.50" arrival="57950.00" arrivalLane="-10427692#3_1" arrivalPos="28.64" arrivalSpeed="22.29" duration="191.00" routeLength="2183.23" waitingTime="0.00" waitingCount="0" stopTime="0.00" timeLoss="26.62" rerouteNo="1" devices="tripinfo_carIn115169:1 routing_carIn115169:1 emissions_carIn115169:1" vType="default_016" speedFactor="1.03" vaporized="">
        <emissions CO_abs="7356.377340" CO2_abs="529870.737101" HC_abs="45.879820" PMx_abs="9.068788" NOx_abs="213.250776" fuel_abs="227.768677" electricity_abs="0"/>
    </tripinfo>
    <tripinfo id="carIn9695:1" depart="57822.00" departLane="272042143_1" departPos="5.10" departSpeed="0.00" departDelay="0.80" arrival="57951.00" arrivalLane="-315358254#1_1" arrivalPos="137.16" arrivalSpeed="13.84" duration="129.00" routeLength="1596.88" waitingTime="0.00" waitingCount="0" stopTime="0.00" timeLoss="12.56" rerouteNo="1" devices="tripinfo_carIn9695:1 routing_carIn9695:1 emissions_carIn9695:1" vType="default_016" speedFactor="1.00" vaporized="">
        <emissions CO_abs="3702.778809" CO2_abs="318146.217254" HC_abs="24.259480" PMx_abs="5.105704" NOx_abs="125.193749" fuel_abs="136.757373" electricity_abs="0"/>
    </tripinfo>
    <tripinfo id="carIn85747:1" depart="57673.00" departLane="128361109#1_1" departPos="5.10" departSpeed="0.00" departDelay="0.70" arrival="57955.00" arrivalLane="386687235_1" arrivalPos="80.84" arrivalSpeed="13.29" duration="282.00" routeLength="2088.57" waitingTime="121.00" waitingCount="1" stopTime="0.00" timeLoss="136.02" rerouteNo="1" devices="tripinfo_carIn85747:1 routing_carIn85747:1 emissions_carIn85747:1" vType="default_016" speedFactor="1.03" vaporized="">
        <emissions CO_abs="22960.664577" CO2_abs="674098.874273" HC_abs="120.169430" PMx_abs="13.245985" NOx_abs="281.649975" fuel_abs="289.775249" electricity_abs="0"/>
    </tripinfo>
    <tripinfo id="carIn7949:1" depart="57676.00" departLane="128361109#1_1" departPos="5.10" departSpeed="0.00" departDelay="2.10" arrival="57964.00" arrivalLane="386687235_1" arrivalPos="80.84" arrivalSpeed="12.36" duration="288.00" routeLength="2088.57" waitingTime="116.00" waitingCount="1" stopTime="0.00" timeLoss="132.10" rerouteNo="1" devices="tripinfo_carIn7949:1 routing_carIn7949:1 emissions_carIn7949:1" vType="default_016" speedFactor="0.97" vaporized="">
        <emissions CO_abs="22102.169655" CO2_abs="650392.295342" HC_abs="115.764731" PMx_abs="12.516268" NOx_abs="270.855357" fuel_abs="279.584785" electricity_abs="0"/>
    </tripinfo>
    <tripinfo id="randUni11215:1" depart="57953.00" departLane="124812856#0_1" departPos="5.10" departSpeed="0.00" departDelay="0.30" arrival="57968.00" arrivalLane="201956810_1" arrivalPos="71.65" arrivalSpeed="14.01" duration="15.00" routeLength="134.91" waitingTime="0.00" waitingCount="0" stopTime="0.00" timeLoss="4.35" rerouteNo="1" devices="tripinfo_randUni11215:1 routing_randUni11215:1 emissions_randUni11215:1" vType="random_016" speedFactor="1.06" vaporized="">
        <emissions CO_abs="1163.472258" CO2_abs="64492.673191" HC_abs="6.829004" PMx_abs="1.250905" NOx_abs="27.205156" fuel_abs="27.722606" electricity_abs="0"/>
    </tripinfo>
    <tripinfo id="h7032c2:3" depart="57863.00" departLane="315358244_1" departPos="5.10" departSpeed="0.00" departDelay="0.40" arrival="57973.00" arrivalLane="26677541_1" arrivalPos="152.31" arrivalSpeed="13.20" duration="110.00" routeLength="925.70" waitingTime="1.00" waitingCount="1" stopTime="0.00" timeLoss="18.59" rerouteNo="1" devices="tripinfo_h7032c2:3 routing_h7032c2:3 emissions_h7032c2:3" vType="default_016" speedFactor="0.98" vaporized="">
        <emissions CO_abs="4377.803990" CO2_abs="238446.469389" HC_abs="25.459055" PMx_abs="3.939110" NOx_abs="96.261058" fuel_abs="102.498908" electricity_abs="0"/>
    </tripinfo>
    <tripinfo id="carIn95912:1" depart="57825.00" departLane="272042143_1" departPos="5.10" departSpeed="0.00" departDelay="1.40" arrival="57982.00" arrivalLane="201238729#3_1" arrivalPos="431.02" arrivalSpeed="14.07" duration="157.00" routeLength="2100.26" waitingTime="0.00" waitingCount="0" stopTime="0.00" timeLoss="12.73" rerouteNo="1" devices="tripinfo_carIn95912:1 routing_carIn95912:1 emissions_carIn95912:1" vType="default_016" speedFactor="1.05" vaporized="">
        <emissions CO_abs="3211.830856" CO2_abs="356737.851057" HC_abs="22.816643" PMx_abs="5.232396" NOx_abs="135.407959" fuel_abs="153.346378" electricity_abs="0"/>
    </tripinfo>
    <tripinfo id="carIn76994:1" depart="57828.00" departLane="272042143_1" departPos="5.10" departSpeed="0.00" departDelay="2.80" arrival="57984.00" arrivalLane="399835085#1_1" arrivalPos="212.23" arrivalSpeed="7.33" duration="156.00" routeLength="1757.45" waitingTime="0.00" waitingCount="0" stopTime="0.00" timeLoss="14.71" rerouteNo="1" devices="tripinfo_carIn76994:1 routing_carIn76994:1 emissions_carIn76994:1" vType="default_016" speedFactor="1.00" vaporized="">