<?xml version="1.0" encoding="UTF-8"?>

<!-- generated on Thu Nov  4 14:20:46 2021 by Eclipse SUMO sumo Version 1.9.0
<configuration xmlns:xsi="http://www.w3.org/2001/XMLSchema-instance" xsi:noNamespaceSchemaLocation="http://sumo.dlr.de/xsd/sumoConfiguration.xsd">

    <input>
        <net-file value="/mainfs/home/bk2g18/RESCO/environments/ingolstadt21/ingolstadt21.net.xml"/>
        <route-files value="/mainfs/home/bk2g18/RESCO/environments/ingolstadt21/ingolstadt21.rou.xml"/>
    </input>

    <output>
        <tripinfo-output value="/mainfs/home/bk2g18/RESCO/logs/MPLight-tr0-ingolstadt21-21-mplight_full-pressure/tripinfo_85.xml"/>
        <tripinfo-output.write-unfinished value="true"/>
    </output>

    <time>
        <begin value="57600"/>
        <end value="61200"/>
    </time>

    <processing>
        <time-to-teleport value="-1"/>
    </processing>

    <report>
        <xml-validation value="never"/>
        <xml-validation.routes value="never"/>
        <no-warnings value="true"/>
        <no-step-log value="true"/>
    </report>

    <emissions>
        <device.emissions.probability value="1"/>
    </emissions>

    <traci_server>
        <remote-port value="53131"/>
    </traci_server>

    <random_number>
        <random value="true"/>
    </random_number>

</configuration>
-->

<tripinfos xmlns:xsi="http://www.w3.org/2001/XMLSchema-instance" xsi:noNamespaceSchemaLocation="http://sumo.dlr.de/xsd/tripinfo_file.xsd">
    <tripinfo id="h15454c2:3" depart="57612.00" departLane="24608844_1" departPos="5.10" departSpeed="0.00" departDelay="0.50" arrival="57651.00" arrivalLane="32978638#0_1" arrivalPos="49.29" arrivalSpeed="12.97" duration="39.00" routeLength="354.79" waitingTime="0.00" waitingCount="0" stopTime="0.00" timeLoss="5.58" rerouteNo="1" devices="tripinfo_h15454c2:3 routing_h15454c2:3 emissions_h15454c2:3" vType="default_016" speedFactor="1.02" vaporized="">
        <emissions CO_abs="2008.931138" CO2_abs="109745.206968" HC_abs="11.713376" PMx_abs="1.938883" NOx_abs="45.218779" fuel_abs="47.175009" electricity_abs="0"/>
    </tripinfo>
    <tripinfo id="carIn53971:1" depart="57640.00" departLane="272042143_1" departPos="5.10" departSpeed="0.00" departDelay="0.80" arrival="57708.00" arrivalLane="24634414#1_1" arrivalPos="162.19" arrivalSpeed="5.96" duration="68.00" routeLength="493.04" waitingTime="0.00" waitingCount="0" stopTime="0.00" timeLoss="8.92" rerouteNo="1" devices="tripinfo_carIn53971:1 routing_carIn53971:1 emissions_carIn53971:1" vType="default_016" speedFactor="0.77" vaporized="">
        <emissions CO_abs="2614.827679" CO2_abs="121371.599602" HC_abs="14.683582" PMx_abs="1.909125" NOx_abs="48.698660" fuel_abs="52.173397" electricity_abs="0"/>
    </tripinfo>
    <tripinfo id="h7800c1:5" depart="57696.00" departLane="-447569998#1_1" departPos="5.10" departSpeed="0.00" departDelay="0.00" arrival="57726.00" arrivalLane="-447569998#1_1" arrivalPos="180.76" arrivalSpeed="6.16" duration="30.00" routeLength="175.66" waitingTime="0.00" waitingCount="0" stopTime="0.00" timeLoss="3.91" rerouteNo="1" devices="tripinfo_h7800c1:5 routing_h7800c1:5 emissions_h7800c1:5" vType="default_016" speedFactor="0.81" vaporized="">
        <emissions CO_abs="1604.771324" CO2_abs="57053.116063" HC_abs="8.596787" PMx_abs="0.889970" NOx_abs="23.040637" fuel_abs="24.525447" electricity_abs="0"/>
    </tripinfo>
    <tripinfo id="h3568c1:3" depart="57656.00" departLane="266565295#5_1" departPos="5.10" departSpeed="0.00" departDelay="0.80" arrival="57740.00" arrivalLane="-24634415_1" arrivalPos="62.03" arrivalSpeed="11.74" duration="84.00" routeLength="807.40" waitingTime="0.00" waitingCount="0" stopTime="0.00" timeLoss="13.39" rerouteNo="1" devices="tripinfo_h3568c1:3 routing_h3568c1:3 emissions_h3568c1:3" vType="default_016" speedFactor="0.91" vaporized="">
        <emissions CO_abs="3382.279682" CO2_abs="203331.514038" HC_abs="20.130532" PMx_abs="3.378816" NOx_abs="81.971825" fuel_abs="87.404042" electricity_abs="0"/>
    </tripinfo>
    <tripinfo id="h317c2:1" depart="57707.00" departLane="-32978638#0_1" departPos="5.10" departSpeed="0.00" departDelay="0.10" arrival="57741.00" arrivalLane="-266565295#5_1" arrivalPos="172.76" arrivalSpeed="12.99" duration="34.00" routeLength="370.53" waitingTime="0.00" waitingCount="0" stopTime="0.00" timeLoss="5.76" rerouteNo="1" devices="tripinfo_h317c2:1 routing_h317c2:1 emissions_h317c2:1" vType="default_016" speedFactor="0.96" vaporized="">
        <emissions CO_abs="1635.611844" CO2_abs="102909.106093" HC_abs="9.871519" PMx_abs="1.847301" NOx_abs="42.283083" fuel_abs="44.236222" electricity_abs="0"/>
    </tripinfo>
    <tripinfo id="h4538c1:1" depart="57701.00" departLane="-10427692#1_1" departPos="5.10" departSpeed="0.00" departDelay="0.00" arrival="57751.00" arrivalLane="-128361102#1_1" arrivalPos="274.68" arrivalSpeed="16.33" duration="50.00" routeLength="440.74" waitingTime="12.00" waitingCount="1" stopTime="0.00" timeLoss="24.25" rerouteNo="1" devices="tripinfo_h4538c1:1 routing_h4538c1:1 emissions_h4538c1:1" vType="default_016" speedFactor="1.25" vaporized="">
        <emissions CO_abs="3140.848650" CO2_abs="147149.204006" HC_abs="17.673049" PMx_abs="2.782309" NOx_abs="60.575808" fuel_abs="63.253680" electricity_abs="0"/>
    </tripinfo>
    <tripinfo id="h3326c1:2" depart="57656.00" departLane="22716069#0_1" departPos="5.10" departSpeed="0.00" departDelay="0.00" arrival="57760.00" arrivalLane="24634517#13_1" arrivalPos="111.62" arrivalSpeed="14.81" duration="104.00" routeLength="1312.81" waitingTime="0.00" waitingCount="0" stopTime="0.00" timeLoss="14.98" rerouteNo="1" devices="tripinfo_h3326c1:2 routing_h3326c1:2 emissions_h3326c1:2" vType="default_016" speedFactor="1.10" vaporized="">
        <emissions CO_abs="4274.961649" CO2_abs="325326.297003" HC_abs="27.050109" PMx_abs="5.669514" NOx_abs="131.074017" fuel_abs="139.843487" electricity_abs="0"/>
    </tripinfo>
    <tripinfo id="h5979c1:5" depart="57669.00" departLane="399835085#1_1" departPos="5.10" departSpeed="0.00" departDelay="0.00" arrival="57767.00" arrivalLane="-315358254#1_1" arrivalPos="137.16" arrivalSpeed="10.92" duration="98.00" routeLength="659.33" waitingTime="0.00" waitingCount="0" stopTime="0.00" timeLoss="12.72" rerouteNo="1" devices="tripinfo_h5979c1:5 routing_h5979c1:5 emissions_h5979c1:5" vType="default_016" speedFactor="0.86" vaporized="">
        <emissions CO_abs="4077.868736" CO2_abs="172672.012217" HC_abs="22.495832" PMx_abs="2.673868" NOx_abs="69.298611" fuel_abs="74.225987" electricity_abs="0"/>
    </tripinfo>
    <tripinfo id="h3688c1:1" depart="57625.00" departLane="201201950#1_1" departPos="5.10" departSpeed="0.00" departDelay="0.00" arrival="57774.00" arrivalLane="32978638#0_1" arrivalPos="49.29" arrivalSpeed="14.98" duration="149.00" routeLength="1089.75" waitingTime="57.00" waitingCount="2" stopTime="0.00" timeLoss="78.27" rerouteNo="1" devices="tripinfo_h3688c1:1 routing_h3688c1:1 emissions_h3688c1:1" vType="default_016" speedFactor="1.13" vaporized="">
        <emissions CO_abs="12698.022679" CO2_abs="423197.499107" HC_abs="67.553841" PMx_abs="8.578196" NOx_abs="179.270577" fuel_abs="181.918159" electricity_abs="0"/>
    </tripinfo>
    <tripinfo id="h330c1:1" depart="57736.00" departLane="-32978638#0_1" departPos="5.10" departSpeed="0.00" departDelay="0.20" arrival="57783.00" arrivalLane="-266565295#5_1" arrivalPos="172.76" arrivalSpeed="15.01" duration="47.00" routeLength="370.53" waitingTime="13.00" waitingCount="1" stopTime="0.00" timeLoss="22.35" rerouteNo="1" devices="tripinfo_h330c1:1 routing_h330c1:1 emissions_h330c1:1" vType="default_016" speedFactor="1.12" vaporized="">
        <emissions CO_abs="3276.027834" CO2_abs="144502.265283" HC_abs="18.309519" PMx_abs="2.856262" NOx_abs="60.954834" fuel_abs="62.115784" electricity_abs="0"/>
    </tripinfo>
    <tripinfo id="h11737c1:1" depart="57665.00" departLane="272042143_1" departPos="5.10" departSpeed="0.00" departDelay="1.50" arrival="57787.00" arrivalLane="-315358254#1_1" arrivalPos="137.16" arrivalSpeed="13.96" duration="122.00" routeLength="1596.88" waitingTime="0.00" waitingCount="0" stopTime="0.00" timeLoss="11.03" rerouteNo="1" devices="tripinfo_h11737c1:1 routing_h11737c1:1 emissions_h11737c1:1" vType="default_016" speedFactor="1.05" vaporized="">
        <emissions CO_abs="3206.775467" CO2_abs="298847.633756" HC_abs="21.551603" PMx_abs="4.770070" NOx_abs="116.764792" fuel_abs="128.461616" electricity_abs="0"/>
    </tripinfo>
    <tripinfo id="carIn126288:1" depart="57674.00" departLane="272042143_1" departPos="5.10" departSpeed="0.00" departDelay="0.00" arrival="57788.00" arrivalLane="-315358254#1_1" arrivalPos="137.16" arrivalSpeed="16.24" duration="114.00" routeLength="1596.88" waitingTime="0.00" waitingCount="0" stopTime="0.00" timeLoss="16.53" rerouteNo="1" devices="tripinfo_carIn126288:1 routing_carIn126288:1 emissions_carIn126288:1" vType="default_016" speedFactor="1.19" vaporized="">
        <emissions CO_abs="4255.034461" CO2_abs="363219.144674" HC_abs="27.943611" PMx_abs="6.413934" NOx_abs="145.743159" fuel_abs="156.131515" electricity_abs="0"/>
    </tripinfo>
    <tripinfo id="carIn27009:1" depart="57673.00" departLane="-447569998#1_1" departPos="5.10" departSpeed="0.00" departDelay="0.50" arrival="57794.00" arrivalLane="-26677539_1" arrivalPos="152.75" arrivalSpeed="6.86" duration="121.00" routeLength="699.63" waitingTime="9.00" waitingCount="1" stopTime="0.00" timeLoss="25.73" rerouteNo="1" devices="tripinfo_carIn27009:1 routing_carIn27009:1 emissions_carIn27009:1" vType="default_015" speedFactor="0.88" vaporized="">
        <emissions CO_abs="5293.775177" CO2_abs="198365.445070" HC_abs="28.644547" PMx_abs="3.326442" NOx_abs="81.440895" fuel_abs="85.270856" electricity_abs="0"/>
    </tripinfo>
    <tripinfo id="carIn107282:1" depart="57749.00" departLane="-447569998#1_1" departPos="5.10" departSpeed="0.00" departDelay="0.00" arrival="57797.00" arrivalLane="315358242#0_1" arrivalPos="165.37" arrivalSpeed="13.55" duration="48.00" routeLength="448.50" waitingTime="0.00" waitingCount="0" stopTime="0.00" timeLoss="5.25" rerouteNo="1" devices="tripinfo_carIn107282:1 routing_carIn107282:1 emissions_carIn107282:1" vType="default_016" speedFactor="0.99" vaporized="">
        <emissions CO_abs="1961.454259" CO2_abs="115530.979718" HC_abs="11.594166" PMx_abs="1.797041" NOx_abs="45.753803" fuel_abs="49.662347" electricity_abs="0"/>
    </tripinfo>
    <tripinfo id="randUni15030:1" depart="57735.00" departLane="386687232#0_1" departPos="5.10" departSpeed="0.00" departDelay="0.10" arrival="57820.00" arrivalLane="26677539_1" arrivalPos="151.98" arrivalSpeed="8.54" duration="85.00" routeLength="919.89" waitingTime="0.00" waitingCount="0" stopTime="0.00" timeLoss="10.92" rerouteNo="1" devices="tripinfo_randUni15030:1 routing_randUni15030:1 emissions_randUni15030:1" vType="random_016" speedFactor="1.13" vaporized="">
        <emissions CO_abs="2894.363880" CO2_abs="200274.988901" HC_abs="17.830410" PMx_abs="3.413896" NOx_abs="80.601500" fuel_abs="86.089723" electricity_abs="0"/>
    </tripinfo>
    <tripinfo id="h3864c1:3" depart="57678.00" departLane="24693977#1_1" departPos="5.10" departSpeed="0.00" departDelay="0.00" arrival="57851.00" arrivalLane="201956820_1" arrivalPos="48.33" arrivalSpeed="12.63" duration="173.00" routeLength="1574.85" waitingTime="9.00" waitingCount="2" stopTime="0.00" timeLoss="34.11" rerouteNo="1" devices="tripinfo_h3864c1:3 routing_h3864c1:3 emissions_h3864c1:3" vType="default_016" speedFactor="0.94" vaporized="">
        <emissions CO_abs="6283.397716" CO2_abs="401621.585261" HC_abs="37.973708" PMx_abs="6.702214" NOx_abs="161.879496" fuel_abs="172.640610" electricity_abs="0"/>
    </tripinfo>
    <tripinfo id="carIn121703:1" depart="57647.00" departLane="386687232#0_1" departPos="5.10" departSpeed="0.00" departDelay="0.30" arrival="57883.00" arrivalLane="-315358244_1" arrivalPos="33.95" arrivalSpeed="14.46" duration="236.00" routeLength="1157.39" waitingTime="138.00" waitingCount="2" stopTime="0.00" timeLoss="158.64" rerouteNo="1" devices="tripinfo_carIn121703:1 routing_carIn121703:1 emissions_carIn121703:1" vType="default_016" speedFactor="1.10" vaporized="">
        <emissions CO_abs="25354.085327" CO2_abs="631759.772524" HC_abs="130.207813" PMx_abs="13.682576" NOx_abs="273.995225" fuel_abs="271.576072" electricity_abs="0"/>
    </tripinfo>
    <tripinfo id="carIn129809:1" depart="57729.00" departLane="-447569998#1_1" departPos="5.10" departSpeed="0.00" departDelay="1.00" arrival="57884.00" arrivalLane="-315358244_2" arrivalPos="33.95" arrivalSpeed="11.39" duration="155.00" routeLength="706.49" waitingTime="69.00" waitingCount="1" stopTime="0.00" timeLoss="83.69" rerouteNo="1" devices="tripinfo_carIn129809:1 routing_carIn129809:1 emissions_carIn129809:1" vType="default_015" speedFactor="0.84" vaporized="">
        <emissions CO_abs="13426.432380" CO2_abs="337233.740406" HC_abs="68.969308" PMx_abs="6.819793" NOx_abs="144.284556" fuel_abs="144.968007" electricity_abs="0"/>
    </tripinfo>
    <tripinfo id="h3536c1:1" depart="57767.00" departLane="-24634413#2_1" departPos="5.10" departSpeed="0.00" departDelay="0.00" arrival="57885.00" arrivalLane="32978638#0_1" arrivalPos="49.29" arrivalSpeed="12.53" duration="118.00" routeLength="953.61" waitingTime="5.00" waitingCount="1" stopTime="0.00" timeLoss="23.23" rerouteNo="1" devices="tripinfo_h3536c1:1 routing_h3536c1:1 emissions_h3536c1:1" vType="default_016" speedFactor="0.96" vaporized="">
        <emissions CO_abs="4969.177310" CO2_abs="270586.594456" HC_abs="28.912384" PMx_abs="4.575626" NOx_abs="110.098518" fuel_abs="116.314524" electricity_abs="0"/>
    </tripinfo>
    <tripinfo id="carIn8642:1" depart="57774.00" departLane="-447569998#1_1" departPos="5.10" departSpeed="0.00" departDelay="0.90" arrival="57885.00" arrivalLane="-315358244_1" arrivalPos="33.95" arrivalSpeed="13.25" duration="111.00" routeLength="706.49" waitingTime="38.00" waitingCount="1" stopTime="0.00" timeLoss="50.97" rerouteNo="1" devices="tripinfo_carIn8642:1 routing_carIn8642:1 emissions_carIn8642:1" vType="default_016" speedFactor="1.01" vaporized="">
        <emissions CO_abs="8180.236656" CO2_abs="261130.968336" HC_abs="43.350151" PMx_abs="5.080611" NOx_abs="109.924348" fuel_abs="112.251868" electricity_abs="0"/>
    </tripinfo>
    <tripinfo id="carIn126378:1" depart="57746.00" departLane="386687232#0_1" departPos="5.10" departSpeed="0.00" departDelay="1.80" arrival="57886.00" arrivalLane="-315358244_2" arrivalPos="33.95" arrivalSpeed="13.59" duration="140.00" routeLength="1157.39" waitingTime="34.00" waitingCount="2" stopTime="0.00" timeLoss="56.00" rerouteNo="1" devices="tripinfo_carIn126378:1 routing_carIn126378:1 emissions_carIn126378:1" vType="default_016" speedFactor="1.01" vaporized="">
        <emissions CO_abs="8082.900517" CO2_abs="346847.772169" HC_abs="44.931918" PMx_abs="6.512420" NOx_abs="144.037167" fuel_abs="149.096808" electricity_abs="0"/>
    </tripinfo>
    <tripinfo id="carIn73855:1" depart="57743.00" departLane="386687232#0_1" departPos="5.10" departSpeed="0.00" departDelay="0.50" arrival="57887.00" arrivalLane="-315358244_1" arrivalPos="33.95" arrivalSpeed="13.34" duration="144.00" routeLength="1157.39" waitingTime="38.00" waitingCount="2" stopTime="0.00" timeLoss="55.71" rerouteNo="1" devices="tripinfo_carIn73855:1 routing_carIn73855:1 emissions_carIn73855:1" vType="default_016" speedFactor="0.96" vaporized="">
        <emissions CO_abs="9142.110297" CO2_abs="374377.549088" HC_abs="50.416974" PMx_abs="7.057653" NOx_abs="155.774454" fuel_abs="160.931129" electricity_abs="0"/>
    </tripinfo>
    <tripinfo id="carIn70533:1" depart="57812.00" departLane="-447569998#1_1" departPos="5.10" departSpeed="0.00" departDelay="0.10" arrival="57888.00" arrivalLane="-315358244_2" arrivalPos="33.95" arrivalSpeed="13.02" duration="76.00" routeLength="706.49" waitingTime="3.00" waitingCount="1" stopTime="0.00" timeLoss="15.14" rerouteNo="1" devices="tripinfo_carIn70533:1 routing_carIn70533:1 emissions_carIn70533:1" vType="default_016" speedFactor="1.00" vaporized="">
        <emissions CO_abs="2747.872285" CO2_abs="179415.346807" HC_abs="16.675250" PMx_abs="2.864140" NOx_abs="71.231822" fuel_abs="77.123456" electricity_abs="0"/>
    </tripinfo>
    <tripinfo id="carIn81681:1" depart="57726.00" departLane="272042143_1" departPos="5.10" departSpeed="0.00" departDelay="0.30" arrival="57889.00" arrivalLane="306240162#0_0" arrivalPos="220.43" arrivalSpeed="18.98" duration="163.00" routeLength="2246.89" waitingTime="12.00" waitingCount="1" stopTime="0.00" timeLoss="38.68" rerouteNo="1" devices="tripinfo_carIn81681:1 routing_carIn81681:1 emissions_carIn81681:1" vType="default_016" speedFactor="1.19" vaporized="">
        <emissions CO_abs="8601.571072" CO2_abs="595889.961113" HC_abs="53.207683" PMx_abs="11.387592" NOx_abs="243.140373" fuel_abs="256.146394" electricity_abs="0"/>
    </tripinfo>
    <tripinfo id="carIn13443:1" depart="57729.00" departLane="272042143_1" departPos="5.10" departSpeed="0.00" departDelay="0.80" arrival="57890.00" arrivalLane="399835085#1_1" arrivalPos="212.23" arrivalSpeed="7.97" duration="161.00" routeLength="1757.45" waitingTime="0.00" waitingCount="0" stopTime="0.00" timeLoss="14.15" rerouteNo="1" devices="tripinfo_carIn13443:1 routing_carIn13443:1 emissions_carIn13443:1" vType="default_016" speedFactor="0.97" vaporized="">
        <emissions CO_abs="4207.820142" CO2_abs="337786.955198" HC_abs="26.958911" PMx_abs="5.021754" NOx_abs="130.848365" fuel_abs="145.200882" electricity_abs="0"/>
    </tripinfo>
    <tripinfo id="carIn14532:1" depart="57743.00" departLane="272042143_1" departPos="5.10" departSpeed="0.00" departDelay="1.90" arrival="57892.00" arrivalLane="399835085#1_1" arrivalPos="212.23" arrivalSpeed="7.81" duration="149.00" routeLength="1757.45" waitingTime="0.00" waitingCount="0" stopTime="0.00" timeLoss="15.70" rerouteNo="1" devices="tripinfo_carIn14532:1 routing_carIn14532:1 emissions_carIn14532:1" vType="default_016" speedFactor="1.06" vaporized="">
        <emissions CO_abs="4202.759876" CO2_abs="353265.991524" HC_abs="27.162271" PMx_abs="5.393290" NOx_abs="136.947314" fuel_abs="151.854356" electricity_abs="0"/>
    </tripinfo>
    <tripinfo id="carIn53503:1" depart="57765.00" departLane="-306240162#1_0" departPos="5.10" departSpeed="0.00" departDelay="4.40" arrival="57892.00" arrivalLane="24634510#6_1" arrivalPos="76.64" arrivalSpeed="11.99" duration="127.00" routeLength="1440.47" waitingTime="0.00" waitingCount="0" stopTime="0.00" timeLoss="17.12" rerouteNo="1" devices="tripinfo_carIn53503:1 routing_carIn53503:1 emissions_carIn53503:1" vType="default_016" speedFactor="0.90" vaporized="">
        <emissions CO_abs="4274.497490" CO2_abs="328395.873393" HC_abs="27.068362" PMx_abs="5.314386" NOx_abs="130.149807" fuel_abs="141.163509" electricity_abs="0"/>
    </tripinfo>
    <tripinfo id="h17600c1:1" depart="57662.00" departLane="272042143_1" departPos="5.10" departSpeed="0.00" departDelay="0.30" arrival="57896.00" arrivalLane="201238729#3_1" arrivalPos="431.02" arrivalSpeed="16.65" duration="234.00" routeLength="2100.26" waitingTime="92.00" waitingCount="1" stopTime="0.00" timeLoss="109.39" rerouteNo="1" devices="tripinfo_h17600c1:1 routing_h17600c1:1 emissions_h17600c1:1" vType="default_016" speedFactor="1.22" vaporized="">
        <emissions CO_abs="18522.940641" CO2_abs="619455.912465" HC_abs="98.423899" PMx_abs="12.250064" NOx_abs="257.033872" fuel_abs="266.283688" electricity_abs="0"/>
    </tripinfo>
    <tripinfo id="carIn80913:1" depart="57732.00" departLane="272042143_1" departPos="5.10" departSpeed="0.00" departDelay="0.40" arrival="57898.00" arrivalLane="306240162#0_0" arrivalPos="220.43" arrivalSpeed="15.94" duration="166.00" routeLength="2246.89" waitingTime="0.00" waitingCount="0" stopTime="0.00" timeLoss="18.61" rerouteNo="1" devices="tripinfo_carIn80913:1 routing_carIn80913:1 emissions_carIn80913:1" vType="default_016" speedFactor="1.00" vaporized="">
        <emissions CO_abs="5789.232385" CO2_abs="476259.152683" HC_abs="37.509943" PMx_abs="8.354231" NOx_abs="190.788038" fuel_abs="204.722559" electricity_abs="0"/>
    </tripinfo>
    <tripinfo id="carIn132499:1" depart="57740.00" departLane="272042143_1" departPos="5.10" departSpeed="0.00" departDelay="0.70" arrival="57900.00" arrivalLane="201238729#3_1" arrivalPos="431.02" arrivalSpeed="14.64" duration="160.00" routeLength="2100.26" waitingTime="1.00" waitingCount="1" stopTime="0.00" timeLoss="19.12" rerouteNo="1" devices="tripinfo_carIn132499:1 routing_carIn132499:1 emissions_carIn132499:1" vType="default_016" speedFactor="1.08" vaporized="">
        <emissions CO_abs="4270.094822" CO2_abs="400843.734046" HC_abs="28.481745" PMx_abs="6.210548" NOx_abs="154.732737" fuel_abs="172.305590" electricity_abs="0"/>
    </tripinfo>
    <tripinfo id="carIn81046:1" depart="57611.00" departLane="124812856#0_1" departPos="5.10" departSpeed="0.00" departDelay="2.50" arrival="57901.00" arrivalLane="-128361102#1_1" arrivalPos="274.68" arrivalSpeed="16.50" duration="290.00" routeLength="2232.46" waitingTime="119.00" waitingCount="2" stopTime="0.00" timeLoss="159.67" rerouteNo="1" devices="tripinfo_carIn81046:1 routing_carIn81046:1 emissions_carIn81046:1" vType="default_016" speedFactor="1.26" vaporized="">
        <emissions CO_abs="25588.316492" CO2_abs="880696.261179" HC_abs="137.068317" PMx_abs="17.993458" NOx_abs="372.282981" fuel_abs="378.580546" electricity_abs="0"/>
    </tripinfo>
    <tripinfo id="carIn17767:1" depart="57638.00" departLane="124812856#0_1" departPos="5.10" departSpeed="0.00" departDelay="10.80" arrival="57902.00" arrivalLane="-128361102#1_1" arrivalPos="274.68" arrivalSpeed="17.10" duration="264.00" routeLength="2232.46" waitingTime="35.00" waitingCount="5" stopTime="0.00" timeLoss="134.63" rerouteNo="1" devices="tripinfo_carIn17767:1 routing_carIn17767:1 emissions_carIn17767:1" vType="default_016" speedFactor="1.26" vaporized="">
        <emissions CO_abs="13414.964595" CO2_abs="670607.647039" HC_abs="76.734094" PMx_abs="12.278549" NOx_abs="276.342396" fuel_abs="288.267581" electricity_abs="0"/>
    </tripinfo>
    <tripinfo id="randUni23028:1" depart="57884.00" departLane="124812856#0_1" departPos="5.10" departSpeed="0.00" departDelay="0.10" arrival="57902.00" arrivalLane="201956810_1" arrivalPos="71.65" arrivalSpeed="10.95" duration="18.00" routeLength="134.91" waitingTime="0.00" waitingCount="0" stopTime="0.00" timeLoss="4.22" rerouteNo="1" devices="tripinfo_randUni23028:1 routing_randUni23028:1 emissions_randUni23028:1" vType="random_016" speedFactor="0.81" vaporized="">
        <emissions CO_abs="1231.971777" CO2_abs="59441.363472" HC_abs="7.007638" PMx_abs="1.124858" NOx_abs="25.095161" fuel_abs="25.551425" electricity_abs="0"/>
    </tripinfo>
    <tripinfo id="carIn13353:1" depart="57838.00" departLane="-447569998#1_1" departPos="5.10" departSpeed="0.00" departDelay="0.30" arrival="57905.00" arrivalLane="-315358244_1" arrivalPos="33.95" arrivalSpeed="12.73" duration="67.00" routeLength="706.49" waitingTime="0.00" waitingCount="0" stopTime="0.00" timeLoss="6.89" rerouteNo="1" devices="tripinfo_carIn13353:1 routing_carIn13353:1 emissions_carIn13353:1" vType="default_016" speedFactor="1.01" vaporized="">
        <emissions CO_abs="2178.493279" CO2_abs="150564.145401" HC_abs="13.390928" PMx_abs="2.369447" NOx_abs="59.347883" fuel_abs="64.721443" electricity_abs="0"/>
    </tripinfo>
    <tripinfo id="carIn63848:1" depart="57841.00" departLane="-447569998#1_1" departPos="5.10" departSpeed="0.00" departDelay="0.80" arrival="57907.00" arrivalLane="-315358244_1" arrivalPos="33.95" arrivalSpeed="13.44" duration="66.00" routeLength="706.49" waitingTime="0.00" waitingCount="0" stopTime="0.00" timeLoss="6.36" rerouteNo="1" devices="tripinfo_carIn63848:1 routing_carIn63848:1 emissions_carIn63848:1" vType="default_016" speedFactor="1.02" vaporized="">
        <emissions CO_abs="2277.912830" CO2_abs="159121.732050" HC_abs="14.054303" PMx_abs="2.536301" NOx_abs="62.957775" fuel_abs="68.399932" electricity_abs="0"/>
    </tripinfo>
    <tripinfo id="carIn101266:1" depart="57737.00" departLane="272042143_1" departPos="5.10" departSpeed="0.00" departDelay="0.50" arrival="57910.00" arrivalLane="306240162#0_0" arrivalPos="220.43" arrivalSpeed="16.87" duration="173.00" routeLength="2246.89" waitingTime="7.00" waitingCount="1" stopTime="0.00" timeLoss="31.46" rerouteNo="1" devices="tripinfo_carIn101266:1 routing_carIn101266:1 emissions_carIn101266:1" vType="default_016" speedFactor="1.04" vaporized="">
        <emissions CO_abs="6674.698634" CO2_abs="515784.289882" HC_abs="42.623300" PMx_abs="9.238716" NOx_abs="207.429721" fuel_abs="221.712774" electricity_abs="0"/>
    </tripinfo>
    <tripinfo id="carIn115169:1" depart="57759.00" departLane="24599188#0.94_1" departPos="5.10" departSpeed="0.00" departDelay="0.50" arrival="57938.00" arrivalLane="-10427692#3_1" arrivalPos="28.64" arrivalSpeed="23.70" duration="179.00" routeLength="2183.23" waitingTime="0.00" waitingCount="0" stopTime="0.00" timeLoss="28.04" rerouteNo="1" devices="tripinfo_carIn115169:1 routing_carIn115169:1 emissions_carIn115169:1" vType="default_016" speedFactor="1.12" vaporized="">
        <emissions CO_abs="7556.328514" CO2_abs="555806.012856" HC_abs="47.430664" PMx_abs="9.869356" NOx_abs="225.158922" fuel_abs="238.916534" electricity_abs="0"/>
    </tripinfo>
    <tripinfo id="h3426c1:1" depart="57864.00" departLane="-160314345#2_1" departPos="5.10" departSpeed="0.00" departDelay="0.00" arrival="57944.00" arrivalLane="386687235_1" arrivalPos="80.84" arrivalSpeed="13.23" duration="80.00" routeLength="726.87" waitingTime="0.00" waitingCount="0" stopTime="0.00" timeLoss="8.93" rerouteNo="1" devices="tripinfo_h3426c1:1 routing_h3426c1:1 emissions_h3426c1:1" vType="default_016" speedFactor="0.96" vaporized="">
        <emissions CO_abs="3075.048235" CO2_abs="175414.902243" HC_abs="18.019697" PMx_abs="2.646724" NOx_abs="69.032825" fuel_abs="75.404352" electricity_abs="0"/>
    </tripinfo>
    <tripinfo id="h3847c1:3" depart="57893.00" departLane="24634416_1" departPos="5.10" departSpeed="0.00" departDelay="0.00" arrival="57948.00" arrivalLane="32978638#0_1" arrivalPos="49.29" arrivalSpeed="11.71" duration="55.00" routeLength="547.99" waitingTime="0.00" waitingCount="0" stopTime="0.00" timeLoss="9.27" rerouteNo="1" devices="tripinfo_h3847c1:3 routing_h3847c1:3 emissions_h3847c1:3" vType="default_016" speedFactor="0.92" vaporized="">
        <emissions CO_abs="2371.288870" CO2_abs="153126.355930" HC_abs="14.377655" PMx_abs="2.608404" NOx_abs="62.098351" fuel_abs="65.822620" electricity_abs="0"/>
    </tripinfo>
    <tripinfo id="carIn9695:1" depart="57822.00" departLane="272042143_1" departPos="5.10" departSpeed="0.00" departDelay="0.80" arrival="57953.00" arrivalLane="-315358254#1_1" arrivalPos="137.16" arrivalSpeed="13.16" duration="131.00" routeLength="1596.88" waitingTime="0.00" waitingCount="0" stopTime="0.00" timeLoss="13.16" rerouteNo="1" devices="tripinfo_carIn9695:1 routing_carIn9695:1 emissions_carIn9695:1" vType="default_016" speedFactor="0.98" vaporized="">
        <emissions CO_abs="3682.647837" CO2_abs="306989.695757" HC_abs="23.934323" PMx_abs="4.935230" NOx_abs="121.137630" fuel_abs="131.961722" electricity_abs="0"/>
    </tripinfo>
    <tripinfo id="h17549c1:1" depart="57680.00" departLane="-447569998#1_1" departPos="5.10" departSpeed="0.00" departDelay="0.00" arrival="57955.00" arrivalLane="-315358254#1_1" arrivalPos="137.16" arrivalSpeed="15.90" duration="275.00" routeLength="1746.60" waitingTime="136.00" waitingCount="2" stopTime="0.00" timeLoss="157.44" rerouteNo="1" devices="tripinfo_h17549c1:1 routing_h17549c1:1 emissions_h17549c1:1" vType="default_016" speedFactor="1.16" vaporized="">
        <emissions CO_abs="25769.470051" CO2_abs="714734.797307" HC_abs="133.995183" PMx_abs="14.908100" NOx_abs="305.331065" fuel_abs="307.243215" electricity_abs="0"/>
    </tripinfo>
    <tripinfo id="h4943c1:3" depart="57861.00" departLane="-399835085#0_1" departPos="5.10" departSpeed="0.00" departDelay="0.00" arrival="57959.00" arrivalLane="201238729#3_1" arrivalPos="431.02" arrivalSpeed="15.26" duration="98.00" routeLength="1490.33" waitingTime="0.00" waitingCount="0" stopTime="0.00" timeLoss="17.62" rerouteNo="1" devices="tripinfo_h4943c1:3 routing_h4943c1:3 emissions_h4943c1:3" vType="default_016" speedFactor="1.14" vaporized="">
        <emissions CO_abs="5934.736354" CO2_abs="424109.643753" HC_abs="37.204341" PMx_abs="8.445048" NOx_abs="174.929227" fuel_abs="182.305107" electricity_abs="0"/>
    </tripinfo>
    <tripinfo id="carIn23683:1" depart="57641.00" departLane="-306240162#1_0" departPos="5.10" departSpeed="0.00" departDelay="0.20" arrival="57960.00" arrivalLane="201956820_1" arrivalPos="48.33" arrivalSpeed="12.88" duration="319.00" routeLength="2993.47" waitingTime="69.00" waitingCount="4" stopTime="0.00" timeLoss="122.44" rerouteNo="1" devices="tripinfo_carIn23683:1 routing_carIn23683:1 emissions_carIn23683:1" vType="default_016" speedFactor="1.01" vaporized="">
        <emissions CO_abs="19457.635661" CO2_abs="910408.612792" HC_abs="110.038954" PMx_abs="17.354578" NOx_abs="376.947079" fuel_abs="391.348793" electricity_abs="0"/>
    </tripinfo>
    <tripinfo id="carIn96510:1" depart="57645.00" departLane="-306240162#1_0" departPos="5.10" departSpeed="0.00" departDelay="0.20" arrival="57960.00" arrivalLane="201956820_2" arrivalPos="48.33" arrivalSpeed="14.11" duration="315.00" routeLength="2993.47" waitingTime="64.00" waitingCount="3" stopTime="0.00" timeLoss="122.64" rerouteNo="1" devices="tripinfo_carIn96510:1 routing_carIn96510:1 emissions_carIn96510:1" vType="default_016" speedFactor="1.03" vaporized="">