<?xml version="1.0" encoding="UTF-8"?>

<!-- generated on Thu Nov  4 14:05:07 2021 by Eclipse SUMO sumo Version 1.9.0
<configuration xmlns:xsi="http://www.w3.org/2001/XMLSchema-instance" xsi:noNamespaceSchemaLocation="http://sumo.dlr.de/xsd/sumoConfiguration.xsd">

    <input>
        <net-file value="/mainfs/home/bk2g18/RESCO/environments/ingolstadt21/ingolstadt21.net.xml"/>
        <route-files value="/mainfs/home/bk2g18/RESCO/environments/ingolstadt21/ingolstadt21.rou.xml"/>
    </input>

    <output>
        <tripinfo-output value="/mainfs/home/bk2g18/RESCO/logs/MPLight-tr0-ingolstadt21-21-mplight_full-pressure/tripinfo_70.xml"/>
        <tripinfo-output.write-unfinished value="true"/>
    </output>

    <time>
        <begin value="57600"/>
        <end value="61200"/>
    </time>

    <processing>
        <time-to-teleport value="-1"/>
    </processing>

    <report>
        <xml-validation value="never"/>
        <xml-validation.routes value="never"/>
        <no-warnings value="true"/>
        <no-step-log value="true"/>
    </report>

    <emissions>
        <device.emissions.probability value="1"/>
    </emissions>

    <traci_server>
        <remote-port value="53766"/>
    </traci_server>

    <random_number>
        <random value="true"/>
    </random_number>

</configuration>
-->

<tripinfos xmlns:xsi="http://www.w3.org/2001/XMLSchema-instance" xsi:noNamespaceSchemaLocation="http://sumo.dlr.de/xsd/tripinfo_file.xsd">
    <tripinfo id="h15454c2:3" depart="57612.00" departLane="24608844_1" departPos="5.10" departSpeed="0.00" departDelay="0.50" arrival="57652.00" arrivalLane="32978638#0_1" arrivalPos="49.29" arrivalSpeed="12.78" duration="40.00" routeLength="354.79" waitingTime="0.00" waitingCount="0" stopTime="0.00" timeLoss="5.70" rerouteNo="1" devices="tripinfo_h15454c2:3 routing_h15454c2:3 emissions_h15454c2:3" vType="default_016" speedFactor="0.99" vaporized="">
        <emissions CO_abs="2068.390461" CO2_abs="112797.992558" HC_abs="12.060506" PMx_abs="2.018602" NOx_abs="46.633532" fuel_abs="48.487242" electricity_abs="0"/>
    </tripinfo>
    <tripinfo id="carIn53971:1" depart="57640.00" departLane="272042143_1" departPos="5.10" departSpeed="0.00" departDelay="0.80" arrival="57695.00" arrivalLane="24634414#1_1" arrivalPos="162.19" arrivalSpeed="7.66" duration="55.00" routeLength="493.04" waitingTime="0.00" waitingCount="0" stopTime="0.00" timeLoss="8.98" rerouteNo="1" devices="tripinfo_carIn53971:1 routing_carIn53971:1 emissions_carIn53971:1" vType="default_016" speedFactor="1.00" vaporized="">
        <emissions CO_abs="2437.773554" CO2_abs="133813.109254" HC_abs="14.223566" PMx_abs="2.371883" NOx_abs="55.129974" fuel_abs="57.520805" electricity_abs="0"/>
    </tripinfo>
    <tripinfo id="h7800c1:5" depart="57696.00" departLane="-447569998#1_1" departPos="5.10" departSpeed="0.00" departDelay="0.00" arrival="57716.00" arrivalLane="-447569998#1_1" arrivalPos="180.76" arrivalSpeed="10.22" duration="20.00" routeLength="175.66" waitingTime="0.00" waitingCount="0" stopTime="0.00" timeLoss="2.78" rerouteNo="1" devices="tripinfo_h7800c1:5 routing_h7800c1:5 emissions_h7800c1:5" vType="default_016" speedFactor="1.23" vaporized="">
        <emissions CO_abs="842.700068" CO2_abs="42577.243937" HC_abs="4.828192" PMx_abs="0.743765" NOx_abs="17.546818" fuel_abs="18.302289" electricity_abs="0"/>
    </tripinfo>
    <tripinfo id="carIn60260:1" depart="57606.00" departLane="315358254#0_1" departPos="5.10" departSpeed="0.00" departDelay="0.90" arrival="57722.00" arrivalLane="399835085#1_1" arrivalPos="212.23" arrivalSpeed="6.65" duration="116.00" routeLength="430.98" waitingTime="50.00" waitingCount="1" stopTime="0.00" timeLoss="60.36" rerouteNo="1" devices="tripinfo_carIn60260:1 routing_carIn60260:1 emissions_carIn60260:1" vType="default_016" speedFactor="0.83" vaporized="">
        <emissions CO_abs="10526.093851" CO2_abs="245549.556104" HC_abs="53.641911" PMx_abs="5.171997" NOx_abs="106.937411" fuel_abs="105.555632" electricity_abs="0"/>
    </tripinfo>
    <tripinfo id="h4538c1:1" depart="57701.00" departLane="-10427692#1_1" departPos="5.10" departSpeed="0.00" departDelay="0.00" arrival="57741.00" arrivalLane="-128361102#1_1" arrivalPos="274.68" arrivalSpeed="11.92" duration="40.00" routeLength="440.74" waitingTime="0.00" waitingCount="0" stopTime="0.00" timeLoss="6.12" rerouteNo="1" devices="tripinfo_h4538c1:1 routing_h4538c1:1 emissions_h4538c1:1" vType="default_016" speedFactor="0.93" vaporized="">
        <emissions CO_abs="1499.665133" CO2_abs="103104.308185" HC_abs="9.229157" PMx_abs="1.671273" NOx_abs="41.040503" fuel_abs="44.320303" electricity_abs="0"/>
    </tripinfo>
    <tripinfo id="h3568c1:3" depart="57656.00" departLane="266565295#5_1" departPos="5.10" departSpeed="0.00" departDelay="0.80" arrival="57743.00" arrivalLane="-24634415_1" arrivalPos="62.03" arrivalSpeed="11.57" duration="87.00" routeLength="807.40" waitingTime="0.00" waitingCount="0" stopTime="0.00" timeLoss="12.16" rerouteNo="1" devices="tripinfo_h3568c1:3 routing_h3568c1:3 emissions_h3568c1:3" vType="default_016" speedFactor="0.87" vaporized="">
        <emissions CO_abs="3423.951373" CO2_abs="195787.932660" HC_abs="20.125365" PMx_abs="3.194415" NOx_abs="78.744743" fuel_abs="84.161573" electricity_abs="0"/>
    </tripinfo>
    <tripinfo id="h5979c1:5" depart="57669.00" departLane="399835085#1_1" departPos="5.10" departSpeed="0.00" departDelay="0.00" arrival="57754.00" arrivalLane="-315358254#1_1" arrivalPos="137.16" arrivalSpeed="13.75" duration="85.00" routeLength="659.33" waitingTime="0.00" waitingCount="0" stopTime="0.00" timeLoss="15.20" rerouteNo="1" devices="tripinfo_h5979c1:5 routing_h5979c1:5 emissions_h5979c1:5" vType="default_016" speedFactor="1.05" vaporized="">
        <emissions CO_abs="3438.644282" CO2_abs="177574.598412" HC_abs="19.734712" PMx_abs="2.784529" NOx_abs="70.942497" fuel_abs="76.332804" electricity_abs="0"/>
    </tripinfo>
    <tripinfo id="carIn27009:1" depart="57673.00" departLane="-447569998#1_1" departPos="5.10" departSpeed="0.00" departDelay="0.50" arrival="57756.00" arrivalLane="-26677539_1" arrivalPos="152.75" arrivalSpeed="9.53" duration="83.00" routeLength="699.63" waitingTime="0.00" waitingCount="0" stopTime="0.00" timeLoss="9.97" rerouteNo="1" devices="tripinfo_carIn27009:1 routing_carIn27009:1 emissions_carIn27009:1" vType="default_015" speedFactor="1.16" vaporized="">
        <emissions CO_abs="3351.305846" CO2_abs="185547.511946" HC_abs="19.539351" PMx_abs="2.984839" NOx_abs="74.788464" fuel_abs="79.759727" electricity_abs="0"/>
    </tripinfo>
    <tripinfo id="h3326c1:2" depart="57656.00" departLane="22716069#0_1" departPos="5.10" departSpeed="0.00" departDelay="0.00" arrival="57771.00" arrivalLane="24634517#13_1" arrivalPos="111.62" arrivalSpeed="12.09" duration="115.00" routeLength="1312.81" waitingTime="0.00" waitingCount="0" stopTime="0.00" timeLoss="13.33" rerouteNo="1" devices="tripinfo_h3326c1:2 routing_h3326c1:2 emissions_h3326c1:2" vType="default_016" speedFactor="0.96" vaporized="">
        <emissions CO_abs="4076.447012" CO2_abs="314205.296871" HC_abs="25.914791" PMx_abs="5.182472" NOx_abs="125.305538" fuel_abs="135.063415" electricity_abs="0"/>
    </tripinfo>
    <tripinfo id="h7181c1:1" depart="57660.00" departLane="315358254#0_1" departPos="5.10" departSpeed="0.00" departDelay="0.10" arrival="57789.00" arrivalLane="306240162#0_0" arrivalPos="220.43" arrivalSpeed="10.67" duration="129.00" routeLength="932.35" waitingTime="43.00" waitingCount="1" stopTime="0.00" timeLoss="56.78" rerouteNo="1" devices="tripinfo_h7181c1:1 routing_h7181c1:1 emissions_h7181c1:1" vType="default_016" speedFactor="0.71" vaporized="">
        <emissions CO_abs="9704.839679" CO2_abs="331022.900956" HC_abs="51.883692" PMx_abs="6.383656" NOx_abs="138.545050" fuel_abs="142.295732" electricity_abs="0"/>
    </tripinfo>
    <tripinfo id="h11737c1:1" depart="57665.00" departLane="272042143_1" departPos="5.10" departSpeed="0.00" departDelay="1.50" arrival="57798.00" arrivalLane="-315358254#1_1" arrivalPos="137.16" arrivalSpeed="12.55" duration="133.00" routeLength="1596.88" waitingTime="0.00" waitingCount="0" stopTime="0.00" timeLoss="11.48" rerouteNo="1" devices="tripinfo_h11737c1:1 routing_h11737c1:1 emissions_h11737c1:1" vType="default_016" speedFactor="0.96" vaporized="">
        <emissions CO_abs="3718.980356" CO2_abs="321617.754711" HC_abs="24.419279" PMx_abs="5.027697" NOx_abs="125.956965" fuel_abs="138.249800" electricity_abs="0"/>
    </tripinfo>
    <tripinfo id="carIn107282:1" depart="57749.00" departLane="-447569998#1_1" departPos="5.10" departSpeed="0.00" departDelay="0.00" arrival="57798.00" arrivalLane="315358242#0_1" arrivalPos="165.37" arrivalSpeed="13.03" duration="49.00" routeLength="448.50" waitingTime="0.00" waitingCount="0" stopTime="0.00" timeLoss="5.21" rerouteNo="1" devices="tripinfo_carIn107282:1 routing_carIn107282:1 emissions_carIn107282:1" vType="default_016" speedFactor="0.96" vaporized="">
        <emissions CO_abs="1728.190422" CO2_abs="100506.498568" HC_abs="10.212418" PMx_abs="1.711331" NOx_abs="40.838762" fuel_abs="43.203682" electricity_abs="0"/>
    </tripinfo>
    <tripinfo id="carIn126288:1" depart="57674.00" departLane="272042143_1" departPos="5.10" departSpeed="0.00" departDelay="0.00" arrival="57819.00" arrivalLane="-315358254#1_1" arrivalPos="137.16" arrivalSpeed="11.67" duration="145.00" routeLength="1596.88" waitingTime="0.00" waitingCount="0" stopTime="0.00" timeLoss="12.10" rerouteNo="1" devices="tripinfo_carIn126288:1 routing_carIn126288:1 emissions_carIn126288:1" vType="default_016" speedFactor="0.88" vaporized="">
        <emissions CO_abs="3653.970136" CO2_abs="309839.090776" HC_abs="23.766641" PMx_abs="4.419880" NOx_abs="119.114284" fuel_abs="133.187310" electricity_abs="0"/>
    </tripinfo>
    <tripinfo id="randUni15030:1" depart="57735.00" departLane="386687232#0_1" departPos="5.10" departSpeed="0.00" departDelay="0.10" arrival="57830.00" arrivalLane="26677539_1" arrivalPos="151.98" arrivalSpeed="7.81" duration="95.00" routeLength="919.89" waitingTime="0.00" waitingCount="0" stopTime="0.00" timeLoss="10.57" rerouteNo="1" devices="tripinfo_randUni15030:1 routing_randUni15030:1 emissions_randUni15030:1" vType="random_016" speedFactor="0.99" vaporized="">
        <emissions CO_abs="3307.737763" CO2_abs="202012.550411" HC_abs="19.750846" PMx_abs="3.295226" NOx_abs="80.994733" fuel_abs="86.837127" electricity_abs="0"/>
    </tripinfo>
    <tripinfo id="carIn12858:1" depart="57661.00" departLane="128361109#1_1" departPos="5.10" departSpeed="0.00" departDelay="0.90" arrival="57831.00" arrivalLane="399835085#1_1" arrivalPos="212.23" arrivalSpeed="8.69" duration="170.00" routeLength="1738.12" waitingTime="38.00" waitingCount="1" stopTime="0.00" timeLoss="63.05" rerouteNo="1" devices="tripinfo_carIn12858:1 routing_carIn12858:1 emissions_carIn12858:1" vType="default_016" speedFactor="1.08" vaporized="">
        <emissions CO_abs="12592.837314" CO2_abs="554682.655756" HC_abs="70.536741" PMx_abs="11.319742" NOx_abs="233.368792" fuel_abs="238.435826" electricity_abs="0"/>
    </tripinfo>
    <tripinfo id="carIn22761:1" depart="57616.00" departLane="-306240162#1_0" departPos="5.10" departSpeed="0.00" departDelay="2.10" arrival="57835.00" arrivalLane="399835085#1_1" arrivalPos="212.23" arrivalSpeed="7.37" duration="219.00" routeLength="1093.26" waitingTime="118.00" waitingCount="2" stopTime="0.00" timeLoss="143.43" rerouteNo="1" devices="tripinfo_carIn22761:1 routing_carIn22761:1 emissions_carIn22761:1" vType="default_016" speedFactor="1.04" vaporized="">
        <emissions CO_abs="23918.974299" CO2_abs="640379.760758" HC_abs="123.995665" PMx_abs="13.877800" NOx_abs="277.566391" fuel_abs="275.280065" electricity_abs="0"/>
    </tripinfo>
    <tripinfo id="carIn82278:1" depart="57702.00" departLane="-306240162#1_0" departPos="5.10" departSpeed="0.00" departDelay="0.70" arrival="57873.00" arrivalLane="399835085#1_1" arrivalPos="212.23" arrivalSpeed="8.01" duration="171.00" routeLength="1093.26" waitingTime="46.00" waitingCount="4" stopTime="0.00" timeLoss="95.06" rerouteNo="1" devices="tripinfo_carIn82278:1 routing_carIn82278:1 emissions_carIn82278:1" vType="default_016" speedFactor="1.03" vaporized="">
        <emissions CO_abs="11909.078685" CO2_abs="462794.559720" HC_abs="65.188711" PMx_abs="9.294538" NOx_abs="195.890002" fuel_abs="198.938035" electricity_abs="0"/>
    </tripinfo>
    <tripinfo id="h317c2:1" depart="57707.00" departLane="-32978638#0_1" departPos="5.10" departSpeed="0.00" departDelay="0.10" arrival="57873.00" arrivalLane="-266565295#5_1" arrivalPos="172.76" arrivalSpeed="15.53" duration="166.00" routeLength="370.53" waitingTime="133.00" waitingCount="1" stopTime="0.00" timeLoss="141.44" rerouteNo="1" devices="tripinfo_h317c2:1 routing_h317c2:1 emissions_h317c2:1" vType="default_016" speedFactor="1.13" vaporized="">
        <emissions CO_abs="23223.763692" CO2_abs="468125.944940" HC_abs="116.736173" PMx_abs="10.932908" NOx_abs="208.935555" fuel_abs="201.236921" electricity_abs="0"/>
    </tripinfo>
    <tripinfo id="carIn129809:1" depart="57729.00" departLane="-447569998#1_1" departPos="5.10" departSpeed="0.00" departDelay="1.00" arrival="57873.00" arrivalLane="-315358244_1" arrivalPos="33.95" arrivalSpeed="14.16" duration="144.00" routeLength="706.49" waitingTime="77.00" waitingCount="1" stopTime="0.00" timeLoss="88.00" rerouteNo="1" devices="tripinfo_carIn129809:1 routing_carIn129809:1 emissions_carIn129809:1" vType="default_015" speedFactor="1.08" vaporized="">
        <emissions CO_abs="14762.497809" CO2_abs="370926.496015" HC_abs="75.884052" PMx_abs="7.928968" NOx_abs="160.661343" fuel_abs="159.451062" electricity_abs="0"/>
    </tripinfo>
    <tripinfo id="carIn8642:1" depart="57774.00" departLane="-447569998#1_1" departPos="5.10" departSpeed="0.00" departDelay="0.90" arrival="57874.00" arrivalLane="-315358244_2" arrivalPos="33.95" arrivalSpeed="11.32" duration="100.00" routeLength="706.49" waitingTime="17.00" waitingCount="1" stopTime="0.00" timeLoss="30.45" rerouteNo="1" devices="tripinfo_carIn8642:1 routing_carIn8642:1 emissions_carIn8642:1" vType="default_016" speedFactor="0.87" vaporized="">
        <emissions CO_abs="5013.008517" CO2_abs="206292.132995" HC_abs="27.609595" PMx_abs="3.623530" NOx_abs="84.737168" fuel_abs="88.677716" electricity_abs="0"/>
    </tripinfo>
    <tripinfo id="carIn70533:1" depart="57812.00" departLane="-447569998#1_1" departPos="5.10" departSpeed="0.00" departDelay="0.10" arrival="57875.00" arrivalLane="-315358244_1" arrivalPos="33.95" arrivalSpeed="15.48" duration="63.00" routeLength="706.49" waitingTime="0.00" waitingCount="0" stopTime="0.00" timeLoss="8.60" rerouteNo="1" devices="tripinfo_carIn70533:1 routing_carIn70533:1 emissions_carIn70533:1" vType="default_016" speedFactor="1.12" vaporized="">
        <emissions CO_abs="2349.717520" CO2_abs="160494.366639" HC_abs="14.388820" PMx_abs="2.766695" NOx_abs="64.773090" fuel_abs="68.989693" electricity_abs="0"/>
    </tripinfo>
    <tripinfo id="h330c1:1" depart="57736.00" departLane="-32978638#0_1" departPos="5.10" departSpeed="0.00" departDelay="0.20" arrival="57878.00" arrivalLane="-266565295#5_1" arrivalPos="172.76" arrivalSpeed="13.14" duration="142.00" routeLength="370.53" waitingTime="103.00" waitingCount="1" stopTime="0.00" timeLoss="112.95" rerouteNo="1" devices="tripinfo_h330c1:1 routing_h330c1:1 emissions_h330c1:1" vType="default_016" speedFactor="0.95" vaporized="">
        <emissions CO_abs="18049.001386" CO2_abs="371507.287031" HC_abs="90.923797" PMx_abs="8.578396" NOx_abs="165.585513" fuel_abs="159.702498" electricity_abs="0"/>
    </tripinfo>
    <tripinfo id="carIn13443:1" depart="57729.00" departLane="272042143_1" departPos="5.10" departSpeed="0.00" departDelay="0.80" arrival="57882.00" arrivalLane="399835085#1_1" arrivalPos="212.23" arrivalSpeed="7.61" duration="153.00" routeLength="1757.45" waitingTime="0.00" waitingCount="0" stopTime="0.00" timeLoss="13.56" rerouteNo="1" devices="tripinfo_carIn13443:1 routing_carIn13443:1 emissions_carIn13443:1" vType="default_016" speedFactor="1.02" vaporized="">
        <emissions CO_abs="3936.006514" CO2_abs="322272.668204" HC_abs="25.360110" PMx_abs="5.032596" NOx_abs="126.101449" fuel_abs="138.531504" electricity_abs="0"/>
    </tripinfo>
    <tripinfo id="carIn13353:1" depart="57838.00" departLane="-447569998#1_1" departPos="5.10" departSpeed="0.00" departDelay="0.30" arrival="57896.00" arrivalLane="-315358244_1" arrivalPos="33.95" arrivalSpeed="15.68" duration="58.00" routeLength="706.49" waitingTime="0.00" waitingCount="0" stopTime="0.00" timeLoss="6.63" rerouteNo="1" devices="tripinfo_carIn13353:1 routing_carIn13353:1 emissions_carIn13353:1" vType="default_016" speedFactor="1.17" vaporized="">
        <emissions CO_abs="2113.468185" CO2_abs="151367.052561" HC_abs="13.132178" PMx_abs="2.598824" NOx_abs="60.664668" fuel_abs="65.066219" electricity_abs="0"/>
    </tripinfo>
    <tripinfo id="carIn12152:1" depart="57647.00" departLane="24599188#0.94_1" departPos="5.10" departSpeed="0.00" departDelay="0.50" arrival="57898.00" arrivalLane="-315358254#1_1" arrivalPos="137.16" arrivalSpeed="12.84" duration="251.00" routeLength="2034.31" waitingTime="53.00" waitingCount="3" stopTime="0.00" timeLoss="80.64" rerouteNo="1" devices="tripinfo_carIn12152:1 routing_carIn12152:1 emissions_carIn12152:1" vType="default_016" speedFactor="0.93" vaporized="">
        <emissions CO_abs="12467.498671" CO2_abs="544064.808989" HC_abs="69.411465" PMx_abs="9.429914" NOx_abs="220.810328" fuel_abs="233.874024" electricity_abs="0"/>
    </tripinfo>
    <tripinfo id="carIn24709:1" depart="57753.00" departLane="266565295#5_1" departPos="5.10" departSpeed="0.00" departDelay="2.50" arrival="57898.00" arrivalLane="-24634506#2_1" arrivalPos="71.32" arrivalSpeed="12.80" duration="145.00" routeLength="1534.27" waitingTime="0.00" waitingCount="0" stopTime="0.00" timeLoss="20.45" rerouteNo="1" devices="tripinfo_carIn24709:1 routing_carIn24709:1 emissions_carIn24709:1" vType="default_016" speedFactor="0.92" vaporized="">
        <emissions CO_abs="5221.447608" CO2_abs="361272.301549" HC_abs="32.214677" PMx_abs="6.019310" NOx_abs="145.169495" fuel_abs="155.295798" electricity_abs="0"/>
    </tripinfo>
    <tripinfo id="carIn81046:1" depart="57610.00" departLane="124812856#0_1" departPos="5.10" departSpeed="0.00" departDelay="1.50" arrival="57902.00" arrivalLane="-128361102#1_1" arrivalPos="274.68" arrivalSpeed="15.92" duration="292.00" routeLength="2232.46" waitingTime="103.00" waitingCount="2" stopTime="0.00" timeLoss="151.12" rerouteNo="1" devices="tripinfo_carIn81046:1 routing_carIn81046:1 emissions_carIn81046:1" vType="default_016" speedFactor="1.16" vaporized="">
        <emissions CO_abs="23707.414774" CO2_abs="828484.519427" HC_abs="127.381856" PMx_abs="16.538653" NOx_abs="349.108970" fuel_abs="356.136712" electricity_abs="0"/>
    </tripinfo>
    <tripinfo id="randUni23028:1" depart="57884.00" departLane="124812856#0_1" departPos="5.10" departSpeed="0.00" departDelay="0.10" arrival="57903.00" arrivalLane="201956810_1" arrivalPos="71.65" arrivalSpeed="11.47" duration="19.00" routeLength="134.91" waitingTime="1.00" waitingCount="1" stopTime="0.00" timeLoss="7.54" rerouteNo="1" devices="tripinfo_randUni23028:1 routing_randUni23028:1 emissions_randUni23028:1" vType="random_016" speedFactor="0.90" vaporized="">
        <emissions CO_abs="1644.024090" CO2_abs="70932.132805" HC_abs="9.166956" PMx_abs="1.440407" NOx_abs="30.632655" fuel_abs="30.490833" electricity_abs="0"/>
    </tripinfo>
    <tripinfo id="carIn17767:1" depart="57637.00" departLane="124812856#0_1" departPos="5.10" departSpeed="0.00" departDelay="9.80" arrival="57904.00" arrivalLane="-128361102#1_1" arrivalPos="274.68" arrivalSpeed="15.84" duration="267.00" routeLength="2232.46" waitingTime="88.00" waitingCount="1" stopTime="0.00" timeLoss="130.27" rerouteNo="1" devices="tripinfo_carIn17767:1 routing_carIn17767:1 emissions_carIn17767:1" vType="default_016" speedFactor="1.19" vaporized="">
        <emissions CO_abs="21624.948282" CO2_abs="802755.146055" HC_abs="117.268787" PMx_abs="16.274646" NOx_abs="339.441705" fuel_abs="345.075038" electricity_abs="0"/>
    </tripinfo>
    <tripinfo id="50R_frequency3.17" depart="57674.00" departLane="-18809673#6_1" departPos="12.10" departSpeed="0.00" departDelay="0.70" arrival="57904.00" arrivalLane="201956811#0_1" arrivalPos="40.40" arrivalSpeed="11.75" duration="230.00" routeLength="1954.47" waitingTime="54.00" waitingCount="2" stopTime="0.00" timeLoss="85.36" rerouteNo="1" devices="tripinfo_50R_frequency3.17 routing_50R_frequency3.17 emissions_50R_frequency3.17" vType="bus" speedFactor="1.00" vaporized="">
        <emissions CO_abs="4362.852666" CO2_abs="2458627.687404" HC_abs="931.669281" PMx_abs="461.185835" NOx_abs="19828.397321" fuel_abs="1048.480349" electricity_abs="0"/>
    </tripinfo>
    <tripinfo id="carIn107084:1" depart="57601.00" departLane="124812856#0_1" departPos="5.10" departSpeed="0.00" departDelay="0.70" arrival="57908.00" arrivalLane="-128361102#1_1" arrivalPos="274.68" arrivalSpeed="13.35" duration="307.00" routeLength="2250.49" waitingTime="106.00" waitingCount="3" stopTime="0.00" timeLoss="151.03" rerouteNo="1" devices="tripinfo_carIn107084:1 routing_carIn107084:1 emissions_carIn107084:1" vType="default_016" speedFactor="1.05" vaporized="">
        <emissions CO_abs="24208.748831" CO2_abs="816804.222101" HC_abs="129.417639" PMx_abs="16.461045" NOx_abs="346.846154" fuel_abs="351.116072" electricity_abs="0"/>
    </tripinfo>
    <tripinfo id="carIn81681:1" depart="57726.00" departLane="272042143_1" departPos="5.10" departSpeed="0.00" departDelay="0.30" arrival="57911.00" arrivalLane="306240162#0_0" arrivalPos="220.43" arrivalSpeed="15.82" duration="185.00" routeLength="2246.89" waitingTime="13.00" waitingCount="1" stopTime="0.00" timeLoss="37.21" rerouteNo="1" devices="tripinfo_carIn81681:1 routing_carIn81681:1 emissions_carIn81681:1" vType="default_016" speedFactor="1.00" vaporized="">
        <emissions CO_abs="8233.238434" CO2_abs="562989.031257" HC_abs="50.690583" PMx_abs="10.135481" NOx_abs="227.364926" fuel_abs="242.004643" electricity_abs="0"/>
    </tripinfo>
    <tripinfo id="carIn14532:1" depart="57743.00" departLane="272042143_1" departPos="5.10" departSpeed="0.00" departDelay="1.90" arrival="57911.00" arrivalLane="399835085#1_1" arrivalPos="212.23" arrivalSpeed="7.08" duration="168.00" routeLength="1757.45" waitingTime="0.00" waitingCount="0" stopTime="0.00" timeLoss="13.80" rerouteNo="1" devices="tripinfo_carIn14532:1 routing_carIn14532:1 emissions_carIn14532:1" vType="default_016" speedFactor="0.92" vaporized="">
        <emissions CO_abs="4732.013177" CO2_abs="363399.470051" HC_abs="29.904749" PMx_abs="5.247132" NOx_abs="140.214787" fuel_abs="156.211029" electricity_abs="0"/>
    </tripinfo>
    <tripinfo id="carIn80913:1" depart="57732.00" departLane="272042143_1" departPos="5.10" departSpeed="0.00" departDelay="0.40" arrival="57913.00" arrivalLane="306240162#0_0" arrivalPos="220.43" arrivalSpeed="16.29" duration="181.00" routeLength="2246.89" waitingTime="11.00" waitingCount="1" stopTime="0.00" timeLoss="37.90" rerouteNo="1" devices="tripinfo_carIn80913:1 routing_carIn80913:1 emissions_carIn80913:1" vType="default_016" speedFactor="1.03" vaporized="">
        <emissions CO_abs="7877.216240" CO2_abs="549656.382720" HC_abs="48.892576" PMx_abs="10.018295" NOx_abs="222.741614" fuel_abs="236.273212" electricity_abs="0"/>
    </tripinfo>
    <tripinfo id="carIn53503:1" depart="57764.00" departLane="-306240162#1_0" departPos="5.10" departSpeed="0.00" departDelay="3.40" arrival="57913.00" arrivalLane="24634510#6_1" arrivalPos="76.64" arrivalSpeed="10.94" duration="149.00" routeLength="1440.47" waitingTime="9.00" waitingCount="2" stopTime="0.00" timeLoss="29.86" rerouteNo="1" devices="tripinfo_carIn53503:1 routing_carIn53503:1 emissions_carIn53503:1" vType="default_016" speedFactor="0.83" vaporized="">
        <emissions CO_abs="5296.571670" CO2_abs="320454.971642" HC_abs="31.602130" PMx_abs="5.458278" NOx_abs="129.789263" fuel_abs="137.750502" electricity_abs="0"/>
    </tripinfo>
    <tripinfo id="carIn77943:1" depart="57607.00" departLane="124812856#0_1" departPos="5.10" departSpeed="0.00" departDelay="1.50" arrival="57915.00" arrivalLane="-128361102#1_1" arrivalPos="274.68" arrivalSpeed="11.91" duration="308.00" routeLength="2250.49" waitingTime="90.00" waitingCount="3" stopTime="0.00" timeLoss="128.03" rerouteNo="1" devices="tripinfo_carIn77943:1 routing_carIn77943:1 emissions_carIn77943:1" vType="default_016" speedFactor="0.91" vaporized="">
        <emissions CO_abs="20215.834837" CO2_abs="733376.740612" HC_abs="109.202041" PMx_abs="13.887439" NOx_abs="306.073692" fuel_abs="315.253494" electricity_abs="0"/>
    </tripinfo>
    <tripinfo id="carIn77438:1" depart="57613.00" departLane="124812856#0_1" departPos="5.10" departSpeed="0.00" departDelay="0.10" arrival="57916.00" arrivalLane="-128361102#1_1" arrivalPos="274.68" arrivalSpeed="14.33" duration="303.00" routeLength="2250.49" waitingTime="83.00" waitingCount="3" stopTime="0.00" timeLoss="154.95" rerouteNo="1" devices="tripinfo_carIn77438:1 routing_carIn77438:1 emissions_carIn77438:1" vType="default_016" speedFactor="1.11" vaporized="">
        <emissions CO_abs="21199.079762" CO2_abs="790534.356330" HC_abs="115.183908" PMx_abs="15.791456" NOx_abs="335.804123" fuel_abs="339.821770" electricity_abs="0"/>
    </tripinfo>
    <tripinfo id="carIn63848:1" depart="57841.00" departLane="-447569998#1_1" departPos="5.10" departSpeed="0.00" departDelay="0.80" arrival="57916.00" arrivalLane="-315358244_1" arrivalPos="33.95" arrivalSpeed="12.09" duration="75.00" routeLength="706.49" waitingTime="0.00" waitingCount="0" stopTime="0.00" timeLoss="7.83" rerouteNo="1" devices="tripinfo_carIn63848:1 routing_carIn63848:1 emissions_carIn63848:1" vType="default_016" speedFactor="0.90" vaporized="">
        <emissions CO_abs="2336.447939" CO2_abs="141799.478631" HC_abs="13.905759" PMx_abs="2.186539" NOx_abs="56.023438" fuel_abs="60.954139" electricity_abs="0"/>
    </tripinfo>
    <tripinfo id="carIn101266:1" depart="57737.00" departLane="272042143_1" departPos="5.10" departSpeed="0.00" departDelay="0.50" arrival="57917.00" arrivalLane="306240162#0_0" arrivalPos="220.43" arrivalSpeed="15.68" duration="180.00" routeLength="2246.89" waitingTime="0.00" waitingCount="0" stopTime="0.00" timeLoss="23.13" rerouteNo="1" devices="tripinfo_carIn101266:1 routing_carIn101266:1 emissions_carIn101266:1" vType="default_016" speedFactor="0.94" vaporized="">
        <emissions CO_abs="6420.871800" CO2_abs="517685.961276" HC_abs="41.377212" PMx_abs="8.802104" NOx_abs="205.971752" fuel_abs="222.530606" electricity_abs="0"/>
    </tripinfo>
    <tripinfo id="h19804c1:3" depart="57616.00" departLane="124812856#0_1" departPos="5.10" departSpeed="0.00" departDelay="0.50" arrival="57919.00" arrivalLane="-128361102#1_1" arrivalPos="274.68" arrivalSpeed="11.63" duration="303.00" routeLength="2250.49" waitingTime="81.00" waitingCount="3" stopTime="0.00" timeLoss="123.33" rerouteNo="1" devices="tripinfo_h19804c1:3 routing_h19804c1:3 emissions_h19804c1:3" vType="default_016" speedFactor="0.91" vaporized="">
        <emissions CO_abs="20157.241203" CO2_abs="734201.131664" HC_abs="108.955735" PMx_abs="13.914067" NOx_abs="306.713372" fuel_abs="315.607762" electricity_abs="0"/>
    </tripinfo>
    <tripinfo id="h3688c1:1" depart="57625.00" departLane="201201950#1_1" departPos="5.10" departSpeed="0.00" departDelay="0.00" arrival="57919.00" arrivalLane="32978638#0_1" arrivalPos="49.29" arrivalSpeed="15.41" duration="294.00" routeLength="1089.75" waitingTime="207.00" waitingCount="1" stopTime="0.00" timeLoss="222.76" rerouteNo="1" devices="tripinfo_h3688c1:1 routing_h3688c1:1 emissions_h3688c1:1" vType="default_016" speedFactor="1.13" vaporized="">
        <emissions CO_abs="37245.738224" CO2_abs="808480.091173" HC_abs="188.474893" PMx_abs="18.369515" NOx_abs="356.730506" fuel_abs="347.545989" electricity_abs="0"/>
    </tripinfo>
    <tripinfo id="h15382c1:3" depart="57625.00" departLane="124812856#0_1" departPos="5.10" departSpeed="0.00" departDelay="2.80" arrival="57921.00" arrivalLane="-128361102#1_1" arrivalPos="274.68" arrivalSpeed="12.31" duration="296.00" routeLength="2250.49" waitingTime="77.00" waitingCount="2" stopTime="0.00" timeLoss="125.44" rerouteNo="1" devices="tripinfo_h15382c1:3 routing_h15382c1:3 emissions_h15382c1:3" vType="default_016" speedFactor="0.97" vaporized="">
        <emissions CO_abs="19938.913282" CO2_abs="763207.758488" HC_abs="108.751948" PMx_abs="14.900945" NOx_abs="321.877935" fuel_abs="328.075151" electricity_abs="0"/>
    </tripinfo>
    <tripinfo id="h16072c2:3" depart="57663.00" departLane="315358254#0_1" departPos="5.10" departSpeed="0.00" departDelay="2.50" arrival="57921.00" arrivalLane="386687235_1" arrivalPos="80.84" arrivalSpeed="12.14" duration="258.00" routeLength="1611.92" waitingTime="111.00" waitingCount="3" stopTime="0.00" timeLoss="135.63" rerouteNo="1" devices="tripinfo_h16072c2:3 routing_h16072c2:3 emissions_h16072c2:3" vType="default_016" speedFactor="0.96" vaporized="">
        <emissions CO_abs="20866.755360" CO2_abs="589168.947163" HC_abs="108.776401" PMx_abs="11.807754" NOx_abs="249.364829" fuel_abs="253.266550" electricity_abs="0"/>
    </tripinfo>
    <tripinfo id="carIn107842:1" depart="57622.00" departLane="124812856#0_1" departPos="5.10" departSpeed="0.00" departDelay="0.90" arrival="57922.00" arrivalLane="-128361102#1_1" arrivalPos="274.68" arrivalSpeed="12.59" duration="300.00" routeLength="2250.49" waitingTime="74.00" waitingCount="2" stopTime="0.00" timeLoss="134.70" rerouteNo="1" devices="tripinfo_carIn107842:1 routing_carIn107842:1 emissions_carIn107842:1" vType="default_016" speedFactor="1.00" vaporized="">