<?xml version="1.0" encoding="UTF-8"?>

<!-- generated on Thu Nov  4 13:42:27 2021 by Eclipse SUMO sumo Version 1.9.0
<configuration xmlns:xsi="http://www.w3.org/2001/XMLSchema-instance" xsi:noNamespaceSchemaLocation="http://sumo.dlr.de/xsd/sumoConfiguration.xsd">

    <input>
        <net-file value="/mainfs/home/bk2g18/RESCO/environments/ingolstadt21/ingolstadt21.net.xml"/>
        <route-files value="/mainfs/home/bk2g18/RESCO/environments/ingolstadt21/ingolstadt21.rou.xml"/>
    </input>

    <output>
        <tripinfo-output value="/mainfs/home/bk2g18/RESCO/logs/MPLight-tr0-ingolstadt21-21-mplight_full-pressure/tripinfo_42.xml"/>
        <tripinfo-output.write-unfinished value="true"/>
    </output>

    <time>
        <begin value="57600"/>
        <end value="61200"/>
    </time>

    <processing>
        <time-to-teleport value="-1"/>
    </processing>

    <report>
        <xml-validation value="never"/>
        <xml-validation.routes value="never"/>
        <no-warnings value="true"/>
        <no-step-log value="true"/>
    </report>

    <emissions>
        <device.emissions.probability value="1"/>
    </emissions>

    <traci_server>
        <remote-port value="35687"/>
    </traci_server>

    <random_number>
        <random value="true"/>
    </random_number>

</configuration>
-->

<tripinfos xmlns:xsi="http://www.w3.org/2001/XMLSchema-instance" xsi:noNamespaceSchemaLocation="http://sumo.dlr.de/xsd/tripinfo_file.xsd">
    <tripinfo id="h15454c2:3" depart="57612.00" departLane="24608844_1" departPos="5.10" departSpeed="0.00" departDelay="0.50" arrival="57650.00" arrivalLane="32978638#0_1" arrivalPos="49.29" arrivalSpeed="14.50" duration="38.00" routeLength="354.79" waitingTime="0.00" waitingCount="0" stopTime="0.00" timeLoss="4.95" rerouteNo="1" devices="tripinfo_h15454c2:3 routing_h15454c2:3 emissions_h15454c2:3" vType="default_016" speedFactor="1.05" vaporized="">
        <emissions CO_abs="1816.781470" CO2_abs="105410.478141" HC_abs="10.738495" PMx_abs="1.837605" NOx_abs="43.092636" fuel_abs="45.311645" electricity_abs="0"/>
    </tripinfo>
    <tripinfo id="carIn60260:1" depart="57606.00" departLane="315358254#0_1" departPos="5.10" departSpeed="0.00" departDelay="0.90" arrival="57659.00" arrivalLane="399835085#1_1" arrivalPos="212.23" arrivalSpeed="7.71" duration="53.00" routeLength="430.98" waitingTime="0.00" waitingCount="0" stopTime="0.00" timeLoss="6.83" rerouteNo="1" devices="tripinfo_carIn60260:1 routing_carIn60260:1 emissions_carIn60260:1" vType="default_016" speedFactor="0.99" vaporized="">
        <emissions CO_abs="2139.329596" CO2_abs="111114.454133" HC_abs="12.327882" PMx_abs="1.928846" NOx_abs="45.657637" fuel_abs="47.763725" electricity_abs="0"/>
    </tripinfo>
    <tripinfo id="carIn53971:1" depart="57640.00" departLane="272042143_1" departPos="5.10" departSpeed="0.00" departDelay="0.80" arrival="57696.00" arrivalLane="24634414#1_1" arrivalPos="162.19" arrivalSpeed="7.22" duration="56.00" routeLength="493.04" waitingTime="0.00" waitingCount="0" stopTime="0.00" timeLoss="8.72" rerouteNo="1" devices="tripinfo_carIn53971:1 routing_carIn53971:1 emissions_carIn53971:1" vType="default_016" speedFactor="0.98" vaporized="">
        <emissions CO_abs="2603.448435" CO2_abs="140347.241833" HC_abs="15.120436" PMx_abs="2.407140" NOx_abs="57.323172" fuel_abs="60.329725" electricity_abs="0"/>
    </tripinfo>
    <tripinfo id="h7800c1:5" depart="57696.00" departLane="-447569998#1_1" departPos="5.10" departSpeed="0.00" departDelay="0.00" arrival="57719.00" arrivalLane="-447569998#1_2" arrivalPos="180.76" arrivalSpeed="7.91" duration="23.00" routeLength="175.66" waitingTime="0.00" waitingCount="0" stopTime="0.00" timeLoss="3.05" rerouteNo="1" devices="tripinfo_h7800c1:5 routing_h7800c1:5 emissions_h7800c1:5" vType="default_016" speedFactor="1.09" vaporized="">
        <emissions CO_abs="1027.308507" CO2_abs="48214.514148" HC_abs="5.788975" PMx_abs="0.800884" NOx_abs="19.657208" fuel_abs="20.725651" electricity_abs="0"/>
    </tripinfo>
    <tripinfo id="h3568c1:3" depart="57656.00" departLane="266565295#5_1" departPos="5.10" departSpeed="0.00" departDelay="0.80" arrival="57725.00" arrivalLane="-24634415_1" arrivalPos="62.03" arrivalSpeed="14.22" duration="69.00" routeLength="807.40" waitingTime="0.00" waitingCount="0" stopTime="0.00" timeLoss="15.42" rerouteNo="1" devices="tripinfo_h3568c1:3 routing_h3568c1:3 emissions_h3568c1:3" vType="default_016" speedFactor="1.20" vaporized="">
        <emissions CO_abs="3278.023202" CO2_abs="221741.416250" HC_abs="20.127754" PMx_abs="4.014088" NOx_abs="90.466295" fuel_abs="95.316965" electricity_abs="0"/>
    </tripinfo>
    <tripinfo id="h7181c1:1" depart="57660.00" departLane="315358254#0_1" departPos="5.10" departSpeed="0.00" departDelay="0.10" arrival="57738.00" arrivalLane="306240162#0_0" arrivalPos="220.43" arrivalSpeed="14.78" duration="78.00" routeLength="932.35" waitingTime="6.00" waitingCount="1" stopTime="0.00" timeLoss="21.88" rerouteNo="1" devices="tripinfo_h7181c1:1 routing_h7181c1:1 emissions_h7181c1:1" vType="default_016" speedFactor="0.92" vaporized="">
        <emissions CO_abs="4183.319172" CO2_abs="282229.026724" HC_abs="25.768479" PMx_abs="5.366030" NOx_abs="116.162978" fuel_abs="121.317643" electricity_abs="0"/>
    </tripinfo>
    <tripinfo id="h5979c1:5" depart="57669.00" departLane="399835085#1_1" departPos="5.10" departSpeed="0.00" departDelay="0.00" arrival="57747.00" arrivalLane="-315358254#1_1" arrivalPos="137.16" arrivalSpeed="13.67" duration="78.00" routeLength="659.33" waitingTime="0.00" waitingCount="0" stopTime="0.00" timeLoss="10.16" rerouteNo="1" devices="tripinfo_h5979c1:5 routing_h5979c1:5 emissions_h5979c1:5" vType="default_016" speedFactor="1.07" vaporized="">
        <emissions CO_abs="3311.425360" CO2_abs="176701.093709" HC_abs="19.150791" PMx_abs="2.836495" NOx_abs="71.058777" fuel_abs="75.957118" electricity_abs="0"/>
    </tripinfo>
    <tripinfo id="h317c2:1" depart="57707.00" departLane="-32978638#0_1" departPos="5.10" departSpeed="0.00" departDelay="0.10" arrival="57752.00" arrivalLane="-266565295#5_1" arrivalPos="172.76" arrivalSpeed="15.97" duration="45.00" routeLength="370.53" waitingTime="12.00" waitingCount="1" stopTime="0.00" timeLoss="21.78" rerouteNo="1" devices="tripinfo_h317c2:1 routing_h317c2:1 emissions_h317c2:1" vType="default_016" speedFactor="1.18" vaporized="">
        <emissions CO_abs="3586.004457" CO2_abs="163774.417942" HC_abs="20.104378" PMx_abs="3.202504" NOx_abs="68.537719" fuel_abs="70.400081" electricity_abs="0"/>
    </tripinfo>
    <tripinfo id="h4538c1:1" depart="57701.00" departLane="-10427692#1_1" departPos="5.10" departSpeed="0.00" departDelay="0.00" arrival="57762.00" arrivalLane="-128361102#1_1" arrivalPos="274.68" arrivalSpeed="11.71" duration="61.00" routeLength="440.74" waitingTime="12.00" waitingCount="1" stopTime="0.00" timeLoss="23.61" rerouteNo="1" devices="tripinfo_h4538c1:1 routing_h4538c1:1 emissions_h4538c1:1" vType="default_016" speedFactor="0.84" vaporized="">
        <emissions CO_abs="3148.216723" CO2_abs="131529.459083" HC_abs="17.391147" PMx_abs="2.326163" NOx_abs="54.015951" fuel_abs="56.539824" electricity_abs="0"/>
    </tripinfo>
    <tripinfo id="h3326c1:2" depart="57656.00" departLane="22716069#0_1" departPos="5.10" departSpeed="0.00" departDelay="0.00" arrival="57769.00" arrivalLane="24634517#13_1" arrivalPos="111.62" arrivalSpeed="13.87" duration="113.00" routeLength="1312.81" waitingTime="0.00" waitingCount="0" stopTime="0.00" timeLoss="15.88" rerouteNo="1" devices="tripinfo_h3326c1:2 routing_h3326c1:2 emissions_h3326c1:2" vType="default_016" speedFactor="1.01" vaporized="">
        <emissions CO_abs="4331.021335" CO2_abs="331029.310376" HC_abs="27.480929" PMx_abs="5.680920" NOx_abs="133.227869" fuel_abs="142.295048" electricity_abs="0"/>
    </tripinfo>
    <tripinfo id="h330c1:1" depart="57736.00" departLane="-32978638#0_1" departPos="5.10" departSpeed="0.00" departDelay="0.20" arrival="57770.00" arrivalLane="-266565295#5_1" arrivalPos="172.76" arrivalSpeed="12.36" duration="34.00" routeLength="370.53" waitingTime="0.00" waitingCount="0" stopTime="0.00" timeLoss="6.06" rerouteNo="1" devices="tripinfo_h330c1:1 routing_h330c1:1 emissions_h330c1:1" vType="default_016" speedFactor="0.97" vaporized="">
        <emissions CO_abs="1732.496879" CO2_abs="106290.780108" HC_abs="10.397924" PMx_abs="1.944524" NOx_abs="43.917346" fuel_abs="45.689839" electricity_abs="0"/>
    </tripinfo>
    <tripinfo id="carIn121703:1" depart="57647.00" departLane="386687232#0_1" departPos="5.10" departSpeed="0.00" departDelay="0.30" arrival="57774.00" arrivalLane="-315358244_1" arrivalPos="33.95" arrivalSpeed="11.97" duration="127.00" routeLength="1157.39" waitingTime="17.00" waitingCount="2" stopTime="0.00" timeLoss="38.70" rerouteNo="1" devices="tripinfo_carIn121703:1 routing_carIn121703:1 emissions_carIn121703:1" vType="default_016" speedFactor="0.95" vaporized="">
        <emissions CO_abs="5379.868730" CO2_abs="306357.115246" HC_abs="31.668805" PMx_abs="5.322932" NOx_abs="124.352907" fuel_abs="131.690562" electricity_abs="0"/>
    </tripinfo>
    <tripinfo id="h3688c1:1" depart="57625.00" departLane="201201950#1_1" departPos="5.10" departSpeed="0.00" departDelay="0.00" arrival="57789.00" arrivalLane="32978638#0_1" arrivalPos="49.29" arrivalSpeed="14.76" duration="164.00" routeLength="1089.75" waitingTime="77.00" waitingCount="1" stopTime="0.00" timeLoss="94.49" rerouteNo="1" devices="tripinfo_h3688c1:1 routing_h3688c1:1 emissions_h3688c1:1" vType="default_016" speedFactor="1.15" vaporized="">
        <emissions CO_abs="15913.752198" CO2_abs="480155.992684" HC_abs="83.607135" PMx_abs="9.984359" NOx_abs="204.832238" fuel_abs="206.403614" electricity_abs="0"/>
    </tripinfo>
    <tripinfo id="h3154c1:1" depart="57658.00" departLane="24634507_1" departPos="5.10" departSpeed="0.00" departDelay="0.00" arrival="57791.00" arrivalLane="-266565295#5_1" arrivalPos="172.76" arrivalSpeed="11.42" duration="133.00" routeLength="1206.22" waitingTime="12.00" waitingCount="1" stopTime="0.00" timeLoss="28.87" rerouteNo="1" devices="tripinfo_h3154c1:1 routing_h3154c1:1 emissions_h3154c1:1" vType="default_016" speedFactor="0.86" vaporized="">
        <emissions CO_abs="5242.095550" CO2_abs="288064.710862" HC_abs="30.551156" PMx_abs="4.746708" NOx_abs="115.696584" fuel_abs="123.827902" electricity_abs="0"/>
    </tripinfo>
    <tripinfo id="h11737c1:1" depart="57665.00" departLane="272042143_1" departPos="5.10" departSpeed="0.00" departDelay="1.50" arrival="57791.00" arrivalLane="-315358254#1_1" arrivalPos="137.16" arrivalSpeed="15.24" duration="126.00" routeLength="1596.88" waitingTime="5.00" waitingCount="1" stopTime="0.00" timeLoss="24.06" rerouteNo="1" devices="tripinfo_h11737c1:1 routing_h11737c1:1 emissions_h11737c1:1" vType="default_016" speedFactor="1.14" vaporized="">
        <emissions CO_abs="4505.806654" CO2_abs="354217.264056" HC_abs="28.794199" PMx_abs="6.247891" NOx_abs="142.475150" fuel_abs="152.262276" electricity_abs="0"/>
    </tripinfo>
    <tripinfo id="carIn27009:1" depart="57673.00" departLane="-447569998#1_1" departPos="5.10" departSpeed="0.00" departDelay="0.50" arrival="57794.00" arrivalLane="-26677539_1" arrivalPos="152.75" arrivalSpeed="6.13" duration="121.00" routeLength="699.63" waitingTime="0.00" waitingCount="0" stopTime="0.00" timeLoss="15.57" rerouteNo="1" devices="tripinfo_carIn27009:1 routing_carIn27009:1 emissions_carIn27009:1" vType="default_015" speedFactor="0.79" vaporized="">
        <emissions CO_abs="5122.465562" CO2_abs="188255.494291" HC_abs="27.596139" PMx_abs="2.993683" NOx_abs="76.400353" fuel_abs="80.925234" electricity_abs="0"/>
    </tripinfo>
    <tripinfo id="carIn129809:1" depart="57729.00" departLane="-447569998#1_1" departPos="5.10" departSpeed="0.00" departDelay="1.00" arrival="57795.00" arrivalLane="-315358244_1" arrivalPos="33.95" arrivalSpeed="13.65" duration="66.00" routeLength="706.49" waitingTime="0.00" waitingCount="0" stopTime="0.00" timeLoss="9.16" rerouteNo="1" devices="tripinfo_carIn129809:1 routing_carIn129809:1 emissions_carIn129809:1" vType="default_015" speedFactor="1.07" vaporized="">
        <emissions CO_abs="2404.726519" CO2_abs="155148.241354" HC_abs="14.530765" PMx_abs="2.532189" NOx_abs="61.683397" fuel_abs="66.691963" electricity_abs="0"/>
    </tripinfo>
    <tripinfo id="carIn86816:1" depart="57617.00" departLane="128361102#0_1" departPos="5.10" departSpeed="0.00" departDelay="0.80" arrival="57796.00" arrivalLane="201956811#0_1" arrivalPos="40.40" arrivalSpeed="13.40" duration="179.00" routeLength="2067.33" waitingTime="13.00" waitingCount="1" stopTime="0.00" timeLoss="35.58" rerouteNo="1" devices="tripinfo_carIn86816:1 routing_carIn86816:1 emissions_carIn86816:1" vType="default_016" speedFactor="1.05" vaporized="">
        <emissions CO_abs="7181.812386" CO2_abs="479378.757370" HC_abs="43.932148" PMx_abs="8.374508" NOx_abs="193.460174" fuel_abs="206.064593" electricity_abs="0"/>
    </tripinfo>
    <tripinfo id="carIn107282:1" depart="57749.00" departLane="-447569998#1_1" departPos="5.10" departSpeed="0.00" departDelay="0.00" arrival="57800.00" arrivalLane="315358242#0_1" arrivalPos="165.37" arrivalSpeed="12.31" duration="51.00" routeLength="448.50" waitingTime="0.00" waitingCount="0" stopTime="0.00" timeLoss="5.13" rerouteNo="1" devices="tripinfo_carIn107282:1 routing_carIn107282:1 emissions_carIn107282:1" vType="default_016" speedFactor="0.92" vaporized="">
        <emissions CO_abs="1835.747712" CO2_abs="98533.368518" HC_abs="10.625972" PMx_abs="1.553088" NOx_abs="39.352847" fuel_abs="42.355812" electricity_abs="0"/>
    </tripinfo>
    <tripinfo id="carIn126288:1" depart="57674.00" departLane="272042143_1" departPos="5.10" departSpeed="0.00" departDelay="0.00" arrival="57810.00" arrivalLane="-315358254#1_1" arrivalPos="137.16" arrivalSpeed="13.06" duration="136.00" routeLength="1596.88" waitingTime="0.00" waitingCount="0" stopTime="0.00" timeLoss="12.18" rerouteNo="1" devices="tripinfo_carIn126288:1 routing_carIn126288:1 emissions_carIn126288:1" vType="default_016" speedFactor="0.94" vaporized="">
        <emissions CO_abs="3512.532425" CO2_abs="302973.715654" HC_abs="23.019665" PMx_abs="4.618185" NOx_abs="117.966184" fuel_abs="130.235701" electricity_abs="0"/>
    </tripinfo>
    <tripinfo id="carIn30817:1" depart="57681.00" departLane="315358244_1" departPos="5.10" departSpeed="0.00" departDelay="0.20" arrival="57815.00" arrivalLane="447569997#1_1" arrivalPos="180.93" arrivalSpeed="7.49" duration="134.00" routeLength="718.04" waitingTime="51.00" waitingCount="2" stopTime="0.00" timeLoss="68.46" rerouteNo="1" devices="tripinfo_carIn30817:1 routing_carIn30817:1 emissions_carIn30817:1" vType="default_016" speedFactor="0.94" vaporized="">
        <emissions CO_abs="10966.837741" CO2_abs="307254.102405" HC_abs="57.125325" PMx_abs="6.280503" NOx_abs="131.865259" fuel_abs="132.079358" electricity_abs="0"/>
    </tripinfo>
    <tripinfo id="carIn12365:1" depart="57713.00" departLane="315358244_1" departPos="5.10" departSpeed="0.00" departDelay="0.50" arrival="57815.00" arrivalLane="447569997#1_2" arrivalPos="180.93" arrivalSpeed="8.02" duration="102.00" routeLength="718.04" waitingTime="16.00" waitingCount="2" stopTime="0.00" timeLoss="41.82" rerouteNo="1" devices="tripinfo_carIn12365:1 routing_carIn12365:1 emissions_carIn12365:1" vType="default_016" speedFactor="1.02" vaporized="">
        <emissions CO_abs="5035.791755" CO2_abs="234301.867612" HC_abs="28.421030" PMx_abs="4.307652" NOx_abs="97.411632" fuel_abs="100.717264" electricity_abs="0"/>
    </tripinfo>
    <tripinfo id="carIn107084:1" depart="57601.00" departLane="124812856#0_1" departPos="5.10" departSpeed="0.00" departDelay="0.70" arrival="57816.00" arrivalLane="-128361102#1_1" arrivalPos="274.68" arrivalSpeed="14.00" duration="215.00" routeLength="2250.49" waitingTime="37.00" waitingCount="1" stopTime="0.00" timeLoss="61.33" rerouteNo="1" devices="tripinfo_carIn107084:1 routing_carIn107084:1 emissions_carIn107084:1" vType="default_016" speedFactor="1.06" vaporized="">
        <emissions CO_abs="11227.872752" CO2_abs="570523.960996" HC_abs="64.410644" PMx_abs="10.251547" NOx_abs="231.861687" fuel_abs="245.245921" electricity_abs="0"/>
    </tripinfo>
    <tripinfo id="h17549c1:1" depart="57680.00" departLane="-447569998#1_1" departPos="5.10" departSpeed="0.00" departDelay="0.00" arrival="57822.00" arrivalLane="-315358254#1_1" arrivalPos="137.16" arrivalSpeed="15.48" duration="142.00" routeLength="1743.98" waitingTime="2.00" waitingCount="1" stopTime="0.00" timeLoss="24.39" rerouteNo="1" devices="tripinfo_h17549c1:1 routing_h17549c1:1 emissions_h17549c1:1" vType="default_016" speedFactor="1.16" vaporized="">
        <emissions CO_abs="5241.385147" CO2_abs="402877.203014" HC_abs="33.174365" PMx_abs="6.947786" NOx_abs="161.121301" fuel_abs="173.179342" electricity_abs="0"/>
    </tripinfo>
    <tripinfo id="h16072c2:3" depart="57663.00" departLane="315358254#0_1" departPos="5.10" departSpeed="0.00" departDelay="2.50" arrival="57823.00" arrivalLane="386687235_1" arrivalPos="80.84" arrivalSpeed="15.58" duration="160.00" routeLength="1611.92" waitingTime="30.00" waitingCount="2" stopTime="0.00" timeLoss="61.22" rerouteNo="1" devices="tripinfo_h16072c2:3 routing_h16072c2:3 emissions_h16072c2:3" vType="default_016" speedFactor="1.19" vaporized="">
        <emissions CO_abs="9319.196685" CO2_abs="457212.498191" HC_abs="52.947434" PMx_abs="8.744620" NOx_abs="188.942117" fuel_abs="196.537211" electricity_abs="0"/>
    </tripinfo>
    <tripinfo id="h9953c2:3" depart="57682.00" departLane="-54169231#2_1" departPos="5.10" departSpeed="0.00" departDelay="0.00" arrival="57823.00" arrivalLane="386687235_2" arrivalPos="80.84" arrivalSpeed="15.18" duration="141.00" routeLength="1535.60" waitingTime="2.00" waitingCount="1" stopTime="0.00" timeLoss="28.91" rerouteNo="1" devices="tripinfo_h9953c2:3 routing_h9953c2:3 emissions_h9953c2:3" vType="default_016" speedFactor="1.12" vaporized="">
        <emissions CO_abs="6494.752949" CO2_abs="418466.905320" HC_abs="39.298158" PMx_abs="7.640178" NOx_abs="172.044219" fuel_abs="179.880731" electricity_abs="0"/>
    </tripinfo>
    <tripinfo id="carIn28951:1" depart="57606.00" departLane="10425609#0_1" departPos="5.10" departSpeed="0.00" departDelay="0.20" arrival="57829.00" arrivalLane="-128361102#1_1" arrivalPos="274.68" arrivalSpeed="12.43" duration="223.00" routeLength="2113.04" waitingTime="34.00" waitingCount="2" stopTime="0.00" timeLoss="61.23" rerouteNo="1" devices="tripinfo_carIn28951:1 routing_carIn28951:1 emissions_carIn28951:1" vType="default_016" speedFactor="0.96" vaporized="">
        <emissions CO_abs="9858.732650" CO2_abs="520758.268624" HC_abs="57.056754" PMx_abs="8.997652" NOx_abs="210.637695" fuel_abs="223.853698" electricity_abs="0"/>
    </tripinfo>
    <tripinfo id="h645c1:1" depart="57622.00" departLane="266565295#5_1" departPos="5.10" departSpeed="0.00" departDelay="0.40" arrival="57829.00" arrivalLane="-315358244_1" arrivalPos="33.95" arrivalSpeed="12.94" duration="207.00" routeLength="1910.83" waitingTime="30.00" waitingCount="3" stopTime="0.00" timeLoss="58.91" rerouteNo="1" devices="tripinfo_h645c1:1 routing_h645c1:1 emissions_h645c1:1" vType="default_016" speedFactor="0.94" vaporized="">
        <emissions CO_abs="9152.315776" CO2_abs="471001.024936" HC_abs="52.652654" PMx_abs="8.095941" NOx_abs="190.360819" fuel_abs="202.465248" electricity_abs="0"/>
    </tripinfo>
    <tripinfo id="carIn77943:1" depart="57608.00" departLane="124812856#0_1" departPos="5.10" departSpeed="0.00" departDelay="2.50" arrival="57831.00" arrivalLane="-128361102#1_1" arrivalPos="274.68" arrivalSpeed="15.04" duration="223.00" routeLength="2250.49" waitingTime="27.00" waitingCount="2" stopTime="0.00" timeLoss="71.43" rerouteNo="1" devices="tripinfo_carIn77943:1 routing_carIn77943:1 emissions_carIn77943:1" vType="default_016" speedFactor="1.08" vaporized="">
        <emissions CO_abs="10750.123927" CO2_abs="630207.960442" HC_abs="63.759622" PMx_abs="11.317325" NOx_abs="257.436438" fuel_abs="270.900211" electricity_abs="0"/>
    </tripinfo>
    <tripinfo id="carIn107842:1" depart="57623.00" departLane="124812856#0_1" departPos="5.10" departSpeed="0.00" departDelay="1.90" arrival="57832.00" arrivalLane="-128361102#1_1" arrivalPos="274.68" arrivalSpeed="13.79" duration="209.00" routeLength="2250.49" waitingTime="17.00" waitingCount="2" stopTime="0.00" timeLoss="52.95" rerouteNo="1" devices="tripinfo_carIn107842:1 routing_carIn107842:1 emissions_carIn107842:1" vType="default_016" speedFactor="1.05" vaporized="">
        <emissions CO_abs="8233.021192" CO2_abs="517108.312454" HC_abs="49.562789" PMx_abs="8.868223" NOx_abs="207.862351" fuel_abs="222.283574" electricity_abs="0"/>
    </tripinfo>
    <tripinfo id="50R_frequency3.17" depart="57674.00" departLane="-18809673#6_1" departPos="12.10" departSpeed="0.00" departDelay="0.70" arrival="57846.00" arrivalLane="201956811#0_1" arrivalPos="40.40" arrivalSpeed="13.86" duration="172.00" routeLength="1954.47" waitingTime="7.00" waitingCount="1" stopTime="0.00" timeLoss="27.31" rerouteNo="1" devices="tripinfo_50R_frequency3.17 routing_50R_frequency3.17 emissions_50R_frequency3.17" vType="bus" speedFactor="1.00" vaporized="">
        <emissions CO_abs="3090.057436" CO2_abs="1954826.104896" HC_abs="653.930950" PMx_abs="331.907700" NOx_abs="15112.929695" fuel_abs="833.721623" electricity_abs="0"/>
    </tripinfo>
    <tripinfo id="randUni15030:1" depart="57735.00" departLane="386687232#0_1" departPos="5.10" departSpeed="0.00" departDelay="0.10" arrival="57849.00" arrivalLane="26677539_1" arrivalPos="151.98" arrivalSpeed="7.92" duration="114.00" routeLength="919.89" waitingTime="17.00" waitingCount="1" stopTime="0.00" timeLoss="30.49" rerouteNo="1" devices="tripinfo_randUni15030:1 routing_randUni15030:1 emissions_randUni15030:1" vType="random_016" speedFactor="1.00" vaporized="">
        <emissions CO_abs="5846.552261" CO2_abs="256962.436969" HC_abs="32.573762" PMx_abs="4.508361" NOx_abs="105.137951" fuel_abs="110.458796" electricity_abs="0"/>
    </tripinfo>
    <tripinfo id="carIn81046:1" depart="57611.00" departLane="124812856#0_1" departPos="5.10" departSpeed="0.00" departDelay="2.50" arrival="57859.00" arrivalLane="-128361102#1_1" arrivalPos="274.68" arrivalSpeed="11.22" duration="248.00" routeLength="2232.46" waitingTime="24.00" waitingCount="2" stopTime="0.00" timeLoss="50.38" rerouteNo="1" devices="tripinfo_carIn81046:1 routing_carIn81046:1 emissions_carIn81046:1" vType="default_016" speedFactor="0.82" vaporized="">
        <emissions CO_abs="9438.048722" CO2_abs="514388.804503" HC_abs="54.860178" PMx_abs="8.253730" NOx_abs="205.243575" fuel_abs="221.116292" electricity_abs="0"/>
    </tripinfo>
    <tripinfo id="carIn12152:1" depart="57647.00" departLane="24599188#0.94_1" departPos="5.10" departSpeed="0.00" departDelay="0.50" arrival="57859.00" arrivalLane="-315358254#1_1" arrivalPos="137.16" arrivalSpeed="12.03" duration="212.00" routeLength="2034.31" waitingTime="5.00" waitingCount="2" stopTime="0.00" timeLoss="28.49" rerouteNo="1" devices="tripinfo_carIn12152:1 routing_carIn12152:1 emissions_carIn12152:1" vType="default_016" speedFactor="0.87" vaporized="">
        <emissions CO_abs="6948.287916" CO2_abs="457488.868005" HC_abs="42.212380" PMx_abs="7.124295" NOx_abs="181.047440" fuel_abs="196.656265" electricity_abs="0"/>
    </tripinfo>
    <tripinfo id="h19804c1:3" depart="57617.00" departLane="124812856#0_1" departPos="5.10" departSpeed="0.00" departDelay="1.50" arrival="57861.00" arrivalLane="-128361102#1_1" arrivalPos="274.68" arrivalSpeed="14.31" duration="244.00" routeLength="2232.46" waitingTime="23.00" waitingCount="2" stopTime="0.00" timeLoss="103.02" rerouteNo="1" devices="tripinfo_h19804c1:3 routing_h19804c1:3 emissions_h19804c1:3" vType="default_016" speedFactor="1.15" vaporized="">
        <emissions CO_abs="10496.513084" CO2_abs="580925.922415" HC_abs="61.363057" PMx_abs="10.060074" NOx_abs="236.667927" fuel_abs="249.716804" electricity_abs="0"/>
    </tripinfo>
    <tripinfo id="h15382c1:3" depart="57626.00" departLane="124812856#0_1" departPos="5.10" departSpeed="0.00" departDelay="3.80" arrival="57863.00" arrivalLane="-128361102#1_1" arrivalPos="274.68" arrivalSpeed="15.84" duration="237.00" routeLength="2232.46" waitingTime="14.00" waitingCount="2" stopTime="0.00" timeLoss="93.73" rerouteNo="1" devices="tripinfo_h15382c1:3 routing_h15382c1:3 emissions_h15382c1:3" vType="default_016" speedFactor="1.14" vaporized="">
        <emissions CO_abs="10328.303125" CO2_abs="625550.485030" HC_abs="61.685520" PMx_abs="11.064263" NOx_abs="256.156377" fuel_abs="268.897944" electricity_abs="0"/>
    </tripinfo>
    <tripinfo id="randUni31145:1" depart="57814.00" departLane="10425609#0_1" departPos="5.10" departSpeed="0.00" departDelay="0.30" arrival="57863.00" arrivalLane="201956810_1" arrivalPos="71.65" arrivalSpeed="14.30" duration="49.00" routeLength="255.78" waitingTime="20.00" waitingCount="1" stopTime="0.00" timeLoss="31.05" rerouteNo="1" devices="tripinfo_randUni31145:1 routing_randUni31145:1 emissions_randUni31145:1" vType="random_016" speedFactor="1.08" vaporized="">
        <emissions CO_abs="4941.235246" CO2_abs="157178.894034" HC_abs="26.226791" PMx_abs="3.373308" NOx_abs="68.596568" fuel_abs="67.565682" electricity_abs="0"/>
    </tripinfo>
    <tripinfo id="carIn8642:1" depart="57774.00" departLane="-447569998#1_1" departPos="5.10" departSpeed="0.00" departDelay="0.90" arrival="57864.00" arrivalLane="-315358244_1" arrivalPos="33.95" arrivalSpeed="12.10" duration="90.00" routeLength="706.49" waitingTime="6.00" waitingCount="1" stopTime="0.00" timeLoss="22.94" rerouteNo="1" devices="tripinfo_carIn8642:1 routing_carIn8642:1 emissions_carIn8642:1" vType="default_016" speedFactor="0.91" vaporized="">
        <emissions CO_abs="3672.710728" CO2_abs="184661.356251" HC_abs="21.006707" PMx_abs="3.116697" NOx_abs="74.951249" fuel_abs="79.378913" electricity_abs="0"/>
    </tripinfo>
    <tripinfo id="randUni2407:1" depart="57820.00" departLane="10425609#0_1" departPos="5.10" departSpeed="0.00" departDelay="0.80" arrival="57867.00" arrivalLane="201956810_1" arrivalPos="71.65" arrivalSpeed="12.79" duration="47.00" routeLength="255.78" waitingTime="16.00" waitingCount="1" stopTime="0.00" timeLoss="26.24" rerouteNo="1" devices="tripinfo_randUni2407:1 routing_randUni2407:1 emissions_randUni2407:1" vType="random_016" speedFactor="0.95" vaporized="">
        <emissions CO_abs="3744.673776" CO2_abs="130826.596452" HC_abs="20.130594" PMx_abs="2.629970" NOx_abs="55.932323" fuel_abs="56.237714" electricity_abs="0"/>
    </tripinfo>
    <tripinfo id="h3864c1:3" depart="57678.00" departLane="24693977#1_1" departPos="5.10" departSpeed="0.00" departDelay="0.00" arrival="57871.00" arrivalLane="201956820_1" arrivalPos="48.33" arrivalSpeed="12.30" duration="193.00" routeLength="1574.85" waitingTime="19.00" waitingCount="3" stopTime="0.00" timeLoss="53.19" rerouteNo="1" devices="tripinfo_h3864c1:3 routing_h3864c1:3 emissions_h3864c1:3" vType="default_016" speedFactor="0.92" vaporized="">
        <emissions CO_abs="8823.524726" CO2_abs="457493.553802" HC_abs="50.868443" PMx_abs="8.091417" NOx_abs="188.101844" fuel_abs="196.658322" electricity_abs="0"/>
    </tripinfo>
    <tripinfo id="carIn12775:1" depart="57676.00" departLane="10425609#0_1" departPos="5.10" departSpeed="0.00" departDelay="0.60" arrival="57874.00" arrivalLane="18809673#0_1" arrivalPos="473.56" arrivalSpeed="12.32" duration="198.00" routeLength="1959.45" waitingTime="13.00" waitingCount="2" stopTime="0.00" timeLoss="48.59" rerouteNo="1" devices="tripinfo_carIn12775:1 routing_carIn12775:1 emissions_carIn12775:1" vType="default_016" speedFactor="0.97" vaporized="">
        <emissions CO_abs="6689.273952" CO2_abs="432232.928800" HC_abs="40.531738" PMx_abs="7.117894" NOx_abs="172.638185" fuel_abs="185.799352" electricity_abs="0"/>
    </tripinfo>
    <tripinfo id="carIn53503:1" depart="57765.00" departLane="-306240162#1_0" departPos="5.10" departSpeed="0.00" departDelay="4.40" arrival="57874.00" arrivalLane="24634510#6_1" arrivalPos="76.64" arrivalSpeed="13.38" duration="109.00" routeLength="1440.47" waitingTime="0.00" waitingCount="0" stopTime="0.00" timeLoss="12.01" rerouteNo="1" devices="tripinfo_carIn53503:1 routing_carIn53503:1 emissions_carIn53503:1" vType="default_016" speedFactor="1.03" vaporized="">
        <emissions CO_abs="3373.021974" CO2_abs="298211.535917" HC_abs="22.184262" PMx_abs="4.810558" NOx_abs="116.553086" fuel_abs="128.188264" electricity_abs="0"/>
    </tripinfo>
    <tripinfo id="h13377c2:3" depart="57808.00" departLane="315358244_1" departPos="5.10" departSpeed="0.00" departDelay="4.60" arrival="57876.00" arrivalLane="447569997#1_1" arrivalPos="180.93" arrivalSpeed="9.01" duration="68.00" routeLength="718.04" waitingTime="0.00" waitingCount="0" stopTime="0.00" timeLoss="17.60" rerouteNo="1" devices="tripinfo_h13377c2:3 routing_h13377c2:3 emissions_h13377c2:3" vType="default_016" speedFactor="1.23" vaporized="">
        <emissions CO_abs="2930.084693" CO2_abs="198219.560720" HC_abs="17.904535" PMx_abs="3.376246" NOx_abs="79.859513" fuel_abs="85.206224" electricity_abs="0"/>
    </tripinfo>
    <tripinfo id="carIn24709:1" depart="57753.00" departLane="266565295#5_1" departPos="5.10" departSpeed="0.00" departDelay="2.50" arrival="57877.00" arrivalLane="-24634506#2_1" arrivalPos="71.32" arrivalSpeed="14.31" duration="124.00" routeLength="1450.12" waitingTime="0.00" waitingCount="0" stopTime="0.00" timeLoss="16.73" rerouteNo="1" devices="tripinfo_carIn24709:1 routing_carIn24709:1 emissions_carIn24709:1" vType="default_016" speedFactor="1.11" vaporized="">
        <emissions CO_abs="4395.218050" CO2_abs="331225.238146" HC_abs="27.756181" PMx_abs="5.631651" NOx_abs="132.940670" fuel_abs="142.379403" electricity_abs="0"/>