<?xml version="1.0" encoding="UTF-8"?>

<!-- generated on Thu Nov  4 13:28:49 2021 by Eclipse SUMO sumo Version 1.9.0
<configuration xmlns:xsi="http://www.w3.org/2001/XMLSchema-instance" xsi:noNamespaceSchemaLocation="http://sumo.dlr.de/xsd/sumoConfiguration.xsd">

    <input>
        <net-file value="/mainfs/home/bk2g18/RESCO/environments/ingolstadt21/ingolstadt21.net.xml"/>
        <route-files value="/mainfs/home/bk2g18/RESCO/environments/ingolstadt21/ingolstadt21.rou.xml"/>
    </input>

    <output>
        <tripinfo-output value="/mainfs/home/bk2g18/RESCO/logs/MPLight-tr0-ingolstadt21-21-mplight_full-pressure/tripinfo_22.xml"/>
        <tripinfo-output.write-unfinished value="true"/>
    </output>

    <time>
        <begin value="57600"/>
        <end value="61200"/>
    </time>

    <processing>
        <time-to-teleport value="-1"/>
    </processing>

    <report>
        <xml-validation value="never"/>
        <xml-validation.routes value="never"/>
        <no-warnings value="true"/>
        <no-step-log value="true"/>
    </report>

    <emissions>
        <device.emissions.probability value="1"/>
    </emissions>

    <traci_server>
        <remote-port value="35774"/>
    </traci_server>

    <random_number>
        <random value="true"/>
    </random_number>

</configuration>
-->

<tripinfos xmlns:xsi="http://www.w3.org/2001/XMLSchema-instance" xsi:noNamespaceSchemaLocation="http://sumo.dlr.de/xsd/tripinfo_file.xsd">
    <tripinfo id="carIn60260:1" depart="57606.00" departLane="315358254#0_1" departPos="5.10" departSpeed="0.00" departDelay="0.90" arrival="57653.00" arrivalLane="399835085#1_1" arrivalPos="212.23" arrivalSpeed="9.13" duration="47.00" routeLength="430.98" waitingTime="0.00" waitingCount="0" stopTime="0.00" timeLoss="6.01" rerouteNo="1" devices="tripinfo_carIn60260:1 routing_carIn60260:1 emissions_carIn60260:1" vType="default_016" speedFactor="1.14" vaporized="">
        <emissions CO_abs="1923.608982" CO2_abs="116636.596415" HC_abs="11.380691" PMx_abs="1.911714" NOx_abs="46.819098" fuel_abs="50.137396" electricity_abs="0"/>
    </tripinfo>
    <tripinfo id="h15454c2:3" depart="57612.00" departLane="24608844_1" departPos="5.10" departSpeed="0.00" departDelay="0.50" arrival="57656.00" arrivalLane="32978638#0_1" arrivalPos="49.29" arrivalSpeed="15.27" duration="44.00" routeLength="354.79" waitingTime="1.00" waitingCount="1" stopTime="0.00" timeLoss="13.56" rerouteNo="1" devices="tripinfo_h15454c2:3 routing_h15454c2:3 emissions_h15454c2:3" vType="default_016" speedFactor="1.11" vaporized="">
        <emissions CO_abs="2542.864911" CO2_abs="134750.643169" HC_abs="14.736386" PMx_abs="2.423671" NOx_abs="55.721782" fuel_abs="57.923838" electricity_abs="0"/>
    </tripinfo>
    <tripinfo id="carIn53971:1" depart="57640.00" departLane="272042143_1" departPos="5.10" departSpeed="0.00" departDelay="0.80" arrival="57693.00" arrivalLane="24634414#1_1" arrivalPos="162.19" arrivalSpeed="8.21" duration="53.00" routeLength="493.04" waitingTime="0.00" waitingCount="0" stopTime="0.00" timeLoss="9.46" rerouteNo="1" devices="tripinfo_carIn53971:1 routing_carIn53971:1 emissions_carIn53971:1" vType="default_016" speedFactor="1.05" vaporized="">
        <emissions CO_abs="2419.291589" CO2_abs="143295.295981" HC_abs="14.329173" PMx_abs="2.455283" NOx_abs="58.272299" fuel_abs="61.596795" electricity_abs="0"/>
    </tripinfo>
    <tripinfo id="h7800c1:5" depart="57696.00" departLane="-447569998#1_1" departPos="5.10" departSpeed="0.00" departDelay="0.00" arrival="57720.00" arrivalLane="-447569998#1_2" arrivalPos="180.76" arrivalSpeed="8.22" duration="24.00" routeLength="175.66" waitingTime="0.00" waitingCount="0" stopTime="0.00" timeLoss="3.39" rerouteNo="1" devices="tripinfo_h7800c1:5 routing_h7800c1:5 emissions_h7800c1:5" vType="default_016" speedFactor="1.04" vaporized="">
        <emissions CO_abs="1251.995559" CO2_abs="56359.332878" HC_abs="6.994951" PMx_abs="0.921198" NOx_abs="22.906413" fuel_abs="24.226874" electricity_abs="0"/>
    </tripinfo>
    <tripinfo id="carIn80064:1" depart="57603.00" departLane="128361109#1_1" departPos="5.10" departSpeed="0.00" departDelay="0.40" arrival="57739.00" arrivalLane="-315358254#1_1" arrivalPos="137.16" arrivalSpeed="13.52" duration="136.00" routeLength="1587.97" waitingTime="17.00" waitingCount="1" stopTime="0.00" timeLoss="46.53" rerouteNo="1" devices="tripinfo_carIn80064:1 routing_carIn80064:1 emissions_carIn80064:1" vType="default_016" speedFactor="1.00" vaporized="">
        <emissions CO_abs="8666.120798" CO2_abs="503197.081891" HC_abs="51.401680" PMx_abs="9.632746" NOx_abs="206.710142" fuel_abs="216.302946" electricity_abs="0"/>
    </tripinfo>
    <tripinfo id="h3568c1:3" depart="57656.00" departLane="266565295#5_1" departPos="5.10" departSpeed="0.00" departDelay="0.80" arrival="57740.00" arrivalLane="-24634415_1" arrivalPos="62.03" arrivalSpeed="11.89" duration="84.00" routeLength="807.40" waitingTime="0.00" waitingCount="0" stopTime="0.00" timeLoss="12.27" rerouteNo="1" devices="tripinfo_h3568c1:3 routing_h3568c1:3 emissions_h3568c1:3" vType="default_016" speedFactor="0.91" vaporized="">
        <emissions CO_abs="3062.173999" CO2_abs="199006.252130" HC_abs="18.569328" PMx_abs="3.238647" NOx_abs="79.615796" fuel_abs="85.544696" electricity_abs="0"/>
    </tripinfo>
    <tripinfo id="h4538c1:1" depart="57701.00" departLane="-10427692#1_1" departPos="5.10" departSpeed="0.00" departDelay="0.00" arrival="57745.00" arrivalLane="-128361102#1_1" arrivalPos="274.68" arrivalSpeed="14.35" duration="44.00" routeLength="440.74" waitingTime="2.00" waitingCount="1" stopTime="0.00" timeLoss="13.63" rerouteNo="1" devices="tripinfo_h4538c1:1 routing_h4538c1:1 emissions_h4538c1:1" vType="default_016" speedFactor="1.06" vaporized="">
        <emissions CO_abs="1934.349183" CO2_abs="123470.862107" HC_abs="11.703889" PMx_abs="2.115465" NOx_abs="49.655250" fuel_abs="53.075015" electricity_abs="0"/>
    </tripinfo>
    <tripinfo id="h7181c1:1" depart="57660.00" departLane="315358254#0_1" departPos="5.10" departSpeed="0.00" departDelay="0.10" arrival="57761.00" arrivalLane="306240162#0_0" arrivalPos="220.43" arrivalSpeed="16.47" duration="101.00" routeLength="932.35" waitingTime="29.00" waitingCount="2" stopTime="0.00" timeLoss="50.80" rerouteNo="1" devices="tripinfo_h7181c1:1 routing_h7181c1:1 emissions_h7181c1:1" vType="default_016" speedFactor="1.04" vaporized="">
        <emissions CO_abs="7888.562091" CO2_abs="356930.987100" HC_abs="44.497422" PMx_abs="7.489586" NOx_abs="151.715427" fuel_abs="153.429803" electricity_abs="0"/>
    </tripinfo>
    <tripinfo id="h317c2:1" depart="57707.00" departLane="-32978638#0_1" departPos="5.10" departSpeed="0.00" departDelay="0.10" arrival="57764.00" arrivalLane="-266565295#5_1" arrivalPos="172.76" arrivalSpeed="13.34" duration="57.00" routeLength="370.53" waitingTime="21.00" waitingCount="1" stopTime="0.00" timeLoss="30.63" rerouteNo="1" devices="tripinfo_h317c2:1 routing_h317c2:1 emissions_h317c2:1" vType="default_016" speedFactor="1.04" vaporized="">
        <emissions CO_abs="4646.943914" CO2_abs="165577.997486" HC_abs="25.054208" PMx_abs="3.258346" NOx_abs="69.789147" fuel_abs="71.176193" electricity_abs="0"/>
    </tripinfo>
    <tripinfo id="h3326c1:2" depart="57656.00" departLane="22716069#0_1" departPos="5.10" departSpeed="0.00" departDelay="0.00" arrival="57766.00" arrivalLane="24634517#13_1" arrivalPos="111.62" arrivalSpeed="14.05" duration="110.00" routeLength="1312.81" waitingTime="0.00" waitingCount="0" stopTime="0.00" timeLoss="19.22" rerouteNo="1" devices="tripinfo_h3326c1:2 routing_h3326c1:2 emissions_h3326c1:2" vType="default_016" speedFactor="1.07" vaporized="">
        <emissions CO_abs="4339.936480" CO2_abs="324256.445965" HC_abs="27.289789" PMx_abs="5.588205" NOx_abs="130.364847" fuel_abs="139.383752" electricity_abs="0"/>
    </tripinfo>
    <tripinfo id="h330c1:1" depart="57736.00" departLane="-32978638#0_1" departPos="5.10" departSpeed="0.00" departDelay="0.20" arrival="57767.00" arrivalLane="-266565295#5_1" arrivalPos="172.76" arrivalSpeed="14.83" duration="31.00" routeLength="370.53" waitingTime="0.00" waitingCount="0" stopTime="0.00" timeLoss="5.51" rerouteNo="1" devices="tripinfo_h330c1:1 routing_h330c1:1 emissions_h330c1:1" vType="default_016" speedFactor="1.09" vaporized="">
        <emissions CO_abs="1705.021009" CO2_abs="115988.050800" HC_abs="10.487065" PMx_abs="2.107873" NOx_abs="47.508082" fuel_abs="49.858171" electricity_abs="0"/>
    </tripinfo>
    <tripinfo id="carIn27009:1" depart="57673.00" departLane="-447569998#1_1" departPos="5.10" departSpeed="0.00" departDelay="0.50" arrival="57772.00" arrivalLane="-26677539_1" arrivalPos="152.75" arrivalSpeed="6.93" duration="99.00" routeLength="699.63" waitingTime="0.00" waitingCount="0" stopTime="0.00" timeLoss="11.83" rerouteNo="1" devices="tripinfo_carIn27009:1 routing_carIn27009:1 emissions_carIn27009:1" vType="default_015" speedFactor="0.96" vaporized="">
        <emissions CO_abs="4172.184305" CO2_abs="188070.083518" HC_abs="23.280970" PMx_abs="2.899957" NOx_abs="75.424910" fuel_abs="80.844894" electricity_abs="0"/>
    </tripinfo>
    <tripinfo id="carIn30817:1" depart="57681.00" departLane="315358244_1" departPos="5.10" departSpeed="0.00" departDelay="0.20" arrival="57772.00" arrivalLane="447569997#1_1" arrivalPos="180.93" arrivalSpeed="7.14" duration="91.00" routeLength="718.04" waitingTime="14.00" waitingCount="1" stopTime="0.00" timeLoss="27.03" rerouteNo="1" devices="tripinfo_carIn30817:1 routing_carIn30817:1 emissions_carIn30817:1" vType="default_016" speedFactor="0.97" vaporized="">
        <emissions CO_abs="4073.243929" CO2_abs="184850.316975" HC_abs="22.812401" PMx_abs="3.036826" NOx_abs="74.117432" fuel_abs="79.460645" electricity_abs="0"/>
    </tripinfo>
    <tripinfo id="h12244c1:3" depart="57612.00" departLane="315358244_1" departPos="5.10" departSpeed="0.00" departDelay="0.40" arrival="57777.00" arrivalLane="386687235_1" arrivalPos="80.84" arrivalSpeed="15.51" duration="165.00" routeLength="1186.14" waitingTime="59.00" waitingCount="3" stopTime="0.00" timeLoss="87.02" rerouteNo="1" devices="tripinfo_h12244c1:3 routing_h12244c1:3 emissions_h12244c1:3" vType="default_016" speedFactor="1.12" vaporized="">
        <emissions CO_abs="11530.531566" CO2_abs="428371.468548" HC_abs="62.556088" PMx_abs="8.456942" NOx_abs="179.983307" fuel_abs="184.141526" electricity_abs="0"/>
    </tripinfo>
    <tripinfo id="h5979c1:5" depart="57669.00" departLane="399835085#1_1" departPos="5.10" departSpeed="0.00" departDelay="0.00" arrival="57777.00" arrivalLane="-315358254#1_1" arrivalPos="137.16" arrivalSpeed="15.41" duration="108.00" routeLength="659.33" waitingTime="18.00" waitingCount="1" stopTime="0.00" timeLoss="45.53" rerouteNo="1" devices="tripinfo_h5979c1:5 routing_h5979c1:5 emissions_h5979c1:5" vType="default_016" speedFactor="1.18" vaporized="">
        <emissions CO_abs="6852.000577" CO2_abs="254298.622875" HC_abs="37.129425" PMx_abs="4.767055" NOx_abs="106.688750" fuel_abs="109.314100" electricity_abs="0"/>
    </tripinfo>
    <tripinfo id="carIn22761:1" depart="57616.00" departLane="-306240162#1_0" departPos="5.10" departSpeed="0.00" departDelay="2.10" arrival="57781.00" arrivalLane="399835085#1_1" arrivalPos="212.23" arrivalSpeed="9.04" duration="165.00" routeLength="1093.26" waitingTime="68.00" waitingCount="2" stopTime="0.00" timeLoss="93.44" rerouteNo="1" devices="tripinfo_carIn22761:1 routing_carIn22761:1 emissions_carIn22761:1" vType="default_016" speedFactor="1.10" vaporized="">
        <emissions CO_abs="15907.455871" CO2_abs="517234.565452" HC_abs="84.695778" PMx_abs="11.008439" NOx_abs="222.153365" fuel_abs="222.341101" electricity_abs="0"/>
    </tripinfo>
    <tripinfo id="carIn12365:1" depart="57713.00" departLane="315358244_1" departPos="5.10" departSpeed="0.00" departDelay="0.50" arrival="57785.00" arrivalLane="447569997#1_1" arrivalPos="180.93" arrivalSpeed="8.13" duration="72.00" routeLength="718.04" waitingTime="0.00" waitingCount="0" stopTime="0.00" timeLoss="9.76" rerouteNo="1" devices="tripinfo_carIn12365:1 routing_carIn12365:1 emissions_carIn12365:1" vType="default_016" speedFactor="0.99" vaporized="">
        <emissions CO_abs="2868.503530" CO2_abs="176610.462534" HC_abs="17.189611" PMx_abs="3.051256" NOx_abs="71.874719" fuel_abs="75.917506" electricity_abs="0"/>
    </tripinfo>
    <tripinfo id="S5R_frequency1.2" depart="57634.00" departLane="315358250#0_1" departPos="12.10" departSpeed="0.00" departDelay="22.40" arrival="57786.00" arrivalLane="386687235_1" arrivalPos="80.84" arrivalSpeed="13.37" duration="152.00" routeLength="1115.62" waitingTime="37.00" waitingCount="2" stopTime="0.00" timeLoss="70.72" rerouteNo="1" devices="tripinfo_S5R_frequency1.2 routing_S5R_frequency1.2 emissions_S5R_frequency1.2" vType="bus" speedFactor="1.00" vaporized="">
        <emissions CO_abs="3069.976158" CO2_abs="1673162.655554" HC_abs="664.292401" PMx_abs="323.574517" NOx_abs="13658.758630" fuel_abs="713.503551" electricity_abs="0"/>
    </tripinfo>
    <tripinfo id="carIn86816:1" depart="57617.00" departLane="128361102#0_1" departPos="5.10" departSpeed="0.00" departDelay="0.80" arrival="57791.00" arrivalLane="201956811#0_1" arrivalPos="40.40" arrivalSpeed="14.39" duration="174.00" routeLength="2067.33" waitingTime="7.00" waitingCount="1" stopTime="0.00" timeLoss="36.19" rerouteNo="1" devices="tripinfo_carIn86816:1 routing_carIn86816:1 emissions_carIn86816:1" vType="default_016" speedFactor="1.10" vaporized="">
        <emissions CO_abs="6261.727349" CO2_abs="489621.221825" HC_abs="39.778125" PMx_abs="8.234458" NOx_abs="194.316314" fuel_abs="210.467053" electricity_abs="0"/>
    </tripinfo>
    <tripinfo id="carIn50326:1" depart="57651.00" departLane="128361102#0_1" departPos="5.10" departSpeed="0.00" departDelay="0.30" arrival="57798.00" arrivalLane="18809673#0_1" arrivalPos="473.56" arrivalSpeed="14.69" duration="147.00" routeLength="1591.07" waitingTime="7.00" waitingCount="2" stopTime="0.00" timeLoss="33.35" rerouteNo="1" devices="tripinfo_carIn50326:1 routing_carIn50326:1 emissions_carIn50326:1" vType="default_016" speedFactor="1.14" vaporized="">
        <emissions CO_abs="5744.028852" CO2_abs="394528.073498" HC_abs="35.320428" PMx_abs="6.860969" NOx_abs="159.018273" fuel_abs="169.590774" electricity_abs="0"/>
    </tripinfo>
    <tripinfo id="h16072c2:3" depart="57663.00" departLane="315358254#0_1" departPos="5.10" departSpeed="0.00" departDelay="2.50" arrival="57804.00" arrivalLane="386687235_1" arrivalPos="80.84" arrivalSpeed="12.97" duration="141.00" routeLength="1611.92" waitingTime="1.00" waitingCount="1" stopTime="0.00" timeLoss="18.32" rerouteNo="1" devices="tripinfo_h16072c2:3 routing_h16072c2:3 emissions_h16072c2:3" vType="default_016" speedFactor="0.96" vaporized="">
        <emissions CO_abs="3973.340258" CO2_abs="318393.318250" HC_abs="25.493829" PMx_abs="4.958513" NOx_abs="124.749658" fuel_abs="136.864013" electricity_abs="0"/>
    </tripinfo>
    <tripinfo id="carIn107282:1" depart="57749.00" departLane="-447569998#1_1" departPos="5.10" departSpeed="0.00" departDelay="0.00" arrival="57805.00" arrivalLane="315358242#0_1" arrivalPos="165.37" arrivalSpeed="13.98" duration="56.00" routeLength="448.50" waitingTime="7.00" waitingCount="1" stopTime="0.00" timeLoss="15.96" rerouteNo="1" devices="tripinfo_carIn107282:1 routing_carIn107282:1 emissions_carIn107282:1" vType="default_016" speedFactor="1.03" vaporized="">
        <emissions CO_abs="2397.628359" CO2_abs="124062.967893" HC_abs="13.803928" PMx_abs="2.170997" NOx_abs="50.733426" fuel_abs="53.329797" electricity_abs="0"/>
    </tripinfo>
    <tripinfo id="h645c1:1" depart="57622.00" departLane="266565295#5_1" departPos="5.10" departSpeed="0.00" departDelay="0.40" arrival="57813.00" arrivalLane="-315358244_1" arrivalPos="33.95" arrivalSpeed="16.35" duration="191.00" routeLength="1910.83" waitingTime="41.00" waitingCount="3" stopTime="0.00" timeLoss="75.20" rerouteNo="1" devices="tripinfo_h645c1:1 routing_h645c1:1 emissions_h645c1:1" vType="default_016" speedFactor="1.20" vaporized="">
        <emissions CO_abs="11453.608857" CO2_abs="577541.832975" HC_abs="65.471616" PMx_abs="11.083576" NOx_abs="238.786659" fuel_abs="248.261626" electricity_abs="0"/>
    </tripinfo>
    <tripinfo id="carIn121703:1" depart="57647.00" departLane="386687232#0_1" departPos="5.10" departSpeed="0.00" departDelay="0.30" arrival="57814.00" arrivalLane="-315358244_2" arrivalPos="33.95" arrivalSpeed="11.63" duration="167.00" routeLength="1157.39" waitingTime="46.00" waitingCount="3" stopTime="0.00" timeLoss="70.23" rerouteNo="1" devices="tripinfo_carIn121703:1 routing_carIn121703:1 emissions_carIn121703:1" vType="default_016" speedFactor="0.87" vaporized="">
        <emissions CO_abs="9769.356556" CO2_abs="366248.882504" HC_abs="53.016508" PMx_abs="6.732958" NOx_abs="151.778840" fuel_abs="157.437832" electricity_abs="0"/>
    </tripinfo>
    <tripinfo id="carIn129809:1" depart="57729.00" departLane="-447569998#1_1" departPos="5.10" departSpeed="0.00" departDelay="1.00" arrival="57815.00" arrivalLane="-315358244_1" arrivalPos="33.95" arrivalSpeed="14.62" duration="86.00" routeLength="706.49" waitingTime="14.00" waitingCount="2" stopTime="0.00" timeLoss="30.08" rerouteNo="1" devices="tripinfo_carIn129809:1 routing_carIn129809:1 emissions_carIn129809:1" vType="default_015" speedFactor="1.09" vaporized="">
        <emissions CO_abs="4141.098668" CO2_abs="209456.290653" HC_abs="23.747020" PMx_abs="3.848818" NOx_abs="86.524095" fuel_abs="90.036861" electricity_abs="0"/>
    </tripinfo>
    <tripinfo id="carIn81860:1" depart="57712.00" departLane="128361102#0_1" departPos="5.10" departSpeed="0.00" departDelay="0.60" arrival="57816.00" arrivalLane="-24634517#17_1" arrivalPos="6.43" arrivalSpeed="8.72" duration="104.00" routeLength="1229.64" waitingTime="0.00" waitingCount="0" stopTime="0.00" timeLoss="19.04" rerouteNo="1" devices="tripinfo_carIn81860:1 routing_carIn81860:1 emissions_carIn81860:1" vType="default_016" speedFactor="1.08" vaporized="">
        <emissions CO_abs="4006.832282" CO2_abs="284369.769622" HC_abs="24.835385" PMx_abs="4.888062" NOx_abs="114.360959" fuel_abs="122.238383" electricity_abs="0"/>
    </tripinfo>
    <tripinfo id="h9563c2:5" depart="57631.00" departLane="315358244_1" departPos="5.10" departSpeed="0.00" departDelay="0.70" arrival="57818.00" arrivalLane="386687235_1" arrivalPos="80.84" arrivalSpeed="12.22" duration="187.00" routeLength="1186.14" waitingTime="70.00" waitingCount="3" stopTime="0.00" timeLoss="92.64" rerouteNo="1" devices="tripinfo_h9563c2:5 routing_h9563c2:5 emissions_h9563c2:5" vType="default_016" speedFactor="0.92" vaporized="">
        <emissions CO_abs="14013.840983" CO2_abs="446776.579760" HC_abs="74.256940" PMx_abs="8.728891" NOx_abs="188.352398" fuel_abs="192.054946" electricity_abs="0"/>
    </tripinfo>
    <tripinfo id="carIn102915:1" depart="57643.00" departLane="128361102#0_1" departPos="5.10" departSpeed="0.00" departDelay="0.40" arrival="57820.00" arrivalLane="201956811#0_1" arrivalPos="40.40" arrivalSpeed="13.43" duration="177.00" routeLength="2067.33" waitingTime="7.00" waitingCount="2" stopTime="0.00" timeLoss="33.31" rerouteNo="1" devices="tripinfo_carIn102915:1 routing_carIn102915:1 emissions_carIn102915:1" vType="default_016" speedFactor="1.05" vaporized="">
        <emissions CO_abs="5987.495353" CO2_abs="463797.860455" HC_abs="38.144398" PMx_abs="7.885382" NOx_abs="185.693585" fuel_abs="199.366549" electricity_abs="0"/>
    </tripinfo>
    <tripinfo id="carIn118591:1" depart="57689.00" departLane="315358244_1" departPos="5.10" departSpeed="0.00" departDelay="0.20" arrival="57821.00" arrivalLane="386687235_1" arrivalPos="80.84" arrivalSpeed="13.82" duration="132.00" routeLength="1186.14" waitingTime="19.00" waitingCount="2" stopTime="0.00" timeLoss="44.89" rerouteNo="1" devices="tripinfo_carIn118591:1 routing_carIn118591:1 emissions_carIn118591:1" vType="default_016" speedFactor="1.00" vaporized="">
        <emissions CO_abs="5816.043575" CO2_abs="326116.553624" HC_abs="34.097086" PMx_abs="5.604601" NOx_abs="131.848879" fuel_abs="140.184530" electricity_abs="0"/>
    </tripinfo>
    <tripinfo id="randUni33724:1" depart="57646.00" departLane="128361102#0_1" departPos="5.10" departSpeed="0.00" departDelay="1.20" arrival="57823.00" arrivalLane="201956811#0_1" arrivalPos="40.40" arrivalSpeed="10.56" duration="177.00" routeLength="2067.33" waitingTime="4.00" waitingCount="1" stopTime="0.00" timeLoss="38.79" rerouteNo="1" devices="tripinfo_randUni33724:1 routing_randUni33724:1 emissions_randUni33724:1" vType="random_016" speedFactor="1.10" vaporized="">
        <emissions CO_abs="7656.047198" CO2_abs="535283.307945" HC_abs="47.429861" PMx_abs="9.600175" NOx_abs="218.146146" fuel_abs="230.094839" electricity_abs="0"/>
    </tripinfo>
    <tripinfo id="h3154c1:1" depart="57658.00" departLane="24634507_1" departPos="5.10" departSpeed="0.00" departDelay="0.00" arrival="57824.00" arrivalLane="-266565295#5_1" arrivalPos="172.76" arrivalSpeed="16.35" duration="166.00" routeLength="1206.22" waitingTime="67.00" waitingCount="2" stopTime="0.00" timeLoss="90.60" rerouteNo="1" devices="tripinfo_h3154c1:1 routing_h3154c1:1 emissions_h3154c1:1" vType="default_016" speedFactor="1.19" vaporized="">
        <emissions CO_abs="14403.526205" CO2_abs="497252.757659" HC_abs="77.149131" PMx_abs="10.175491" NOx_abs="210.937798" fuel_abs="213.751448" electricity_abs="0"/>
    </tripinfo>
    <tripinfo id="carIn28951:1" depart="57606.00" departLane="10425609#0_1" departPos="5.10" departSpeed="0.00" departDelay="0.20" arrival="57826.00" arrivalLane="-128361102#1_1" arrivalPos="274.68" arrivalSpeed="13.22" duration="220.00" routeLength="2113.04" waitingTime="37.00" waitingCount="2" stopTime="0.00" timeLoss="67.70" rerouteNo="1" devices="tripinfo_carIn28951:1 routing_carIn28951:1 emissions_carIn28951:1" vType="default_016" speedFactor="1.02" vaporized="">
        <emissions CO_abs="10667.627964" CO2_abs="554895.795798" HC_abs="61.474162" PMx_abs="9.763401" NOx_abs="225.147551" fuel_abs="238.527988" electricity_abs="0"/>
    </tripinfo>
    <tripinfo id="h17600c1:1" depart="57662.00" departLane="272042143_1" departPos="5.10" departSpeed="0.00" departDelay="0.30" arrival="57828.00" arrivalLane="201238729#3_1" arrivalPos="431.02" arrivalSpeed="13.59" duration="166.00" routeLength="2100.26" waitingTime="0.00" waitingCount="0" stopTime="0.00" timeLoss="12.01" rerouteNo="1" devices="tripinfo_h17600c1:1 routing_h17600c1:1 emissions_h17600c1:1" vType="default_016" speedFactor="0.99" vaporized="">
        <emissions CO_abs="3369.256153" CO2_abs="347300.873024" HC_abs="23.395579" PMx_abs="5.052777" NOx_abs="132.539672" fuel_abs="149.290013" electricity_abs="0"/>
    </tripinfo>
    <tripinfo id="carIn73855:1" depart="57743.00" departLane="386687232#0_1" departPos="5.10" departSpeed="0.00" departDelay="0.50" arrival="57832.00" arrivalLane="-315358244_1" arrivalPos="33.95" arrivalSpeed="13.44" duration="89.00" routeLength="1157.39" waitingTime="0.00" waitingCount="0" stopTime="0.00" timeLoss="8.28" rerouteNo="1" devices="tripinfo_carIn73855:1 routing_carIn73855:1 emissions_carIn73855:1" vType="default_016" speedFactor="1.04" vaporized="">
        <emissions CO_abs="2682.984425" CO2_abs="230942.096555" HC_abs="17.610694" PMx_abs="3.791675" NOx_abs="91.161774" fuel_abs="99.271966" electricity_abs="0"/>
    </tripinfo>
    <tripinfo id="randUni15030:1" depart="57735.00" departLane="386687232#0_1" departPos="5.10" departSpeed="0.00" departDelay="0.10" arrival="57835.00" arrivalLane="26677539_1" arrivalPos="151.98" arrivalSpeed="8.15" duration="100.00" routeLength="919.89" waitingTime="0.00" waitingCount="0" stopTime="0.00" timeLoss="15.81" rerouteNo="1" devices="tripinfo_randUni15030:1 routing_randUni15030:1 emissions_randUni15030:1" vType="random_016" speedFactor="1.00" vaporized="">
        <emissions CO_abs="3605.022210" CO2_abs="220283.025082" HC_abs="21.485596" PMx_abs="3.539595" NOx_abs="87.813633" fuel_abs="94.690965" electricity_abs="0"/>
    </tripinfo>
    <tripinfo id="randUni31145:1" depart="57814.00" departLane="10425609#0_1" departPos="5.10" departSpeed="0.00" departDelay="0.30" arrival="57843.00" arrivalLane="201956810_1" arrivalPos="71.65" arrivalSpeed="14.34" duration="29.00" routeLength="255.78" waitingTime="0.00" waitingCount="0" stopTime="0.00" timeLoss="10.90" rerouteNo="1" devices="tripinfo_randUni31145:1 routing_randUni31145:1 emissions_randUni31145:1" vType="random_016" speedFactor="1.10" vaporized="">
        <emissions CO_abs="2207.222232" CO2_abs="113230.686037" HC_abs="12.742890" PMx_abs="2.252363" NOx_abs="48.241310" fuel_abs="48.673009" electricity_abs="0"/>
    </tripinfo>
    <tripinfo id="randUni2407:1" depart="57820.00" departLane="10425609#0_1" departPos="5.10" departSpeed="0.00" departDelay="0.80" arrival="57845.00" arrivalLane="201956810_1" arrivalPos="71.65" arrivalSpeed="14.72" duration="25.00" routeLength="255.78" waitingTime="0.00" waitingCount="0" stopTime="0.00" timeLoss="6.72" rerouteNo="1" devices="tripinfo_randUni2407:1 routing_randUni2407:1 emissions_randUni2407:1" vType="random_016" speedFactor="1.09" vaporized="">
        <emissions CO_abs="1678.150658" CO2_abs="99755.372333" HC_abs="10.001229" PMx_abs="1.865521" NOx_abs="41.557840" fuel_abs="42.880522" electricity_abs="0"/>
    </tripinfo>
    <tripinfo id="carIn12858:1" depart="57661.00" departLane="128361109#1_1" departPos="5.10" departSpeed="0.00" departDelay="0.90" arrival="57857.00" arrivalLane="399835085#1_1" arrivalPos="212.23" arrivalSpeed="5.37" duration="196.00" routeLength="1738.12" waitingTime="15.00" waitingCount="2" stopTime="0.00" timeLoss="44.44" rerouteNo="1" devices="tripinfo_carIn12858:1 routing_carIn12858:1 emissions_carIn12858:1" vType="default_016" speedFactor="0.76" vaporized="">
        <emissions CO_abs="8019.436030" CO2_abs="449193.989592" HC_abs="46.866517" PMx_abs="7.706600" NOx_abs="181.401704" fuel_abs="193.090636" electricity_abs="0"/>
    </tripinfo>
    <tripinfo id="50R_frequency3.17" depart="57674.00" departLane="-18809673#6_1" departPos="12.10" departSpeed="0.00" departDelay="0.70" arrival="57857.00" arrivalLane="201956811#0_1" arrivalPos="40.40" arrivalSpeed="13.57" duration="183.00" routeLength="1954.47" waitingTime="17.00" waitingCount="1" stopTime="0.00" timeLoss="37.55" rerouteNo="1" devices="tripinfo_50R_frequency3.17 routing_50R_frequency3.17 emissions_50R_frequency3.17" vType="bus" speedFactor="1.00" vaporized="">
        <emissions CO_abs="3422.673140" CO2_abs="2062179.526385" HC_abs="738.370706" PMx_abs="365.811191" NOx_abs="16209.607301" fuel_abs="879.481544" electricity_abs="0"/>
    </tripinfo>
    <tripinfo id="h11737c1:1" depart="57665.00" departLane="272042143_1" departPos="5.10" departSpeed="0.00" departDelay="1.50" arrival="57858.00" arrivalLane="-315358254#1_1" arrivalPos="137.16" arrivalSpeed="12.35" duration="193.00" routeLength="1596.88" waitingTime="46.00" waitingCount="1" stopTime="0.00" timeLoss="63.79" rerouteNo="1" devices="tripinfo_h11737c1:1 routing_h11737c1:1 emissions_h11737c1:1" vType="default_016" speedFactor="0.90" vaporized="">
        <emissions CO_abs="11097.421495" CO2_abs="443117.714370" HC_abs="60.824835" PMx_abs="7.810237" NOx_abs="180.602129" fuel_abs="190.481091" electricity_abs="0"/>
    </tripinfo>
    <tripinfo id="carIn82278:1" depart="57702.00" departLane="-306240162#1_0" departPos="5.10" departSpeed="0.00" departDelay="0.70" arrival="57859.00" arrivalLane="399835085#1_1" arrivalPos="212.23" arrivalSpeed="9.01" duration="157.00" routeLength="1093.26" waitingTime="25.00" waitingCount="3" stopTime="0.00" timeLoss="90.47" rerouteNo="1" devices="tripinfo_carIn82278:1 routing_carIn82278:1 emissions_carIn82278:1" vType="default_016" speedFactor="1.17" vaporized="">
        <emissions CO_abs="9777.681703" CO2_abs="438920.844471" HC_abs="54.962549" PMx_abs="8.843578" NOx_abs="186.454871" fuel_abs="188.674227" electricity_abs="0"/>
    </tripinfo>
    <tripinfo id="carIn126288:1" depart="57674.00" departLane="272042143_1" departPos="5.10" departSpeed="0.00" departDelay="0.00" arrival="57860.00" arrivalLane="-315358254#1_1" arrivalPos="137.16" arrivalSpeed="13.52" duration="186.00" routeLength="1596.88" waitingTime="45.00" waitingCount="1" stopTime="0.00" timeLoss="67.92" rerouteNo="1" devices="tripinfo_carIn126288:1 routing_carIn126288:1 emissions_carIn126288:1" vType="default_016" speedFactor="0.99" vaporized="">
        <emissions CO_abs="11378.048910" CO2_abs="478789.194742" HC_abs="63.009962" PMx_abs="8.777341" NOx_abs="196.997011" fuel_abs="205.814027" electricity_abs="0"/>
    </tripinfo>
    <tripinfo id="carIn8642:1" depart="57774.00" departLane="-447569998#1_1" departPos="5.10" departSpeed="0.00" departDelay="0.90" arrival="57873.00" arrivalLane="-315358244_1" arrivalPos="33.95" arrivalSpeed="13.38" duration="99.00" routeLength="706.49" waitingTime="23.00" waitingCount="2" stopTime="0.00" timeLoss="37.74" rerouteNo="1" devices="tripinfo_carIn8642:1 routing_carIn8642:1 emissions_carIn8642:1" vType="default_016" speedFactor="0.99" vaporized="">
        <emissions CO_abs="5738.852153" CO2_abs="211784.016225" HC_abs="31.073951" PMx_abs="4.001290" NOx_abs="88.468323" fuel_abs="91.038594" electricity_abs="0"/>
    </tripinfo>
    <tripinfo id="h13377c2:3" depart="57808.00" departLane="315358244_1" departPos="5.10" departSpeed="0.00" departDelay="4.60" arrival="57874.00" arrivalLane="447569997#1_1" arrivalPos="180.93" arrivalSpeed="8.20" duration="66.00" routeLength="718.04" waitingTime="0.00" waitingCount="0" stopTime="0.00" timeLoss="10.32" rerouteNo="1" devices="tripinfo_h13377c2:3 routing_h13377c2:3 emissions_h13377c2:3" vType="default_016" speedFactor="1.10" vaporized="">