<?xml version="1.0" encoding="UTF-8"?>

<!-- generated on Thu Nov  4 13:49:00 2021 by Eclipse SUMO sumo Version 1.9.0
<configuration xmlns:xsi="http://www.w3.org/2001/XMLSchema-instance" xsi:noNamespaceSchemaLocation="http://sumo.dlr.de/xsd/sumoConfiguration.xsd">

    <input>
        <net-file value="/mainfs/home/bk2g18/RESCO/environments/ingolstadt21/ingolstadt21.net.xml"/>
        <route-files value="/mainfs/home/bk2g18/RESCO/environments/ingolstadt21/ingolstadt21.rou.xml"/>
    </input>

    <output>
        <tripinfo-output value="/mainfs/home/bk2g18/RESCO/logs/MPLight-tr0-ingolstadt21-21-mplight_full-pressure/tripinfo_51.xml"/>
        <tripinfo-output.write-unfinished value="true"/>
    </output>

    <time>
        <begin value="57600"/>
        <end value="61200"/>
    </time>

    <processing>
        <time-to-teleport value="-1"/>
    </processing>

    <report>
        <xml-validation value="never"/>
        <xml-validation.routes value="never"/>
        <no-warnings value="true"/>
        <no-step-log value="true"/>
    </report>

    <emissions>
        <device.emissions.probability value="1"/>
    </emissions>

    <traci_server>
        <remote-port value="51772"/>
    </traci_server>

    <random_number>
        <random value="true"/>
    </random_number>

</configuration>
-->

<tripinfos xmlns:xsi="http://www.w3.org/2001/XMLSchema-instance" xsi:noNamespaceSchemaLocation="http://sumo.dlr.de/xsd/tripinfo_file.xsd">
    <tripinfo id="h15454c2:3" depart="57612.00" departLane="24608844_1" departPos="5.10" departSpeed="0.00" departDelay="0.50" arrival="57654.00" arrivalLane="32978638#0_1" arrivalPos="49.29" arrivalSpeed="12.95" duration="42.00" routeLength="354.79" waitingTime="0.00" waitingCount="0" stopTime="0.00" timeLoss="6.19" rerouteNo="1" devices="tripinfo_h15454c2:3 routing_h15454c2:3 emissions_h15454c2:3" vType="default_016" speedFactor="0.97" vaporized="">
        <emissions CO_abs="2043.899067" CO2_abs="114589.680651" HC_abs="11.985400" PMx_abs="2.011565" NOx_abs="47.105870" fuel_abs="49.257428" electricity_abs="0"/>
    </tripinfo>
    <tripinfo id="carIn60260:1" depart="57606.00" departLane="315358254#0_1" departPos="5.10" departSpeed="0.00" departDelay="0.90" arrival="57668.00" arrivalLane="399835085#1_1" arrivalPos="212.23" arrivalSpeed="6.36" duration="62.00" routeLength="430.98" waitingTime="1.00" waitingCount="1" stopTime="0.00" timeLoss="11.43" rerouteNo="1" devices="tripinfo_carIn60260:1 routing_carIn60260:1 emissions_carIn60260:1" vType="default_016" speedFactor="0.91" vaporized="">
        <emissions CO_abs="2991.048448" CO2_abs="134232.878865" HC_abs="16.710848" PMx_abs="2.239133" NOx_abs="54.798482" fuel_abs="57.701888" electricity_abs="0"/>
    </tripinfo>
    <tripinfo id="carIn53971:1" depart="57640.00" departLane="272042143_1" departPos="5.10" departSpeed="0.00" departDelay="0.80" arrival="57693.00" arrivalLane="24634414#1_1" arrivalPos="162.19" arrivalSpeed="8.66" duration="53.00" routeLength="493.04" waitingTime="0.00" waitingCount="0" stopTime="0.00" timeLoss="9.64" rerouteNo="1" devices="tripinfo_carIn53971:1 routing_carIn53971:1 emissions_carIn53971:1" vType="default_016" speedFactor="1.06" vaporized="">
        <emissions CO_abs="2364.092842" CO2_abs="142503.344289" HC_abs="14.087411" PMx_abs="2.460484" NOx_abs="58.076983" fuel_abs="61.256306" electricity_abs="0"/>
    </tripinfo>
    <tripinfo id="carIn80064:1" depart="57603.00" departLane="128361109#1_1" departPos="5.10" departSpeed="0.00" departDelay="0.40" arrival="57719.00" arrivalLane="-315358254#1_1" arrivalPos="137.16" arrivalSpeed="14.88" duration="116.00" routeLength="1587.97" waitingTime="3.00" waitingCount="1" stopTime="0.00" timeLoss="34.11" rerouteNo="1" devices="tripinfo_carIn80064:1 routing_carIn80064:1 emissions_carIn80064:1" vType="default_016" speedFactor="1.10" vaporized="">
        <emissions CO_abs="7456.225381" CO2_abs="494601.907312" HC_abs="45.766394" PMx_abs="9.896390" NOx_abs="205.847384" fuel_abs="212.606688" electricity_abs="0"/>
    </tripinfo>
    <tripinfo id="h7800c1:5" depart="57696.00" departLane="-447569998#1_1" departPos="5.10" departSpeed="0.00" departDelay="0.00" arrival="57723.00" arrivalLane="-447569998#1_1" arrivalPos="180.76" arrivalSpeed="6.99" duration="27.00" routeLength="175.66" waitingTime="0.00" waitingCount="0" stopTime="0.00" timeLoss="3.78" rerouteNo="1" devices="tripinfo_h7800c1:5 routing_h7800c1:5 emissions_h7800c1:5" vType="default_016" speedFactor="0.92" vaporized="">
        <emissions CO_abs="1309.668903" CO2_abs="51158.026700" HC_abs="7.124116" PMx_abs="0.795508" NOx_abs="20.588108" fuel_abs="21.991222" electricity_abs="0"/>
    </tripinfo>
    <tripinfo id="h3568c1:3" depart="57656.00" departLane="266565295#5_1" departPos="5.10" departSpeed="0.00" departDelay="0.80" arrival="57732.00" arrivalLane="-24634415_1" arrivalPos="62.03" arrivalSpeed="13.70" duration="76.00" routeLength="807.40" waitingTime="0.00" waitingCount="0" stopTime="0.00" timeLoss="11.41" rerouteNo="1" devices="tripinfo_h3568c1:3 routing_h3568c1:3 emissions_h3568c1:3" vType="default_016" speedFactor="1.00" vaporized="">
        <emissions CO_abs="3188.292755" CO2_abs="213295.139932" HC_abs="19.530741" PMx_abs="3.721792" NOx_abs="86.701412" fuel_abs="91.686471" electricity_abs="0"/>
    </tripinfo>
    <tripinfo id="carIn121703:1" depart="57647.00" departLane="386687232#0_1" departPos="5.10" departSpeed="0.00" departDelay="0.30" arrival="57744.00" arrivalLane="-315358244_1" arrivalPos="33.95" arrivalSpeed="14.02" duration="97.00" routeLength="1157.39" waitingTime="3.00" waitingCount="1" stopTime="0.00" timeLoss="15.77" rerouteNo="1" devices="tripinfo_carIn121703:1 routing_carIn121703:1 emissions_carIn121703:1" vType="default_016" speedFactor="1.03" vaporized="">
        <emissions CO_abs="3332.488802" CO2_abs="256508.932214" HC_abs="21.180359" PMx_abs="4.346334" NOx_abs="102.603013" fuel_abs="110.262084" electricity_abs="0"/>
    </tripinfo>
    <tripinfo id="h4538c1:1" depart="57701.00" departLane="-10427692#1_1" departPos="5.10" departSpeed="0.00" departDelay="0.00" arrival="57754.00" arrivalLane="-128361102#1_1" arrivalPos="274.68" arrivalSpeed="13.75" duration="53.00" routeLength="440.74" waitingTime="11.00" waitingCount="1" stopTime="0.00" timeLoss="23.46" rerouteNo="1" devices="tripinfo_h4538c1:1 routing_h4538c1:1 emissions_h4538c1:1" vType="default_016" speedFactor="1.07" vaporized="">
        <emissions CO_abs="2784.801624" CO2_abs="132390.057792" HC_abs="15.800045" PMx_abs="2.471445" NOx_abs="54.754894" fuel_abs="56.909285" electricity_abs="0"/>
    </tripinfo>
    <tripinfo id="h5979c1:5" depart="57669.00" departLane="399835085#1_1" departPos="5.10" departSpeed="0.00" departDelay="0.00" arrival="57760.00" arrivalLane="-315358254#1_1" arrivalPos="137.16" arrivalSpeed="11.82" duration="91.00" routeLength="659.33" waitingTime="0.00" waitingCount="0" stopTime="0.00" timeLoss="11.93" rerouteNo="1" devices="tripinfo_h5979c1:5 routing_h5979c1:5 emissions_h5979c1:5" vType="default_016" speedFactor="0.93" vaporized="">
        <emissions CO_abs="3821.817090" CO2_abs="176999.105287" HC_abs="21.467678" PMx_abs="2.873415" NOx_abs="71.704342" fuel_abs="76.085571" electricity_abs="0"/>
    </tripinfo>
    <tripinfo id="h3154c1:1" depart="57658.00" departLane="24634507_1" departPos="5.10" departSpeed="0.00" departDelay="0.00" arrival="57762.00" arrivalLane="-266565295#5_1" arrivalPos="172.76" arrivalSpeed="12.71" duration="104.00" routeLength="1206.22" waitingTime="0.00" waitingCount="0" stopTime="0.00" timeLoss="12.66" rerouteNo="1" devices="tripinfo_h3154c1:1 routing_h3154c1:1 emissions_h3154c1:1" vType="default_016" speedFactor="0.98" vaporized="">
        <emissions CO_abs="3556.274044" CO2_abs="273863.413918" HC_abs="22.594502" PMx_abs="4.497472" NOx_abs="109.048604" fuel_abs="117.722201" electricity_abs="0"/>
    </tripinfo>
    <tripinfo id="carIn27009:1" depart="57673.00" departLane="-447569998#1_1" departPos="5.10" departSpeed="0.00" departDelay="0.50" arrival="57762.00" arrivalLane="-26677539_1" arrivalPos="152.75" arrivalSpeed="8.38" duration="89.00" routeLength="699.63" waitingTime="0.00" waitingCount="0" stopTime="0.00" timeLoss="11.11" rerouteNo="1" devices="tripinfo_carIn27009:1 routing_carIn27009:1 emissions_carIn27009:1" vType="default_015" speedFactor="1.08" vaporized="">
        <emissions CO_abs="3372.600668" CO2_abs="173077.052241" HC_abs="19.335499" PMx_abs="2.769501" NOx_abs="69.854438" fuel_abs="74.399371" electricity_abs="0"/>
    </tripinfo>
    <tripinfo id="h3326c1:2" depart="57656.00" departLane="22716069#0_1" departPos="5.10" departSpeed="0.00" departDelay="0.00" arrival="57764.00" arrivalLane="24634517#13_1" arrivalPos="111.62" arrivalSpeed="13.28" duration="108.00" routeLength="1312.81" waitingTime="0.00" waitingCount="0" stopTime="0.00" timeLoss="14.80" rerouteNo="1" devices="tripinfo_h3326c1:2 routing_h3326c1:2 emissions_h3326c1:2" vType="default_016" speedFactor="1.04" vaporized="">
        <emissions CO_abs="4081.450385" CO2_abs="304063.267434" HC_abs="25.749652" PMx_abs="5.381851" NOx_abs="123.504997" fuel_abs="130.703356" electricity_abs="0"/>
    </tripinfo>
    <tripinfo id="carIn30817:1" depart="57681.00" departLane="315358244_1" departPos="5.10" departSpeed="0.00" departDelay="0.20" arrival="57767.00" arrivalLane="447569997#1_1" arrivalPos="180.93" arrivalSpeed="6.41" duration="86.00" routeLength="718.04" waitingTime="0.00" waitingCount="0" stopTime="0.00" timeLoss="14.90" rerouteNo="1" devices="tripinfo_carIn30817:1 routing_carIn30817:1 emissions_carIn30817:1" vType="default_016" speedFactor="0.87" vaporized="">
        <emissions CO_abs="3097.928572" CO2_abs="160643.765129" HC_abs="17.798103" PMx_abs="2.527622" NOx_abs="64.134879" fuel_abs="69.054846" electricity_abs="0"/>
    </tripinfo>
    <tripinfo id="carIn107282:1" depart="57749.00" departLane="-447569998#1_1" departPos="5.10" departSpeed="0.00" departDelay="0.00" arrival="57789.00" arrivalLane="315358242#0_1" arrivalPos="165.37" arrivalSpeed="15.58" duration="40.00" routeLength="448.50" waitingTime="0.00" waitingCount="0" stopTime="0.00" timeLoss="5.01" rerouteNo="1" devices="tripinfo_carIn107282:1 routing_carIn107282:1 emissions_carIn107282:1" vType="default_016" speedFactor="1.19" vaporized="">
        <emissions CO_abs="1749.595402" CO2_abs="109860.573832" HC_abs="10.503756" PMx_abs="1.918637" NOx_abs="44.582096" fuel_abs="47.224459" electricity_abs="0"/>
    </tripinfo>
    <tripinfo id="carIn126288:1" depart="57674.00" departLane="272042143_1" departPos="5.10" departSpeed="0.00" departDelay="0.00" arrival="57792.00" arrivalLane="-315358254#1_1" arrivalPos="137.16" arrivalSpeed="14.50" duration="118.00" routeLength="1596.88" waitingTime="0.00" waitingCount="0" stopTime="0.00" timeLoss="12.46" rerouteNo="1" devices="tripinfo_carIn126288:1 routing_carIn126288:1 emissions_carIn126288:1" vType="default_016" speedFactor="1.11" vaporized="">
        <emissions CO_abs="4070.210412" CO2_abs="351912.223164" HC_abs="26.694596" PMx_abs="6.037647" NOx_abs="140.278134" fuel_abs="151.271363" electricity_abs="0"/>
    </tripinfo>
    <tripinfo id="h7181c1:1" depart="57660.00" departLane="315358254#0_1" departPos="5.10" departSpeed="0.00" departDelay="0.10" arrival="57801.00" arrivalLane="306240162#0_0" arrivalPos="220.43" arrivalSpeed="15.11" duration="141.00" routeLength="932.35" waitingTime="59.00" waitingCount="3" stopTime="0.00" timeLoss="85.13" rerouteNo="1" devices="tripinfo_h7181c1:1 routing_h7181c1:1 emissions_h7181c1:1" vType="default_016" speedFactor="0.91" vaporized="">
        <emissions CO_abs="12552.427941" CO2_abs="414104.398449" HC_abs="66.932101" PMx_abs="8.748950" NOx_abs="178.071661" fuel_abs="178.008911" electricity_abs="0"/>
    </tripinfo>
    <tripinfo id="h3688c1:1" depart="57625.00" departLane="201201950#1_1" departPos="5.10" departSpeed="0.00" departDelay="0.00" arrival="57815.00" arrivalLane="32978638#0_1" arrivalPos="49.29" arrivalSpeed="13.70" duration="190.00" routeLength="1089.75" waitingTime="90.00" waitingCount="1" stopTime="0.00" timeLoss="108.74" rerouteNo="1" devices="tripinfo_h3688c1:1 routing_h3688c1:1 emissions_h3688c1:1" vType="default_016" speedFactor="0.99" vaporized="">
        <emissions CO_abs="18053.391857" CO2_abs="501016.200909" HC_abs="93.901279" PMx_abs="10.220543" NOx_abs="213.423145" fuel_abs="215.372218" electricity_abs="0"/>
    </tripinfo>
    <tripinfo id="S5R_frequency1.2" depart="57615.00" departLane="315358250#0_1" departPos="12.10" departSpeed="0.00" departDelay="3.40" arrival="57821.00" arrivalLane="386687235_1" arrivalPos="80.84" arrivalSpeed="13.70" duration="206.00" routeLength="1115.62" waitingTime="93.00" waitingCount="2" stopTime="0.00" timeLoss="124.25" rerouteNo="1" devices="tripinfo_S5R_frequency1.2 routing_S5R_frequency1.2 emissions_S5R_frequency1.2" vType="bus" speedFactor="1.00" vaporized="">
        <emissions CO_abs="4227.866063" CO2_abs="2000075.782076" HC_abs="927.802049" PMx_abs="438.402499" NOx_abs="17281.441943" fuel_abs="852.790108" electricity_abs="0"/>
    </tripinfo>
    <tripinfo id="h317c2:1" depart="57707.00" departLane="-32978638#0_1" departPos="5.10" departSpeed="0.00" departDelay="0.10" arrival="57825.00" arrivalLane="-266565295#5_1" arrivalPos="172.76" arrivalSpeed="13.51" duration="118.00" routeLength="370.53" waitingTime="80.00" waitingCount="1" stopTime="0.00" timeLoss="90.16" rerouteNo="1" devices="tripinfo_h317c2:1 routing_h317c2:1 emissions_h317c2:1" vType="default_016" speedFactor="0.98" vaporized="">
        <emissions CO_abs="14282.741804" CO2_abs="310592.278504" HC_abs="72.333141" PMx_abs="7.024303" NOx_abs="137.382112" fuel_abs="133.516072" electricity_abs="0"/>
    </tripinfo>
    <tripinfo id="h330c1:1" depart="57736.00" departLane="-32978638#0_1" departPos="5.10" departSpeed="0.00" departDelay="0.20" arrival="57827.00" arrivalLane="-266565295#5_1" arrivalPos="172.76" arrivalSpeed="14.25" duration="91.00" routeLength="370.53" waitingTime="54.00" waitingCount="1" stopTime="0.00" timeLoss="65.48" rerouteNo="1" devices="tripinfo_h330c1:1 routing_h330c1:1 emissions_h330c1:1" vType="default_016" speedFactor="1.09" vaporized="">
        <emissions CO_abs="10264.497864" CO2_abs="260974.236047" HC_abs="52.871105" PMx_abs="5.624656" NOx_abs="113.493729" fuel_abs="112.185434" electricity_abs="0"/>
    </tripinfo>
    <tripinfo id="carIn22761:1" depart="57616.00" departLane="-306240162#1_0" departPos="5.10" departSpeed="0.00" departDelay="2.10" arrival="57830.00" arrivalLane="399835085#1_1" arrivalPos="212.23" arrivalSpeed="6.07" duration="214.00" routeLength="1093.26" waitingTime="101.00" waitingCount="2" stopTime="0.00" timeLoss="125.42" rerouteNo="1" devices="tripinfo_carIn22761:1 routing_carIn22761:1 emissions_carIn22761:1" vType="default_016" speedFactor="0.87" vaporized="">
        <emissions CO_abs="20175.763610" CO2_abs="538100.955939" HC_abs="104.431293" PMx_abs="11.372035" NOx_abs="232.156797" fuel_abs="231.313890" electricity_abs="0"/>
    </tripinfo>
    <tripinfo id="h11737c1:1" depart="57665.00" departLane="272042143_1" departPos="5.10" departSpeed="0.00" departDelay="1.50" arrival="57830.00" arrivalLane="-315358254#1_1" arrivalPos="137.16" arrivalSpeed="10.01" duration="165.00" routeLength="1596.88" waitingTime="0.00" waitingCount="0" stopTime="0.00" timeLoss="15.29" rerouteNo="1" devices="tripinfo_h11737c1:1 routing_h11737c1:1 emissions_h11737c1:1" vType="default_016" speedFactor="0.78" vaporized="">
        <emissions CO_abs="4774.353435" CO2_abs="323780.770548" HC_abs="29.171130" PMx_abs="4.772539" NOx_abs="126.682054" fuel_abs="139.180732" electricity_abs="0"/>
    </tripinfo>
    <tripinfo id="randUni15030:1" depart="57735.00" departLane="386687232#0_1" departPos="5.10" departSpeed="0.00" departDelay="0.10" arrival="57831.00" arrivalLane="26677539_1" arrivalPos="151.98" arrivalSpeed="8.05" duration="96.00" routeLength="919.89" waitingTime="0.00" waitingCount="0" stopTime="0.00" timeLoss="12.35" rerouteNo="1" devices="tripinfo_randUni15030:1 routing_randUni15030:1 emissions_randUni15030:1" vType="random_016" speedFactor="0.99" vaporized="">
        <emissions CO_abs="3723.193055" CO2_abs="227813.762925" HC_abs="22.229522" PMx_abs="3.651310" NOx_abs="90.901367" fuel_abs="97.928133" electricity_abs="0"/>
    </tripinfo>
    <tripinfo id="carIn12858:1" depart="57661.00" departLane="128361109#1_1" departPos="5.10" departSpeed="0.00" departDelay="0.90" arrival="57832.00" arrivalLane="399835085#1_1" arrivalPos="212.23" arrivalSpeed="7.63" duration="171.00" routeLength="1738.12" waitingTime="19.00" waitingCount="2" stopTime="0.00" timeLoss="51.82" rerouteNo="1" devices="tripinfo_carIn12858:1 routing_carIn12858:1 emissions_carIn12858:1" vType="default_016" speedFactor="0.96" vaporized="">
        <emissions CO_abs="9295.556363" CO2_abs="507811.975837" HC_abs="54.410814" PMx_abs="9.858255" NOx_abs="211.023830" fuel_abs="218.286803" electricity_abs="0"/>
    </tripinfo>
    <tripinfo id="carIn129809:1" depart="57729.00" departLane="-447569998#1_1" departPos="5.10" departSpeed="0.00" departDelay="1.00" arrival="57833.00" arrivalLane="-315358244_1" arrivalPos="33.95" arrivalSpeed="12.52" duration="104.00" routeLength="706.49" waitingTime="28.00" waitingCount="2" stopTime="0.00" timeLoss="42.94" rerouteNo="1" devices="tripinfo_carIn129809:1 routing_carIn129809:1 emissions_carIn129809:1" vType="default_015" speedFactor="0.98" vaporized="">
        <emissions CO_abs="6375.276697" CO2_abs="242977.023085" HC_abs="34.685817" PMx_abs="4.460919" NOx_abs="100.615248" fuel_abs="104.447409" electricity_abs="0"/>
    </tripinfo>
    <tripinfo id="50R_frequency3.17" depart="57674.00" departLane="-18809673#6_1" departPos="12.10" departSpeed="0.00" departDelay="0.70" arrival="57836.00" arrivalLane="201956811#0_1" arrivalPos="40.40" arrivalSpeed="11.44" duration="162.00" routeLength="1954.47" waitingTime="0.00" waitingCount="0" stopTime="0.00" timeLoss="17.51" rerouteNo="1" devices="tripinfo_50R_frequency3.17 routing_50R_frequency3.17 emissions_50R_frequency3.17" vType="bus" speedFactor="1.00" vaporized="">
        <emissions CO_abs="3096.599909" CO2_abs="1985486.759975" HC_abs="653.639443" PMx_abs="333.204337" NOx_abs="15278.928860" fuel_abs="846.806864" electricity_abs="0"/>
    </tripinfo>
    <tripinfo id="carIn8642:1" depart="57774.00" departLane="-447569998#1_1" departPos="5.10" departSpeed="0.00" departDelay="0.90" arrival="57846.00" arrivalLane="-315358244_1" arrivalPos="33.95" arrivalSpeed="11.85" duration="72.00" routeLength="706.49" waitingTime="0.00" waitingCount="0" stopTime="0.00" timeLoss="6.43" rerouteNo="1" devices="tripinfo_carIn8642:1 routing_carIn8642:1 emissions_carIn8642:1" vType="default_016" speedFactor="0.91" vaporized="">
        <emissions CO_abs="2368.274437" CO2_abs="141034.381930" HC_abs="14.038670" PMx_abs="2.214951" NOx_abs="56.032828" fuel_abs="60.625225" electricity_abs="0"/>
    </tripinfo>
    <tripinfo id="carIn12365:1" depart="57713.00" departLane="315358244_1" departPos="5.10" departSpeed="0.00" departDelay="0.50" arrival="57850.00" arrivalLane="447569997#1_1" arrivalPos="180.93" arrivalSpeed="7.54" duration="137.00" routeLength="718.04" waitingTime="61.00" waitingCount="2" stopTime="0.00" timeLoss="77.94" rerouteNo="1" devices="tripinfo_carIn12365:1 routing_carIn12365:1 emissions_carIn12365:1" vType="default_016" speedFactor="1.04" vaporized="">
        <emissions CO_abs="11168.206688" CO2_abs="316573.503419" HC_abs="58.252523" PMx_abs="6.435006" NOx_abs="135.228558" fuel_abs="136.085473" electricity_abs="0"/>
    </tripinfo>
    <tripinfo id="carIn12152:1" depart="57647.00" departLane="24599188#0.94_1" departPos="5.10" departSpeed="0.00" departDelay="0.50" arrival="57851.00" arrivalLane="-315358254#1_1" arrivalPos="137.16" arrivalSpeed="11.78" duration="204.00" routeLength="2034.31" waitingTime="7.00" waitingCount="1" stopTime="0.00" timeLoss="28.76" rerouteNo="1" devices="tripinfo_carIn12152:1 routing_carIn12152:1 emissions_carIn12152:1" vType="default_016" speedFactor="0.90" vaporized="">
        <emissions CO_abs="6752.563819" CO2_abs="427656.475635" HC_abs="40.656892" PMx_abs="6.803370" NOx_abs="169.813598" fuel_abs="183.832544" electricity_abs="0"/>
    </tripinfo>
    <tripinfo id="h12244c1:3" depart="57612.00" departLane="315358244_1" departPos="5.10" departSpeed="0.00" departDelay="0.40" arrival="57856.00" arrivalLane="386687235_1" arrivalPos="80.84" arrivalSpeed="14.64" duration="244.00" routeLength="1186.14" waitingTime="141.00" waitingCount="3" stopTime="0.00" timeLoss="164.49" rerouteNo="1" devices="tripinfo_h12244c1:3 routing_h12244c1:3 emissions_h12244c1:3" vType="default_016" speedFactor="1.09" vaporized="">
        <emissions CO_abs="25638.850928" CO2_abs="626061.551901" HC_abs="131.430256" PMx_abs="13.577565" NOx_abs="271.809214" fuel_abs="269.126972" electricity_abs="0"/>
    </tripinfo>
    <tripinfo id="h9563c2:5" depart="57631.00" departLane="315358244_1" departPos="5.10" departSpeed="0.00" departDelay="0.70" arrival="57858.00" arrivalLane="386687235_1" arrivalPos="80.84" arrivalSpeed="13.51" duration="227.00" routeLength="1186.14" waitingTime="118.00" waitingCount="3" stopTime="0.00" timeLoss="143.87" rerouteNo="1" devices="tripinfo_h9563c2:5 routing_h9563c2:5 emissions_h9563c2:5" vType="default_016" speedFactor="1.04" vaporized="">
        <emissions CO_abs="21575.270838" CO2_abs="551515.334533" HC_abs="111.190234" PMx_abs="11.683001" NOx_abs="237.752856" fuel_abs="237.081120" electricity_abs="0"/>
    </tripinfo>
    <tripinfo id="h17600c1:1" depart="57662.00" departLane="272042143_1" departPos="5.10" departSpeed="0.00" departDelay="0.30" arrival="57860.00" arrivalLane="201238729#3_1" arrivalPos="431.02" arrivalSpeed="14.14" duration="198.00" routeLength="2100.26" waitingTime="36.00" waitingCount="1" stopTime="0.00" timeLoss="54.45" rerouteNo="1" devices="tripinfo_h17600c1:1 routing_h17600c1:1 emissions_h17600c1:1" vType="default_016" speedFactor="1.05" vaporized="">
        <emissions CO_abs="9152.323652" CO2_abs="475515.296690" HC_abs="52.693839" PMx_abs="8.262854" NOx_abs="190.690069" fuel_abs="204.405743" electricity_abs="0"/>
    </tripinfo>
    <tripinfo id="carIn118591:1" depart="57689.00" departLane="315358244_1" departPos="5.10" departSpeed="0.00" departDelay="0.20" arrival="57860.00" arrivalLane="386687235_1" arrivalPos="80.84" arrivalSpeed="15.18" duration="171.00" routeLength="1186.14" waitingTime="68.00" waitingCount="2" stopTime="0.00" timeLoss="95.25" rerouteNo="1" devices="tripinfo_carIn118591:1 routing_carIn118591:1 emissions_carIn118591:1" vType="default_016" speedFactor="1.15" vaporized="">
        <emissions CO_abs="13284.492972" CO2_abs="429943.519185" HC_abs="70.562487" PMx_abs="8.684163" NOx_abs="181.968195" fuel_abs="184.818452" electricity_abs="0"/>
    </tripinfo>
    <tripinfo id="h16072c2:3" depart="57663.00" departLane="315358254#0_1" departPos="5.10" departSpeed="0.00" departDelay="2.50" arrival="57875.00" arrivalLane="386687235_1" arrivalPos="80.84" arrivalSpeed="9.75" duration="212.00" routeLength="1611.92" waitingTime="40.00" waitingCount="2" stopTime="0.00" timeLoss="62.25" rerouteNo="1" devices="tripinfo_h16072c2:3 routing_h16072c2:3 emissions_h16072c2:3" vType="default_016" speedFactor="0.78" vaporized="">
        <emissions CO_abs="11261.193101" CO2_abs="437579.423824" HC_abs="61.424079" PMx_abs="7.768474" NOx_abs="179.987875" fuel_abs="188.100410" electricity_abs="0"/>
    </tripinfo>
    <tripinfo id="carIn28951:1" depart="57606.00" departLane="10425609#0_1" departPos="5.10" departSpeed="0.00" departDelay="0.20" arrival="57877.00" arrivalLane="-128361102#1_1" arrivalPos="274.68" arrivalSpeed="12.80" duration="271.00" routeLength="2113.04" waitingTime="83.00" waitingCount="3" stopTime="0.00" timeLoss="114.96" rerouteNo="1" devices="tripinfo_carIn28951:1 routing_carIn28951:1 emissions_carIn28951:1" vType="default_016" speedFactor="0.99" vaporized="">
        <emissions CO_abs="18135.873406" CO2_abs="681237.899671" HC_abs="98.551472" PMx_abs="12.939018" NOx_abs="283.580815" fuel_abs="292.840288" electricity_abs="0"/>
    </tripinfo>
    <tripinfo id="h5216c1:1" depart="57664.00" departLane="224892339#0_1" departPos="5.10" departSpeed="0.00" departDelay="0.00" arrival="57877.00" arrivalLane="386687235_1" arrivalPos="80.84" arrivalSpeed="11.89" duration="213.00" routeLength="1823.78" waitingTime="45.00" waitingCount="2" stopTime="0.00" timeLoss="76.11" rerouteNo="1" devices="tripinfo_h5216c1:1 routing_h5216c1:1 emissions_h5216c1:1" vType="default_016" speedFactor="0.94" vaporized="">
        <emissions CO_abs="12490.882073" CO2_abs="541618.882326" HC_abs="69.574483" PMx_abs="10.021121" NOx_abs="223.529309" fuel_abs="232.821745" electricity_abs="0"/>
    </tripinfo>
    <tripinfo id="carIn107084:1" depart="57601.00" departLane="124812856#0_1" departPos="5.10" departSpeed="0.00" departDelay="0.70" arrival="57878.00" arrivalLane="-128361102#1_1" arrivalPos="274.68" arrivalSpeed="13.68" duration="277.00" routeLength="2250.49" waitingTime="78.00" waitingCount="4" stopTime="0.00" timeLoss="131.96" rerouteNo="1" devices="tripinfo_carIn107084:1 routing_carIn107084:1 emissions_carIn107084:1" vType="default_016" speedFactor="1.13" vaporized="">
        <emissions CO_abs="18773.631981" CO2_abs="774333.266144" HC_abs="103.714065" PMx_abs="15.017893" NOx_abs="324.381538" fuel_abs="332.856661" electricity_abs="0"/>
    </tripinfo>
    <tripinfo id="h9953c2:3" depart="57682.00" departLane="-54169231#2_1" departPos="5.10" departSpeed="0.00" departDelay="0.00" arrival="57879.00" arrivalLane="386687235_1" arrivalPos="80.84" arrivalSpeed="13.83" duration="197.00" routeLength="1535.60" waitingTime="43.00" waitingCount="2" stopTime="0.00" timeLoss="72.04" rerouteNo="1" devices="tripinfo_h9953c2:3 routing_h9953c2:3 emissions_h9953c2:3" vType="default_016" speedFactor="1.01" vaporized="">
        <emissions CO_abs="11446.773840" CO2_abs="471163.609695" HC_abs="63.143792" PMx_abs="8.783606" NOx_abs="195.830198" fuel_abs="202.535948" electricity_abs="0"/>
    </tripinfo>
    <tripinfo id="carIn126378:1" depart="57746.00" departLane="386687232#0_1" departPos="5.10" departSpeed="0.00" departDelay="1.80" arrival="57882.00" arrivalLane="-315358244_2" arrivalPos="33.95" arrivalSpeed="11.50" duration="136.00" routeLength="1157.39" waitingTime="24.00" waitingCount="1" stopTime="0.00" timeLoss="39.43" rerouteNo="1" devices="tripinfo_carIn126378:1 routing_carIn126378:1 emissions_carIn126378:1" vType="default_016" speedFactor="0.87" vaporized="">
        <emissions CO_abs="6701.486423" CO2_abs="283530.963093" HC_abs="37.106179" PMx_abs="4.986404" NOx_abs="115.817546" fuel_abs="121.879867" electricity_abs="0"/>
    </tripinfo>
    <tripinfo id="carIn73855:1" depart="57743.00" departLane="386687232#0_1" departPos="5.10" departSpeed="0.00" departDelay="0.50" arrival="57883.00" arrivalLane="-315358244_1" arrivalPos="33.95" arrivalSpeed="12.27" duration="140.00" routeLength="1157.39" waitingTime="29.00" waitingCount="1" stopTime="0.00" timeLoss="48.06" rerouteNo="1" devices="tripinfo_carIn73855:1 routing_carIn73855:1 emissions_carIn73855:1" vType="default_016" speedFactor="0.92" vaporized="">
        <emissions CO_abs="8049.835259" CO2_abs="343471.876601" HC_abs="44.664335" PMx_abs="6.141219" NOx_abs="140.717554" fuel_abs="147.646144" electricity_abs="0"/>
    </tripinfo>
    <tripinfo id="carIn50326:1" depart="57651.00" departLane="128361102#0_1" departPos="5.10" departSpeed="0.00" departDelay="0.30" arrival="57891.00" arrivalLane="18809673#0_1" arrivalPos="473.56" arrivalSpeed="13.38" duration="240.00" routeLength="1591.07" waitingTime="85.00" waitingCount="3" stopTime="0.00" timeLoss="113.33" rerouteNo="1" devices="tripinfo_carIn50326:1 routing_carIn50326:1 emissions_carIn50326:1" vType="default_016" speedFactor="1.02" vaporized="">
        <emissions CO_abs="18101.675376" CO2_abs="566122.233200" HC_abs="95.656860" PMx_abs="11.142051" NOx_abs="238.914686" fuel_abs="243.358018" electricity_abs="0"/>
    </tripinfo>
    <tripinfo id="randUni31145:1" depart="57862.00" departLane="10425609#0_1" departPos="5.10" departSpeed="0.00" departDelay="48.30" arrival="57892.00" arrivalLane="201956810_1" arrivalPos="71.65" arrivalSpeed="12.31" duration="30.00" routeLength="255.78" waitingTime="1.00" waitingCount="1" stopTime="0.00" timeLoss="8.50" rerouteNo="1" devices="tripinfo_randUni31145:1 routing_randUni31145:1 emissions_randUni31145:1" vType="random_016" speedFactor="0.95" vaporized="">
        <emissions CO_abs="1883.499771" CO2_abs="101741.414853" HC_abs="10.972703" PMx_abs="1.887883" NOx_abs="42.452074" fuel_abs="43.734389" electricity_abs="0"/>
    </tripinfo>
    <tripinfo id="h8343c1:5" depart="57679.00" departLane="315358254#0_1" departPos="5.10" departSpeed="0.00" departDelay="0.60" arrival="57904.00" arrivalLane="-24634510#5_1" arrivalPos="236.88" arrivalSpeed="14.72" duration="225.00" routeLength="2056.84" waitingTime="73.00" waitingCount="4" stopTime="0.00" timeLoss="115.66" rerouteNo="1" devices="tripinfo_h8343c1:5 routing_h8343c1:5 emissions_h8343c1:5" vType="default_016" speedFactor="1.14" vaporized="">
        <emissions CO_abs="18676.361479" CO2_abs="788105.340848" HC_abs="103.890245" PMx_abs="16.573455" NOx_abs="334.963383" fuel_abs="338.774781" electricity_abs="0"/>
    </tripinfo>
    <tripinfo id="carIn24709:1" depart="57753.00" departLane="266565295#5_1" departPos="5.10" departSpeed="0.00" departDelay="2.50" arrival="57904.00" arrivalLane="-24634506#2_1" arrivalPos="71.32" arrivalSpeed="11.81" duration="151.00" routeLength="1534.27" waitingTime="0.00" waitingCount="0" stopTime="0.00" timeLoss="21.76" rerouteNo="1" devices="tripinfo_carIn24709:1 routing_carIn24709:1 emissions_carIn24709:1" vType="default_016" speedFactor="0.88" vaporized="">