<?xml version="1.0" encoding="UTF-8"?>

<!-- generated on Thu Nov  4 13:29:27 2021 by Eclipse SUMO sumo Version 1.9.0
<configuration xmlns:xsi="http://www.w3.org/2001/XMLSchema-instance" xsi:noNamespaceSchemaLocation="http://sumo.dlr.de/xsd/sumoConfiguration.xsd">

    <input>
        <net-file value="/mainfs/home/bk2g18/RESCO/environments/ingolstadt21/ingolstadt21.net.xml"/>
        <route-files value="/mainfs/home/bk2g18/RESCO/environments/ingolstadt21/ingolstadt21.rou.xml"/>
    </input>

    <output>
        <tripinfo-output value="/mainfs/home/bk2g18/RESCO/logs/MPLight-tr0-ingolstadt21-21-mplight_full-pressure/tripinfo_23.xml"/>
        <tripinfo-output.write-unfinished value="true"/>
    </output>

    <time>
        <begin value="57600"/>
        <end value="61200"/>
    </time>

    <processing>
        <time-to-teleport value="-1"/>
    </processing>

    <report>
        <xml-validation value="never"/>
        <xml-validation.routes value="never"/>
        <no-warnings value="true"/>
        <no-step-log value="true"/>
    </report>

    <emissions>
        <device.emissions.probability value="1"/>
    </emissions>

    <traci_server>
        <remote-port value="53688"/>
    </traci_server>

    <random_number>
        <random value="true"/>
    </random_number>

</configuration>
-->

<tripinfos xmlns:xsi="http://www.w3.org/2001/XMLSchema-instance" xsi:noNamespaceSchemaLocation="http://sumo.dlr.de/xsd/tripinfo_file.xsd">
    <tripinfo id="h15454c2:3" depart="57612.00" departLane="24608844_1" departPos="5.10" departSpeed="0.00" departDelay="0.50" arrival="57653.00" arrivalLane="32978638#0_1" arrivalPos="49.29" arrivalSpeed="12.59" duration="41.00" routeLength="354.79" waitingTime="0.00" waitingCount="0" stopTime="0.00" timeLoss="5.74" rerouteNo="1" devices="tripinfo_h15454c2:3 routing_h15454c2:3 emissions_h15454c2:3" vType="default_016" speedFactor="0.99" vaporized="">
        <emissions CO_abs="2106.546470" CO2_abs="122238.747263" HC_abs="12.422906" PMx_abs="2.041569" NOx_abs="49.490324" fuel_abs="52.545552" electricity_abs="0"/>
    </tripinfo>
    <tripinfo id="carIn60260:1" depart="57606.00" departLane="315358254#0_1" departPos="5.10" departSpeed="0.00" departDelay="0.90" arrival="57664.00" arrivalLane="399835085#1_1" arrivalPos="212.23" arrivalSpeed="6.97" duration="58.00" routeLength="430.98" waitingTime="1.00" waitingCount="1" stopTime="0.00" timeLoss="10.48" rerouteNo="1" devices="tripinfo_carIn60260:1 routing_carIn60260:1 emissions_carIn60260:1" vType="default_016" speedFactor="0.96" vaporized="">
        <emissions CO_abs="2518.085404" CO2_abs="122429.632812" HC_abs="14.295206" PMx_abs="2.048636" NOx_abs="49.879431" fuel_abs="52.627922" electricity_abs="0"/>
    </tripinfo>
    <tripinfo id="carIn53971:1" depart="57640.00" departLane="272042143_1" departPos="5.10" departSpeed="0.00" departDelay="0.80" arrival="57692.00" arrivalLane="24634414#1_1" arrivalPos="162.19" arrivalSpeed="8.26" duration="52.00" routeLength="493.04" waitingTime="0.00" waitingCount="0" stopTime="0.00" timeLoss="7.13" rerouteNo="1" devices="tripinfo_carIn53971:1 routing_carIn53971:1 emissions_carIn53971:1" vType="default_016" speedFactor="1.01" vaporized="">
        <emissions CO_abs="2206.496174" CO2_abs="133838.648775" HC_abs="13.184349" PMx_abs="2.347966" NOx_abs="54.785044" fuel_abs="57.531644" electricity_abs="0"/>
    </tripinfo>
    <tripinfo id="h3688c1:1" depart="57625.00" departLane="201201950#1_1" departPos="5.10" departSpeed="0.00" departDelay="0.00" arrival="57725.00" arrivalLane="32978638#0_1" arrivalPos="49.29" arrivalSpeed="12.35" duration="100.00" routeLength="1089.75" waitingTime="1.00" waitingCount="1" stopTime="0.00" timeLoss="17.41" rerouteNo="1" devices="tripinfo_h3688c1:1 routing_h3688c1:1 emissions_h3688c1:1" vType="default_016" speedFactor="0.97" vaporized="">
        <emissions CO_abs="3935.276362" CO2_abs="285513.082214" HC_abs="24.576851" PMx_abs="4.664208" NOx_abs="113.575007" fuel_abs="122.730124" electricity_abs="0"/>
    </tripinfo>
    <tripinfo id="h7800c1:5" depart="57696.00" departLane="-447569998#1_1" departPos="5.10" departSpeed="0.00" departDelay="0.00" arrival="57735.00" arrivalLane="-447569998#1_2" arrivalPos="180.76" arrivalSpeed="4.96" duration="39.00" routeLength="175.66" waitingTime="11.00" waitingCount="1" stopTime="0.00" timeLoss="18.30" rerouteNo="1" devices="tripinfo_h7800c1:5 routing_h7800c1:5 emissions_h7800c1:5" vType="default_016" speedFactor="1.04" vaporized="">
        <emissions CO_abs="2865.288002" CO2_abs="81515.040099" HC_abs="14.935802" PMx_abs="1.583273" NOx_abs="34.684935" fuel_abs="35.040944" electricity_abs="0"/>
    </tripinfo>
    <tripinfo id="h4538c1:1" depart="57701.00" departLane="-10427692#1_1" departPos="5.10" departSpeed="0.00" departDelay="0.00" arrival="57737.00" arrivalLane="-128361102#1_1" arrivalPos="274.68" arrivalSpeed="14.36" duration="36.00" routeLength="440.74" waitingTime="0.00" waitingCount="0" stopTime="0.00" timeLoss="6.14" rerouteNo="1" devices="tripinfo_h4538c1:1 routing_h4538c1:1 emissions_h4538c1:1" vType="default_016" speedFactor="1.10" vaporized="">
        <emissions CO_abs="1437.236104" CO2_abs="107322.126365" HC_abs="9.005341" PMx_abs="1.822576" NOx_abs="42.865074" fuel_abs="46.133165" electricity_abs="0"/>
    </tripinfo>
    <tripinfo id="S5R_frequency1.2" depart="57624.00" departLane="315358250#0_1" departPos="12.10" departSpeed="0.00" departDelay="12.40" arrival="57739.00" arrivalLane="386687235_1" arrivalPos="80.84" arrivalSpeed="13.50" duration="115.00" routeLength="1115.62" waitingTime="7.00" waitingCount="2" stopTime="0.00" timeLoss="33.79" rerouteNo="1" devices="tripinfo_S5R_frequency1.2 routing_S5R_frequency1.2 emissions_S5R_frequency1.2" vType="bus" speedFactor="1.00" vaporized="">
        <emissions CO_abs="2492.124445" CO2_abs="1525019.677980" HC_abs="520.307351" PMx_abs="265.863447" NOx_abs="11940.955516" fuel_abs="650.384003" electricity_abs="0"/>
    </tripinfo>
    <tripinfo id="carIn30817:1" depart="57681.00" departLane="315358244_1" departPos="5.10" departSpeed="0.00" departDelay="0.20" arrival="57754.00" arrivalLane="447569997#1_1" arrivalPos="180.93" arrivalSpeed="8.10" duration="73.00" routeLength="718.04" waitingTime="0.00" waitingCount="0" stopTime="0.00" timeLoss="12.05" rerouteNo="1" devices="tripinfo_carIn30817:1 routing_carIn30817:1 emissions_carIn30817:1" vType="default_016" speedFactor="1.02" vaporized="">
        <emissions CO_abs="2982.731103" CO2_abs="179325.028902" HC_abs="17.743849" PMx_abs="3.068795" NOx_abs="72.721844" fuel_abs="77.084494" electricity_abs="0"/>
    </tripinfo>
    <tripinfo id="carIn121703:1" depart="57647.00" departLane="386687232#0_1" departPos="5.10" departSpeed="0.00" departDelay="0.30" arrival="57757.00" arrivalLane="-315358244_1" arrivalPos="33.95" arrivalSpeed="12.57" duration="110.00" routeLength="1157.39" waitingTime="9.00" waitingCount="1" stopTime="0.00" timeLoss="23.73" rerouteNo="1" devices="tripinfo_carIn121703:1 routing_carIn121703:1 emissions_carIn121703:1" vType="default_016" speedFactor="0.98" vaporized="">
        <emissions CO_abs="3941.076523" CO2_abs="273654.413926" HC_abs="24.333695" PMx_abs="4.472366" NOx_abs="108.592075" fuel_abs="117.632751" electricity_abs="0"/>
    </tripinfo>
    <tripinfo id="carIn80064:1" depart="57603.00" departLane="128361109#1_1" departPos="5.10" departSpeed="0.00" departDelay="0.40" arrival="57758.00" arrivalLane="-315358254#1_1" arrivalPos="137.16" arrivalSpeed="11.56" duration="155.00" routeLength="1587.97" waitingTime="31.00" waitingCount="2" stopTime="0.00" timeLoss="57.05" rerouteNo="1" devices="tripinfo_carIn80064:1 routing_carIn80064:1 emissions_carIn80064:1" vType="default_016" speedFactor="0.92" vaporized="">
        <emissions CO_abs="10227.089744" CO2_abs="518302.220563" HC_abs="58.935852" PMx_abs="10.222710" NOx_abs="216.041760" fuel_abs="222.796544" electricity_abs="0"/>
    </tripinfo>
    <tripinfo id="h3326c1:2" depart="57656.00" departLane="22716069#0_1" departPos="5.10" departSpeed="0.00" departDelay="0.00" arrival="57759.00" arrivalLane="24634517#13_1" arrivalPos="111.62" arrivalSpeed="14.26" duration="103.00" routeLength="1312.81" waitingTime="0.00" waitingCount="0" stopTime="0.00" timeLoss="15.70" rerouteNo="1" devices="tripinfo_h3326c1:2 routing_h3326c1:2 emissions_h3326c1:2" vType="default_016" speedFactor="1.12" vaporized="">
        <emissions CO_abs="4238.759400" CO2_abs="322361.098659" HC_abs="26.850734" PMx_abs="5.781122" NOx_abs="130.917669" fuel_abs="138.568633" electricity_abs="0"/>
    </tripinfo>
    <tripinfo id="h3568c1:3" depart="57656.00" departLane="266565295#5_1" departPos="5.10" departSpeed="0.00" departDelay="0.80" arrival="57771.00" arrivalLane="-24634415_1" arrivalPos="62.03" arrivalSpeed="10.77" duration="115.00" routeLength="807.40" waitingTime="18.00" waitingCount="2" stopTime="0.00" timeLoss="39.19" rerouteNo="1" devices="tripinfo_h3568c1:3 routing_h3568c1:3 emissions_h3568c1:3" vType="default_016" speedFactor="0.86" vaporized="">
        <emissions CO_abs="5924.029162" CO2_abs="260675.073592" HC_abs="33.077189" PMx_abs="4.837268" NOx_abs="109.013013" fuel_abs="112.054251" electricity_abs="0"/>
    </tripinfo>
    <tripinfo id="h7181c1:1" depart="57660.00" departLane="315358254#0_1" departPos="5.10" departSpeed="0.00" departDelay="0.10" arrival="57772.00" arrivalLane="306240162#0_0" arrivalPos="220.43" arrivalSpeed="14.41" duration="112.00" routeLength="932.35" waitingTime="39.00" waitingCount="2" stopTime="0.00" timeLoss="56.45" rerouteNo="1" devices="tripinfo_h7181c1:1 routing_h7181c1:1 emissions_h7181c1:1" vType="default_016" speedFactor="0.93" vaporized="">
        <emissions CO_abs="9417.624954" CO2_abs="376535.042008" HC_abs="51.829251" PMx_abs="7.815652" NOx_abs="160.014830" fuel_abs="161.857777" electricity_abs="0"/>
    </tripinfo>
    <tripinfo id="carIn22761:1" depart="57615.00" departLane="-306240162#1_0" departPos="5.10" departSpeed="0.00" departDelay="1.10" arrival="57777.00" arrivalLane="399835085#1_1" arrivalPos="212.23" arrivalSpeed="7.66" duration="162.00" routeLength="1093.26" waitingTime="48.00" waitingCount="3" stopTime="0.00" timeLoss="78.62" rerouteNo="1" devices="tripinfo_carIn22761:1 routing_carIn22761:1 emissions_carIn22761:1" vType="default_016" speedFactor="0.93" vaporized="">
        <emissions CO_abs="11522.184822" CO2_abs="419432.311134" HC_abs="62.341329" PMx_abs="8.500200" NOx_abs="178.346430" fuel_abs="180.298694" electricity_abs="0"/>
    </tripinfo>
    <tripinfo id="h330c1:1" depart="57736.00" departLane="-32978638#0_1" departPos="5.10" departSpeed="0.00" departDelay="0.20" arrival="57786.00" arrivalLane="-266565295#5_2" arrivalPos="172.76" arrivalSpeed="14.63" duration="50.00" routeLength="370.53" waitingTime="14.00" waitingCount="1" stopTime="0.00" timeLoss="24.68" rerouteNo="1" devices="tripinfo_h330c1:1 routing_h330c1:1 emissions_h330c1:1" vType="default_016" speedFactor="1.10" vaporized="">
        <emissions CO_abs="3846.727407" CO2_abs="156193.346198" HC_abs="21.160279" PMx_abs="3.078408" NOx_abs="65.907870" fuel_abs="67.141580" electricity_abs="0"/>
    </tripinfo>
    <tripinfo id="h317c2:1" depart="57707.00" departLane="-32978638#0_1" departPos="5.10" departSpeed="0.00" departDelay="0.10" arrival="57788.00" arrivalLane="-266565295#5_1" arrivalPos="172.76" arrivalSpeed="11.36" duration="81.00" routeLength="370.53" waitingTime="41.00" waitingCount="1" stopTime="0.00" timeLoss="48.58" rerouteNo="1" devices="tripinfo_h317c2:1 routing_h317c2:1 emissions_h317c2:1" vType="default_016" speedFactor="0.85" vaporized="">
        <emissions CO_abs="7453.653995" CO2_abs="196833.251530" HC_abs="38.540602" PMx_abs="4.060439" NOx_abs="84.604107" fuel_abs="84.613055" electricity_abs="0"/>
    </tripinfo>
    <tripinfo id="h5979c1:5" depart="57669.00" departLane="399835085#1_1" departPos="5.10" departSpeed="0.00" departDelay="0.00" arrival="57789.00" arrivalLane="-315358254#1_1" arrivalPos="137.16" arrivalSpeed="11.63" duration="120.00" routeLength="659.33" waitingTime="22.00" waitingCount="1" stopTime="0.00" timeLoss="37.09" rerouteNo="1" devices="tripinfo_h5979c1:5 routing_h5979c1:5 emissions_h5979c1:5" vType="default_016" speedFactor="0.88" vaporized="">
        <emissions CO_abs="6981.509316" CO2_abs="226949.101809" HC_abs="37.018402" PMx_abs="4.094432" NOx_abs="94.560791" fuel_abs="97.558442" electricity_abs="0"/>
    </tripinfo>
    <tripinfo id="carIn107282:1" depart="57749.00" departLane="-447569998#1_1" departPos="5.10" departSpeed="0.00" departDelay="0.00" arrival="57794.00" arrivalLane="315358242#0_1" arrivalPos="165.37" arrivalSpeed="13.75" duration="45.00" routeLength="448.50" waitingTime="0.00" waitingCount="0" stopTime="0.00" timeLoss="4.64" rerouteNo="1" devices="tripinfo_carIn107282:1 routing_carIn107282:1 emissions_carIn107282:1" vType="default_016" speedFactor="1.04" vaporized="">
        <emissions CO_abs="1660.479421" CO2_abs="103928.760829" HC_abs="9.969076" PMx_abs="1.658302" NOx_abs="41.324904" fuel_abs="44.674856" electricity_abs="0"/>
    </tripinfo>
    <tripinfo id="carIn12858:1" depart="57661.00" departLane="128361109#1_1" departPos="5.10" departSpeed="0.00" departDelay="0.90" arrival="57801.00" arrivalLane="399835085#1_1" arrivalPos="212.23" arrivalSpeed="7.88" duration="140.00" routeLength="1738.12" waitingTime="4.00" waitingCount="1" stopTime="0.00" timeLoss="30.13" rerouteNo="1" devices="tripinfo_carIn12858:1 routing_carIn12858:1 emissions_carIn12858:1" vType="default_016" speedFactor="1.04" vaporized="">
        <emissions CO_abs="7296.360746" CO2_abs="483371.041249" HC_abs="44.734220" PMx_abs="9.306526" NOx_abs="199.371351" fuel_abs="207.779569" electricity_abs="0"/>
    </tripinfo>
    <tripinfo id="h11737c1:1" depart="57665.00" departLane="272042143_1" departPos="5.10" departSpeed="0.00" departDelay="1.50" arrival="57807.00" arrivalLane="-315358254#1_1" arrivalPos="137.16" arrivalSpeed="13.26" duration="142.00" routeLength="1596.88" waitingTime="9.00" waitingCount="1" stopTime="0.00" timeLoss="25.09" rerouteNo="1" devices="tripinfo_h11737c1:1 routing_h11737c1:1 emissions_h11737c1:1" vType="default_016" speedFactor="1.00" vaporized="">
        <emissions CO_abs="4276.741670" CO2_abs="322528.110488" HC_abs="27.005516" PMx_abs="5.352124" NOx_abs="128.468600" fuel_abs="138.641099" electricity_abs="0"/>
    </tripinfo>
    <tripinfo id="carIn50326:1" depart="57651.00" departLane="128361102#0_1" departPos="5.10" departSpeed="0.00" departDelay="0.30" arrival="57808.00" arrivalLane="18809673#0_1" arrivalPos="473.56" arrivalSpeed="13.39" duration="157.00" routeLength="1591.07" waitingTime="9.00" waitingCount="1" stopTime="0.00" timeLoss="31.01" rerouteNo="1" devices="tripinfo_carIn50326:1 routing_carIn50326:1 emissions_carIn50326:1" vType="default_016" speedFactor="1.03" vaporized="">
        <emissions CO_abs="5296.424429" CO2_abs="343358.656491" HC_abs="32.117247" PMx_abs="5.800359" NOx_abs="138.110277" fuel_abs="147.595671" electricity_abs="0"/>
    </tripinfo>
    <tripinfo id="h12244c1:3" depart="57612.00" departLane="315358244_1" departPos="5.10" departSpeed="0.00" departDelay="0.40" arrival="57809.00" arrivalLane="386687235_1" arrivalPos="80.84" arrivalSpeed="10.20" duration="197.00" routeLength="1186.14" waitingTime="58.00" waitingCount="4" stopTime="0.00" timeLoss="82.48" rerouteNo="1" devices="tripinfo_h12244c1:3 routing_h12244c1:3 emissions_h12244c1:3" vType="default_016" speedFactor="0.76" vaporized="">
        <emissions CO_abs="13179.762457" CO2_abs="420880.717423" HC_abs="69.776498" PMx_abs="7.885000" NOx_abs="176.080656" fuel_abs="180.923556" electricity_abs="0"/>
    </tripinfo>
    <tripinfo id="carIn86816:1" depart="57617.00" departLane="128361102#0_1" departPos="5.10" departSpeed="0.00" departDelay="0.80" arrival="57811.00" arrivalLane="201956811#0_1" arrivalPos="40.40" arrivalSpeed="13.56" duration="194.00" routeLength="2067.33" waitingTime="14.00" waitingCount="1" stopTime="0.00" timeLoss="43.88" rerouteNo="1" devices="tripinfo_carIn86816:1 routing_carIn86816:1 emissions_carIn86816:1" vType="default_016" speedFactor="1.01" vaporized="">
        <emissions CO_abs="8550.155592" CO2_abs="520059.875436" HC_abs="51.119098" PMx_abs="9.117160" NOx_abs="210.754873" fuel_abs="223.552217" electricity_abs="0"/>
    </tripinfo>
    <tripinfo id="h9563c2:5" depart="57631.00" departLane="315358244_1" departPos="5.10" departSpeed="0.00" departDelay="0.70" arrival="57811.00" arrivalLane="386687235_1" arrivalPos="80.84" arrivalSpeed="11.61" duration="180.00" routeLength="1186.14" waitingTime="48.00" waitingCount="3" stopTime="0.00" timeLoss="77.47" rerouteNo="1" devices="tripinfo_h9563c2:5 routing_h9563c2:5 emissions_h9563c2:5" vType="default_016" speedFactor="0.85" vaporized="">
        <emissions CO_abs="11393.601661" CO2_abs="381888.308997" HC_abs="60.784010" PMx_abs="7.270307" NOx_abs="160.145269" fuel_abs="164.161308" electricity_abs="0"/>
    </tripinfo>
    <tripinfo id="carIn27009:1" depart="57673.00" departLane="-447569998#1_1" departPos="5.10" departSpeed="0.00" departDelay="0.50" arrival="57811.00" arrivalLane="-26677539_1" arrivalPos="152.75" arrivalSpeed="7.04" duration="138.00" routeLength="699.63" waitingTime="30.00" waitingCount="1" stopTime="0.00" timeLoss="46.31" rerouteNo="1" devices="tripinfo_carIn27009:1 routing_carIn27009:1 emissions_carIn27009:1" vType="default_015" speedFactor="0.92" vaporized="">
        <emissions CO_abs="9087.764462" CO2_abs="264766.933858" HC_abs="47.486785" PMx_abs="4.969087" NOx_abs="111.687353" fuel_abs="113.815665" electricity_abs="0"/>
    </tripinfo>
    <tripinfo id="carIn118591:1" depart="57689.00" departLane="315358244_1" departPos="5.10" departSpeed="0.00" departDelay="0.20" arrival="57812.00" arrivalLane="386687235_1" arrivalPos="80.84" arrivalSpeed="12.14" duration="123.00" routeLength="1186.14" waitingTime="7.00" waitingCount="1" stopTime="0.00" timeLoss="28.72" rerouteNo="1" devices="tripinfo_carIn118591:1 routing_carIn118591:1 emissions_carIn118591:1" vType="default_016" speedFactor="0.92" vaporized="">
        <emissions CO_abs="4943.820718" CO2_abs="290069.292553" HC_abs="29.280886" PMx_abs="4.924951" NOx_abs="117.229978" fuel_abs="124.689108" electricity_abs="0"/>
    </tripinfo>
    <tripinfo id="carIn12365:1" depart="57713.00" departLane="315358244_1" departPos="5.10" departSpeed="0.00" departDelay="0.50" arrival="57817.00" arrivalLane="447569997#1_1" arrivalPos="180.93" arrivalSpeed="6.36" duration="104.00" routeLength="718.04" waitingTime="18.00" waitingCount="1" stopTime="0.00" timeLoss="29.56" rerouteNo="1" devices="tripinfo_carIn12365:1 routing_carIn12365:1 emissions_carIn12365:1" vType="default_016" speedFactor="0.83" vaporized="">
        <emissions CO_abs="5057.456046" CO2_abs="192971.591874" HC_abs="27.485796" PMx_abs="3.364686" NOx_abs="79.190573" fuel_abs="82.952029" electricity_abs="0"/>
    </tripinfo>
    <tripinfo id="carIn48184:1" depart="57613.00" departLane="-306240162#1_0" departPos="5.10" departSpeed="0.00" departDelay="0.70" arrival="57823.00" arrivalLane="386687235_1" arrivalPos="80.84" arrivalSpeed="14.11" duration="210.00" routeLength="2257.41" waitingTime="33.00" waitingCount="4" stopTime="0.00" timeLoss="64.76" rerouteNo="1" devices="tripinfo_carIn48184:1 routing_carIn48184:1 emissions_carIn48184:1" vType="default_016" speedFactor="1.02" vaporized="">
        <emissions CO_abs="9588.232591" CO2_abs="579511.527499" HC_abs="57.305903" PMx_abs="10.613549" NOx_abs="235.619162" fuel_abs="249.107595" electricity_abs="0"/>
    </tripinfo>
    <tripinfo id="h5216c1:1" depart="57664.00" departLane="224892339#0_1" departPos="5.10" departSpeed="0.00" departDelay="0.00" arrival="57824.00" arrivalLane="386687235_1" arrivalPos="80.84" arrivalSpeed="14.71" duration="160.00" routeLength="1823.78" waitingTime="10.00" waitingCount="2" stopTime="0.00" timeLoss="40.68" rerouteNo="1" devices="tripinfo_h5216c1:1 routing_h5216c1:1 emissions_h5216c1:1" vType="default_016" speedFactor="1.08" vaporized="">
        <emissions CO_abs="6997.582776" CO2_abs="471059.394373" HC_abs="42.933957" PMx_abs="8.484139" NOx_abs="191.547716" fuel_abs="202.488029" electricity_abs="0"/>
    </tripinfo>
    <tripinfo id="h16072c2:3" depart="57663.00" departLane="315358254#0_1" departPos="5.10" departSpeed="0.00" departDelay="2.50" arrival="57826.00" arrivalLane="386687235_1" arrivalPos="80.84" arrivalSpeed="12.64" duration="163.00" routeLength="1611.92" waitingTime="15.00" waitingCount="3" stopTime="0.00" timeLoss="41.05" rerouteNo="1" devices="tripinfo_h16072c2:3 routing_h16072c2:3 emissions_h16072c2:3" vType="default_016" speedFactor="0.97" vaporized="">
        <emissions CO_abs="6342.037790" CO2_abs="361693.482103" HC_abs="37.321626" PMx_abs="6.198812" NOx_abs="145.998840" fuel_abs="155.477581" electricity_abs="0"/>
    </tripinfo>
    <tripinfo id="h17600c1:1" depart="57662.00" departLane="272042143_1" departPos="5.10" departSpeed="0.00" departDelay="0.30" arrival="57828.00" arrivalLane="201238729#3_1" arrivalPos="431.02" arrivalSpeed="14.79" duration="166.00" routeLength="2100.26" waitingTime="9.00" waitingCount="1" stopTime="0.00" timeLoss="30.54" rerouteNo="1" devices="tripinfo_h17600c1:1 routing_h17600c1:1 emissions_h17600c1:1" vType="default_016" speedFactor="1.12" vaporized="">
        <emissions CO_abs="5633.863979" CO2_abs="436452.478194" HC_abs="35.806906" PMx_abs="7.551395" NOx_abs="174.389481" fuel_abs="187.611858" electricity_abs="0"/>
    </tripinfo>
    <tripinfo id="randUni31145:1" depart="57814.00" departLane="10425609#0_1" departPos="5.10" departSpeed="0.00" departDelay="0.30" arrival="57842.00" arrivalLane="201956810_1" arrivalPos="71.65" arrivalSpeed="11.70" duration="28.00" routeLength="255.78" waitingTime="0.00" waitingCount="0" stopTime="0.00" timeLoss="4.96" rerouteNo="1" devices="tripinfo_randUni31145:1 routing_randUni31145:1 emissions_randUni31145:1" vType="random_016" speedFactor="0.88" vaporized="">
        <emissions CO_abs="1602.844990" CO2_abs="90650.184701" HC_abs="9.422566" PMx_abs="1.615433" NOx_abs="37.420338" fuel_abs="38.966766" electricity_abs="0"/>
    </tripinfo>
    <tripinfo id="carIn129809:1" depart="57729.00" departLane="-447569998#1_1" departPos="5.10" departSpeed="0.00" departDelay="1.00" arrival="57844.00" arrivalLane="-315358244_1" arrivalPos="33.95" arrivalSpeed="12.41" duration="115.00" routeLength="706.49" waitingTime="30.00" waitingCount="2" stopTime="0.00" timeLoss="47.19" rerouteNo="1" devices="tripinfo_carIn129809:1 routing_carIn129809:1 emissions_carIn129809:1" vType="default_015" speedFactor="0.90" vaporized="">
        <emissions CO_abs="6730.259174" CO2_abs="240106.626473" HC_abs="36.240576" PMx_abs="4.495603" NOx_abs="100.342389" fuel_abs="103.213724" electricity_abs="0"/>
    </tripinfo>
    <tripinfo id="carIn8642:1" depart="57774.00" departLane="-447569998#1_1" departPos="5.10" departSpeed="0.00" departDelay="0.90" arrival="57844.00" arrivalLane="-315358244_2" arrivalPos="33.95" arrivalSpeed="14.16" duration="70.00" routeLength="706.49" waitingTime="0.00" waitingCount="0" stopTime="0.00" timeLoss="11.41" rerouteNo="1" devices="tripinfo_carIn8642:1 routing_carIn8642:1 emissions_carIn8642:1" vType="default_016" speedFactor="1.03" vaporized="">
        <emissions CO_abs="2818.449320" CO2_abs="172716.455636" HC_abs="16.859740" PMx_abs="2.890183" NOx_abs="69.551556" fuel_abs="74.243804" electricity_abs="0"/>
    </tripinfo>
    <tripinfo id="randUni2407:1" depart="57820.00" departLane="10425609#0_1" departPos="5.10" departSpeed="0.00" departDelay="0.80" arrival="57844.00" arrivalLane="201956810_1" arrivalPos="71.65" arrivalSpeed="16.30" duration="24.00" routeLength="255.78" waitingTime="0.00" waitingCount="0" stopTime="0.00" timeLoss="7.01" rerouteNo="1" devices="tripinfo_randUni2407:1 routing_randUni2407:1 emissions_randUni2407:1" vType="random_016" speedFactor="1.20" vaporized="">
        <emissions CO_abs="1779.899147" CO2_abs="105497.116077" HC_abs="10.606412" PMx_abs="2.120992" NOx_abs="44.881794" fuel_abs="45.348426" electricity_abs="0"/>
    </tripinfo>
    <tripinfo id="carIn12775:1" depart="57676.00" departLane="10425609#0_1" departPos="5.10" departSpeed="0.00" departDelay="0.60" arrival="57852.00" arrivalLane="18809673#0_1" arrivalPos="473.56" arrivalSpeed="13.79" duration="176.00" routeLength="1959.45" waitingTime="12.00" waitingCount="1" stopTime="0.00" timeLoss="30.14" rerouteNo="1" devices="tripinfo_carIn12775:1 routing_carIn12775:1 emissions_carIn12775:1" vType="default_016" speedFactor="1.00" vaporized="">
        <emissions CO_abs="5758.075237" CO2_abs="390434.016425" HC_abs="35.299538" PMx_abs="6.389969" NOx_abs="154.701445" fuel_abs="167.831613" electricity_abs="0"/>
    </tripinfo>
    <tripinfo id="carIn28951:1" depart="57606.00" departLane="10425609#0_1" departPos="5.10" departSpeed="0.00" departDelay="0.20" arrival="57854.00" arrivalLane="-128361102#1_1" arrivalPos="274.68" arrivalSpeed="10.85" duration="248.00" routeLength="2095.01" waitingTime="30.00" waitingCount="1" stopTime="0.00" timeLoss="53.67" rerouteNo="1" devices="tripinfo_carIn28951:1 routing_carIn28951:1 emissions_carIn28951:1" vType="default_016" speedFactor="0.79" vaporized="">
        <emissions CO_abs="10606.750788" CO2_abs="500772.423587" HC_abs="59.863315" PMx_abs="8.274121" NOx_abs="201.794572" fuel_abs="215.263928" electricity_abs="0"/>
    </tripinfo>
    <tripinfo id="randUni15030:1" depart="57735.00" departLane="386687232#0_1" departPos="5.10" departSpeed="0.00" departDelay="0.10" arrival="57854.00" arrivalLane="26677539_1" arrivalPos="151.98" arrivalSpeed="6.59" duration="119.00" routeLength="919.89" waitingTime="16.00" waitingCount="1" stopTime="0.00" timeLoss="29.75" rerouteNo="1" devices="tripinfo_randUni15030:1 routing_randUni15030:1 emissions_randUni15030:1" vType="random_016" speedFactor="0.93" vaporized="">
        <emissions CO_abs="5437.290951" CO2_abs="242606.833694" HC_abs="30.372751" PMx_abs="4.123666" NOx_abs="98.645523" fuel_abs="104.287956" electricity_abs="0"/>
    </tripinfo>
    <tripinfo id="carIn107084:1" depart="57601.00" departLane="124812856#0_1" departPos="5.10" departSpeed="0.00" departDelay="0.70" arrival="57856.00" arrivalLane="-128361102#1_1" arrivalPos="274.68" arrivalSpeed="13.06" duration="255.00" routeLength="2250.49" waitingTime="51.00" waitingCount="2" stopTime="0.00" timeLoss="92.04" rerouteNo="1" devices="tripinfo_carIn107084:1 routing_carIn107084:1 emissions_carIn107084:1" vType="default_016" speedFactor="1.01" vaporized="">
        <emissions CO_abs="14647.855547" CO2_abs="657137.843187" HC_abs="82.047003" PMx_abs="12.021789" NOx_abs="270.530522" fuel_abs="282.478780" electricity_abs="0"/>
    </tripinfo>
    <tripinfo id="h3154c1:1" depart="57658.00" departLane="24634507_1" departPos="5.10" departSpeed="0.00" departDelay="0.00" arrival="57859.00" arrivalLane="-266565295#5_1" arrivalPos="172.76" arrivalSpeed="12.69" duration="201.00" routeLength="1206.22" waitingTime="82.00" waitingCount="2" stopTime="0.00" timeLoss="104.83" rerouteNo="1" devices="tripinfo_h3154c1:1 routing_h3154c1:1 emissions_h3154c1:1" vType="default_016" speedFactor="0.93" vaporized="">
        <emissions CO_abs="16453.547672" CO2_abs="493499.844247" HC_abs="86.492871" PMx_abs="9.970814" NOx_abs="210.128224" fuel_abs="212.140118" electricity_abs="0"/>
    </tripinfo>
    <tripinfo id="carIn46110:1" depart="57684.00" departLane="315358244_1" departPos="5.10" departSpeed="0.00" departDelay="1.20" arrival="57861.00" arrivalLane="32978638#0_1" arrivalPos="49.29" arrivalSpeed="12.70" duration="177.00" routeLength="1764.04" waitingTime="21.00" waitingCount="3" stopTime="0.00" timeLoss="47.45" rerouteNo="1" devices="tripinfo_carIn46110:1 routing_carIn46110:1 emissions_carIn46110:1" vType="default_016" speedFactor="1.00" vaporized="">
        <emissions CO_abs="6855.515423" CO2_abs="419731.362391" HC_abs="40.992539" PMx_abs="7.151156" NOx_abs="168.629385" fuel_abs="180.425428" electricity_abs="0"/>
    </tripinfo>
    <tripinfo id="carIn73855:1" depart="57743.00" departLane="386687232#0_1" departPos="5.10" departSpeed="0.00" departDelay="0.50" arrival="57863.00" arrivalLane="-315358244_1" arrivalPos="33.95" arrivalSpeed="17.13" duration="120.00" routeLength="1157.39" waitingTime="22.00" waitingCount="3" stopTime="0.00" timeLoss="51.06" rerouteNo="1" devices="tripinfo_carIn73855:1 routing_carIn73855:1 emissions_carIn73855:1" vType="default_016" speedFactor="1.23" vaporized="">
        <emissions CO_abs="6795.675884" CO2_abs="354271.123147" HC_abs="39.243138" PMx_abs="6.801562" NOx_abs="146.664018" fuel_abs="152.286479" electricity_abs="0"/>
    </tripinfo>
    <tripinfo id="h645c1:1" depart="57622.00" departLane="266565295#5_1" departPos="5.10" departSpeed="0.00" departDelay="0.40" arrival="57865.00" arrivalLane="-315358244_2" arrivalPos="33.95" arrivalSpeed="11.62" duration="243.00" routeLength="1910.83" waitingTime="57.00" waitingCount="2" stopTime="0.00" timeLoss="82.92" rerouteNo="1" devices="tripinfo_h645c1:1 routing_h645c1:1 emissions_h645c1:1" vType="default_016" speedFactor="0.87" vaporized="">
        <emissions CO_abs="12966.406270" CO2_abs="519247.691733" HC_abs="71.125695" PMx_abs="9.309264" NOx_abs="213.267439" fuel_abs="223.206417" electricity_abs="0"/>
    </tripinfo>
    <tripinfo id="50R_frequency3.17" depart="57674.00" departLane="-18809673#6_1" departPos="12.10" departSpeed="0.00" departDelay="0.70" arrival="57865.00" arrivalLane="201956811#0_1" arrivalPos="40.40" arrivalSpeed="11.43" duration="191.00" routeLength="1954.47" waitingTime="22.00" waitingCount="1" stopTime="0.00" timeLoss="45.71" rerouteNo="1" devices="tripinfo_50R_frequency3.17 routing_50R_frequency3.17 emissions_50R_frequency3.17" vType="bus" speedFactor="1.00" vaporized="">