<?xml version="1.0" encoding="UTF-8"?>

<!-- generated on Thu Nov  4 13:45:16 2021 by Eclipse SUMO sumo Version 1.9.0
<configuration xmlns:xsi="http://www.w3.org/2001/XMLSchema-instance" xsi:noNamespaceSchemaLocation="http://sumo.dlr.de/xsd/sumoConfiguration.xsd">

    <input>
        <net-file value="/mainfs/home/bk2g18/RESCO/environments/ingolstadt21/ingolstadt21.net.xml"/>
        <route-files value="/mainfs/home/bk2g18/RESCO/environments/ingolstadt21/ingolstadt21.rou.xml"/>
    </input>

    <output>
        <tripinfo-output value="/mainfs/home/bk2g18/RESCO/logs/MPLight-tr0-ingolstadt21-21-mplight_full-pressure/tripinfo_46.xml"/>
        <tripinfo-output.write-unfinished value="true"/>
    </output>

    <time>
        <begin value="57600"/>
        <end value="61200"/>
    </time>

    <processing>
        <time-to-teleport value="-1"/>
    </processing>

    <report>
        <xml-validation value="never"/>
        <xml-validation.routes value="never"/>
        <no-warnings value="true"/>
        <no-step-log value="true"/>
    </report>

    <emissions>
        <device.emissions.probability value="1"/>
    </emissions>

    <traci_server>
        <remote-port value="44838"/>
    </traci_server>

    <random_number>
        <random value="true"/>
    </random_number>

</configuration>
-->

<tripinfos xmlns:xsi="http://www.w3.org/2001/XMLSchema-instance" xsi:noNamespaceSchemaLocation="http://sumo.dlr.de/xsd/tripinfo_file.xsd">
    <tripinfo id="carIn60260:1" depart="57606.00" departLane="315358254#0_1" departPos="5.10" departSpeed="0.00" departDelay="0.90" arrival="57652.00" arrivalLane="399835085#1_1" arrivalPos="212.23" arrivalSpeed="9.51" duration="46.00" routeLength="430.98" waitingTime="0.00" waitingCount="0" stopTime="0.00" timeLoss="7.00" rerouteNo="1" devices="tripinfo_carIn60260:1 routing_carIn60260:1 emissions_carIn60260:1" vType="default_016" speedFactor="1.20" vaporized="">
        <emissions CO_abs="1928.044453" CO2_abs="112334.191628" HC_abs="11.403388" PMx_abs="1.937982" NOx_abs="45.793719" fuel_abs="48.287889" electricity_abs="0"/>
    </tripinfo>
    <tripinfo id="h15454c2:3" depart="57612.00" departLane="24608844_1" departPos="5.10" departSpeed="0.00" departDelay="0.50" arrival="57654.00" arrivalLane="32978638#0_1" arrivalPos="49.29" arrivalSpeed="12.82" duration="42.00" routeLength="354.79" waitingTime="0.00" waitingCount="0" stopTime="0.00" timeLoss="5.53" rerouteNo="1" devices="tripinfo_h15454c2:3 routing_h15454c2:3 emissions_h15454c2:3" vType="default_016" speedFactor="0.95" vaporized="">
        <emissions CO_abs="1935.225012" CO2_abs="102371.807844" HC_abs="11.174808" PMx_abs="1.659247" NOx_abs="41.207090" fuel_abs="44.005765" electricity_abs="0"/>
    </tripinfo>
    <tripinfo id="carIn53971:1" depart="57640.00" departLane="272042143_1" departPos="5.10" departSpeed="0.00" departDelay="0.80" arrival="57699.00" arrivalLane="24634414#1_1" arrivalPos="162.19" arrivalSpeed="6.71" duration="59.00" routeLength="493.04" waitingTime="0.00" waitingCount="0" stopTime="0.00" timeLoss="9.96" rerouteNo="1" devices="tripinfo_carIn53971:1 routing_carIn53971:1 emissions_carIn53971:1" vType="default_016" speedFactor="0.92" vaporized="">
        <emissions CO_abs="2599.579959" CO2_abs="137437.452815" HC_abs="15.025035" PMx_abs="2.309816" NOx_abs="55.856704" fuel_abs="59.079034" electricity_abs="0"/>
    </tripinfo>
    <tripinfo id="h3568c1:3" depart="57656.00" departLane="266565295#5_1" departPos="5.10" departSpeed="0.00" departDelay="0.80" arrival="57734.00" arrivalLane="-24634415_1" arrivalPos="62.03" arrivalSpeed="12.92" duration="78.00" routeLength="807.40" waitingTime="0.00" waitingCount="0" stopTime="0.00" timeLoss="13.83" rerouteNo="1" devices="tripinfo_h3568c1:3 routing_h3568c1:3 emissions_h3568c1:3" vType="default_016" speedFactor="1.00" vaporized="">
        <emissions CO_abs="3359.759094" CO2_abs="213620.442950" HC_abs="20.307673" PMx_abs="3.702667" NOx_abs="86.779511" fuel_abs="91.826474" electricity_abs="0"/>
    </tripinfo>
    <tripinfo id="h7800c1:5" depart="57696.00" departLane="-447569998#1_1" departPos="5.10" departSpeed="0.00" departDelay="0.00" arrival="57735.00" arrivalLane="-447569998#1_2" arrivalPos="180.76" arrivalSpeed="3.80" duration="39.00" routeLength="175.66" waitingTime="10.00" waitingCount="1" stopTime="0.00" timeLoss="17.30" rerouteNo="1" devices="tripinfo_h7800c1:5 routing_h7800c1:5 emissions_h7800c1:5" vType="default_016" speedFactor="0.99" vaporized="">
        <emissions CO_abs="2495.511307" CO2_abs="69866.415419" HC_abs="12.978484" PMx_abs="1.346832" NOx_abs="29.693027" fuel_abs="30.033586" electricity_abs="0"/>
    </tripinfo>
    <tripinfo id="carIn121703:1" depart="57647.00" departLane="386687232#0_1" departPos="5.10" departSpeed="0.00" departDelay="0.30" arrival="57753.00" arrivalLane="-315358244_1" arrivalPos="33.95" arrivalSpeed="13.91" duration="106.00" routeLength="1157.39" waitingTime="8.00" waitingCount="1" stopTime="0.00" timeLoss="23.27" rerouteNo="1" devices="tripinfo_carIn121703:1 routing_carIn121703:1 emissions_carIn121703:1" vType="default_016" speedFactor="1.02" vaporized="">
        <emissions CO_abs="3811.301798" CO2_abs="254493.190636" HC_abs="23.287191" PMx_abs="4.333818" NOx_abs="102.051735" fuel_abs="109.395989" electricity_abs="0"/>
    </tripinfo>
    <tripinfo id="h3154c1:1" depart="57658.00" departLane="24634507_1" departPos="5.10" departSpeed="0.00" departDelay="0.00" arrival="57753.00" arrivalLane="-266565295#5_1" arrivalPos="172.76" arrivalSpeed="14.06" duration="95.00" routeLength="1206.22" waitingTime="0.00" waitingCount="0" stopTime="0.00" timeLoss="13.76" rerouteNo="1" devices="tripinfo_h3154c1:1 routing_h3154c1:1 emissions_h3154c1:1" vType="default_016" speedFactor="1.09" vaporized="">
        <emissions CO_abs="3718.141571" CO2_abs="297497.421337" HC_abs="23.769809" PMx_abs="5.119392" NOx_abs="119.206871" fuel_abs="127.881018" electricity_abs="0"/>
    </tripinfo>
    <tripinfo id="carIn80064:1" depart="57603.00" departLane="128361109#1_1" departPos="5.10" departSpeed="0.00" departDelay="0.40" arrival="57756.00" arrivalLane="-315358254#1_1" arrivalPos="137.16" arrivalSpeed="16.20" duration="153.00" routeLength="1587.97" waitingTime="46.00" waitingCount="2" stopTime="0.00" timeLoss="80.00" rerouteNo="1" devices="tripinfo_carIn80064:1 routing_carIn80064:1 emissions_carIn80064:1" vType="default_016" speedFactor="1.23" vaporized="">
        <emissions CO_abs="14617.798556" CO2_abs="648167.497057" HC_abs="82.091735" PMx_abs="13.975474" NOx_abs="275.942924" fuel_abs="278.620138" electricity_abs="0"/>
    </tripinfo>
    <tripinfo id="h12244c1:3" depart="57612.00" departLane="315358244_1" departPos="5.10" departSpeed="0.00" departDelay="0.40" arrival="57757.00" arrivalLane="386687235_1" arrivalPos="80.84" arrivalSpeed="15.60" duration="145.00" routeLength="1186.14" waitingTime="44.00" waitingCount="3" stopTime="0.00" timeLoss="72.66" rerouteNo="1" devices="tripinfo_h12244c1:3 routing_h12244c1:3 emissions_h12244c1:3" vType="default_016" speedFactor="1.21" vaporized="">
        <emissions CO_abs="10082.958370" CO2_abs="420008.854111" HC_abs="55.685506" PMx_abs="8.166831" NOx_abs="174.922711" fuel_abs="180.545939" electricity_abs="0"/>
    </tripinfo>
    <tripinfo id="h9563c2:5" depart="57631.00" departLane="315358244_1" departPos="5.10" departSpeed="0.00" departDelay="0.70" arrival="57759.00" arrivalLane="386687235_1" arrivalPos="80.84" arrivalSpeed="13.31" duration="128.00" routeLength="1186.14" waitingTime="19.00" waitingCount="3" stopTime="0.00" timeLoss="44.82" rerouteNo="1" devices="tripinfo_h9563c2:5 routing_h9563c2:5 emissions_h9563c2:5" vType="default_016" speedFactor="1.04" vaporized="">
        <emissions CO_abs="5961.638269" CO2_abs="329552.851073" HC_abs="34.864990" PMx_abs="5.902044" NOx_abs="134.701423" fuel_abs="141.661369" electricity_abs="0"/>
    </tripinfo>
    <tripinfo id="h5979c1:5" depart="57669.00" departLane="399835085#1_1" departPos="5.10" departSpeed="0.00" departDelay="0.00" arrival="57767.00" arrivalLane="-315358254#1_1" arrivalPos="137.16" arrivalSpeed="12.98" duration="98.00" routeLength="659.33" waitingTime="11.00" waitingCount="1" stopTime="0.00" timeLoss="23.61" rerouteNo="1" devices="tripinfo_h5979c1:5 routing_h5979c1:5 emissions_h5979c1:5" vType="default_016" speedFactor="0.98" vaporized="">
        <emissions CO_abs="5052.783658" CO2_abs="199033.627326" HC_abs="27.595486" PMx_abs="3.470969" NOx_abs="82.030819" fuel_abs="85.557716" electricity_abs="0"/>
    </tripinfo>
    <tripinfo id="h3326c1:2" depart="57656.00" departLane="22716069#0_1" departPos="5.10" departSpeed="0.00" departDelay="0.00" arrival="57772.00" arrivalLane="24634517#13_1" arrivalPos="111.62" arrivalSpeed="13.02" duration="116.00" routeLength="1312.81" waitingTime="0.00" waitingCount="0" stopTime="0.00" timeLoss="15.32" rerouteNo="1" devices="tripinfo_h3326c1:2 routing_h3326c1:2 emissions_h3326c1:2" vType="default_016" speedFactor="0.97" vaporized="">
        <emissions CO_abs="4065.693448" CO2_abs="306522.951357" HC_abs="25.676131" PMx_abs="5.021271" NOx_abs="122.055067" fuel_abs="131.761228" electricity_abs="0"/>
    </tripinfo>
    <tripinfo id="carIn30817:1" depart="57681.00" departLane="315358244_1" departPos="5.10" departSpeed="0.00" departDelay="0.20" arrival="57772.00" arrivalLane="447569997#1_1" arrivalPos="180.93" arrivalSpeed="7.21" duration="91.00" routeLength="718.04" waitingTime="9.00" waitingCount="1" stopTime="0.00" timeLoss="26.04" rerouteNo="1" devices="tripinfo_carIn30817:1 routing_carIn30817:1 emissions_carIn30817:1" vType="default_016" speedFactor="0.94" vaporized="">
        <emissions CO_abs="4515.537021" CO2_abs="208121.987132" HC_abs="25.424173" PMx_abs="3.765462" NOx_abs="86.222922" fuel_abs="89.463671" electricity_abs="0"/>
    </tripinfo>
    <tripinfo id="h4538c1:1" depart="57701.00" departLane="-10427692#1_1" departPos="5.10" departSpeed="0.00" departDelay="0.00" arrival="57773.00" arrivalLane="-128361102#1_1" arrivalPos="274.68" arrivalSpeed="15.18" duration="72.00" routeLength="440.74" waitingTime="32.00" waitingCount="1" stopTime="0.00" timeLoss="43.12" rerouteNo="1" devices="tripinfo_h4538c1:1 routing_h4538c1:1 emissions_h4538c1:1" vType="default_016" speedFactor="1.11" vaporized="">
        <emissions CO_abs="6603.070135" CO2_abs="200517.630963" HC_abs="34.614059" PMx_abs="4.082093" NOx_abs="85.054284" fuel_abs="86.196150" electricity_abs="0"/>
    </tripinfo>
    <tripinfo id="h317c2:1" depart="57707.00" departLane="-32978638#0_1" departPos="5.10" departSpeed="0.00" departDelay="0.10" arrival="57773.00" arrivalLane="-266565295#5_1" arrivalPos="172.76" arrivalSpeed="9.62" duration="66.00" routeLength="370.53" waitingTime="19.00" waitingCount="1" stopTime="0.00" timeLoss="27.57" rerouteNo="1" devices="tripinfo_h317c2:1 routing_h317c2:1 emissions_h317c2:1" vType="default_016" speedFactor="0.72" vaporized="">
        <emissions CO_abs="4752.821368" CO2_abs="143427.659510" HC_abs="24.975965" PMx_abs="2.779855" NOx_abs="60.787143" fuel_abs="61.655161" electricity_abs="0"/>
    </tripinfo>
    <tripinfo id="h330c1:1" depart="57736.00" departLane="-32978638#0_1" departPos="5.10" departSpeed="0.00" departDelay="0.20" arrival="57775.00" arrivalLane="-266565295#5_1" arrivalPos="172.76" arrivalSpeed="12.39" duration="39.00" routeLength="370.53" waitingTime="0.00" waitingCount="0" stopTime="0.00" timeLoss="8.37" rerouteNo="1" devices="tripinfo_h330c1:1 routing_h330c1:1 emissions_h330c1:1" vType="default_016" speedFactor="0.91" vaporized="">
        <emissions CO_abs="1859.390426" CO2_abs="115734.001740" HC_abs="11.165397" PMx_abs="1.950370" NOx_abs="46.864263" fuel_abs="49.749293" electricity_abs="0"/>
    </tripinfo>
    <tripinfo id="h7181c1:1" depart="57660.00" departLane="315358254#0_1" departPos="5.10" departSpeed="0.00" departDelay="0.10" arrival="57780.00" arrivalLane="306240162#0_0" arrivalPos="220.43" arrivalSpeed="17.15" duration="120.00" routeLength="932.35" waitingTime="43.00" waitingCount="3" stopTime="0.00" timeLoss="70.28" rerouteNo="1" devices="tripinfo_h7181c1:1 routing_h7181c1:1 emissions_h7181c1:1" vType="default_016" speedFactor="1.03" vaporized="">
        <emissions CO_abs="10434.321508" CO2_abs="424532.273740" HC_abs="57.550242" PMx_abs="8.839276" NOx_abs="180.646944" fuel_abs="182.489705" electricity_abs="0"/>
    </tripinfo>
    <tripinfo id="carIn107282:1" depart="57749.00" departLane="-447569998#1_1" departPos="5.10" departSpeed="0.00" departDelay="0.00" arrival="57792.00" arrivalLane="315358242#0_1" arrivalPos="165.37" arrivalSpeed="14.87" duration="43.00" routeLength="448.50" waitingTime="0.00" waitingCount="0" stopTime="0.00" timeLoss="4.87" rerouteNo="1" devices="tripinfo_carIn107282:1 routing_carIn107282:1 emissions_carIn107282:1" vType="default_016" speedFactor="1.10" vaporized="">
        <emissions CO_abs="1686.179154" CO2_abs="108833.508888" HC_abs="10.187268" PMx_abs="1.769964" NOx_abs="43.341125" fuel_abs="46.783128" electricity_abs="0"/>
    </tripinfo>
    <tripinfo id="carIn50326:1" depart="57651.00" departLane="128361102#0_1" departPos="5.10" departSpeed="0.00" departDelay="0.30" arrival="57795.00" arrivalLane="18809673#0_1" arrivalPos="473.56" arrivalSpeed="13.55" duration="144.00" routeLength="1591.07" waitingTime="0.00" waitingCount="0" stopTime="0.00" timeLoss="21.03" rerouteNo="1" devices="tripinfo_carIn50326:1 routing_carIn50326:1 emissions_carIn50326:1" vType="default_016" speedFactor="1.06" vaporized="">
        <emissions CO_abs="4650.542589" CO2_abs="329811.658571" HC_abs="28.777533" PMx_abs="5.307216" NOx_abs="130.559768" fuel_abs="141.772439" electricity_abs="0"/>
    </tripinfo>
    <tripinfo id="carIn27009:1" depart="57673.00" departLane="-447569998#1_1" departPos="5.10" departSpeed="0.00" departDelay="0.50" arrival="57798.00" arrivalLane="-26677539_1" arrivalPos="152.75" arrivalSpeed="7.84" duration="125.00" routeLength="699.63" waitingTime="33.00" waitingCount="1" stopTime="0.00" timeLoss="48.88" rerouteNo="1" devices="tripinfo_carIn27009:1 routing_carIn27009:1 emissions_carIn27009:1" vType="default_015" speedFactor="1.10" vaporized="">
        <emissions CO_abs="8302.102330" CO2_abs="260435.108000" HC_abs="43.839380" PMx_abs="4.915545" NOx_abs="109.697907" fuel_abs="111.952986" electricity_abs="0"/>
    </tripinfo>
    <tripinfo id="h16072c2:3" depart="57663.00" departLane="315358254#0_1" departPos="5.10" departSpeed="0.00" departDelay="2.50" arrival="57803.00" arrivalLane="386687235_1" arrivalPos="80.84" arrivalSpeed="16.07" duration="140.00" routeLength="1611.92" waitingTime="16.00" waitingCount="3" stopTime="0.00" timeLoss="43.63" rerouteNo="1" devices="tripinfo_h16072c2:3 routing_h16072c2:3 emissions_h16072c2:3" vType="default_016" speedFactor="1.23" vaporized="">
        <emissions CO_abs="5747.520537" CO2_abs="408610.098438" HC_abs="35.643965" PMx_abs="7.415210" NOx_abs="165.338289" fuel_abs="175.643512" electricity_abs="0"/>
    </tripinfo>
    <tripinfo id="h5216c1:1" depart="57664.00" departLane="224892339#0_1" departPos="5.10" departSpeed="0.00" departDelay="0.00" arrival="57804.00" arrivalLane="386687235_2" arrivalPos="80.84" arrivalSpeed="14.57" duration="140.00" routeLength="1823.78" waitingTime="0.00" waitingCount="0" stopTime="0.00" timeLoss="20.16" rerouteNo="1" devices="tripinfo_h5216c1:1 routing_h5216c1:1 emissions_h5216c1:1" vType="default_016" speedFactor="1.09" vaporized="">
        <emissions CO_abs="5699.453725" CO2_abs="443941.902785" HC_abs="36.267622" PMx_abs="7.814497" NOx_abs="178.682688" fuel_abs="190.830952" electricity_abs="0"/>
    </tripinfo>
    <tripinfo id="h3688c1:1" depart="57625.00" departLane="201201950#1_1" departPos="5.10" departSpeed="0.00" departDelay="0.00" arrival="57806.00" arrivalLane="32978638#0_1" arrivalPos="49.29" arrivalSpeed="11.25" duration="181.00" routeLength="1089.75" waitingTime="71.00" waitingCount="2" stopTime="0.00" timeLoss="86.81" rerouteNo="1" devices="tripinfo_h3688c1:1 routing_h3688c1:1 emissions_h3688c1:1" vType="default_016" speedFactor="0.85" vaporized="">
        <emissions CO_abs="14265.345249" CO2_abs="420876.903913" HC_abs="74.757415" PMx_abs="8.200527" NOx_abs="177.447755" fuel_abs="180.922433" electricity_abs="0"/>
    </tripinfo>
    <tripinfo id="carIn129809:1" depart="57729.00" departLane="-447569998#1_1" departPos="5.10" departSpeed="0.00" departDelay="1.00" arrival="57813.00" arrivalLane="-315358244_1" arrivalPos="33.95" arrivalSpeed="14.54" duration="84.00" routeLength="706.49" waitingTime="10.00" waitingCount="2" stopTime="0.00" timeLoss="27.18" rerouteNo="1" devices="tripinfo_carIn129809:1 routing_carIn129809:1 emissions_carIn129809:1" vType="default_015" speedFactor="1.07" vaporized="">
        <emissions CO_abs="3800.923569" CO2_abs="200577.213744" HC_abs="21.944033" PMx_abs="3.531476" NOx_abs="81.794690" fuel_abs="86.220199" electricity_abs="0"/>
    </tripinfo>
    <tripinfo id="carIn28951:1" depart="57606.00" departLane="10425609#0_1" departPos="5.10" departSpeed="0.00" departDelay="0.20" arrival="57814.00" arrivalLane="-128361102#1_1" arrivalPos="274.68" arrivalSpeed="13.83" duration="208.00" routeLength="2113.04" waitingTime="40.00" waitingCount="1" stopTime="0.00" timeLoss="64.68" rerouteNo="1" devices="tripinfo_carIn28951:1 routing_carIn28951:1 emissions_carIn28951:1" vType="default_016" speedFactor="1.08" vaporized="">
        <emissions CO_abs="11707.904074" CO2_abs="556400.225380" HC_abs="66.131435" PMx_abs="10.239300" NOx_abs="227.749020" fuel_abs="239.174923" electricity_abs="0"/>
    </tripinfo>
    <tripinfo id="h11737c1:1" depart="57665.00" departLane="272042143_1" departPos="5.10" departSpeed="0.00" departDelay="1.50" arrival="57818.00" arrivalLane="-315358254#1_1" arrivalPos="137.16" arrivalSpeed="11.99" duration="153.00" routeLength="1596.88" waitingTime="5.00" waitingCount="1" stopTime="0.00" timeLoss="21.82" rerouteNo="1" devices="tripinfo_h11737c1:1 routing_h11737c1:1 emissions_h11737c1:1" vType="default_016" speedFactor="0.89" vaporized="">
        <emissions CO_abs="4041.019916" CO2_abs="312564.371436" HC_abs="25.622956" PMx_abs="4.692579" NOx_abs="121.875996" fuel_abs="134.358724" electricity_abs="0"/>
    </tripinfo>
    <tripinfo id="carIn126288:1" depart="57674.00" departLane="272042143_1" departPos="5.10" departSpeed="0.00" departDelay="0.00" arrival="57820.00" arrivalLane="-315358254#1_1" arrivalPos="137.16" arrivalSpeed="12.83" duration="146.00" routeLength="1596.88" waitingTime="3.00" waitingCount="1" stopTime="0.00" timeLoss="21.10" rerouteNo="1" devices="tripinfo_carIn126288:1 routing_carIn126288:1 emissions_carIn126288:1" vType="default_016" speedFactor="0.93" vaporized="">
        <emissions CO_abs="4411.552731" CO2_abs="327977.303092" HC_abs="27.728942" PMx_abs="5.267293" NOx_abs="129.996214" fuel_abs="140.983750" electricity_abs="0"/>
    </tripinfo>
    <tripinfo id="carIn86816:1" depart="57617.00" departLane="128361102#0_1" departPos="5.10" departSpeed="0.00" departDelay="0.80" arrival="57822.00" arrivalLane="201956811#0_1" arrivalPos="40.40" arrivalSpeed="12.90" duration="205.00" routeLength="2067.33" waitingTime="21.00" waitingCount="2" stopTime="0.00" timeLoss="57.33" rerouteNo="1" devices="tripinfo_carIn86816:1 routing_carIn86816:1 emissions_carIn86816:1" vType="default_016" speedFactor="1.02" vaporized="">
        <emissions CO_abs="8997.436059" CO2_abs="513193.914062" HC_abs="52.763770" PMx_abs="8.814593" NOx_abs="206.623025" fuel_abs="220.601566" electricity_abs="0"/>
    </tripinfo>
    <tripinfo id="carIn102915:1" depart="57643.00" departLane="128361102#0_1" departPos="5.10" departSpeed="0.00" departDelay="0.40" arrival="57824.00" arrivalLane="201956811#0_1" arrivalPos="40.40" arrivalSpeed="13.66" duration="181.00" routeLength="2067.33" waitingTime="6.00" waitingCount="1" stopTime="0.00" timeLoss="40.24" rerouteNo="1" devices="tripinfo_carIn102915:1 routing_carIn102915:1 emissions_carIn102915:1" vType="default_016" speedFactor="1.08" vaporized="">
        <emissions CO_abs="6677.723142" CO2_abs="478690.179895" HC_abs="41.536844" PMx_abs="8.244749" NOx_abs="192.319855" fuel_abs="205.768356" electricity_abs="0"/>
    </tripinfo>
    <tripinfo id="S5R_frequency1.2" depart="57656.00" departLane="315358250#0_1" departPos="12.10" departSpeed="0.00" departDelay="44.40" arrival="57832.00" arrivalLane="386687235_1" arrivalPos="80.84" arrivalSpeed="12.30" duration="176.00" routeLength="1115.62" waitingTime="58.00" waitingCount="4" stopTime="0.00" timeLoss="94.90" rerouteNo="1" devices="tripinfo_S5R_frequency1.2 routing_S5R_frequency1.2 emissions_S5R_frequency1.2" vType="bus" speedFactor="1.00" vaporized="">
        <emissions CO_abs="3282.382759" CO2_abs="1705936.422933" HC_abs="714.516901" PMx_abs="344.040618" NOx_abs="14185.698732" fuel_abs="727.446997" electricity_abs="0"/>
    </tripinfo>
    <tripinfo id="50R_frequency3.17" depart="57674.00" departLane="-18809673#6_1" departPos="12.10" departSpeed="0.00" departDelay="0.70" arrival="57834.00" arrivalLane="201956811#0_1" arrivalPos="40.40" arrivalSpeed="13.32" duration="160.00" routeLength="1954.47" waitingTime="0.00" waitingCount="0" stopTime="0.00" timeLoss="14.98" rerouteNo="1" devices="tripinfo_50R_frequency3.17 routing_50R_frequency3.17 emissions_50R_frequency3.17" vType="bus" speedFactor="1.00" vaporized="">
        <emissions CO_abs="2902.583194" CO2_abs="1866625.773604" HC_abs="617.427993" PMx_abs="312.779000" NOx_abs="14343.300341" fuel_abs="796.120013" electricity_abs="0"/>
    </tripinfo>
    <tripinfo id="h20540c1:1" depart="57634.00" departLane="10425609#0_1" departPos="5.10" departSpeed="0.00" departDelay="0.50" arrival="57838.00" arrivalLane="-128361102#1_1" arrivalPos="274.68" arrivalSpeed="12.84" duration="204.00" routeLength="2113.04" waitingTime="11.00" waitingCount="2" stopTime="0.00" timeLoss="39.42" rerouteNo="1" devices="tripinfo_h20540c1:1 routing_h20540c1:1 emissions_h20540c1:1" vType="default_016" speedFactor="0.94" vaporized="">
        <emissions CO_abs="7852.666773" CO2_abs="499950.098206" HC_abs="47.419496" PMx_abs="8.327490" NOx_abs="200.460085" fuel_abs="214.908145" electricity_abs="0"/>
    </tripinfo>
    <tripinfo id="randUni33724:1" depart="57646.00" departLane="128361102#0_1" departPos="5.10" departSpeed="0.00" departDelay="1.20" arrival="57852.00" arrivalLane="201956811#0_1" arrivalPos="40.40" arrivalSpeed="12.12" duration="206.00" routeLength="2067.33" waitingTime="5.00" waitingCount="2" stopTime="0.00" timeLoss="38.54" rerouteNo="1" devices="tripinfo_randUni33724:1 routing_randUni33724:1 emissions_randUni33724:1" vType="random_016" speedFactor="0.91" vaporized="">
        <emissions CO_abs="7071.494981" CO2_abs="466939.079378" HC_abs="43.086405" PMx_abs="7.731048" NOx_abs="187.406215" fuel_abs="200.717852" electricity_abs="0"/>
    </tripinfo>
    <tripinfo id="h645c1:1" depart="57622.00" departLane="266565295#5_1" departPos="5.10" departSpeed="0.00" departDelay="0.40" arrival="57853.00" arrivalLane="-315358244_1" arrivalPos="33.95" arrivalSpeed="14.54" duration="231.00" routeLength="1910.83" waitingTime="65.00" waitingCount="5" stopTime="0.00" timeLoss="100.05" rerouteNo="1" devices="tripinfo_h645c1:1 routing_h645c1:1 emissions_h645c1:1" vType="default_016" speedFactor="1.06" vaporized="">
        <emissions CO_abs="13493.123839" CO2_abs="582791.294895" HC_abs="74.920078" PMx_abs="10.717338" NOx_abs="238.981504" fuel_abs="250.520455" electricity_abs="0"/>
    </tripinfo>
    <tripinfo id="carIn100288:1" depart="57664.00" departLane="128361102#0_1" departPos="5.10" departSpeed="0.00" departDelay="0.60" arrival="57853.00" arrivalLane="201956811#0_1" arrivalPos="40.40" arrivalSpeed="14.43" duration="189.00" routeLength="2067.33" waitingTime="5.00" waitingCount="2" stopTime="0.00" timeLoss="49.20" rerouteNo="1" devices="tripinfo_carIn100288:1 routing_carIn100288:1 emissions_carIn100288:1" vType="default_016" speedFactor="1.08" vaporized="">
        <emissions CO_abs="7109.882252" CO2_abs="488346.617903" HC_abs="43.681681" PMx_abs="8.426459" NOx_abs="197.146299" fuel_abs="209.919382" electricity_abs="0"/>
    </tripinfo>
    <tripinfo id="carIn126378:1" depart="57746.00" departLane="386687232#0_1" departPos="5.10" departSpeed="0.00" departDelay="1.80" arrival="57853.00" arrivalLane="-315358244_2" arrivalPos="33.95" arrivalSpeed="12.94" duration="107.00" routeLength="1157.39" waitingTime="5.00" waitingCount="1" stopTime="0.00" timeLoss="22.76" rerouteNo="1" devices="tripinfo_carIn126378:1 routing_carIn126378:1 emissions_carIn126378:1" vType="default_016" speedFactor="1.01" vaporized="">
        <emissions CO_abs="3427.317943" CO2_abs="259586.794115" HC_abs="21.655557" PMx_abs="4.179838" NOx_abs="102.518075" fuel_abs="111.585498" electricity_abs="0"/>
    </tripinfo>
    <tripinfo id="randUni31145:1" depart="57814.00" departLane="10425609#0_1" departPos="5.10" departSpeed="0.00" departDelay="0.30" arrival="57853.00" arrivalLane="201956810_1" arrivalPos="71.65" arrivalSpeed="15.19" duration="39.00" routeLength="255.78" waitingTime="9.00" waitingCount="1" stopTime="0.00" timeLoss="20.78" rerouteNo="1" devices="tripinfo_randUni31145:1 routing_randUni31145:1 emissions_randUni31145:1" vType="random_016" speedFactor="1.11" vaporized="">
        <emissions CO_abs="3025.102653" CO2_abs="134497.554849" HC_abs="16.973981" PMx_abs="2.744603" NOx_abs="57.736254" fuel_abs="57.814963" electricity_abs="0"/>
    </tripinfo>
    <tripinfo id="carIn73855:1" depart="57743.00" departLane="386687232#0_1" departPos="5.10" departSpeed="0.00" departDelay="0.50" arrival="57855.00" arrivalLane="-315358244_1" arrivalPos="33.95" arrivalSpeed="12.22" duration="112.00" routeLength="1157.39" waitingTime="7.00" waitingCount="1" stopTime="0.00" timeLoss="24.43" rerouteNo="1" devices="tripinfo_carIn73855:1 routing_carIn73855:1 emissions_carIn73855:1" vType="default_016" speedFactor="0.96" vaporized="">
        <emissions CO_abs="4017.586404" CO2_abs="255060.403912" HC_abs="24.240133" PMx_abs="4.210505" NOx_abs="101.847679" fuel_abs="109.640145" electricity_abs="0"/>
    </tripinfo>
    <tripinfo id="carIn81860:1" depart="57712.00" departLane="128361102#0_1" departPos="5.10" departSpeed="0.00" departDelay="0.60" arrival="57856.00" arrivalLane="-24634517#17_1" arrivalPos="6.43" arrivalSpeed="8.54" duration="144.00" routeLength="1229.64" waitingTime="32.00" waitingCount="2" stopTime="0.00" timeLoss="58.90" rerouteNo="1" devices="tripinfo_carIn81860:1 routing_carIn81860:1 emissions_carIn81860:1" vType="default_016" speedFactor="1.06" vaporized="">
        <emissions CO_abs="7979.408083" CO2_abs="357376.377503" HC_abs="44.699168" PMx_abs="6.575484" NOx_abs="146.882024" fuel_abs="153.622634" electricity_abs="0"/>
    </tripinfo>
    <tripinfo id="carIn12152:1" depart="57647.00" departLane="24599188#0.94_1" departPos="5.10" departSpeed="0.00" departDelay="0.50" arrival="57857.00" arrivalLane="-315358254#1_1" arrivalPos="137.16" arrivalSpeed="12.79" duration="210.00" routeLength="2034.31" waitingTime="23.00" waitingCount="3" stopTime="0.00" timeLoss="50.61" rerouteNo="1" devices="tripinfo_carIn12152:1 routing_carIn12152:1 emissions_carIn12152:1" vType="default_016" speedFactor="0.99" vaporized="">
        <emissions CO_abs="8026.620846" CO2_abs="469051.612930" HC_abs="47.448161" PMx_abs="7.732903" NOx_abs="187.081418" fuel_abs="201.626880" electricity_abs="0"/>
    </tripinfo>
    <tripinfo id="randUni2407:1" depart="57820.00" departLane="10425609#0_1" departPos="5.10" departSpeed="0.00" departDelay="0.80" arrival="57858.00" arrivalLane="201956810_1" arrivalPos="71.65" arrivalSpeed="11.31" duration="38.00" routeLength="255.78" waitingTime="4.00" waitingCount="1" stopTime="0.00" timeLoss="15.28" rerouteNo="1" devices="tripinfo_randUni2407:1 routing_randUni2407:1 emissions_randUni2407:1" vType="random_016" speedFactor="0.86" vaporized="">
        <emissions CO_abs="2215.112086" CO2_abs="100568.454028" HC_abs="12.457415" PMx_abs="1.953687" NOx_abs="42.776387" fuel_abs="43.230325" electricity_abs="0"/>
    </tripinfo>
    <tripinfo id="carIn8642:1" depart="57774.00" departLane="-447569998#1_1" departPos="5.10" departSpeed="0.00" departDelay="0.90" arrival="57860.00" arrivalLane="-315358244_1" arrivalPos="33.95" arrivalSpeed="15.71" duration="86.00" routeLength="706.49" waitingTime="24.00" waitingCount="1" stopTime="0.00" timeLoss="33.91" rerouteNo="1" devices="tripinfo_carIn8642:1 routing_carIn8642:1 emissions_carIn8642:1" vType="default_016" speedFactor="1.16" vaporized="">
        <emissions CO_abs="5637.523369" CO2_abs="223925.742370" HC_abs="30.834631" PMx_abs="4.108648" NOx_abs="91.694903" fuel_abs="96.257816" electricity_abs="0"/>
    </tripinfo>
    <tripinfo id="h17600c1:1" depart="57662.00" departLane="272042143_1" departPos="5.10" departSpeed="0.00" departDelay="0.30" arrival="57864.00" arrivalLane="201238729#3_1" arrivalPos="431.02" arrivalSpeed="12.44" duration="202.00" routeLength="2100.26" waitingTime="23.00" waitingCount="1" stopTime="0.00" timeLoss="39.62" rerouteNo="1" devices="tripinfo_h17600c1:1 routing_h17600c1:1 emissions_h17600c1:1" vType="default_016" speedFactor="0.93" vaporized="">
        <emissions CO_abs="7407.195949" CO2_abs="446699.080036" HC_abs="44.074988" PMx_abs="7.047915" NOx_abs="175.416080" fuel_abs="192.018759" electricity_abs="0"/>
    </tripinfo>
    <tripinfo id="carIn29531:1" depart="57667.00" departLane="128361102#0_1" departPos="5.10" departSpeed="0.00" departDelay="1.60" arrival="57864.00" arrivalLane="201956811#0_1" arrivalPos="40.40" arrivalSpeed="13.41" duration="197.00" routeLength="2067.33" waitingTime="12.00" waitingCount="2" stopTime="0.00" timeLoss="40.72" rerouteNo="1" devices="tripinfo_carIn29531:1 routing_carIn29531:1 emissions_carIn29531:1" vType="default_016" speedFactor="0.97" vaporized="">