<?xml version="1.0" encoding="UTF-8"?>

<!-- generated on Thu Nov  4 14:05:58 2021 by Eclipse SUMO sumo Version 1.9.0
<configuration xmlns:xsi="http://www.w3.org/2001/XMLSchema-instance" xsi:noNamespaceSchemaLocation="http://sumo.dlr.de/xsd/sumoConfiguration.xsd">

    <input>
        <net-file value="/mainfs/home/bk2g18/RESCO/environments/ingolstadt21/ingolstadt21.net.xml"/>
        <route-files value="/mainfs/home/bk2g18/RESCO/environments/ingolstadt21/ingolstadt21.rou.xml"/>
    </input>

    <output>
        <tripinfo-output value="/mainfs/home/bk2g18/RESCO/logs/MPLight-tr0-ingolstadt21-21-mplight_full-pressure/tripinfo_71.xml"/>
        <tripinfo-output.write-unfinished value="true"/>
    </output>

    <time>
        <begin value="57600"/>
        <end value="61200"/>
    </time>

    <processing>
        <time-to-teleport value="-1"/>
    </processing>

    <report>
        <xml-validation value="never"/>
        <xml-validation.routes value="never"/>
        <no-warnings value="true"/>
        <no-step-log value="true"/>
    </report>

    <emissions>
        <device.emissions.probability value="1"/>
    </emissions>

    <traci_server>
        <remote-port value="37377"/>
    </traci_server>

    <random_number>
        <random value="true"/>
    </random_number>

</configuration>
-->

<tripinfos xmlns:xsi="http://www.w3.org/2001/XMLSchema-instance" xsi:noNamespaceSchemaLocation="http://sumo.dlr.de/xsd/tripinfo_file.xsd">
    <tripinfo id="h15454c2:3" depart="57612.00" departLane="24608844_1" departPos="5.10" departSpeed="0.00" departDelay="0.50" arrival="57654.00" arrivalLane="32978638#0_1" arrivalPos="49.29" arrivalSpeed="12.89" duration="42.00" routeLength="354.79" waitingTime="0.00" waitingCount="0" stopTime="0.00" timeLoss="6.64" rerouteNo="1" devices="tripinfo_h15454c2:3 routing_h15454c2:3 emissions_h15454c2:3" vType="default_016" speedFactor="0.98" vaporized="">
        <emissions CO_abs="2155.028463" CO2_abs="116310.878399" HC_abs="12.535555" PMx_abs="2.077927" NOx_abs="48.087927" fuel_abs="49.997310" electricity_abs="0"/>
    </tripinfo>
    <tripinfo id="carIn53971:1" depart="57640.00" departLane="272042143_1" departPos="5.10" departSpeed="0.00" departDelay="0.80" arrival="57706.00" arrivalLane="24634414#1_1" arrivalPos="162.19" arrivalSpeed="5.76" duration="66.00" routeLength="493.04" waitingTime="0.00" waitingCount="0" stopTime="0.00" timeLoss="8.85" rerouteNo="1" devices="tripinfo_carIn53971:1 routing_carIn53971:1 emissions_carIn53971:1" vType="default_016" speedFactor="0.80" vaporized="">
        <emissions CO_abs="2933.821729" CO2_abs="137603.716840" HC_abs="16.532844" PMx_abs="2.293107" NOx_abs="56.071266" fuel_abs="59.150789" electricity_abs="0"/>
    </tripinfo>
    <tripinfo id="h7800c1:5" depart="57696.00" departLane="-447569998#1_1" departPos="5.10" departSpeed="0.00" departDelay="0.00" arrival="57718.00" arrivalLane="-447569998#1_1" arrivalPos="180.76" arrivalSpeed="8.96" duration="22.00" routeLength="175.66" waitingTime="0.00" waitingCount="0" stopTime="0.00" timeLoss="3.19" rerouteNo="1" devices="tripinfo_h7800c1:5 routing_h7800c1:5 emissions_h7800c1:5" vType="default_016" speedFactor="1.12" vaporized="">
        <emissions CO_abs="1090.237490" CO2_abs="52943.944260" HC_abs="6.178999" PMx_abs="0.842765" NOx_abs="21.321633" fuel_abs="22.758686" electricity_abs="0"/>
    </tripinfo>
    <tripinfo id="carIn60260:1" depart="57606.00" departLane="315358254#0_1" departPos="5.10" departSpeed="0.00" departDelay="0.90" arrival="57737.00" arrivalLane="399835085#1_1" arrivalPos="212.23" arrivalSpeed="7.65" duration="131.00" routeLength="430.98" waitingTime="70.00" waitingCount="1" stopTime="0.00" timeLoss="80.81" rerouteNo="1" devices="tripinfo_carIn60260:1 routing_carIn60260:1 emissions_carIn60260:1" vType="default_016" speedFactor="0.93" vaporized="">
        <emissions CO_abs="13611.198062" CO2_abs="300306.468471" HC_abs="68.983988" PMx_abs="6.519040" NOx_abs="131.662396" fuel_abs="129.094638" electricity_abs="0"/>
    </tripinfo>
    <tripinfo id="h4538c1:1" depart="57701.00" departLane="-10427692#1_1" departPos="5.10" departSpeed="0.00" departDelay="0.00" arrival="57743.00" arrivalLane="-128361102#1_1" arrivalPos="274.68" arrivalSpeed="14.67" duration="42.00" routeLength="440.74" waitingTime="3.00" waitingCount="1" stopTime="0.00" timeLoss="13.02" rerouteNo="1" devices="tripinfo_h4538c1:1 routing_h4538c1:1 emissions_h4538c1:1" vType="default_016" speedFactor="1.09" vaporized="">
        <emissions CO_abs="1893.592432" CO2_abs="119531.505018" HC_abs="11.396078" PMx_abs="2.126908" NOx_abs="48.640723" fuel_abs="51.381531" electricity_abs="0"/>
    </tripinfo>
    <tripinfo id="h5979c1:5" depart="57669.00" departLane="399835085#1_1" departPos="5.10" departSpeed="0.00" departDelay="0.00" arrival="57745.00" arrivalLane="-315358254#1_1" arrivalPos="137.16" arrivalSpeed="14.27" duration="76.00" routeLength="659.33" waitingTime="0.00" waitingCount="0" stopTime="0.00" timeLoss="10.80" rerouteNo="1" devices="tripinfo_h5979c1:5 routing_h5979c1:5 emissions_h5979c1:5" vType="default_016" speedFactor="1.12" vaporized="">
        <emissions CO_abs="3041.667006" CO2_abs="168864.611052" HC_abs="17.759233" PMx_abs="2.785998" NOx_abs="68.241136" fuel_abs="72.588305" electricity_abs="0"/>
    </tripinfo>
    <tripinfo id="h3568c1:3" depart="57656.00" departLane="266565295#5_1" departPos="5.10" departSpeed="0.00" departDelay="0.80" arrival="57755.00" arrivalLane="-24634415_1" arrivalPos="62.03" arrivalSpeed="9.33" duration="99.00" routeLength="807.40" waitingTime="0.00" waitingCount="0" stopTime="0.00" timeLoss="13.87" rerouteNo="1" devices="tripinfo_h3568c1:3 routing_h3568c1:3 emissions_h3568c1:3" vType="default_016" speedFactor="0.76" vaporized="">
        <emissions CO_abs="3552.018564" CO2_abs="191145.604019" HC_abs="20.584488" PMx_abs="3.090327" NOx_abs="77.001919" fuel_abs="82.166208" electricity_abs="0"/>
    </tripinfo>
    <tripinfo id="h3326c1:2" depart="57656.00" departLane="22716069#0_1" departPos="5.10" departSpeed="0.00" departDelay="0.00" arrival="57761.00" arrivalLane="24634517#13_1" arrivalPos="111.62" arrivalSpeed="14.44" duration="105.00" routeLength="1312.81" waitingTime="0.00" waitingCount="0" stopTime="0.00" timeLoss="14.07" rerouteNo="1" devices="tripinfo_h3326c1:2 routing_h3326c1:2 emissions_h3326c1:2" vType="default_016" speedFactor="1.07" vaporized="">
        <emissions CO_abs="4240.603151" CO2_abs="320398.542278" HC_abs="26.784128" PMx_abs="5.693113" NOx_abs="130.057492" fuel_abs="137.725091" electricity_abs="0"/>
    </tripinfo>
    <tripinfo id="carIn27009:1" depart="57673.00" departLane="-447569998#1_1" departPos="5.10" departSpeed="0.00" departDelay="0.50" arrival="57767.00" arrivalLane="-26677539_1" arrivalPos="152.75" arrivalSpeed="7.78" duration="94.00" routeLength="699.63" waitingTime="0.00" waitingCount="0" stopTime="0.00" timeLoss="12.18" rerouteNo="1" devices="tripinfo_carIn27009:1 routing_carIn27009:1 emissions_carIn27009:1" vType="default_015" speedFactor="1.03" vaporized="">
        <emissions CO_abs="3561.105701" CO2_abs="168885.183231" HC_abs="20.093905" PMx_abs="2.736745" NOx_abs="68.513576" fuel_abs="72.597608" electricity_abs="0"/>
    </tripinfo>
    <tripinfo id="h317c2:1" depart="57707.00" departLane="-32978638#0_1" departPos="5.10" departSpeed="0.00" departDelay="0.10" arrival="57773.00" arrivalLane="-266565295#5_1" arrivalPos="172.76" arrivalSpeed="15.01" duration="66.00" routeLength="370.53" waitingTime="32.00" waitingCount="1" stopTime="0.00" timeLoss="40.89" rerouteNo="1" devices="tripinfo_h317c2:1 routing_h317c2:1 emissions_h317c2:1" vType="default_016" speedFactor="1.10" vaporized="">
        <emissions CO_abs="6393.685821" CO2_abs="201652.570466" HC_abs="33.853693" PMx_abs="4.186349" NOx_abs="86.351553" fuel_abs="86.683687" electricity_abs="0"/>
    </tripinfo>
    <tripinfo id="h330c1:1" depart="57736.00" departLane="-32978638#0_1" departPos="5.10" departSpeed="0.00" departDelay="0.20" arrival="57775.00" arrivalLane="-266565295#5_1" arrivalPos="172.76" arrivalSpeed="14.82" duration="39.00" routeLength="370.53" waitingTime="4.00" waitingCount="1" stopTime="0.00" timeLoss="14.65" rerouteNo="1" devices="tripinfo_h330c1:1 routing_h330c1:1 emissions_h330c1:1" vType="default_016" speedFactor="1.14" vaporized="">
        <emissions CO_abs="2301.329859" CO2_abs="134164.090453" HC_abs="13.623326" PMx_abs="2.538336" NOx_abs="55.807333" fuel_abs="57.671357" electricity_abs="0"/>
    </tripinfo>
    <tripinfo id="carIn107282:1" depart="57749.00" departLane="-447569998#1_1" departPos="5.10" departSpeed="0.00" departDelay="0.00" arrival="57794.00" arrivalLane="315358242#0_1" arrivalPos="165.37" arrivalSpeed="14.17" duration="45.00" routeLength="448.50" waitingTime="0.00" waitingCount="0" stopTime="0.00" timeLoss="4.63" rerouteNo="1" devices="tripinfo_carIn107282:1 routing_carIn107282:1 emissions_carIn107282:1" vType="default_016" speedFactor="1.04" vaporized="">
        <emissions CO_abs="1819.256963" CO2_abs="113367.177317" HC_abs="10.920977" PMx_abs="1.896491" NOx_abs="45.654393" fuel_abs="48.731927" electricity_abs="0"/>
    </tripinfo>
    <tripinfo id="h11737c1:1" depart="57665.00" departLane="272042143_1" departPos="5.10" departSpeed="0.00" departDelay="1.50" arrival="57802.00" arrivalLane="-315358254#1_1" arrivalPos="137.16" arrivalSpeed="13.39" duration="137.00" routeLength="1596.88" waitingTime="3.00" waitingCount="1" stopTime="0.00" timeLoss="20.02" rerouteNo="1" devices="tripinfo_h11737c1:1 routing_h11737c1:1 emissions_h11737c1:1" vType="default_016" speedFactor="1.00" vaporized="">
        <emissions CO_abs="4182.354273" CO2_abs="336628.036816" HC_abs="26.902181" PMx_abs="5.472201" NOx_abs="133.206609" fuel_abs="144.702007" electricity_abs="0"/>
    </tripinfo>
    <tripinfo id="carIn126288:1" depart="57674.00" departLane="272042143_1" departPos="5.10" departSpeed="0.00" departDelay="0.00" arrival="57804.00" arrivalLane="-315358254#1_1" arrivalPos="137.16" arrivalSpeed="15.82" duration="130.00" routeLength="1596.88" waitingTime="0.00" waitingCount="0" stopTime="0.00" timeLoss="30.08" rerouteNo="1" devices="tripinfo_carIn126288:1 routing_carIn126288:1 emissions_carIn126288:1" vType="default_016" speedFactor="1.17" vaporized="">
        <emissions CO_abs="5094.418815" CO2_abs="393380.348463" HC_abs="32.430935" PMx_abs="6.732873" NOx_abs="157.581974" fuel_abs="169.097086" electricity_abs="0"/>
    </tripinfo>
    <tripinfo id="carIn129809:1" depart="57729.00" departLane="-447569998#1_1" departPos="5.10" departSpeed="0.00" departDelay="1.00" arrival="57804.00" arrivalLane="-315358244_1" arrivalPos="33.95" arrivalSpeed="11.70" duration="75.00" routeLength="706.49" waitingTime="0.00" waitingCount="0" stopTime="0.00" timeLoss="7.65" rerouteNo="1" devices="tripinfo_carIn129809:1 routing_carIn129809:1 emissions_carIn129809:1" vType="default_015" speedFactor="0.90" vaporized="">
        <emissions CO_abs="2637.296833" CO2_abs="153323.950400" HC_abs="15.542687" PMx_abs="2.396991" NOx_abs="60.881449" fuel_abs="65.908102" electricity_abs="0"/>
    </tripinfo>
    <tripinfo id="h17549c1:1" depart="57680.00" departLane="-447569998#1_1" departPos="5.10" departSpeed="0.00" departDelay="0.00" arrival="57813.00" arrivalLane="-315358254#1_1" arrivalPos="137.16" arrivalSpeed="14.66" duration="133.00" routeLength="1743.98" waitingTime="0.00" waitingCount="0" stopTime="0.00" timeLoss="13.01" rerouteNo="1" devices="tripinfo_h17549c1:1 routing_h17549c1:1 emissions_h17549c1:1" vType="default_016" speedFactor="1.14" vaporized="">
        <emissions CO_abs="3811.147931" CO2_abs="346311.364697" HC_abs="25.291041" PMx_abs="5.642264" NOx_abs="135.633359" fuel_abs="148.864135" electricity_abs="0"/>
    </tripinfo>
    <tripinfo id="h7181c1:1" depart="57660.00" departLane="315358254#0_1" departPos="5.10" departSpeed="0.00" departDelay="0.10" arrival="57816.00" arrivalLane="306240162#0_0" arrivalPos="220.43" arrivalSpeed="17.45" duration="156.00" routeLength="932.35" waitingTime="83.00" waitingCount="2" stopTime="0.00" timeLoss="108.85" rerouteNo="1" devices="tripinfo_h7181c1:1 routing_h7181c1:1 emissions_h7181c1:1" vType="default_016" speedFactor="1.09" vaporized="">
        <emissions CO_abs="17775.008185" CO2_abs="530291.373362" HC_abs="93.610015" PMx_abs="11.856377" NOx_abs="231.869806" fuel_abs="227.954115" electricity_abs="0"/>
    </tripinfo>
    <tripinfo id="carIn12365:1" depart="57713.00" departLane="315358244_1" departPos="5.10" departSpeed="0.00" departDelay="0.50" arrival="57836.00" arrivalLane="447569997#1_2" arrivalPos="180.93" arrivalSpeed="8.75" duration="123.00" routeLength="718.04" waitingTime="49.00" waitingCount="1" stopTime="0.00" timeLoss="67.23" rerouteNo="1" devices="tripinfo_carIn12365:1 routing_carIn12365:1 emissions_carIn12365:1" vType="default_016" speedFactor="1.11" vaporized="">
        <emissions CO_abs="9775.535930" CO2_abs="280171.991671" HC_abs="50.959019" PMx_abs="5.516430" NOx_abs="117.981277" fuel_abs="120.437774" electricity_abs="0"/>
    </tripinfo>
    <tripinfo id="carIn30817:1" depart="57681.00" departLane="315358244_1" departPos="5.10" departSpeed="0.00" departDelay="0.20" arrival="57841.00" arrivalLane="447569997#1_1" arrivalPos="180.93" arrivalSpeed="6.40" duration="160.00" routeLength="718.04" waitingTime="67.00" waitingCount="3" stopTime="0.00" timeLoss="85.73" rerouteNo="1" devices="tripinfo_carIn30817:1 routing_carIn30817:1 emissions_carIn30817:1" vType="default_016" speedFactor="0.83" vaporized="">
        <emissions CO_abs="13021.682120" CO2_abs="329467.354336" HC_abs="66.963321" PMx_abs="6.752796" NOx_abs="141.734758" fuel_abs="141.629201" electricity_abs="0"/>
    </tripinfo>
    <tripinfo id="randUni15030:1" depart="57735.00" departLane="386687232#0_1" departPos="5.10" departSpeed="0.00" departDelay="0.10" arrival="57843.00" arrivalLane="26677539_1" arrivalPos="151.98" arrivalSpeed="6.58" duration="108.00" routeLength="919.89" waitingTime="0.00" waitingCount="0" stopTime="0.00" timeLoss="13.14" rerouteNo="1" devices="tripinfo_randUni15030:1 routing_randUni15030:1 emissions_randUni15030:1" vType="random_016" speedFactor="0.88" vaporized="">
        <emissions CO_abs="3561.643512" CO2_abs="198309.184166" HC_abs="20.753242" PMx_abs="2.956540" NOx_abs="78.008954" fuel_abs="85.245861" electricity_abs="0"/>
    </tripinfo>
    <tripinfo id="carIn118538:1" depart="57683.00" departLane="-447569998#1_1" departPos="5.10" departSpeed="0.00" departDelay="1.00" arrival="57861.00" arrivalLane="399835085#1_1" arrivalPos="212.23" arrivalSpeed="8.24" duration="178.00" routeLength="1907.17" waitingTime="0.00" waitingCount="0" stopTime="0.00" timeLoss="15.19" rerouteNo="1" devices="tripinfo_carIn118538:1 routing_carIn118538:1 emissions_carIn118538:1" vType="default_016" speedFactor="1.00" vaporized="">
        <emissions CO_abs="4738.296470" CO2_abs="360589.395177" HC_abs="29.872247" PMx_abs="5.274639" NOx_abs="139.300024" fuel_abs="155.003048" electricity_abs="0"/>
    </tripinfo>
    <tripinfo id="carIn22761:1" depart="57616.00" departLane="-306240162#1_0" departPos="5.10" departSpeed="0.00" departDelay="2.10" arrival="57869.00" arrivalLane="399835085#1_1" arrivalPos="212.23" arrivalSpeed="8.56" duration="253.00" routeLength="1093.26" waitingTime="153.00" waitingCount="2" stopTime="0.00" timeLoss="184.77" rerouteNo="1" devices="tripinfo_carIn22761:1 routing_carIn22761:1 emissions_carIn22761:1" vType="default_016" speedFactor="1.14" vaporized="">
        <emissions CO_abs="29494.280033" CO2_abs="720794.357598" HC_abs="151.344933" PMx_abs="16.181937" NOx_abs="316.548710" fuel_abs="309.849189" electricity_abs="0"/>
    </tripinfo>
    <tripinfo id="carIn12152:1" depart="57647.00" departLane="24599188#0.94_1" departPos="5.10" departSpeed="0.00" departDelay="0.50" arrival="57875.00" arrivalLane="-315358254#1_1" arrivalPos="137.16" arrivalSpeed="12.20" duration="228.00" routeLength="2034.31" waitingTime="34.00" waitingCount="2" stopTime="0.00" timeLoss="59.37" rerouteNo="1" devices="tripinfo_carIn12152:1 routing_carIn12152:1 emissions_carIn12152:1" vType="default_016" speedFactor="0.94" vaporized="">
        <emissions CO_abs="10740.864847" CO2_abs="518313.609300" HC_abs="60.971816" PMx_abs="8.903671" NOx_abs="209.741933" fuel_abs="222.803663" electricity_abs="0"/>
    </tripinfo>
    <tripinfo id="carIn53503:1" depart="57763.00" departLane="-306240162#1_0" departPos="5.10" departSpeed="0.00" departDelay="2.40" arrival="57875.00" arrivalLane="24634510#6_1" arrivalPos="76.64" arrivalSpeed="13.17" duration="112.00" routeLength="1440.47" waitingTime="0.00" waitingCount="0" stopTime="0.00" timeLoss="13.52" rerouteNo="1" devices="tripinfo_carIn53503:1 routing_carIn53503:1 emissions_carIn53503:1" vType="default_016" speedFactor="1.01" vaporized="">
        <emissions CO_abs="3386.904741" CO2_abs="297134.927299" HC_abs="22.248963" PMx_abs="4.830698" NOx_abs="116.364989" fuel_abs="127.725446" electricity_abs="0"/>
    </tripinfo>
    <tripinfo id="randUni3548:1" depart="57726.00" departLane="-447569998#1_1" departPos="5.10" departSpeed="0.00" departDelay="0.00" arrival="57876.00" arrivalLane="-315358254#1_1" arrivalPos="137.16" arrivalSpeed="14.96" duration="150.00" routeLength="1746.60" waitingTime="12.00" waitingCount="1" stopTime="0.00" timeLoss="30.80" rerouteNo="1" devices="tripinfo_randUni3548:1 routing_randUni3548:1 emissions_randUni3548:1" vType="random_016" speedFactor="1.15" vaporized="">
        <emissions CO_abs="6471.057179" CO2_abs="414778.287957" HC_abs="39.178538" PMx_abs="7.468347" NOx_abs="168.577265" fuel_abs="178.295490" electricity_abs="0"/>
    </tripinfo>
    <tripinfo id="carIn73855:1" depart="57743.00" departLane="386687232#0_1" departPos="5.10" departSpeed="0.00" departDelay="0.50" arrival="57883.00" arrivalLane="-315358244_2" arrivalPos="33.95" arrivalSpeed="11.76" duration="140.00" routeLength="1157.39" waitingTime="33.00" waitingCount="2" stopTime="0.00" timeLoss="50.13" rerouteNo="1" devices="tripinfo_carIn73855:1 routing_carIn73855:1 emissions_carIn73855:1" vType="default_016" speedFactor="0.94" vaporized="">
        <emissions CO_abs="8230.242343" CO2_abs="344621.018755" HC_abs="45.514914" PMx_abs="6.187514" NOx_abs="141.220685" fuel_abs="148.140224" electricity_abs="0"/>
    </tripinfo>
    <tripinfo id="carIn8642:1" depart="57774.00" departLane="-447569998#1_1" departPos="5.10" departSpeed="0.00" departDelay="0.90" arrival="57883.00" arrivalLane="-315358244_1" arrivalPos="33.95" arrivalSpeed="14.91" duration="109.00" routeLength="706.49" waitingTime="42.00" waitingCount="1" stopTime="0.00" timeLoss="53.00" rerouteNo="1" devices="tripinfo_carIn8642:1 routing_carIn8642:1 emissions_carIn8642:1" vType="default_016" speedFactor="1.09" vaporized="">
        <emissions CO_abs="8887.824382" CO2_abs="287192.030560" HC_abs="47.199940" PMx_abs="5.651992" NOx_abs="120.964919" fuel_abs="123.454531" electricity_abs="0"/>
    </tripinfo>
    <tripinfo id="carIn126378:1" depart="57746.00" departLane="386687232#0_1" departPos="5.10" departSpeed="0.00" departDelay="1.80" arrival="57885.00" arrivalLane="-315358244_2" arrivalPos="33.95" arrivalSpeed="12.33" duration="139.00" routeLength="1157.39" waitingTime="30.00" waitingCount="2" stopTime="0.00" timeLoss="49.29" rerouteNo="1" devices="tripinfo_carIn126378:1 routing_carIn126378:1 emissions_carIn126378:1" vType="default_016" speedFactor="0.94" vaporized="">
        <emissions CO_abs="8271.875420" CO2_abs="337077.803277" HC_abs="45.544253" PMx_abs="6.184460" NOx_abs="139.186362" fuel_abs="144.897633" electricity_abs="0"/>
    </tripinfo>
    <tripinfo id="carIn121703:1" depart="57647.00" departLane="386687232#0_1" departPos="5.10" departSpeed="0.00" departDelay="0.30" arrival="57886.00" arrivalLane="-315358244_1" arrivalPos="33.95" arrivalSpeed="12.25" duration="239.00" routeLength="1157.39" waitingTime="128.00" waitingCount="2" stopTime="0.00" timeLoss="148.41" rerouteNo="1" devices="tripinfo_carIn121703:1 routing_carIn121703:1 emissions_carIn121703:1" vType="default_016" speedFactor="0.93" vaporized="">
        <emissions CO_abs="23683.335465" CO2_abs="583245.422157" HC_abs="121.505785" PMx_abs="12.389568" NOx_abs="252.218425" fuel_abs="250.721634" electricity_abs="0"/>
    </tripinfo>
    <tripinfo id="carIn70533:1" depart="57812.00" departLane="-447569998#1_1" departPos="5.10" departSpeed="0.00" departDelay="0.10" arrival="57887.00" arrivalLane="-315358244_1" arrivalPos="33.95" arrivalSpeed="13.91" duration="75.00" routeLength="706.49" waitingTime="7.00" waitingCount="1" stopTime="0.00" timeLoss="21.66" rerouteNo="1" devices="tripinfo_carIn70533:1 routing_carIn70533:1 emissions_carIn70533:1" vType="default_016" speedFactor="1.13" vaporized="">
        <emissions CO_abs="3354.126547" CO2_abs="195185.190623" HC_abs="19.776565" PMx_abs="3.363752" NOx_abs="79.049105" fuel_abs="83.902205" electricity_abs="0"/>
    </tripinfo>
    <tripinfo id="carIn13443:1" depart="57729.00" departLane="272042143_1" departPos="5.10" departSpeed="0.00" departDelay="0.80" arrival="57898.00" arrivalLane="399835085#1_1" arrivalPos="212.23" arrivalSpeed="6.41" duration="169.00" routeLength="1757.45" waitingTime="0.00" waitingCount="0" stopTime="0.00" timeLoss="14.98" rerouteNo="1" devices="tripinfo_carIn13443:1 routing_carIn13443:1 emissions_carIn13443:1" vType="default_016" speedFactor="0.92" vaporized="">
        <emissions CO_abs="4467.396037" CO2_abs="334827.036393" HC_abs="28.025270" PMx_abs="4.765856" NOx_abs="128.804880" fuel_abs="143.929063" electricity_abs="0"/>
    </tripinfo>
    <tripinfo id="randUni23028:1" depart="57884.00" departLane="124812856#0_1" departPos="5.10" departSpeed="0.00" departDelay="0.10" arrival="57900.00" arrivalLane="201956810_1" arrivalPos="71.65" arrivalSpeed="13.54" duration="16.00" routeLength="134.91" waitingTime="0.00" waitingCount="0" stopTime="0.00" timeLoss="4.97" rerouteNo="1" devices="tripinfo_randUni23028:1 routing_randUni23028:1 emissions_randUni23028:1" vType="random_016" speedFactor="0.99" vaporized="">
        <emissions CO_abs="1300.776137" CO2_abs="68056.475320" HC_abs="7.528592" PMx_abs="1.286920" NOx_abs="28.601271" fuel_abs="29.254632" electricity_abs="0"/>
    </tripinfo>
    <tripinfo id="h3688c1:1" depart="57625.00" departLane="201201950#1_1" departPos="5.10" departSpeed="0.00" departDelay="0.00" arrival="57905.00" arrivalLane="32978638#0_1" arrivalPos="49.29" arrivalSpeed="13.80" duration="280.00" routeLength="1089.75" waitingTime="182.00" waitingCount="2" stopTime="0.00" timeLoss="199.26" rerouteNo="1" devices="tripinfo_h3688c1:1 routing_h3688c1:1 emissions_h3688c1:1" vType="default_016" speedFactor="0.99" vaporized="">
        <emissions CO_abs="32217.941031" CO2_abs="729734.546568" HC_abs="163.849386" PMx_abs="16.166252" NOx_abs="319.841887" fuel_abs="313.694596" electricity_abs="0"/>
    </tripinfo>
    <tripinfo id="h16072c2:3" depart="57663.00" departLane="315358254#0_1" departPos="5.10" departSpeed="0.00" departDelay="2.50" arrival="57905.00" arrivalLane="386687235_2" arrivalPos="80.84" arrivalSpeed="15.42" duration="242.00" routeLength="1611.92" waitingTime="84.00" waitingCount="4" stopTime="0.00" timeLoss="137.32" rerouteNo="1" devices="tripinfo_h16072c2:3 routing_h16072c2:3 emissions_h16072c2:3" vType="default_016" speedFactor="1.12" vaporized="">
        <emissions CO_abs="16803.037783" CO2_abs="570157.395079" HC_abs="89.776874" PMx_abs="10.966669" NOx_abs="238.295442" fuel_abs="245.091832" electricity_abs="0"/>
    </tripinfo>
    <tripinfo id="carIn81681:1" depart="57726.00" departLane="272042143_1" departPos="5.10" departSpeed="0.00" departDelay="0.30" arrival="57911.00" arrivalLane="306240162#0_0" arrivalPos="220.43" arrivalSpeed="16.41" duration="185.00" routeLength="2246.89" waitingTime="12.00" waitingCount="1" stopTime="0.00" timeLoss="37.67" rerouteNo="1" devices="tripinfo_carIn81681:1 routing_carIn81681:1 emissions_carIn81681:1" vType="default_016" speedFactor="1.00" vaporized="">
        <emissions CO_abs="8149.149314" CO2_abs="542453.854199" HC_abs="49.967834" PMx_abs="9.918375" NOx_abs="220.903550" fuel_abs="233.177347" electricity_abs="0"/>
    </tripinfo>
    <tripinfo id="h13377c2:3" depart="57808.00" departLane="315358244_1" departPos="5.10" departSpeed="0.00" departDelay="4.60" arrival="57912.00" arrivalLane="447569997#1_1" arrivalPos="180.93" arrivalSpeed="7.68" duration="104.00" routeLength="718.04" waitingTime="25.00" waitingCount="1" stopTime="0.00" timeLoss="38.66" rerouteNo="1" devices="tripinfo_h13377c2:3 routing_h13377c2:3 emissions_h13377c2:3" vType="default_016" speedFactor="0.94" vaporized="">
        <emissions CO_abs="6254.660103" CO2_abs="222130.831067" HC_abs="33.667498" PMx_abs="4.213451" NOx_abs="93.065638" fuel_abs="95.486491" electricity_abs="0"/>
    </tripinfo>
    <tripinfo id="carIn80913:1" depart="57732.00" departLane="272042143_1" departPos="5.10" departSpeed="0.00" departDelay="0.40" arrival="57913.00" arrivalLane="306240162#0_0" arrivalPos="220.43" arrivalSpeed="16.07" duration="181.00" routeLength="2246.89" waitingTime="2.00" waitingCount="1" stopTime="0.00" timeLoss="32.92" rerouteNo="1" devices="tripinfo_carIn80913:1 routing_carIn80913:1 emissions_carIn80913:1" vType="default_016" speedFactor="1.00" vaporized="">
        <emissions CO_abs="7834.017097" CO2_abs="565204.488321" HC_abs="49.031281" PMx_abs="10.360063" NOx_abs="231.239238" fuel_abs="242.956151" electricity_abs="0"/>
    </tripinfo>
    <tripinfo id="carIn14532:1" depart="57743.00" departLane="272042143_1" departPos="5.10" departSpeed="0.00" departDelay="1.90" arrival="57913.00" arrivalLane="399835085#1_1" arrivalPos="212.23" arrivalSpeed="6.92" duration="170.00" routeLength="1757.45" waitingTime="4.00" waitingCount="1" stopTime="0.00" timeLoss="20.64" rerouteNo="1" devices="tripinfo_carIn14532:1 routing_carIn14532:1 emissions_carIn14532:1" vType="default_016" speedFactor="0.95" vaporized="">
        <emissions CO_abs="4837.722933" CO2_abs="349874.806547" HC_abs="30.113932" PMx_abs="5.365614" NOx_abs="137.056852" fuel_abs="150.397068" electricity_abs="0"/>
    </tripinfo>
    <tripinfo id="h5216c1:1" depart="57664.00" departLane="224892339#0_1" departPos="5.10" departSpeed="0.00" departDelay="0.00" arrival="57918.00" arrivalLane="386687235_1" arrivalPos="80.84" arrivalSpeed="10.99" duration="254.00" routeLength="1823.78" waitingTime="70.00" waitingCount="3" stopTime="0.00" timeLoss="98.39" rerouteNo="1" devices="tripinfo_h5216c1:1 routing_h5216c1:1 emissions_h5216c1:1" vType="default_016" speedFactor="0.82" vaporized="">
        <emissions CO_abs="16011.726911" CO2_abs="561657.301792" HC_abs="85.989685" PMx_abs="10.493585" NOx_abs="233.530964" fuel_abs="241.437864" electricity_abs="0"/>
    </tripinfo>
    <tripinfo id="carIn121351:1" depart="57755.00" departLane="-447569998#1_1" departPos="5.10" departSpeed="0.00" departDelay="0.30" arrival="57931.00" arrivalLane="399835085#1_1" arrivalPos="212.23" arrivalSpeed="8.46" duration="176.00" routeLength="1907.17" waitingTime="3.00" waitingCount="1" stopTime="0.00" timeLoss="23.65" rerouteNo="1" devices="tripinfo_carIn121351:1 routing_carIn121351:1 emissions_carIn121351:1" vType="default_015" speedFactor="1.06" vaporized="">
        <emissions CO_abs="5290.866518" CO2_abs="376016.007469" HC_abs="32.840523" PMx_abs="6.158004" NOx_abs="149.414646" fuel_abs="161.633635" electricity_abs="0"/>
    </tripinfo>
    <tripinfo id="h9953c2:3" depart="57682.00" departLane="-54169231#2_1" departPos="5.10" departSpeed="0.00" departDelay="0.00" arrival="57935.00" arrivalLane="386687235_1" arrivalPos="80.84" arrivalSpeed="14.32" duration="253.00" routeLength="1535.60" waitingTime="92.00" waitingCount="4" stopTime="0.00" timeLoss="131.74" rerouteNo="1" devices="tripinfo_h9953c2:3 routing_h9953c2:3 emissions_h9953c2:3" vType="default_016" speedFactor="1.03" vaporized="">
        <emissions CO_abs="19484.046254" CO2_abs="610081.328545" HC_abs="102.970130" PMx_abs="12.011327" NOx_abs="257.442758" fuel_abs="262.254618" electricity_abs="0"/>
    </tripinfo>
    <tripinfo id="carIn129628:1" depart="57739.00" departLane="24599188#0.94_1" departPos="5.10" departSpeed="0.00" departDelay="0.50" arrival="57937.00" arrivalLane="-315358254#1_1" arrivalPos="137.16" arrivalSpeed="12.25" duration="198.00" routeLength="2034.31" waitingTime="9.00" waitingCount="1" stopTime="0.00" timeLoss="29.21" rerouteNo="1" devices="tripinfo_carIn129628:1 routing_carIn129628:1 emissions_carIn129628:1" vType="default_016" speedFactor="0.94" vaporized="">
        <emissions CO_abs="6864.111240" CO2_abs="445245.718607" HC_abs="41.602148" PMx_abs="7.175486" NOx_abs="176.939032" fuel_abs="191.393225" electricity_abs="0"/>
    </tripinfo>
    <tripinfo id="h11868c1:5" depart="57700.00" departLane="315358254#0_1" departPos="5.10" departSpeed="0.00" departDelay="0.10" arrival="57938.00" arrivalLane="386687235_1" arrivalPos="80.84" arrivalSpeed="13.00" duration="238.00" routeLength="1611.92" waitingTime="87.00" waitingCount="3" stopTime="0.00" timeLoss="122.37" rerouteNo="1" devices="tripinfo_h11868c1:5 routing_h11868c1:5 emissions_h11868c1:5" vType="default_016" speedFactor="1.02" vaporized="">
        <emissions CO_abs="17286.353174" CO2_abs="560988.984139" HC_abs="91.811286" PMx_abs="10.964858" NOx_abs="235.572357" fuel_abs="241.151022" electricity_abs="0"/>
    </tripinfo>
    <tripinfo id="randUni31145:1" depart="57911.00" departLane="10425609#0_1" departPos="5.10" departSpeed="0.00" departDelay="97.30" arrival="57939.00" arrivalLane="201956810_1" arrivalPos="71.65" arrivalSpeed="11.49" duration="28.00" routeLength="255.78" waitingTime="0.00" waitingCount="0" stopTime="0.00" timeLoss="5.42" rerouteNo="1" devices="tripinfo_randUni31145:1 routing_randUni31145:1 emissions_randUni31145:1" vType="random_016" speedFactor="0.91" vaporized="">