<?xml version="1.0" encoding="UTF-8"?>

<!-- generated on Thu Nov  4 14:18:37 2021 by Eclipse SUMO sumo Version 1.9.0
<configuration xmlns:xsi="http://www.w3.org/2001/XMLSchema-instance" xsi:noNamespaceSchemaLocation="http://sumo.dlr.de/xsd/sumoConfiguration.xsd">

    <input>
        <net-file value="/mainfs/home/bk2g18/RESCO/environments/ingolstadt21/ingolstadt21.net.xml"/>
        <route-files value="/mainfs/home/bk2g18/RESCO/environments/ingolstadt21/ingolstadt21.rou.xml"/>
    </input>

    <output>
        <tripinfo-output value="/mainfs/home/bk2g18/RESCO/logs/MPLight-tr0-ingolstadt21-21-mplight_full-pressure/tripinfo_83.xml"/>
        <tripinfo-output.write-unfinished value="true"/>
    </output>

    <time>
        <begin value="57600"/>
        <end value="61200"/>
    </time>

    <processing>
        <time-to-teleport value="-1"/>
    </processing>

    <report>
        <xml-validation value="never"/>
        <xml-validation.routes value="never"/>
        <no-warnings value="true"/>
        <no-step-log value="true"/>
    </report>

    <emissions>
        <device.emissions.probability value="1"/>
    </emissions>

    <traci_server>
        <remote-port value="39316"/>
    </traci_server>

    <random_number>
        <random value="true"/>
    </random_number>

</configuration>
-->

<tripinfos xmlns:xsi="http://www.w3.org/2001/XMLSchema-instance" xsi:noNamespaceSchemaLocation="http://sumo.dlr.de/xsd/tripinfo_file.xsd">
    <tripinfo id="carIn60260:1" depart="57606.00" departLane="315358254#0_1" departPos="5.10" departSpeed="0.00" departDelay="0.90" arrival="57663.00" arrivalLane="399835085#1_1" arrivalPos="212.23" arrivalSpeed="7.79" duration="57.00" routeLength="430.98" waitingTime="1.00" waitingCount="1" stopTime="0.00" timeLoss="10.78" rerouteNo="1" devices="tripinfo_carIn60260:1 routing_carIn60260:1 emissions_carIn60260:1" vType="default_016" speedFactor="1.00" vaporized="">
        <emissions CO_abs="2532.149397" CO2_abs="122980.616912" HC_abs="14.379009" PMx_abs="2.098457" NOx_abs="50.413882" fuel_abs="52.864705" electricity_abs="0"/>
    </tripinfo>
    <tripinfo id="carIn53971:1" depart="57640.00" departLane="272042143_1" departPos="5.10" departSpeed="0.00" departDelay="0.80" arrival="57693.00" arrivalLane="24634414#1_1" arrivalPos="162.19" arrivalSpeed="6.96" duration="53.00" routeLength="493.04" waitingTime="0.00" waitingCount="0" stopTime="0.00" timeLoss="6.56" rerouteNo="1" devices="tripinfo_carIn53971:1 routing_carIn53971:1 emissions_carIn53971:1" vType="default_016" speedFactor="0.98" vaporized="">
        <emissions CO_abs="2185.574824" CO2_abs="128604.309408" HC_abs="12.959069" PMx_abs="2.233362" NOx_abs="52.556981" fuel_abs="55.281705" electricity_abs="0"/>
    </tripinfo>
    <tripinfo id="carIn80064:1" depart="57603.00" departLane="128361109#1_1" departPos="5.10" departSpeed="0.00" departDelay="0.40" arrival="57719.00" arrivalLane="-315358254#1_1" arrivalPos="137.16" arrivalSpeed="14.24" duration="116.00" routeLength="1587.97" waitingTime="6.00" waitingCount="1" stopTime="0.00" timeLoss="31.25" rerouteNo="1" devices="tripinfo_carIn80064:1 routing_carIn80064:1 emissions_carIn80064:1" vType="default_016" speedFactor="1.05" vaporized="">
        <emissions CO_abs="7485.437216" CO2_abs="489362.746696" HC_abs="45.862707" PMx_abs="9.854007" NOx_abs="203.686445" fuel_abs="210.354664" electricity_abs="0"/>
    </tripinfo>
    <tripinfo id="h3688c1:1" depart="57625.00" departLane="201201950#1_1" departPos="5.10" departSpeed="0.00" departDelay="0.00" arrival="57720.00" arrivalLane="32978638#0_1" arrivalPos="49.29" arrivalSpeed="14.69" duration="95.00" routeLength="1089.75" waitingTime="5.00" waitingCount="1" stopTime="0.00" timeLoss="19.26" rerouteNo="1" devices="tripinfo_h3688c1:1 routing_h3688c1:1 emissions_h3688c1:1" vType="default_016" speedFactor="1.06" vaporized="">
        <emissions CO_abs="3826.504728" CO2_abs="279628.976617" HC_abs="23.904168" PMx_abs="4.918138" NOx_abs="113.167562" fuel_abs="120.200247" electricity_abs="0"/>
    </tripinfo>
    <tripinfo id="h4538c1:1" depart="57701.00" departLane="-10427692#1_1" departPos="5.10" departSpeed="0.00" departDelay="0.00" arrival="57740.00" arrivalLane="-128361102#1_1" arrivalPos="274.68" arrivalSpeed="13.22" duration="39.00" routeLength="440.74" waitingTime="0.00" waitingCount="0" stopTime="0.00" timeLoss="6.10" rerouteNo="1" devices="tripinfo_h4538c1:1 routing_h4538c1:1 emissions_h4538c1:1" vType="default_016" speedFactor="0.99" vaporized="">
        <emissions CO_abs="1571.742056" CO2_abs="105464.348756" HC_abs="9.631014" PMx_abs="1.813308" NOx_abs="42.661043" fuel_abs="45.334660" electricity_abs="0"/>
    </tripinfo>
    <tripinfo id="h317c2:1" depart="57707.00" departLane="-32978638#0_1" departPos="5.10" departSpeed="0.00" departDelay="0.10" arrival="57742.00" arrivalLane="-266565295#5_1" arrivalPos="172.76" arrivalSpeed="12.56" duration="35.00" routeLength="370.53" waitingTime="0.00" waitingCount="0" stopTime="0.00" timeLoss="5.39" rerouteNo="1" devices="tripinfo_h317c2:1 routing_h317c2:1 emissions_h317c2:1" vType="default_016" speedFactor="0.93" vaporized="">
        <emissions CO_abs="1465.064984" CO2_abs="96175.638075" HC_abs="8.926378" PMx_abs="1.661397" NOx_abs="39.054062" fuel_abs="41.341841" electricity_abs="0"/>
    </tripinfo>
    <tripinfo id="h3326c1:2" depart="57656.00" departLane="22716069#0_1" departPos="5.10" departSpeed="0.00" departDelay="0.00" arrival="57762.00" arrivalLane="24634517#13_1" arrivalPos="111.62" arrivalSpeed="14.17" duration="106.00" routeLength="1312.81" waitingTime="0.00" waitingCount="0" stopTime="0.00" timeLoss="15.14" rerouteNo="1" devices="tripinfo_h3326c1:2 routing_h3326c1:2 emissions_h3326c1:2" vType="default_016" speedFactor="1.07" vaporized="">
        <emissions CO_abs="4048.153041" CO2_abs="309570.377108" HC_abs="25.672649" PMx_abs="5.384732" NOx_abs="124.808235" fuel_abs="133.070697" electricity_abs="0"/>
    </tripinfo>
    <tripinfo id="h330c1:1" depart="57736.00" departLane="-32978638#0_1" departPos="5.10" departSpeed="0.00" departDelay="0.20" arrival="57769.00" arrivalLane="-266565295#5_1" arrivalPos="172.76" arrivalSpeed="13.73" duration="33.00" routeLength="370.53" waitingTime="0.00" waitingCount="0" stopTime="0.00" timeLoss="5.36" rerouteNo="1" devices="tripinfo_h330c1:1 routing_h330c1:1 emissions_h330c1:1" vType="default_016" speedFactor="1.01" vaporized="">
        <emissions CO_abs="1654.165414" CO2_abs="115432.006427" HC_abs="10.247475" PMx_abs="2.006873" NOx_abs="46.769406" fuel_abs="49.619251" electricity_abs="0"/>
    </tripinfo>
    <tripinfo id="h15454c2:3" depart="57612.00" departLane="24608844_1" departPos="5.10" departSpeed="0.00" departDelay="0.50" arrival="57799.00" arrivalLane="32978638#0_1" arrivalPos="49.29" arrivalSpeed="10.67" duration="187.00" routeLength="354.79" waitingTime="134.00" waitingCount="2" stopTime="0.00" timeLoss="145.63" rerouteNo="1" devices="tripinfo_h15454c2:3 routing_h15454c2:3 emissions_h15454c2:3" vType="default_016" speedFactor="0.82" vaporized="">
        <emissions CO_abs="23441.149691" CO2_abs="450266.044527" HC_abs="117.277542" PMx_abs="10.416871" NOx_abs="201.327305" fuel_abs="193.560346" electricity_abs="0"/>
    </tripinfo>
    <tripinfo id="h3154c1:1" depart="57658.00" departLane="24634507_1" departPos="5.10" departSpeed="0.00" departDelay="0.00" arrival="57807.00" arrivalLane="-266565295#5_1" arrivalPos="172.76" arrivalSpeed="13.42" duration="149.00" routeLength="1206.22" waitingTime="35.00" waitingCount="2" stopTime="0.00" timeLoss="58.38" rerouteNo="1" devices="tripinfo_h3154c1:1 routing_h3154c1:1 emissions_h3154c1:1" vType="default_016" speedFactor="0.99" vaporized="">
        <emissions CO_abs="9149.572936" CO2_abs="401760.652081" HC_abs="51.096042" PMx_abs="7.573318" NOx_abs="167.284745" fuel_abs="172.701537" electricity_abs="0"/>
    </tripinfo>
    <tripinfo id="carIn81046:1" depart="57610.00" departLane="124812856#0_1" departPos="5.10" departSpeed="0.00" departDelay="1.50" arrival="57817.00" arrivalLane="-128361102#1_1" arrivalPos="274.68" arrivalSpeed="11.77" duration="207.00" routeLength="2250.49" waitingTime="5.00" waitingCount="1" stopTime="0.00" timeLoss="26.78" rerouteNo="1" devices="tripinfo_carIn81046:1 routing_carIn81046:1 emissions_carIn81046:1" vType="default_016" speedFactor="0.91" vaporized="">
        <emissions CO_abs="6394.850723" CO2_abs="470462.439638" HC_abs="40.056628" PMx_abs="7.450115" NOx_abs="185.813914" fuel_abs="202.232377" electricity_abs="0"/>
    </tripinfo>
    <tripinfo id="carIn77438:1" depart="57613.00" departLane="124812856#0_1" departPos="5.10" departSpeed="0.00" departDelay="0.10" arrival="57818.00" arrivalLane="-128361102#1_1" arrivalPos="274.68" arrivalSpeed="13.59" duration="205.00" routeLength="2232.46" waitingTime="14.00" waitingCount="2" stopTime="0.00" timeLoss="69.29" rerouteNo="1" devices="tripinfo_carIn77438:1 routing_carIn77438:1 emissions_carIn77438:1" vType="default_016" speedFactor="1.21" vaporized="">
        <emissions CO_abs="8593.256611" CO2_abs="568295.594383" HC_abs="52.531963" PMx_abs="10.115767" NOx_abs="231.282863" fuel_abs="244.285888" electricity_abs="0"/>
    </tripinfo>
    <tripinfo id="carIn107084:1" depart="57601.00" departLane="124812856#0_1" departPos="5.10" departSpeed="0.00" departDelay="0.70" arrival="57821.00" arrivalLane="-128361102#1_1" arrivalPos="274.68" arrivalSpeed="12.91" duration="220.00" routeLength="2250.49" waitingTime="19.00" waitingCount="3" stopTime="0.00" timeLoss="56.07" rerouteNo="1" devices="tripinfo_carIn107084:1 routing_carIn107084:1 emissions_carIn107084:1" vType="default_016" speedFactor="1.00" vaporized="">
        <emissions CO_abs="8521.559882" CO2_abs="541813.886088" HC_abs="51.479050" PMx_abs="9.492640" NOx_abs="220.069600" fuel_abs="232.902984" electricity_abs="0"/>
    </tripinfo>
    <tripinfo id="carIn12858:1" depart="57661.00" departLane="128361109#1_1" departPos="5.10" departSpeed="0.00" departDelay="0.90" arrival="57824.00" arrivalLane="399835085#1_1" arrivalPos="212.23" arrivalSpeed="6.10" duration="163.00" routeLength="1738.12" waitingTime="6.00" waitingCount="1" stopTime="0.00" timeLoss="33.02" rerouteNo="1" devices="tripinfo_carIn12858:1 routing_carIn12858:1 emissions_carIn12858:1" vType="default_016" speedFactor="0.88" vaporized="">
        <emissions CO_abs="7497.363461" CO2_abs="459345.801517" HC_abs="45.023670" PMx_abs="8.569313" NOx_abs="188.975130" fuel_abs="197.452969" electricity_abs="0"/>
    </tripinfo>
    <tripinfo id="randUni15030:1" depart="57735.00" departLane="386687232#0_1" departPos="5.10" departSpeed="0.00" departDelay="0.10" arrival="57825.00" arrivalLane="26677539_1" arrivalPos="151.98" arrivalSpeed="8.37" duration="90.00" routeLength="919.89" waitingTime="0.00" waitingCount="0" stopTime="0.00" timeLoss="11.40" rerouteNo="1" devices="tripinfo_randUni15030:1 routing_randUni15030:1 emissions_randUni15030:1" vType="random_016" speedFactor="1.06" vaporized="">
        <emissions CO_abs="3308.943568" CO2_abs="212509.793204" HC_abs="20.015662" PMx_abs="3.555958" NOx_abs="85.476539" fuel_abs="91.349219" electricity_abs="0"/>
    </tripinfo>
    <tripinfo id="carIn77943:1" depart="57607.00" departLane="124812856#0_1" departPos="5.10" departSpeed="0.00" departDelay="1.50" arrival="57828.00" arrivalLane="-128361102#1_1" arrivalPos="274.68" arrivalSpeed="12.74" duration="221.00" routeLength="2250.49" waitingTime="11.00" waitingCount="2" stopTime="0.00" timeLoss="49.88" rerouteNo="1" devices="tripinfo_carIn77943:1 routing_carIn77943:1 emissions_carIn77943:1" vType="default_016" speedFactor="0.97" vaporized="">
        <emissions CO_abs="7426.555431" CO2_abs="508521.542297" HC_abs="45.691172" PMx_abs="8.450194" NOx_abs="203.681986" fuel_abs="218.592218" electricity_abs="0"/>
    </tripinfo>
    <tripinfo id="carIn81860:1" depart="57712.00" departLane="128361102#0_1" departPos="5.10" departSpeed="0.00" departDelay="0.60" arrival="57835.00" arrivalLane="-24634517#17_1" arrivalPos="6.43" arrivalSpeed="7.90" duration="123.00" routeLength="1229.64" waitingTime="14.00" waitingCount="1" stopTime="0.00" timeLoss="37.85" rerouteNo="1" devices="tripinfo_carIn81860:1 routing_carIn81860:1 emissions_carIn81860:1" vType="default_016" speedFactor="1.06" vaporized="">
        <emissions CO_abs="6092.228880" CO2_abs="330317.344006" HC_abs="35.445789" PMx_abs="5.896416" NOx_abs="134.524509" fuel_abs="141.990155" electricity_abs="0"/>
    </tripinfo>
    <tripinfo id="h3568c1:3" depart="57656.00" departLane="266565295#5_1" departPos="5.10" departSpeed="0.00" departDelay="0.80" arrival="57846.00" arrivalLane="-24634415_1" arrivalPos="62.03" arrivalSpeed="12.71" duration="190.00" routeLength="807.40" waitingTime="99.00" waitingCount="2" stopTime="0.00" timeLoss="123.94" rerouteNo="1" devices="tripinfo_h3568c1:3 routing_h3568c1:3 emissions_h3568c1:3" vType="default_016" speedFactor="0.99" vaporized="">
        <emissions CO_abs="19619.288440" CO2_abs="499990.513061" HC_abs="101.113226" PMx_abs="10.908642" NOx_abs="218.928157" fuel_abs="214.931458" electricity_abs="0"/>
    </tripinfo>
    <tripinfo id="h11737c1:1" depart="57665.00" departLane="272042143_1" departPos="5.10" departSpeed="0.00" departDelay="1.50" arrival="57857.00" arrivalLane="-315358254#1_1" arrivalPos="137.16" arrivalSpeed="14.35" duration="192.00" routeLength="1596.88" waitingTime="60.00" waitingCount="1" stopTime="0.00" timeLoss="79.38" rerouteNo="1" devices="tripinfo_h11737c1:1 routing_h11737c1:1 emissions_h11737c1:1" vType="default_016" speedFactor="1.04" vaporized="">
        <emissions CO_abs="13178.682786" CO2_abs="507556.696055" HC_abs="71.889866" PMx_abs="9.570029" NOx_abs="209.702458" fuel_abs="218.180762" electricity_abs="0"/>
    </tripinfo>
    <tripinfo id="carIn126288:1" depart="57674.00" departLane="272042143_1" departPos="5.10" departSpeed="0.00" departDelay="0.00" arrival="57859.00" arrivalLane="-315358254#1_1" arrivalPos="137.16" arrivalSpeed="13.63" duration="185.00" routeLength="1596.88" waitingTime="56.00" waitingCount="1" stopTime="0.00" timeLoss="73.18" rerouteNo="1" devices="tripinfo_carIn126288:1 routing_carIn126288:1 emissions_carIn126288:1" vType="default_016" speedFactor="1.04" vaporized="">
        <emissions CO_abs="12539.404772" CO2_abs="473200.829331" HC_abs="68.191285" PMx_abs="9.034606" NOx_abs="196.421339" fuel_abs="203.412410" electricity_abs="0"/>
    </tripinfo>
    <tripinfo id="h19804c1:3" depart="57616.00" departLane="124812856#0_1" departPos="5.10" departSpeed="0.00" departDelay="0.50" arrival="57862.00" arrivalLane="-128361102#1_1" arrivalPos="274.68" arrivalSpeed="11.81" duration="246.00" routeLength="2250.49" waitingTime="17.00" waitingCount="3" stopTime="0.00" timeLoss="53.00" rerouteNo="1" devices="tripinfo_h19804c1:3 routing_h19804c1:3 emissions_h19804c1:3" vType="default_016" speedFactor="0.85" vaporized="">
        <emissions CO_abs="8453.178578" CO2_abs="505489.883749" HC_abs="50.203639" PMx_abs="8.146946" NOx_abs="201.821068" fuel_abs="217.290235" electricity_abs="0"/>
    </tripinfo>
    <tripinfo id="carIn107842:1" depart="57622.00" departLane="124812856#0_1" departPos="5.10" departSpeed="0.00" departDelay="0.90" arrival="57864.00" arrivalLane="-128361102#1_1" arrivalPos="274.68" arrivalSpeed="14.22" duration="242.00" routeLength="2250.49" waitingTime="18.00" waitingCount="3" stopTime="0.00" timeLoss="83.09" rerouteNo="1" devices="tripinfo_carIn107842:1 routing_carIn107842:1 emissions_carIn107842:1" vType="default_016" speedFactor="1.03" vaporized="">
        <emissions CO_abs="10183.045313" CO2_abs="584230.900855" HC_abs="60.094477" PMx_abs="10.508925" NOx_abs="240.479521" fuel_abs="251.136570" electricity_abs="0"/>
    </tripinfo>
    <tripinfo id="carIn12152:1" depart="57647.00" departLane="24599188#0.94_1" departPos="5.10" departSpeed="0.00" departDelay="0.50" arrival="57864.00" arrivalLane="-315358254#1_1" arrivalPos="137.16" arrivalSpeed="10.94" duration="217.00" routeLength="2034.31" waitingTime="2.00" waitingCount="1" stopTime="0.00" timeLoss="25.47" rerouteNo="1" devices="tripinfo_carIn12152:1 routing_carIn12152:1 emissions_carIn12152:1" vType="default_016" speedFactor="0.83" vaporized="">
        <emissions CO_abs="6601.765335" CO2_abs="418305.062538" HC_abs="39.699842" PMx_abs="6.430947" NOx_abs="165.360419" fuel_abs="179.813008" electricity_abs="0"/>
    </tripinfo>
    <tripinfo id="h5979c1:5" depart="57669.00" departLane="399835085#1_1" departPos="5.10" departSpeed="0.00" departDelay="0.00" arrival="57866.00" arrivalLane="-315358254#1_1" arrivalPos="137.16" arrivalSpeed="14.35" duration="197.00" routeLength="659.33" waitingTime="99.00" waitingCount="2" stopTime="0.00" timeLoss="132.15" rerouteNo="1" devices="tripinfo_h5979c1:5 routing_h5979c1:5 emissions_h5979c1:5" vType="default_016" speedFactor="1.13" vaporized="">
        <emissions CO_abs="19377.709896" CO2_abs="442055.913372" HC_abs="98.569736" PMx_abs="9.605779" NOx_abs="193.919228" fuel_abs="190.028784" electricity_abs="0"/>
    </tripinfo>
    <tripinfo id="carIn50326:1" depart="57651.00" departLane="128361102#0_1" departPos="5.10" departSpeed="0.00" departDelay="0.30" arrival="57874.00" arrivalLane="18809673#0_1" arrivalPos="473.56" arrivalSpeed="12.72" duration="223.00" routeLength="1591.07" waitingTime="59.00" waitingCount="2" stopTime="0.00" timeLoss="85.00" rerouteNo="1" devices="tripinfo_carIn50326:1 routing_carIn50326:1 emissions_carIn50326:1" vType="default_016" speedFactor="0.94" vaporized="">
        <emissions CO_abs="14413.221387" CO2_abs="501533.452263" HC_abs="77.304353" PMx_abs="9.309124" NOx_abs="208.085623" fuel_abs="215.592812" electricity_abs="0"/>
    </tripinfo>
    <tripinfo id="h15382c1:3" depart="57625.00" departLane="124812856#0_1" departPos="5.10" departSpeed="0.00" departDelay="2.80" arrival="57878.00" arrivalLane="-128361102#1_1" arrivalPos="274.68" arrivalSpeed="11.92" duration="253.00" routeLength="2250.49" waitingTime="28.00" waitingCount="4" stopTime="0.00" timeLoss="75.12" rerouteNo="1" devices="tripinfo_h15382c1:3 routing_h15382c1:3 emissions_h15382c1:3" vType="default_016" speedFactor="0.93" vaporized="">
        <emissions CO_abs="9912.572600" CO2_abs="563659.726761" HC_abs="58.278339" PMx_abs="9.557751" NOx_abs="227.763720" fuel_abs="242.294894" electricity_abs="0"/>
    </tripinfo>
    <tripinfo id="h6541c1:3" depart="57727.00" departLane="201950247#3_1" departPos="5.10" departSpeed="0.00" departDelay="0.00" arrival="57879.00" arrivalLane="32978638#0_1" arrivalPos="49.29" arrivalSpeed="11.47" duration="152.00" routeLength="1176.17" waitingTime="22.00" waitingCount="1" stopTime="0.00" timeLoss="39.69" rerouteNo="1" devices="tripinfo_h6541c1:3 routing_h6541c1:3 emissions_h6541c1:3" vType="default_016" speedFactor="0.91" vaporized="">
        <emissions CO_abs="8354.620566" CO2_abs="341779.494123" HC_abs="45.992487" PMx_abs="6.127650" NOx_abs="140.986298" fuel_abs="146.918830" electricity_abs="0"/>
    </tripinfo>
    <tripinfo id="carIn3969:1" depart="57628.00" departLane="124812856#0_1" departPos="5.10" departSpeed="0.00" departDelay="4.30" arrival="57883.00" arrivalLane="-128361102#1_1" arrivalPos="274.68" arrivalSpeed="11.00" duration="255.00" routeLength="2250.49" waitingTime="22.00" waitingCount="4" stopTime="0.00" timeLoss="66.94" rerouteNo="1" devices="tripinfo_carIn3969:1 routing_carIn3969:1 emissions_carIn3969:1" vType="default_016" speedFactor="0.88" vaporized="">
        <emissions CO_abs="9218.272537" CO2_abs="545919.164287" HC_abs="54.634523" PMx_abs="8.866917" NOx_abs="218.416373" fuel_abs="234.669165" electricity_abs="0"/>
    </tripinfo>
    <tripinfo id="carIn53503:1" depart="57763.00" departLane="-306240162#1_0" departPos="5.10" departSpeed="0.00" departDelay="2.40" arrival="57888.00" arrivalLane="24634510#6_1" arrivalPos="76.64" arrivalSpeed="13.20" duration="125.00" routeLength="1440.47" waitingTime="0.00" waitingCount="0" stopTime="0.00" timeLoss="25.10" rerouteNo="1" devices="tripinfo_carIn53503:1 routing_carIn53503:1 emissions_carIn53503:1" vType="default_016" speedFactor="0.99" vaporized="">
        <emissions CO_abs="5244.571114" CO2_abs="360295.806144" HC_abs="32.384755" PMx_abs="6.401906" NOx_abs="146.574788" fuel_abs="154.875547" electricity_abs="0"/>
    </tripinfo>
    <tripinfo id="carIn88905:1" depart="57688.00" departLane="128361109#1_1" departPos="5.10" departSpeed="0.00" departDelay="5.80" arrival="57891.00" arrivalLane="386687235_1" arrivalPos="80.84" arrivalSpeed="14.73" duration="203.00" routeLength="2088.57" waitingTime="36.00" waitingCount="2" stopTime="0.00" timeLoss="67.06" rerouteNo="1" devices="tripinfo_carIn88905:1 routing_carIn88905:1 emissions_carIn88905:1" vType="default_016" speedFactor="1.11" vaporized="">
        <emissions CO_abs="9495.424425" CO2_abs="472107.856955" HC_abs="54.194290" PMx_abs="8.592929" NOx_abs="192.553303" fuel_abs="202.940690" electricity_abs="0"/>
    </tripinfo>
    <tripinfo id="carIn7949:1" depart="57676.00" departLane="128361109#1_1" departPos="5.10" departSpeed="0.00" departDelay="2.10" arrival="57893.00" arrivalLane="386687235_1" arrivalPos="80.84" arrivalSpeed="14.03" duration="217.00" routeLength="2088.57" waitingTime="48.00" waitingCount="2" stopTime="0.00" timeLoss="68.87" rerouteNo="1" devices="tripinfo_carIn7949:1 routing_carIn7949:1 emissions_carIn7949:1" vType="default_016" speedFactor="1.02" vaporized="">
        <emissions CO_abs="10448.670521" CO2_abs="483421.841153" HC_abs="58.784123" PMx_abs="8.496951" NOx_abs="195.160390" fuel_abs="207.805229" electricity_abs="0"/>
    </tripinfo>
    <tripinfo id="carIn85747:1" depart="57673.00" departLane="128361109#1_1" departPos="5.10" departSpeed="0.00" departDelay="0.70" arrival="57897.00" arrivalLane="386687235_1" arrivalPos="80.84" arrivalSpeed="13.13" duration="224.00" routeLength="2088.57" waitingTime="48.00" waitingCount="2" stopTime="0.00" timeLoss="72.87" rerouteNo="1" devices="tripinfo_carIn85747:1 routing_carIn85747:1 emissions_carIn85747:1" vType="default_016" speedFactor="1.00" vaporized="">
        <emissions CO_abs="10996.993664" CO2_abs="508700.032012" HC_abs="61.921551" PMx_abs="8.809065" NOx_abs="204.767702" fuel_abs="218.671585" electricity_abs="0"/>
    </tripinfo>
    <tripinfo id="carIn5824:1" depart="57700.00" departLane="128361109#1_1" departPos="5.10" departSpeed="0.00" departDelay="5.60" arrival="57897.00" arrivalLane="386687235_2" arrivalPos="80.84" arrivalSpeed="13.82" duration="197.00" routeLength="2088.57" waitingTime="24.00" waitingCount="2" stopTime="0.00" timeLoss="54.76" rerouteNo="1" devices="tripinfo_carIn5824:1 routing_carIn5824:1 emissions_carIn5824:1" vType="default_016" speedFactor="1.06" vaporized="">
        <emissions CO_abs="7575.573622" CO2_abs="465891.475940" HC_abs="45.428409" PMx_abs="8.146139" NOx_abs="188.072464" fuel_abs="200.267488" electricity_abs="0"/>
    </tripinfo>
    <tripinfo id="carIn13443:1" depart="57729.00" departLane="272042143_1" departPos="5.10" departSpeed="0.00" departDelay="0.80" arrival="57897.00" arrivalLane="399835085#1_1" arrivalPos="212.23" arrivalSpeed="9.81" duration="168.00" routeLength="1757.45" waitingTime="9.00" waitingCount="1" stopTime="0.00" timeLoss="51.86" rerouteNo="1" devices="tripinfo_carIn13443:1 routing_carIn13443:1 emissions_carIn13443:1" vType="default_016" speedFactor="1.22" vaporized="">
        <emissions CO_abs="7476.824999" CO2_abs="459917.290402" HC_abs="44.822655" PMx_abs="8.246981" NOx_abs="187.894594" fuel_abs="197.699015" electricity_abs="0"/>
    </tripinfo>
    <tripinfo id="carIn99233:1" depart="57691.00" departLane="128361109#1_1" departPos="5.10" departSpeed="0.00" departDelay="1.90" arrival="57902.00" arrivalLane="386687235_1" arrivalPos="80.84" arrivalSpeed="13.13" duration="211.00" routeLength="2088.57" waitingTime="29.00" waitingCount="2" stopTime="0.00" timeLoss="54.84" rerouteNo="1" devices="tripinfo_carIn99233:1 routing_carIn99233:1 emissions_carIn99233:1" vType="default_016" speedFactor="0.97" vaporized="">
        <emissions CO_abs="8240.442826" CO2_abs="473174.467759" HC_abs="48.505312" PMx_abs="7.688932" NOx_abs="187.342321" fuel_abs="203.399497" electricity_abs="0"/>
    </tripinfo>
    <tripinfo id="carIn24709:1" depart="57753.00" departLane="266565295#5_1" departPos="5.10" departSpeed="0.00" departDelay="2.50" arrival="57902.00" arrivalLane="-24634506#2_1" arrivalPos="71.32" arrivalSpeed="14.88" duration="149.00" routeLength="1450.12" waitingTime="8.00" waitingCount="1" stopTime="0.00" timeLoss="38.72" rerouteNo="1" devices="tripinfo_carIn24709:1 routing_carIn24709:1 emissions_carIn24709:1" vType="default_016" speedFactor="1.08" vaporized="">
        <emissions CO_abs="6415.645806" CO2_abs="409409.681274" HC_abs="38.824780" PMx_abs="7.240722" NOx_abs="167.300340" fuel_abs="175.987811" electricity_abs="0"/>
    </tripinfo>
    <tripinfo id="h13377c2:3" depart="57804.00" departLane="315358244_1" departPos="5.10" departSpeed="0.00" departDelay="0.60" arrival="57902.00" arrivalLane="447569997#1_1" arrivalPos="180.93" arrivalSpeed="6.69" duration="98.00" routeLength="726.74" waitingTime="2.00" waitingCount="2" stopTime="0.00" timeLoss="16.46" rerouteNo="1" devices="tripinfo_h13377c2:3 routing_h13377c2:3 emissions_h13377c2:3" vType="default_016" speedFactor="0.82" vaporized="">
        <emissions CO_abs="3956.200958" CO2_abs="180728.074667" HC_abs="22.170668" PMx_abs="2.958319" NOx_abs="73.215049" fuel_abs="77.688547" electricity_abs="0"/>
    </tripinfo>
    <tripinfo id="randUni23028:1" depart="57884.00" departLane="124812856#0_1" departPos="5.10" departSpeed="0.00" departDelay="0.10" arrival="57902.00" arrivalLane="201956810_1" arrivalPos="71.65" arrivalSpeed="12.49" duration="18.00" routeLength="134.91" waitingTime="0.00" waitingCount="0" stopTime="0.00" timeLoss="7.20" rerouteNo="1" devices="tripinfo_randUni23028:1 routing_randUni23028:1 emissions_randUni23028:1" vType="random_016" speedFactor="0.96" vaporized="">
        <emissions CO_abs="1579.477156" CO2_abs="72600.478468" HC_abs="8.913194" PMx_abs="1.456735" NOx_abs="31.183764" fuel_abs="31.207931" electricity_abs="0"/>
    </tripinfo>
    <tripinfo id="h3536c1:1" depart="57767.00" departLane="-24634413#2_1" departPos="5.10" departSpeed="0.00" departDelay="0.00" arrival="57903.00" arrivalLane="32978638#0_1" arrivalPos="49.29" arrivalSpeed="11.96" duration="136.00" routeLength="953.61" waitingTime="16.00" waitingCount="1" stopTime="0.00" timeLoss="35.26" rerouteNo="1" devices="tripinfo_h3536c1:1 routing_h3536c1:1 emissions_h3536c1:1" vType="default_016" speedFactor="0.89" vaporized="">
        <emissions CO_abs="6351.938219" CO2_abs="274866.373086" HC_abs="35.311977" PMx_abs="4.884339" NOx_abs="113.613029" fuel_abs="118.154962" electricity_abs="0"/>
    </tripinfo>
    <tripinfo id="carIn14532:1" depart="57743.00" departLane="272042143_1" departPos="5.10" departSpeed="0.00" departDelay="1.90" arrival="57907.00" arrivalLane="399835085#1_1" arrivalPos="212.23" arrivalSpeed="7.49" duration="164.00" routeLength="1757.45" waitingTime="0.00" waitingCount="0" stopTime="0.00" timeLoss="24.07" rerouteNo="1" devices="tripinfo_carIn14532:1 routing_carIn14532:1 emissions_carIn14532:1" vType="default_016" speedFactor="1.02" vaporized="">
        <emissions CO_abs="5879.721485" CO2_abs="397664.978859" HC_abs="36.001284" PMx_abs="6.662841" NOx_abs="159.948261" fuel_abs="170.939535" electricity_abs="0"/>
    </tripinfo>
    <tripinfo id="carIn132499:1" depart="57740.00" departLane="272042143_1" departPos="5.10" departSpeed="0.00" departDelay="0.70" arrival="57909.00" arrivalLane="201238729#3_1" arrivalPos="431.02" arrivalSpeed="14.91" duration="169.00" routeLength="2100.26" waitingTime="11.00" waitingCount="1" stopTime="0.00" timeLoss="31.65" rerouteNo="1" devices="tripinfo_carIn132499:1 routing_carIn132499:1 emissions_carIn132499:1" vType="default_016" speedFactor="1.10" vaporized="">
        <emissions CO_abs="5327.980653" CO2_abs="417793.154409" HC_abs="33.868141" PMx_abs="6.846695" NOx_abs="163.753505" fuel_abs="179.591622" electricity_abs="0"/>
    </tripinfo>
    <tripinfo id="h19577c1:1" depart="57694.00" departLane="128361109#1_1" departPos="5.10" departSpeed="0.00" departDelay="2.80" arrival="57912.00" arrivalLane="386687235_1" arrivalPos="80.84" arrivalSpeed="11.72" duration="218.00" routeLength="2088.57" waitingTime="20.00" waitingCount="1" stopTime="0.00" timeLoss="41.59" rerouteNo="1" devices="tripinfo_h19577c1:1 routing_h19577c1:1 emissions_h19577c1:1" vType="default_016" speedFactor="0.85" vaporized="">
        <emissions CO_abs="7708.074938" CO2_abs="446857.786363" HC_abs="45.399690" PMx_abs="6.910220" NOx_abs="175.807275" fuel_abs="192.087323" electricity_abs="0"/>
    </tripinfo>
    <tripinfo id="h17600c1:1" depart="57662.00" departLane="272042143_1" departPos="5.10" departSpeed="0.00" departDelay="0.30" arrival="57913.00" arrivalLane="201238729#3_1" arrivalPos="431.02" arrivalSpeed="13.28" duration="251.00" routeLength="2100.26" waitingTime="78.00" waitingCount="1" stopTime="0.00" timeLoss="95.14" rerouteNo="1" devices="tripinfo_h17600c1:1 routing_h17600c1:1 emissions_h17600c1:1" vType="default_016" speedFactor="0.98" vaporized="">
        <emissions CO_abs="16488.606013" CO2_abs="579265.623585" HC_abs="88.613535" PMx_abs="10.915738" NOx_abs="239.741060" fuel_abs="249.007112" electricity_abs="0"/>
    </tripinfo>
    <tripinfo id="h5239c1:3" depart="57834.00" departLane="315358254#0_1" departPos="5.10" departSpeed="0.00" departDelay="0.80" arrival="57914.00" arrivalLane="224892361#3_1" arrivalPos="220.30" arrivalSpeed="24.75" duration="80.00" routeLength="738.08" waitingTime="23.00" waitingCount="1" stopTime="0.00" timeLoss="43.23" rerouteNo="1" devices="tripinfo_h5239c1:3 routing_h5239c1:3 emissions_h5239c1:3" vType="default_016" speedFactor="1.15" vaporized="">