<?xml version="1.0" encoding="UTF-8"?>

<!-- generated on Thu Nov  4 13:41:45 2021 by Eclipse SUMO sumo Version 1.9.0
<configuration xmlns:xsi="http://www.w3.org/2001/XMLSchema-instance" xsi:noNamespaceSchemaLocation="http://sumo.dlr.de/xsd/sumoConfiguration.xsd">

    <input>
        <net-file value="/mainfs/home/bk2g18/RESCO/environments/ingolstadt21/ingolstadt21.net.xml"/>
        <route-files value="/mainfs/home/bk2g18/RESCO/environments/ingolstadt21/ingolstadt21.rou.xml"/>
    </input>

    <output>
        <tripinfo-output value="/mainfs/home/bk2g18/RESCO/logs/MPLight-tr0-ingolstadt21-21-mplight_full-pressure/tripinfo_41.xml"/>
        <tripinfo-output.write-unfinished value="true"/>
    </output>

    <time>
        <begin value="57600"/>
        <end value="61200"/>
    </time>

    <processing>
        <time-to-teleport value="-1"/>
    </processing>

    <report>
        <xml-validation value="never"/>
        <xml-validation.routes value="never"/>
        <no-warnings value="true"/>
        <no-step-log value="true"/>
    </report>

    <emissions>
        <device.emissions.probability value="1"/>
    </emissions>

    <traci_server>
        <remote-port value="42945"/>
    </traci_server>

    <random_number>
        <random value="true"/>
    </random_number>

</configuration>
-->

<tripinfos xmlns:xsi="http://www.w3.org/2001/XMLSchema-instance" xsi:noNamespaceSchemaLocation="http://sumo.dlr.de/xsd/tripinfo_file.xsd">
    <tripinfo id="h15454c2:3" depart="57612.00" departLane="24608844_1" departPos="5.10" departSpeed="0.00" departDelay="0.50" arrival="57650.00" arrivalLane="32978638#0_1" arrivalPos="49.29" arrivalSpeed="14.26" duration="38.00" routeLength="354.79" waitingTime="0.00" waitingCount="0" stopTime="0.00" timeLoss="6.65" rerouteNo="1" devices="tripinfo_h15454c2:3 routing_h15454c2:3 emissions_h15454c2:3" vType="default_016" speedFactor="1.10" vaporized="">
        <emissions CO_abs="2059.748870" CO2_abs="120150.164232" HC_abs="12.197034" PMx_abs="2.134058" NOx_abs="49.410991" fuel_abs="51.647558" electricity_abs="0"/>
    </tripinfo>
    <tripinfo id="carIn60260:1" depart="57606.00" departLane="315358254#0_1" departPos="5.10" departSpeed="0.00" departDelay="0.90" arrival="57661.00" arrivalLane="399835085#1_1" arrivalPos="212.23" arrivalSpeed="8.19" duration="55.00" routeLength="430.98" waitingTime="0.00" waitingCount="0" stopTime="0.00" timeLoss="11.38" rerouteNo="1" devices="tripinfo_carIn60260:1 routing_carIn60260:1 emissions_carIn60260:1" vType="default_016" speedFactor="1.05" vaporized="">
        <emissions CO_abs="2575.844882" CO2_abs="130795.873828" HC_abs="14.766332" PMx_abs="2.238482" NOx_abs="53.499173" fuel_abs="56.224094" electricity_abs="0"/>
    </tripinfo>
    <tripinfo id="carIn53971:1" depart="57640.00" departLane="272042143_1" departPos="5.10" departSpeed="0.00" departDelay="0.80" arrival="57691.00" arrivalLane="24634414#1_1" arrivalPos="162.19" arrivalSpeed="8.68" duration="51.00" routeLength="493.04" waitingTime="0.00" waitingCount="0" stopTime="0.00" timeLoss="10.09" rerouteNo="1" devices="tripinfo_carIn53971:1 routing_carIn53971:1 emissions_carIn53971:1" vType="default_016" speedFactor="1.14" vaporized="">
        <emissions CO_abs="2702.473054" CO2_abs="158593.287780" HC_abs="16.046786" PMx_abs="2.922716" NOx_abs="65.867822" fuel_abs="68.172486" electricity_abs="0"/>
    </tripinfo>
    <tripinfo id="h7181c1:1" depart="57660.00" departLane="315358254#0_1" departPos="5.10" departSpeed="0.00" departDelay="0.10" arrival="57720.00" arrivalLane="306240162#0_0" arrivalPos="220.43" arrivalSpeed="16.08" duration="60.00" routeLength="932.35" waitingTime="0.00" waitingCount="0" stopTime="0.00" timeLoss="8.20" rerouteNo="1" devices="tripinfo_h7181c1:1 routing_h7181c1:1 emissions_h7181c1:1" vType="default_016" speedFactor="1.00" vaporized="">
        <emissions CO_abs="2899.976449" CO2_abs="234700.895517" HC_abs="18.724063" PMx_abs="4.363668" NOx_abs="94.164647" fuel_abs="100.887249" electricity_abs="0"/>
    </tripinfo>
    <tripinfo id="h317c2:1" depart="57707.00" departLane="-32978638#0_1" departPos="5.10" departSpeed="0.00" departDelay="0.10" arrival="57737.00" arrivalLane="-266565295#5_1" arrivalPos="172.76" arrivalSpeed="15.28" duration="30.00" routeLength="370.53" waitingTime="0.00" waitingCount="0" stopTime="0.00" timeLoss="6.04" rerouteNo="1" devices="tripinfo_h317c2:1 routing_h317c2:1 emissions_h317c2:1" vType="default_016" speedFactor="1.14" vaporized="">
        <emissions CO_abs="1879.848712" CO2_abs="122813.595329" HC_abs="11.386844" PMx_abs="2.330845" NOx_abs="50.942907" fuel_abs="52.792072" electricity_abs="0"/>
    </tripinfo>
    <tripinfo id="h3568c1:3" depart="57656.00" departLane="266565295#5_1" departPos="5.10" departSpeed="0.00" departDelay="0.80" arrival="57740.00" arrivalLane="-24634415_1" arrivalPos="62.03" arrivalSpeed="13.28" duration="84.00" routeLength="807.40" waitingTime="3.00" waitingCount="1" stopTime="0.00" timeLoss="21.05" rerouteNo="1" devices="tripinfo_h3568c1:3 routing_h3568c1:3 emissions_h3568c1:3" vType="default_016" speedFactor="1.04" vaporized="">
        <emissions CO_abs="4110.225409" CO2_abs="249378.255235" HC_abs="24.576969" PMx_abs="4.464986" NOx_abs="102.369308" fuel_abs="107.197186" electricity_abs="0"/>
    </tripinfo>
    <tripinfo id="h4538c1:1" depart="57701.00" departLane="-10427692#1_1" departPos="5.10" departSpeed="0.00" departDelay="0.00" arrival="57758.00" arrivalLane="-128361102#1_1" arrivalPos="274.68" arrivalSpeed="11.69" duration="57.00" routeLength="440.74" waitingTime="12.00" waitingCount="1" stopTime="0.00" timeLoss="23.26" rerouteNo="1" devices="tripinfo_h4538c1:1 routing_h4538c1:1 emissions_h4538c1:1" vType="default_016" speedFactor="0.93" vaporized="">
        <emissions CO_abs="3160.652438" CO2_abs="135451.897511" HC_abs="17.562227" PMx_abs="2.489289" NOx_abs="56.050869" fuel_abs="58.225747" electricity_abs="0"/>
    </tripinfo>
    <tripinfo id="h7800c1:5" depart="57696.00" departLane="-447569998#1_1" departPos="5.10" departSpeed="0.00" departDelay="0.00" arrival="57765.00" arrivalLane="-447569998#1_2" arrivalPos="180.76" arrivalSpeed="4.65" duration="69.00" routeLength="175.66" waitingTime="42.00" waitingCount="1" stopTime="0.00" timeLoss="48.43" rerouteNo="1" devices="tripinfo_h7800c1:5 routing_h7800c1:5 emissions_h7800c1:5" vType="default_016" speedFactor="1.04" vaporized="">
        <emissions CO_abs="7591.633954" CO2_abs="156241.376846" HC_abs="38.209513" PMx_abs="3.453564" NOx_abs="68.903280" fuel_abs="67.164809" electricity_abs="0"/>
    </tripinfo>
    <tripinfo id="h3326c1:2" depart="57656.00" departLane="22716069#0_1" departPos="5.10" departSpeed="0.00" departDelay="0.00" arrival="57766.00" arrivalLane="24634517#13_1" arrivalPos="111.62" arrivalSpeed="13.98" duration="110.00" routeLength="1312.81" waitingTime="0.00" waitingCount="0" stopTime="0.00" timeLoss="14.12" rerouteNo="1" devices="tripinfo_h3326c1:2 routing_h3326c1:2 emissions_h3326c1:2" vType="default_016" speedFactor="1.03" vaporized="">
        <emissions CO_abs="3879.946860" CO2_abs="304859.197090" HC_abs="24.773844" PMx_abs="5.092295" NOx_abs="121.575905" fuel_abs="131.045798" electricity_abs="0"/>
    </tripinfo>
    <tripinfo id="carIn80064:1" depart="57603.00" departLane="128361109#1_1" departPos="5.10" departSpeed="0.00" departDelay="0.40" arrival="57767.00" arrivalLane="-315358254#1_1" arrivalPos="137.16" arrivalSpeed="14.22" duration="164.00" routeLength="1587.97" waitingTime="40.00" waitingCount="4" stopTime="0.00" timeLoss="78.26" rerouteNo="1" devices="tripinfo_carIn80064:1 routing_carIn80064:1 emissions_carIn80064:1" vType="default_016" speedFactor="1.04" vaporized="">
        <emissions CO_abs="12486.861575" CO2_abs="591572.294017" HC_abs="71.024369" PMx_abs="12.030232" NOx_abs="248.163825" fuel_abs="254.292518" electricity_abs="0"/>
    </tripinfo>
    <tripinfo id="h3688c1:1" depart="57625.00" departLane="201201950#1_1" departPos="5.10" departSpeed="0.00" departDelay="0.00" arrival="57773.00" arrivalLane="32978638#0_1" arrivalPos="49.29" arrivalSpeed="15.75" duration="148.00" routeLength="1089.75" waitingTime="61.00" waitingCount="2" stopTime="0.00" timeLoss="79.66" rerouteNo="1" devices="tripinfo_h3688c1:1 routing_h3688c1:1 emissions_h3688c1:1" vType="default_016" speedFactor="1.17" vaporized="">
        <emissions CO_abs="13231.732712" CO2_abs="447482.576986" HC_abs="70.728500" PMx_abs="9.210751" NOx_abs="190.323698" fuel_abs="192.357147" electricity_abs="0"/>
    </tripinfo>
    <tripinfo id="carIn30817:1" depart="57681.00" departLane="315358244_1" departPos="5.10" departSpeed="0.00" departDelay="0.20" arrival="57775.00" arrivalLane="447569997#1_1" arrivalPos="180.93" arrivalSpeed="7.40" duration="94.00" routeLength="718.04" waitingTime="19.00" waitingCount="1" stopTime="0.00" timeLoss="32.55" rerouteNo="1" devices="tripinfo_carIn30817:1 routing_carIn30817:1 emissions_carIn30817:1" vType="default_016" speedFactor="1.00" vaporized="">
        <emissions CO_abs="5169.689101" CO2_abs="216203.453963" HC_abs="28.565845" PMx_abs="3.889407" NOx_abs="88.901636" fuel_abs="92.938080" electricity_abs="0"/>
    </tripinfo>
    <tripinfo id="carIn12365:1" depart="57713.00" departLane="315358244_1" departPos="5.10" departSpeed="0.00" departDelay="0.50" arrival="57777.00" arrivalLane="447569997#1_2" arrivalPos="180.93" arrivalSpeed="8.38" duration="64.00" routeLength="718.04" waitingTime="0.00" waitingCount="0" stopTime="0.00" timeLoss="8.10" rerouteNo="1" devices="tripinfo_carIn12365:1 routing_carIn12365:1 emissions_carIn12365:1" vType="default_016" speedFactor="1.11" vaporized="">
        <emissions CO_abs="2126.530150" CO2_abs="156544.298173" HC_abs="13.349322" PMx_abs="2.596219" NOx_abs="62.318415" fuel_abs="67.291778" electricity_abs="0"/>
    </tripinfo>
    <tripinfo id="h5979c1:5" depart="57669.00" departLane="399835085#1_1" departPos="5.10" departSpeed="0.00" departDelay="0.00" arrival="57780.00" arrivalLane="-315358254#1_1" arrivalPos="137.16" arrivalSpeed="11.05" duration="111.00" routeLength="659.33" waitingTime="6.00" waitingCount="1" stopTime="0.00" timeLoss="22.71" rerouteNo="1" devices="tripinfo_h5979c1:5 routing_h5979c1:5 emissions_h5979c1:5" vType="default_016" speedFactor="0.83" vaporized="">
        <emissions CO_abs="4753.369380" CO2_abs="187925.757371" HC_abs="25.932351" PMx_abs="3.034212" NOx_abs="76.262932" fuel_abs="80.783143" electricity_abs="0"/>
    </tripinfo>
    <tripinfo id="h330c1:1" depart="57736.00" departLane="-32978638#0_1" departPos="5.10" departSpeed="0.00" departDelay="0.20" arrival="57783.00" arrivalLane="-266565295#5_1" arrivalPos="172.76" arrivalSpeed="14.49" duration="47.00" routeLength="370.53" waitingTime="11.00" waitingCount="1" stopTime="0.00" timeLoss="22.45" rerouteNo="1" devices="tripinfo_h330c1:1 routing_h330c1:1 emissions_h330c1:1" vType="default_016" speedFactor="1.11" vaporized="">
        <emissions CO_abs="3395.085890" CO2_abs="143263.752017" HC_abs="18.852791" PMx_abs="2.898073" NOx_abs="61.031042" fuel_abs="61.583407" electricity_abs="0"/>
    </tripinfo>
    <tripinfo id="carIn22761:1" depart="57616.00" departLane="-306240162#1_0" departPos="5.10" departSpeed="0.00" departDelay="2.10" arrival="57784.00" arrivalLane="399835085#1_1" arrivalPos="212.23" arrivalSpeed="7.31" duration="168.00" routeLength="1093.26" waitingTime="62.00" waitingCount="2" stopTime="0.00" timeLoss="89.10" rerouteNo="1" devices="tripinfo_carIn22761:1 routing_carIn22761:1 emissions_carIn22761:1" vType="default_016" speedFactor="0.99" vaporized="">
        <emissions CO_abs="14372.905385" CO2_abs="463711.480832" HC_abs="76.375715" PMx_abs="9.653430" NOx_abs="198.329297" fuel_abs="199.333759" electricity_abs="0"/>
    </tripinfo>
    <tripinfo id="h645c1:1" depart="57622.00" departLane="266565295#5_1" departPos="5.10" departSpeed="0.00" departDelay="0.40" arrival="57792.00" arrivalLane="-315358244_2" arrivalPos="33.95" arrivalSpeed="16.51" duration="170.00" routeLength="1910.83" waitingTime="23.00" waitingCount="2" stopTime="0.00" timeLoss="54.10" rerouteNo="1" devices="tripinfo_h645c1:1 routing_h645c1:1 emissions_h645c1:1" vType="default_016" speedFactor="1.20" vaporized="">
        <emissions CO_abs="8664.235869" CO2_abs="510047.406650" HC_abs="51.115780" PMx_abs="9.434631" NOx_abs="207.956086" fuel_abs="219.247880" electricity_abs="0"/>
    </tripinfo>
    <tripinfo id="carIn121703:1" depart="57647.00" departLane="386687232#0_1" departPos="5.10" departSpeed="0.00" departDelay="0.30" arrival="57795.00" arrivalLane="-315358244_1" arrivalPos="33.95" arrivalSpeed="11.10" duration="148.00" routeLength="1157.39" waitingTime="31.00" waitingCount="1" stopTime="0.00" timeLoss="44.51" rerouteNo="1" devices="tripinfo_carIn121703:1 routing_carIn121703:1 emissions_carIn121703:1" vType="default_016" speedFactor="0.82" vaporized="">
        <emissions CO_abs="7968.382759" CO2_abs="307401.952292" HC_abs="43.391313" PMx_abs="5.332320" NOx_abs="125.278131" fuel_abs="132.141850" electricity_abs="0"/>
    </tripinfo>
    <tripinfo id="carIn107282:1" depart="57749.00" departLane="-447569998#1_1" departPos="5.10" departSpeed="0.00" departDelay="0.00" arrival="57798.00" arrivalLane="315358242#0_1" arrivalPos="165.37" arrivalSpeed="12.10" duration="49.00" routeLength="448.50" waitingTime="0.00" waitingCount="0" stopTime="0.00" timeLoss="5.38" rerouteNo="1" devices="tripinfo_carIn107282:1 routing_carIn107282:1 emissions_carIn107282:1" vType="default_016" speedFactor="0.96" vaporized="">
        <emissions CO_abs="2029.989324" CO2_abs="115239.861229" HC_abs="11.898193" PMx_abs="1.807341" NOx_abs="45.842559" fuel_abs="49.537236" electricity_abs="0"/>
    </tripinfo>
    <tripinfo id="h11737c1:1" depart="57665.00" departLane="272042143_1" departPos="5.10" departSpeed="0.00" departDelay="1.50" arrival="57807.00" arrivalLane="-315358254#1_1" arrivalPos="137.16" arrivalSpeed="14.44" duration="142.00" routeLength="1596.88" waitingTime="11.00" waitingCount="1" stopTime="0.00" timeLoss="30.00" rerouteNo="1" devices="tripinfo_h11737c1:1 routing_h11737c1:1 emissions_h11737c1:1" vType="default_016" speedFactor="1.04" vaporized="">
        <emissions CO_abs="5061.331865" CO2_abs="352912.640018" HC_abs="31.247445" PMx_abs="5.966640" NOx_abs="140.835704" fuel_abs="151.702308" electricity_abs="0"/>
    </tripinfo>
    <tripinfo id="carIn126288:1" depart="57674.00" departLane="272042143_1" departPos="5.10" departSpeed="0.00" departDelay="0.00" arrival="57808.00" arrivalLane="-315358254#1_1" arrivalPos="137.16" arrivalSpeed="15.24" duration="134.00" routeLength="1596.88" waitingTime="13.00" waitingCount="2" stopTime="0.00" timeLoss="35.93" rerouteNo="1" devices="tripinfo_carIn126288:1 routing_carIn126288:1 emissions_carIn126288:1" vType="default_016" speedFactor="1.19" vaporized="">
        <emissions CO_abs="5545.203612" CO2_abs="395134.563128" HC_abs="34.528148" PMx_abs="7.182803" NOx_abs="160.273624" fuel_abs="169.850932" electricity_abs="0"/>
    </tripinfo>
    <tripinfo id="carIn12858:1" depart="57661.00" departLane="128361109#1_1" departPos="5.10" departSpeed="0.00" departDelay="0.90" arrival="57814.00" arrivalLane="399835085#1_1" arrivalPos="212.23" arrivalSpeed="7.36" duration="153.00" routeLength="1738.12" waitingTime="9.00" waitingCount="2" stopTime="0.00" timeLoss="40.19" rerouteNo="1" devices="tripinfo_carIn12858:1 routing_carIn12858:1 emissions_carIn12858:1" vType="default_016" speedFactor="1.02" vaporized="">
        <emissions CO_abs="7739.792625" CO2_abs="497311.226999" HC_abs="47.137771" PMx_abs="9.557342" NOx_abs="204.758181" fuel_abs="213.772095" electricity_abs="0"/>
    </tripinfo>
    <tripinfo id="carIn129809:1" depart="57729.00" departLane="-447569998#1_1" departPos="5.10" departSpeed="0.00" departDelay="1.00" arrival="57814.00" arrivalLane="-315358244_1" arrivalPos="33.95" arrivalSpeed="12.59" duration="85.00" routeLength="706.49" waitingTime="10.00" waitingCount="1" stopTime="0.00" timeLoss="23.55" rerouteNo="1" devices="tripinfo_carIn129809:1 routing_carIn129809:1 emissions_carIn129809:1" vType="default_015" speedFactor="0.98" vaporized="">
        <emissions CO_abs="3530.098187" CO2_abs="166245.885105" HC_abs="19.919959" PMx_abs="2.791087" NOx_abs="66.966440" fuel_abs="71.463056" electricity_abs="0"/>
    </tripinfo>
    <tripinfo id="h3154c1:1" depart="57658.00" departLane="24634507_1" departPos="5.10" departSpeed="0.00" departDelay="0.00" arrival="57816.00" arrivalLane="-266565295#5_1" arrivalPos="172.76" arrivalSpeed="14.19" duration="158.00" routeLength="1206.22" waitingTime="49.00" waitingCount="2" stopTime="0.00" timeLoss="72.50" rerouteNo="1" devices="tripinfo_h3154c1:1 routing_h3154c1:1 emissions_h3154c1:1" vType="default_016" speedFactor="1.04" vaporized="">
        <emissions CO_abs="11409.004674" CO2_abs="441872.916393" HC_abs="62.333274" PMx_abs="8.609917" NOx_abs="185.279637" fuel_abs="189.945040" electricity_abs="0"/>
    </tripinfo>
    <tripinfo id="h16072c2:3" depart="57663.00" departLane="315358254#0_1" departPos="5.10" departSpeed="0.00" departDelay="2.50" arrival="57817.00" arrivalLane="386687235_1" arrivalPos="80.84" arrivalSpeed="13.99" duration="154.00" routeLength="1611.92" waitingTime="20.00" waitingCount="1" stopTime="0.00" timeLoss="37.70" rerouteNo="1" devices="tripinfo_h16072c2:3 routing_h16072c2:3 emissions_h16072c2:3" vType="default_016" speedFactor="1.01" vaporized="">
        <emissions CO_abs="5999.466649" CO2_abs="360788.841437" HC_abs="35.700878" PMx_abs="6.044015" NOx_abs="143.689349" fuel_abs="155.088747" electricity_abs="0"/>
    </tripinfo>
    <tripinfo id="randUni15030:1" depart="57735.00" departLane="386687232#0_1" departPos="5.10" departSpeed="0.00" departDelay="0.10" arrival="57820.00" arrivalLane="26677539_1" arrivalPos="151.98" arrivalSpeed="9.10" duration="85.00" routeLength="919.89" waitingTime="0.00" waitingCount="0" stopTime="0.00" timeLoss="10.84" rerouteNo="1" devices="tripinfo_randUni15030:1 routing_randUni15030:1 emissions_randUni15030:1" vType="random_016" speedFactor="1.12" vaporized="">
        <emissions CO_abs="3315.870157" CO2_abs="225985.858412" HC_abs="20.316283" PMx_abs="3.766917" NOx_abs="90.509789" fuel_abs="97.141895" electricity_abs="0"/>
    </tripinfo>
    <tripinfo id="carIn12152:1" depart="57647.00" departLane="24599188#0.94_1" departPos="5.10" departSpeed="0.00" departDelay="0.50" arrival="57823.00" arrivalLane="-315358254#1_1" arrivalPos="137.16" arrivalSpeed="14.83" duration="176.00" routeLength="2034.31" waitingTime="12.00" waitingCount="1" stopTime="0.00" timeLoss="32.16" rerouteNo="1" devices="tripinfo_carIn12152:1 routing_carIn12152:1 emissions_carIn12152:1" vType="default_016" speedFactor="1.10" vaporized="">
        <emissions CO_abs="5982.433889" CO2_abs="430573.928018" HC_abs="37.161564" PMx_abs="7.320118" NOx_abs="171.949035" fuel_abs="185.085400" electricity_abs="0"/>
    </tripinfo>
    <tripinfo id="carIn81860:1" depart="57712.00" departLane="128361102#0_1" departPos="5.10" departSpeed="0.00" departDelay="0.60" arrival="57837.00" arrivalLane="-24634517#17_1" arrivalPos="6.43" arrivalSpeed="7.60" duration="125.00" routeLength="1229.64" waitingTime="22.00" waitingCount="1" stopTime="0.00" timeLoss="42.51" rerouteNo="1" devices="tripinfo_carIn81860:1 routing_carIn81860:1 emissions_carIn81860:1" vType="default_016" speedFactor="1.09" vaporized="">
        <emissions CO_abs="6805.879277" CO2_abs="341064.907946" HC_abs="38.964446" PMx_abs="6.264912" NOx_abs="139.823708" fuel_abs="146.610295" electricity_abs="0"/>
    </tripinfo>
    <tripinfo id="h12244c1:3" depart="57612.00" departLane="315358244_1" departPos="5.10" departSpeed="0.00" departDelay="0.40" arrival="57839.00" arrivalLane="386687235_1" arrivalPos="80.84" arrivalSpeed="14.63" duration="227.00" routeLength="1186.14" waitingTime="117.00" waitingCount="5" stopTime="0.00" timeLoss="149.97" rerouteNo="1" devices="tripinfo_h12244c1:3 routing_h12244c1:3 emissions_h12244c1:3" vType="default_016" speedFactor="1.13" vaporized="">
        <emissions CO_abs="20459.247038" CO2_abs="572237.060301" HC_abs="106.560671" PMx_abs="12.171963" NOx_abs="246.783425" fuel_abs="245.987093" electricity_abs="0"/>
    </tripinfo>
    <tripinfo id="carIn27009:1" depart="57673.00" departLane="-447569998#1_1" departPos="5.10" departSpeed="0.00" departDelay="0.50" arrival="57839.00" arrivalLane="-26677539_1" arrivalPos="152.75" arrivalSpeed="6.66" duration="166.00" routeLength="699.63" waitingTime="62.00" waitingCount="1" stopTime="0.00" timeLoss="75.78" rerouteNo="1" devices="tripinfo_carIn27009:1 routing_carIn27009:1 emissions_carIn27009:1" vType="default_015" speedFactor="0.93" vaporized="">
        <emissions CO_abs="13569.316481" CO2_abs="342368.407012" HC_abs="69.709314" PMx_abs="6.823870" NOx_abs="146.664356" fuel_abs="147.175280" electricity_abs="0"/>
    </tripinfo>
    <tripinfo id="h3864c1:3" depart="57678.00" departLane="24693977#1_1" departPos="5.10" departSpeed="0.00" departDelay="0.00" arrival="57841.00" arrivalLane="201956820_1" arrivalPos="48.33" arrivalSpeed="14.68" duration="163.00" routeLength="1574.85" waitingTime="8.00" waitingCount="2" stopTime="0.00" timeLoss="47.86" rerouteNo="1" devices="tripinfo_h3864c1:3 routing_h3864c1:3 emissions_h3864c1:3" vType="default_016" speedFactor="1.12" vaporized="">
        <emissions CO_abs="8374.443240" CO2_abs="505484.970921" HC_abs="50.046257" PMx_abs="9.366386" NOx_abs="209.527097" fuel_abs="217.286203" electricity_abs="0"/>
    </tripinfo>
    <tripinfo id="50R_frequency3.17" depart="57674.00" departLane="-18809673#6_1" departPos="12.10" departSpeed="0.00" departDelay="0.70" arrival="57852.00" arrivalLane="201956811#0_1" arrivalPos="40.40" arrivalSpeed="11.46" duration="178.00" routeLength="1954.47" waitingTime="8.00" waitingCount="1" stopTime="0.00" timeLoss="33.50" rerouteNo="1" devices="tripinfo_50R_frequency3.17 routing_50R_frequency3.17 emissions_50R_frequency3.17" vType="bus" speedFactor="1.00" vaporized="">
        <emissions CO_abs="3362.100658" CO2_abs="2095719.848563" HC_abs="713.642944" PMx_abs="360.440351" NOx_abs="16285.569111" fuel_abs="893.801955" electricity_abs="0"/>
    </tripinfo>
    <tripinfo id="randUni31145:1" depart="57814.00" departLane="10425609#0_1" departPos="5.10" departSpeed="0.00" departDelay="0.30" arrival="57854.00" arrivalLane="201956810_1" arrivalPos="71.65" arrivalSpeed="13.43" duration="40.00" routeLength="255.78" waitingTime="11.00" waitingCount="1" stopTime="0.00" timeLoss="20.07" rerouteNo="1" devices="tripinfo_randUni31145:1 routing_randUni31145:1 emissions_randUni31145:1" vType="random_016" speedFactor="0.99" vaporized="">
        <emissions CO_abs="2753.700814" CO2_abs="124954.608286" HC_abs="15.485470" PMx_abs="2.401233" NOx_abs="52.596777" fuel_abs="53.713031" electricity_abs="0"/>
    </tripinfo>
    <tripinfo id="h9563c2:5" depart="57631.00" departLane="315358244_1" departPos="5.10" departSpeed="0.00" departDelay="0.70" arrival="57858.00" arrivalLane="386687235_1" arrivalPos="80.84" arrivalSpeed="14.20" duration="227.00" routeLength="1186.14" waitingTime="105.00" waitingCount="7" stopTime="0.00" timeLoss="143.91" rerouteNo="1" devices="tripinfo_h9563c2:5 routing_h9563c2:5 emissions_h9563c2:5" vType="default_016" speedFactor="1.04" vaporized="">
        <emissions CO_abs="19150.044213" CO2_abs="554796.331078" HC_abs="100.110895" PMx_abs="11.276149" NOx_abs="235.967339" fuel_abs="238.490066" electricity_abs="0"/>
    </tripinfo>
    <tripinfo id="randUni2407:1" depart="57820.00" departLane="10425609#0_1" departPos="5.10" departSpeed="0.00" departDelay="0.80" arrival="57858.00" arrivalLane="201956810_1" arrivalPos="71.65" arrivalSpeed="11.63" duration="38.00" routeLength="255.78" waitingTime="6.00" waitingCount="1" stopTime="0.00" timeLoss="16.68" rerouteNo="1" devices="tripinfo_randUni2407:1 routing_randUni2407:1 emissions_randUni2407:1" vType="random_016" speedFactor="0.92" vaporized="">
        <emissions CO_abs="2740.435203" CO2_abs="109714.169108" HC_abs="15.054348" PMx_abs="2.117411" NOx_abs="46.453041" fuel_abs="47.162010" electricity_abs="0"/>
    </tripinfo>
    <tripinfo id="carIn118591:1" depart="57689.00" departLane="315358244_1" departPos="5.10" departSpeed="0.00" departDelay="0.20" arrival="57860.00" arrivalLane="386687235_1" arrivalPos="80.84" arrivalSpeed="14.82" duration="171.00" routeLength="1186.14" waitingTime="54.00" waitingCount="6" stopTime="0.00" timeLoss="91.42" rerouteNo="1" devices="tripinfo_carIn118591:1 routing_carIn118591:1 emissions_carIn118591:1" vType="default_016" speedFactor="1.09" vaporized="">
        <emissions CO_abs="9627.191768" CO2_abs="377934.549455" HC_abs="52.702742" PMx_abs="7.262063" NOx_abs="157.507386" fuel_abs="162.460344" electricity_abs="0"/>
    </tripinfo>
    <tripinfo id="h17600c1:1" depart="57662.00" departLane="272042143_1" departPos="5.10" departSpeed="0.00" departDelay="0.30" arrival="57863.00" arrivalLane="201238729#3_1" arrivalPos="431.02" arrivalSpeed="12.70" duration="201.00" routeLength="2100.26" waitingTime="27.00" waitingCount="1" stopTime="0.00" timeLoss="45.94" rerouteNo="1" devices="tripinfo_h17600c1:1 routing_h17600c1:1 emissions_h17600c1:1" vType="default_016" speedFactor="0.98" vaporized="">
        <emissions CO_abs="8330.663291" CO2_abs="450816.551288" HC_abs="48.425811" PMx_abs="7.525758" NOx_abs="179.497863" fuel_abs="193.788823" electricity_abs="0"/>
    </tripinfo>
    <tripinfo id="carIn8642:1" depart="57774.00" departLane="-447569998#1_1" departPos="5.10" departSpeed="0.00" departDelay="0.90" arrival="57863.00" arrivalLane="-315358244_1" arrivalPos="33.95" arrivalSpeed="14.32" duration="89.00" routeLength="706.49" waitingTime="19.00" waitingCount="1" stopTime="0.00" timeLoss="31.74" rerouteNo="1" devices="tripinfo_carIn8642:1 routing_carIn8642:1 emissions_carIn8642:1" vType="default_016" speedFactor="1.05" vaporized="">
        <emissions CO_abs="5428.171996" CO2_abs="213934.473744" HC_abs="29.713672" PMx_abs="4.065157" NOx_abs="89.391076" fuel_abs="91.962660" electricity_abs="0"/>
    </tripinfo>
    <tripinfo id="carIn12775:1" depart="57676.00" departLane="10425609#0_1" departPos="5.10" departSpeed="0.00" departDelay="0.60" arrival="57866.00" arrivalLane="18809673#0_1" arrivalPos="473.56" arrivalSpeed="15.48" duration="190.00" routeLength="1959.45" waitingTime="42.00" waitingCount="2" stopTime="0.00" timeLoss="62.24" rerouteNo="1" devices="tripinfo_carIn12775:1 routing_carIn12775:1 emissions_carIn12775:1" vType="default_016" speedFactor="1.14" vaporized="">
        <emissions CO_abs="10336.183082" CO2_abs="484898.829594" HC_abs="58.351552" PMx_abs="9.091900" NOx_abs="198.918726" fuel_abs="208.439178" electricity_abs="0"/>
    </tripinfo>
    <tripinfo id="carIn86816:1" depart="57617.00" departLane="128361102#0_1" departPos="5.10" departSpeed="0.00" departDelay="0.80" arrival="57867.00" arrivalLane="201956811#0_1" arrivalPos="40.40" arrivalSpeed="11.59" duration="250.00" routeLength="2067.33" waitingTime="57.00" waitingCount="1" stopTime="0.00" timeLoss="81.06" rerouteNo="1" devices="tripinfo_carIn86816:1 routing_carIn86816:1 emissions_carIn86816:1" vType="default_016" speedFactor="0.90" vaporized="">
        <emissions CO_abs="14578.072079" CO2_abs="587284.925305" HC_abs="80.038019" PMx_abs="10.426059" NOx_abs="240.047128" fuel_abs="252.453378" electricity_abs="0"/>
    </tripinfo>
    <tripinfo id="S5R_frequency1.2" depart="57647.00" departLane="315358250#0_1" departPos="12.10" departSpeed="0.00" departDelay="35.40" arrival="57870.00" arrivalLane="386687235_1" arrivalPos="80.84" arrivalSpeed="13.68" duration="223.00" routeLength="1115.62" waitingTime="113.00" waitingCount="3" stopTime="0.00" timeLoss="141.51" rerouteNo="1" devices="tripinfo_S5R_frequency1.2 routing_S5R_frequency1.2 emissions_S5R_frequency1.2" vType="bus" speedFactor="1.00" vaporized="">
        <emissions CO_abs="4082.111504" CO2_abs="1802131.827862" HC_abs="918.794909" PMx_abs="421.353644" NOx_abs="16015.542949" fuel_abs="768.349707" electricity_abs="0"/>
    </tripinfo>
    <tripinfo id="carIn102915:1" depart="57643.00" departLane="128361102#0_1" departPos="5.10" departSpeed="0.00" departDelay="0.40" arrival="57870.00" arrivalLane="201956811#0_1" arrivalPos="40.40" arrivalSpeed="12.47" duration="227.00" routeLength="2067.33" waitingTime="34.00" waitingCount="1" stopTime="0.00" timeLoss="67.15" rerouteNo="1" devices="tripinfo_carIn102915:1 routing_carIn102915:1 emissions_carIn102915:1" vType="default_016" speedFactor="0.95" vaporized="">
        <emissions CO_abs="11394.841269" CO2_abs="561538.732608" HC_abs="65.019929" PMx_abs="9.965321" NOx_abs="229.610701" fuel_abs="241.383802" electricity_abs="0"/>
    </tripinfo>
    <tripinfo id="carIn126378:1" depart="57746.00" departLane="386687232#0_1" departPos="5.10" departSpeed="0.00" departDelay="1.80" arrival="57870.00" arrivalLane="-315358244_2" arrivalPos="33.95" arrivalSpeed="11.84" duration="124.00" routeLength="1157.39" waitingTime="15.00" waitingCount="1" stopTime="0.00" timeLoss="31.06" rerouteNo="1" devices="tripinfo_carIn126378:1 routing_carIn126378:1 emissions_carIn126378:1" vType="default_016" speedFactor="0.91" vaporized="">
        <emissions CO_abs="4386.126800" CO2_abs="259326.689168" HC_abs="25.988945" PMx_abs="4.185896" NOx_abs="103.019177" fuel_abs="111.474443" electricity_abs="0"/>
    </tripinfo>
    <tripinfo id="carIn73855:1" depart="57743.00" departLane="386687232#0_1" departPos="5.10" departSpeed="0.00" departDelay="0.50" arrival="57871.00" arrivalLane="-315358244_1" arrivalPos="33.95" arrivalSpeed="11.92" duration="128.00" routeLength="1157.39" waitingTime="20.00" waitingCount="1" stopTime="0.00" timeLoss="33.97" rerouteNo="1" devices="tripinfo_carIn73855:1 routing_carIn73855:1 emissions_carIn73855:1" vType="default_016" speedFactor="0.90" vaporized="">