<?xml version="1.0" encoding="UTF-8"?>

<!-- generated on Thu Nov  4 13:28:11 2021 by Eclipse SUMO sumo Version 1.9.0
<configuration xmlns:xsi="http://www.w3.org/2001/XMLSchema-instance" xsi:noNamespaceSchemaLocation="http://sumo.dlr.de/xsd/sumoConfiguration.xsd">

    <input>
        <net-file value="/mainfs/home/bk2g18/RESCO/environments/ingolstadt21/ingolstadt21.net.xml"/>
        <route-files value="/mainfs/home/bk2g18/RESCO/environments/ingolstadt21/ingolstadt21.rou.xml"/>
    </input>

    <output>
        <tripinfo-output value="/mainfs/home/bk2g18/RESCO/logs/MPLight-tr0-ingolstadt21-21-mplight_full-pressure/tripinfo_21.xml"/>
        <tripinfo-output.write-unfinished value="true"/>
    </output>

    <time>
        <begin value="57600"/>
        <end value="61200"/>
    </time>

    <processing>
        <time-to-teleport value="-1"/>
    </processing>

    <report>
        <xml-validation value="never"/>
        <xml-validation.routes value="never"/>
        <no-warnings value="true"/>
        <no-step-log value="true"/>
    </report>

    <emissions>
        <device.emissions.probability value="1"/>
    </emissions>

    <traci_server>
        <remote-port value="53640"/>
    </traci_server>

    <random_number>
        <random value="true"/>
    </random_number>

</configuration>
-->

<tripinfos xmlns:xsi="http://www.w3.org/2001/XMLSchema-instance" xsi:noNamespaceSchemaLocation="http://sumo.dlr.de/xsd/tripinfo_file.xsd">
    <tripinfo id="h15454c2:3" depart="57612.00" departLane="24608844_1" departPos="5.10" departSpeed="0.00" departDelay="0.50" arrival="57649.00" arrivalLane="32978638#0_1" arrivalPos="49.29" arrivalSpeed="14.10" duration="37.00" routeLength="354.79" waitingTime="0.00" waitingCount="0" stopTime="0.00" timeLoss="5.03" rerouteNo="1" devices="tripinfo_h15454c2:3 routing_h15454c2:3 emissions_h15454c2:3" vType="default_016" speedFactor="1.09" vaporized="">
        <emissions CO_abs="1683.787846" CO2_abs="99758.849532" HC_abs="9.998864" PMx_abs="1.721265" NOx_abs="40.633456" fuel_abs="42.882241" electricity_abs="0"/>
    </tripinfo>
    <tripinfo id="carIn60260:1" depart="57606.00" departLane="315358254#0_1" departPos="5.10" departSpeed="0.00" departDelay="0.90" arrival="57662.00" arrivalLane="399835085#1_1" arrivalPos="212.23" arrivalSpeed="8.62" duration="56.00" routeLength="430.98" waitingTime="2.00" waitingCount="1" stopTime="0.00" timeLoss="11.72" rerouteNo="1" devices="tripinfo_carIn60260:1 routing_carIn60260:1 emissions_carIn60260:1" vType="default_016" speedFactor="1.04" vaporized="">
        <emissions CO_abs="2572.735409" CO2_abs="125644.769258" HC_abs="14.631043" PMx_abs="2.166171" NOx_abs="51.598203" fuel_abs="54.009882" electricity_abs="0"/>
    </tripinfo>
    <tripinfo id="carIn53971:1" depart="57640.00" departLane="272042143_1" departPos="5.10" departSpeed="0.00" departDelay="0.80" arrival="57704.00" arrivalLane="24634414#1_1" arrivalPos="162.19" arrivalSpeed="6.91" duration="64.00" routeLength="493.04" waitingTime="0.00" waitingCount="0" stopTime="0.00" timeLoss="9.42" rerouteNo="1" devices="tripinfo_carIn53971:1 routing_carIn53971:1 emissions_carIn53971:1" vType="default_016" speedFactor="0.84" vaporized="">
        <emissions CO_abs="2628.484037" CO2_abs="129699.906948" HC_abs="14.957392" PMx_abs="2.118984" NOx_abs="52.497643" fuel_abs="55.753187" electricity_abs="0"/>
    </tripinfo>
    <tripinfo id="h3688c1:1" depart="57625.00" departLane="201201950#1_1" departPos="5.10" departSpeed="0.00" departDelay="0.00" arrival="57720.00" arrivalLane="32978638#0_1" arrivalPos="49.29" arrivalSpeed="14.04" duration="95.00" routeLength="1089.75" waitingTime="3.00" waitingCount="1" stopTime="0.00" timeLoss="19.47" rerouteNo="1" devices="tripinfo_h3688c1:1 routing_h3688c1:1 emissions_h3688c1:1" vType="default_016" speedFactor="1.06" vaporized="">
        <emissions CO_abs="3804.064486" CO2_abs="274738.890221" HC_abs="23.695690" PMx_abs="4.811083" NOx_abs="111.089192" fuel_abs="118.098282" electricity_abs="0"/>
    </tripinfo>
    <tripinfo id="h7800c1:5" depart="57696.00" departLane="-447569998#1_1" departPos="5.10" departSpeed="0.00" departDelay="0.00" arrival="57726.00" arrivalLane="-447569998#1_1" arrivalPos="180.76" arrivalSpeed="6.49" duration="30.00" routeLength="175.66" waitingTime="0.00" waitingCount="0" stopTime="0.00" timeLoss="3.66" rerouteNo="1" devices="tripinfo_h7800c1:5 routing_h7800c1:5 emissions_h7800c1:5" vType="default_016" speedFactor="0.81" vaporized="">
        <emissions CO_abs="1495.512797" CO2_abs="54457.187439" HC_abs="8.047377" PMx_abs="0.878495" NOx_abs="22.175727" fuel_abs="23.409459" electricity_abs="0"/>
    </tripinfo>
    <tripinfo id="carIn22761:1" depart="57616.00" departLane="-306240162#1_0" departPos="5.10" departSpeed="0.00" departDelay="2.10" arrival="57735.00" arrivalLane="399835085#1_1" arrivalPos="212.23" arrivalSpeed="7.20" duration="119.00" routeLength="1093.26" waitingTime="23.00" waitingCount="1" stopTime="0.00" timeLoss="39.93" rerouteNo="1" devices="tripinfo_carIn22761:1 routing_carIn22761:1 emissions_carIn22761:1" vType="default_016" speedFactor="0.99" vaporized="">
        <emissions CO_abs="8072.206256" CO2_abs="339558.937797" HC_abs="44.738921" PMx_abs="6.594858" NOx_abs="141.086819" fuel_abs="145.963547" electricity_abs="0"/>
    </tripinfo>
    <tripinfo id="h317c2:1" depart="57707.00" departLane="-32978638#0_1" departPos="5.10" departSpeed="0.00" departDelay="0.10" arrival="57743.00" arrivalLane="-266565295#5_1" arrivalPos="172.76" arrivalSpeed="14.60" duration="36.00" routeLength="370.53" waitingTime="2.00" waitingCount="1" stopTime="0.00" timeLoss="11.92" rerouteNo="1" devices="tripinfo_h317c2:1 routing_h317c2:1 emissions_h317c2:1" vType="default_016" speedFactor="1.14" vaporized="">
        <emissions CO_abs="2252.915722" CO2_abs="127514.901910" HC_abs="13.262078" PMx_abs="2.459474" NOx_abs="53.416574" fuel_abs="54.813136" electricity_abs="0"/>
    </tripinfo>
    <tripinfo id="h3568c1:3" depart="57656.00" departLane="266565295#5_1" departPos="5.10" departSpeed="0.00" departDelay="0.80" arrival="57746.00" arrivalLane="-24634415_1" arrivalPos="62.03" arrivalSpeed="13.40" duration="90.00" routeLength="807.40" waitingTime="2.00" waitingCount="1" stopTime="0.00" timeLoss="27.71" rerouteNo="1" devices="tripinfo_h3568c1:3 routing_h3568c1:3 emissions_h3568c1:3" vType="default_016" speedFactor="1.04" vaporized="">
        <emissions CO_abs="4760.491418" CO2_abs="266373.350770" HC_abs="27.944567" PMx_abs="4.986284" NOx_abs="111.172209" fuel_abs="114.502598" electricity_abs="0"/>
    </tripinfo>
    <tripinfo id="h4538c1:1" depart="57701.00" departLane="-10427692#1_1" departPos="5.10" departSpeed="0.00" departDelay="0.00" arrival="57747.00" arrivalLane="-128361102#1_1" arrivalPos="274.68" arrivalSpeed="13.68" duration="46.00" routeLength="440.74" waitingTime="4.00" waitingCount="1" stopTime="0.00" timeLoss="13.87" rerouteNo="1" devices="tripinfo_h4538c1:1 routing_h4538c1:1 emissions_h4538c1:1" vType="default_016" speedFactor="1.00" vaporized="">
        <emissions CO_abs="2044.676942" CO2_abs="121382.126632" HC_abs="12.153107" PMx_abs="2.097404" NOx_abs="49.142547" fuel_abs="52.177227" electricity_abs="0"/>
    </tripinfo>
    <tripinfo id="carIn121703:1" depart="57647.00" departLane="386687232#0_1" departPos="5.10" departSpeed="0.00" departDelay="0.30" arrival="57753.00" arrivalLane="-315358244_1" arrivalPos="33.95" arrivalSpeed="15.41" duration="106.00" routeLength="1157.39" waitingTime="12.00" waitingCount="2" stopTime="0.00" timeLoss="31.62" rerouteNo="1" devices="tripinfo_carIn121703:1 routing_carIn121703:1 emissions_carIn121703:1" vType="default_016" speedFactor="1.15" vaporized="">
        <emissions CO_abs="4531.306220" CO2_abs="306877.489125" HC_abs="27.838802" PMx_abs="5.553191" NOx_abs="124.970289" fuel_abs="131.913273" electricity_abs="0"/>
    </tripinfo>
    <tripinfo id="h3154c1:1" depart="57658.00" departLane="24634507_1" departPos="5.10" departSpeed="0.00" departDelay="0.00" arrival="57767.00" arrivalLane="-266565295#5_1" arrivalPos="172.76" arrivalSpeed="13.37" duration="109.00" routeLength="1206.22" waitingTime="1.00" waitingCount="1" stopTime="0.00" timeLoss="19.38" rerouteNo="1" devices="tripinfo_h3154c1:1 routing_h3154c1:1 emissions_h3154c1:1" vType="default_016" speedFactor="0.99" vaporized="">
        <emissions CO_abs="3965.099892" CO2_abs="280427.728239" HC_abs="24.627739" PMx_abs="4.745153" NOx_abs="112.789274" fuel_abs="120.543961" electricity_abs="0"/>
    </tripinfo>
    <tripinfo id="h3326c1:2" depart="57656.00" departLane="22716069#0_1" departPos="5.10" departSpeed="0.00" departDelay="0.00" arrival="57769.00" arrivalLane="24634517#13_1" arrivalPos="111.62" arrivalSpeed="12.85" duration="113.00" routeLength="1312.81" waitingTime="0.00" waitingCount="0" stopTime="0.00" timeLoss="15.10" rerouteNo="1" devices="tripinfo_h3326c1:2 routing_h3326c1:2 emissions_h3326c1:2" vType="default_016" speedFactor="1.00" vaporized="">
        <emissions CO_abs="3913.431939" CO2_abs="292826.696279" HC_abs="24.704917" PMx_abs="5.023073" NOx_abs="118.100133" fuel_abs="125.873464" electricity_abs="0"/>
    </tripinfo>
    <tripinfo id="carIn28951:1" depart="57606.00" departLane="10425609#0_1" departPos="5.10" departSpeed="0.00" departDelay="0.20" arrival="57773.00" arrivalLane="-128361102#1_1" arrivalPos="274.68" arrivalSpeed="14.57" duration="167.00" routeLength="2113.04" waitingTime="0.00" waitingCount="0" stopTime="0.00" timeLoss="20.39" rerouteNo="1" devices="tripinfo_carIn28951:1 routing_carIn28951:1 emissions_carIn28951:1" vType="default_016" speedFactor="1.06" vaporized="">
        <emissions CO_abs="5336.686077" CO2_abs="480319.494879" HC_abs="35.368207" PMx_abs="7.659952" NOx_abs="187.977502" fuel_abs="206.468599" electricity_abs="0"/>
    </tripinfo>
    <tripinfo id="h645c1:1" depart="57622.00" departLane="266565295#5_1" departPos="5.10" departSpeed="0.00" departDelay="0.40" arrival="57774.00" arrivalLane="-315358244_1" arrivalPos="33.95" arrivalSpeed="13.68" duration="152.00" routeLength="1910.83" waitingTime="5.00" waitingCount="1" stopTime="0.00" timeLoss="23.15" rerouteNo="1" devices="tripinfo_h645c1:1 routing_h645c1:1 emissions_h645c1:1" vType="default_016" speedFactor="1.08" vaporized="">
        <emissions CO_abs="4063.683255" CO2_abs="372802.457043" HC_abs="27.037262" PMx_abs="5.831062" NOx_abs="144.359236" fuel_abs="160.251851" electricity_abs="0"/>
    </tripinfo>
    <tripinfo id="h11737c1:1" depart="57665.00" departLane="272042143_1" departPos="5.10" departSpeed="0.00" departDelay="1.50" arrival="57786.00" arrivalLane="-315358254#1_1" arrivalPos="137.16" arrivalSpeed="15.89" duration="121.00" routeLength="1596.88" waitingTime="2.00" waitingCount="1" stopTime="0.00" timeLoss="23.13" rerouteNo="1" devices="tripinfo_h11737c1:1 routing_h11737c1:1 emissions_h11737c1:1" vType="default_016" speedFactor="1.19" vaporized="">
        <emissions CO_abs="4375.483103" CO2_abs="356631.647627" HC_abs="28.209108" PMx_abs="6.137982" NOx_abs="141.769159" fuel_abs="153.300273" electricity_abs="0"/>
    </tripinfo>
    <tripinfo id="h5979c1:5" depart="57669.00" departLane="399835085#1_1" departPos="5.10" departSpeed="0.00" departDelay="0.00" arrival="57789.00" arrivalLane="-315358254#1_1" arrivalPos="137.16" arrivalSpeed="13.94" duration="120.00" routeLength="659.33" waitingTime="34.00" waitingCount="1" stopTime="0.00" timeLoss="50.54" rerouteNo="1" devices="tripinfo_h5979c1:5 routing_h5979c1:5 emissions_h5979c1:5" vType="default_016" speedFactor="1.05" vaporized="">
        <emissions CO_abs="8307.891521" CO2_abs="253457.272483" HC_abs="43.699038" PMx_abs="4.898705" NOx_abs="107.149571" fuel_abs="108.953482" electricity_abs="0"/>
    </tripinfo>
    <tripinfo id="carIn27009:1" depart="57673.00" departLane="-447569998#1_1" departPos="5.10" departSpeed="0.00" departDelay="0.50" arrival="57792.00" arrivalLane="-26677539_1" arrivalPos="152.75" arrivalSpeed="6.17" duration="119.00" routeLength="699.63" waitingTime="10.00" waitingCount="1" stopTime="0.00" timeLoss="25.43" rerouteNo="1" devices="tripinfo_carIn27009:1 routing_carIn27009:1 emissions_carIn27009:1" vType="default_015" speedFactor="0.89" vaporized="">
        <emissions CO_abs="5176.503217" CO2_abs="197452.479545" HC_abs="28.100831" PMx_abs="3.348767" NOx_abs="81.238389" fuel_abs="84.878272" electricity_abs="0"/>
    </tripinfo>
    <tripinfo id="carIn80064:1" depart="57603.00" departLane="128361109#1_1" departPos="5.10" departSpeed="0.00" departDelay="0.40" arrival="57801.00" arrivalLane="-315358254#1_1" arrivalPos="137.16" arrivalSpeed="13.76" duration="198.00" routeLength="1587.97" waitingTime="77.00" waitingCount="3" stopTime="0.00" timeLoss="111.68" rerouteNo="1" devices="tripinfo_carIn80064:1 routing_carIn80064:1 emissions_carIn80064:1" vType="default_016" speedFactor="1.04" vaporized="">
        <emissions CO_abs="17651.774691" CO2_abs="647893.211198" HC_abs="95.840262" PMx_abs="13.677330" NOx_abs="275.940507" fuel_abs="278.505095" electricity_abs="0"/>
    </tripinfo>
    <tripinfo id="carIn129809:1" depart="57729.00" departLane="-447569998#1_1" departPos="5.10" departSpeed="0.00" departDelay="1.00" arrival="57802.00" arrivalLane="-315358244_1" arrivalPos="33.95" arrivalSpeed="12.59" duration="73.00" routeLength="706.49" waitingTime="0.00" waitingCount="0" stopTime="0.00" timeLoss="8.13" rerouteNo="1" devices="tripinfo_carIn129809:1 routing_carIn129809:1 emissions_carIn129809:1" vType="default_015" speedFactor="0.94" vaporized="">
        <emissions CO_abs="2404.392125" CO2_abs="158330.803496" HC_abs="14.611376" PMx_abs="2.475510" NOx_abs="62.605255" fuel_abs="68.060111" electricity_abs="0"/>
    </tripinfo>
    <tripinfo id="carIn48184:1" depart="57613.00" departLane="-306240162#1_0" departPos="5.10" departSpeed="0.00" departDelay="0.70" arrival="57803.00" arrivalLane="386687235_1" arrivalPos="80.84" arrivalSpeed="13.11" duration="190.00" routeLength="2257.41" waitingTime="11.00" waitingCount="1" stopTime="0.00" timeLoss="35.77" rerouteNo="1" devices="tripinfo_carIn48184:1 routing_carIn48184:1 emissions_carIn48184:1" vType="default_016" speedFactor="0.96" vaporized="">
        <emissions CO_abs="7107.002138" CO2_abs="508456.285509" HC_abs="44.250155" PMx_abs="8.761657" NOx_abs="203.511499" fuel_abs="218.563626" electricity_abs="0"/>
    </tripinfo>
    <tripinfo id="carIn82220:1" depart="57619.00" departLane="-306240162#1_0" departPos="5.10" departSpeed="0.00" departDelay="3.50" arrival="57804.00" arrivalLane="386687235_1" arrivalPos="80.84" arrivalSpeed="14.05" duration="185.00" routeLength="2257.41" waitingTime="10.00" waitingCount="1" stopTime="0.00" timeLoss="47.19" rerouteNo="1" devices="tripinfo_carIn82220:1 routing_carIn82220:1 emissions_carIn82220:1" vType="default_016" speedFactor="1.08" vaporized="">
        <emissions CO_abs="8433.341756" CO2_abs="566886.457379" HC_abs="51.801298" PMx_abs="10.389295" NOx_abs="230.141980" fuel_abs="243.679833" electricity_abs="0"/>
    </tripinfo>
    <tripinfo id="carIn82278:1" depart="57702.00" departLane="-306240162#1_0" departPos="5.10" departSpeed="0.00" departDelay="0.70" arrival="57804.00" arrivalLane="399835085#1_1" arrivalPos="212.23" arrivalSpeed="7.28" duration="102.00" routeLength="1093.26" waitingTime="4.00" waitingCount="1" stopTime="0.00" timeLoss="22.26" rerouteNo="1" devices="tripinfo_carIn82278:1 routing_carIn82278:1 emissions_carIn82278:1" vType="default_016" speedFactor="0.98" vaporized="">
        <emissions CO_abs="4970.191778" CO2_abs="308817.236449" HC_abs="29.916028" PMx_abs="5.829546" NOx_abs="127.423238" fuel_abs="132.747057" electricity_abs="0"/>
    </tripinfo>
    <tripinfo id="carIn107282:1" depart="57749.00" departLane="-447569998#1_1" departPos="5.10" departSpeed="0.00" departDelay="0.00" arrival="57804.00" arrivalLane="315358242#0_1" arrivalPos="165.37" arrivalSpeed="14.55" duration="55.00" routeLength="448.50" waitingTime="7.00" waitingCount="1" stopTime="0.00" timeLoss="16.68" rerouteNo="1" devices="tripinfo_carIn107282:1 routing_carIn107282:1 emissions_carIn107282:1" vType="default_016" speedFactor="1.09" vaporized="">
        <emissions CO_abs="2312.834630" CO2_abs="126190.115143" HC_abs="13.390832" PMx_abs="2.191770" NOx_abs="51.284560" fuel_abs="54.244098" electricity_abs="0"/>
    </tripinfo>
    <tripinfo id="h330c1:1" depart="57736.00" departLane="-32978638#0_1" departPos="5.10" departSpeed="0.00" departDelay="0.20" arrival="57806.00" arrivalLane="-266565295#5_1" arrivalPos="172.76" arrivalSpeed="11.67" duration="70.00" routeLength="370.53" waitingTime="32.00" waitingCount="1" stopTime="0.00" timeLoss="40.26" rerouteNo="1" devices="tripinfo_h330c1:1 routing_h330c1:1 emissions_h330c1:1" vType="default_016" speedFactor="0.92" vaporized="">
        <emissions CO_abs="6085.778377" CO2_abs="176777.511843" HC_abs="31.869484" PMx_abs="3.683849" NOx_abs="76.192608" fuel_abs="75.991085" electricity_abs="0"/>
    </tripinfo>
    <tripinfo id="carIn126288:1" depart="57674.00" departLane="272042143_1" departPos="5.10" departSpeed="0.00" departDelay="0.00" arrival="57807.00" arrivalLane="-315358254#1_1" arrivalPos="137.16" arrivalSpeed="12.98" duration="133.00" routeLength="1596.88" waitingTime="0.00" waitingCount="0" stopTime="0.00" timeLoss="14.84" rerouteNo="1" devices="tripinfo_carIn126288:1 routing_carIn126288:1 emissions_carIn126288:1" vType="default_016" speedFactor="0.99" vaporized="">
        <emissions CO_abs="3933.415772" CO2_abs="316508.872756" HC_abs="25.284121" PMx_abs="5.130329" NOx_abs="125.177923" fuel_abs="136.053656" electricity_abs="0"/>
    </tripinfo>
    <tripinfo id="carIn30817:1" depart="57681.00" departLane="315358244_1" departPos="5.10" departSpeed="0.00" departDelay="0.20" arrival="57824.00" arrivalLane="447569997#1_1" arrivalPos="180.93" arrivalSpeed="7.10" duration="143.00" routeLength="718.04" waitingTime="58.00" waitingCount="2" stopTime="0.00" timeLoss="73.71" rerouteNo="1" devices="tripinfo_carIn30817:1 routing_carIn30817:1 emissions_carIn30817:1" vType="default_016" speedFactor="0.89" vaporized="">
        <emissions CO_abs="11489.830427" CO2_abs="307759.404209" HC_abs="59.489469" PMx_abs="6.225802" NOx_abs="131.736639" fuel_abs="132.297096" electricity_abs="0"/>
    </tripinfo>
    <tripinfo id="carIn12365:1" depart="57713.00" departLane="315358244_1" departPos="5.10" departSpeed="0.00" departDelay="0.50" arrival="57829.00" arrivalLane="447569997#1_1" arrivalPos="180.93" arrivalSpeed="6.75" duration="116.00" routeLength="718.04" waitingTime="26.00" waitingCount="2" stopTime="0.00" timeLoss="42.24" rerouteNo="1" devices="tripinfo_carIn12365:1 routing_carIn12365:1 emissions_carIn12365:1" vType="default_016" speedFactor="0.84" vaporized="">
        <emissions CO_abs="6538.995273" CO2_abs="230162.973043" HC_abs="35.107795" PMx_abs="4.189550" NOx_abs="95.701881" fuel_abs="98.939512" electricity_abs="0"/>
    </tripinfo>
    <tripinfo id="carIn107084:1" depart="57601.00" departLane="124812856#0_1" departPos="5.10" departSpeed="0.00" departDelay="0.70" arrival="57837.00" arrivalLane="-128361102#1_1" arrivalPos="274.68" arrivalSpeed="13.18" duration="236.00" routeLength="2250.49" waitingTime="36.00" waitingCount="2" stopTime="0.00" timeLoss="64.56" rerouteNo="1" devices="tripinfo_carIn107084:1 routing_carIn107084:1 emissions_carIn107084:1" vType="default_016" speedFactor="0.96" vaporized="">
        <emissions CO_abs="10609.821934" CO2_abs="543690.962584" HC_abs="60.957491" PMx_abs="9.294832" NOx_abs="219.069067" fuel_abs="233.712008" electricity_abs="0"/>
    </tripinfo>
    <tripinfo id="carIn77943:1" depart="57608.00" departLane="124812856#0_1" departPos="5.10" departSpeed="0.00" departDelay="2.50" arrival="57840.00" arrivalLane="-128361102#1_1" arrivalPos="274.68" arrivalSpeed="13.21" duration="232.00" routeLength="2250.49" waitingTime="29.00" waitingCount="3" stopTime="0.00" timeLoss="65.46" rerouteNo="1" devices="tripinfo_carIn77943:1 routing_carIn77943:1 emissions_carIn77943:1" vType="default_016" speedFactor="0.99" vaporized="">
        <emissions CO_abs="10818.720814" CO2_abs="593977.243971" HC_abs="63.223979" PMx_abs="10.656403" NOx_abs="243.040695" fuel_abs="255.326692" electricity_abs="0"/>
    </tripinfo>
    <tripinfo id="carIn126378:1" depart="57746.00" departLane="386687232#0_1" departPos="5.10" departSpeed="0.00" departDelay="1.80" arrival="57843.00" arrivalLane="-315358244_1" arrivalPos="33.95" arrivalSpeed="13.64" duration="97.00" routeLength="1157.39" waitingTime="0.00" waitingCount="0" stopTime="0.00" timeLoss="14.45" rerouteNo="1" devices="tripinfo_carIn126378:1 routing_carIn126378:1 emissions_carIn126378:1" vType="default_016" speedFactor="1.02" vaporized="">
        <emissions CO_abs="3135.180720" CO2_abs="252944.495839" HC_abs="20.130229" PMx_abs="3.998514" NOx_abs="99.219260" fuel_abs="108.730204" electricity_abs="0"/>
    </tripinfo>
    <tripinfo id="h17549c1:1" depart="57680.00" departLane="-447569998#1_1" departPos="5.10" departSpeed="0.00" departDelay="0.00" arrival="57846.00" arrivalLane="-315358254#1_1" arrivalPos="137.16" arrivalSpeed="13.67" duration="166.00" routeLength="1746.60" waitingTime="9.00" waitingCount="3" stopTime="0.00" timeLoss="37.08" rerouteNo="1" devices="tripinfo_h17549c1:1 routing_h17549c1:1 emissions_h17549c1:1" vType="default_016" speedFactor="1.06" vaporized="">
        <emissions CO_abs="5604.045876" CO2_abs="377893.898222" HC_abs="34.264041" PMx_abs="6.393133" NOx_abs="151.513028" fuel_abs="162.440778" electricity_abs="0"/>
    </tripinfo>
    <tripinfo id="carIn73855:1" depart="57743.00" departLane="386687232#0_1" departPos="5.10" departSpeed="0.00" departDelay="0.50" arrival="57848.00" arrivalLane="-315358244_1" arrivalPos="33.95" arrivalSpeed="12.50" duration="105.00" routeLength="1157.39" waitingTime="0.00" waitingCount="0" stopTime="0.00" timeLoss="17.00" rerouteNo="1" devices="tripinfo_carIn73855:1 routing_carIn73855:1 emissions_carIn73855:1" vType="default_016" speedFactor="0.96" vaporized="">
        <emissions CO_abs="3679.341902" CO2_abs="257276.368208" HC_abs="22.743830" PMx_abs="4.156863" NOx_abs="102.079995" fuel_abs="110.592524" electricity_abs="0"/>
    </tripinfo>
    <tripinfo id="carIn12152:1" depart="57647.00" departLane="24599188#0.94_1" departPos="5.10" departSpeed="0.00" departDelay="0.50" arrival="57851.00" arrivalLane="-315358254#1_1" arrivalPos="137.16" arrivalSpeed="15.62" duration="204.00" routeLength="2034.31" waitingTime="34.00" waitingCount="3" stopTime="0.00" timeLoss="65.70" rerouteNo="1" devices="tripinfo_carIn12152:1 routing_carIn12152:1 emissions_carIn12152:1" vType="default_016" speedFactor="1.15" vaporized="">
        <emissions CO_abs="10318.411771" CO2_abs="533559.421196" HC_abs="59.394783" PMx_abs="9.702883" NOx_abs="217.369452" fuel_abs="229.355994" electricity_abs="0"/>
    </tripinfo>
    <tripinfo id="carIn50326:1" depart="57651.00" departLane="128361102#0_1" departPos="5.10" departSpeed="0.00" departDelay="0.30" arrival="57852.00" arrivalLane="18809673#0_1" arrivalPos="473.56" arrivalSpeed="14.08" duration="201.00" routeLength="1591.07" waitingTime="52.00" waitingCount="2" stopTime="0.00" timeLoss="75.71" rerouteNo="1" devices="tripinfo_carIn50326:1 routing_carIn50326:1 emissions_carIn50326:1" vType="default_016" speedFactor="1.04" vaporized="">
        <emissions CO_abs="11657.433466" CO2_abs="445471.294658" HC_abs="63.466541" PMx_abs="8.241472" NOx_abs="184.118026" fuel_abs="191.492639" electricity_abs="0"/>
    </tripinfo>
    <tripinfo id="h17600c1:1" depart="57662.00" departLane="272042143_1" departPos="5.10" departSpeed="0.00" departDelay="0.30" arrival="57857.00" arrivalLane="201238729#3_1" arrivalPos="431.02" arrivalSpeed="11.48" duration="195.00" routeLength="2100.26" waitingTime="5.00" waitingCount="1" stopTime="0.00" timeLoss="23.55" rerouteNo="1" devices="tripinfo_h17600c1:1 routing_h17600c1:1 emissions_h17600c1:1" vType="default_016" speedFactor="0.88" vaporized="">
        <emissions CO_abs="4786.079977" CO2_abs="392991.226472" HC_abs="30.861643" PMx_abs="5.763875" NOx_abs="152.028703" fuel_abs="168.930951" electricity_abs="0"/>
    </tripinfo>
    <tripinfo id="randUni15030:1" depart="57735.00" departLane="386687232#0_1" departPos="5.10" departSpeed="0.00" departDelay="0.10" arrival="57860.00" arrivalLane="26677539_1" arrivalPos="151.98" arrivalSpeed="6.04" duration="125.00" routeLength="919.89" waitingTime="5.00" waitingCount="2" stopTime="0.00" timeLoss="24.19" rerouteNo="1" devices="tripinfo_randUni15030:1 routing_randUni15030:1 emissions_randUni15030:1" vType="random_016" speedFactor="0.83" vaporized="">
        <emissions CO_abs="4667.771828" CO2_abs="230613.085536" HC_abs="26.552708" PMx_abs="3.671642" NOx_abs="92.558129" fuel_abs="99.132185" electricity_abs="0"/>
    </tripinfo>
    <tripinfo id="carIn81046:1" depart="57611.00" departLane="124812856#0_1" departPos="5.10" departSpeed="0.00" departDelay="2.50" arrival="57865.00" arrivalLane="-128361102#1_1" arrivalPos="274.68" arrivalSpeed="13.14" duration="254.00" routeLength="2250.49" waitingTime="45.00" waitingCount="4" stopTime="0.00" timeLoss="94.75" rerouteNo="1" devices="tripinfo_carIn81046:1 routing_carIn81046:1 emissions_carIn81046:1" vType="default_016" speedFactor="1.03" vaporized="">
        <emissions CO_abs="13727.788833" CO2_abs="649262.420962" HC_abs="77.728989" PMx_abs="12.101409" NOx_abs="268.581867" fuel_abs="279.092467" electricity_abs="0"/>
    </tripinfo>
    <tripinfo id="carIn77438:1" depart="57614.00" departLane="124812856#0_1" departPos="5.10" departSpeed="0.00" departDelay="1.10" arrival="57867.00" arrivalLane="-128361102#1_1" arrivalPos="274.68" arrivalSpeed="14.97" duration="253.00" routeLength="2250.49" waitingTime="43.00" waitingCount="3" stopTime="0.00" timeLoss="104.37" rerouteNo="1" devices="tripinfo_carIn77438:1 routing_carIn77438:1 emissions_carIn77438:1" vType="default_016" speedFactor="1.10" vaporized="">
        <emissions CO_abs="13561.378458" CO2_abs="682343.038625" HC_abs="77.773128" PMx_abs="12.756441" NOx_abs="282.605626" fuel_abs="293.311718" electricity_abs="0"/>
    </tripinfo>
    <tripinfo id="h19804c1:3" depart="57617.00" departLane="124812856#0_1" departPos="5.10" departSpeed="0.00" departDelay="1.50" arrival="57870.00" arrivalLane="-128361102#1_1" arrivalPos="274.68" arrivalSpeed="12.88" duration="253.00" routeLength="2250.49" waitingTime="39.00" waitingCount="3" stopTime="0.00" timeLoss="90.32" rerouteNo="1" devices="tripinfo_h19804c1:3 routing_h19804c1:3 emissions_h19804c1:3" vType="default_016" speedFactor="1.01" vaporized="">
        <emissions CO_abs="11776.885255" CO2_abs="594088.130190" HC_abs="67.484995" PMx_abs="10.581392" NOx_abs="242.485374" fuel_abs="255.375293" electricity_abs="0"/>
    </tripinfo>
    <tripinfo id="h7181c1:1" depart="57660.00" departLane="315358254#0_1" departPos="5.10" departSpeed="0.00" departDelay="0.10" arrival="57870.00" arrivalLane="306240162#0_0" arrivalPos="220.43" arrivalSpeed="15.98" duration="210.00" routeLength="932.35" waitingTime="130.00" waitingCount="3" stopTime="0.00" timeLoss="158.32" rerouteNo="1" devices="tripinfo_h7181c1:1 routing_h7181c1:1 emissions_h7181c1:1" vType="default_016" speedFactor="1.00" vaporized="">
        <emissions CO_abs="24224.516949" CO2_abs="624649.831538" HC_abs="125.140948" PMx_abs="14.050352" NOx_abs="274.158802" fuel_abs="268.518220" electricity_abs="0"/>
    </tripinfo>
    <tripinfo id="carIn118538:1" depart="57683.00" departLane="-447569998#1_1" departPos="5.10" departSpeed="0.00" departDelay="1.00" arrival="57870.00" arrivalLane="399835085#1_1" arrivalPos="212.23" arrivalSpeed="9.49" duration="187.00" routeLength="1907.17" waitingTime="5.00" waitingCount="1" stopTime="0.00" timeLoss="50.83" rerouteNo="1" devices="tripinfo_carIn118538:1 routing_carIn118538:1 emissions_carIn118538:1" vType="default_016" speedFactor="1.19" vaporized="">
        <emissions CO_abs="6778.366146" CO2_abs="431694.687751" HC_abs="40.931257" PMx_abs="7.279007" NOx_abs="173.491357" fuel_abs="185.567806" electricity_abs="0"/>
    </tripinfo>
    <tripinfo id="carIn8642:1" depart="57774.00" departLane="-447569998#1_1" departPos="5.10" departSpeed="0.00" departDelay="0.90" arrival="57873.00" arrivalLane="-315358244_1" arrivalPos="33.95" arrivalSpeed="13.27" duration="99.00" routeLength="706.49" waitingTime="26.00" waitingCount="2" stopTime="0.00" timeLoss="40.99" rerouteNo="1" devices="tripinfo_carIn8642:1 routing_carIn8642:1 emissions_carIn8642:1" vType="default_016" speedFactor="1.04" vaporized="">
        <emissions CO_abs="5412.705817" CO2_abs="226485.530692" HC_abs="29.906155" PMx_abs="4.140242" NOx_abs="93.367298" fuel_abs="97.357887" electricity_abs="0"/>
    </tripinfo>
    <tripinfo id="randUni31145:1" depart="57814.00" departLane="10425609#0_1" departPos="5.10" departSpeed="0.00" departDelay="0.30" arrival="57873.00" arrivalLane="201956810_1" arrivalPos="71.65" arrivalSpeed="15.07" duration="59.00" routeLength="255.78" waitingTime="31.00" waitingCount="1" stopTime="0.00" timeLoss="41.54" rerouteNo="1" devices="tripinfo_randUni31145:1 routing_randUni31145:1 emissions_randUni31145:1" vType="random_016" speedFactor="1.16" vaporized="">
        <emissions CO_abs="6483.623069" CO2_abs="191273.218515" HC_abs="34.002619" PMx_abs="4.093550" NOx_abs="83.125960" fuel_abs="82.222074" electricity_abs="0"/>
    </tripinfo>
    <tripinfo id="randUni2407:1" depart="57820.00" departLane="10425609#0_1" departPos="5.10" departSpeed="0.00" departDelay="0.80" arrival="57875.00" arrivalLane="201956810_1" arrivalPos="71.65" arrivalSpeed="15.08" duration="55.00" routeLength="255.78" waitingTime="25.00" waitingCount="1" stopTime="0.00" timeLoss="37.38" rerouteNo="1" devices="tripinfo_randUni2407:1 routing_randUni2407:1 emissions_randUni2407:1" vType="random_016" speedFactor="1.15" vaporized="">