<?xml version="1.0" encoding="UTF-8"?>

<!-- generated on Thu Nov  4 14:11:00 2021 by Eclipse SUMO sumo Version 1.9.0
<configuration xmlns:xsi="http://www.w3.org/2001/XMLSchema-instance" xsi:noNamespaceSchemaLocation="http://sumo.dlr.de/xsd/sumoConfiguration.xsd">

    <input>
        <net-file value="/mainfs/home/bk2g18/RESCO/environments/ingolstadt21/ingolstadt21.net.xml"/>
        <route-files value="/mainfs/home/bk2g18/RESCO/environments/ingolstadt21/ingolstadt21.rou.xml"/>
    </input>

    <output>
        <tripinfo-output value="/mainfs/home/bk2g18/RESCO/logs/MPLight-tr0-ingolstadt21-21-mplight_full-pressure/tripinfo_76.xml"/>
        <tripinfo-output.write-unfinished value="true"/>
    </output>

    <time>
        <begin value="57600"/>
        <end value="61200"/>
    </time>

    <processing>
        <time-to-teleport value="-1"/>
    </processing>

    <report>
        <xml-validation value="never"/>
        <xml-validation.routes value="never"/>
        <no-warnings value="true"/>
        <no-step-log value="true"/>
    </report>

    <emissions>
        <device.emissions.probability value="1"/>
    </emissions>

    <traci_server>
        <remote-port value="60640"/>
    </traci_server>

    <random_number>
        <random value="true"/>
    </random_number>

</configuration>
-->

<tripinfos xmlns:xsi="http://www.w3.org/2001/XMLSchema-instance" xsi:noNamespaceSchemaLocation="http://sumo.dlr.de/xsd/tripinfo_file.xsd">
    <tripinfo id="h15454c2:3" depart="57612.00" departLane="24608844_1" departPos="5.10" departSpeed="0.00" departDelay="0.50" arrival="57652.00" arrivalLane="32978638#0_1" arrivalPos="49.29" arrivalSpeed="13.48" duration="40.00" routeLength="354.79" waitingTime="0.00" waitingCount="0" stopTime="0.00" timeLoss="5.85" rerouteNo="1" devices="tripinfo_h15454c2:3 routing_h15454c2:3 emissions_h15454c2:3" vType="default_016" speedFactor="0.99" vaporized="">
        <emissions CO_abs="2100.597568" CO2_abs="112834.369480" HC_abs="12.208675" PMx_abs="2.028546" NOx_abs="46.719626" fuel_abs="48.502890" electricity_abs="0"/>
    </tripinfo>
    <tripinfo id="carIn53971:1" depart="57640.00" departLane="272042143_1" departPos="5.10" departSpeed="0.00" departDelay="0.80" arrival="57706.00" arrivalLane="24634414#1_1" arrivalPos="162.19" arrivalSpeed="6.50" duration="66.00" routeLength="493.04" waitingTime="0.00" waitingCount="0" stopTime="0.00" timeLoss="8.73" rerouteNo="1" devices="tripinfo_carIn53971:1 routing_carIn53971:1 emissions_carIn53971:1" vType="default_016" speedFactor="0.80" vaporized="">
        <emissions CO_abs="2951.613902" CO2_abs="139240.169414" HC_abs="16.640719" PMx_abs="2.259372" NOx_abs="56.319901" fuel_abs="59.854321" electricity_abs="0"/>
    </tripinfo>
    <tripinfo id="h7800c1:5" depart="57696.00" departLane="-447569998#1_1" departPos="5.10" departSpeed="0.00" departDelay="0.00" arrival="57719.00" arrivalLane="-447569998#1_1" arrivalPos="180.76" arrivalSpeed="8.99" duration="23.00" routeLength="175.66" waitingTime="0.00" waitingCount="0" stopTime="0.00" timeLoss="3.06" rerouteNo="1" devices="tripinfo_h7800c1:5 routing_h7800c1:5 emissions_h7800c1:5" vType="default_016" speedFactor="1.08" vaporized="">
        <emissions CO_abs="1100.167077" CO2_abs="51686.454338" HC_abs="6.200315" PMx_abs="0.855974" NOx_abs="21.054047" fuel_abs="22.218114" electricity_abs="0"/>
    </tripinfo>
    <tripinfo id="carIn60260:1" depart="57606.00" departLane="315358254#0_1" departPos="5.10" departSpeed="0.00" departDelay="0.90" arrival="57731.00" arrivalLane="399835085#1_1" arrivalPos="212.23" arrivalSpeed="7.67" duration="125.00" routeLength="430.98" waitingTime="71.00" waitingCount="1" stopTime="0.00" timeLoss="81.78" rerouteNo="1" devices="tripinfo_carIn60260:1 routing_carIn60260:1 emissions_carIn60260:1" vType="default_016" speedFactor="1.06" vaporized="">
        <emissions CO_abs="13726.558041" CO2_abs="302432.927162" HC_abs="69.566465" PMx_abs="6.600168" NOx_abs="132.727005" fuel_abs="130.008725" electricity_abs="0"/>
    </tripinfo>
    <tripinfo id="carIn121703:1" depart="57647.00" departLane="386687232#0_1" departPos="5.10" departSpeed="0.00" departDelay="0.30" arrival="57733.00" arrivalLane="-315358244_1" arrivalPos="33.95" arrivalSpeed="14.83" duration="86.00" routeLength="1157.39" waitingTime="0.00" waitingCount="0" stopTime="0.00" timeLoss="8.18" rerouteNo="1" devices="tripinfo_carIn121703:1 routing_carIn121703:1 emissions_carIn121703:1" vType="default_016" speedFactor="1.09" vaporized="">
        <emissions CO_abs="2537.396373" CO2_abs="229277.428427" HC_abs="16.831893" PMx_abs="3.762967" NOx_abs="90.034303" fuel_abs="98.556323" electricity_abs="0"/>
    </tripinfo>
    <tripinfo id="h3568c1:3" depart="57656.00" departLane="266565295#5_1" departPos="5.10" departSpeed="0.00" departDelay="0.80" arrival="57740.00" arrivalLane="-24634415_1" arrivalPos="62.03" arrivalSpeed="12.50" duration="84.00" routeLength="807.40" waitingTime="0.00" waitingCount="0" stopTime="0.00" timeLoss="13.26" rerouteNo="1" devices="tripinfo_h3568c1:3 routing_h3568c1:3 emissions_h3568c1:3" vType="default_016" speedFactor="0.92" vaporized="">
        <emissions CO_abs="3306.181786" CO2_abs="204683.518694" HC_abs="19.830469" PMx_abs="3.458663" NOx_abs="82.827078" fuel_abs="87.985049" electricity_abs="0"/>
    </tripinfo>
    <tripinfo id="h5979c1:5" depart="57669.00" departLane="399835085#1_1" departPos="5.10" departSpeed="0.00" departDelay="0.00" arrival="57754.00" arrivalLane="-315358254#1_1" arrivalPos="137.16" arrivalSpeed="13.67" duration="85.00" routeLength="659.33" waitingTime="0.00" waitingCount="0" stopTime="0.00" timeLoss="17.08" rerouteNo="1" devices="tripinfo_h5979c1:5 routing_h5979c1:5 emissions_h5979c1:5" vType="default_016" speedFactor="1.07" vaporized="">
        <emissions CO_abs="3601.701957" CO2_abs="172740.100572" HC_abs="20.406847" PMx_abs="2.980617" NOx_abs="71.030184" fuel_abs="74.254408" electricity_abs="0"/>
    </tripinfo>
    <tripinfo id="h4538c1:1" depart="57701.00" departLane="-10427692#1_1" departPos="5.10" departSpeed="0.00" departDelay="0.00" arrival="57764.00" arrivalLane="-128361102#1_1" arrivalPos="274.68" arrivalSpeed="14.51" duration="63.00" routeLength="440.74" waitingTime="23.00" waitingCount="1" stopTime="0.00" timeLoss="33.11" rerouteNo="1" devices="tripinfo_h4538c1:1 routing_h4538c1:1 emissions_h4538c1:1" vType="default_016" speedFactor="1.08" vaporized="">
        <emissions CO_abs="5135.262016" CO2_abs="174169.079664" HC_abs="27.453075" PMx_abs="3.507714" NOx_abs="73.829021" fuel_abs="74.869292" electricity_abs="0"/>
    </tripinfo>
    <tripinfo id="h11737c1:1" depart="57665.00" departLane="272042143_1" departPos="5.10" departSpeed="0.00" departDelay="1.50" arrival="57777.00" arrivalLane="-315358254#1_1" arrivalPos="137.16" arrivalSpeed="15.23" duration="112.00" routeLength="1596.88" waitingTime="0.00" waitingCount="0" stopTime="0.00" timeLoss="13.60" rerouteNo="1" devices="tripinfo_h11737c1:1 routing_h11737c1:1 emissions_h11737c1:1" vType="default_016" speedFactor="1.18" vaporized="">
        <emissions CO_abs="4272.687889" CO2_abs="358123.357755" HC_abs="27.750861" PMx_abs="6.415805" NOx_abs="144.208903" fuel_abs="153.940969" electricity_abs="0"/>
    </tripinfo>
    <tripinfo id="carIn27009:1" depart="57673.00" departLane="-447569998#1_1" departPos="5.10" departSpeed="0.00" departDelay="0.50" arrival="57780.00" arrivalLane="-26677539_1" arrivalPos="152.75" arrivalSpeed="8.24" duration="107.00" routeLength="699.63" waitingTime="13.00" waitingCount="1" stopTime="0.00" timeLoss="27.05" rerouteNo="1" devices="tripinfo_carIn27009:1 routing_carIn27009:1 emissions_carIn27009:1" vType="default_015" speedFactor="1.05" vaporized="">
        <emissions CO_abs="5665.365579" CO2_abs="217918.151465" HC_abs="30.818381" PMx_abs="3.773446" NOx_abs="89.789320" fuel_abs="93.675665" electricity_abs="0"/>
    </tripinfo>
    <tripinfo id="h3326c1:2" depart="57656.00" departLane="22716069#0_1" departPos="5.10" departSpeed="0.00" departDelay="0.00" arrival="57782.00" arrivalLane="24634517#13_1" arrivalPos="111.62" arrivalSpeed="12.03" duration="126.00" routeLength="1312.81" waitingTime="0.00" waitingCount="0" stopTime="0.00" timeLoss="15.17" rerouteNo="1" devices="tripinfo_h3326c1:2 routing_h3326c1:2 emissions_h3326c1:2" vType="default_016" speedFactor="0.87" vaporized="">
        <emissions CO_abs="4367.032418" CO2_abs="293203.601114" HC_abs="26.711160" PMx_abs="4.808014" NOx_abs="117.590217" fuel_abs="126.036121" electricity_abs="0"/>
    </tripinfo>
    <tripinfo id="h7181c1:1" depart="57660.00" departLane="315358254#0_1" departPos="5.10" departSpeed="0.00" departDelay="0.10" arrival="57793.00" arrivalLane="306240162#0_0" arrivalPos="220.43" arrivalSpeed="13.52" duration="133.00" routeLength="932.35" waitingTime="57.00" waitingCount="2" stopTime="0.00" timeLoss="73.30" rerouteNo="1" devices="tripinfo_h7181c1:1 routing_h7181c1:1 emissions_h7181c1:1" vType="default_016" speedFactor="0.86" vaporized="">
        <emissions CO_abs="11427.273629" CO2_abs="378468.992249" HC_abs="60.863518" PMx_abs="7.754907" NOx_abs="160.302629" fuel_abs="162.690912" electricity_abs="0"/>
    </tripinfo>
    <tripinfo id="carIn129809:1" depart="57729.00" departLane="-447569998#1_1" departPos="5.10" departSpeed="0.00" departDelay="1.00" arrival="57795.00" arrivalLane="-315358244_1" arrivalPos="33.95" arrivalSpeed="14.32" duration="66.00" routeLength="706.49" waitingTime="0.00" waitingCount="0" stopTime="0.00" timeLoss="10.70" rerouteNo="1" devices="tripinfo_carIn129809:1 routing_carIn129809:1 emissions_carIn129809:1" vType="default_015" speedFactor="1.09" vaporized="">
        <emissions CO_abs="2500.143155" CO2_abs="161079.456120" HC_abs="15.038576" PMx_abs="2.641906" NOx_abs="64.095788" fuel_abs="69.241527" electricity_abs="0"/>
    </tripinfo>
    <tripinfo id="carIn107282:1" depart="57749.00" departLane="-447569998#1_1" departPos="5.10" departSpeed="0.00" departDelay="0.00" arrival="57795.00" arrivalLane="315358242#0_1" arrivalPos="165.37" arrivalSpeed="13.31" duration="46.00" routeLength="448.50" waitingTime="0.00" waitingCount="0" stopTime="0.00" timeLoss="4.87" rerouteNo="1" devices="tripinfo_carIn107282:1 routing_carIn107282:1 emissions_carIn107282:1" vType="default_016" speedFactor="1.02" vaporized="">
        <emissions CO_abs="1897.258035" CO2_abs="114014.767833" HC_abs="11.292500" PMx_abs="1.895277" NOx_abs="45.879891" fuel_abs="49.010373" electricity_abs="0"/>
    </tripinfo>
    <tripinfo id="carIn126288:1" depart="57674.00" departLane="272042143_1" departPos="5.10" departSpeed="0.00" departDelay="0.00" arrival="57806.00" arrivalLane="-315358254#1_1" arrivalPos="137.16" arrivalSpeed="12.41" duration="132.00" routeLength="1596.88" waitingTime="0.00" waitingCount="0" stopTime="0.00" timeLoss="12.09" rerouteNo="1" devices="tripinfo_carIn126288:1 routing_carIn126288:1 emissions_carIn126288:1" vType="default_016" speedFactor="0.97" vaporized="">
        <emissions CO_abs="3602.968039" CO2_abs="313041.104237" HC_abs="23.683312" PMx_abs="4.893451" NOx_abs="122.506987" fuel_abs="134.563056" electricity_abs="0"/>
    </tripinfo>
    <tripinfo id="h17549c1:1" depart="57680.00" departLane="-447569998#1_1" departPos="5.10" departSpeed="0.00" departDelay="0.00" arrival="57826.00" arrivalLane="-315358254#1_1" arrivalPos="137.16" arrivalSpeed="15.09" duration="146.00" routeLength="1746.60" waitingTime="9.00" waitingCount="1" stopTime="0.00" timeLoss="23.91" rerouteNo="1" devices="tripinfo_h17549c1:1 routing_h17549c1:1 emissions_h17549c1:1" vType="default_016" speedFactor="1.12" vaporized="">
        <emissions CO_abs="4967.880598" CO2_abs="352203.290961" HC_abs="30.792906" PMx_abs="6.041546" NOx_abs="140.851626" fuel_abs="151.397206" electricity_abs="0"/>
    </tripinfo>
    <tripinfo id="randUni15030:1" depart="57735.00" departLane="386687232#0_1" departPos="5.10" departSpeed="0.00" departDelay="0.10" arrival="57828.00" arrivalLane="26677539_1" arrivalPos="151.98" arrivalSpeed="8.04" duration="93.00" routeLength="919.89" waitingTime="0.00" waitingCount="0" stopTime="0.00" timeLoss="12.70" rerouteNo="1" devices="tripinfo_randUni15030:1 routing_randUni15030:1 emissions_randUni15030:1" vType="random_016" speedFactor="1.04" vaporized="">
        <emissions CO_abs="3437.807745" CO2_abs="209094.454606" HC_abs="20.522632" PMx_abs="3.552163" NOx_abs="84.683641" fuel_abs="89.881155" electricity_abs="0"/>
    </tripinfo>
    <tripinfo id="carIn8642:1" depart="57774.00" departLane="-447569998#1_1" departPos="5.10" departSpeed="0.00" departDelay="0.90" arrival="57836.00" arrivalLane="-315358244_1" arrivalPos="33.95" arrivalSpeed="14.19" duration="62.00" routeLength="706.49" waitingTime="0.00" waitingCount="0" stopTime="0.00" timeLoss="6.03" rerouteNo="1" devices="tripinfo_carIn8642:1 routing_carIn8642:1 emissions_carIn8642:1" vType="default_016" speedFactor="1.07" vaporized="">
        <emissions CO_abs="1962.137359" CO2_abs="152721.929546" HC_abs="12.373841" PMx_abs="2.290811" NOx_abs="58.966929" fuel_abs="65.648986" electricity_abs="0"/>
    </tripinfo>
    <tripinfo id="carIn118538:1" depart="57683.00" departLane="-447569998#1_1" departPos="5.10" departSpeed="0.00" departDelay="1.00" arrival="57855.00" arrivalLane="399835085#1_1" arrivalPos="212.23" arrivalSpeed="8.63" duration="172.00" routeLength="1904.55" waitingTime="6.00" waitingCount="1" stopTime="0.00" timeLoss="22.56" rerouteNo="1" devices="tripinfo_carIn118538:1 routing_carIn118538:1 emissions_carIn118538:1" vType="default_016" speedFactor="1.09" vaporized="">
        <emissions CO_abs="5275.185217" CO2_abs="386109.408725" HC_abs="32.839891" PMx_abs="6.148133" NOx_abs="151.869118" fuel_abs="165.972519" electricity_abs="0"/>
    </tripinfo>
    <tripinfo id="h17600c1:1" depart="57662.00" departLane="272042143_1" departPos="5.10" departSpeed="0.00" departDelay="0.30" arrival="57869.00" arrivalLane="201238729#3_1" arrivalPos="431.02" arrivalSpeed="14.45" duration="207.00" routeLength="2100.26" waitingTime="50.00" waitingCount="1" stopTime="0.00" timeLoss="67.30" rerouteNo="1" devices="tripinfo_h17600c1:1 routing_h17600c1:1 emissions_h17600c1:1" vType="default_016" speedFactor="1.09" vaporized="">
        <emissions CO_abs="11420.673166" CO2_abs="492257.867943" HC_abs="63.576170" PMx_abs="9.070301" NOx_abs="200.872474" fuel_abs="211.603617" electricity_abs="0"/>
    </tripinfo>
    <tripinfo id="carIn70533:1" depart="57812.00" departLane="-447569998#1_1" departPos="5.10" departSpeed="0.00" departDelay="0.10" arrival="57881.00" arrivalLane="-315358244_1" arrivalPos="33.95" arrivalSpeed="12.51" duration="69.00" routeLength="706.49" waitingTime="0.00" waitingCount="0" stopTime="0.00" timeLoss="8.65" rerouteNo="1" devices="tripinfo_carIn70533:1 routing_carIn70533:1 emissions_carIn70533:1" vType="default_016" speedFactor="0.99" vaporized="">
        <emissions CO_abs="2740.959465" CO2_abs="173465.984264" HC_abs="16.522818" PMx_abs="2.881606" NOx_abs="69.730983" fuel_abs="74.565950" electricity_abs="0"/>
    </tripinfo>
    <tripinfo id="carIn24709:1" depart="57753.00" departLane="266565295#5_1" departPos="5.10" departSpeed="0.00" departDelay="2.50" arrival="57891.00" arrivalLane="-24634506#2_1" arrivalPos="71.32" arrivalSpeed="12.79" duration="138.00" routeLength="1534.27" waitingTime="0.00" waitingCount="0" stopTime="0.00" timeLoss="18.12" rerouteNo="1" devices="tripinfo_carIn24709:1 routing_carIn24709:1 emissions_carIn24709:1" vType="default_016" speedFactor="0.95" vaporized="">
        <emissions CO_abs="4757.304510" CO2_abs="359934.598681" HC_abs="30.061989" PMx_abs="5.840329" NOx_abs="143.025757" fuel_abs="154.720696" electricity_abs="0"/>
    </tripinfo>
    <tripinfo id="carIn107084:1" depart="57601.00" departLane="124812856#0_1" departPos="5.10" departSpeed="0.00" departDelay="0.70" arrival="57893.00" arrivalLane="-128361102#1_1" arrivalPos="274.68" arrivalSpeed="11.30" duration="292.00" routeLength="2232.46" waitingTime="68.00" waitingCount="1" stopTime="0.00" timeLoss="93.31" rerouteNo="1" devices="tripinfo_carIn107084:1 routing_carIn107084:1 emissions_carIn107084:1" vType="default_016" speedFactor="0.82" vaporized="">
        <emissions CO_abs="16697.604494" CO2_abs="607542.402175" HC_abs="90.136465" PMx_abs="10.995663" NOx_abs="250.674460" fuel_abs="261.162323" electricity_abs="0"/>
    </tripinfo>
    <tripinfo id="carIn107842:1" depart="57623.00" departLane="124812856#0_1" departPos="5.10" departSpeed="0.00" departDelay="1.90" arrival="57895.00" arrivalLane="-128361102#1_1" arrivalPos="274.68" arrivalSpeed="14.37" duration="272.00" routeLength="2232.46" waitingTime="66.00" waitingCount="1" stopTime="0.00" timeLoss="135.31" rerouteNo="1" devices="tripinfo_carIn107842:1 routing_carIn107842:1 emissions_carIn107842:1" vType="default_016" speedFactor="1.19" vaporized="">
        <emissions CO_abs="18580.625888" CO2_abs="734996.467597" HC_abs="101.901146" PMx_abs="14.351209" NOx_abs="309.244358" fuel_abs="315.947685" electricity_abs="0"/>
    </tripinfo>
    <tripinfo id="carIn77943:1" depart="57608.00" departLane="124812856#0_1" departPos="5.10" departSpeed="0.00" departDelay="2.50" arrival="57896.00" arrivalLane="-128361102#1_1" arrivalPos="274.68" arrivalSpeed="13.62" duration="288.00" routeLength="2250.49" waitingTime="88.00" waitingCount="2" stopTime="0.00" timeLoss="125.73" rerouteNo="1" devices="tripinfo_carIn77943:1 routing_carIn77943:1 emissions_carIn77943:1" vType="default_016" speedFactor="1.01" vaporized="">
        <emissions CO_abs="19820.455508" CO2_abs="712302.627756" HC_abs="106.889827" PMx_abs="13.524454" NOx_abs="296.530876" fuel_abs="306.194655" electricity_abs="0"/>
    </tripinfo>
    <tripinfo id="randUni3548:1" depart="57726.00" departLane="-447569998#1_1" departPos="5.10" departSpeed="0.00" departDelay="0.00" arrival="57898.00" arrivalLane="-315358254#1_1" arrivalPos="137.16" arrivalSpeed="10.83" duration="172.00" routeLength="1746.60" waitingTime="0.00" waitingCount="0" stopTime="0.00" timeLoss="15.19" rerouteNo="1" devices="tripinfo_randUni3548:1 routing_randUni3548:1 emissions_randUni3548:1" vType="random_016" speedFactor="0.87" vaporized="">
        <emissions CO_abs="4983.914294" CO2_abs="350179.589568" HC_abs="30.762266" PMx_abs="5.247281" NOx_abs="136.968242" fuel_abs="150.528333" electricity_abs="0"/>
    </tripinfo>
    <tripinfo id="h3864c1:3" depart="57678.00" departLane="24693977#1_1" departPos="5.10" departSpeed="0.00" departDelay="0.00" arrival="57899.00" arrivalLane="201956820_1" arrivalPos="48.33" arrivalSpeed="15.31" duration="221.00" routeLength="1574.85" waitingTime="70.00" waitingCount="3" stopTime="0.00" timeLoss="105.86" rerouteNo="1" devices="tripinfo_h3864c1:3 routing_h3864c1:3 emissions_h3864c1:3" vType="default_016" speedFactor="1.12" vaporized="">
        <emissions CO_abs="17413.658444" CO2_abs="645390.018135" HC_abs="94.485769" PMx_abs="12.900378" NOx_abs="273.771858" fuel_abs="277.429650" electricity_abs="0"/>
    </tripinfo>
    <tripinfo id="randUni23028:1" depart="57884.00" departLane="124812856#0_1" departPos="5.10" departSpeed="0.00" departDelay="0.10" arrival="57900.00" arrivalLane="201956810_1" arrivalPos="71.65" arrivalSpeed="11.89" duration="16.00" routeLength="134.91" waitingTime="0.00" waitingCount="0" stopTime="0.00" timeLoss="4.08" rerouteNo="1" devices="tripinfo_randUni23028:1 routing_randUni23028:1 emissions_randUni23028:1" vType="random_016" speedFactor="0.93" vaporized="">
        <emissions CO_abs="1229.940768" CO2_abs="62080.267945" HC_abs="7.057616" PMx_abs="1.144269" NOx_abs="25.924465" fuel_abs="26.685790" electricity_abs="0"/>
    </tripinfo>
    <tripinfo id="carIn30817:1" depart="57681.00" departLane="315358244_1" departPos="5.10" departSpeed="0.00" departDelay="0.20" arrival="57901.00" arrivalLane="447569997#1_1" arrivalPos="180.93" arrivalSpeed="8.69" duration="220.00" routeLength="718.04" waitingTime="145.00" waitingCount="3" stopTime="0.00" timeLoss="164.38" rerouteNo="1" devices="tripinfo_carIn30817:1 routing_carIn30817:1 emissions_carIn30817:1" vType="default_016" speedFactor="1.11" vaporized="">
        <emissions CO_abs="25753.931451" CO2_abs="550509.201557" HC_abs="130.187094" PMx_abs="12.367197" NOx_abs="242.812625" fuel_abs="236.651046" electricity_abs="0"/>
    </tripinfo>
    <tripinfo id="carIn13443:1" depart="57729.00" departLane="272042143_1" departPos="5.10" departSpeed="0.00" departDelay="0.80" arrival="57905.00" arrivalLane="399835085#1_1" arrivalPos="212.23" arrivalSpeed="7.34" duration="176.00" routeLength="1757.45" waitingTime="0.00" waitingCount="0" stopTime="0.00" timeLoss="15.85" rerouteNo="1" devices="tripinfo_carIn13443:1 routing_carIn13443:1 emissions_carIn13443:1" vType="default_016" speedFactor="0.88" vaporized="">
        <emissions CO_abs="4864.069894" CO2_abs="330384.558704" HC_abs="29.745428" PMx_abs="4.912000" NOx_abs="129.150843" fuel_abs="142.019412" electricity_abs="0"/>
    </tripinfo>
    <tripinfo id="carIn12365:1" depart="57713.00" departLane="315358244_1" departPos="5.10" departSpeed="0.00" departDelay="0.50" arrival="57908.00" arrivalLane="447569997#1_1" arrivalPos="180.93" arrivalSpeed="7.04" duration="195.00" routeLength="718.04" waitingTime="102.00" waitingCount="4" stopTime="0.00" timeLoss="128.88" rerouteNo="1" devices="tripinfo_carIn12365:1 routing_carIn12365:1 emissions_carIn12365:1" vType="default_016" speedFactor="0.93" vaporized="">
        <emissions CO_abs="18090.120832" CO2_abs="428271.175285" HC_abs="92.374752" PMx_abs="9.108205" NOx_abs="186.090719" fuel_abs="184.102840" electricity_abs="0"/>
    </tripinfo>
    <tripinfo id="h317c2:1" depart="57707.00" departLane="-32978638#0_1" departPos="5.10" departSpeed="0.00" departDelay="0.10" arrival="57911.00" arrivalLane="-266565295#5_1" arrivalPos="172.76" arrivalSpeed="19.06" duration="204.00" routeLength="370.53" waitingTime="171.00" waitingCount="1" stopTime="0.00" timeLoss="183.89" rerouteNo="1" devices="tripinfo_h317c2:1 routing_h317c2:1 emissions_h317c2:1" vType="default_016" speedFactor="1.39" vaporized="">
        <emissions CO_abs="30247.969088" CO2_abs="596812.276677" HC_abs="151.836524" PMx_abs="14.263871" NOx_abs="268.412354" fuel_abs="256.556377" electricity_abs="0"/>
    </tripinfo>
    <tripinfo id="carIn132499:1" depart="57740.00" departLane="272042143_1" departPos="5.10" departSpeed="0.00" departDelay="0.70" arrival="57911.00" arrivalLane="201238729#3_1" arrivalPos="431.02" arrivalSpeed="13.03" duration="171.00" routeLength="2100.26" waitingTime="0.00" waitingCount="0" stopTime="0.00" timeLoss="14.07" rerouteNo="1" devices="tripinfo_carIn132499:1 routing_carIn132499:1 emissions_carIn132499:1" vType="default_016" speedFactor="0.96" vaporized="">
        <emissions CO_abs="3883.981228" CO2_abs="359384.654556" HC_abs="26.032692" PMx_abs="5.395247" NOx_abs="138.826836" fuel_abs="154.484345" electricity_abs="0"/>
    </tripinfo>
    <tripinfo id="h13377c2:3" depart="57804.00" departLane="315358244_1" departPos="5.10" departSpeed="0.00" departDelay="0.60" arrival="57912.00" arrivalLane="447569997#1_1" arrivalPos="180.93" arrivalSpeed="6.74" duration="108.00" routeLength="726.74" waitingTime="4.00" waitingCount="3" stopTime="0.00" timeLoss="32.93" rerouteNo="1" devices="tripinfo_h13377c2:3 routing_h13377c2:3 emissions_h13377c2:3" vType="default_016" speedFactor="0.91" vaporized="">
        <emissions CO_abs="5309.013051" CO2_abs="218333.077347" HC_abs="29.222522" PMx_abs="3.793564" NOx_abs="89.811936" fuel_abs="93.853718" electricity_abs="0"/>
    </tripinfo>
    <tripinfo id="carIn14532:1" depart="57743.00" departLane="272042143_1" departPos="5.10" departSpeed="0.00" departDelay="1.90" arrival="57915.00" arrivalLane="399835085#1_1" arrivalPos="212.23" arrivalSpeed="7.42" duration="172.00" routeLength="1757.45" waitingTime="0.00" waitingCount="0" stopTime="0.00" timeLoss="14.90" rerouteNo="1" devices="tripinfo_carIn14532:1 routing_carIn14532:1 emissions_carIn14532:1" vType="default_016" speedFactor="0.90" vaporized="">
        <emissions CO_abs="4764.279024" CO2_abs="335565.987348" HC_abs="29.436182" PMx_abs="5.072136" NOx_abs="131.409504" fuel_abs="144.246460" electricity_abs="0"/>
    </tripinfo>
    <tripinfo id="h330c1:1" depart="57736.00" departLane="-32978638#0_1" departPos="5.10" departSpeed="0.00" departDelay="0.20" arrival="57916.00" arrivalLane="-266565295#5_1" arrivalPos="172.76" arrivalSpeed="14.78" duration="180.00" routeLength="370.53" waitingTime="143.00" waitingCount="1" stopTime="0.00" timeLoss="154.84" rerouteNo="1" devices="tripinfo_h330c1:1 routing_h330c1:1 emissions_h330c1:1" vType="default_016" speedFactor="1.10" vaporized="">
        <emissions CO_abs="25119.436947" CO2_abs="498983.124025" HC_abs="126.093907" PMx_abs="11.680968" NOx_abs="223.086293" fuel_abs="214.501987" electricity_abs="0"/>
    </tripinfo>
    <tripinfo id="carIn81681:1" depart="57726.00" departLane="272042143_1" departPos="5.10" departSpeed="0.00" departDelay="0.30" arrival="57921.00" arrivalLane="306240162#0_0" arrivalPos="220.43" arrivalSpeed="15.96" duration="195.00" routeLength="2246.89" waitingTime="22.00" waitingCount="2" stopTime="0.00" timeLoss="51.02" rerouteNo="1" devices="tripinfo_carIn81681:1 routing_carIn81681:1 emissions_carIn81681:1" vType="default_016" speedFactor="1.03" vaporized="">
        <emissions CO_abs="9650.848380" CO2_abs="597081.185829" HC_abs="57.947518" PMx_abs="10.916724" NOx_abs="242.624799" fuel_abs="256.659875" electricity_abs="0"/>
    </tripinfo>
    <tripinfo id="carIn80913:1" depart="57732.00" departLane="272042143_1" departPos="5.10" departSpeed="0.00" departDelay="0.40" arrival="57923.00" arrivalLane="306240162#0_0" arrivalPos="220.43" arrivalSpeed="16.64" duration="191.00" routeLength="2246.89" waitingTime="18.00" waitingCount="1" stopTime="0.00" timeLoss="47.67" rerouteNo="1" devices="tripinfo_carIn80913:1 routing_carIn80913:1 emissions_carIn80913:1" vType="default_016" speedFactor="1.03" vaporized="">
        <emissions CO_abs="9038.070149" CO2_abs="580366.760800" HC_abs="54.746777" PMx_abs="10.327082" NOx_abs="233.789506" fuel_abs="249.475219" electricity_abs="0"/>
    </tripinfo>
    <tripinfo id="carIn63848:1" depart="57841.00" departLane="-447569998#1_1" departPos="5.10" departSpeed="0.00" departDelay="0.80" arrival="57923.00" arrivalLane="-315358244_1" arrivalPos="33.95" arrivalSpeed="14.85" duration="82.00" routeLength="706.49" waitingTime="8.00" waitingCount="1" stopTime="0.00" timeLoss="25.30" rerouteNo="1" devices="tripinfo_carIn63848:1 routing_carIn63848:1 emissions_carIn63848:1" vType="default_016" speedFactor="1.07" vaporized="">
        <emissions CO_abs="3571.426982" CO2_abs="196962.542538" HC_abs="20.839216" PMx_abs="3.460484" NOx_abs="80.353294" fuel_abs="84.666264" electricity_abs="0"/>
    </tripinfo>
    <tripinfo id="carIn13353:1" depart="57838.00" departLane="-447569998#1_1" departPos="5.10" departSpeed="0.00" departDelay="0.30" arrival="57924.00" arrivalLane="-315358244_1" arrivalPos="33.95" arrivalSpeed="10.94" duration="86.00" routeLength="706.49" waitingTime="5.00" waitingCount="1" stopTime="0.00" timeLoss="16.32" rerouteNo="1" devices="tripinfo_carIn13353:1 routing_carIn13353:1 emissions_carIn13353:1" vType="default_016" speedFactor="0.86" vaporized="">
        <emissions CO_abs="3368.223745" CO2_abs="175330.138192" HC_abs="19.375417" PMx_abs="2.798122" NOx_abs="70.185230" fuel_abs="75.367914" electricity_abs="0"/>
    </tripinfo>
    <tripinfo id="carIn126378:1" depart="57746.00" departLane="386687232#0_1" departPos="5.10" departSpeed="0.00" departDelay="1.80" arrival="57925.00" arrivalLane="-315358244_2" arrivalPos="33.95" arrivalSpeed="14.46" duration="179.00" routeLength="1157.39" waitingTime="82.00" waitingCount="2" stopTime="0.00" timeLoss="102.83" rerouteNo="1" devices="tripinfo_carIn126378:1 routing_carIn126378:1 emissions_carIn126378:1" vType="default_016" speedFactor="1.11" vaporized="">
        <emissions CO_abs="16668.328978" CO2_abs="508612.685943" HC_abs="87.850036" PMx_abs="10.600602" NOx_abs="217.534644" fuel_abs="218.636017" electricity_abs="0"/>
    </tripinfo>
    <tripinfo id="carIn101266:1" depart="57737.00" departLane="272042143_1" departPos="5.10" departSpeed="0.00" departDelay="0.50" arrival="57926.00" arrivalLane="306240162#0_0" arrivalPos="220.43" arrivalSpeed="16.52" duration="189.00" routeLength="2246.89" waitingTime="1.00" waitingCount="1" stopTime="0.00" timeLoss="42.24" rerouteNo="1" devices="tripinfo_carIn101266:1 routing_carIn101266:1 emissions_carIn101266:1" vType="default_016" speedFactor="1.01" vaporized="">
        <emissions CO_abs="7780.347219" CO2_abs="553115.942463" HC_abs="48.473370" PMx_abs="9.878421" NOx_abs="224.656380" fuel_abs="237.760320" electricity_abs="0"/>
    </tripinfo>
    <tripinfo id="carIn73855:1" depart="57743.00" departLane="386687232#0_1" departPos="5.10" departSpeed="0.00" departDelay="0.50" arrival="57926.00" arrivalLane="-315358244_1" arrivalPos="33.95" arrivalSpeed="13.61" duration="183.00" routeLength="1157.39" waitingTime="79.00" waitingCount="2" stopTime="0.00" timeLoss="101.57" rerouteNo="1" devices="tripinfo_carIn73855:1 routing_carIn73855:1 emissions_carIn73855:1" vType="default_016" speedFactor="1.03" vaporized="">
        <emissions CO_abs="15576.592421" CO2_abs="465169.575804" HC_abs="81.843599" PMx_abs="9.587664" NOx_abs="198.826761" fuel_abs="199.961634" electricity_abs="0"/>
    </tripinfo>
    <tripinfo id="carIn81046:1" depart="57611.00" departLane="124812856#0_1" departPos="5.10" departSpeed="0.00" departDelay="2.50" arrival="57936.00" arrivalLane="-128361102#1_1" arrivalPos="274.68" arrivalSpeed="13.35" duration="325.00" routeLength="2250.49" waitingTime="122.00" waitingCount="3" stopTime="0.00" timeLoss="159.10" rerouteNo="1" devices="tripinfo_carIn81046:1 routing_carIn81046:1 emissions_carIn81046:1" vType="default_016" speedFactor="0.99" vaporized="">