<?xml version="1.0" encoding="UTF-8"?>

<!-- generated on Thu Nov  4 14:35:49 2021 by Eclipse SUMO sumo Version 1.9.0
<configuration xmlns:xsi="http://www.w3.org/2001/XMLSchema-instance" xsi:noNamespaceSchemaLocation="http://sumo.dlr.de/xsd/sumoConfiguration.xsd">

    <input>
        <net-file value="/mainfs/home/bk2g18/RESCO/environments/ingolstadt21/ingolstadt21.net.xml"/>
        <route-files value="/mainfs/home/bk2g18/RESCO/environments/ingolstadt21/ingolstadt21.rou.xml"/>
    </input>

    <output>
        <tripinfo-output value="/mainfs/home/bk2g18/RESCO/logs/MPLight-tr0-ingolstadt21-21-mplight_full-pressure/tripinfo_99.xml"/>
        <tripinfo-output.write-unfinished value="true"/>
    </output>

    <time>
        <begin value="57600"/>
        <end value="61200"/>
    </time>

    <processing>
        <time-to-teleport value="-1"/>
    </processing>

    <report>
        <xml-validation value="never"/>
        <xml-validation.routes value="never"/>
        <no-warnings value="true"/>
        <no-step-log value="true"/>
    </report>

    <emissions>
        <device.emissions.probability value="1"/>
    </emissions>

    <traci_server>
        <remote-port value="35774"/>
    </traci_server>

    <random_number>
        <random value="true"/>
    </random_number>

</configuration>
-->

<tripinfos xmlns:xsi="http://www.w3.org/2001/XMLSchema-instance" xsi:noNamespaceSchemaLocation="http://sumo.dlr.de/xsd/tripinfo_file.xsd">
    <tripinfo id="h15454c2:3" depart="57612.00" departLane="24608844_1" departPos="5.10" departSpeed="0.00" departDelay="0.50" arrival="57654.00" arrivalLane="32978638#0_1" arrivalPos="49.29" arrivalSpeed="11.80" duration="42.00" routeLength="354.79" waitingTime="0.00" waitingCount="0" stopTime="0.00" timeLoss="5.00" rerouteNo="1" devices="tripinfo_h15454c2:3 routing_h15454c2:3 emissions_h15454c2:3" vType="default_016" speedFactor="0.93" vaporized="">
        <emissions CO_abs="2112.913988" CO2_abs="109392.725615" HC_abs="12.178153" PMx_abs="1.957806" NOx_abs="45.364579" fuel_abs="47.023534" electricity_abs="0"/>
    </tripinfo>
    <tripinfo id="carIn53971:1" depart="57640.00" departLane="272042143_1" departPos="5.10" departSpeed="0.00" departDelay="0.80" arrival="57699.00" arrivalLane="24634414#1_1" arrivalPos="162.19" arrivalSpeed="7.45" duration="59.00" routeLength="493.04" waitingTime="0.00" waitingCount="0" stopTime="0.00" timeLoss="8.35" rerouteNo="1" devices="tripinfo_carIn53971:1 routing_carIn53971:1 emissions_carIn53971:1" vType="default_016" speedFactor="0.90" vaporized="">
        <emissions CO_abs="2730.250849" CO2_abs="145794.984517" HC_abs="15.805245" PMx_abs="2.405722" NOx_abs="59.024681" fuel_abs="62.671651" electricity_abs="0"/>
    </tripinfo>
    <tripinfo id="h7800c1:5" depart="57696.00" departLane="-447569998#1_1" departPos="5.10" departSpeed="0.00" departDelay="0.00" arrival="57723.00" arrivalLane="-447569998#1_1" arrivalPos="180.76" arrivalSpeed="7.52" duration="27.00" routeLength="175.66" waitingTime="0.00" waitingCount="0" stopTime="0.00" timeLoss="3.90" rerouteNo="1" devices="tripinfo_h7800c1:5 routing_h7800c1:5 emissions_h7800c1:5" vType="default_016" speedFactor="0.93" vaporized="">
        <emissions CO_abs="1219.072747" CO2_abs="48088.021947" HC_abs="6.648541" PMx_abs="0.779940" NOx_abs="19.558846" fuel_abs="20.671464" electricity_abs="0"/>
    </tripinfo>
    <tripinfo id="h5979c1:5" depart="57669.00" departLane="399835085#1_1" departPos="5.10" departSpeed="0.00" departDelay="0.00" arrival="57750.00" arrivalLane="-315358254#1_1" arrivalPos="137.16" arrivalSpeed="13.85" duration="81.00" routeLength="659.33" waitingTime="0.00" waitingCount="0" stopTime="0.00" timeLoss="9.52" rerouteNo="1" devices="tripinfo_h5979c1:5 routing_h5979c1:5 emissions_h5979c1:5" vType="default_016" speedFactor="1.03" vaporized="">
        <emissions CO_abs="3266.010124" CO2_abs="175879.873688" HC_abs="18.938280" PMx_abs="2.881866" NOx_abs="71.040848" fuel_abs="75.603998" electricity_abs="0"/>
    </tripinfo>
    <tripinfo id="h3568c1:3" depart="57656.00" departLane="266565295#5_1" departPos="5.10" departSpeed="0.00" departDelay="0.80" arrival="57754.00" arrivalLane="-24634415_1" arrivalPos="62.03" arrivalSpeed="14.11" duration="98.00" routeLength="807.40" waitingTime="20.00" waitingCount="1" stopTime="0.00" timeLoss="38.13" rerouteNo="1" devices="tripinfo_h3568c1:3 routing_h3568c1:3 emissions_h3568c1:3" vType="default_016" speedFactor="1.08" vaporized="">
        <emissions CO_abs="6060.579542" CO2_abs="285310.301636" HC_abs="34.236034" PMx_abs="5.344581" NOx_abs="118.421867" fuel_abs="122.643666" electricity_abs="0"/>
    </tripinfo>
    <tripinfo id="h3326c1:2" depart="57656.00" departLane="22716069#0_1" departPos="5.10" departSpeed="0.00" departDelay="0.00" arrival="57759.00" arrivalLane="24634517#13_1" arrivalPos="111.62" arrivalSpeed="15.11" duration="103.00" routeLength="1312.81" waitingTime="0.00" waitingCount="0" stopTime="0.00" timeLoss="14.62" rerouteNo="1" devices="tripinfo_h3326c1:2 routing_h3326c1:2 emissions_h3326c1:2" vType="default_016" speedFactor="1.10" vaporized="">
        <emissions CO_abs="4044.973439" CO2_abs="315306.569065" HC_abs="25.706768" PMx_abs="5.543905" NOx_abs="127.167075" fuel_abs="135.536292" electricity_abs="0"/>
    </tripinfo>
    <tripinfo id="h3154c1:1" depart="57658.00" departLane="24634507_1" departPos="5.10" departSpeed="0.00" departDelay="0.00" arrival="57765.00" arrivalLane="-266565295#5_1" arrivalPos="172.76" arrivalSpeed="14.38" duration="107.00" routeLength="1206.22" waitingTime="5.00" waitingCount="2" stopTime="0.00" timeLoss="25.50" rerouteNo="1" devices="tripinfo_h3154c1:1 routing_h3154c1:1 emissions_h3154c1:1" vType="default_016" speedFactor="1.10" vaporized="">
        <emissions CO_abs="4909.209837" CO2_abs="333610.482936" HC_abs="30.063701" PMx_abs="6.040998" NOx_abs="136.340602" fuel_abs="143.404532" electricity_abs="0"/>
    </tripinfo>
    <tripinfo id="carIn27009:1" depart="57673.00" departLane="-447569998#1_1" departPos="5.10" departSpeed="0.00" departDelay="0.50" arrival="57770.00" arrivalLane="-26677539_1" arrivalPos="152.75" arrivalSpeed="7.71" duration="97.00" routeLength="699.63" waitingTime="0.00" waitingCount="0" stopTime="0.00" timeLoss="11.59" rerouteNo="1" devices="tripinfo_carIn27009:1 routing_carIn27009:1 emissions_carIn27009:1" vType="default_015" speedFactor="0.98" vaporized="">
        <emissions CO_abs="4252.739520" CO2_abs="196879.122863" HC_abs="23.851395" PMx_abs="3.029402" NOx_abs="78.868431" fuel_abs="84.631515" electricity_abs="0"/>
    </tripinfo>
    <tripinfo id="h11737c1:1" depart="57665.00" departLane="272042143_1" departPos="5.10" departSpeed="0.00" departDelay="1.50" arrival="57789.00" arrivalLane="-315358254#1_1" arrivalPos="137.16" arrivalSpeed="13.41" duration="124.00" routeLength="1596.88" waitingTime="0.00" waitingCount="0" stopTime="0.00" timeLoss="12.17" rerouteNo="1" devices="tripinfo_h11737c1:1 routing_h11737c1:1 emissions_h11737c1:1" vType="default_016" speedFactor="1.04" vaporized="">
        <emissions CO_abs="3479.091422" CO2_abs="322075.206889" HC_abs="23.257048" PMx_abs="5.066134" NOx_abs="125.456327" fuel_abs="138.446253" electricity_abs="0"/>
    </tripinfo>
    <tripinfo id="h4538c1:1" depart="57701.00" departLane="-10427692#1_1" departPos="5.10" departSpeed="0.00" departDelay="0.00" arrival="57790.00" arrivalLane="-128361102#1_1" arrivalPos="274.68" arrivalSpeed="11.56" duration="89.00" routeLength="440.74" waitingTime="43.00" waitingCount="1" stopTime="0.00" timeLoss="53.22" rerouteNo="1" devices="tripinfo_h4538c1:1 routing_h4538c1:1 emissions_h4538c1:1" vType="default_016" speedFactor="0.90" vaporized="">
        <emissions CO_abs="8063.589481" CO2_abs="209272.065451" HC_abs="41.613118" PMx_abs="4.353285" NOx_abs="90.071599" fuel_abs="89.960225" electricity_abs="0"/>
    </tripinfo>
    <tripinfo id="carIn126288:1" depart="57674.00" departLane="272042143_1" departPos="5.10" departSpeed="0.00" departDelay="0.00" arrival="57794.00" arrivalLane="-315358254#1_1" arrivalPos="137.16" arrivalSpeed="14.82" duration="120.00" routeLength="1596.88" waitingTime="0.00" waitingCount="0" stopTime="0.00" timeLoss="13.09" rerouteNo="1" devices="tripinfo_carIn126288:1 routing_carIn126288:1 emissions_carIn126288:1" vType="default_016" speedFactor="1.09" vaporized="">
        <emissions CO_abs="3366.172412" CO2_abs="318361.925168" HC_abs="22.671671" PMx_abs="5.080447" NOx_abs="124.089665" fuel_abs="136.849939" electricity_abs="0"/>
    </tripinfo>
    <tripinfo id="carIn107282:1" depart="57749.00" departLane="-447569998#1_1" departPos="5.10" departSpeed="0.00" departDelay="0.00" arrival="57812.00" arrivalLane="315358242#0_1" arrivalPos="165.37" arrivalSpeed="10.12" duration="63.00" routeLength="448.50" waitingTime="0.00" waitingCount="0" stopTime="0.00" timeLoss="6.91" rerouteNo="1" devices="tripinfo_carIn107282:1 routing_carIn107282:1 emissions_carIn107282:1" vType="default_016" speedFactor="0.75" vaporized="">
        <emissions CO_abs="2629.124008" CO2_abs="120633.921141" HC_abs="14.723347" PMx_abs="1.860916" NOx_abs="48.197238" fuel_abs="51.856373" electricity_abs="0"/>
    </tripinfo>
    <tripinfo id="carIn129809:1" depart="57729.00" departLane="-447569998#1_1" departPos="5.10" departSpeed="0.00" departDelay="1.00" arrival="57814.00" arrivalLane="-315358244_1" arrivalPos="33.95" arrivalSpeed="11.99" duration="85.00" routeLength="706.49" waitingTime="7.00" waitingCount="1" stopTime="0.00" timeLoss="19.85" rerouteNo="1" devices="tripinfo_carIn129809:1 routing_carIn129809:1 emissions_carIn129809:1" vType="default_015" speedFactor="0.93" vaporized="">
        <emissions CO_abs="3400.821921" CO2_abs="179316.525301" HC_abs="19.650016" PMx_abs="3.009511" NOx_abs="72.438410" fuel_abs="77.081281" electricity_abs="0"/>
    </tripinfo>
    <tripinfo id="randUni15030:1" depart="57735.00" departLane="386687232#0_1" departPos="5.10" departSpeed="0.00" departDelay="0.10" arrival="57835.00" arrivalLane="26677539_1" arrivalPos="151.98" arrivalSpeed="7.58" duration="100.00" routeLength="919.89" waitingTime="0.00" waitingCount="0" stopTime="0.00" timeLoss="14.82" rerouteNo="1" devices="tripinfo_randUni15030:1 routing_randUni15030:1 emissions_randUni15030:1" vType="random_016" speedFactor="0.98" vaporized="">
        <emissions CO_abs="3616.100077" CO2_abs="209760.970852" HC_abs="21.335071" PMx_abs="3.502923" NOx_abs="84.741436" fuel_abs="90.167881" electricity_abs="0"/>
    </tripinfo>
    <tripinfo id="carIn8642:1" depart="57774.00" departLane="-447569998#1_1" departPos="5.10" departSpeed="0.00" departDelay="0.90" arrival="57836.00" arrivalLane="-315358244_1" arrivalPos="33.95" arrivalSpeed="14.16" duration="62.00" routeLength="706.49" waitingTime="0.00" waitingCount="0" stopTime="0.00" timeLoss="6.19" rerouteNo="1" devices="tripinfo_carIn8642:1 routing_carIn8642:1 emissions_carIn8642:1" vType="default_016" speedFactor="1.09" vaporized="">
        <emissions CO_abs="2172.011685" CO2_abs="150442.818185" HC_abs="13.381796" PMx_abs="2.478688" NOx_abs="59.909397" fuel_abs="64.669127" electricity_abs="0"/>
    </tripinfo>
    <tripinfo id="carIn118538:1" depart="57683.00" departLane="-447569998#1_1" departPos="5.10" departSpeed="0.00" departDelay="1.00" arrival="57852.00" arrivalLane="399835085#1_1" arrivalPos="212.23" arrivalSpeed="6.40" duration="169.00" routeLength="1907.17" waitingTime="0.00" waitingCount="0" stopTime="0.00" timeLoss="23.72" rerouteNo="1" devices="tripinfo_carIn118538:1 routing_carIn118538:1 emissions_carIn118538:1" vType="default_016" speedFactor="1.12" vaporized="">
        <emissions CO_abs="5105.017528" CO2_abs="404483.654876" HC_abs="32.377933" PMx_abs="6.346963" NOx_abs="157.793085" fuel_abs="173.870684" electricity_abs="0"/>
    </tripinfo>
    <tripinfo id="h17549c1:1" depart="57680.00" departLane="-447569998#1_1" departPos="5.10" departSpeed="0.00" departDelay="0.00" arrival="57854.00" arrivalLane="-315358254#1_1" arrivalPos="137.16" arrivalSpeed="11.75" duration="174.00" routeLength="1743.98" waitingTime="0.00" waitingCount="0" stopTime="0.00" timeLoss="15.58" rerouteNo="1" devices="tripinfo_h17549c1:1 routing_h17549c1:1 emissions_h17549c1:1" vType="default_016" speedFactor="0.87" vaporized="">
        <emissions CO_abs="4750.899548" CO2_abs="338233.363099" HC_abs="29.395495" PMx_abs="4.899140" NOx_abs="131.189335" fuel_abs="145.393329" electricity_abs="0"/>
    </tripinfo>
    <tripinfo id="h17600c1:1" depart="57662.00" departLane="272042143_1" departPos="5.10" departSpeed="0.00" departDelay="0.30" arrival="57868.00" arrivalLane="201238729#3_1" arrivalPos="431.02" arrivalSpeed="14.73" duration="206.00" routeLength="2100.26" waitingTime="55.00" waitingCount="1" stopTime="0.00" timeLoss="72.72" rerouteNo="1" devices="tripinfo_h17600c1:1 routing_h17600c1:1 emissions_h17600c1:1" vType="default_016" speedFactor="1.14" vaporized="">
        <emissions CO_abs="11981.911062" CO2_abs="527182.644490" HC_abs="66.666890" PMx_abs="9.615239" NOx_abs="213.376880" fuel_abs="226.616497" electricity_abs="0"/>
    </tripinfo>
    <tripinfo id="randUni3548:1" depart="57726.00" departLane="-447569998#1_1" departPos="5.10" departSpeed="0.00" departDelay="0.00" arrival="57871.00" arrivalLane="-315358254#1_1" arrivalPos="137.16" arrivalSpeed="14.42" duration="145.00" routeLength="1743.98" waitingTime="0.00" waitingCount="0" stopTime="0.00" timeLoss="13.22" rerouteNo="1" devices="tripinfo_randUni3548:1 routing_randUni3548:1 emissions_randUni3548:1" vType="random_016" speedFactor="1.04" vaporized="">
        <emissions CO_abs="4109.666660" CO2_abs="338821.402205" HC_abs="26.605840" PMx_abs="5.540636" NOx_abs="134.012072" fuel_abs="145.644728" electricity_abs="0"/>
    </tripinfo>
    <tripinfo id="carIn13443:1" depart="57729.00" departLane="272042143_1" departPos="5.10" departSpeed="0.00" departDelay="0.80" arrival="57878.00" arrivalLane="399835085#1_1" arrivalPos="212.23" arrivalSpeed="8.54" duration="149.00" routeLength="1757.45" waitingTime="0.00" waitingCount="0" stopTime="0.00" timeLoss="24.86" rerouteNo="1" devices="tripinfo_carIn13443:1 routing_carIn13443:1 emissions_carIn13443:1" vType="default_016" speedFactor="1.14" vaporized="">
        <emissions CO_abs="4881.565513" CO2_abs="369207.602763" HC_abs="30.821474" PMx_abs="6.218666" NOx_abs="147.901989" fuel_abs="158.706439" electricity_abs="0"/>
    </tripinfo>
    <tripinfo id="carIn14532:1" depart="57743.00" departLane="272042143_1" departPos="5.10" departSpeed="0.00" departDelay="1.90" arrival="57886.00" arrivalLane="399835085#1_1" arrivalPos="212.23" arrivalSpeed="8.95" duration="143.00" routeLength="1757.45" waitingTime="0.00" waitingCount="0" stopTime="0.00" timeLoss="21.43" rerouteNo="1" devices="tripinfo_carIn14532:1 routing_carIn14532:1 emissions_carIn14532:1" vType="default_016" speedFactor="1.17" vaporized="">
        <emissions CO_abs="3929.772996" CO2_abs="352800.388997" HC_abs="26.001645" PMx_abs="5.576889" NOx_abs="137.570338" fuel_abs="151.653745" electricity_abs="0"/>
    </tripinfo>
    <tripinfo id="carIn70533:1" depart="57812.00" departLane="-447569998#1_1" departPos="5.10" departSpeed="0.00" departDelay="0.10" arrival="57886.00" arrivalLane="-315358244_1" arrivalPos="33.95" arrivalSpeed="12.24" duration="74.00" routeLength="706.49" waitingTime="0.00" waitingCount="0" stopTime="0.00" timeLoss="6.80" rerouteNo="1" devices="tripinfo_carIn70533:1 routing_carIn70533:1 emissions_carIn70533:1" vType="default_016" speedFactor="0.90" vaporized="">
        <emissions CO_abs="2336.025252" CO2_abs="149976.328955" HC_abs="14.079063" PMx_abs="2.211905" NOx_abs="58.460921" fuel_abs="64.469106" electricity_abs="0"/>
    </tripinfo>
    <tripinfo id="carIn81681:1" depart="57726.00" departLane="272042143_1" departPos="5.10" departSpeed="0.00" departDelay="0.30" arrival="57901.00" arrivalLane="306240162#0_0" arrivalPos="220.43" arrivalSpeed="16.30" duration="175.00" routeLength="2246.89" waitingTime="5.00" waitingCount="1" stopTime="0.00" timeLoss="26.45" rerouteNo="1" devices="tripinfo_carIn81681:1 routing_carIn81681:1 emissions_carIn81681:1" vType="default_016" speedFactor="1.00" vaporized="">
        <emissions CO_abs="6036.123489" CO2_abs="480951.550463" HC_abs="38.808489" PMx_abs="8.448341" NOx_abs="192.948341" fuel_abs="206.739748" electricity_abs="0"/>
    </tripinfo>
    <tripinfo id="randUni23028:1" depart="57884.00" departLane="124812856#0_1" departPos="5.10" departSpeed="0.00" departDelay="0.10" arrival="57901.00" arrivalLane="201956810_1" arrivalPos="71.65" arrivalSpeed="10.60" duration="17.00" routeLength="134.91" waitingTime="0.00" waitingCount="0" stopTime="0.00" timeLoss="3.94" rerouteNo="1" devices="tripinfo_randUni23028:1 routing_randUni23028:1 emissions_randUni23028:1" vType="random_016" speedFactor="0.84" vaporized="">
        <emissions CO_abs="1197.846899" CO2_abs="58012.902118" HC_abs="6.817037" PMx_abs="1.086892" NOx_abs="24.398201" fuel_abs="24.937403" electricity_abs="0"/>
    </tripinfo>
    <tripinfo id="carIn24709:1" depart="57753.00" departLane="266565295#5_1" departPos="5.10" departSpeed="0.00" departDelay="2.50" arrival="57903.00" arrivalLane="-24634506#2_1" arrivalPos="71.32" arrivalSpeed="15.10" duration="150.00" routeLength="1534.27" waitingTime="27.00" waitingCount="1" stopTime="0.00" timeLoss="51.52" rerouteNo="1" devices="tripinfo_carIn24709:1 routing_carIn24709:1 emissions_carIn24709:1" vType="default_016" speedFactor="1.16" vaporized="">
        <emissions CO_abs="9615.651545" CO2_abs="498412.521495" HC_abs="55.530281" PMx_abs="9.512989" NOx_abs="206.727843" fuel_abs="214.246966" electricity_abs="0"/>
    </tripinfo>
    <tripinfo id="carIn80913:1" depart="57732.00" departLane="272042143_1" departPos="5.10" departSpeed="0.00" departDelay="0.40" arrival="57904.00" arrivalLane="306240162#0_0" arrivalPos="220.43" arrivalSpeed="15.25" duration="172.00" routeLength="2246.89" waitingTime="0.00" waitingCount="0" stopTime="0.00" timeLoss="21.44" rerouteNo="1" devices="tripinfo_carIn80913:1 routing_carIn80913:1 emissions_carIn80913:1" vType="default_016" speedFactor="0.98" vaporized="">
        <emissions CO_abs="5841.483153" CO2_abs="475200.929877" HC_abs="37.740767" PMx_abs="8.056761" NOx_abs="188.683914" fuel_abs="204.268160" electricity_abs="0"/>
    </tripinfo>
    <tripinfo id="carIn101266:1" depart="57737.00" departLane="272042143_1" departPos="5.10" departSpeed="0.00" departDelay="0.50" arrival="57905.00" arrivalLane="306240162#0_0" arrivalPos="220.43" arrivalSpeed="15.82" duration="168.00" routeLength="2246.89" waitingTime="0.00" waitingCount="0" stopTime="0.00" timeLoss="22.02" rerouteNo="1" devices="tripinfo_carIn101266:1 routing_carIn101266:1 emissions_carIn101266:1" vType="default_016" speedFactor="1.01" vaporized="">
        <emissions CO_abs="5687.179546" CO2_abs="484148.139186" HC_abs="37.242228" PMx_abs="8.334192" NOx_abs="192.202028" fuel_abs="208.113835" electricity_abs="0"/>
    </tripinfo>
    <tripinfo id="h317c2:1" depart="57707.00" departLane="-32978638#0_1" departPos="5.10" departSpeed="0.00" departDelay="0.10" arrival="57913.00" arrivalLane="-266565295#5_1" arrivalPos="172.76" arrivalSpeed="14.16" duration="206.00" routeLength="370.53" waitingTime="172.00" waitingCount="1" stopTime="0.00" timeLoss="180.62" rerouteNo="1" devices="tripinfo_h317c2:1 routing_h317c2:1 emissions_h317c2:1" vType="default_016" speedFactor="1.08" vaporized="">
        <emissions CO_abs="29387.181608" CO2_abs="555727.726682" HC_abs="146.884463" PMx_abs="13.265575" NOx_abs="250.245421" fuel_abs="238.896063" electricity_abs="0"/>
    </tripinfo>
    <tripinfo id="carIn63848:1" depart="57841.00" departLane="-447569998#1_1" departPos="5.10" departSpeed="0.00" departDelay="0.80" arrival="57914.00" arrivalLane="-315358244_2" arrivalPos="33.95" arrivalSpeed="13.10" duration="73.00" routeLength="706.49" waitingTime="0.00" waitingCount="0" stopTime="0.00" timeLoss="12.49" rerouteNo="1" devices="tripinfo_carIn63848:1 routing_carIn63848:1 emissions_carIn63848:1" vType="default_016" speedFactor="1.01" vaporized="">
        <emissions CO_abs="2836.503205" CO2_abs="166308.016658" HC_abs="16.767735" PMx_abs="2.799662" NOx_abs="67.098898" fuel_abs="71.489149" electricity_abs="0"/>
    </tripinfo>
    <tripinfo id="h330c1:1" depart="57736.00" departLane="-32978638#0_1" departPos="5.10" departSpeed="0.00" departDelay="0.20" arrival="57916.00" arrivalLane="-266565295#5_1" arrivalPos="172.76" arrivalSpeed="14.64" duration="180.00" routeLength="370.53" waitingTime="144.00" waitingCount="1" stopTime="0.00" timeLoss="154.57" rerouteNo="1" devices="tripinfo_h330c1:1 routing_h330c1:1 emissions_h330c1:1" vType="default_016" speedFactor="1.09" vaporized="">
        <emissions CO_abs="25282.935964" CO2_abs="502024.015320" HC_abs="126.942625" PMx_abs="11.756586" NOx_abs="224.489549" fuel_abs="215.809206" electricity_abs="0"/>
    </tripinfo>
    <tripinfo id="carIn13353:1" depart="57838.00" departLane="-447569998#1_1" departPos="5.10" departSpeed="0.00" departDelay="0.30" arrival="57920.00" arrivalLane="-315358244_1" arrivalPos="33.95" arrivalSpeed="10.82" duration="82.00" routeLength="706.49" waitingTime="0.00" waitingCount="0" stopTime="0.00" timeLoss="8.87" rerouteNo="1" devices="tripinfo_carIn13353:1 routing_carIn13353:1 emissions_carIn13353:1" vType="default_016" speedFactor="0.83" vaporized="">
        <emissions CO_abs="2496.744815" CO2_abs="136308.037259" HC_abs="14.485807" PMx_abs="2.040405" NOx_abs="53.709804" fuel_abs="58.593862" electricity_abs="0"/>
    </tripinfo>
    <tripinfo id="carIn132499:1" depart="57740.00" departLane="272042143_1" departPos="5.10" departSpeed="0.00" departDelay="0.70" arrival="57921.00" arrivalLane="201238729#3_1" arrivalPos="431.02" arrivalSpeed="12.03" duration="181.00" routeLength="2100.26" waitingTime="0.00" waitingCount="0" stopTime="0.00" timeLoss="13.01" rerouteNo="1" devices="tripinfo_carIn132499:1 routing_carIn132499:1 emissions_carIn132499:1" vType="default_016" speedFactor="0.90" vaporized="">
        <emissions CO_abs="3758.991198" CO2_abs="350582.032296" HC_abs="25.191132" PMx_abs="4.940980" NOx_abs="133.790952" fuel_abs="150.700888" electricity_abs="0"/>
    </tripinfo>
    <tripinfo id="carIn121351:1" depart="57755.00" departLane="-447569998#1_1" departPos="5.10" departSpeed="0.00" departDelay="0.30" arrival="57937.00" arrivalLane="399835085#1_1" arrivalPos="212.23" arrivalSpeed="8.29" duration="182.00" routeLength="1907.17" waitingTime="7.00" waitingCount="1" stopTime="0.00" timeLoss="27.76" rerouteNo="1" devices="tripinfo_carIn121351:1 routing_carIn121351:1 emissions_carIn121351:1" vType="default_015" speedFactor="1.05" vaporized="">
        <emissions CO_abs="5648.935240" CO2_abs="398609.126182" HC_abs="35.011373" PMx_abs="6.467217" NOx_abs="158.145860" fuel_abs="171.345595" electricity_abs="0"/>
    </tripinfo>
    <tripinfo id="h3426c1:1" depart="57864.00" departLane="-160314345#2_1" departPos="5.10" departSpeed="0.00" departDelay="0.00" arrival="57938.00" arrivalLane="386687235_1" arrivalPos="80.84" arrivalSpeed="13.48" duration="74.00" routeLength="726.87" waitingTime="0.00" waitingCount="0" stopTime="0.00" timeLoss="7.84" rerouteNo="1" devices="tripinfo_h3426c1:1 routing_h3426c1:1 emissions_h3426c1:1" vType="default_016" speedFactor="1.03" vaporized="">
        <emissions CO_abs="2620.447420" CO2_abs="164812.801469" HC_abs="15.772558" PMx_abs="2.742261" NOx_abs="66.296688" fuel_abs="70.846305" electricity_abs="0"/>
    </tripinfo>
    <tripinfo id="carIn75660:1" depart="57679.00" departLane="128361109#1_1" departPos="5.10" departSpeed="0.00" departDelay="3.40" arrival="57944.00" arrivalLane="386687235_1" arrivalPos="80.84" arrivalSpeed="15.61" duration="265.00" routeLength="2088.57" waitingTime="111.00" waitingCount="1" stopTime="0.00" timeLoss="133.17" rerouteNo="1" devices="tripinfo_carIn75660:1 routing_carIn75660:1 emissions_carIn75660:1" vType="default_016" speedFactor="1.15" vaporized="">
        <emissions CO_abs="21990.289938" CO2_abs="675712.182860" HC_abs="115.811649" PMx_abs="13.548449" NOx_abs="283.618477" fuel_abs="290.467506" electricity_abs="0"/>
    </tripinfo>
    <tripinfo id="carIn9695:1" depart="57822.00" departLane="272042143_1" departPos="5.10" departSpeed="0.00" departDelay="0.80" arrival="57951.00" arrivalLane="-315358254#1_1" arrivalPos="137.16" arrivalSpeed="13.35" duration="129.00" routeLength="1596.88" waitingTime="0.00" waitingCount="0" stopTime="0.00" timeLoss="13.41" rerouteNo="1" devices="tripinfo_carIn9695:1 routing_carIn9695:1 emissions_carIn9695:1" vType="default_016" speedFactor="1.01" vaporized="">
        <emissions CO_abs="3828.663398" CO2_abs="325275.603140" HC_abs="25.046426" PMx_abs="5.325953" NOx_abs="128.726964" fuel_abs="139.821865" electricity_abs="0"/>
    </tripinfo>
    <tripinfo id="carIn88905:1" depart="57688.00" departLane="128361109#1_1" departPos="5.10" departSpeed="0.00" departDelay="5.80" arrival="57965.00" arrivalLane="386687235_2" arrivalPos="80.84" arrivalSpeed="13.69" duration="277.00" routeLength="2088.57" waitingTime="106.00" waitingCount="1" stopTime="0.00" timeLoss="129.52" rerouteNo="1" devices="tripinfo_carIn88905:1 routing_carIn88905:1 emissions_carIn88905:1" vType="default_016" speedFactor="1.02" vaporized="">
        <emissions CO_abs="21264.350505" CO2_abs="679189.393976" HC_abs="112.658057" PMx_abs="13.104465" NOx_abs="283.096474" fuel_abs="291.962209" electricity_abs="0"/>
    </tripinfo>
    <tripinfo id="carIn115169:1" depart="57759.00" departLane="24599188#0.94_1" departPos="5.10" departSpeed="0.00" departDelay="0.50" arrival="57966.00" arrivalLane="-10427692#3_1" arrivalPos="28.64" arrivalSpeed="20.11" duration="207.00" routeLength="2183.23" waitingTime="0.00" waitingCount="0" stopTime="0.00" timeLoss="26.25" rerouteNo="1" devices="tripinfo_carIn115169:1 routing_carIn115169:1 emissions_carIn115169:1" vType="default_016" speedFactor="0.94" vaporized="">
        <emissions CO_abs="7369.536292" CO2_abs="506817.536140" HC_abs="45.444873" PMx_abs="8.682142" NOx_abs="204.885030" fuel_abs="217.859292" electricity_abs="0"/>
    </tripinfo>
    <tripinfo id="carIn85747:1" depart="57673.00" departLane="128361109#1_1" departPos="5.10" departSpeed="0.00" departDelay="0.70" arrival="57967.00" arrivalLane="386687235_1" arrivalPos="80.84" arrivalSpeed="12.01" duration="294.00" routeLength="2088.57" waitingTime="118.00" waitingCount="1" stopTime="0.00" timeLoss="134.99" rerouteNo="1" devices="tripinfo_carIn85747:1 routing_carIn85747:1 emissions_carIn85747:1" vType="default_016" speedFactor="0.95" vaporized="">
        <emissions CO_abs="22719.566785" CO2_abs="674526.718818" HC_abs="119.168684" PMx_abs="12.999716" NOx_abs="281.353009" fuel_abs="289.959243" electricity_abs="0"/>
    </tripinfo>
    <tripinfo id="h19577c1:1" depart="57694.00" departLane="128361109#1_1" departPos="5.10" departSpeed="0.00" departDelay="2.80" arrival="57967.00" arrivalLane="386687235_2" arrivalPos="80.84" arrivalSpeed="14.63" duration="273.00" routeLength="2088.57" waitingTime="103.00" waitingCount="1" stopTime="0.00" timeLoss="133.72" rerouteNo="1" devices="tripinfo_h19577c1:1 routing_h19577c1:1 emissions_h19577c1:1" vType="default_016" speedFactor="1.08" vaporized="">
        <emissions CO_abs="21647.911755" CO2_abs="687233.491361" HC_abs="114.707538" PMx_abs="13.941362" NOx_abs="291.473796" fuel_abs="295.419120" electricity_abs="0"/>
    </tripinfo>
    <tripinfo id="randUni11215:1" depart="57953.00" departLane="124812856#0_1" departPos="5.10" departSpeed="0.00" departDelay="0.30" arrival="57968.00" arrivalLane="201956810_1" arrivalPos="71.65" arrivalSpeed="12.11" duration="15.00" routeLength="134.91" waitingTime="0.00" waitingCount="0" stopTime="0.00" timeLoss="3.84" rerouteNo="1" devices="tripinfo_randUni11215:1 routing_randUni11215:1 emissions_randUni11215:1" vType="random_016" speedFactor="0.95" vaporized="">
        <emissions CO_abs="1086.390999" CO2_abs="57055.307940" HC_abs="6.298730" PMx_abs="1.109810" NOx_abs="24.192501" fuel_abs="24.525638" electricity_abs="0"/>
    </tripinfo>
    <tripinfo id="carIn5824:1" depart="57700.00" departLane="128361109#1_1" departPos="5.10" departSpeed="0.00" departDelay="5.60" arrival="57972.00" arrivalLane="386687235_2" arrivalPos="80.84" arrivalSpeed="12.89" duration="272.00" routeLength="2088.57" waitingTime="97.00" waitingCount="1" stopTime="0.00" timeLoss="118.58" rerouteNo="1" devices="tripinfo_carIn5824:1 routing_carIn5824:1 emissions_carIn5824:1" vType="default_016" speedFactor="0.98" vaporized="">
        <emissions CO_abs="19342.157830" CO2_abs="648093.715785" HC_abs="103.180501" PMx_abs="12.196320" NOx_abs="267.942171" fuel_abs="278.594838" electricity_abs="0"/>
    </tripinfo>
    <tripinfo id="carIn82298:1" depart="57783.00" departLane="-447569998#1_1" departPos="5.10" departSpeed="0.00" departDelay="0.60" arrival="57972.00" arrivalLane="-315358254#1_1" arrivalPos="137.16" arrivalSpeed="10.85" duration="189.00" routeLength="1746.60" waitingTime="8.00" waitingCount="1" stopTime="0.00" timeLoss="29.02" rerouteNo="1" devices="tripinfo_carIn82298:1 routing_carIn82298:1 emissions_carIn82298:1" vType="default_016" speedFactor="0.86" vaporized="">
        <emissions CO_abs="5916.039263" CO2_abs="374802.844724" HC_abs="35.579970" PMx_abs="5.760454" NOx_abs="147.800084" fuel_abs="161.113144" electricity_abs="0"/>
    </tripinfo>
    <tripinfo id="carIn49359:1" depart="57765.00" departLane="128361109#1_1" departPos="5.10" departSpeed="0.00" departDelay="0.50" arrival="57974.00" arrivalLane="386687235_2" arrivalPos="80.84" arrivalSpeed="12.40" duration="209.00" routeLength="2088.57" waitingTime="34.00" waitingCount="1" stopTime="0.00" timeLoss="55.32" rerouteNo="1" devices="tripinfo_carIn49359:1 routing_carIn49359:1 emissions_carIn49359:1" vType="default_016" speedFactor="0.98" vaporized="">