<?xml version="1.0" encoding="UTF-8"?>

<!-- generated on Thu Nov  4 13:25:34 2021 by Eclipse SUMO sumo Version 1.9.0
<configuration xmlns:xsi="http://www.w3.org/2001/XMLSchema-instance" xsi:noNamespaceSchemaLocation="http://sumo.dlr.de/xsd/sumoConfiguration.xsd">

    <input>
        <net-file value="/mainfs/home/bk2g18/RESCO/environments/ingolstadt21/ingolstadt21.net.xml"/>
        <route-files value="/mainfs/home/bk2g18/RESCO/environments/ingolstadt21/ingolstadt21.rou.xml"/>
    </input>

    <output>
        <tripinfo-output value="/mainfs/home/bk2g18/RESCO/logs/MPLight-tr0-ingolstadt21-21-mplight_full-pressure/tripinfo_17.xml"/>
        <tripinfo-output.write-unfinished value="true"/>
    </output>

    <time>
        <begin value="57600"/>
        <end value="61200"/>
    </time>

    <processing>
        <time-to-teleport value="-1"/>
    </processing>

    <report>
        <xml-validation value="never"/>
        <xml-validation.routes value="never"/>
        <no-warnings value="true"/>
        <no-step-log value="true"/>
    </report>

    <emissions>
        <device.emissions.probability value="1"/>
    </emissions>

    <traci_server>
        <remote-port value="37767"/>
    </traci_server>

    <random_number>
        <random value="true"/>
    </random_number>

</configuration>
-->

<tripinfos xmlns:xsi="http://www.w3.org/2001/XMLSchema-instance" xsi:noNamespaceSchemaLocation="http://sumo.dlr.de/xsd/tripinfo_file.xsd">
    <tripinfo id="carIn60260:1" depart="57606.00" departLane="315358254#0_1" departPos="5.10" departSpeed="0.00" departDelay="0.90" arrival="57659.00" arrivalLane="399835085#1_1" arrivalPos="212.23" arrivalSpeed="8.01" duration="53.00" routeLength="430.98" waitingTime="0.00" waitingCount="0" stopTime="0.00" timeLoss="7.75" rerouteNo="1" devices="tripinfo_carIn60260:1 routing_carIn60260:1 emissions_carIn60260:1" vType="default_016" speedFactor="1.01" vaporized="">
        <emissions CO_abs="2325.361513" CO2_abs="118680.840661" HC_abs="13.328505" PMx_abs="1.952872" NOx_abs="48.116788" fuel_abs="51.016410" electricity_abs="0"/>
    </tripinfo>
    <tripinfo id="h15454c2:3" depart="57612.00" departLane="24608844_1" departPos="5.10" departSpeed="0.00" departDelay="0.50" arrival="57666.00" arrivalLane="32978638#0_1" arrivalPos="49.29" arrivalSpeed="14.10" duration="54.00" routeLength="354.79" waitingTime="11.00" waitingCount="1" stopTime="0.00" timeLoss="21.19" rerouteNo="1" devices="tripinfo_h15454c2:3 routing_h15454c2:3 emissions_h15454c2:3" vType="default_016" speedFactor="1.04" vaporized="">
        <emissions CO_abs="3006.235820" CO2_abs="130980.635871" HC_abs="16.751126" PMx_abs="2.410669" NOx_abs="54.589922" fuel_abs="56.303631" electricity_abs="0"/>
    </tripinfo>
    <tripinfo id="carIn53971:1" depart="57640.00" departLane="272042143_1" departPos="5.10" departSpeed="0.00" departDelay="0.80" arrival="57695.00" arrivalLane="24634414#1_1" arrivalPos="162.19" arrivalSpeed="8.23" duration="55.00" routeLength="493.04" waitingTime="0.00" waitingCount="0" stopTime="0.00" timeLoss="9.21" rerouteNo="1" devices="tripinfo_carIn53971:1 routing_carIn53971:1 emissions_carIn53971:1" vType="default_016" speedFactor="1.00" vaporized="">
        <emissions CO_abs="2588.457707" CO2_abs="140312.206977" HC_abs="15.064860" PMx_abs="2.472825" NOx_abs="57.788798" fuel_abs="60.314546" electricity_abs="0"/>
    </tripinfo>
    <tripinfo id="h7181c1:1" depart="57660.00" departLane="315358254#0_1" departPos="5.10" departSpeed="0.00" departDelay="0.10" arrival="57727.00" arrivalLane="306240162#0_0" arrivalPos="220.43" arrivalSpeed="16.89" duration="67.00" routeLength="932.35" waitingTime="2.00" waitingCount="1" stopTime="0.00" timeLoss="17.87" rerouteNo="1" devices="tripinfo_h7181c1:1 routing_h7181c1:1 emissions_h7181c1:1" vType="default_016" speedFactor="1.05" vaporized="">
        <emissions CO_abs="4754.084852" CO2_abs="309725.043635" HC_abs="29.114267" PMx_abs="6.281142" NOx_abs="130.104303" fuel_abs="133.136487" electricity_abs="0"/>
    </tripinfo>
    <tripinfo id="carIn121703:1" depart="57647.00" departLane="386687232#0_1" departPos="5.10" departSpeed="0.00" departDelay="0.30" arrival="57732.00" arrivalLane="-315358244_1" arrivalPos="33.95" arrivalSpeed="14.49" duration="85.00" routeLength="1157.39" waitingTime="0.00" waitingCount="0" stopTime="0.00" timeLoss="8.62" rerouteNo="1" devices="tripinfo_carIn121703:1 routing_carIn121703:1 emissions_carIn121703:1" vType="default_016" speedFactor="1.10" vaporized="">
        <emissions CO_abs="2492.910339" CO2_abs="225160.496194" HC_abs="16.559386" PMx_abs="3.704404" NOx_abs="88.438202" fuel_abs="96.786630" electricity_abs="0"/>
    </tripinfo>
    <tripinfo id="carIn80064:1" depart="57603.00" departLane="128361109#1_1" departPos="5.10" departSpeed="0.00" departDelay="0.40" arrival="57736.00" arrivalLane="-315358254#1_1" arrivalPos="137.16" arrivalSpeed="14.76" duration="133.00" routeLength="1587.97" waitingTime="21.00" waitingCount="2" stopTime="0.00" timeLoss="53.68" rerouteNo="1" devices="tripinfo_carIn80064:1 routing_carIn80064:1 emissions_carIn80064:1" vType="default_016" speedFactor="1.12" vaporized="">
        <emissions CO_abs="10166.307979" CO2_abs="557538.853174" HC_abs="59.716226" PMx_abs="11.669785" NOx_abs="235.610820" fuel_abs="239.661104" electricity_abs="0"/>
    </tripinfo>
    <tripinfo id="h3568c1:3" depart="57656.00" departLane="266565295#5_1" departPos="5.10" departSpeed="0.00" departDelay="0.80" arrival="57739.00" arrivalLane="-24634415_1" arrivalPos="62.03" arrivalSpeed="12.93" duration="83.00" routeLength="807.40" waitingTime="2.00" waitingCount="1" stopTime="0.00" timeLoss="20.61" rerouteNo="1" devices="tripinfo_h3568c1:3 routing_h3568c1:3 emissions_h3568c1:3" vType="default_016" speedFactor="1.02" vaporized="">
        <emissions CO_abs="4169.904139" CO2_abs="246475.475858" HC_abs="24.700984" PMx_abs="4.448832" NOx_abs="101.566453" fuel_abs="105.949409" electricity_abs="0"/>
    </tripinfo>
    <tripinfo id="h317c2:1" depart="57707.00" departLane="-32978638#0_1" departPos="5.10" departSpeed="0.00" departDelay="0.10" arrival="57744.00" arrivalLane="-266565295#5_1" arrivalPos="172.76" arrivalSpeed="14.28" duration="37.00" routeLength="370.53" waitingTime="2.00" waitingCount="1" stopTime="0.00" timeLoss="10.50" rerouteNo="1" devices="tripinfo_h317c2:1 routing_h317c2:1 emissions_h317c2:1" vType="default_016" speedFactor="1.05" vaporized="">
        <emissions CO_abs="2048.784559" CO2_abs="124643.002861" HC_abs="12.224297" PMx_abs="2.303545" NOx_abs="51.521972" fuel_abs="53.578653" electricity_abs="0"/>
    </tripinfo>
    <tripinfo id="carIn30817:1" depart="57681.00" departLane="315358244_1" departPos="5.10" departSpeed="0.00" departDelay="0.20" arrival="57749.00" arrivalLane="447569997#1_1" arrivalPos="180.93" arrivalSpeed="8.32" duration="68.00" routeLength="718.04" waitingTime="0.00" waitingCount="0" stopTime="0.00" timeLoss="7.20" rerouteNo="1" devices="tripinfo_carIn30817:1 routing_carIn30817:1 emissions_carIn30817:1" vType="default_016" speedFactor="1.02" vaporized="">
        <emissions CO_abs="2155.702505" CO2_abs="149385.430159" HC_abs="13.262031" PMx_abs="2.268605" NOx_abs="58.308413" fuel_abs="64.214889" electricity_abs="0"/>
    </tripinfo>
    <tripinfo id="h7800c1:5" depart="57696.00" departLane="-447569998#1_1" departPos="5.10" departSpeed="0.00" departDelay="0.00" arrival="57755.00" arrivalLane="-447569998#1_2" arrivalPos="180.76" arrivalSpeed="4.20" duration="59.00" routeLength="175.66" waitingTime="33.00" waitingCount="1" stopTime="0.00" timeLoss="40.25" rerouteNo="1" devices="tripinfo_h7800c1:5 routing_h7800c1:5 emissions_h7800c1:5" vType="default_016" speedFactor="1.14" vaporized="">
        <emissions CO_abs="6018.637788" CO2_abs="128523.142332" HC_abs="30.404845" PMx_abs="2.824991" NOx_abs="56.573152" fuel_abs="55.249167" electricity_abs="0"/>
    </tripinfo>
    <tripinfo id="carIn22761:1" depart="57616.00" departLane="-306240162#1_0" departPos="5.10" departSpeed="0.00" departDelay="2.10" arrival="57757.00" arrivalLane="399835085#1_1" arrivalPos="212.23" arrivalSpeed="7.14" duration="141.00" routeLength="1093.26" waitingTime="42.00" waitingCount="1" stopTime="0.00" timeLoss="58.96" rerouteNo="1" devices="tripinfo_carIn22761:1 routing_carIn22761:1 emissions_carIn22761:1" vType="default_016" speedFactor="0.95" vaporized="">
        <emissions CO_abs="10491.044119" CO2_abs="372864.341558" HC_abs="56.509360" PMx_abs="7.336469" NOx_abs="155.764526" fuel_abs="160.281506" electricity_abs="0"/>
    </tripinfo>
    <tripinfo id="h4538c1:1" depart="57701.00" departLane="-10427692#1_1" departPos="5.10" departSpeed="0.00" departDelay="0.00" arrival="57758.00" arrivalLane="-128361102#1_1" arrivalPos="274.68" arrivalSpeed="12.26" duration="57.00" routeLength="440.74" waitingTime="13.00" waitingCount="1" stopTime="0.00" timeLoss="23.74" rerouteNo="1" devices="tripinfo_h4538c1:1 routing_h4538c1:1 emissions_h4538c1:1" vType="default_016" speedFactor="0.96" vaporized="">
        <emissions CO_abs="3119.900859" CO2_abs="132362.007474" HC_abs="17.301159" PMx_abs="2.416656" NOx_abs="54.615021" fuel_abs="56.897574" electricity_abs="0"/>
    </tripinfo>
    <tripinfo id="h3326c1:2" depart="57656.00" departLane="22716069#0_1" departPos="5.10" departSpeed="0.00" departDelay="0.00" arrival="57761.00" arrivalLane="24634517#13_1" arrivalPos="111.62" arrivalSpeed="14.22" duration="105.00" routeLength="1312.81" waitingTime="0.00" waitingCount="0" stopTime="0.00" timeLoss="14.85" rerouteNo="1" devices="tripinfo_h3326c1:2 routing_h3326c1:2 emissions_h3326c1:2" vType="default_016" speedFactor="1.09" vaporized="">
        <emissions CO_abs="4176.125981" CO2_abs="328496.060669" HC_abs="26.703423" PMx_abs="5.709118" NOx_abs="132.183797" fuel_abs="141.205945" electricity_abs="0"/>
    </tripinfo>
    <tripinfo id="h5979c1:5" depart="57669.00" departLane="399835085#1_1" departPos="5.10" departSpeed="0.00" departDelay="0.00" arrival="57777.00" arrivalLane="-315358254#1_1" arrivalPos="137.16" arrivalSpeed="13.72" duration="108.00" routeLength="659.33" waitingTime="21.00" waitingCount="1" stopTime="0.00" timeLoss="39.15" rerouteNo="1" devices="tripinfo_h5979c1:5 routing_h5979c1:5 emissions_h5979c1:5" vType="default_016" speedFactor="1.06" vaporized="">
        <emissions CO_abs="6350.871571" CO2_abs="229174.097939" HC_abs="34.267186" PMx_abs="4.361433" NOx_abs="96.690311" fuel_abs="98.513982" electricity_abs="0"/>
    </tripinfo>
    <tripinfo id="h3688c1:1" depart="57625.00" departLane="201201950#1_1" departPos="5.10" departSpeed="0.00" departDelay="0.00" arrival="57788.00" arrivalLane="32978638#0_1" arrivalPos="49.29" arrivalSpeed="9.49" duration="163.00" routeLength="1089.75" waitingTime="35.00" waitingCount="2" stopTime="0.00" timeLoss="52.95" rerouteNo="1" devices="tripinfo_h3688c1:1 routing_h3688c1:1 emissions_h3688c1:1" vType="default_016" speedFactor="0.73" vaporized="">
        <emissions CO_abs="9035.044879" CO2_abs="327230.184991" HC_abs="48.682167" PMx_abs="5.695338" NOx_abs="134.236730" fuel_abs="140.665711" electricity_abs="0"/>
    </tripinfo>
    <tripinfo id="carIn50326:1" depart="57651.00" departLane="128361102#0_1" departPos="5.10" departSpeed="0.00" departDelay="0.30" arrival="57799.00" arrivalLane="18809673#0_1" arrivalPos="473.56" arrivalSpeed="14.07" duration="148.00" routeLength="1591.07" waitingTime="3.00" waitingCount="1" stopTime="0.00" timeLoss="27.57" rerouteNo="1" devices="tripinfo_carIn50326:1 routing_carIn50326:1 emissions_carIn50326:1" vType="default_016" speedFactor="1.07" vaporized="">
        <emissions CO_abs="5771.032200" CO2_abs="391341.795040" HC_abs="35.277498" PMx_abs="6.456625" NOx_abs="155.941191" fuel_abs="168.221674" electricity_abs="0"/>
    </tripinfo>
    <tripinfo id="carIn12365:1" depart="57713.00" departLane="315358244_1" departPos="5.10" departSpeed="0.00" departDelay="0.50" arrival="57799.00" arrivalLane="447569997#1_1" arrivalPos="180.93" arrivalSpeed="6.96" duration="86.00" routeLength="718.04" waitingTime="8.00" waitingCount="1" stopTime="0.00" timeLoss="21.23" rerouteNo="1" devices="tripinfo_carIn12365:1 routing_carIn12365:1 emissions_carIn12365:1" vType="default_016" speedFactor="0.95" vaporized="">
        <emissions CO_abs="3759.534654" CO2_abs="192409.725090" HC_abs="21.550758" PMx_abs="3.092329" NOx_abs="76.785716" fuel_abs="82.709853" electricity_abs="0"/>
    </tripinfo>
    <tripinfo id="h330c1:1" depart="57736.00" departLane="-32978638#0_1" departPos="5.10" departSpeed="0.00" departDelay="0.20" arrival="57800.00" arrivalLane="-266565295#5_1" arrivalPos="172.76" arrivalSpeed="10.03" duration="64.00" routeLength="370.53" waitingTime="20.00" waitingCount="1" stopTime="0.00" timeLoss="29.40" rerouteNo="1" devices="tripinfo_h330c1:1 routing_h330c1:1 emissions_h330c1:1" vType="default_016" speedFactor="0.79" vaporized="">
        <emissions CO_abs="4413.035385" CO2_abs="144493.407201" HC_abs="23.462123" PMx_abs="2.776834" NOx_abs="60.973854" fuel_abs="62.113021" electricity_abs="0"/>
    </tripinfo>
    <tripinfo id="carIn48184:1" depart="57613.00" departLane="-306240162#1_0" departPos="5.10" departSpeed="0.00" departDelay="0.70" arrival="57803.00" arrivalLane="386687235_1" arrivalPos="80.84" arrivalSpeed="13.94" duration="190.00" routeLength="2257.41" waitingTime="12.00" waitingCount="3" stopTime="0.00" timeLoss="43.53" rerouteNo="1" devices="tripinfo_carIn48184:1 routing_carIn48184:1 emissions_carIn48184:1" vType="default_016" speedFactor="1.01" vaporized="">
        <emissions CO_abs="7393.685782" CO2_abs="535983.246293" HC_abs="46.312481" PMx_abs="9.388986" NOx_abs="214.368097" fuel_abs="230.396104" electricity_abs="0"/>
    </tripinfo>
    <tripinfo id="h11737c1:1" depart="57665.00" departLane="272042143_1" departPos="5.10" departSpeed="0.00" departDelay="1.50" arrival="57806.00" arrivalLane="-315358254#1_1" arrivalPos="137.16" arrivalSpeed="14.82" duration="141.00" routeLength="1596.88" waitingTime="10.00" waitingCount="2" stopTime="0.00" timeLoss="33.27" rerouteNo="1" devices="tripinfo_h11737c1:1 routing_h11737c1:1 emissions_h11737c1:1" vType="default_016" speedFactor="1.08" vaporized="">
        <emissions CO_abs="5053.572162" CO2_abs="371911.248561" HC_abs="31.659869" PMx_abs="6.286104" NOx_abs="148.248158" fuel_abs="159.868790" electricity_abs="0"/>
    </tripinfo>
    <tripinfo id="carIn126288:1" depart="57674.00" departLane="272042143_1" departPos="5.10" departSpeed="0.00" departDelay="0.00" arrival="57809.00" arrivalLane="-315358254#1_1" arrivalPos="137.16" arrivalSpeed="13.34" duration="135.00" routeLength="1596.88" waitingTime="3.00" waitingCount="1" stopTime="0.00" timeLoss="23.55" rerouteNo="1" devices="tripinfo_carIn126288:1 routing_carIn126288:1 emissions_carIn126288:1" vType="default_016" speedFactor="1.05" vaporized="">
        <emissions CO_abs="4571.888426" CO2_abs="358673.352827" HC_abs="29.062266" PMx_abs="5.934775" NOx_abs="142.236790" fuel_abs="154.178295" electricity_abs="0"/>
    </tripinfo>
    <tripinfo id="carIn81860:1" depart="57712.00" departLane="128361102#0_1" departPos="5.10" departSpeed="0.00" departDelay="0.60" arrival="57812.00" arrivalLane="-24634517#17_1" arrivalPos="6.43" arrivalSpeed="7.78" duration="100.00" routeLength="1229.64" waitingTime="0.00" waitingCount="0" stopTime="0.00" timeLoss="11.92" rerouteNo="1" devices="tripinfo_carIn81860:1 routing_carIn81860:1 emissions_carIn81860:1" vType="default_016" speedFactor="1.02" vaporized="">
        <emissions CO_abs="2747.662153" CO2_abs="235917.719451" HC_abs="17.886092" PMx_abs="3.614889" NOx_abs="91.483346" fuel_abs="101.411152" electricity_abs="0"/>
    </tripinfo>
    <tripinfo id="carIn27009:1" depart="57673.00" departLane="-447569998#1_1" departPos="5.10" departSpeed="0.00" departDelay="0.50" arrival="57829.00" arrivalLane="-26677539_1" arrivalPos="152.75" arrivalSpeed="6.80" duration="156.00" routeLength="699.63" waitingTime="51.00" waitingCount="1" stopTime="0.00" timeLoss="65.95" rerouteNo="1" devices="tripinfo_carIn27009:1 routing_carIn27009:1 emissions_carIn27009:1" vType="default_015" speedFactor="0.93" vaporized="">
        <emissions CO_abs="12903.062161" CO2_abs="336303.897017" HC_abs="66.536381" PMx_abs="6.645949" NOx_abs="143.754203" fuel_abs="144.568022" electricity_abs="0"/>
    </tripinfo>
    <tripinfo id="carIn28951:1" depart="57606.00" departLane="10425609#0_1" departPos="5.10" departSpeed="0.00" departDelay="0.20" arrival="57835.00" arrivalLane="-128361102#1_1" arrivalPos="274.68" arrivalSpeed="13.40" duration="229.00" routeLength="2113.04" waitingTime="51.00" waitingCount="2" stopTime="0.00" timeLoss="80.49" rerouteNo="1" devices="tripinfo_carIn28951:1 routing_carIn28951:1 emissions_carIn28951:1" vType="default_016" speedFactor="1.04" vaporized="">
        <emissions CO_abs="13590.110572" CO2_abs="585899.694517" HC_abs="75.626014" PMx_abs="10.912254" NOx_abs="241.605701" fuel_abs="251.856437" electricity_abs="0"/>
    </tripinfo>
    <tripinfo id="h17600c1:1" depart="57662.00" departLane="272042143_1" departPos="5.10" departSpeed="0.00" departDelay="0.30" arrival="57840.00" arrivalLane="201238729#3_1" arrivalPos="431.02" arrivalSpeed="14.24" duration="178.00" routeLength="2100.26" waitingTime="12.00" waitingCount="2" stopTime="0.00" timeLoss="37.53" rerouteNo="1" devices="tripinfo_h17600c1:1 routing_h17600c1:1 emissions_h17600c1:1" vType="default_016" speedFactor="1.08" vaporized="">
        <emissions CO_abs="6097.726070" CO2_abs="443712.140413" HC_abs="38.065340" PMx_abs="7.463898" NOx_abs="176.250624" fuel_abs="190.733083" electricity_abs="0"/>
    </tripinfo>
    <tripinfo id="carIn73855:1" depart="57743.00" departLane="386687232#0_1" departPos="5.10" departSpeed="0.00" departDelay="0.50" arrival="57841.00" arrivalLane="-315358244_1" arrivalPos="33.95" arrivalSpeed="14.75" duration="98.00" routeLength="1157.39" waitingTime="10.00" waitingCount="1" stopTime="0.00" timeLoss="24.44" rerouteNo="1" devices="tripinfo_carIn73855:1 routing_carIn73855:1 emissions_carIn73855:1" vType="default_016" speedFactor="1.14" vaporized="">
        <emissions CO_abs="4103.343319" CO2_abs="279367.829106" HC_abs="25.096827" PMx_abs="4.811623" NOx_abs="111.460008" fuel_abs="120.088476" electricity_abs="0"/>
    </tripinfo>
    <tripinfo id="h20540c1:1" depart="57634.00" departLane="10425609#0_1" departPos="5.10" departSpeed="0.00" departDelay="0.50" arrival="57844.00" arrivalLane="-128361102#1_1" arrivalPos="274.68" arrivalSpeed="11.87" duration="210.00" routeLength="2113.04" waitingTime="14.00" waitingCount="2" stopTime="0.00" timeLoss="40.05" rerouteNo="1" devices="tripinfo_h20540c1:1 routing_h20540c1:1 emissions_h20540c1:1" vType="default_016" speedFactor="0.91" vaporized="">
        <emissions CO_abs="7743.890345" CO2_abs="490727.137868" HC_abs="46.681172" PMx_abs="8.030638" NOx_abs="195.937418" fuel_abs="210.943810" electricity_abs="0"/>
    </tripinfo>
    <tripinfo id="carIn107282:1" depart="57749.00" departLane="-447569998#1_1" departPos="5.10" departSpeed="0.00" departDelay="0.00" arrival="57844.00" arrivalLane="315358242#0_1" arrivalPos="165.37" arrivalSpeed="14.32" duration="95.00" routeLength="448.50" waitingTime="46.00" waitingCount="1" stopTime="0.00" timeLoss="56.06" rerouteNo="1" devices="tripinfo_carIn107282:1 routing_carIn107282:1 emissions_carIn107282:1" vType="default_016" speedFactor="1.07" vaporized="">
        <emissions CO_abs="8901.417220" CO2_abs="238456.856974" HC_abs="46.096130" PMx_abs="4.905192" NOx_abs="102.200960" fuel_abs="102.505797" electricity_abs="0"/>
    </tripinfo>
    <tripinfo id="h12244c1:3" depart="57612.00" departLane="315358244_1" departPos="5.10" departSpeed="0.00" departDelay="0.40" arrival="57847.00" arrivalLane="386687235_1" arrivalPos="80.84" arrivalSpeed="13.67" duration="235.00" routeLength="1186.14" waitingTime="127.00" waitingCount="3" stopTime="0.00" timeLoss="153.48" rerouteNo="1" devices="tripinfo_h12244c1:3 routing_h12244c1:3 emissions_h12244c1:3" vType="default_016" speedFactor="1.07" vaporized="">
        <emissions CO_abs="23442.655308" CO2_abs="600609.338186" HC_abs="120.787554" PMx_abs="12.898384" NOx_abs="260.215926" fuel_abs="258.184921" electricity_abs="0"/>
    </tripinfo>
    <tripinfo id="randUni15030:1" depart="57735.00" departLane="386687232#0_1" departPos="5.10" departSpeed="0.00" departDelay="0.10" arrival="57848.00" arrivalLane="26677539_1" arrivalPos="151.98" arrivalSpeed="5.94" duration="113.00" routeLength="919.89" waitingTime="0.00" waitingCount="0" stopTime="0.00" timeLoss="13.54" rerouteNo="1" devices="tripinfo_randUni15030:1 routing_randUni15030:1 emissions_randUni15030:1" vType="random_016" speedFactor="0.84" vaporized="">
        <emissions CO_abs="3943.810043" CO2_abs="210342.063613" HC_abs="22.799205" PMx_abs="3.340362" NOx_abs="84.313660" fuel_abs="90.418159" electricity_abs="0"/>
    </tripinfo>
    <tripinfo id="carIn85747:1" depart="57673.00" departLane="128361109#1_1" departPos="5.10" departSpeed="0.00" departDelay="0.70" arrival="57852.00" arrivalLane="386687235_2" arrivalPos="80.84" arrivalSpeed="15.48" duration="179.00" routeLength="2088.57" waitingTime="20.00" waitingCount="2" stopTime="0.00" timeLoss="53.35" rerouteNo="1" devices="tripinfo_carIn85747:1 routing_carIn85747:1 emissions_carIn85747:1" vType="default_016" speedFactor="1.20" vaporized="">
        <emissions CO_abs="8253.222715" CO2_abs="525291.698924" HC_abs="49.873463" PMx_abs="9.697184" NOx_abs="214.480059" fuel_abs="225.800222" electricity_abs="0"/>
    </tripinfo>
    <tripinfo id="carIn86816:1" depart="57617.00" departLane="128361102#0_1" departPos="5.10" departSpeed="0.00" departDelay="0.80" arrival="57853.00" arrivalLane="201956811#0_1" arrivalPos="40.40" arrivalSpeed="13.64" duration="236.00" routeLength="2067.33" waitingTime="59.00" waitingCount="2" stopTime="0.00" timeLoss="86.52" rerouteNo="1" devices="tripinfo_carIn86816:1 routing_carIn86816:1 emissions_carIn86816:1" vType="default_016" speedFactor="1.01" vaporized="">
        <emissions CO_abs="14176.225177" CO2_abs="579869.753250" HC_abs="78.099141" PMx_abs="10.703018" NOx_abs="238.647277" fuel_abs="249.265141" electricity_abs="0"/>
    </tripinfo>
    <tripinfo id="h16072c2:3" depart="57663.00" departLane="315358254#0_1" departPos="5.10" departSpeed="0.00" departDelay="2.50" arrival="57854.00" arrivalLane="386687235_1" arrivalPos="80.84" arrivalSpeed="13.33" duration="191.00" routeLength="1611.92" waitingTime="43.00" waitingCount="3" stopTime="0.00" timeLoss="70.54" rerouteNo="1" devices="tripinfo_h16072c2:3 routing_h16072c2:3 emissions_h16072c2:3" vType="default_016" speedFactor="0.98" vaporized="">
        <emissions CO_abs="10553.519941" CO2_abs="457438.968824" HC_abs="58.748488" PMx_abs="8.243400" NOx_abs="187.264782" fuel_abs="196.636294" electricity_abs="0"/>
    </tripinfo>
    <tripinfo id="carIn75660:1" depart="57679.00" departLane="128361109#1_1" departPos="5.10" departSpeed="0.00" departDelay="3.40" arrival="57854.00" arrivalLane="386687235_2" arrivalPos="80.84" arrivalSpeed="14.98" duration="175.00" routeLength="2088.57" waitingTime="16.00" waitingCount="1" stopTime="0.00" timeLoss="39.19" rerouteNo="1" devices="tripinfo_carIn75660:1 routing_carIn75660:1 emissions_carIn75660:1" vType="default_016" speedFactor="1.11" vaporized="">
        <emissions CO_abs="6932.466113" CO2_abs="474380.501539" HC_abs="42.592109" PMx_abs="8.206370" NOx_abs="189.629852" fuel_abs="203.916146" electricity_abs="0"/>
    </tripinfo>
    <tripinfo id="carIn29531:1" depart="57667.00" departLane="128361102#0_1" departPos="5.10" departSpeed="0.00" departDelay="1.60" arrival="57855.00" arrivalLane="201956811#0_1" arrivalPos="40.40" arrivalSpeed="14.31" duration="188.00" routeLength="2067.33" waitingTime="16.00" waitingCount="2" stopTime="0.00" timeLoss="42.56" rerouteNo="1" devices="tripinfo_carIn29531:1 routing_carIn29531:1 emissions_carIn29531:1" vType="default_016" speedFactor="1.04" vaporized="">
        <emissions CO_abs="7004.765771" CO2_abs="463468.277528" HC_abs="42.690781" PMx_abs="7.789111" NOx_abs="184.759788" fuel_abs="199.225905" electricity_abs="0"/>
    </tripinfo>
    <tripinfo id="carIn7949:1" depart="57676.00" departLane="128361109#1_1" departPos="5.10" departSpeed="0.00" departDelay="2.10" arrival="57856.00" arrivalLane="386687235_2" arrivalPos="80.84" arrivalSpeed="14.48" duration="180.00" routeLength="2088.57" waitingTime="15.00" waitingCount="1" stopTime="0.00" timeLoss="37.56" rerouteNo="1" devices="tripinfo_carIn7949:1 routing_carIn7949:1 emissions_carIn7949:1" vType="default_016" speedFactor="1.06" vaporized="">
        <emissions CO_abs="6604.497703" CO2_abs="456920.274636" HC_abs="40.620572" PMx_abs="7.631629" NOx_abs="181.076949" fuel_abs="196.411063" electricity_abs="0"/>
    </tripinfo>
    <tripinfo id="carIn107084:1" depart="57601.00" departLane="124812856#0_1" departPos="5.10" departSpeed="0.00" departDelay="0.70" arrival="57857.00" arrivalLane="-128361102#1_1" arrivalPos="274.68" arrivalSpeed="13.28" duration="256.00" routeLength="2250.49" waitingTime="49.00" waitingCount="2" stopTime="0.00" timeLoss="84.91" rerouteNo="1" devices="tripinfo_carIn107084:1 routing_carIn107084:1 emissions_carIn107084:1" vType="default_016" speedFactor="0.96" vaporized="">
        <emissions CO_abs="13920.565100" CO2_abs="655628.344480" HC_abs="78.738810" PMx_abs="11.876838" NOx_abs="269.365025" fuel_abs="281.829475" electricity_abs="0"/>
    </tripinfo>
    <tripinfo id="carIn102915:1" depart="57643.00" departLane="128361102#0_1" departPos="5.10" departSpeed="0.00" departDelay="0.40" arrival="57857.00" arrivalLane="201956811#0_1" arrivalPos="40.40" arrivalSpeed="13.21" duration="214.00" routeLength="2067.33" waitingTime="33.00" waitingCount="2" stopTime="0.00" timeLoss="67.96" rerouteNo="1" devices="tripinfo_carIn102915:1 routing_carIn102915:1 emissions_carIn102915:1" vType="default_016" speedFactor="1.04" vaporized="">
        <emissions CO_abs="10536.357030" CO2_abs="563384.421091" HC_abs="61.151803" PMx_abs="10.044671" NOx_abs="229.468699" fuel_abs="242.176468" electricity_abs="0"/>
    </tripinfo>
    <tripinfo id="h19804c1:3" depart="57617.00" departLane="124812856#0_1" departPos="5.10" departSpeed="0.00" departDelay="1.50" arrival="57859.00" arrivalLane="-128361102#1_1" arrivalPos="274.68" arrivalSpeed="16.36" duration="242.00" routeLength="2232.46" waitingTime="45.00" waitingCount="4" stopTime="0.00" timeLoss="110.36" rerouteNo="1" devices="tripinfo_h19804c1:3 routing_h19804c1:3 emissions_h19804c1:3" vType="default_016" speedFactor="1.24" vaporized="">
        <emissions CO_abs="13871.940996" CO2_abs="716308.910999" HC_abs="80.004303" PMx_abs="13.773121" NOx_abs="298.650028" fuel_abs="307.911417" electricity_abs="0"/>
    </tripinfo>
    <tripinfo id="carIn12858:1" depart="57661.00" departLane="128361109#1_1" departPos="5.10" departSpeed="0.00" departDelay="0.90" arrival="57865.00" arrivalLane="399835085#1_1" arrivalPos="212.23" arrivalSpeed="7.34" duration="204.00" routeLength="1738.12" waitingTime="58.00" waitingCount="2" stopTime="0.00" timeLoss="87.21" rerouteNo="1" devices="tripinfo_carIn12858:1 routing_carIn12858:1 emissions_carIn12858:1" vType="default_016" speedFactor="0.99" vaporized="">
        <emissions CO_abs="15170.193260" CO2_abs="622818.332410" HC_abs="83.888327" PMx_abs="12.519585" NOx_abs="261.476128" fuel_abs="267.725737" electricity_abs="0"/>
    </tripinfo>
    <tripinfo id="h3154c1:1" depart="57658.00" departLane="24634507_1" departPos="5.10" departSpeed="0.00" departDelay="0.00" arrival="57867.00" arrivalLane="-266565295#5_1" arrivalPos="172.76" arrivalSpeed="12.82" duration="209.00" routeLength="1206.22" waitingTime="97.00" waitingCount="2" stopTime="0.00" timeLoss="119.80" rerouteNo="1" devices="tripinfo_h3154c1:1 routing_h3154c1:1 emissions_h3154c1:1" vType="default_016" speedFactor="1.00" vaporized="">
        <emissions CO_abs="18816.905719" CO2_abs="537259.665759" HC_abs="98.232276" PMx_abs="10.964281" NOx_abs="228.924353" fuel_abs="230.951748" electricity_abs="0"/>
    </tripinfo>
    <tripinfo id="carIn12152:1" depart="57647.00" departLane="24599188#0.94_1" departPos="5.10" departSpeed="0.00" departDelay="0.50" arrival="57868.00" arrivalLane="-315358254#1_1" arrivalPos="137.16" arrivalSpeed="11.38" duration="221.00" routeLength="2034.31" waitingTime="19.00" waitingCount="2" stopTime="0.00" timeLoss="43.76" rerouteNo="1" devices="tripinfo_carIn12152:1 routing_carIn12152:1 emissions_carIn12152:1" vType="default_016" speedFactor="0.89" vaporized="">
        <emissions CO_abs="7746.304594" CO2_abs="446269.013781" HC_abs="45.609916" PMx_abs="7.213613" NOx_abs="178.196727" fuel_abs="191.833733" electricity_abs="0"/>
    </tripinfo>
    <tripinfo id="carIn2912:1" depart="57670.00" departLane="128361102#0_1" departPos="5.10" departSpeed="0.00" departDelay="3.10" arrival="57868.00" arrivalLane="201956811#0_1" arrivalPos="40.40" arrivalSpeed="14.03" duration="198.00" routeLength="2067.33" waitingTime="21.00" waitingCount="2" stopTime="0.00" timeLoss="66.38" rerouteNo="1" devices="tripinfo_carIn2912:1 routing_carIn2912:1 emissions_carIn2912:1" vType="default_016" speedFactor="1.15" vaporized="">
        <emissions CO_abs="8616.083100" CO2_abs="518787.885695" HC_abs="51.347367" PMx_abs="9.323999" NOx_abs="211.721685" fuel_abs="223.005149" electricity_abs="0"/>
    </tripinfo>
    <tripinfo id="carIn49437:1" depart="57673.00" departLane="128361102#0_1" departPos="5.10" departSpeed="0.00" departDelay="4.50" arrival="57870.00" arrivalLane="201956811#0_1" arrivalPos="40.40" arrivalSpeed="12.89" duration="197.00" routeLength="2067.33" waitingTime="10.00" waitingCount="3" stopTime="0.00" timeLoss="48.39" rerouteNo="1" devices="tripinfo_carIn49437:1 routing_carIn49437:1 emissions_carIn49437:1" vType="default_016" speedFactor="1.02" vaporized="">