<?xml version="1.0" encoding="UTF-8"?>

<!-- generated on Thu Nov  4 13:20:19 2021 by Eclipse SUMO sumo Version 1.9.0
<configuration xmlns:xsi="http://www.w3.org/2001/XMLSchema-instance" xsi:noNamespaceSchemaLocation="http://sumo.dlr.de/xsd/sumoConfiguration.xsd">

    <input>
        <net-file value="/mainfs/home/bk2g18/RESCO/environments/ingolstadt21/ingolstadt21.net.xml"/>
        <route-files value="/mainfs/home/bk2g18/RESCO/environments/ingolstadt21/ingolstadt21.rou.xml"/>
    </input>

    <output>
        <tripinfo-output value="/mainfs/home/bk2g18/RESCO/logs/MPLight-tr0-ingolstadt21-21-mplight_full-pressure/tripinfo_9.xml"/>
        <tripinfo-output.write-unfinished value="true"/>
    </output>

    <time>
        <begin value="57600"/>
        <end value="61200"/>
    </time>

    <processing>
        <time-to-teleport value="-1"/>
    </processing>

    <report>
        <xml-validation value="never"/>
        <xml-validation.routes value="never"/>
        <no-warnings value="true"/>
        <no-step-log value="true"/>
    </report>

    <emissions>
        <device.emissions.probability value="1"/>
    </emissions>

    <traci_server>
        <remote-port value="41929"/>
    </traci_server>

    <random_number>
        <random value="true"/>
    </random_number>

</configuration>
-->

<tripinfos xmlns:xsi="http://www.w3.org/2001/XMLSchema-instance" xsi:noNamespaceSchemaLocation="http://sumo.dlr.de/xsd/tripinfo_file.xsd">
    <tripinfo id="carIn60260:1" depart="57606.00" departLane="315358254#0_1" departPos="5.10" departSpeed="0.00" departDelay="0.90" arrival="57654.00" arrivalLane="399835085#1_1" arrivalPos="212.23" arrivalSpeed="9.51" duration="48.00" routeLength="430.98" waitingTime="0.00" waitingCount="0" stopTime="0.00" timeLoss="7.56" rerouteNo="1" devices="tripinfo_carIn60260:1 routing_carIn60260:1 emissions_carIn60260:1" vType="default_016" speedFactor="1.15" vaporized="">
        <emissions CO_abs="1981.012747" CO2_abs="113958.316441" HC_abs="11.655921" PMx_abs="1.837967" NOx_abs="45.703040" fuel_abs="48.986244" electricity_abs="0"/>
    </tripinfo>
    <tripinfo id="h15454c2:3" depart="57612.00" departLane="24608844_1" departPos="5.10" departSpeed="0.00" departDelay="0.50" arrival="57656.00" arrivalLane="32978638#0_1" arrivalPos="49.29" arrivalSpeed="11.44" duration="44.00" routeLength="354.79" waitingTime="0.00" waitingCount="0" stopTime="0.00" timeLoss="6.82" rerouteNo="1" devices="tripinfo_h15454c2:3 routing_h15454c2:3 emissions_h15454c2:3" vType="default_016" speedFactor="0.92" vaporized="">
        <emissions CO_abs="1966.219383" CO2_abs="98369.540144" HC_abs="11.223674" PMx_abs="1.620099" NOx_abs="39.867744" fuel_abs="42.285383" electricity_abs="0"/>
    </tripinfo>
    <tripinfo id="carIn53971:1" depart="57640.00" departLane="272042143_1" departPos="5.10" departSpeed="0.00" departDelay="0.80" arrival="57691.00" arrivalLane="24634414#1_1" arrivalPos="162.19" arrivalSpeed="9.13" duration="51.00" routeLength="493.04" waitingTime="0.00" waitingCount="0" stopTime="0.00" timeLoss="9.17" rerouteNo="1" devices="tripinfo_carIn53971:1 routing_carIn53971:1 emissions_carIn53971:1" vType="default_016" speedFactor="1.10" vaporized="">
        <emissions CO_abs="2430.748028" CO2_abs="144815.286432" HC_abs="14.466266" PMx_abs="2.564723" NOx_abs="59.423953" fuel_abs="62.250044" electricity_abs="0"/>
    </tripinfo>
    <tripinfo id="h7181c1:1" depart="57660.00" departLane="315358254#0_1" departPos="5.10" departSpeed="0.00" departDelay="0.10" arrival="57716.00" arrivalLane="306240162#0_0" arrivalPos="220.43" arrivalSpeed="18.11" duration="56.00" routeLength="932.35" waitingTime="0.00" waitingCount="0" stopTime="0.00" timeLoss="9.50" rerouteNo="1" devices="tripinfo_h7181c1:1 routing_h7181c1:1 emissions_h7181c1:1" vType="default_016" speedFactor="1.11" vaporized="">
        <emissions CO_abs="3632.083201" CO2_abs="261837.703899" HC_abs="22.886734" PMx_abs="5.291301" NOx_abs="108.034883" fuel_abs="112.551820" electricity_abs="0"/>
    </tripinfo>
    <tripinfo id="h7800c1:5" depart="57696.00" departLane="-447569998#1_1" departPos="5.10" departSpeed="0.00" departDelay="0.00" arrival="57723.00" arrivalLane="-447569998#1_1" arrivalPos="180.76" arrivalSpeed="7.12" duration="27.00" routeLength="175.66" waitingTime="0.00" waitingCount="0" stopTime="0.00" timeLoss="3.24" rerouteNo="1" devices="tripinfo_h7800c1:5 routing_h7800c1:5 emissions_h7800c1:5" vType="default_016" speedFactor="0.90" vaporized="">
        <emissions CO_abs="1345.716159" CO2_abs="54688.509646" HC_abs="7.374792" PMx_abs="0.876306" NOx_abs="22.190494" fuel_abs="23.508777" electricity_abs="0"/>
    </tripinfo>
    <tripinfo id="h12244c1:3" depart="57612.00" departLane="315358244_1" departPos="5.10" departSpeed="0.00" departDelay="0.40" arrival="57727.00" arrivalLane="386687235_1" arrivalPos="80.84" arrivalSpeed="15.47" duration="115.00" routeLength="1186.14" waitingTime="20.00" waitingCount="3" stopTime="0.00" timeLoss="39.62" rerouteNo="1" devices="tripinfo_h12244c1:3 routing_h12244c1:3 emissions_h12244c1:3" vType="default_016" speedFactor="1.16" vaporized="">
        <emissions CO_abs="5072.049778" CO2_abs="286872.335017" HC_abs="29.551131" PMx_abs="4.994152" NOx_abs="114.776678" fuel_abs="123.314982" electricity_abs="0"/>
    </tripinfo>
    <tripinfo id="S5R_frequency1.2" depart="57612.00" departLane="315358250#0_1" departPos="12.10" departSpeed="0.00" departDelay="0.40" arrival="57731.00" arrivalLane="386687235_1" arrivalPos="80.84" arrivalSpeed="13.56" duration="119.00" routeLength="1115.62" waitingTime="12.00" waitingCount="1" stopTime="0.00" timeLoss="37.67" rerouteNo="1" devices="tripinfo_S5R_frequency1.2 routing_S5R_frequency1.2 emissions_S5R_frequency1.2" vType="bus" speedFactor="1.00" vaporized="">
        <emissions CO_abs="2313.300976" CO2_abs="1351949.730412" HC_abs="497.867461" PMx_abs="246.060390" NOx_abs="10749.088861" fuel_abs="576.563420" electricity_abs="0"/>
    </tripinfo>
    <tripinfo id="h3688c1:1" depart="57625.00" departLane="201201950#1_1" departPos="5.10" departSpeed="0.00" departDelay="0.00" arrival="57732.00" arrivalLane="32978638#0_1" arrivalPos="49.29" arrivalSpeed="13.38" duration="107.00" routeLength="1089.75" waitingTime="9.00" waitingCount="1" stopTime="0.00" timeLoss="24.06" rerouteNo="1" devices="tripinfo_h3688c1:1 routing_h3688c1:1 emissions_h3688c1:1" vType="default_016" speedFactor="0.97" vaporized="">
        <emissions CO_abs="4082.954464" CO2_abs="268848.715495" HC_abs="24.836451" PMx_abs="4.368925" NOx_abs="106.783308" fuel_abs="115.567168" electricity_abs="0"/>
    </tripinfo>
    <tripinfo id="h4538c1:1" depart="57701.00" departLane="-10427692#1_1" departPos="5.10" departSpeed="0.00" departDelay="0.00" arrival="57741.00" arrivalLane="-128361102#1_1" arrivalPos="274.68" arrivalSpeed="13.50" duration="40.00" routeLength="440.74" waitingTime="0.00" waitingCount="0" stopTime="0.00" timeLoss="6.91" rerouteNo="1" devices="tripinfo_h4538c1:1 routing_h4538c1:1 emissions_h4538c1:1" vType="default_016" speedFactor="0.98" vaporized="">
        <emissions CO_abs="1552.848607" CO2_abs="109768.233357" HC_abs="9.638602" PMx_abs="1.826928" NOx_abs="43.895094" fuel_abs="47.184751" electricity_abs="0"/>
    </tripinfo>
    <tripinfo id="h3568c1:3" depart="57656.00" departLane="266565295#5_1" departPos="5.10" departSpeed="0.00" departDelay="0.80" arrival="57755.00" arrivalLane="-24634415_1" arrivalPos="62.03" arrivalSpeed="14.15" duration="99.00" routeLength="807.40" waitingTime="20.00" waitingCount="1" stopTime="0.00" timeLoss="38.54" rerouteNo="1" devices="tripinfo_h3568c1:3 routing_h3568c1:3 emissions_h3568c1:3" vType="default_016" speedFactor="1.10" vaporized="">
        <emissions CO_abs="6800.533339" CO2_abs="290407.721064" HC_abs="37.763186" PMx_abs="5.589733" NOx_abs="121.737288" fuel_abs="124.835140" electricity_abs="0"/>
    </tripinfo>
    <tripinfo id="h5979c1:5" depart="57669.00" departLane="399835085#1_1" departPos="5.10" departSpeed="0.00" departDelay="0.00" arrival="57757.00" arrivalLane="-315358254#1_1" arrivalPos="137.16" arrivalSpeed="13.96" duration="88.00" routeLength="659.33" waitingTime="4.00" waitingCount="1" stopTime="0.00" timeLoss="18.09" rerouteNo="1" devices="tripinfo_h5979c1:5 routing_h5979c1:5 emissions_h5979c1:5" vType="default_016" speedFactor="1.06" vaporized="">
        <emissions CO_abs="3813.205998" CO2_abs="184665.575201" HC_abs="21.634799" PMx_abs="3.107479" NOx_abs="75.267779" fuel_abs="79.380821" electricity_abs="0"/>
    </tripinfo>
    <tripinfo id="carIn22761:1" depart="57616.00" departLane="-306240162#1_0" departPos="5.10" departSpeed="0.00" departDelay="2.10" arrival="57766.00" arrivalLane="399835085#1_1" arrivalPos="212.23" arrivalSpeed="9.48" duration="150.00" routeLength="1093.26" waitingTime="53.00" waitingCount="2" stopTime="0.00" timeLoss="87.84" rerouteNo="1" devices="tripinfo_carIn22761:1 routing_carIn22761:1 emissions_carIn22761:1" vType="default_016" speedFactor="1.26" vaporized="">
        <emissions CO_abs="13054.291833" CO2_abs="479584.228237" HC_abs="70.877636" PMx_abs="10.106260" NOx_abs="205.611434" fuel_abs="206.155216" electricity_abs="0"/>
    </tripinfo>
    <tripinfo id="h317c2:1" depart="57707.00" departLane="-32978638#0_1" departPos="5.10" departSpeed="0.00" departDelay="0.10" arrival="57766.00" arrivalLane="-266565295#5_1" arrivalPos="172.76" arrivalSpeed="11.83" duration="59.00" routeLength="370.53" waitingTime="21.00" waitingCount="1" stopTime="0.00" timeLoss="29.77" rerouteNo="1" devices="tripinfo_h317c2:1 routing_h317c2:1 emissions_h317c2:1" vType="default_016" speedFactor="0.94" vaporized="">
        <emissions CO_abs="4435.970454" CO2_abs="156363.080893" HC_abs="23.872177" PMx_abs="3.073556" NOx_abs="66.070326" fuel_abs="67.215049" electricity_abs="0"/>
    </tripinfo>
    <tripinfo id="h330c1:1" depart="57736.00" departLane="-32978638#0_1" departPos="5.10" departSpeed="0.00" departDelay="0.20" arrival="57767.00" arrivalLane="-266565295#5_1" arrivalPos="172.76" arrivalSpeed="15.18" duration="31.00" routeLength="370.53" waitingTime="0.00" waitingCount="0" stopTime="0.00" timeLoss="7.60" rerouteNo="1" devices="tripinfo_h330c1:1 routing_h330c1:1 emissions_h330c1:1" vType="default_016" speedFactor="1.17" vaporized="">
        <emissions CO_abs="1959.046963" CO2_abs="127157.861624" HC_abs="11.894085" PMx_abs="2.405364" NOx_abs="52.803931" fuel_abs="54.659498" electricity_abs="0"/>
    </tripinfo>
    <tripinfo id="carIn27009:1" depart="57673.00" departLane="-447569998#1_1" departPos="5.10" departSpeed="0.00" departDelay="0.50" arrival="57774.00" arrivalLane="-26677539_1" arrivalPos="152.75" arrivalSpeed="8.00" duration="101.00" routeLength="699.63" waitingTime="2.00" waitingCount="1" stopTime="0.00" timeLoss="18.30" rerouteNo="1" devices="tripinfo_carIn27009:1 routing_carIn27009:1 emissions_carIn27009:1" vType="default_015" speedFactor="1.01" vaporized="">
        <emissions CO_abs="4258.839906" CO2_abs="191643.990625" HC_abs="23.787008" PMx_abs="3.108537" NOx_abs="77.804967" fuel_abs="82.380971" electricity_abs="0"/>
    </tripinfo>
    <tripinfo id="carIn80064:1" depart="57603.00" departLane="128361109#1_1" departPos="5.10" departSpeed="0.00" departDelay="0.40" arrival="57781.00" arrivalLane="-315358254#1_1" arrivalPos="137.16" arrivalSpeed="13.80" duration="178.00" routeLength="1587.97" waitingTime="58.00" waitingCount="2" stopTime="0.00" timeLoss="89.08" rerouteNo="1" devices="tripinfo_carIn80064:1 routing_carIn80064:1 emissions_carIn80064:1" vType="default_016" speedFactor="1.00" vaporized="">
        <emissions CO_abs="13881.352502" CO2_abs="560191.186854" HC_abs="76.568321" PMx_abs="11.520448" NOx_abs="236.520249" fuel_abs="240.804566" electricity_abs="0"/>
    </tripinfo>
    <tripinfo id="h3326c1:2" depart="57656.00" departLane="22716069#0_1" departPos="5.10" departSpeed="0.00" departDelay="0.00" arrival="57782.00" arrivalLane="24634517#13_1" arrivalPos="111.62" arrivalSpeed="11.50" duration="126.00" routeLength="1312.81" waitingTime="0.00" waitingCount="0" stopTime="0.00" timeLoss="16.72" rerouteNo="1" devices="tripinfo_h3326c1:2 routing_h3326c1:2 emissions_h3326c1:2" vType="default_016" speedFactor="0.89" vaporized="">
        <emissions CO_abs="4066.490048" CO2_abs="295650.632145" HC_abs="25.379947" PMx_abs="4.669904" NOx_abs="117.127544" fuel_abs="127.088013" electricity_abs="0"/>
    </tripinfo>
    <tripinfo id="h3154c1:1" depart="57658.00" departLane="24634507_1" departPos="5.10" departSpeed="0.00" departDelay="0.00" arrival="57782.00" arrivalLane="-266565295#5_1" arrivalPos="172.76" arrivalSpeed="12.93" duration="124.00" routeLength="1206.22" waitingTime="13.00" waitingCount="1" stopTime="0.00" timeLoss="32.38" rerouteNo="1" devices="tripinfo_h3154c1:1 routing_h3154c1:1 emissions_h3154c1:1" vType="default_016" speedFactor="0.97" vaporized="">
        <emissions CO_abs="5363.825306" CO2_abs="316327.431873" HC_abs="31.820451" PMx_abs="5.452366" NOx_abs="127.990416" fuel_abs="135.976314" electricity_abs="0"/>
    </tripinfo>
    <tripinfo id="carIn28951:1" depart="57606.00" departLane="10425609#0_1" departPos="5.10" departSpeed="0.00" departDelay="0.20" arrival="57785.00" arrivalLane="-128361102#1_1" arrivalPos="274.68" arrivalSpeed="14.02" duration="179.00" routeLength="2113.04" waitingTime="4.00" waitingCount="2" stopTime="0.00" timeLoss="34.71" rerouteNo="1" devices="tripinfo_carIn28951:1 routing_carIn28951:1 emissions_carIn28951:1" vType="default_016" speedFactor="1.08" vaporized="">
        <emissions CO_abs="6302.054974" CO2_abs="465018.025623" HC_abs="39.592864" PMx_abs="8.143720" NOx_abs="187.803180" fuel_abs="199.890920" electricity_abs="0"/>
    </tripinfo>
    <tripinfo id="carIn107084:1" depart="57601.00" departLane="124812856#0_1" departPos="5.10" departSpeed="0.00" departDelay="0.70" arrival="57786.00" arrivalLane="-128361102#1_1" arrivalPos="274.68" arrivalSpeed="16.34" duration="185.00" routeLength="2232.46" waitingTime="13.00" waitingCount="1" stopTime="0.00" timeLoss="50.97" rerouteNo="1" devices="tripinfo_carIn107084:1 routing_carIn107084:1 emissions_carIn107084:1" vType="default_016" speedFactor="1.22" vaporized="">
        <emissions CO_abs="8621.061053" CO2_abs="600798.188841" HC_abs="53.432576" PMx_abs="11.016110" NOx_abs="245.259508" fuel_abs="258.256592" electricity_abs="0"/>
    </tripinfo>
    <tripinfo id="carIn30817:1" depart="57681.00" departLane="315358244_1" departPos="5.10" departSpeed="0.00" departDelay="0.20" arrival="57791.00" arrivalLane="447569997#1_1" arrivalPos="180.93" arrivalSpeed="8.96" duration="110.00" routeLength="718.04" waitingTime="39.00" waitingCount="1" stopTime="0.00" timeLoss="53.70" rerouteNo="1" devices="tripinfo_carIn30817:1 routing_carIn30817:1 emissions_carIn30817:1" vType="default_016" speedFactor="1.10" vaporized="">
        <emissions CO_abs="8663.280694" CO2_abs="271843.521688" HC_abs="45.725433" PMx_abs="5.365986" NOx_abs="114.875931" fuel_abs="116.856851" electricity_abs="0"/>
    </tripinfo>
    <tripinfo id="carIn12365:1" depart="57713.00" departLane="315358244_1" departPos="5.10" departSpeed="0.00" departDelay="0.50" arrival="57791.00" arrivalLane="447569997#1_2" arrivalPos="180.93" arrivalSpeed="9.28" duration="78.00" routeLength="718.04" waitingTime="11.00" waitingCount="1" stopTime="0.00" timeLoss="27.37" rerouteNo="1" devices="tripinfo_carIn12365:1 routing_carIn12365:1 emissions_carIn12365:1" vType="default_016" speedFactor="1.22" vaporized="">
        <emissions CO_abs="3856.169731" CO2_abs="209135.193982" HC_abs="22.430781" PMx_abs="3.838449" NOx_abs="86.108222" fuel_abs="89.898625" electricity_abs="0"/>
    </tripinfo>
    <tripinfo id="carIn107282:1" depart="57749.00" departLane="-447569998#1_1" departPos="5.10" departSpeed="0.00" departDelay="0.00" arrival="57792.00" arrivalLane="315358242#0_1" arrivalPos="165.37" arrivalSpeed="15.68" duration="43.00" routeLength="448.50" waitingTime="0.00" waitingCount="0" stopTime="0.00" timeLoss="6.44" rerouteNo="1" devices="tripinfo_carIn107282:1 routing_carIn107282:1 emissions_carIn107282:1" vType="default_016" speedFactor="1.14" vaporized="">
        <emissions CO_abs="2063.637404" CO2_abs="125578.724509" HC_abs="12.324437" PMx_abs="2.181668" NOx_abs="51.062109" fuel_abs="53.981093" electricity_abs="0"/>
    </tripinfo>
    <tripinfo id="h11737c1:1" depart="57665.00" departLane="272042143_1" departPos="5.10" departSpeed="0.00" departDelay="1.50" arrival="57797.00" arrivalLane="-315358254#1_1" arrivalPos="137.16" arrivalSpeed="13.46" duration="132.00" routeLength="1596.88" waitingTime="0.00" waitingCount="0" stopTime="0.00" timeLoss="17.36" rerouteNo="1" devices="tripinfo_h11737c1:1 routing_h11737c1:1 emissions_h11737c1:1" vType="default_016" speedFactor="1.02" vaporized="">
        <emissions CO_abs="4145.351469" CO2_abs="335042.504352" HC_abs="26.650932" PMx_abs="5.471875" NOx_abs="132.483732" fuel_abs="144.020417" electricity_abs="0"/>
    </tripinfo>
    <tripinfo id="randUni14624:1" depart="57606.00" departLane="315358244_1" departPos="5.10" departSpeed="0.00" departDelay="0.80" arrival="57814.00" arrivalLane="-25149001#4_1" arrivalPos="105.67" arrivalSpeed="8.95" duration="208.00" routeLength="2803.98" waitingTime="9.00" waitingCount="1" stopTime="0.00" timeLoss="32.78" rerouteNo="1" devices="tripinfo_randUni14624:1 routing_randUni14624:1 emissions_randUni14624:1" vType="random_016" speedFactor="1.20" vaporized="">
        <emissions CO_abs="5871.804703" CO2_abs="533897.109265" HC_abs="38.599916" PMx_abs="8.534992" NOx_abs="206.018022" fuel_abs="229.499444" electricity_abs="0"/>
    </tripinfo>
    <tripinfo id="h16072c2:3" depart="57663.00" departLane="315358254#0_1" departPos="5.10" departSpeed="0.00" departDelay="2.50" arrival="57814.00" arrivalLane="386687235_1" arrivalPos="80.84" arrivalSpeed="12.91" duration="151.00" routeLength="1611.92" waitingTime="15.00" waitingCount="1" stopTime="0.00" timeLoss="33.01" rerouteNo="1" devices="tripinfo_h16072c2:3 routing_h16072c2:3 emissions_h16072c2:3" vType="default_016" speedFactor="1.00" vaporized="">
        <emissions CO_abs="5473.370837" CO2_abs="367307.557862" HC_abs="33.487171" PMx_abs="6.018063" NOx_abs="145.517960" fuel_abs="157.890543" electricity_abs="0"/>
    </tripinfo>
    <tripinfo id="carIn82278:1" depart="57702.00" departLane="-306240162#1_0" departPos="5.10" departSpeed="0.00" departDelay="0.70" arrival="57818.00" arrivalLane="399835085#1_1" arrivalPos="212.23" arrivalSpeed="7.08" duration="116.00" routeLength="1093.26" waitingTime="10.00" waitingCount="2" stopTime="0.00" timeLoss="31.26" rerouteNo="1" devices="tripinfo_carIn82278:1 routing_carIn82278:1 emissions_carIn82278:1" vType="default_016" speedFactor="0.92" vaporized="">
        <emissions CO_abs="5134.673209" CO2_abs="293306.606611" HC_abs="30.245967" PMx_abs="5.274157" NOx_abs="119.250236" fuel_abs="126.080479" electricity_abs="0"/>
    </tripinfo>
    <tripinfo id="h17549c1:1" depart="57680.00" departLane="-447569998#1_1" departPos="5.10" departSpeed="0.00" departDelay="0.00" arrival="57825.00" arrivalLane="-315358254#1_1" arrivalPos="137.16" arrivalSpeed="14.78" duration="145.00" routeLength="1746.60" waitingTime="3.00" waitingCount="1" stopTime="0.00" timeLoss="22.10" rerouteNo="1" devices="tripinfo_h17549c1:1 routing_h17549c1:1 emissions_h17549c1:1" vType="default_016" speedFactor="1.11" vaporized="">
        <emissions CO_abs="4976.890041" CO2_abs="396884.884703" HC_abs="31.970743" PMx_abs="6.677155" NOx_abs="157.815834" fuel_abs="170.603616" electricity_abs="0"/>
    </tripinfo>
    <tripinfo id="h645c1:1" depart="57622.00" departLane="266565295#5_1" departPos="5.10" departSpeed="0.00" departDelay="0.40" arrival="57833.00" arrivalLane="-315358244_2" arrivalPos="33.95" arrivalSpeed="11.92" duration="211.00" routeLength="1910.83" waitingTime="37.00" waitingCount="2" stopTime="0.00" timeLoss="63.18" rerouteNo="1" devices="tripinfo_h645c1:1 routing_h645c1:1 emissions_h645c1:1" vType="default_016" speedFactor="0.94" vaporized="">
        <emissions CO_abs="9388.458415" CO2_abs="449306.307373" HC_abs="53.188022" PMx_abs="7.590030" NOx_abs="180.486661" fuel_abs="193.140316" electricity_abs="0"/>
    </tripinfo>
    <tripinfo id="randUni15030:1" depart="57735.00" departLane="386687232#0_1" departPos="5.10" departSpeed="0.00" departDelay="0.10" arrival="57833.00" arrivalLane="26677539_1" arrivalPos="151.98" arrivalSpeed="7.19" duration="98.00" routeLength="919.89" waitingTime="2.00" waitingCount="1" stopTime="0.00" timeLoss="15.88" rerouteNo="1" devices="tripinfo_randUni15030:1 routing_randUni15030:1 emissions_randUni15030:1" vType="random_016" speedFactor="1.01" vaporized="">
        <emissions CO_abs="3803.350873" CO2_abs="225236.169455" HC_abs="22.569886" PMx_abs="3.841210" NOx_abs="91.371081" fuel_abs="96.819877" electricity_abs="0"/>
    </tripinfo>
    <tripinfo id="carIn121703:1" depart="57647.00" departLane="386687232#0_1" departPos="5.10" departSpeed="0.00" departDelay="0.30" arrival="57834.00" arrivalLane="-315358244_1" arrivalPos="33.95" arrivalSpeed="10.64" duration="187.00" routeLength="1157.39" waitingTime="61.00" waitingCount="3" stopTime="0.00" timeLoss="84.18" rerouteNo="1" devices="tripinfo_carIn121703:1 routing_carIn121703:1 emissions_carIn121703:1" vType="default_016" speedFactor="0.82" vaporized="">
        <emissions CO_abs="12460.364380" CO2_abs="400198.833764" HC_abs="66.033770" PMx_abs="7.522503" NOx_abs="167.208178" fuel_abs="172.032996" electricity_abs="0"/>
    </tripinfo>
    <tripinfo id="carIn129809:1" depart="57729.00" departLane="-447569998#1_1" departPos="5.10" departSpeed="0.00" departDelay="1.00" arrival="57836.00" arrivalLane="-315358244_1" arrivalPos="33.95" arrivalSpeed="12.68" duration="107.00" routeLength="706.49" waitingTime="24.00" waitingCount="2" stopTime="0.00" timeLoss="41.24" rerouteNo="1" devices="tripinfo_carIn129809:1 routing_carIn129809:1 emissions_carIn129809:1" vType="default_015" speedFactor="0.92" vaporized="">
        <emissions CO_abs="5421.069856" CO2_abs="223870.570264" HC_abs="29.876969" PMx_abs="3.924973" NOx_abs="91.742223" fuel_abs="96.234079" electricity_abs="0"/>
    </tripinfo>
    <tripinfo id="h6541c1:3" depart="57727.00" departLane="201950247#3_1" departPos="5.10" departSpeed="0.00" departDelay="0.00" arrival="57838.00" arrivalLane="32978638#0_1" arrivalPos="49.29" arrivalSpeed="14.38" duration="111.00" routeLength="1176.17" waitingTime="0.00" waitingCount="0" stopTime="0.00" timeLoss="15.59" rerouteNo="1" devices="tripinfo_h6541c1:3 routing_h6541c1:3 emissions_h6541c1:3" vType="default_016" speedFactor="1.07" vaporized="">
        <emissions CO_abs="4762.138091" CO2_abs="312942.659859" HC_abs="28.997592" PMx_abs="5.373837" NOx_abs="126.760189" fuel_abs="134.520873" electricity_abs="0"/>
    </tripinfo>
    <tripinfo id="h9563c2:5" depart="57631.00" departLane="315358244_1" departPos="5.10" departSpeed="0.00" departDelay="0.70" arrival="57841.00" arrivalLane="386687235_1" arrivalPos="80.84" arrivalSpeed="14.83" duration="210.00" routeLength="1186.14" waitingTime="112.00" waitingCount="3" stopTime="0.00" timeLoss="130.48" rerouteNo="1" devices="tripinfo_h9563c2:5 routing_h9563c2:5 emissions_h9563c2:5" vType="default_016" speedFactor="1.09" vaporized="">
        <emissions CO_abs="20505.957093" CO2_abs="537899.280329" HC_abs="106.004131" PMx_abs="11.460417" NOx_abs="232.011499" fuel_abs="231.227422" electricity_abs="0"/>
    </tripinfo>
    <tripinfo id="carIn50326:1" depart="57651.00" departLane="128361102#0_1" departPos="5.10" departSpeed="0.00" departDelay="0.30" arrival="57842.00" arrivalLane="18809673#0_1" arrivalPos="473.56" arrivalSpeed="12.76" duration="191.00" routeLength="1591.07" waitingTime="39.00" waitingCount="2" stopTime="0.00" timeLoss="61.75" rerouteNo="1" devices="tripinfo_carIn50326:1 routing_carIn50326:1 emissions_carIn50326:1" vType="default_016" speedFactor="1.00" vaporized="">
        <emissions CO_abs="10281.724184" CO2_abs="444155.588516" HC_abs="57.176372" PMx_abs="7.989424" NOx_abs="181.995341" fuel_abs="190.926276" electricity_abs="0"/>
    </tripinfo>
    <tripinfo id="h17600c1:1" depart="57662.00" departLane="272042143_1" departPos="5.10" departSpeed="0.00" departDelay="0.30" arrival="57842.00" arrivalLane="201238729#3_1" arrivalPos="431.02" arrivalSpeed="13.69" duration="180.00" routeLength="2100.26" waitingTime="11.00" waitingCount="1" stopTime="0.00" timeLoss="28.95" rerouteNo="1" devices="tripinfo_h17600c1:1 routing_h17600c1:1 emissions_h17600c1:1" vType="default_016" speedFactor="1.01" vaporized="">
        <emissions CO_abs="5557.091394" CO2_abs="412008.967498" HC_abs="34.819751" PMx_abs="6.573197" NOx_abs="161.526545" fuel_abs="177.105671" electricity_abs="0"/>
    </tripinfo>
    <tripinfo id="carIn48184:1" depart="57613.00" departLane="-306240162#1_0" departPos="5.10" departSpeed="0.00" departDelay="0.70" arrival="57844.00" arrivalLane="386687235_2" arrivalPos="80.84" arrivalSpeed="12.09" duration="231.00" routeLength="2257.41" waitingTime="24.00" waitingCount="3" stopTime="0.00" timeLoss="64.12" rerouteNo="1" devices="tripinfo_carIn48184:1 routing_carIn48184:1 emissions_carIn48184:1" vType="default_016" speedFactor="0.89" vaporized="">
        <emissions CO_abs="9657.166251" CO2_abs="563877.013759" HC_abs="57.139097" PMx_abs="9.822177" NOx_abs="228.311404" fuel_abs="242.387793" electricity_abs="0"/>
    </tripinfo>
    <tripinfo id="h5216c1:1" depart="57664.00" departLane="224892339#0_1" departPos="5.10" departSpeed="0.00" departDelay="0.00" arrival="57845.00" arrivalLane="386687235_1" arrivalPos="80.84" arrivalSpeed="13.67" duration="181.00" routeLength="1823.78" waitingTime="6.00" waitingCount="3" stopTime="0.00" timeLoss="52.55" rerouteNo="1" devices="tripinfo_h5216c1:1 routing_h5216c1:1 emissions_h5216c1:1" vType="default_016" speedFactor="1.00" vaporized="">
        <emissions CO_abs="7288.790452" CO2_abs="473489.017868" HC_abs="44.298506" PMx_abs="8.204524" NOx_abs="191.874648" fuel_abs="203.532997" electricity_abs="0"/>
    </tripinfo>
    <tripinfo id="carIn75660:1" depart="57679.00" departLane="128361109#1_1" departPos="5.10" departSpeed="0.00" departDelay="3.40" arrival="57847.00" arrivalLane="386687235_1" arrivalPos="80.84" arrivalSpeed="13.92" duration="168.00" routeLength="2088.57" waitingTime="0.00" waitingCount="0" stopTime="0.00" timeLoss="19.19" rerouteNo="1" devices="tripinfo_carIn75660:1 routing_carIn75660:1 emissions_carIn75660:1" vType="default_016" speedFactor="1.02" vaporized="">
        <emissions CO_abs="4890.722058" CO2_abs="431430.278412" HC_abs="32.242985" PMx_abs="6.845235" NOx_abs="168.853455" fuel_abs="185.453358" electricity_abs="0"/>
    </tripinfo>
    <tripinfo id="carIn126288:1" depart="57674.00" departLane="272042143_1" departPos="5.10" departSpeed="0.00" departDelay="0.00" arrival="57849.00" arrivalLane="-315358254#1_1" arrivalPos="137.16" arrivalSpeed="11.67" duration="175.00" routeLength="1596.88" waitingTime="17.00" waitingCount="2" stopTime="0.00" timeLoss="36.49" rerouteNo="1" devices="tripinfo_carIn126288:1 routing_carIn126288:1 emissions_carIn126288:1" vType="default_016" speedFactor="0.84" vaporized="">
        <emissions CO_abs="6867.596220" CO2_abs="365189.888431" HC_abs="39.723760" PMx_abs="5.958752" NOx_abs="146.278543" fuel_abs="156.981320" electricity_abs="0"/>
    </tripinfo>
    <tripinfo id="h8343c1:5" depart="57679.00" departLane="315358254#0_1" departPos="5.10" departSpeed="0.00" departDelay="0.60" arrival="57849.00" arrivalLane="-24634510#5_1" arrivalPos="236.88" arrivalSpeed="13.57" duration="170.00" routeLength="2056.84" waitingTime="18.00" waitingCount="2" stopTime="0.00" timeLoss="50.92" rerouteNo="1" devices="tripinfo_h8343c1:5 routing_h8343c1:5 emissions_h8343c1:5" vType="default_016" speedFactor="1.05" vaporized="">
        <emissions CO_abs="9845.885201" CO2_abs="618328.445552" HC_abs="59.638574" PMx_abs="12.036995" NOx_abs="255.156378" fuel_abs="265.792040" electricity_abs="0"/>
    </tripinfo>
    <tripinfo id="carIn86816:1" depart="57617.00" departLane="128361102#0_1" departPos="5.10" departSpeed="0.00" departDelay="0.80" arrival="57853.00" arrivalLane="201956811#0_1" arrivalPos="40.40" arrivalSpeed="13.37" duration="236.00" routeLength="2067.33" waitingTime="62.00" waitingCount="2" stopTime="0.00" timeLoss="91.71" rerouteNo="1" devices="tripinfo_carIn86816:1 routing_carIn86816:1 emissions_carIn86816:1" vType="default_016" speedFactor="1.04" vaporized="">
        <emissions CO_abs="14731.277563" CO2_abs="615674.035130" HC_abs="81.394008" PMx_abs="11.424216" NOx_abs="253.419054" fuel_abs="264.655766" electricity_abs="0"/>
    </tripinfo>
    <tripinfo id="carIn12775:1" depart="57676.00" departLane="10425609#0_1" departPos="5.10" departSpeed="0.00" departDelay="0.60" arrival="57853.00" arrivalLane="18809673#0_1" arrivalPos="473.56" arrivalSpeed="13.07" duration="177.00" routeLength="1959.45" waitingTime="7.00" waitingCount="1" stopTime="0.00" timeLoss="31.14" rerouteNo="1" devices="tripinfo_carIn12775:1 routing_carIn12775:1 emissions_carIn12775:1" vType="default_016" speedFactor="1.00" vaporized="">
        <emissions CO_abs="5248.676959" CO2_abs="416668.038277" HC_abs="33.596865" PMx_abs="6.629489" NOx_abs="163.853567" fuel_abs="179.108074" electricity_abs="0"/>
    </tripinfo>
    <tripinfo id="carIn118591:1" depart="57689.00" departLane="315358244_1" departPos="5.10" departSpeed="0.00" departDelay="0.20" arrival="57853.00" arrivalLane="386687235_1" arrivalPos="80.84" arrivalSpeed="14.54" duration="164.00" routeLength="1186.14" waitingTime="59.00" waitingCount="4" stopTime="0.00" timeLoss="84.58" rerouteNo="1" devices="tripinfo_carIn118591:1 routing_carIn118591:1 emissions_carIn118591:1" vType="default_016" speedFactor="1.09" vaporized="">
        <emissions CO_abs="10428.613446" CO2_abs="379496.983304" HC_abs="56.386422" PMx_abs="7.496626" NOx_abs="159.472881" fuel_abs="163.132314" electricity_abs="0"/>
    </tripinfo>