<?xml version="1.0" encoding="UTF-8"?>

<!-- generated on 2021-10-26 15:11:42 by Eclipse SUMO sumo Version 1.10.0
<configuration xmlns:xsi="http://www.w3.org/2001/XMLSchema-instance" xsi:noNamespaceSchemaLocation="http://sumo.dlr.de/xsd/sumoConfiguration.xsd">

    <input>
        <net-file value="/Users/behradkoohy/sumo-scratchpad/RESCO/environments/ingolstadt21/ingolstadt21.net.xml"/>
        <route-files value="/Users/behradkoohy/sumo-scratchpad/RESCO/environments/ingolstadt21/ingolstadt21.rou.xml"/>
    </input>

    <output>
        <tripinfo-output value="/Users/behradkoohy/sumo-scratchpad/RESCO/logs/IPPO-tr0-ingolstadt21-21-drq_norm-wait_norm/tripinfo_10.xml"/>
        <tripinfo-output.write-unfinished value="true"/>
    </output>

    <time>
        <begin value="57600"/>
        <end value="61200"/>
    </time>

    <processing>
        <time-to-teleport value="-1"/>
    </processing>

    <report>
        <no-warnings value="true"/>
        <no-step-log value="true"/>
    </report>

    <emissions>
        <device.emissions.probability value="1"/>
    </emissions>

    <traci_server>
        <remote-port value="61064"/>
    </traci_server>

    <random_number>
        <random value="true"/>
    </random_number>

</configuration>
-->

<tripinfos xmlns:xsi="http://www.w3.org/2001/XMLSchema-instance" xsi:noNamespaceSchemaLocation="http://sumo.dlr.de/xsd/tripinfo_file.xsd">
    <tripinfo id="h15454c2:3" depart="57612.00" departLane="24608844_1" departPos="5.10" departSpeed="0.00" departDelay="0.50" arrival="57652.00" arrivalLane="32978638#0_1" arrivalPos="49.29" arrivalSpeed="13.24" duration="40.00" routeLength="354.79" waitingTime="0.00" waitingCount="0" stopTime="0.00" timeLoss="4.28" rerouteNo="1" devices="tripinfo_h15454c2:3 routing_h15454c2:3 emissions_h15454c2:3" vType="default_016" speedFactor="0.96" vaporized="">
        <emissions CO_abs="1686.299875" CO2_abs="92545.592967" HC_abs="9.816587" PMx_abs="1.497508" NOx_abs="37.196422" fuel_abs="39.781801" electricity_abs="0"/>
    </tripinfo>
    <tripinfo id="carIn60260:1" depart="57606.00" departLane="315358254#0_1" departPos="5.10" departSpeed="0.00" departDelay="0.90" arrival="57683.00" arrivalLane="399835085#1_1" arrivalPos="212.23" arrivalSpeed="8.08" duration="77.00" routeLength="430.98" waitingTime="20.00" waitingCount="1" stopTime="0.00" timeLoss="30.68" rerouteNo="1" devices="tripinfo_carIn60260:1 routing_carIn60260:1 emissions_carIn60260:1" vType="default_016" speedFactor="1.00" vaporized="">
        <emissions CO_abs="4719.285106" CO2_abs="153399.241464" HC_abs="25.059008" PMx_abs="2.934666" NOx_abs="64.748672" fuel_abs="65.941388" electricity_abs="0"/>
    </tripinfo>
    <tripinfo id="carIn53971:1" depart="57640.00" departLane="272042143_1" departPos="5.10" departSpeed="0.00" departDelay="0.80" arrival="57697.00" arrivalLane="24634414#1_1" arrivalPos="162.19" arrivalSpeed="7.22" duration="57.00" routeLength="493.04" waitingTime="0.00" waitingCount="0" stopTime="0.00" timeLoss="9.19" rerouteNo="1" devices="tripinfo_carIn53971:1 routing_carIn53971:1 emissions_carIn53971:1" vType="default_016" speedFactor="0.95" vaporized="">
        <emissions CO_abs="2634.647617" CO2_abs="141788.778530" HC_abs="15.298276" PMx_abs="2.443262" NOx_abs="58.044692" fuel_abs="60.949365" electricity_abs="0"/>
    </tripinfo>
    <tripinfo id="h12244c1:3" depart="57612.00" departLane="315358244_1" departPos="5.10" departSpeed="0.00" departDelay="0.40" arrival="57713.00" arrivalLane="386687235_1" arrivalPos="80.84" arrivalSpeed="13.20" duration="101.00" routeLength="1186.14" waitingTime="0.00" waitingCount="0" stopTime="0.00" timeLoss="15.28" rerouteNo="1" devices="tripinfo_h12244c1:3 routing_h12244c1:3 emissions_h12244c1:3" vType="default_016" speedFactor="1.01" vaporized="">
        <emissions CO_abs="3522.429783" CO2_abs="267360.506988" HC_abs="22.305044" PMx_abs="4.439694" NOx_abs="106.481798" fuel_abs="114.926879" electricity_abs="0"/>
    </tripinfo>
    <tripinfo id="h7800c1:5" depart="57696.00" departLane="-447569998#1_1" departPos="5.10" departSpeed="0.00" departDelay="0.00" arrival="57725.00" arrivalLane="-447569998#1_2" arrivalPos="180.76" arrivalSpeed="3.06" duration="29.00" routeLength="175.66" waitingTime="1.00" waitingCount="1" stopTime="0.00" timeLoss="7.84" rerouteNo="1" devices="tripinfo_h7800c1:5 routing_h7800c1:5 emissions_h7800c1:5" vType="default_016" speedFactor="1.00" vaporized="">
        <emissions CO_abs="1426.126081" CO2_abs="55564.269017" HC_abs="7.765784" PMx_abs="0.920275" NOx_abs="22.679656" fuel_abs="23.885248" electricity_abs="0"/>
    </tripinfo>
    <tripinfo id="h3568c1:3" depart="57656.00" departLane="266565295#5_1" departPos="5.10" departSpeed="0.00" departDelay="0.80" arrival="57733.00" arrivalLane="-24634415_1" arrivalPos="62.03" arrivalSpeed="12.81" duration="77.00" routeLength="807.40" waitingTime="0.00" waitingCount="0" stopTime="0.00" timeLoss="12.99" rerouteNo="1" devices="tripinfo_h3568c1:3 routing_h3568c1:3 emissions_h3568c1:3" vType="default_016" speedFactor="1.00" vaporized="">
        <emissions CO_abs="3446.721608" CO2_abs="221058.810409" HC_abs="20.860513" PMx_abs="3.912245" NOx_abs="90.364220" fuel_abs="95.023757" electricity_abs="0"/>
    </tripinfo>
    <tripinfo id="h3688c1:1" depart="57625.00" departLane="201201950#1_1" departPos="5.10" departSpeed="0.00" departDelay="0.00" arrival="57740.00" arrivalLane="32978638#0_1" arrivalPos="49.29" arrivalSpeed="13.78" duration="115.00" routeLength="1089.75" waitingTime="24.00" waitingCount="1" stopTime="0.00" timeLoss="37.35" rerouteNo="1" devices="tripinfo_h3688c1:1 routing_h3688c1:1 emissions_h3688c1:1" vType="default_016" speedFactor="1.02" vaporized="">
        <emissions CO_abs="6614.283788" CO2_abs="309780.112856" HC_abs="37.372233" PMx_abs="5.707489" NOx_abs="127.338589" fuel_abs="133.162525" electricity_abs="0"/>
    </tripinfo>
    <tripinfo id="h3154c1:1" depart="57658.00" departLane="24634507_1" departPos="5.10" departSpeed="0.00" departDelay="0.00" arrival="57762.00" arrivalLane="-266565295#5_1" arrivalPos="172.76" arrivalSpeed="12.37" duration="104.00" routeLength="1206.22" waitingTime="0.00" waitingCount="0" stopTime="0.00" timeLoss="12.75" rerouteNo="1" devices="tripinfo_h3154c1:1 routing_h3154c1:1 emissions_h3154c1:1" vType="default_016" speedFactor="0.98" vaporized="">
        <emissions CO_abs="3380.568224" CO2_abs="258601.160885" HC_abs="21.440119" PMx_abs="4.314185" NOx_abs="103.434991" fuel_abs="111.161521" electricity_abs="0"/>
    </tripinfo>
    <tripinfo id="h3326c1:2" depart="57656.00" departLane="22716069#0_1" departPos="5.10" departSpeed="0.00" departDelay="0.00" arrival="57773.00" arrivalLane="24634517#13_1" arrivalPos="111.62" arrivalSpeed="12.04" duration="117.00" routeLength="1312.81" waitingTime="0.00" waitingCount="0" stopTime="0.00" timeLoss="15.00" rerouteNo="1" devices="tripinfo_h3326c1:2 routing_h3326c1:2 emissions_h3326c1:2" vType="default_016" speedFactor="0.96" vaporized="">
        <emissions CO_abs="4036.094838" CO2_abs="302905.886221" HC_abs="25.456644" PMx_abs="4.971381" NOx_abs="120.769805" fuel_abs="130.206397" electricity_abs="0"/>
    </tripinfo>
    <tripinfo id="carIn121703:1" depart="57647.00" departLane="386687232#0_1" departPos="5.10" departSpeed="0.00" departDelay="0.30" arrival="57775.00" arrivalLane="-315358244_1" arrivalPos="33.95" arrivalSpeed="10.52" duration="128.00" routeLength="1157.39" waitingTime="9.00" waitingCount="1" stopTime="0.00" timeLoss="22.90" rerouteNo="1" devices="tripinfo_carIn121703:1 routing_carIn121703:1 emissions_carIn121703:1" vType="default_016" speedFactor="0.81" vaporized="">
        <emissions CO_abs="3944.372604" CO2_abs="252268.668510" HC_abs="23.772074" PMx_abs="3.850463" NOx_abs="99.360822" fuel_abs="108.440478" electricity_abs="0"/>
    </tripinfo>
    <tripinfo id="S5R_frequency1.2" depart="57624.00" departLane="315358250#0_1" departPos="12.10" departSpeed="0.00" departDelay="12.40" arrival="57784.00" arrivalLane="386687235_1" arrivalPos="80.84" arrivalSpeed="13.25" duration="160.00" routeLength="1115.62" waitingTime="52.00" waitingCount="3" stopTime="0.00" timeLoss="78.35" rerouteNo="1" devices="tripinfo_S5R_frequency1.2 routing_S5R_frequency1.2 emissions_S5R_frequency1.2" vType="bus" speedFactor="1.00" vaporized="">
        <emissions CO_abs="3082.995476" CO2_abs="1574063.602517" HC_abs="680.717917" PMx_abs="323.012280" NOx_abs="13171.578104" fuel_abs="671.210648" electricity_abs="0"/>
    </tripinfo>
    <tripinfo id="carIn27009:1" depart="57673.00" departLane="-447569998#1_1" departPos="5.10" departSpeed="0.00" departDelay="0.50" arrival="57791.00" arrivalLane="-26677539_1" arrivalPos="152.75" arrivalSpeed="7.73" duration="118.00" routeLength="699.63" waitingTime="23.00" waitingCount="1" stopTime="0.00" timeLoss="36.99" rerouteNo="1" devices="tripinfo_carIn27009:1 routing_carIn27009:1 emissions_carIn27009:1" vType="default_015" speedFactor="1.04" vaporized="">
        <emissions CO_abs="6465.092956" CO2_abs="223321.326316" HC_abs="34.594215" PMx_abs="4.015549" NOx_abs="92.890156" fuel_abs="95.998654" electricity_abs="0"/>
    </tripinfo>
    <tripinfo id="carIn12365:1" depart="57713.00" departLane="315358244_1" departPos="5.10" departSpeed="0.00" departDelay="0.50" arrival="57791.00" arrivalLane="447569997#1_1" arrivalPos="180.93" arrivalSpeed="7.48" duration="78.00" routeLength="718.04" waitingTime="0.00" waitingCount="0" stopTime="0.00" timeLoss="11.18" rerouteNo="1" devices="tripinfo_carIn12365:1 routing_carIn12365:1 emissions_carIn12365:1" vType="default_016" speedFactor="0.93" vaporized="">
        <emissions CO_abs="2855.926636" CO2_abs="165984.068574" HC_abs="16.852400" PMx_abs="2.716028" NOx_abs="66.753651" fuel_abs="71.350011" electricity_abs="0"/>
    </tripinfo>
    <tripinfo id="h9563c2:5" depart="57631.00" departLane="315358244_1" departPos="5.10" departSpeed="0.00" departDelay="0.70" arrival="57793.00" arrivalLane="386687235_1" arrivalPos="80.84" arrivalSpeed="15.83" duration="162.00" routeLength="1186.14" waitingTime="56.00" waitingCount="4" stopTime="0.00" timeLoss="90.21" rerouteNo="1" devices="tripinfo_h9563c2:5 routing_h9563c2:5 emissions_h9563c2:5" vType="default_016" speedFactor="1.21" vaporized="">
        <emissions CO_abs="11850.805006" CO2_abs="407581.075754" HC_abs="63.500155" PMx_abs="8.009936" NOx_abs="170.358551" fuel_abs="175.205358" electricity_abs="0"/>
    </tripinfo>
    <tripinfo id="carIn80064:1" depart="57603.00" departLane="128361109#1_1" departPos="5.10" departSpeed="0.00" departDelay="0.40" arrival="57799.00" arrivalLane="-315358254#1_1" arrivalPos="137.16" arrivalSpeed="13.09" duration="196.00" routeLength="1587.97" waitingTime="77.00" waitingCount="1" stopTime="0.00" timeLoss="105.95" rerouteNo="1" devices="tripinfo_carIn80064:1 routing_carIn80064:1 emissions_carIn80064:1" vType="default_016" speedFactor="0.99" vaporized="">
        <emissions CO_abs="18809.595617" CO2_abs="654173.371747" HC_abs="101.216322" PMx_abs="13.769853" NOx_abs="278.822311" fuel_abs="281.205559" electricity_abs="0"/>
    </tripinfo>
    <tripinfo id="carIn30817:1" depart="57681.00" departLane="315358244_1" departPos="5.10" departSpeed="0.00" departDelay="0.20" arrival="57800.00" arrivalLane="447569997#1_1" arrivalPos="180.93" arrivalSpeed="6.28" duration="119.00" routeLength="718.04" waitingTime="30.00" waitingCount="1" stopTime="0.00" timeLoss="42.89" rerouteNo="1" devices="tripinfo_carIn30817:1 routing_carIn30817:1 emissions_carIn30817:1" vType="default_016" speedFactor="0.81" vaporized="">
        <emissions CO_abs="7374.220942" CO2_abs="234369.666943" HC_abs="39.022392" PMx_abs="4.451715" NOx_abs="98.648622" fuel_abs="100.748160" electricity_abs="0"/>
    </tripinfo>
    <tripinfo id="carIn50326:1" depart="57651.00" departLane="128361102#0_1" departPos="5.10" departSpeed="0.00" departDelay="0.30" arrival="57801.00" arrivalLane="18809673#0_1" arrivalPos="473.56" arrivalSpeed="13.09" duration="150.00" routeLength="1591.07" waitingTime="0.00" waitingCount="0" stopTime="0.00" timeLoss="19.29" rerouteNo="1" devices="tripinfo_carIn50326:1 routing_carIn50326:1 emissions_carIn50326:1" vType="default_016" speedFactor="0.99" vaporized="">
        <emissions CO_abs="5348.068104" CO2_abs="369387.698655" HC_abs="32.932416" PMx_abs="5.939522" NOx_abs="146.797782" fuel_abs="158.784626" electricity_abs="0"/>
    </tripinfo>
    <tripinfo id="h317c2:1" depart="57707.00" departLane="-32978638#0_1" departPos="5.10" departSpeed="0.00" departDelay="0.10" arrival="57805.00" arrivalLane="-266565295#5_1" arrivalPos="172.76" arrivalSpeed="14.15" duration="98.00" routeLength="370.53" waitingTime="62.00" waitingCount="1" stopTime="0.00" timeLoss="70.86" rerouteNo="1" devices="tripinfo_h317c2:1 routing_h317c2:1 emissions_h317c2:1" vType="default_016" speedFactor="1.03" vaporized="">
        <emissions CO_abs="11393.305369" CO2_abs="270096.319550" HC_abs="58.231356" PMx_abs="5.933163" NOx_abs="118.087221" fuel_abs="116.107259" electricity_abs="0"/>
    </tripinfo>
    <tripinfo id="h330c1:1" depart="57736.00" departLane="-32978638#0_1" departPos="5.10" departSpeed="0.00" departDelay="0.20" arrival="57806.00" arrivalLane="-266565295#5_1" arrivalPos="172.76" arrivalSpeed="13.67" duration="70.00" routeLength="370.53" waitingTime="35.00" waitingCount="1" stopTime="0.00" timeLoss="44.61" rerouteNo="1" devices="tripinfo_h330c1:1 routing_h330c1:1 emissions_h330c1:1" vType="default_016" speedFactor="1.07" vaporized="">
        <emissions CO_abs="7109.200419" CO2_abs="201925.735709" HC_abs="37.140260" PMx_abs="4.321807" NOx_abs="87.636979" fuel_abs="86.801489" electricity_abs="0"/>
    </tripinfo>
    <tripinfo id="carIn107282:1" depart="57749.00" departLane="-447569998#1_1" departPos="5.10" departSpeed="0.00" departDelay="0.00" arrival="57817.00" arrivalLane="315358242#0_1" arrivalPos="165.37" arrivalSpeed="12.50" duration="68.00" routeLength="448.50" waitingTime="16.00" waitingCount="1" stopTime="0.00" timeLoss="22.76" rerouteNo="1" devices="tripinfo_carIn107282:1 routing_carIn107282:1 emissions_carIn107282:1" vType="default_016" speedFactor="0.93" vaporized="">
        <emissions CO_abs="4026.070837" CO2_abs="145422.379614" HC_abs="21.714266" PMx_abs="2.683167" NOx_abs="60.556172" fuel_abs="62.512180" electricity_abs="0"/>
    </tripinfo>
    <tripinfo id="h11737c1:1" depart="57665.00" departLane="272042143_1" departPos="5.10" departSpeed="0.00" departDelay="1.50" arrival="57818.00" arrivalLane="-315358254#1_1" arrivalPos="137.16" arrivalSpeed="12.19" duration="153.00" routeLength="1596.88" waitingTime="10.00" waitingCount="1" stopTime="0.00" timeLoss="27.49" rerouteNo="1" devices="tripinfo_h11737c1:1 routing_h11737c1:1 emissions_h11737c1:1" vType="default_016" speedFactor="0.93" vaporized="">
        <emissions CO_abs="5717.762784" CO2_abs="374823.758429" HC_abs="34.758683" PMx_abs="6.069964" NOx_abs="148.789988" fuel_abs="161.121597" electricity_abs="0"/>
    </tripinfo>
    <tripinfo id="carIn126288:1" depart="57674.00" departLane="272042143_1" departPos="5.10" departSpeed="0.00" departDelay="0.00" arrival="57820.00" arrivalLane="-315358254#1_1" arrivalPos="137.16" arrivalSpeed="13.67" duration="146.00" routeLength="1596.88" waitingTime="9.00" waitingCount="1" stopTime="0.00" timeLoss="36.13" rerouteNo="1" devices="tripinfo_carIn126288:1 routing_carIn126288:1 emissions_carIn126288:1" vType="default_016" speedFactor="1.07" vaporized="">
        <emissions CO_abs="5724.445849" CO2_abs="387757.560294" HC_abs="35.177246" PMx_abs="6.736751" NOx_abs="156.854982" fuel_abs="166.680456" electricity_abs="0"/>
    </tripinfo>
    <tripinfo id="h5979c1:5" depart="57669.00" departLane="399835085#1_1" departPos="5.10" departSpeed="0.00" departDelay="0.00" arrival="57821.00" arrivalLane="-315358254#1_1" arrivalPos="137.16" arrivalSpeed="13.99" duration="152.00" routeLength="659.33" waitingTime="70.00" waitingCount="1" stopTime="0.00" timeLoss="83.39" rerouteNo="1" devices="tripinfo_h5979c1:5 routing_h5979c1:5 emissions_h5979c1:5" vType="default_016" speedFactor="1.07" vaporized="">
        <emissions CO_abs="13852.212318" CO2_abs="345458.927581" HC_abs="71.126256" PMx_abs="7.147271" NOx_abs="148.907717" fuel_abs="148.503632" electricity_abs="0"/>
    </tripinfo>
    <tripinfo id="h4538c1:1" depart="57701.00" departLane="-10427692#1_1" departPos="5.10" departSpeed="0.00" departDelay="0.00" arrival="57825.00" arrivalLane="-128361102#1_1" arrivalPos="274.68" arrivalSpeed="13.71" duration="124.00" routeLength="440.74" waitingTime="83.00" waitingCount="1" stopTime="0.00" timeLoss="92.88" rerouteNo="1" devices="tripinfo_h4538c1:1 routing_h4538c1:1 emissions_h4538c1:1" vType="default_016" speedFactor="1.03" vaporized="">
        <emissions CO_abs="14674.332692" CO2_abs="325643.162649" HC_abs="74.405544" PMx_abs="7.170418" NOx_abs="142.311789" fuel_abs="139.986162" electricity_abs="0"/>
    </tripinfo>
    <tripinfo id="randUni15030:1" depart="57735.00" departLane="386687232#0_1" departPos="5.10" departSpeed="0.00" departDelay="0.10" arrival="57828.00" arrivalLane="26677539_1" arrivalPos="151.98" arrivalSpeed="8.48" duration="93.00" routeLength="919.89" waitingTime="0.00" waitingCount="0" stopTime="0.00" timeLoss="11.02" rerouteNo="1" devices="tripinfo_randUni15030:1 routing_randUni15030:1 emissions_randUni15030:1" vType="random_016" speedFactor="1.02" vaporized="">
        <emissions CO_abs="3437.586801" CO2_abs="214955.844299" HC_abs="20.651033" PMx_abs="3.528019" NOx_abs="86.205525" fuel_abs="92.400841" electricity_abs="0"/>
    </tripinfo>
    <tripinfo id="carIn129809:1" depart="57729.00" departLane="-447569998#1_1" departPos="5.10" departSpeed="0.00" departDelay="1.00" arrival="57836.00" arrivalLane="-315358244_1" arrivalPos="33.95" arrivalSpeed="13.30" duration="107.00" routeLength="706.49" waitingTime="36.00" waitingCount="1" stopTime="0.00" timeLoss="49.34" rerouteNo="1" devices="tripinfo_carIn129809:1 routing_carIn129809:1 emissions_carIn129809:1" vType="default_015" speedFactor="1.04" vaporized="">
        <emissions CO_abs="7607.225297" CO2_abs="234823.145182" HC_abs="40.139699" PMx_abs="4.671160" NOx_abs="99.420514" fuel_abs="100.943043" electricity_abs="0"/>
    </tripinfo>
    <tripinfo id="carIn12775:1" depart="57676.00" departLane="10425609#0_1" departPos="5.10" departSpeed="0.00" departDelay="0.60" arrival="57840.00" arrivalLane="18809673#0_1" arrivalPos="473.56" arrivalSpeed="14.07" duration="164.00" routeLength="1959.45" waitingTime="7.00" waitingCount="1" stopTime="0.00" timeLoss="26.00" rerouteNo="1" devices="tripinfo_carIn12775:1 routing_carIn12775:1 emissions_carIn12775:1" vType="default_016" speedFactor="1.06" vaporized="">
        <emissions CO_abs="5379.803992" CO2_abs="405503.898436" HC_abs="33.908012" PMx_abs="6.682308" NOx_abs="160.251597" fuel_abs="174.309019" electricity_abs="0"/>
    </tripinfo>
    <tripinfo id="carIn28951:1" depart="57606.00" departLane="10425609#0_1" departPos="5.10" departSpeed="0.00" departDelay="0.20" arrival="57843.00" arrivalLane="-128361102#1_1" arrivalPos="274.68" arrivalSpeed="14.98" duration="237.00" routeLength="2113.04" waitingTime="68.00" waitingCount="3" stopTime="0.00" timeLoss="98.62" rerouteNo="1" devices="tripinfo_carIn28951:1 routing_carIn28951:1 emissions_carIn28951:1" vType="default_016" speedFactor="1.12" vaporized="">
        <emissions CO_abs="15631.663772" CO2_abs="651905.445935" HC_abs="86.291170" PMx_abs="12.349390" NOx_abs="269.134093" fuel_abs="280.230034" electricity_abs="0"/>
    </tripinfo>
    <tripinfo id="h20540c1:1" depart="57634.00" departLane="10425609#0_1" departPos="5.10" departSpeed="0.00" departDelay="0.50" arrival="57848.00" arrivalLane="-128361102#1_1" arrivalPos="274.68" arrivalSpeed="12.99" duration="214.00" routeLength="2113.04" waitingTime="34.00" waitingCount="1" stopTime="0.00" timeLoss="60.61" rerouteNo="1" devices="tripinfo_h20540c1:1 routing_h20540c1:1 emissions_h20540c1:1" vType="default_016" speedFactor="1.01" vaporized="">
        <emissions CO_abs="10756.123726" CO2_abs="527358.072307" HC_abs="61.255534" PMx_abs="9.240331" NOx_abs="213.508920" fuel_abs="226.691217" electricity_abs="0"/>
    </tripinfo>
    <tripinfo id="h7181c1:1" depart="57660.00" departLane="315358254#0_1" departPos="5.10" departSpeed="0.00" departDelay="0.10" arrival="57861.00" arrivalLane="306240162#0_0" arrivalPos="220.43" arrivalSpeed="14.73" duration="201.00" routeLength="932.35" waitingTime="127.00" waitingCount="2" stopTime="0.00" timeLoss="146.53" rerouteNo="1" devices="tripinfo_h7181c1:1 routing_h7181c1:1 emissions_h7181c1:1" vType="default_016" speedFactor="0.95" vaporized="">
        <emissions CO_abs="23287.123340" CO2_abs="571578.537424" HC_abs="119.559316" PMx_abs="12.725572" NOx_abs="249.140059" fuel_abs="245.705713" electricity_abs="0"/>
    </tripinfo>
    <tripinfo id="50R_frequency3.17" depart="57674.00" departLane="-18809673#6_1" departPos="12.10" departSpeed="0.00" departDelay="0.70" arrival="57868.00" arrivalLane="201956811#0_1" arrivalPos="40.40" arrivalSpeed="10.72" duration="194.00" routeLength="1954.47" waitingTime="19.00" waitingCount="2" stopTime="0.00" timeLoss="48.35" rerouteNo="1" devices="tripinfo_50R_frequency3.17 routing_50R_frequency3.17 emissions_50R_frequency3.17" vType="bus" speedFactor="1.00" vaporized="">
        <emissions CO_abs="3624.216201" CO2_abs="2167148.380088" HC_abs="777.015891" PMx_abs="386.605514" NOx_abs="17088.218632" fuel_abs="924.237039" electricity_abs="0"/>
    </tripinfo>
    <tripinfo id="carIn118591:1" depart="57689.00" departLane="315358244_1" departPos="5.10" departSpeed="0.00" departDelay="0.20" arrival="57869.00" arrivalLane="386687235_1" arrivalPos="80.84" arrivalSpeed="10.62" duration="180.00" routeLength="1186.14" waitingTime="52.00" waitingCount="4" stopTime="0.00" timeLoss="79.01" rerouteNo="1" devices="tripinfo_carIn118591:1 routing_carIn118591:1 emissions_carIn118591:1" vType="default_016" speedFactor="0.85" vaporized="">
        <emissions CO_abs="11169.965590" CO2_abs="399313.056316" HC_abs="60.160688" PMx_abs="7.415208" NOx_abs="166.108231" fuel_abs="171.651301" electricity_abs="0"/>
    </tripinfo>
    <tripinfo id="h17890c1:3" depart="57792.00" departLane="386687232#0_1" departPos="5.10" departSpeed="0.00" departDelay="0.00" arrival="57874.00" arrivalLane="32978638#0_1" arrivalPos="49.29" arrivalSpeed="12.76" duration="82.00" routeLength="792.72" waitingTime="6.00" waitingCount="2" stopTime="0.00" timeLoss="23.17" rerouteNo="1" devices="tripinfo_h17890c1:3 routing_h17890c1:3 emissions_h17890c1:3" vType="default_016" speedFactor="1.00" vaporized="">
        <emissions CO_abs="3513.177512" CO2_abs="218485.149396" HC_abs="21.130950" PMx_abs="3.882873" NOx_abs="89.389878" fuel_abs="93.917524" electricity_abs="0"/>
    </tripinfo>
    <tripinfo id="h3536c1:1" depart="57767.00" departLane="-24634413#2_1" departPos="5.10" departSpeed="0.00" departDelay="0.00" arrival="57876.00" arrivalLane="32978638#0_2" arrivalPos="49.29" arrivalSpeed="12.87" duration="109.00" routeLength="957.93" waitingTime="0.00" waitingCount="0" stopTime="0.00" timeLoss="17.36" rerouteNo="1" devices="tripinfo_h3536c1:1 routing_h3536c1:1 emissions_h3536c1:1" vType="default_016" speedFactor="0.99" vaporized="">
        <emissions CO_abs="4955.544761" CO2_abs="273619.246203" HC_abs="28.960143" PMx_abs="4.813739" NOx_abs="112.570686" fuel_abs="117.617794" electricity_abs="0"/>
    </tripinfo>
    <tripinfo id="carIn53503:1" depart="57765.00" departLane="-306240162#1_0" departPos="5.10" departSpeed="0.00" departDelay="4.40" arrival="57882.00" arrivalLane="24634510#6_1" arrivalPos="76.64" arrivalSpeed="13.07" duration="117.00" routeLength="1440.47" waitingTime="0.00" waitingCount="0" stopTime="0.00" timeLoss="15.12" rerouteNo="1" devices="tripinfo_carIn53503:1 routing_carIn53503:1 emissions_carIn53503:1" vType="default_016" speedFactor="0.97" vaporized="">
        <emissions CO_abs="4171.737788" CO2_abs="324088.918234" HC_abs="26.564943" PMx_abs="5.507480" NOx_abs="129.643092" fuel_abs="139.311742" electricity_abs="0"/>
    </tripinfo>
    <tripinfo id="h5239c1:3" depart="57834.00" departLane="315358254#0_1" departPos="5.10" departSpeed="0.00" departDelay="0.80" arrival="57885.00" arrivalLane="224892361#3_1" arrivalPos="220.30" arrivalSpeed="21.08" duration="51.00" routeLength="793.34" waitingTime="0.00" waitingCount="0" stopTime="0.00" timeLoss="8.13" rerouteNo="1" devices="tripinfo_h5239c1:3 routing_h5239c1:3 emissions_h5239c1:3" vType="default_016" speedFactor="0.96" vaporized="">
        <emissions CO_abs="3280.641400" CO2_abs="243322.395408" HC_abs="20.807895" PMx_abs="4.804207" NOx_abs="99.569803" fuel_abs="104.593052" electricity_abs="0"/>
    </tripinfo>
    <tripinfo id="h17549c1:1" depart="57680.00" departLane="-447569998#1_1" departPos="5.10" departSpeed="0.00" departDelay="0.00" arrival="57888.00" arrivalLane="-315358254#1_1" arrivalPos="137.16" arrivalSpeed="12.20" duration="208.00" routeLength="1746.60" waitingTime="34.00" waitingCount="2" stopTime="0.00" timeLoss="59.03" rerouteNo="1" devices="tripinfo_h17549c1:1 routing_h17549c1:1 emissions_h17549c1:1" vType="default_016" speedFactor="0.92" vaporized="">
        <emissions CO_abs="10064.626505" CO2_abs="465375.375018" HC_abs="56.658893" PMx_abs="8.083467" NOx_abs="189.287410" fuel_abs="200.047676" electricity_abs="0"/>
    </tripinfo>
    <tripinfo id="carIn86816:1" depart="57617.00" departLane="128361102#0_1" departPos="5.10" departSpeed="0.00" departDelay="0.80" arrival="57895.00" arrivalLane="201956811#0_1" arrivalPos="40.40" arrivalSpeed="10.40" duration="278.00" routeLength="2067.33" waitingTime="54.00" waitingCount="4" stopTime="0.00" timeLoss="84.10" rerouteNo="1" devices="tripinfo_carIn86816:1 routing_carIn86816:1 emissions_carIn86816:1" vType="default_016" speedFactor="0.78" vaporized="">
        <emissions CO_abs="13896.451543" CO2_abs="562009.747996" HC_abs="76.274419" PMx_abs="9.718566" NOx_abs="229.620686" fuel_abs="241.588643" electricity_abs="0"/>
    </tripinfo>
    <tripinfo id="carIn102915:1" depart="57643.00" departLane="128361102#0_1" departPos="5.10" departSpeed="0.00" departDelay="0.40" arrival="57897.00" arrivalLane="201956811#0_1" arrivalPos="40.40" arrivalSpeed="14.28" duration="254.00" routeLength="2067.33" waitingTime="36.00" waitingCount="2" stopTime="0.00" timeLoss="123.97" rerouteNo="1" devices="tripinfo_carIn102915:1 routing_carIn102915:1 emissions_carIn102915:1" vType="default_016" speedFactor="1.17" vaporized="">
        <emissions CO_abs="13944.609578" CO2_abs="633837.335007" HC_abs="78.296394" PMx_abs="11.529165" NOx_abs="262.145807" fuel_abs="272.462549" electricity_abs="0"/>
    </tripinfo>
    <tripinfo id="carIn81860:1" depart="57712.00" departLane="128361102#0_1" departPos="5.10" departSpeed="0.00" departDelay="0.60" arrival="57898.00" arrivalLane="-24634517#17_1" arrivalPos="6.43" arrivalSpeed="6.16" duration="186.00" routeLength="1229.64" waitingTime="55.00" waitingCount="2" stopTime="0.00" timeLoss="81.84" rerouteNo="1" devices="tripinfo_carIn81860:1 routing_carIn81860:1 emissions_carIn81860:1" vType="default_016" speedFactor="0.86" vaporized="">
        <emissions CO_abs="11842.810013" CO2_abs="398073.313568" HC_abs="63.197687" PMx_abs="7.517595" NOx_abs="166.434625" fuel_abs="171.118788" electricity_abs="0"/>
    </tripinfo>
    <tripinfo id="carIn2912:1" depart="57670.00" departLane="128361102#0_1" departPos="5.10" departSpeed="0.00" departDelay="3.10" arrival="57899.00" arrivalLane="201956811#0_1" arrivalPos="40.40" arrivalSpeed="13.91" duration="229.00" routeLength="2067.33" waitingTime="27.00" waitingCount="2" stopTime="0.00" timeLoss="85.91" rerouteNo="1" devices="tripinfo_carIn2912:1 routing_carIn2912:1 emissions_carIn2912:1" vType="default_016" speedFactor="1.06" vaporized="">
        <emissions CO_abs="12263.079128" CO2_abs="634756.093308" HC_abs="70.833894" PMx_abs="11.979662" NOx_abs="264.753797" fuel_abs="272.855434" electricity_abs="0"/>
    </tripinfo>
    <tripinfo id="randUni23028:1" depart="57884.00" departLane="124812856#0_1" departPos="5.10" departSpeed="0.00" departDelay="0.10" arrival="57900.00" arrivalLane="201956810_1" arrivalPos="71.65" arrivalSpeed="12.74" duration="16.00" routeLength="134.91" waitingTime="0.00" waitingCount="0" stopTime="0.00" timeLoss="4.86" rerouteNo="1" devices="tripinfo_randUni23028:1 routing_randUni23028:1 emissions_randUni23028:1" vType="random_016" speedFactor="0.97" vaporized="">
        <emissions CO_abs="1377.761327" CO2_abs="68942.575625" HC_abs="7.902304" PMx_abs="1.326842" NOx_abs="29.148240" fuel_abs="29.635543" electricity_abs="0"/>
    </tripinfo>
    <tripinfo id="h3864c1:3" depart="57678.00" departLane="24693977#1_1" departPos="5.10" departSpeed="0.00" departDelay="0.00" arrival="57901.00" arrivalLane="201956820_1" arrivalPos="48.33" arrivalSpeed="12.96" duration="223.00" routeLength="1574.85" waitingTime="51.00" waitingCount="4" stopTime="0.00" timeLoss="86.15" rerouteNo="1" devices="tripinfo_h3864c1:3 routing_h3864c1:3 emissions_h3864c1:3" vType="default_016" speedFactor="0.94" vaporized="">
        <emissions CO_abs="13385.744855" CO2_abs="531058.219207" HC_abs="73.381308" PMx_abs="9.971225" NOx_abs="221.804469" fuel_abs="228.282687" electricity_abs="0"/>
    </tripinfo>
    <tripinfo id="h13377c2:3" depart="57808.00" departLane="315358244_1" departPos="5.10" departSpeed="0.00" departDelay="4.60" arrival="57905.00" arrivalLane="447569997#1_1" arrivalPos="180.93" arrivalSpeed="6.73" duration="97.00" routeLength="718.04" waitingTime="15.00" waitingCount="1" stopTime="0.00" timeLoss="27.64" rerouteNo="1" devices="tripinfo_h13377c2:3 routing_h13377c2:3 emissions_h13377c2:3" vType="default_016" speedFactor="0.89" vaporized="">
        <emissions CO_abs="4598.041092" CO2_abs="198112.885334" HC_abs="25.506506" PMx_abs="3.305831" NOx_abs="80.050265" fuel_abs="85.161848" electricity_abs="0"/>
    </tripinfo>