<?xml version="1.0" encoding="UTF-8"?>

<!-- generated on 2021-10-26 17:51:11 by Eclipse SUMO sumo Version 1.10.0
<configuration xmlns:xsi="http://www.w3.org/2001/XMLSchema-instance" xsi:noNamespaceSchemaLocation="http://sumo.dlr.de/xsd/sumoConfiguration.xsd">

    <input>
        <net-file value="/Users/behradkoohy/sumo-scratchpad/RESCO/environments/ingolstadt21/ingolstadt21.net.xml"/>
        <route-files value="/Users/behradkoohy/sumo-scratchpad/RESCO/environments/ingolstadt21/ingolstadt21.rou.xml"/>
    </input>

    <output>
        <tripinfo-output value="/Users/behradkoohy/sumo-scratchpad/RESCO/logs/IPPO-tr0-ingolstadt21-21-drq_norm-wait_norm/tripinfo_25.xml"/>
        <tripinfo-output.write-unfinished value="true"/>
    </output>

    <time>
        <begin value="57600"/>
        <end value="61200"/>
    </time>

    <processing>
        <time-to-teleport value="-1"/>
    </processing>

    <report>
        <no-warnings value="true"/>
        <no-step-log value="true"/>
    </report>

    <emissions>
        <device.emissions.probability value="1"/>
    </emissions>

    <traci_server>
        <remote-port value="61699"/>
    </traci_server>

    <random_number>
        <random value="true"/>
    </random_number>

</configuration>
-->

<tripinfos xmlns:xsi="http://www.w3.org/2001/XMLSchema-instance" xsi:noNamespaceSchemaLocation="http://sumo.dlr.de/xsd/tripinfo_file.xsd">
    <tripinfo id="h15454c2:3" depart="57612.00" departLane="24608844_1" departPos="5.10" departSpeed="0.00" departDelay="0.50" arrival="57668.00" arrivalLane="32978638#0_1" arrivalPos="49.29" arrivalSpeed="12.44" duration="56.00" routeLength="354.79" waitingTime="7.00" waitingCount="1" stopTime="0.00" timeLoss="18.51" rerouteNo="1" devices="tripinfo_h15454c2:3 routing_h15454c2:3 emissions_h15454c2:3" vType="default_016" speedFactor="0.91" vaporized="">
        <emissions CO_abs="2729.529404" CO2_abs="117712.949369" HC_abs="15.155690" PMx_abs="2.053491" NOx_abs="48.503128" fuel_abs="50.600532" electricity_abs="0"/>
    </tripinfo>
    <tripinfo id="carIn60260:1" depart="57606.00" departLane="315358254#0_1" departPos="5.10" departSpeed="0.00" departDelay="0.90" arrival="57672.00" arrivalLane="399835085#1_1" arrivalPos="212.23" arrivalSpeed="8.07" duration="66.00" routeLength="430.98" waitingTime="10.00" waitingCount="1" stopTime="0.00" timeLoss="21.40" rerouteNo="1" devices="tripinfo_carIn60260:1 routing_carIn60260:1 emissions_carIn60260:1" vType="default_016" speedFactor="1.04" vaporized="">
        <emissions CO_abs="2844.657647" CO2_abs="129571.598274" HC_abs="15.959982" PMx_abs="2.256553" NOx_abs="53.285497" fuel_abs="55.698012" electricity_abs="0"/>
    </tripinfo>
    <tripinfo id="carIn53971:1" depart="57640.00" departLane="272042143_1" departPos="5.10" departSpeed="0.00" departDelay="0.80" arrival="57695.00" arrivalLane="24634414#1_1" arrivalPos="162.19" arrivalSpeed="7.84" duration="55.00" routeLength="493.04" waitingTime="0.00" waitingCount="0" stopTime="0.00" timeLoss="9.14" rerouteNo="1" devices="tripinfo_carIn53971:1 routing_carIn53971:1 emissions_carIn53971:1" vType="default_016" speedFactor="1.00" vaporized="">
        <emissions CO_abs="2442.611787" CO2_abs="136290.046898" HC_abs="14.300257" PMx_abs="2.351032" NOx_abs="55.729673" fuel_abs="58.585606" electricity_abs="0"/>
    </tripinfo>
    <tripinfo id="carIn22761:1" depart="57616.00" departLane="-306240162#1_0" departPos="5.10" departSpeed="0.00" departDelay="2.10" arrival="57704.00" arrivalLane="399835085#1_1" arrivalPos="212.23" arrivalSpeed="8.20" duration="88.00" routeLength="1093.26" waitingTime="0.00" waitingCount="0" stopTime="0.00" timeLoss="13.62" rerouteNo="1" devices="tripinfo_carIn22761:1 routing_carIn22761:1 emissions_carIn22761:1" vType="default_016" speedFactor="1.05" vaporized="">
        <emissions CO_abs="4226.984831" CO2_abs="284210.147497" HC_abs="25.924539" PMx_abs="5.331035" NOx_abs="115.851128" fuel_abs="122.169414" electricity_abs="0"/>
    </tripinfo>
    <tripinfo id="h12244c1:3" depart="57612.00" departLane="315358244_1" departPos="5.10" departSpeed="0.00" departDelay="0.40" arrival="57717.00" arrivalLane="386687235_1" arrivalPos="80.84" arrivalSpeed="15.27" duration="105.00" routeLength="1186.14" waitingTime="11.00" waitingCount="1" stopTime="0.00" timeLoss="27.69" rerouteNo="1" devices="tripinfo_h12244c1:3 routing_h12244c1:3 emissions_h12244c1:3" vType="default_016" speedFactor="1.12" vaporized="">
        <emissions CO_abs="4500.144250" CO2_abs="288507.048172" HC_abs="27.131759" PMx_abs="5.130605" NOx_abs="116.755270" fuel_abs="124.016958" electricity_abs="0"/>
    </tripinfo>
    <tripinfo id="h7800c1:5" depart="57696.00" departLane="-447569998#1_1" departPos="5.10" departSpeed="0.00" departDelay="0.00" arrival="57719.00" arrivalLane="-447569998#1_1" arrivalPos="180.76" arrivalSpeed="8.50" duration="23.00" routeLength="175.66" waitingTime="0.00" waitingCount="0" stopTime="0.00" timeLoss="3.41" rerouteNo="1" devices="tripinfo_h7800c1:5 routing_h7800c1:5 emissions_h7800c1:5" vType="default_016" speedFactor="1.10" vaporized="">
        <emissions CO_abs="1031.132013" CO2_abs="47654.558245" HC_abs="5.792703" PMx_abs="0.790548" NOx_abs="19.428602" fuel_abs="20.484961" electricity_abs="0"/>
    </tripinfo>
    <tripinfo id="h3688c1:1" depart="57625.00" departLane="201201950#1_1" departPos="5.10" departSpeed="0.00" departDelay="0.00" arrival="57721.00" arrivalLane="32978638#0_1" arrivalPos="49.29" arrivalSpeed="12.76" duration="96.00" routeLength="1089.75" waitingTime="1.00" waitingCount="1" stopTime="0.00" timeLoss="15.67" rerouteNo="1" devices="tripinfo_h3688c1:1 routing_h3688c1:1 emissions_h3688c1:1" vType="default_016" speedFactor="0.99" vaporized="">
        <emissions CO_abs="3553.110469" CO2_abs="255043.192837" HC_abs="22.151162" PMx_abs="4.293505" NOx_abs="102.272194" fuel_abs="109.632233" electricity_abs="0"/>
    </tripinfo>
    <tripinfo id="S5R_frequency1.2" depart="57624.00" departLane="315358250#0_1" departPos="12.10" departSpeed="0.00" departDelay="12.40" arrival="57737.00" arrivalLane="386687235_1" arrivalPos="80.84" arrivalSpeed="12.91" duration="113.00" routeLength="1115.62" waitingTime="11.00" waitingCount="1" stopTime="0.00" timeLoss="31.52" rerouteNo="1" devices="tripinfo_S5R_frequency1.2 routing_S5R_frequency1.2 emissions_S5R_frequency1.2" vType="bus" speedFactor="1.00" vaporized="">
        <emissions CO_abs="2172.860348" CO2_abs="1290658.072459" HC_abs="465.042027" PMx_abs="231.504775" NOx_abs="10203.124529" fuel_abs="550.430447" electricity_abs="0"/>
    </tripinfo>
    <tripinfo id="h317c2:1" depart="57707.00" departLane="-32978638#0_1" departPos="5.10" departSpeed="0.00" departDelay="0.10" arrival="57737.00" arrivalLane="-266565295#5_1" arrivalPos="172.76" arrivalSpeed="16.27" duration="30.00" routeLength="370.53" waitingTime="0.00" waitingCount="0" stopTime="0.00" timeLoss="6.73" rerouteNo="1" devices="tripinfo_h317c2:1 routing_h317c2:1 emissions_h317c2:1" vType="default_016" speedFactor="1.20" vaporized="">
        <emissions CO_abs="1876.039109" CO2_abs="128757.346984" HC_abs="11.573991" PMx_abs="2.426471" NOx_abs="53.094898" fuel_abs="55.347003" electricity_abs="0"/>
    </tripinfo>
    <tripinfo id="h7181c1:1" depart="57660.00" departLane="315358254#0_1" departPos="5.10" departSpeed="0.00" departDelay="0.10" arrival="57744.00" arrivalLane="306240162#0_0" arrivalPos="220.43" arrivalSpeed="17.08" duration="84.00" routeLength="932.35" waitingTime="17.00" waitingCount="1" stopTime="0.00" timeLoss="35.63" rerouteNo="1" devices="tripinfo_h7181c1:1 routing_h7181c1:1 emissions_h7181c1:1" vType="default_016" speedFactor="1.06" vaporized="">
        <emissions CO_abs="6910.852220" CO2_abs="346021.681711" HC_abs="39.771952" PMx_abs="7.126251" NOx_abs="146.007228" fuel_abs="148.739940" electricity_abs="0"/>
    </tripinfo>
    <tripinfo id="h4538c1:1" depart="57701.00" departLane="-10427692#1_1" departPos="5.10" departSpeed="0.00" departDelay="0.00" arrival="57746.00" arrivalLane="-128361102#1_1" arrivalPos="274.68" arrivalSpeed="13.91" duration="45.00" routeLength="440.74" waitingTime="3.00" waitingCount="1" stopTime="0.00" timeLoss="13.57" rerouteNo="1" devices="tripinfo_h4538c1:1 routing_h4538c1:1 emissions_h4538c1:1" vType="default_016" speedFactor="1.01" vaporized="">
        <emissions CO_abs="1939.034037" CO2_abs="115899.775810" HC_abs="11.560596" PMx_abs="2.096049" NOx_abs="47.625368" fuel_abs="49.820424" electricity_abs="0"/>
    </tripinfo>
    <tripinfo id="carIn30817:1" depart="57681.00" departLane="315358244_1" departPos="5.10" departSpeed="0.00" departDelay="0.20" arrival="57749.00" arrivalLane="447569997#1_1" arrivalPos="180.93" arrivalSpeed="7.69" duration="68.00" routeLength="718.04" waitingTime="0.00" waitingCount="0" stopTime="0.00" timeLoss="6.96" rerouteNo="1" devices="tripinfo_carIn30817:1 routing_carIn30817:1 emissions_carIn30817:1" vType="default_016" speedFactor="1.01" vaporized="">
        <emissions CO_abs="2074.083573" CO2_abs="146833.013752" HC_abs="12.812603" PMx_abs="2.190771" NOx_abs="57.073292" fuel_abs="63.117724" electricity_abs="0"/>
    </tripinfo>
    <tripinfo id="h5979c1:5" depart="57669.00" departLane="399835085#1_1" departPos="5.10" departSpeed="0.00" departDelay="0.00" arrival="57752.00" arrivalLane="-315358254#1_1" arrivalPos="137.16" arrivalSpeed="13.43" duration="83.00" routeLength="659.33" waitingTime="0.00" waitingCount="0" stopTime="0.00" timeLoss="9.22" rerouteNo="1" devices="tripinfo_h5979c1:5 routing_h5979c1:5 emissions_h5979c1:5" vType="default_016" speedFactor="0.99" vaporized="">
        <emissions CO_abs="3111.881540" CO2_abs="157011.612731" HC_abs="17.795270" PMx_abs="2.593547" NOx_abs="63.749778" fuel_abs="67.493373" electricity_abs="0"/>
    </tripinfo>
    <tripinfo id="h330c1:1" depart="57736.00" departLane="-32978638#0_1" departPos="5.10" departSpeed="0.00" departDelay="0.20" arrival="57768.00" arrivalLane="-266565295#5_1" arrivalPos="172.76" arrivalSpeed="15.16" duration="32.00" routeLength="370.53" waitingTime="0.00" waitingCount="0" stopTime="0.00" timeLoss="7.03" rerouteNo="1" devices="tripinfo_h330c1:1 routing_h330c1:1 emissions_h330c1:1" vType="default_016" speedFactor="1.13" vaporized="">
        <emissions CO_abs="1855.272965" CO2_abs="118697.376855" HC_abs="11.230947" PMx_abs="2.204385" NOx_abs="49.001560" fuel_abs="51.022804" electricity_abs="0"/>
    </tripinfo>
    <tripinfo id="h3326c1:2" depart="57656.00" departLane="22716069#0_1" departPos="5.10" departSpeed="0.00" departDelay="0.00" arrival="57777.00" arrivalLane="24634517#13_1" arrivalPos="111.62" arrivalSpeed="11.46" duration="121.00" routeLength="1312.81" waitingTime="0.00" waitingCount="0" stopTime="0.00" timeLoss="14.62" rerouteNo="1" devices="tripinfo_h3326c1:2 routing_h3326c1:2 emissions_h3326c1:2" vType="default_016" speedFactor="0.91" vaporized="">
        <emissions CO_abs="4036.548154" CO2_abs="305058.054729" HC_abs="25.465335" PMx_abs="4.789687" NOx_abs="120.401605" fuel_abs="131.131812" electricity_abs="0"/>
    </tripinfo>
    <tripinfo id="carIn27009:1" depart="57673.00" departLane="-447569998#1_1" departPos="5.10" departSpeed="0.00" departDelay="0.50" arrival="57779.00" arrivalLane="-26677539_1" arrivalPos="152.75" arrivalSpeed="8.57" duration="106.00" routeLength="699.63" waitingTime="15.00" waitingCount="1" stopTime="0.00" timeLoss="31.00" rerouteNo="1" devices="tripinfo_carIn27009:1 routing_carIn27009:1 emissions_carIn27009:1" vType="default_015" speedFactor="1.11" vaporized="">
        <emissions CO_abs="5173.255072" CO2_abs="217674.431344" HC_abs="28.580244" PMx_abs="3.732042" NOx_abs="89.407911" fuel_abs="93.570544" electricity_abs="0"/>
    </tripinfo>
    <tripinfo id="carIn86816:1" depart="57617.00" departLane="128361102#0_1" departPos="5.10" departSpeed="0.00" departDelay="0.80" arrival="57784.00" arrivalLane="201956811#0_1" arrivalPos="40.40" arrivalSpeed="14.94" duration="167.00" routeLength="2067.33" waitingTime="3.00" waitingCount="1" stopTime="0.00" timeLoss="26.30" rerouteNo="1" devices="tripinfo_carIn86816:1 routing_carIn86816:1 emissions_carIn86816:1" vType="default_016" speedFactor="1.08" vaporized="">
        <emissions CO_abs="5719.914796" CO2_abs="451888.368349" HC_abs="36.597549" PMx_abs="7.682163" NOx_abs="180.546846" fuel_abs="194.247108" electricity_abs="0"/>
    </tripinfo>
    <tripinfo id="carIn80064:1" depart="57603.00" departLane="128361109#1_1" departPos="5.10" departSpeed="0.00" departDelay="0.40" arrival="57787.00" arrivalLane="-315358254#1_1" arrivalPos="137.16" arrivalSpeed="14.08" duration="184.00" routeLength="1587.97" waitingTime="64.00" waitingCount="3" stopTime="0.00" timeLoss="100.05" rerouteNo="1" devices="tripinfo_carIn80064:1 routing_carIn80064:1 emissions_carIn80064:1" vType="default_016" speedFactor="1.06" vaporized="">
        <emissions CO_abs="16611.496234" CO2_abs="649606.796768" HC_abs="91.157451" PMx_abs="13.623902" NOx_abs="275.969763" fuel_abs="279.240920" electricity_abs="0"/>
    </tripinfo>
    <tripinfo id="h9563c2:5" depart="57631.00" departLane="315358244_1" departPos="5.10" departSpeed="0.00" departDelay="0.70" arrival="57787.00" arrivalLane="386687235_1" arrivalPos="80.84" arrivalSpeed="11.63" duration="156.00" routeLength="1186.14" waitingTime="38.00" waitingCount="3" stopTime="0.00" timeLoss="62.08" rerouteNo="1" devices="tripinfo_h9563c2:5 routing_h9563c2:5 emissions_h9563c2:5" vType="default_016" speedFactor="0.93" vaporized="">
        <emissions CO_abs="9238.330588" CO2_abs="378275.720355" HC_abs="50.907895" PMx_abs="6.941439" NOx_abs="156.309309" fuel_abs="162.607086" electricity_abs="0"/>
    </tripinfo>
    <tripinfo id="h3154c1:1" depart="57658.00" departLane="24634507_1" departPos="5.10" departSpeed="0.00" departDelay="0.00" arrival="57787.00" arrivalLane="-266565295#5_1" arrivalPos="172.76" arrivalSpeed="11.46" duration="129.00" routeLength="1206.22" waitingTime="14.00" waitingCount="1" stopTime="0.00" timeLoss="30.83" rerouteNo="1" devices="tripinfo_h3154c1:1 routing_h3154c1:1 emissions_h3154c1:1" vType="default_016" speedFactor="0.92" vaporized="">
        <emissions CO_abs="5248.523615" CO2_abs="286602.267944" HC_abs="30.579194" PMx_abs="4.875733" NOx_abs="115.823588" fuel_abs="123.199077" electricity_abs="0"/>
    </tripinfo>
    <tripinfo id="carIn12365:1" depart="57713.00" departLane="315358244_1" departPos="5.10" departSpeed="0.00" departDelay="0.50" arrival="57799.00" arrivalLane="447569997#1_1" arrivalPos="180.93" arrivalSpeed="7.54" duration="86.00" routeLength="718.04" waitingTime="8.00" waitingCount="1" stopTime="0.00" timeLoss="20.62" rerouteNo="1" devices="tripinfo_carIn12365:1 routing_carIn12365:1 emissions_carIn12365:1" vType="default_016" speedFactor="0.95" vaporized="">
        <emissions CO_abs="3756.845913" CO2_abs="191995.443629" HC_abs="21.559065" PMx_abs="3.220205" NOx_abs="77.719906" fuel_abs="82.531545" electricity_abs="0"/>
    </tripinfo>
    <tripinfo id="carIn121703:1" depart="57647.00" departLane="386687232#0_1" departPos="5.10" departSpeed="0.00" departDelay="0.30" arrival="57805.00" arrivalLane="-315358244_1" arrivalPos="33.95" arrivalSpeed="13.72" duration="158.00" routeLength="1157.39" waitingTime="62.00" waitingCount="1" stopTime="0.00" timeLoss="76.07" rerouteNo="1" devices="tripinfo_carIn121703:1 routing_carIn121703:1 emissions_carIn121703:1" vType="default_016" speedFactor="1.03" vaporized="">
        <emissions CO_abs="12421.104565" CO2_abs="389014.155182" HC_abs="65.663180" PMx_abs="7.775221" NOx_abs="164.136773" fuel_abs="167.224747" electricity_abs="0"/>
    </tripinfo>
    <tripinfo id="carIn107282:1" depart="57749.00" departLane="-447569998#1_1" departPos="5.10" departSpeed="0.00" departDelay="0.00" arrival="57809.00" arrivalLane="315358242#0_1" arrivalPos="165.37" arrivalSpeed="11.39" duration="60.00" routeLength="448.50" waitingTime="3.00" waitingCount="1" stopTime="0.00" timeLoss="11.46" rerouteNo="1" devices="tripinfo_carIn107282:1 routing_carIn107282:1 emissions_carIn107282:1" vType="default_016" speedFactor="0.85" vaporized="">
        <emissions CO_abs="2376.789854" CO2_abs="115064.196922" HC_abs="13.477351" PMx_abs="1.898167" NOx_abs="46.616774" fuel_abs="49.461856" electricity_abs="0"/>
    </tripinfo>
    <tripinfo id="h645c1:1" depart="57622.00" departLane="266565295#5_1" departPos="5.10" departSpeed="0.00" departDelay="0.40" arrival="57812.00" arrivalLane="-315358244_1" arrivalPos="33.95" arrivalSpeed="10.89" duration="190.00" routeLength="1910.83" waitingTime="10.00" waitingCount="2" stopTime="0.00" timeLoss="31.66" rerouteNo="1" devices="tripinfo_h645c1:1 routing_h645c1:1 emissions_h645c1:1" vType="default_016" speedFactor="0.88" vaporized="">
        <emissions CO_abs="5357.544199" CO2_abs="384885.339525" HC_abs="33.289072" PMx_abs="5.857542" NOx_abs="150.808891" fuel_abs="165.446752" electricity_abs="0"/>
    </tripinfo>
    <tripinfo id="carIn28951:1" depart="57606.00" departLane="10425609#0_1" departPos="5.10" departSpeed="0.00" departDelay="0.20" arrival="57818.00" arrivalLane="-128361102#1_1" arrivalPos="274.68" arrivalSpeed="12.00" duration="212.00" routeLength="2113.04" waitingTime="23.00" waitingCount="2" stopTime="0.00" timeLoss="49.44" rerouteNo="1" devices="tripinfo_carIn28951:1 routing_carIn28951:1 emissions_carIn28951:1" vType="default_016" speedFactor="0.95" vaporized="">
        <emissions CO_abs="8145.818864" CO2_abs="497130.489969" HC_abs="48.666332" PMx_abs="8.186143" NOx_abs="198.464997" fuel_abs="213.696570" electricity_abs="0"/>
    </tripinfo>
    <tripinfo id="h20540c1:1" depart="57634.00" departLane="10425609#0_1" departPos="5.10" departSpeed="0.00" departDelay="0.50" arrival="57819.00" arrivalLane="-128361102#1_1" arrivalPos="274.68" arrivalSpeed="14.38" duration="185.00" routeLength="2095.01" waitingTime="8.00" waitingCount="1" stopTime="0.00" timeLoss="57.77" rerouteNo="1" devices="tripinfo_h20540c1:1 routing_h20540c1:1 emissions_h20540c1:1" vType="default_016" speedFactor="1.21" vaporized="">
        <emissions CO_abs="7803.390785" CO2_abs="540461.637514" HC_abs="48.176446" PMx_abs="9.576098" NOx_abs="219.249494" fuel_abs="232.321039" electricity_abs="0"/>
    </tripinfo>
    <tripinfo id="carIn118591:1" depart="57689.00" departLane="315358244_1" departPos="5.10" departSpeed="0.00" departDelay="0.20" arrival="57819.00" arrivalLane="386687235_1" arrivalPos="80.84" arrivalSpeed="12.99" duration="130.00" routeLength="1186.14" waitingTime="14.00" waitingCount="2" stopTime="0.00" timeLoss="38.65" rerouteNo="1" devices="tripinfo_carIn118591:1 routing_carIn118591:1 emissions_carIn118591:1" vType="default_016" speedFactor="0.95" vaporized="">
        <emissions CO_abs="6709.348874" CO2_abs="339038.207158" HC_abs="38.488268" PMx_abs="6.076094" NOx_abs="139.252056" fuel_abs="145.739162" electricity_abs="0"/>
    </tripinfo>
    <tripinfo id="carIn48184:1" depart="57613.00" departLane="-306240162#1_0" departPos="5.10" departSpeed="0.00" departDelay="0.70" arrival="57824.00" arrivalLane="386687235_1" arrivalPos="80.84" arrivalSpeed="12.60" duration="211.00" routeLength="2257.41" waitingTime="31.00" waitingCount="2" stopTime="0.00" timeLoss="57.28" rerouteNo="1" devices="tripinfo_carIn48184:1 routing_carIn48184:1 emissions_carIn48184:1" vType="default_016" speedFactor="0.97" vaporized="">
        <emissions CO_abs="9878.660552" CO2_abs="568109.151649" HC_abs="58.279456" PMx_abs="10.066882" NOx_abs="228.769667" fuel_abs="244.207123" electricity_abs="0"/>
    </tripinfo>
    <tripinfo id="carIn102915:1" depart="57643.00" departLane="128361102#0_1" departPos="5.10" departSpeed="0.00" departDelay="0.40" arrival="57824.00" arrivalLane="201956811#0_1" arrivalPos="40.40" arrivalSpeed="10.66" duration="181.00" routeLength="2067.33" waitingTime="2.00" waitingCount="1" stopTime="0.00" timeLoss="23.09" rerouteNo="1" devices="tripinfo_carIn102915:1 routing_carIn102915:1 emissions_carIn102915:1" vType="default_016" speedFactor="0.96" vaporized="">
        <emissions CO_abs="5038.276175" CO2_abs="414142.413350" HC_abs="32.575923" PMx_abs="6.436785" NOx_abs="162.041110" fuel_abs="178.022481" electricity_abs="0"/>
    </tripinfo>
    <tripinfo id="randUni33724:1" depart="57646.00" departLane="128361102#0_1" departPos="5.10" departSpeed="0.00" departDelay="1.20" arrival="57826.00" arrivalLane="201956811#0_1" arrivalPos="40.40" arrivalSpeed="11.54" duration="180.00" routeLength="2067.33" waitingTime="2.00" waitingCount="1" stopTime="0.00" timeLoss="40.19" rerouteNo="1" devices="tripinfo_randUni33724:1 routing_randUni33724:1 emissions_randUni33724:1" vType="random_016" speedFactor="1.09" vaporized="">
        <emissions CO_abs="6190.516218" CO2_abs="454377.453830" HC_abs="38.834941" PMx_abs="7.721710" NOx_abs="182.716270" fuel_abs="195.317326" electricity_abs="0"/>
    </tripinfo>
    <tripinfo id="h16072c2:3" depart="57663.00" departLane="315358254#0_1" departPos="5.10" departSpeed="0.00" departDelay="2.50" arrival="57826.00" arrivalLane="386687235_2" arrivalPos="80.84" arrivalSpeed="15.08" duration="163.00" routeLength="1611.92" waitingTime="25.00" waitingCount="3" stopTime="0.00" timeLoss="54.42" rerouteNo="1" devices="tripinfo_h16072c2:3 routing_h16072c2:3 emissions_h16072c2:3" vType="default_016" speedFactor="1.09" vaporized="">
        <emissions CO_abs="7454.830949" CO2_abs="405937.256357" HC_abs="43.422872" PMx_abs="7.269576" NOx_abs="165.298244" fuel_abs="174.496073" electricity_abs="0"/>
    </tripinfo>
    <tripinfo id="h5216c1:1" depart="57664.00" departLane="224892339#0_1" departPos="5.10" departSpeed="0.00" departDelay="0.00" arrival="57826.00" arrivalLane="386687235_1" arrivalPos="80.84" arrivalSpeed="13.90" duration="162.00" routeLength="1823.78" waitingTime="10.00" waitingCount="1" stopTime="0.00" timeLoss="35.76" rerouteNo="1" devices="tripinfo_h5216c1:1 routing_h5216c1:1 emissions_h5216c1:1" vType="default_016" speedFactor="1.01" vaporized="">
        <emissions CO_abs="6524.151334" CO2_abs="444880.732871" HC_abs="40.146028" PMx_abs="7.761463" NOx_abs="179.565037" fuel_abs="191.235245" electricity_abs="0"/>
    </tripinfo>
    <tripinfo id="carIn12858:1" depart="57661.00" departLane="128361109#1_1" departPos="5.10" departSpeed="0.00" departDelay="0.90" arrival="57827.00" arrivalLane="399835085#1_1" arrivalPos="212.23" arrivalSpeed="7.83" duration="166.00" routeLength="1738.12" waitingTime="11.00" waitingCount="3" stopTime="0.00" timeLoss="45.81" rerouteNo="1" devices="tripinfo_carIn12858:1 routing_carIn12858:1 emissions_carIn12858:1" vType="default_016" speedFactor="0.96" vaporized="">
        <emissions CO_abs="7652.780886" CO2_abs="481154.121935" HC_abs="46.255159" PMx_abs="8.952677" NOx_abs="196.852861" fuel_abs="206.827387" electricity_abs="0"/>
    </tripinfo>
    <tripinfo id="randUni14624:1" depart="57606.00" departLane="315358244_1" departPos="5.10" departSpeed="0.00" departDelay="0.80" arrival="57832.00" arrivalLane="-25149001#4_1" arrivalPos="105.67" arrivalSpeed="9.50" duration="226.00" routeLength="2803.98" waitingTime="15.00" waitingCount="2" stopTime="0.00" timeLoss="46.45" rerouteNo="1" devices="tripinfo_randUni14624:1 routing_randUni14624:1 emissions_randUni14624:1" vType="random_016" speedFactor="1.17" vaporized="">
        <emissions CO_abs="8158.015332" CO2_abs="606787.084915" HC_abs="51.045541" PMx_abs="10.501385" NOx_abs="241.897104" fuel_abs="260.831558" electricity_abs="0"/>
    </tripinfo>
    <tripinfo id="carIn129809:1" depart="57729.00" departLane="-447569998#1_1" departPos="5.10" departSpeed="0.00" departDelay="1.00" arrival="57833.00" arrivalLane="-315358244_1" arrivalPos="33.95" arrivalSpeed="11.96" duration="104.00" routeLength="706.49" waitingTime="23.00" waitingCount="1" stopTime="0.00" timeLoss="36.39" rerouteNo="1" devices="tripinfo_carIn129809:1 routing_carIn129809:1 emissions_carIn129809:1" vType="default_015" speedFactor="0.90" vaporized="">
        <emissions CO_abs="5409.828212" CO2_abs="199363.474565" HC_abs="29.257499" PMx_abs="3.577575" NOx_abs="82.095783" fuel_abs="85.699727" electricity_abs="0"/>
    </tripinfo>
    <tripinfo id="h2831c1:1" depart="57600.00" departLane="201089423#0_1" departPos="5.10" departSpeed="0.00" departDelay="0.00" arrival="57837.00" arrivalLane="-315358244_1" arrivalPos="33.95" arrivalSpeed="13.21" duration="237.00" routeLength="2672.18" waitingTime="19.00" waitingCount="2" stopTime="0.00" timeLoss="49.07" rerouteNo="1" devices="tripinfo_h2831c1:1 routing_h2831c1:1 emissions_h2831c1:1" vType="default_016" speedFactor="1.04" vaporized="">
        <emissions CO_abs="8387.828021" CO2_abs="587934.401735" HC_abs="51.826025" PMx_abs="9.738807" NOx_abs="233.126157" fuel_abs="252.728575" electricity_abs="0"/>
    </tripinfo>
    <tripinfo id="50R_frequency3.17" depart="57674.00" departLane="-18809673#6_1" departPos="12.10" departSpeed="0.00" departDelay="0.70" arrival="57837.00" arrivalLane="201956811#0_1" arrivalPos="40.40" arrivalSpeed="12.98" duration="163.00" routeLength="1954.47" waitingTime="0.00" waitingCount="0" stopTime="0.00" timeLoss="17.72" rerouteNo="1" devices="tripinfo_50R_frequency3.17 routing_50R_frequency3.17 emissions_50R_frequency3.17" vType="bus" speedFactor="1.00" vaporized="">
        <emissions CO_abs="3130.884869" CO2_abs="1996226.486823" HC_abs="667.320462" PMx_abs="337.010444" NOx_abs="15384.174635" fuel_abs="851.389779" electricity_abs="0"/>
    </tripinfo>
    <tripinfo id="h3864c1:3" depart="57678.00" departLane="24693977#1_1" departPos="5.10" departSpeed="0.00" departDelay="0.00" arrival="57840.00" arrivalLane="201956820_1" arrivalPos="48.33" arrivalSpeed="12.69" duration="162.00" routeLength="1574.85" waitingTime="3.00" waitingCount="1" stopTime="0.00" timeLoss="32.84" rerouteNo="1" devices="tripinfo_h3864c1:3 routing_h3864c1:3 emissions_h3864c1:3" vType="default_016" speedFactor="1.00" vaporized="">
        <emissions CO_abs="6933.952226" CO2_abs="417741.332342" HC_abs="41.378297" PMx_abs="7.396835" NOx_abs="171.352676" fuel_abs="179.569494" electricity_abs="0"/>
    </tripinfo>
    <tripinfo id="h3568c1:3" depart="57656.00" departLane="266565295#5_1" departPos="5.10" departSpeed="0.00" departDelay="0.80" arrival="57842.00" arrivalLane="-24634415_1" arrivalPos="62.03" arrivalSpeed="15.09" duration="186.00" routeLength="807.40" waitingTime="107.00" waitingCount="2" stopTime="0.00" timeLoss="132.50" rerouteNo="1" devices="tripinfo_h3568c1:3 routing_h3568c1:3 emissions_h3568c1:3" vType="default_016" speedFactor="1.20" vaporized="">
        <emissions CO_abs="21309.366537" CO2_abs="567258.037503" HC_abs="110.447259" PMx_abs="12.510977" NOx_abs="248.497862" fuel_abs="243.846879" electricity_abs="0"/>
    </tripinfo>
    <tripinfo id="carIn100288:1" depart="57664.00" departLane="128361102#0_1" departPos="5.10" departSpeed="0.00" departDelay="0.60" arrival="57844.00" arrivalLane="201956811#0_1" arrivalPos="40.40" arrivalSpeed="15.82" duration="180.00" routeLength="2067.33" waitingTime="26.00" waitingCount="1" stopTime="0.00" timeLoss="53.12" rerouteNo="1" devices="tripinfo_carIn100288:1 routing_carIn100288:1 emissions_carIn100288:1" vType="default_016" speedFactor="1.19" vaporized="">
        <emissions CO_abs="9519.034357" CO2_abs="534579.638158" HC_abs="55.867694" PMx_abs="9.978351" NOx_abs="218.944541" fuel_abs="229.793505" electricity_abs="0"/>
    </tripinfo>
    <tripinfo id="carIn29531:1" depart="57667.00" departLane="128361102#0_1" departPos="5.10" departSpeed="0.00" departDelay="1.60" arrival="57849.00" arrivalLane="201956811#0_1" arrivalPos="40.40" arrivalSpeed="15.06" duration="182.00" routeLength="2067.33" waitingTime="25.00" waitingCount="1" stopTime="0.00" timeLoss="50.58" rerouteNo="1" devices="tripinfo_carIn29531:1 routing_carIn29531:1 emissions_carIn29531:1" vType="default_016" speedFactor="1.15" vaporized="">
        <emissions CO_abs="9602.332643" CO2_abs="532915.301060" HC_abs="56.125469" PMx_abs="9.879638" NOx_abs="218.142519" fuel_abs="229.078231" electricity_abs="0"/>
    </tripinfo>
    <tripinfo id="carIn82278:1" depart="57702.00" departLane="-306240162#1_0" departPos="5.10" departSpeed="0.00" departDelay="0.70" arrival="57852.00" arrivalLane="399835085#1_1" arrivalPos="212.23" arrivalSpeed="7.18" duration="150.00" routeLength="1093.26" waitingTime="29.00" waitingCount="3" stopTime="0.00" timeLoss="71.41" rerouteNo="1" devices="tripinfo_carIn82278:1 routing_carIn82278:1 emissions_carIn82278:1" vType="default_016" speedFactor="0.99" vaporized="">
        <emissions CO_abs="8926.889228" CO2_abs="371746.153845" HC_abs="49.411163" PMx_abs="7.380825" NOx_abs="156.921090" fuel_abs="159.799300" electricity_abs="0"/>
    </tripinfo>
    <tripinfo id="h9953c2:3" depart="57682.00" departLane="-54169231#2_1" departPos="5.10" departSpeed="0.00" departDelay="0.00" arrival="57854.00" arrivalLane="386687235_1" arrivalPos="80.84" arrivalSpeed="13.34" duration="172.00" routeLength="1535.60" waitingTime="19.00" waitingCount="2" stopTime="0.00" timeLoss="46.21" rerouteNo="1" devices="tripinfo_h9953c2:3 routing_h9953c2:3 emissions_h9953c2:3" vType="default_016" speedFactor="1.00" vaporized="">
        <emissions CO_abs="8172.829556" CO2_abs="421075.308215" HC_abs="47.050084" PMx_abs="7.416912" NOx_abs="171.982472" fuel_abs="181.003751" electricity_abs="0"/>
    </tripinfo>
    <tripinfo id="randUni15030:1" depart="57735.00" departLane="386687232#0_1" departPos="5.10" departSpeed="0.00" departDelay="0.10" arrival="57857.00" arrivalLane="26677539_1" arrivalPos="151.98" arrivalSpeed="9.04" duration="122.00" routeLength="919.89" waitingTime="37.00" waitingCount="1" stopTime="0.00" timeLoss="50.30" rerouteNo="1" devices="tripinfo_randUni15030:1 routing_randUni15030:1 emissions_randUni15030:1" vType="random_016" speedFactor="1.16" vaporized="">
        <emissions CO_abs="8661.247499" CO2_abs="309020.307004" HC_abs="46.612458" PMx_abs="6.023585" NOx_abs="129.737164" fuel_abs="132.837105" electricity_abs="0"/>
    </tripinfo>