<?xml version="1.0" encoding="UTF-8"?>

<!-- generated on 2021-10-26 17:55:29 by Eclipse SUMO sumo Version 1.10.0
<configuration xmlns:xsi="http://www.w3.org/2001/XMLSchema-instance" xsi:noNamespaceSchemaLocation="http://sumo.dlr.de/xsd/sumoConfiguration.xsd">

    <input>
        <net-file value="/Users/behradkoohy/sumo-scratchpad/RESCO/environments/ingolstadt21/ingolstadt21.net.xml"/>
        <route-files value="/Users/behradkoohy/sumo-scratchpad/RESCO/environments/ingolstadt21/ingolstadt21.rou.xml"/>
    </input>

    <output>
        <tripinfo-output value="/Users/behradkoohy/sumo-scratchpad/RESCO/logs/IPPO-tr0-ingolstadt21-21-drq_norm-wait_norm/tripinfo_30.xml"/>
        <tripinfo-output.write-unfinished value="true"/>
    </output>

    <time>
        <begin value="57600"/>
        <end value="61200"/>
    </time>

    <processing>
        <time-to-teleport value="-1"/>
    </processing>

    <report>
        <no-warnings value="true"/>
        <no-step-log value="true"/>
    </report>

    <emissions>
        <device.emissions.probability value="1"/>
    </emissions>

    <traci_server>
        <remote-port value="61813"/>
    </traci_server>

    <random_number>
        <random value="true"/>
    </random_number>

</configuration>
-->

<tripinfos xmlns:xsi="http://www.w3.org/2001/XMLSchema-instance" xsi:noNamespaceSchemaLocation="http://sumo.dlr.de/xsd/tripinfo_file.xsd">
    <tripinfo id="h15454c2:3" depart="57612.00" departLane="24608844_1" departPos="5.10" departSpeed="0.00" departDelay="0.50" arrival="57655.00" arrivalLane="32978638#0_1" arrivalPos="49.29" arrivalSpeed="12.28" duration="43.00" routeLength="354.79" waitingTime="0.00" waitingCount="0" stopTime="0.00" timeLoss="6.29" rerouteNo="1" devices="tripinfo_h15454c2:3 routing_h15454c2:3 emissions_h15454c2:3" vType="default_016" speedFactor="0.95" vaporized="">
        <emissions CO_abs="1814.973485" CO2_abs="89475.495802" HC_abs="10.335192" PMx_abs="1.505601" NOx_abs="36.460307" fuel_abs="38.462141" electricity_abs="0"/>
    </tripinfo>
    <tripinfo id="carIn53971:1" depart="57640.00" departLane="272042143_1" departPos="5.10" departSpeed="0.00" departDelay="0.80" arrival="57692.00" arrivalLane="24634414#1_1" arrivalPos="162.19" arrivalSpeed="7.75" duration="52.00" routeLength="493.04" waitingTime="0.00" waitingCount="0" stopTime="0.00" timeLoss="10.10" rerouteNo="1" devices="tripinfo_carIn53971:1 routing_carIn53971:1 emissions_carIn53971:1" vType="default_016" speedFactor="1.09" vaporized="">
        <emissions CO_abs="2547.046618" CO2_abs="141642.020244" HC_abs="14.923957" PMx_abs="2.564039" NOx_abs="58.675294" fuel_abs="60.886029" electricity_abs="0"/>
    </tripinfo>
    <tripinfo id="carIn22761:1" depart="57616.00" departLane="-306240162#1_0" departPos="5.10" departSpeed="0.00" departDelay="2.10" arrival="57717.00" arrivalLane="399835085#1_1" arrivalPos="212.23" arrivalSpeed="8.13" duration="101.00" routeLength="1093.26" waitingTime="0.00" waitingCount="0" stopTime="0.00" timeLoss="20.85" rerouteNo="1" devices="tripinfo_carIn22761:1 routing_carIn22761:1 emissions_carIn22761:1" vType="default_016" speedFactor="0.98" vaporized="">
        <emissions CO_abs="5003.559802" CO2_abs="301823.875113" HC_abs="29.943042" PMx_abs="5.646927" NOx_abs="124.645644" fuel_abs="129.741085" electricity_abs="0"/>
    </tripinfo>
    <tripinfo id="h7800c1:5" depart="57696.00" departLane="-447569998#1_1" departPos="5.10" departSpeed="0.00" departDelay="0.00" arrival="57724.00" arrivalLane="-447569998#1_1" arrivalPos="180.76" arrivalSpeed="6.93" duration="28.00" routeLength="175.66" waitingTime="0.00" waitingCount="0" stopTime="0.00" timeLoss="3.30" rerouteNo="1" devices="tripinfo_h7800c1:5 routing_h7800c1:5 emissions_h7800c1:5" vType="default_016" speedFactor="0.86" vaporized="">
        <emissions CO_abs="1497.303873" CO2_abs="57449.763353" HC_abs="8.121968" PMx_abs="0.903500" NOx_abs="23.213621" fuel_abs="24.695845" electricity_abs="0"/>
    </tripinfo>
    <tripinfo id="h12244c1:3" depart="57612.00" departLane="315358244_1" departPos="5.10" departSpeed="0.00" departDelay="0.40" arrival="57727.00" arrivalLane="386687235_1" arrivalPos="80.84" arrivalSpeed="14.19" duration="115.00" routeLength="1186.14" waitingTime="13.00" waitingCount="2" stopTime="0.00" timeLoss="36.40" rerouteNo="1" devices="tripinfo_h12244c1:3 routing_h12244c1:3 emissions_h12244c1:3" vType="default_016" speedFactor="1.11" vaporized="">
        <emissions CO_abs="4250.147960" CO2_abs="292822.574718" HC_abs="26.062475" PMx_abs="4.999379" NOx_abs="117.126291" fuel_abs="125.872069" electricity_abs="0"/>
    </tripinfo>
    <tripinfo id="h317c2:1" depart="57707.00" departLane="-32978638#0_1" departPos="5.10" departSpeed="0.00" departDelay="0.10" arrival="57749.00" arrivalLane="-266565295#5_1" arrivalPos="172.76" arrivalSpeed="9.88" duration="42.00" routeLength="370.53" waitingTime="0.00" waitingCount="0" stopTime="0.00" timeLoss="8.22" rerouteNo="1" devices="tripinfo_h317c2:1 routing_h317c2:1 emissions_h317c2:1" vType="default_016" speedFactor="0.80" vaporized="">
        <emissions CO_abs="1980.204386" CO2_abs="110451.186793" HC_abs="11.572425" PMx_abs="1.801414" NOx_abs="44.474184" fuel_abs="47.478681" electricity_abs="0"/>
    </tripinfo>
    <tripinfo id="h4538c1:1" depart="57701.00" departLane="-10427692#1_1" departPos="5.10" departSpeed="0.00" departDelay="0.00" arrival="57752.00" arrivalLane="-128361102#1_1" arrivalPos="274.68" arrivalSpeed="10.00" duration="51.00" routeLength="440.74" waitingTime="0.00" waitingCount="0" stopTime="0.00" timeLoss="7.47" rerouteNo="1" devices="tripinfo_h4538c1:1 routing_h4538c1:1 emissions_h4538c1:1" vType="default_016" speedFactor="0.73" vaporized="">
        <emissions CO_abs="1969.331018" CO2_abs="112757.890046" HC_abs="11.548806" PMx_abs="1.695361" NOx_abs="44.564440" fuel_abs="48.470409" electricity_abs="0"/>
    </tripinfo>
    <tripinfo id="h3326c1:2" depart="57656.00" departLane="22716069#0_1" departPos="5.10" departSpeed="0.00" departDelay="0.00" arrival="57755.00" arrivalLane="24634517#13_1" arrivalPos="111.62" arrivalSpeed="16.07" duration="99.00" routeLength="1312.81" waitingTime="0.00" waitingCount="0" stopTime="0.00" timeLoss="15.99" rerouteNo="1" devices="tripinfo_h3326c1:2 routing_h3326c1:2 emissions_h3326c1:2" vType="default_016" speedFactor="1.18" vaporized="">
        <emissions CO_abs="4241.220549" CO2_abs="333059.878088" HC_abs="27.151579" PMx_abs="6.020906" NOx_abs="135.091691" fuel_abs="143.167423" electricity_abs="0"/>
    </tripinfo>
    <tripinfo id="h3154c1:1" depart="57658.00" departLane="24634507_1" departPos="5.10" departSpeed="0.00" departDelay="0.00" arrival="57760.00" arrivalLane="-266565295#5_1" arrivalPos="172.76" arrivalSpeed="13.73" duration="102.00" routeLength="1206.22" waitingTime="0.00" waitingCount="0" stopTime="0.00" timeLoss="13.03" rerouteNo="1" devices="tripinfo_h3154c1:1 routing_h3154c1:1 emissions_h3154c1:1" vType="default_016" speedFactor="1.01" vaporized="">
        <emissions CO_abs="3637.123233" CO2_abs="276336.073287" HC_abs="22.983060" PMx_abs="4.575892" NOx_abs="110.106363" fuel_abs="118.785085" electricity_abs="0"/>
    </tripinfo>
    <tripinfo id="h3568c1:3" depart="57656.00" departLane="266565295#5_1" departPos="5.10" departSpeed="0.00" departDelay="0.80" arrival="57765.00" arrivalLane="-24634415_1" arrivalPos="62.03" arrivalSpeed="10.22" duration="109.00" routeLength="807.40" waitingTime="7.00" waitingCount="1" stopTime="0.00" timeLoss="27.02" rerouteNo="1" devices="tripinfo_h3568c1:3 routing_h3568c1:3 emissions_h3568c1:3" vType="default_016" speedFactor="0.79" vaporized="">
        <emissions CO_abs="4810.891265" CO2_abs="234324.826242" HC_abs="27.352920" PMx_abs="4.076874" NOx_abs="96.380882" fuel_abs="100.727246" electricity_abs="0"/>
    </tripinfo>
    <tripinfo id="h9563c2:5" depart="57631.00" departLane="315358244_1" departPos="5.10" departSpeed="0.00" departDelay="0.70" arrival="57767.00" arrivalLane="386687235_1" arrivalPos="80.84" arrivalSpeed="14.86" duration="136.00" routeLength="1186.14" waitingTime="35.00" waitingCount="3" stopTime="0.00" timeLoss="57.13" rerouteNo="1" devices="tripinfo_h9563c2:5 routing_h9563c2:5 emissions_h9563c2:5" vType="default_016" speedFactor="1.09" vaporized="">
        <emissions CO_abs="8484.637110" CO2_abs="337049.087867" HC_abs="46.476967" PMx_abs="6.324147" NOx_abs="138.955332" fuel_abs="144.885361" electricity_abs="0"/>
    </tripinfo>
    <tripinfo id="h5979c1:5" depart="57669.00" departLane="399835085#1_1" departPos="5.10" departSpeed="0.00" departDelay="0.00" arrival="57767.00" arrivalLane="-315358254#1_1" arrivalPos="137.16" arrivalSpeed="14.26" duration="98.00" routeLength="659.33" waitingTime="17.00" waitingCount="1" stopTime="0.00" timeLoss="28.92" rerouteNo="1" devices="tripinfo_h5979c1:5 routing_h5979c1:5 emissions_h5979c1:5" vType="default_016" speedFactor="1.06" vaporized="">
        <emissions CO_abs="5520.311847" CO2_abs="214892.705473" HC_abs="30.104428" PMx_abs="3.759938" NOx_abs="88.348769" fuel_abs="92.375058" electricity_abs="0"/>
    </tripinfo>
    <tripinfo id="h330c1:1" depart="57736.00" departLane="-32978638#0_1" departPos="5.10" departSpeed="0.00" departDelay="0.20" arrival="57769.00" arrivalLane="-266565295#5_1" arrivalPos="172.76" arrivalSpeed="14.72" duration="33.00" routeLength="370.53" waitingTime="0.00" waitingCount="0" stopTime="0.00" timeLoss="6.70" rerouteNo="1" devices="tripinfo_h330c1:1 routing_h330c1:1 emissions_h330c1:1" vType="default_016" speedFactor="1.06" vaporized="">
        <emissions CO_abs="1685.201859" CO2_abs="111146.961150" HC_abs="10.298966" PMx_abs="2.002515" NOx_abs="45.469464" fuel_abs="47.777268" electricity_abs="0"/>
    </tripinfo>
    <tripinfo id="S5R_frequency1.2" depart="57612.00" departLane="315358250#0_1" departPos="12.10" departSpeed="0.00" departDelay="0.40" arrival="57774.00" arrivalLane="386687235_1" arrivalPos="80.84" arrivalSpeed="13.44" duration="162.00" routeLength="1115.62" waitingTime="46.00" waitingCount="4" stopTime="0.00" timeLoss="80.45" rerouteNo="1" devices="tripinfo_S5R_frequency1.2 routing_S5R_frequency1.2 emissions_S5R_frequency1.2" vType="bus" speedFactor="1.00" vaporized="">
        <emissions CO_abs="3159.537240" CO2_abs="1687567.195458" HC_abs="678.953569" PMx_abs="331.800508" NOx_abs="13891.938996" fuel_abs="719.625853" electricity_abs="0"/>
    </tripinfo>
    <tripinfo id="carIn60260:1" depart="57606.00" departLane="315358254#0_1" departPos="5.10" departSpeed="0.00" departDelay="0.90" arrival="57782.00" arrivalLane="399835085#1_1" arrivalPos="212.23" arrivalSpeed="7.88" duration="176.00" routeLength="430.98" waitingTime="119.00" waitingCount="1" stopTime="0.00" timeLoss="131.52" rerouteNo="1" devices="tripinfo_carIn60260:1 routing_carIn60260:1 emissions_carIn60260:1" vType="default_016" speedFactor="1.04" vaporized="">
        <emissions CO_abs="21405.005715" CO2_abs="427415.414192" HC_abs="107.460350" PMx_abs="9.682133" NOx_abs="189.575840" fuel_abs="183.736930" electricity_abs="0"/>
    </tripinfo>
    <tripinfo id="h3688c1:1" depart="57625.00" departLane="201201950#1_1" departPos="5.10" departSpeed="0.00" departDelay="0.00" arrival="57782.00" arrivalLane="32978638#0_1" arrivalPos="49.29" arrivalSpeed="13.37" duration="157.00" routeLength="1089.75" waitingTime="57.00" waitingCount="1" stopTime="0.00" timeLoss="75.08" rerouteNo="1" devices="tripinfo_h3688c1:1 routing_h3688c1:1 emissions_h3688c1:1" vType="default_016" speedFactor="0.98" vaporized="">
        <emissions CO_abs="12075.103873" CO2_abs="395163.795462" HC_abs="64.212347" PMx_abs="7.600131" NOx_abs="165.212018" fuel_abs="169.868235" electricity_abs="0"/>
    </tripinfo>
    <tripinfo id="carIn30817:1" depart="57681.00" departLane="315358244_1" departPos="5.10" departSpeed="0.00" departDelay="0.20" arrival="57790.00" arrivalLane="447569997#1_1" arrivalPos="180.93" arrivalSpeed="8.74" duration="109.00" routeLength="718.04" waitingTime="42.00" waitingCount="1" stopTime="0.00" timeLoss="55.51" rerouteNo="1" devices="tripinfo_carIn30817:1 routing_carIn30817:1 emissions_carIn30817:1" vType="default_016" speedFactor="1.15" vaporized="">
        <emissions CO_abs="9004.273760" CO2_abs="277724.810349" HC_abs="47.391964" PMx_abs="5.497644" NOx_abs="116.920055" fuel_abs="119.385188" electricity_abs="0"/>
    </tripinfo>
    <tripinfo id="carIn107282:1" depart="57749.00" departLane="-447569998#1_1" departPos="5.10" departSpeed="0.00" departDelay="0.00" arrival="57794.00" arrivalLane="315358242#0_1" arrivalPos="165.37" arrivalSpeed="14.15" duration="45.00" routeLength="448.50" waitingTime="0.00" waitingCount="0" stopTime="0.00" timeLoss="4.63" rerouteNo="1" devices="tripinfo_carIn107282:1 routing_carIn107282:1 emissions_carIn107282:1" vType="default_016" speedFactor="1.05" vaporized="">
        <emissions CO_abs="1897.540427" CO2_abs="119429.085458" HC_abs="11.417630" PMx_abs="1.970281" NOx_abs="47.916385" fuel_abs="51.337721" electricity_abs="0"/>
    </tripinfo>
    <tripinfo id="carIn12365:1" depart="57713.00" departLane="315358244_1" departPos="5.10" departSpeed="0.00" departDelay="0.50" arrival="57797.00" arrivalLane="447569997#1_1" arrivalPos="180.93" arrivalSpeed="7.90" duration="84.00" routeLength="718.04" waitingTime="3.00" waitingCount="1" stopTime="0.00" timeLoss="19.30" rerouteNo="1" devices="tripinfo_carIn12365:1 routing_carIn12365:1 emissions_carIn12365:1" vType="default_016" speedFactor="0.95" vaporized="">
        <emissions CO_abs="3516.905823" CO2_abs="197718.619978" HC_abs="20.615692" PMx_abs="3.339866" NOx_abs="80.113870" fuel_abs="84.991391" electricity_abs="0"/>
    </tripinfo>
    <tripinfo id="carIn27009:1" depart="57673.00" departLane="-447569998#1_1" departPos="5.10" departSpeed="0.00" departDelay="0.50" arrival="57800.00" arrivalLane="-26677539_1" arrivalPos="152.75" arrivalSpeed="6.31" duration="127.00" routeLength="699.63" waitingTime="6.00" waitingCount="1" stopTime="0.00" timeLoss="23.71" rerouteNo="1" devices="tripinfo_carIn27009:1 routing_carIn27009:1 emissions_carIn27009:1" vType="default_015" speedFactor="0.82" vaporized="">
        <emissions CO_abs="5611.116483" CO2_abs="202847.239898" HC_abs="30.183923" PMx_abs="3.397942" NOx_abs="83.352788" fuel_abs="87.197599" electricity_abs="0"/>
    </tripinfo>
    <tripinfo id="carIn129809:1" depart="57729.00" departLane="-447569998#1_1" departPos="5.10" departSpeed="0.00" departDelay="1.00" arrival="57802.00" arrivalLane="-315358244_1" arrivalPos="33.95" arrivalSpeed="12.27" duration="73.00" routeLength="706.49" waitingTime="0.00" waitingCount="0" stopTime="0.00" timeLoss="7.20" rerouteNo="1" devices="tripinfo_carIn129809:1 routing_carIn129809:1 emissions_carIn129809:1" vType="default_015" speedFactor="0.92" vaporized="">
        <emissions CO_abs="2464.804772" CO2_abs="150081.086877" HC_abs="14.702925" PMx_abs="2.428227" NOx_abs="60.054220" fuel_abs="64.513901" electricity_abs="0"/>
    </tripinfo>
    <tripinfo id="h645c1:1" depart="57622.00" departLane="266565295#5_1" departPos="5.10" departSpeed="0.00" departDelay="0.40" arrival="57806.00" arrivalLane="-315358244_1" arrivalPos="33.95" arrivalSpeed="13.78" duration="184.00" routeLength="1910.83" waitingTime="24.00" waitingCount="2" stopTime="0.00" timeLoss="46.97" rerouteNo="1" devices="tripinfo_h645c1:1 routing_h645c1:1 emissions_h645c1:1" vType="default_016" speedFactor="1.01" vaporized="">
        <emissions CO_abs="7757.755595" CO2_abs="437415.770703" HC_abs="45.516201" PMx_abs="7.437525" NOx_abs="175.171529" fuel_abs="188.027835" electricity_abs="0"/>
    </tripinfo>
    <tripinfo id="h11737c1:1" depart="57665.00" departLane="272042143_1" departPos="5.10" departSpeed="0.00" departDelay="1.50" arrival="57807.00" arrivalLane="-315358254#1_1" arrivalPos="137.16" arrivalSpeed="13.29" duration="142.00" routeLength="1596.88" waitingTime="2.00" waitingCount="1" stopTime="0.00" timeLoss="23.18" rerouteNo="1" devices="tripinfo_h11737c1:1 routing_h11737c1:1 emissions_h11737c1:1" vType="default_016" speedFactor="0.98" vaporized="">
        <emissions CO_abs="4796.428865" CO2_abs="362761.104003" HC_abs="30.317880" PMx_abs="5.925528" NOx_abs="144.001346" fuel_abs="155.935675" electricity_abs="0"/>
    </tripinfo>
    <tripinfo id="carIn126288:1" depart="57674.00" departLane="272042143_1" departPos="5.10" departSpeed="0.00" departDelay="0.00" arrival="57809.00" arrivalLane="-315358254#1_1" arrivalPos="137.16" arrivalSpeed="13.45" duration="135.00" routeLength="1596.88" waitingTime="0.00" waitingCount="0" stopTime="0.00" timeLoss="16.89" rerouteNo="1" devices="tripinfo_carIn126288:1 routing_carIn126288:1 emissions_carIn126288:1" vType="default_016" speedFactor="0.99" vaporized="">
        <emissions CO_abs="4343.005686" CO2_abs="338007.086806" HC_abs="27.637683" PMx_abs="5.468780" NOx_abs="133.729651" fuel_abs="145.294945" electricity_abs="0"/>
    </tripinfo>
    <tripinfo id="carIn121703:1" depart="57647.00" departLane="386687232#0_1" departPos="5.10" departSpeed="0.00" departDelay="0.30" arrival="57811.00" arrivalLane="-315358244_1" arrivalPos="33.95" arrivalSpeed="12.25" duration="164.00" routeLength="1157.39" waitingTime="51.00" waitingCount="2" stopTime="0.00" timeLoss="70.33" rerouteNo="1" devices="tripinfo_carIn121703:1 routing_carIn121703:1 emissions_carIn121703:1" vType="default_016" speedFactor="0.90" vaporized="">
        <emissions CO_abs="10483.541874" CO2_abs="366613.408816" HC_abs="56.258428" PMx_abs="6.718049" NOx_abs="151.319820" fuel_abs="157.595214" electricity_abs="0"/>
    </tripinfo>
    <tripinfo id="randUni15030:1" depart="57735.00" departLane="386687232#0_1" departPos="5.10" departSpeed="0.00" departDelay="0.10" arrival="57814.00" arrivalLane="26677539_1" arrivalPos="151.98" arrivalSpeed="9.80" duration="79.00" routeLength="919.89" waitingTime="0.00" waitingCount="0" stopTime="0.00" timeLoss="12.70" rerouteNo="1" devices="tripinfo_randUni15030:1 routing_randUni15030:1 emissions_randUni15030:1" vType="random_016" speedFactor="1.27" vaporized="">
        <emissions CO_abs="3362.398822" CO2_abs="230346.974001" HC_abs="20.709924" PMx_abs="3.998655" NOx_abs="92.860074" fuel_abs="99.016351" electricity_abs="0"/>
    </tripinfo>
    <tripinfo id="carIn80064:1" depart="57603.00" departLane="128361109#1_1" departPos="5.10" departSpeed="0.00" departDelay="0.40" arrival="57819.00" arrivalLane="-315358254#1_1" arrivalPos="137.16" arrivalSpeed="15.04" duration="216.00" routeLength="1587.97" waitingTime="71.00" waitingCount="6" stopTime="0.00" timeLoss="133.68" rerouteNo="1" devices="tripinfo_carIn80064:1 routing_carIn80064:1 emissions_carIn80064:1" vType="default_016" speedFactor="1.09" vaporized="">
        <emissions CO_abs="16529.303283" CO2_abs="660246.070038" HC_abs="90.964742" PMx_abs="13.822614" NOx_abs="280.996867" fuel_abs="283.813986" electricity_abs="0"/>
    </tripinfo>
    <tripinfo id="h16072c2:3" depart="57663.00" departLane="315358254#0_1" departPos="5.10" departSpeed="0.00" departDelay="2.50" arrival="57823.00" arrivalLane="386687235_1" arrivalPos="80.84" arrivalSpeed="13.92" duration="160.00" routeLength="1611.92" waitingTime="31.00" waitingCount="2" stopTime="0.00" timeLoss="52.93" rerouteNo="1" devices="tripinfo_h16072c2:3 routing_h16072c2:3 emissions_h16072c2:3" vType="default_016" speedFactor="1.09" vaporized="">
        <emissions CO_abs="7765.270441" CO2_abs="386690.439448" HC_abs="44.200974" PMx_abs="7.014243" NOx_abs="157.527796" fuel_abs="166.223090" electricity_abs="0"/>
    </tripinfo>
    <tripinfo id="carIn107084:1" depart="57601.00" departLane="124812856#0_1" departPos="5.10" departSpeed="0.00" departDelay="0.70" arrival="57829.00" arrivalLane="-128361102#1_1" arrivalPos="274.68" arrivalSpeed="13.72" duration="228.00" routeLength="2250.49" waitingTime="46.00" waitingCount="2" stopTime="0.00" timeLoss="71.86" rerouteNo="1" devices="tripinfo_carIn107084:1 routing_carIn107084:1 emissions_carIn107084:1" vType="default_016" speedFactor="1.06" vaporized="">
        <emissions CO_abs="10951.981021" CO2_abs="557506.370359" HC_abs="62.837209" PMx_abs="9.731458" NOx_abs="224.513220" fuel_abs="239.650618" electricity_abs="0"/>
    </tripinfo>
    <tripinfo id="randUni31145:1" depart="57814.00" departLane="10425609#0_1" departPos="5.10" departSpeed="0.00" departDelay="0.30" arrival="57838.00" arrivalLane="201956810_1" arrivalPos="71.65" arrivalSpeed="16.25" duration="24.00" routeLength="255.78" waitingTime="0.00" waitingCount="0" stopTime="0.00" timeLoss="6.48" rerouteNo="1" devices="tripinfo_randUni31145:1 routing_randUni31145:1 emissions_randUni31145:1" vType="random_016" speedFactor="1.19" vaporized="">
        <emissions CO_abs="1752.992483" CO2_abs="113975.421036" HC_abs="10.673154" PMx_abs="2.115981" NOx_abs="47.031230" fuel_abs="48.993024" electricity_abs="0"/>
    </tripinfo>
    <tripinfo id="carIn86816:1" depart="57617.00" departLane="128361102#0_1" departPos="5.10" departSpeed="0.00" departDelay="0.80" arrival="57842.00" arrivalLane="201956811#0_1" arrivalPos="40.40" arrivalSpeed="12.77" duration="225.00" routeLength="2067.33" waitingTime="43.00" waitingCount="2" stopTime="0.00" timeLoss="70.32" rerouteNo="1" devices="tripinfo_carIn86816:1 routing_carIn86816:1 emissions_carIn86816:1" vType="default_016" speedFactor="0.98" vaporized="">
        <emissions CO_abs="11431.527137" CO2_abs="530533.682216" HC_abs="64.433888" PMx_abs="9.383263" NOx_abs="215.793624" fuel_abs="228.056642" electricity_abs="0"/>
    </tripinfo>
    <tripinfo id="carIn73855:1" depart="57743.00" departLane="386687232#0_1" departPos="5.10" departSpeed="0.00" departDelay="0.50" arrival="57842.00" arrivalLane="-315358244_1" arrivalPos="33.95" arrivalSpeed="15.72" duration="99.00" routeLength="1157.39" waitingTime="17.00" waitingCount="1" stopTime="0.00" timeLoss="29.80" rerouteNo="1" devices="tripinfo_carIn73855:1 routing_carIn73855:1 emissions_carIn73855:1" vType="default_016" speedFactor="1.22" vaporized="">
        <emissions CO_abs="4762.467447" CO2_abs="278466.797978" HC_abs="27.987144" PMx_abs="4.913611" NOx_abs="110.872729" fuel_abs="119.701639" electricity_abs="0"/>
    </tripinfo>
    <tripinfo id="carIn77943:1" depart="57608.00" departLane="124812856#0_1" departPos="5.10" departSpeed="0.00" departDelay="2.50" arrival="57843.00" arrivalLane="-128361102#1_1" arrivalPos="274.68" arrivalSpeed="13.36" duration="235.00" routeLength="2250.49" waitingTime="40.00" waitingCount="2" stopTime="0.00" timeLoss="67.02" rerouteNo="1" devices="tripinfo_carIn77943:1 routing_carIn77943:1 emissions_carIn77943:1" vType="default_016" speedFactor="0.98" vaporized="">
        <emissions CO_abs="10920.712401" CO2_abs="559179.171159" HC_abs="62.726566" PMx_abs="9.508641" NOx_abs="224.372100" fuel_abs="240.369946" electricity_abs="0"/>
    </tripinfo>
    <tripinfo id="carIn102915:1" depart="57643.00" departLane="128361102#0_1" departPos="5.10" departSpeed="0.00" departDelay="0.40" arrival="57844.00" arrivalLane="201956811#0_1" arrivalPos="40.40" arrivalSpeed="14.13" duration="201.00" routeLength="2067.33" waitingTime="24.00" waitingCount="2" stopTime="0.00" timeLoss="58.27" rerouteNo="1" devices="tripinfo_carIn102915:1 routing_carIn102915:1 emissions_carIn102915:1" vType="default_016" speedFactor="1.06" vaporized="">
        <emissions CO_abs="8590.035184" CO2_abs="504145.226690" HC_abs="50.908178" PMx_abs="8.895361" NOx_abs="204.182568" fuel_abs="216.711385" electricity_abs="0"/>
    </tripinfo>
    <tripinfo id="h17549c1:1" depart="57680.00" departLane="-447569998#1_1" departPos="5.10" departSpeed="0.00" departDelay="0.00" arrival="57847.00" arrivalLane="-315358254#1_1" arrivalPos="137.16" arrivalSpeed="12.95" duration="167.00" routeLength="1746.60" waitingTime="8.00" waitingCount="2" stopTime="0.00" timeLoss="30.61" rerouteNo="1" devices="tripinfo_h17549c1:1 routing_h17549c1:1 emissions_h17549c1:1" vType="default_016" speedFactor="1.00" vaporized="">
        <emissions CO_abs="5678.600318" CO2_abs="404019.711026" HC_abs="35.231472" PMx_abs="6.478235" NOx_abs="159.720293" fuel_abs="173.671461" electricity_abs="0"/>
    </tripinfo>
    <tripinfo id="randUni2407:1" depart="57820.00" departLane="10425609#0_1" departPos="5.10" departSpeed="0.00" departDelay="0.80" arrival="57848.00" arrivalLane="201956810_1" arrivalPos="71.65" arrivalSpeed="11.30" duration="28.00" routeLength="255.78" waitingTime="0.00" waitingCount="0" stopTime="0.00" timeLoss="4.90" rerouteNo="1" devices="tripinfo_randUni2407:1 routing_randUni2407:1 emissions_randUni2407:1" vType="random_016" speedFactor="0.85" vaporized="">
        <emissions CO_abs="1545.105982" CO2_abs="88355.203739" HC_abs="9.101659" PMx_abs="1.551218" NOx_abs="36.338565" fuel_abs="37.980268" electricity_abs="0"/>
    </tripinfo>
    <tripinfo id="h5938c1:1" depart="57740.00" departLane="-26677542#0_1" departPos="5.10" departSpeed="0.00" departDelay="0.00" arrival="57849.00" arrivalLane="447569997#1_1" arrivalPos="180.93" arrivalSpeed="7.55" duration="109.00" routeLength="1093.64" waitingTime="0.00" waitingCount="0" stopTime="0.00" timeLoss="11.89" rerouteNo="1" devices="tripinfo_h5938c1:1 routing_h5938c1:1 emissions_h5938c1:1" vType="default_016" speedFactor="1.00" vaporized="">
        <emissions CO_abs="3819.392556" CO2_abs="248065.024625" HC_abs="23.088259" PMx_abs="3.883113" NOx_abs="98.021313" fuel_abs="106.633320" electricity_abs="0"/>
    </tripinfo>
    <tripinfo id="50R_frequency3.17" depart="57674.00" departLane="-18809673#6_1" departPos="12.10" departSpeed="0.00" departDelay="0.70" arrival="57850.00" arrivalLane="201956811#0_1" arrivalPos="40.40" arrivalSpeed="11.15" duration="176.00" routeLength="1954.47" waitingTime="5.00" waitingCount="1" stopTime="0.00" timeLoss="31.19" rerouteNo="1" devices="tripinfo_50R_frequency3.17 routing_50R_frequency3.17 emissions_50R_frequency3.17" vType="bus" speedFactor="1.00" vaporized="">
        <emissions CO_abs="3362.508608" CO2_abs="2097341.617486" HC_abs="713.840786" PMx_abs="360.527419" NOx_abs="16294.209105" fuel_abs="894.494283" electricity_abs="0"/>
    </tripinfo>
    <tripinfo id="h17600c1:1" depart="57662.00" departLane="272042143_1" departPos="5.10" departSpeed="0.00" departDelay="0.30" arrival="57852.00" arrivalLane="201238729#3_1" arrivalPos="431.02" arrivalSpeed="13.30" duration="190.00" routeLength="2100.26" waitingTime="13.00" waitingCount="2" stopTime="0.00" timeLoss="35.33" rerouteNo="1" devices="tripinfo_h17600c1:1 routing_h17600c1:1 emissions_h17600c1:1" vType="default_016" speedFactor="0.98" vaporized="">
        <emissions CO_abs="5351.591657" CO2_abs="437163.646807" HC_abs="34.509906" PMx_abs="6.727324" NOx_abs="170.132412" fuel_abs="187.918522" electricity_abs="0"/>
    </tripinfo>
    <tripinfo id="h3864c1:3" depart="57678.00" departLane="24693977#1_1" departPos="5.10" departSpeed="0.00" departDelay="0.00" arrival="57857.00" arrivalLane="201956820_2" arrivalPos="48.33" arrivalSpeed="13.04" duration="179.00" routeLength="1574.85" waitingTime="22.00" waitingCount="1" stopTime="0.00" timeLoss="47.37" rerouteNo="1" devices="tripinfo_h3864c1:3 routing_h3864c1:3 emissions_h3864c1:3" vType="default_016" speedFactor="0.98" vaporized="">
        <emissions CO_abs="8996.666328" CO2_abs="441804.097750" HC_abs="51.277606" PMx_abs="7.787307" NOx_abs="180.626041" fuel_abs="189.914583" electricity_abs="0"/>
    </tripinfo>
    <tripinfo id="carIn118591:1" depart="57689.00" departLane="315358244_1" departPos="5.10" departSpeed="0.00" departDelay="0.20" arrival="57857.00" arrivalLane="386687235_1" arrivalPos="80.84" arrivalSpeed="12.49" duration="168.00" routeLength="1186.14" waitingTime="61.00" waitingCount="2" stopTime="0.00" timeLoss="80.59" rerouteNo="1" devices="tripinfo_carIn118591:1 routing_carIn118591:1 emissions_carIn118591:1" vType="default_016" speedFactor="0.99" vaporized="">
        <emissions CO_abs="12360.222602" CO2_abs="416562.372546" HC_abs="66.009594" PMx_abs="8.016227" NOx_abs="174.028849" fuel_abs="179.066488" electricity_abs="0"/>
    </tripinfo>
    <tripinfo id="carIn12858:1" depart="57661.00" departLane="128361109#1_1" departPos="5.10" departSpeed="0.00" departDelay="0.90" arrival="57858.00" arrivalLane="399835085#1_1" arrivalPos="212.23" arrivalSpeed="7.08" duration="197.00" routeLength="1738.12" waitingTime="39.00" waitingCount="2" stopTime="0.00" timeLoss="67.95" rerouteNo="1" devices="tripinfo_carIn12858:1 routing_carIn12858:1 emissions_carIn12858:1" vType="default_016" speedFactor="0.89" vaporized="">
        <emissions CO_abs="12960.279875" CO2_abs="563040.012232" HC_abs="72.171973" PMx_abs="10.817287" NOx_abs="233.780987" fuel_abs="242.029353" electricity_abs="0"/>
    </tripinfo>
    <tripinfo id="carIn88905:1" depart="57688.00" departLane="128361109#1_1" departPos="5.10" departSpeed="0.00" departDelay="5.80" arrival="57864.00" arrivalLane="386687235_2" arrivalPos="80.84" arrivalSpeed="13.96" duration="176.00" routeLength="2088.57" waitingTime="12.00" waitingCount="1" stopTime="0.00" timeLoss="35.61" rerouteNo="1" devices="tripinfo_carIn88905:1 routing_carIn88905:1 emissions_carIn88905:1" vType="default_016" speedFactor="1.08" vaporized="">
        <emissions CO_abs="5584.161885" CO2_abs="428788.286931" HC_abs="35.275112" PMx_abs="6.973846" NOx_abs="168.500090" fuel_abs="184.318066" electricity_abs="0"/>
    </tripinfo>
    <tripinfo id="h9953c2:3" depart="57682.00" departLane="-54169231#2_1" departPos="5.10" departSpeed="0.00" departDelay="0.00" arrival="57865.00" arrivalLane="386687235_1" arrivalPos="80.84" arrivalSpeed="12.33" duration="183.00" routeLength="1535.60" waitingTime="16.00" waitingCount="1" stopTime="0.00" timeLoss="41.11" rerouteNo="1" devices="tripinfo_h9953c2:3 routing_h9953c2:3 emissions_h9953c2:3" vType="default_016" speedFactor="0.89" vaporized="">
        <emissions CO_abs="8062.492571" CO2_abs="405885.362281" HC_abs="46.145875" PMx_abs="6.937279" NOx_abs="165.158309" fuel_abs="174.474595" electricity_abs="0"/>
    </tripinfo>