<?xml version="1.0" encoding="UTF-8"?>

<!-- generated on 2021-10-26 18:08:38 by Eclipse SUMO sumo Version 1.10.0
<configuration xmlns:xsi="http://www.w3.org/2001/XMLSchema-instance" xsi:noNamespaceSchemaLocation="http://sumo.dlr.de/xsd/sumoConfiguration.xsd">

    <input>
        <net-file value="/Users/behradkoohy/sumo-scratchpad/RESCO/environments/ingolstadt21/ingolstadt21.net.xml"/>
        <route-files value="/Users/behradkoohy/sumo-scratchpad/RESCO/environments/ingolstadt21/ingolstadt21.rou.xml"/>
    </input>

    <output>
        <tripinfo-output value="/Users/behradkoohy/sumo-scratchpad/RESCO/logs/IPPO-tr0-ingolstadt21-21-drq_norm-wait_norm/tripinfo_46.xml"/>
        <tripinfo-output.write-unfinished value="true"/>
    </output>

    <time>
        <begin value="57600"/>
        <end value="61200"/>
    </time>

    <processing>
        <time-to-teleport value="-1"/>
    </processing>

    <report>
        <no-warnings value="true"/>
        <no-step-log value="true"/>
    </report>

    <emissions>
        <device.emissions.probability value="1"/>
    </emissions>

    <traci_server>
        <remote-port value="62072"/>
    </traci_server>

    <random_number>
        <random value="true"/>
    </random_number>

</configuration>
-->

<tripinfos xmlns:xsi="http://www.w3.org/2001/XMLSchema-instance" xsi:noNamespaceSchemaLocation="http://sumo.dlr.de/xsd/tripinfo_file.xsd">
    <tripinfo id="carIn60260:1" depart="57606.00" departLane="315358254#0_1" departPos="5.10" departSpeed="0.00" departDelay="0.90" arrival="57680.00" arrivalLane="399835085#1_1" arrivalPos="212.23" arrivalSpeed="8.95" duration="74.00" routeLength="430.98" waitingTime="22.00" waitingCount="1" stopTime="0.00" timeLoss="31.36" rerouteNo="1" devices="tripinfo_carIn60260:1 routing_carIn60260:1 emissions_carIn60260:1" vType="default_016" speedFactor="1.08" vaporized="">
        <emissions CO_abs="5025.711837" CO2_abs="164494.451375" HC_abs="26.720115" PMx_abs="3.178217" NOx_abs="69.601480" fuel_abs="70.710787" electricity_abs="0"/>
    </tripinfo>
    <tripinfo id="carIn53971:1" depart="57640.00" departLane="272042143_1" departPos="5.10" departSpeed="0.00" departDelay="0.80" arrival="57689.00" arrivalLane="24634414#1_1" arrivalPos="162.19" arrivalSpeed="8.72" duration="49.00" routeLength="493.04" waitingTime="0.00" waitingCount="0" stopTime="0.00" timeLoss="8.17" rerouteNo="1" devices="tripinfo_carIn53971:1 routing_carIn53971:1 emissions_carIn53971:1" vType="default_016" speedFactor="1.14" vaporized="">
        <emissions CO_abs="2421.266023" CO2_abs="150349.597054" HC_abs="14.531662" PMx_abs="2.750374" NOx_abs="62.096718" fuel_abs="64.628800" electricity_abs="0"/>
    </tripinfo>
    <tripinfo id="h12244c1:3" depart="57612.00" departLane="315358244_1" departPos="5.10" departSpeed="0.00" departDelay="0.40" arrival="57698.00" arrivalLane="386687235_1" arrivalPos="80.84" arrivalSpeed="14.94" duration="86.00" routeLength="1186.14" waitingTime="0.00" waitingCount="0" stopTime="0.00" timeLoss="7.64" rerouteNo="1" devices="tripinfo_h12244c1:3 routing_h12244c1:3 emissions_h12244c1:3" vType="default_016" speedFactor="1.11" vaporized="">
        <emissions CO_abs="2483.897074" CO2_abs="236360.382389" HC_abs="16.727078" PMx_abs="3.830018" NOx_abs="92.201422" fuel_abs="101.600964" electricity_abs="0"/>
    </tripinfo>
    <tripinfo id="h15454c2:3" depart="57612.00" departLane="24608844_1" departPos="5.10" departSpeed="0.00" departDelay="0.50" arrival="57708.00" arrivalLane="32978638#0_1" arrivalPos="49.29" arrivalSpeed="12.24" duration="96.00" routeLength="354.79" waitingTime="45.00" waitingCount="2" stopTime="0.00" timeLoss="58.49" rerouteNo="1" devices="tripinfo_h15454c2:3 routing_h15454c2:3 emissions_h15454c2:3" vType="default_016" speedFactor="0.92" vaporized="">
        <emissions CO_abs="8883.730861" CO2_abs="219381.858429" HC_abs="45.569964" PMx_abs="4.600085" NOx_abs="95.190649" fuel_abs="94.306400" electricity_abs="0"/>
    </tripinfo>
    <tripinfo id="S5R_frequency1.2" depart="57615.00" departLane="315358250#0_1" departPos="12.10" departSpeed="0.00" departDelay="3.40" arrival="57720.00" arrivalLane="386687235_1" arrivalPos="80.84" arrivalSpeed="13.86" duration="105.00" routeLength="1115.62" waitingTime="5.00" waitingCount="1" stopTime="0.00" timeLoss="23.02" rerouteNo="1" devices="tripinfo_S5R_frequency1.2 routing_S5R_frequency1.2 emissions_S5R_frequency1.2" vType="bus" speedFactor="1.00" vaporized="">
        <emissions CO_abs="1993.048928" CO2_abs="1235344.702973" HC_abs="424.504279" PMx_abs="213.577238" NOx_abs="9617.460532" fuel_abs="526.859974" electricity_abs="0"/>
    </tripinfo>
    <tripinfo id="h7800c1:5" depart="57696.00" departLane="-447569998#1_1" departPos="5.10" departSpeed="0.00" departDelay="0.00" arrival="57722.00" arrivalLane="-447569998#1_1" arrivalPos="180.76" arrivalSpeed="7.19" duration="26.00" routeLength="175.66" waitingTime="0.00" waitingCount="0" stopTime="0.00" timeLoss="3.62" rerouteNo="1" devices="tripinfo_h7800c1:5 routing_h7800c1:5 emissions_h7800c1:5" vType="default_016" speedFactor="0.97" vaporized="">
        <emissions CO_abs="1111.955665" CO2_abs="46308.582920" HC_abs="6.121740" PMx_abs="0.748937" NOx_abs="18.815642" fuel_abs="19.906492" electricity_abs="0"/>
    </tripinfo>
    <tripinfo id="h3688c1:1" depart="57625.00" departLane="201201950#1_1" departPos="5.10" departSpeed="0.00" departDelay="0.00" arrival="57736.00" arrivalLane="32978638#0_1" arrivalPos="49.29" arrivalSpeed="12.19" duration="111.00" routeLength="1089.75" waitingTime="7.00" waitingCount="1" stopTime="0.00" timeLoss="21.94" rerouteNo="1" devices="tripinfo_h3688c1:1 routing_h3688c1:1 emissions_h3688c1:1" vType="default_016" speedFactor="0.90" vaporized="">
        <emissions CO_abs="3997.933154" CO2_abs="259246.439341" HC_abs="24.237740" PMx_abs="4.239314" NOx_abs="103.611842" fuel_abs="111.439504" electricity_abs="0"/>
    </tripinfo>
    <tripinfo id="carIn80064:1" depart="57603.00" departLane="128361109#1_1" departPos="5.10" departSpeed="0.00" departDelay="0.40" arrival="57740.00" arrivalLane="-315358254#1_1" arrivalPos="137.16" arrivalSpeed="12.36" duration="137.00" routeLength="1587.97" waitingTime="9.00" waitingCount="2" stopTime="0.00" timeLoss="38.15" rerouteNo="1" devices="tripinfo_carIn80064:1 routing_carIn80064:1 emissions_carIn80064:1" vType="default_016" speedFactor="0.90" vaporized="">
        <emissions CO_abs="6856.621128" CO2_abs="460730.724286" HC_abs="42.161014" PMx_abs="8.704873" NOx_abs="189.085364" fuel_abs="198.047667" electricity_abs="0"/>
    </tripinfo>
    <tripinfo id="carIn22761:1" depart="57616.00" departLane="-306240162#1_0" departPos="5.10" departSpeed="0.00" departDelay="2.10" arrival="57742.00" arrivalLane="399835085#1_1" arrivalPos="212.23" arrivalSpeed="6.56" duration="126.00" routeLength="1093.26" waitingTime="12.00" waitingCount="1" stopTime="0.00" timeLoss="33.39" rerouteNo="1" devices="tripinfo_carIn22761:1 routing_carIn22761:1 emissions_carIn22761:1" vType="default_016" speedFactor="0.84" vaporized="">
        <emissions CO_abs="6164.677563" CO2_abs="308719.040596" HC_abs="35.197096" PMx_abs="5.611325" NOx_abs="126.561279" fuel_abs="132.706128" electricity_abs="0"/>
    </tripinfo>
    <tripinfo id="carIn121703:1" depart="57647.00" departLane="386687232#0_1" departPos="5.10" departSpeed="0.00" departDelay="0.30" arrival="57746.00" arrivalLane="-315358244_1" arrivalPos="33.95" arrivalSpeed="13.00" duration="99.00" routeLength="1157.39" waitingTime="0.00" waitingCount="0" stopTime="0.00" timeLoss="13.83" rerouteNo="1" devices="tripinfo_carIn121703:1 routing_carIn121703:1 emissions_carIn121703:1" vType="default_016" speedFactor="0.98" vaporized="">
        <emissions CO_abs="3183.223847" CO2_abs="249786.538268" HC_abs="20.326577" PMx_abs="4.016560" NOx_abs="98.607542" fuel_abs="107.372690" electricity_abs="0"/>
    </tripinfo>
    <tripinfo id="h9563c2:5" depart="57631.00" departLane="315358244_1" departPos="5.10" departSpeed="0.00" departDelay="0.70" arrival="57748.00" arrivalLane="386687235_1" arrivalPos="80.84" arrivalSpeed="12.38" duration="117.00" routeLength="1186.14" waitingTime="9.00" waitingCount="1" stopTime="0.00" timeLoss="28.24" rerouteNo="1" devices="tripinfo_h9563c2:5 routing_h9563c2:5 emissions_h9563c2:5" vType="default_016" speedFactor="0.98" vaporized="">
        <emissions CO_abs="4643.948014" CO2_abs="287186.443651" HC_abs="27.876710" PMx_abs="4.943283" NOx_abs="115.975496" fuel_abs="123.449624" electricity_abs="0"/>
    </tripinfo>
    <tripinfo id="carIn30817:1" depart="57681.00" departLane="315358244_1" departPos="5.10" departSpeed="0.00" departDelay="0.20" arrival="57749.00" arrivalLane="447569997#1_1" arrivalPos="180.93" arrivalSpeed="8.24" duration="68.00" routeLength="718.04" waitingTime="0.00" waitingCount="0" stopTime="0.00" timeLoss="7.60" rerouteNo="1" devices="tripinfo_carIn30817:1 routing_carIn30817:1 emissions_carIn30817:1" vType="default_016" speedFactor="1.03" vaporized="">
        <emissions CO_abs="2220.692619" CO2_abs="144162.259149" HC_abs="13.465752" PMx_abs="2.352951" NOx_abs="57.608720" fuel_abs="61.969497" electricity_abs="0"/>
    </tripinfo>
    <tripinfo id="h5979c1:5" depart="57669.00" departLane="399835085#1_1" departPos="5.10" departSpeed="0.00" departDelay="0.00" arrival="57752.00" arrivalLane="-315358254#1_1" arrivalPos="137.16" arrivalSpeed="13.62" duration="83.00" routeLength="659.33" waitingTime="0.00" waitingCount="0" stopTime="0.00" timeLoss="13.52" rerouteNo="1" devices="tripinfo_h5979c1:5 routing_h5979c1:5 emissions_h5979c1:5" vType="default_016" speedFactor="1.05" vaporized="">
        <emissions CO_abs="3608.105358" CO2_abs="180918.631263" HC_abs="20.617851" PMx_abs="3.043382" NOx_abs="73.737820" fuel_abs="77.770042" electricity_abs="0"/>
    </tripinfo>
    <tripinfo id="h7181c1:1" depart="57660.00" departLane="315358254#0_1" departPos="5.10" departSpeed="0.00" departDelay="0.10" arrival="57762.00" arrivalLane="306240162#0_0" arrivalPos="220.43" arrivalSpeed="14.50" duration="102.00" routeLength="932.35" waitingTime="34.00" waitingCount="1" stopTime="0.00" timeLoss="44.50" rerouteNo="1" devices="tripinfo_h7181c1:1 routing_h7181c1:1 emissions_h7181c1:1" vType="default_016" speedFactor="0.90" vaporized="">
        <emissions CO_abs="7358.777190" CO2_abs="287070.438819" HC_abs="40.298758" PMx_abs="5.724266" NOx_abs="119.880004" fuel_abs="123.400998" electricity_abs="0"/>
    </tripinfo>
    <tripinfo id="carIn27009:1" depart="57673.00" departLane="-447569998#1_1" departPos="5.10" departSpeed="0.00" departDelay="0.50" arrival="57769.00" arrivalLane="-26677539_1" arrivalPos="152.75" arrivalSpeed="8.12" duration="96.00" routeLength="699.63" waitingTime="0.00" waitingCount="0" stopTime="0.00" timeLoss="10.78" rerouteNo="1" devices="tripinfo_carIn27009:1 routing_carIn27009:1 emissions_carIn27009:1" vType="default_015" speedFactor="0.99" vaporized="">
        <emissions CO_abs="3778.679980" CO2_abs="179622.148624" HC_abs="21.309527" PMx_abs="2.797888" NOx_abs="72.151643" fuel_abs="77.213203" electricity_abs="0"/>
    </tripinfo>
    <tripinfo id="h317c2:1" depart="57707.00" departLane="-32978638#0_1" departPos="5.10" departSpeed="0.00" departDelay="0.10" arrival="57773.00" arrivalLane="-266565295#5_1" arrivalPos="172.76" arrivalSpeed="16.14" duration="66.00" routeLength="370.53" waitingTime="31.00" waitingCount="1" stopTime="0.00" timeLoss="42.29" rerouteNo="1" devices="tripinfo_h317c2:1 routing_h317c2:1 emissions_h317c2:1" vType="default_016" speedFactor="1.17" vaporized="">
        <emissions CO_abs="6760.252201" CO2_abs="206966.711914" HC_abs="35.673624" PMx_abs="4.368693" NOx_abs="89.095001" fuel_abs="88.968121" electricity_abs="0"/>
    </tripinfo>
    <tripinfo id="carIn86816:1" depart="57617.00" departLane="128361102#0_1" departPos="5.10" departSpeed="0.00" departDelay="0.80" arrival="57775.00" arrivalLane="201956811#0_1" arrivalPos="40.40" arrivalSpeed="13.85" duration="158.00" routeLength="2067.33" waitingTime="0.00" waitingCount="0" stopTime="0.00" timeLoss="17.36" rerouteNo="1" devices="tripinfo_carIn86816:1 routing_carIn86816:1 emissions_carIn86816:1" vType="default_016" speedFactor="1.07" vaporized="">
        <emissions CO_abs="4929.503393" CO2_abs="432598.988428" HC_abs="32.453959" PMx_abs="7.145985" NOx_abs="170.795462" fuel_abs="185.955352" electricity_abs="0"/>
    </tripinfo>
    <tripinfo id="h3326c1:2" depart="57656.00" departLane="22716069#0_1" departPos="5.10" departSpeed="0.00" departDelay="0.00" arrival="57776.00" arrivalLane="24634517#13_1" arrivalPos="111.62" arrivalSpeed="12.17" duration="120.00" routeLength="1312.81" waitingTime="0.00" waitingCount="0" stopTime="0.00" timeLoss="16.91" rerouteNo="1" devices="tripinfo_h3326c1:2 routing_h3326c1:2 emissions_h3326c1:2" vType="default_016" speedFactor="0.95" vaporized="">
        <emissions CO_abs="4099.496652" CO2_abs="284369.260330" HC_abs="25.311108" PMx_abs="4.817459" NOx_abs="114.678990" fuel_abs="122.238286" electricity_abs="0"/>
    </tripinfo>
    <tripinfo id="h4538c1:1" depart="57701.00" departLane="-10427692#1_1" departPos="5.10" departSpeed="0.00" departDelay="0.00" arrival="57777.00" arrivalLane="-128361102#1_1" arrivalPos="274.68" arrivalSpeed="12.29" duration="76.00" routeLength="440.74" waitingTime="33.00" waitingCount="1" stopTime="0.00" timeLoss="43.25" rerouteNo="1" devices="tripinfo_h4538c1:1 routing_h4538c1:1 emissions_h4538c1:1" vType="default_016" speedFactor="0.96" vaporized="">
        <emissions CO_abs="6471.479479" CO2_abs="193163.938047" HC_abs="33.993482" PMx_abs="3.885578" NOx_abs="82.101101" fuel_abs="83.035180" electricity_abs="0"/>
    </tripinfo>
    <tripinfo id="h3568c1:3" depart="57656.00" departLane="266565295#5_1" departPos="5.10" departSpeed="0.00" departDelay="0.80" arrival="57778.00" arrivalLane="-24634415_1" arrivalPos="62.03" arrivalSpeed="12.26" duration="122.00" routeLength="807.40" waitingTime="27.00" waitingCount="3" stopTime="0.00" timeLoss="53.58" rerouteNo="1" devices="tripinfo_h3568c1:3 routing_h3568c1:3 emissions_h3568c1:3" vType="default_016" speedFactor="0.95" vaporized="">
        <emissions CO_abs="7846.767147" CO2_abs="317899.434395" HC_abs="43.190247" PMx_abs="6.070996" NOx_abs="133.661265" fuel_abs="136.653127" electricity_abs="0"/>
    </tripinfo>
    <tripinfo id="h330c1:1" depart="57736.00" departLane="-32978638#0_1" departPos="5.10" departSpeed="0.00" departDelay="0.20" arrival="57778.00" arrivalLane="-266565295#5_1" arrivalPos="172.76" arrivalSpeed="12.87" duration="42.00" routeLength="370.53" waitingTime="4.00" waitingCount="1" stopTime="0.00" timeLoss="13.45" rerouteNo="1" devices="tripinfo_h330c1:1 routing_h330c1:1 emissions_h330c1:1" vType="default_016" speedFactor="0.98" vaporized="">
        <emissions CO_abs="2069.858642" CO2_abs="117772.111614" HC_abs="12.166457" PMx_abs="2.129661" NOx_abs="48.524647" fuel_abs="50.625328" electricity_abs="0"/>
    </tripinfo>
    <tripinfo id="carIn48184:1" depart="57613.00" departLane="-306240162#1_0" departPos="5.10" departSpeed="0.00" departDelay="0.70" arrival="57804.00" arrivalLane="386687235_1" arrivalPos="80.84" arrivalSpeed="14.79" duration="191.00" routeLength="2257.41" waitingTime="18.00" waitingCount="1" stopTime="0.00" timeLoss="52.31" rerouteNo="1" devices="tripinfo_carIn48184:1 routing_carIn48184:1 emissions_carIn48184:1" vType="default_016" speedFactor="1.07" vaporized="">
        <emissions CO_abs="9873.860657" CO2_abs="604644.605310" HC_abs="59.126973" PMx_abs="11.175162" NOx_abs="246.417967" fuel_abs="259.910970" electricity_abs="0"/>
    </tripinfo>
    <tripinfo id="h3154c1:1" depart="57658.00" departLane="24634507_1" departPos="5.10" departSpeed="0.00" departDelay="0.00" arrival="57810.00" arrivalLane="-266565295#5_1" arrivalPos="172.76" arrivalSpeed="11.52" duration="152.00" routeLength="1206.22" waitingTime="32.00" waitingCount="2" stopTime="0.00" timeLoss="53.37" rerouteNo="1" devices="tripinfo_h3154c1:1 routing_h3154c1:1 emissions_h3154c1:1" vType="default_016" speedFactor="0.91" vaporized="">
        <emissions CO_abs="8527.039013" CO2_abs="354541.937925" HC_abs="47.130168" PMx_abs="6.596456" NOx_abs="147.460776" fuel_abs="152.404499" electricity_abs="0"/>
    </tripinfo>
    <tripinfo id="carIn12365:1" depart="57713.00" departLane="315358244_1" departPos="5.10" departSpeed="0.00" departDelay="0.50" arrival="57812.00" arrivalLane="447569997#1_1" arrivalPos="180.93" arrivalSpeed="6.52" duration="99.00" routeLength="718.04" waitingTime="7.00" waitingCount="1" stopTime="0.00" timeLoss="22.42" rerouteNo="1" devices="tripinfo_carIn12365:1 routing_carIn12365:1 emissions_carIn12365:1" vType="default_016" speedFactor="0.81" vaporized="">
        <emissions CO_abs="4002.285434" CO2_abs="187938.116295" HC_abs="22.555042" PMx_abs="3.088416" NOx_abs="76.017048" fuel_abs="80.787793" electricity_abs="0"/>
    </tripinfo>
    <tripinfo id="carIn82278:1" depart="57702.00" departLane="-306240162#1_0" departPos="5.10" departSpeed="0.00" departDelay="0.70" arrival="57818.00" arrivalLane="399835085#1_1" arrivalPos="212.23" arrivalSpeed="9.36" duration="116.00" routeLength="1093.26" waitingTime="30.00" waitingCount="1" stopTime="0.00" timeLoss="49.88" rerouteNo="1" devices="tripinfo_carIn82278:1 routing_carIn82278:1 emissions_carIn82278:1" vType="default_016" speedFactor="1.19" vaporized="">
        <emissions CO_abs="9670.762018" CO2_abs="420087.717775" HC_abs="54.109829" PMx_abs="8.794724" NOx_abs="178.745966" fuel_abs="180.578586" electricity_abs="0"/>
    </tripinfo>
    <tripinfo id="carIn28951:1" depart="57606.00" departLane="10425609#0_1" departPos="5.10" departSpeed="0.00" departDelay="0.20" arrival="57819.00" arrivalLane="-128361102#1_1" arrivalPos="274.68" arrivalSpeed="11.68" duration="213.00" routeLength="2113.04" waitingTime="14.00" waitingCount="2" stopTime="0.00" timeLoss="40.01" rerouteNo="1" devices="tripinfo_carIn28951:1 routing_carIn28951:1 emissions_carIn28951:1" vType="default_016" speedFactor="0.90" vaporized="">
        <emissions CO_abs="6980.982708" CO2_abs="469270.553862" HC_abs="42.675894" PMx_abs="7.441249" NOx_abs="185.770451" fuel_abs="201.720497" electricity_abs="0"/>
    </tripinfo>
    <tripinfo id="carIn107084:1" depart="57601.00" departLane="124812856#0_1" departPos="5.10" departSpeed="0.00" departDelay="0.70" arrival="57821.00" arrivalLane="-128361102#1_1" arrivalPos="274.68" arrivalSpeed="12.98" duration="220.00" routeLength="2250.49" waitingTime="20.00" waitingCount="2" stopTime="0.00" timeLoss="49.46" rerouteNo="1" devices="tripinfo_carIn107084:1 routing_carIn107084:1 emissions_carIn107084:1" vType="default_016" speedFactor="0.96" vaporized="">
        <emissions CO_abs="9034.989777" CO2_abs="545979.653701" HC_abs="53.906384" PMx_abs="9.296187" NOx_abs="220.061746" fuel_abs="234.694474" electricity_abs="0"/>
    </tripinfo>
    <tripinfo id="h2831c1:1" depart="57600.00" departLane="201089423#0_1" departPos="5.10" departSpeed="0.00" departDelay="0.00" arrival="57823.00" arrivalLane="-315358244_2" arrivalPos="33.95" arrivalSpeed="15.52" duration="223.00" routeLength="2672.18" waitingTime="17.00" waitingCount="3" stopTime="0.00" timeLoss="50.61" rerouteNo="1" devices="tripinfo_h2831c1:1 routing_h2831c1:1 emissions_h2831c1:1" vType="default_016" speedFactor="1.13" vaporized="">
        <emissions CO_abs="8396.488154" CO2_abs="635750.010208" HC_abs="52.721902" PMx_abs="10.964497" NOx_abs="253.621426" fuel_abs="273.281341" electricity_abs="0"/>
    </tripinfo>
    <tripinfo id="randUni15030:1" depart="57735.00" departLane="386687232#0_1" departPos="5.10" departSpeed="0.00" departDelay="0.10" arrival="57823.00" arrivalLane="26677539_1" arrivalPos="151.98" arrivalSpeed="8.83" duration="88.00" routeLength="919.89" waitingTime="0.00" waitingCount="0" stopTime="0.00" timeLoss="11.03" rerouteNo="1" devices="tripinfo_randUni15030:1 routing_randUni15030:1 emissions_randUni15030:1" vType="random_016" speedFactor="1.09" vaporized="">
        <emissions CO_abs="3163.807057" CO2_abs="222609.882415" HC_abs="19.486822" PMx_abs="3.616432" NOx_abs="88.469762" fuel_abs="95.690759" electricity_abs="0"/>
    </tripinfo>
    <tripinfo id="carIn129809:1" depart="57729.00" departLane="-447569998#1_1" departPos="5.10" departSpeed="0.00" departDelay="1.00" arrival="57824.00" arrivalLane="-315358244_1" arrivalPos="33.95" arrivalSpeed="12.66" duration="95.00" routeLength="706.49" waitingTime="19.00" waitingCount="1" stopTime="0.00" timeLoss="31.40" rerouteNo="1" devices="tripinfo_carIn129809:1 routing_carIn129809:1 emissions_carIn129809:1" vType="default_015" speedFactor="0.95" vaporized="">
        <emissions CO_abs="5134.049430" CO2_abs="213345.249098" HC_abs="28.351330" PMx_abs="3.852409" NOx_abs="87.965070" fuel_abs="91.709434" electricity_abs="0"/>
    </tripinfo>
    <tripinfo id="h645c1:1" depart="57622.00" departLane="266565295#5_1" departPos="5.10" departSpeed="0.00" departDelay="0.40" arrival="57826.00" arrivalLane="-315358244_1" arrivalPos="33.95" arrivalSpeed="15.65" duration="204.00" routeLength="1910.83" waitingTime="59.00" waitingCount="2" stopTime="0.00" timeLoss="81.01" rerouteNo="1" devices="tripinfo_h645c1:1 routing_h645c1:1 emissions_h645c1:1" vType="default_016" speedFactor="1.13" vaporized="">
        <emissions CO_abs="14104.961569" CO2_abs="583859.408323" HC_abs="77.982762" PMx_abs="11.348272" NOx_abs="242.985167" fuel_abs="250.979233" electricity_abs="0"/>
    </tripinfo>
    <tripinfo id="carIn82220:1" depart="57619.00" departLane="-306240162#1_0" departPos="5.10" departSpeed="0.00" departDelay="3.50" arrival="57833.00" arrivalLane="386687235_1" arrivalPos="80.84" arrivalSpeed="13.23" duration="214.00" routeLength="2257.41" waitingTime="32.00" waitingCount="2" stopTime="0.00" timeLoss="65.75" rerouteNo="1" devices="tripinfo_carIn82220:1 routing_carIn82220:1 emissions_carIn82220:1" vType="default_016" speedFactor="1.00" vaporized="">
        <emissions CO_abs="10647.307575" CO2_abs="584888.720537" HC_abs="62.148346" PMx_abs="10.721272" NOx_abs="239.399075" fuel_abs="251.419670" electricity_abs="0"/>
    </tripinfo>
    <tripinfo id="carIn462:1" depart="57622.00" departLane="-306240162#1_0" departPos="5.10" departSpeed="0.00" departDelay="4.80" arrival="57833.00" arrivalLane="386687235_2" arrivalPos="80.84" arrivalSpeed="13.67" duration="211.00" routeLength="2257.41" waitingTime="26.00" waitingCount="4" stopTime="0.00" timeLoss="65.27" rerouteNo="1" devices="tripinfo_carIn462:1 routing_carIn462:1 emissions_carIn462:1" vType="default_016" speedFactor="1.02" vaporized="">
        <emissions CO_abs="9319.463090" CO2_abs="576521.722142" HC_abs="55.999337" PMx_abs="10.556885" NOx_abs="234.978143" fuel_abs="247.822156" electricity_abs="0"/>
    </tripinfo>
    <tripinfo id="carIn81860:1" depart="57712.00" departLane="128361102#0_1" departPos="5.10" departSpeed="0.00" departDelay="0.60" arrival="57834.00" arrivalLane="-24634517#17_1" arrivalPos="6.43" arrivalSpeed="6.58" duration="122.00" routeLength="1229.64" waitingTime="2.00" waitingCount="1" stopTime="0.00" timeLoss="18.62" rerouteNo="1" devices="tripinfo_carIn81860:1 routing_carIn81860:1 emissions_carIn81860:1" vType="default_016" speedFactor="0.87" vaporized="">
        <emissions CO_abs="3880.338215" CO2_abs="265089.052000" HC_abs="23.823292" PMx_abs="4.241266" NOx_abs="105.557019" fuel_abs="113.950949" electricity_abs="0"/>
    </tripinfo>
    <tripinfo id="h16072c2:3" depart="57663.00" departLane="315358254#0_1" departPos="5.10" departSpeed="0.00" departDelay="2.50" arrival="57835.00" arrivalLane="386687235_1" arrivalPos="80.84" arrivalSpeed="12.92" duration="172.00" routeLength="1611.92" waitingTime="28.00" waitingCount="4" stopTime="0.00" timeLoss="55.95" rerouteNo="1" devices="tripinfo_h16072c2:3 routing_h16072c2:3 emissions_h16072c2:3" vType="default_016" speedFactor="1.01" vaporized="">
        <emissions CO_abs="8141.363831" CO2_abs="425079.345423" HC_abs="46.994623" PMx_abs="7.592252" NOx_abs="173.456532" fuel_abs="182.724756" electricity_abs="0"/>
    </tripinfo>
    <tripinfo id="h5216c1:1" depart="57664.00" departLane="224892339#0_1" departPos="5.10" departSpeed="0.00" departDelay="0.00" arrival="57835.00" arrivalLane="386687235_2" arrivalPos="80.84" arrivalSpeed="15.06" duration="171.00" routeLength="1823.78" waitingTime="20.00" waitingCount="3" stopTime="0.00" timeLoss="56.58" rerouteNo="1" devices="tripinfo_h5216c1:1 routing_h5216c1:1 emissions_h5216c1:1" vType="default_016" speedFactor="1.12" vaporized="">
        <emissions CO_abs="8191.198816" CO2_abs="506860.403886" HC_abs="49.302297" PMx_abs="9.563706" NOx_abs="209.219532" fuel_abs="217.877209" electricity_abs="0"/>
    </tripinfo>
    <tripinfo id="carIn107282:1" depart="57749.00" departLane="-447569998#1_1" departPos="5.10" departSpeed="0.00" departDelay="0.00" arrival="57835.00" arrivalLane="315358242#0_1" arrivalPos="165.37" arrivalSpeed="13.05" duration="86.00" routeLength="448.50" waitingTime="37.00" waitingCount="1" stopTime="0.00" timeLoss="45.57" rerouteNo="1" devices="tripinfo_carIn107282:1 routing_carIn107282:1 emissions_carIn107282:1" vType="default_016" speedFactor="1.03" vaporized="">
        <emissions CO_abs="7629.326029" CO2_abs="216474.963002" HC_abs="39.779640" PMx_abs="4.260696" NOx_abs="91.576404" fuel_abs="93.056314" electricity_abs="0"/>
    </tripinfo>
    <tripinfo id="50R_frequency3.17" depart="57674.00" departLane="-18809673#6_1" departPos="12.10" departSpeed="0.00" departDelay="0.70" arrival="57836.00" arrivalLane="201956811#0_1" arrivalPos="40.40" arrivalSpeed="12.44" duration="162.00" routeLength="1954.47" waitingTime="0.00" waitingCount="0" stopTime="0.00" timeLoss="17.35" rerouteNo="1" devices="tripinfo_50R_frequency3.17 routing_50R_frequency3.17 emissions_50R_frequency3.17" vType="bus" speedFactor="1.00" vaporized="">
        <emissions CO_abs="3069.913097" CO2_abs="1965645.917246" HC_abs="651.006249" PMx_abs="330.453443" NOx_abs="15129.953733" fuel_abs="838.346886" electricity_abs="0"/>
    </tripinfo>
    <tripinfo id="h9953c2:3" depart="57682.00" departLane="-54169231#2_1" departPos="5.10" departSpeed="0.00" departDelay="0.00" arrival="57837.00" arrivalLane="386687235_1" arrivalPos="80.84" arrivalSpeed="14.69" duration="155.00" routeLength="1535.60" waitingTime="12.00" waitingCount="1" stopTime="0.00" timeLoss="36.55" rerouteNo="1" devices="tripinfo_h9953c2:3 routing_h9953c2:3 emissions_h9953c2:3" vType="default_016" speedFactor="1.07" vaporized="">
        <emissions CO_abs="7401.735459" CO2_abs="438317.120237" HC_abs="43.984023" PMx_abs="7.842638" NOx_abs="179.386001" fuel_abs="188.414237" electricity_abs="0"/>
    </tripinfo>
    <tripinfo id="h17600c1:1" depart="57662.00" departLane="272042143_1" departPos="5.10" departSpeed="0.00" departDelay="0.30" arrival="57840.00" arrivalLane="201238729#3_1" arrivalPos="431.02" arrivalSpeed="12.50" duration="178.00" routeLength="2100.26" waitingTime="3.00" waitingCount="1" stopTime="0.00" timeLoss="21.07" rerouteNo="1" devices="tripinfo_h17600c1:1 routing_h17600c1:1 emissions_h17600c1:1" vType="default_016" speedFactor="0.97" vaporized="">
        <emissions CO_abs="4431.389638" CO2_abs="391536.340534" HC_abs="29.277781" PMx_abs="5.990414" NOx_abs="152.191476" fuel_abs="168.304978" electricity_abs="0"/>
    </tripinfo>
    <tripinfo id="carIn102915:1" depart="57643.00" departLane="128361102#0_1" departPos="5.10" departSpeed="0.00" departDelay="0.40" arrival="57844.00" arrivalLane="201956811#0_1" arrivalPos="40.40" arrivalSpeed="15.34" duration="201.00" routeLength="2067.33" waitingTime="40.00" waitingCount="2" stopTime="0.00" timeLoss="72.76" rerouteNo="1" devices="tripinfo_carIn102915:1 routing_carIn102915:1 emissions_carIn102915:1" vType="default_016" speedFactor="1.18" vaporized="">
        <emissions CO_abs="11749.682978" CO2_abs="582887.824792" HC_abs="67.207717" PMx_abs="11.169781" NOx_abs="241.420424" fuel_abs="250.559835" electricity_abs="0"/>
    </tripinfo>
    <tripinfo id="randUni33724:1" depart="57646.00" departLane="128361102#0_1" departPos="5.10" departSpeed="0.00" departDelay="1.20" arrival="57846.00" arrivalLane="201956811#0_1" arrivalPos="40.40" arrivalSpeed="13.87" duration="200.00" routeLength="2067.33" waitingTime="25.00" waitingCount="2" stopTime="0.00" timeLoss="57.72" rerouteNo="1" devices="tripinfo_randUni33724:1 routing_randUni33724:1 emissions_randUni33724:1" vType="random_016" speedFactor="1.07" vaporized="">
        <emissions CO_abs="9640.956334" CO2_abs="545495.062073" HC_abs="56.602732" PMx_abs="9.624950" NOx_abs="220.650708" fuel_abs="234.486301" electricity_abs="0"/>
    </tripinfo>
    <tripinfo id="carIn77943:1" depart="57608.00" departLane="124812856#0_1" departPos="5.10" departSpeed="0.00" departDelay="2.50" arrival="57850.00" arrivalLane="-128361102#1_1" arrivalPos="274.68" arrivalSpeed="11.95" duration="242.00" routeLength="2250.49" waitingTime="32.00" waitingCount="3" stopTime="0.00" timeLoss="67.22" rerouteNo="1" devices="tripinfo_carIn77943:1 routing_carIn77943:1 emissions_carIn77943:1" vType="default_016" speedFactor="0.94" vaporized="">
        <emissions CO_abs="10804.360326" CO2_abs="558546.789842" HC_abs="62.261204" PMx_abs="9.809901" NOx_abs="227.491735" fuel_abs="240.097409" electricity_abs="0"/>
    </tripinfo>
    <tripinfo id="carIn81046:1" depart="57611.00" departLane="124812856#0_1" departPos="5.10" departSpeed="0.00" departDelay="2.50" arrival="57851.00" arrivalLane="-128361102#1_1" arrivalPos="274.68" arrivalSpeed="13.18" duration="240.00" routeLength="2250.49" waitingTime="30.00" waitingCount="3" stopTime="0.00" timeLoss="68.55" rerouteNo="1" devices="tripinfo_carIn81046:1 routing_carIn81046:1 emissions_carIn81046:1" vType="default_016" speedFactor="0.96" vaporized="">
        <emissions CO_abs="10623.582610" CO2_abs="586338.180989" HC_abs="62.086467" PMx_abs="10.179671" NOx_abs="237.912651" fuel_abs="252.043420" electricity_abs="0"/>
    </tripinfo>