<?xml version="1.0" encoding="UTF-8"?>

<!-- generated on 2021-10-26 18:12:33 by Eclipse SUMO sumo Version 1.10.0
<configuration xmlns:xsi="http://www.w3.org/2001/XMLSchema-instance" xsi:noNamespaceSchemaLocation="http://sumo.dlr.de/xsd/sumoConfiguration.xsd">

    <input>
        <net-file value="/Users/behradkoohy/sumo-scratchpad/RESCO/environments/ingolstadt21/ingolstadt21.net.xml"/>
        <route-files value="/Users/behradkoohy/sumo-scratchpad/RESCO/environments/ingolstadt21/ingolstadt21.rou.xml"/>
    </input>

    <output>
        <tripinfo-output value="/Users/behradkoohy/sumo-scratchpad/RESCO/logs/IPPO-tr0-ingolstadt21-21-drq_norm-wait_norm/tripinfo_51.xml"/>
        <tripinfo-output.write-unfinished value="true"/>
    </output>

    <time>
        <begin value="57600"/>
        <end value="61200"/>
    </time>

    <processing>
        <time-to-teleport value="-1"/>
    </processing>

    <report>
        <no-warnings value="true"/>
        <no-step-log value="true"/>
    </report>

    <emissions>
        <device.emissions.probability value="1"/>
    </emissions>

    <traci_server>
        <remote-port value="62134"/>
    </traci_server>

    <random_number>
        <random value="true"/>
    </random_number>

</configuration>
-->

<tripinfos xmlns:xsi="http://www.w3.org/2001/XMLSchema-instance" xsi:noNamespaceSchemaLocation="http://sumo.dlr.de/xsd/tripinfo_file.xsd">
    <tripinfo id="h15454c2:3" depart="57612.00" departLane="24608844_1" departPos="5.10" departSpeed="0.00" departDelay="0.50" arrival="57655.00" arrivalLane="32978638#0_1" arrivalPos="49.29" arrivalSpeed="11.94" duration="43.00" routeLength="354.79" waitingTime="0.00" waitingCount="0" stopTime="0.00" timeLoss="6.22" rerouteNo="1" devices="tripinfo_h15454c2:3 routing_h15454c2:3 emissions_h15454c2:3" vType="default_016" speedFactor="0.93" vaporized="">
        <emissions CO_abs="2121.376491" CO2_abs="109589.440617" HC_abs="12.200871" PMx_abs="1.855415" NOx_abs="44.751053" fuel_abs="47.108261" electricity_abs="0"/>
    </tripinfo>
    <tripinfo id="carIn60260:1" depart="57606.00" departLane="315358254#0_1" departPos="5.10" departSpeed="0.00" departDelay="0.90" arrival="57659.00" arrivalLane="399835085#1_1" arrivalPos="212.23" arrivalSpeed="8.34" duration="53.00" routeLength="430.98" waitingTime="0.00" waitingCount="0" stopTime="0.00" timeLoss="7.28" rerouteNo="1" devices="tripinfo_carIn60260:1 routing_carIn60260:1 emissions_carIn60260:1" vType="default_016" speedFactor="1.01" vaporized="">
        <emissions CO_abs="2221.895678" CO2_abs="114776.164029" HC_abs="12.736038" PMx_abs="1.806689" NOx_abs="45.983263" fuel_abs="49.338038" electricity_abs="0"/>
    </tripinfo>
    <tripinfo id="carIn53971:1" depart="57640.00" departLane="272042143_1" departPos="5.10" departSpeed="0.00" departDelay="0.80" arrival="57699.00" arrivalLane="24634414#1_1" arrivalPos="162.19" arrivalSpeed="7.36" duration="59.00" routeLength="493.04" waitingTime="0.00" waitingCount="0" stopTime="0.00" timeLoss="8.51" rerouteNo="1" devices="tripinfo_carIn53971:1 routing_carIn53971:1 emissions_carIn53971:1" vType="default_016" speedFactor="0.91" vaporized="">
        <emissions CO_abs="2475.874062" CO2_abs="129352.989901" HC_abs="14.273012" PMx_abs="2.179191" NOx_abs="52.692824" fuel_abs="55.603845" electricity_abs="0"/>
    </tripinfo>
    <tripinfo id="h3688c1:1" depart="57625.00" departLane="201201950#1_1" departPos="5.10" departSpeed="0.00" departDelay="0.00" arrival="57733.00" arrivalLane="32978638#0_1" arrivalPos="49.29" arrivalSpeed="11.99" duration="108.00" routeLength="1089.75" waitingTime="7.00" waitingCount="1" stopTime="0.00" timeLoss="20.17" rerouteNo="1" devices="tripinfo_h3688c1:1 routing_h3688c1:1 emissions_h3688c1:1" vType="default_016" speedFactor="0.90" vaporized="">
        <emissions CO_abs="3927.147319" CO2_abs="266857.286423" HC_abs="24.075504" PMx_abs="4.233234" NOx_abs="105.651442" fuel_abs="114.711153" electricity_abs="0"/>
    </tripinfo>
    <tripinfo id="h3568c1:3" depart="57656.00" departLane="266565295#5_1" departPos="5.10" departSpeed="0.00" departDelay="0.80" arrival="57734.00" arrivalLane="-24634415_1" arrivalPos="62.03" arrivalSpeed="14.17" duration="78.00" routeLength="807.40" waitingTime="0.00" waitingCount="0" stopTime="0.00" timeLoss="17.60" rerouteNo="1" devices="tripinfo_h3568c1:3 routing_h3568c1:3 emissions_h3568c1:3" vType="default_016" speedFactor="1.07" vaporized="">
        <emissions CO_abs="4107.881350" CO2_abs="254302.487933" HC_abs="24.700550" PMx_abs="4.747582" NOx_abs="105.577134" fuel_abs="109.313540" electricity_abs="0"/>
    </tripinfo>
    <tripinfo id="h317c2:1" depart="57707.00" departLane="-32978638#0_1" departPos="5.10" departSpeed="0.00" departDelay="0.10" arrival="57739.00" arrivalLane="-266565295#5_1" arrivalPos="172.76" arrivalSpeed="13.26" duration="32.00" routeLength="370.53" waitingTime="0.00" waitingCount="0" stopTime="0.00" timeLoss="5.38" rerouteNo="1" devices="tripinfo_h317c2:1 routing_h317c2:1 emissions_h317c2:1" vType="default_016" speedFactor="1.04" vaporized="">
        <emissions CO_abs="1573.685233" CO2_abs="106866.658553" HC_abs="9.689547" PMx_abs="1.952244" NOx_abs="43.946356" fuel_abs="45.937263" electricity_abs="0"/>
    </tripinfo>
    <tripinfo id="h4538c1:1" depart="57701.00" departLane="-10427692#1_1" departPos="5.10" departSpeed="0.00" departDelay="0.00" arrival="57743.00" arrivalLane="-128361102#1_1" arrivalPos="274.68" arrivalSpeed="14.97" duration="42.00" routeLength="440.74" waitingTime="2.00" waitingCount="1" stopTime="0.00" timeLoss="13.52" rerouteNo="1" devices="tripinfo_h4538c1:1 routing_h4538c1:1 emissions_h4538c1:1" vType="default_016" speedFactor="1.13" vaporized="">
        <emissions CO_abs="2015.676926" CO2_abs="125363.261694" HC_abs="12.105690" PMx_abs="2.285582" NOx_abs="51.297521" fuel_abs="53.888307" electricity_abs="0"/>
    </tripinfo>
    <tripinfo id="h7800c1:5" depart="57696.00" departLane="-447569998#1_1" departPos="5.10" departSpeed="0.00" departDelay="0.00" arrival="57745.00" arrivalLane="-447569998#1_2" arrivalPos="180.76" arrivalSpeed="3.72" duration="49.00" routeLength="175.66" waitingTime="21.00" waitingCount="1" stopTime="0.00" timeLoss="27.18" rerouteNo="1" devices="tripinfo_h7800c1:5 routing_h7800c1:5 emissions_h7800c1:5" vType="default_016" speedFactor="0.98" vaporized="">
        <emissions CO_abs="4020.850251" CO2_abs="96670.038462" HC_abs="20.557279" PMx_abs="2.016803" NOx_abs="41.987311" fuel_abs="41.555962" electricity_abs="0"/>
    </tripinfo>
    <tripinfo id="carIn30817:1" depart="57681.00" departLane="315358244_1" departPos="5.10" departSpeed="0.00" departDelay="0.20" arrival="57753.00" arrivalLane="447569997#1_1" arrivalPos="180.93" arrivalSpeed="8.52" duration="72.00" routeLength="718.04" waitingTime="0.00" waitingCount="0" stopTime="0.00" timeLoss="13.87" rerouteNo="1" devices="tripinfo_carIn30817:1 routing_carIn30817:1 emissions_carIn30817:1" vType="default_016" speedFactor="1.07" vaporized="">
        <emissions CO_abs="3328.317820" CO2_abs="193824.684645" HC_abs="19.720753" PMx_abs="3.534121" NOx_abs="80.176686" fuel_abs="83.317048" electricity_abs="0"/>
    </tripinfo>
    <tripinfo id="h12244c1:3" depart="57612.00" departLane="315358244_1" departPos="5.10" departSpeed="0.00" departDelay="0.40" arrival="57757.00" arrivalLane="386687235_1" arrivalPos="80.84" arrivalSpeed="11.62" duration="145.00" routeLength="1186.14" waitingTime="26.00" waitingCount="2" stopTime="0.00" timeLoss="43.90" rerouteNo="1" devices="tripinfo_h12244c1:3 routing_h12244c1:3 emissions_h12244c1:3" vType="default_016" speedFactor="0.86" vaporized="">
        <emissions CO_abs="5995.619073" CO2_abs="298061.048565" HC_abs="34.194789" PMx_abs="4.889611" NOx_abs="119.417601" fuel_abs="128.125480" electricity_abs="0"/>
    </tripinfo>
    <tripinfo id="h9563c2:5" depart="57631.00" departLane="315358244_1" departPos="5.10" departSpeed="0.00" departDelay="0.70" arrival="57759.00" arrivalLane="386687235_1" arrivalPos="80.84" arrivalSpeed="13.07" duration="128.00" routeLength="1186.14" waitingTime="16.00" waitingCount="1" stopTime="0.00" timeLoss="37.46" rerouteNo="1" devices="tripinfo_h9563c2:5 routing_h9563c2:5 emissions_h9563c2:5" vType="default_016" speedFactor="0.96" vaporized="">
        <emissions CO_abs="5548.253017" CO2_abs="285989.874347" HC_abs="31.946263" PMx_abs="5.093433" NOx_abs="117.158906" fuel_abs="122.935736" electricity_abs="0"/>
    </tripinfo>
    <tripinfo id="S5R_frequency1.2" depart="57634.00" departLane="315358250#0_1" departPos="12.10" departSpeed="0.00" departDelay="22.40" arrival="57763.00" arrivalLane="386687235_1" arrivalPos="80.84" arrivalSpeed="13.34" duration="129.00" routeLength="1115.62" waitingTime="17.00" waitingCount="1" stopTime="0.00" timeLoss="47.86" rerouteNo="1" devices="tripinfo_S5R_frequency1.2 routing_S5R_frequency1.2 emissions_S5R_frequency1.2" vType="bus" speedFactor="1.00" vaporized="">
        <emissions CO_abs="2785.901987" CO2_abs="1671551.923639" HC_abs="568.845329" PMx_abs="295.501688" NOx_abs="13199.118392" fuel_abs="712.849262" electricity_abs="0"/>
    </tripinfo>
    <tripinfo id="h3154c1:1" depart="57658.00" departLane="24634507_1" departPos="5.10" departSpeed="0.00" departDelay="0.00" arrival="57768.00" arrivalLane="-266565295#5_1" arrivalPos="172.76" arrivalSpeed="13.99" duration="110.00" routeLength="1206.22" waitingTime="9.00" waitingCount="1" stopTime="0.00" timeLoss="25.66" rerouteNo="1" devices="tripinfo_h3154c1:1 routing_h3154c1:1 emissions_h3154c1:1" vType="default_016" speedFactor="1.06" vaporized="">
        <emissions CO_abs="4643.660648" CO2_abs="291306.638007" HC_abs="28.013611" PMx_abs="5.252470" NOx_abs="118.994357" fuel_abs="125.220322" electricity_abs="0"/>
    </tripinfo>
    <tripinfo id="h5979c1:5" depart="57669.00" departLane="399835085#1_1" departPos="5.10" departSpeed="0.00" departDelay="0.00" arrival="57768.00" arrivalLane="-315358254#1_1" arrivalPos="137.16" arrivalSpeed="15.10" duration="99.00" routeLength="659.33" waitingTime="14.00" waitingCount="1" stopTime="0.00" timeLoss="31.30" rerouteNo="1" devices="tripinfo_h5979c1:5 routing_h5979c1:5 emissions_h5979c1:5" vType="default_016" speedFactor="1.09" vaporized="">
        <emissions CO_abs="4981.384180" CO2_abs="216230.983473" HC_abs="27.709015" PMx_abs="3.846561" NOx_abs="89.239000" fuel_abs="92.949758" electricity_abs="0"/>
    </tripinfo>
    <tripinfo id="carIn86816:1" depart="57617.00" departLane="128361102#0_1" departPos="5.10" departSpeed="0.00" departDelay="0.80" arrival="57773.00" arrivalLane="201956811#0_1" arrivalPos="40.40" arrivalSpeed="14.53" duration="156.00" routeLength="2067.33" waitingTime="0.00" waitingCount="0" stopTime="0.00" timeLoss="15.20" rerouteNo="1" devices="tripinfo_carIn86816:1 routing_carIn86816:1 emissions_carIn86816:1" vType="default_016" speedFactor="1.08" vaporized="">
        <emissions CO_abs="4218.005347" CO2_abs="412809.871485" HC_abs="28.697736" PMx_abs="6.516274" NOx_abs="160.334274" fuel_abs="177.448992" electricity_abs="0"/>
    </tripinfo>
    <tripinfo id="carIn121703:1" depart="57647.00" departLane="386687232#0_1" departPos="5.10" departSpeed="0.00" departDelay="0.30" arrival="57774.00" arrivalLane="-315358244_1" arrivalPos="33.95" arrivalSpeed="11.38" duration="127.00" routeLength="1157.39" waitingTime="7.00" waitingCount="2" stopTime="0.00" timeLoss="25.52" rerouteNo="1" devices="tripinfo_carIn121703:1 routing_carIn121703:1 emissions_carIn121703:1" vType="default_016" speedFactor="0.84" vaporized="">
        <emissions CO_abs="4016.091403" CO2_abs="262725.398048" HC_abs="24.343829" PMx_abs="4.013216" NOx_abs="103.441403" fuel_abs="112.935341" electricity_abs="0"/>
    </tripinfo>
    <tripinfo id="h7181c1:1" depart="57660.00" departLane="315358254#0_1" departPos="5.10" departSpeed="0.00" departDelay="0.10" arrival="57778.00" arrivalLane="306240162#0_0" arrivalPos="220.43" arrivalSpeed="19.45" duration="118.00" routeLength="932.35" waitingTime="55.00" waitingCount="2" stopTime="0.00" timeLoss="74.78" rerouteNo="1" devices="tripinfo_h7181c1:1 routing_h7181c1:1 emissions_h7181c1:1" vType="default_016" speedFactor="1.18" vaporized="">
        <emissions CO_abs="12627.039128" CO2_abs="445933.431283" HC_abs="68.188587" PMx_abs="9.751856" NOx_abs="191.058131" fuel_abs="191.690127" electricity_abs="0"/>
    </tripinfo>
    <tripinfo id="h3326c1:2" depart="57656.00" departLane="22716069#0_1" departPos="5.10" departSpeed="0.00" departDelay="0.00" arrival="57781.00" arrivalLane="24634517#13_1" arrivalPos="111.62" arrivalSpeed="11.51" duration="125.00" routeLength="1312.81" waitingTime="0.00" waitingCount="0" stopTime="0.00" timeLoss="15.94" rerouteNo="1" devices="tripinfo_h3326c1:2 routing_h3326c1:2 emissions_h3326c1:2" vType="default_016" speedFactor="0.90" vaporized="">
        <emissions CO_abs="4161.639484" CO2_abs="299185.441979" HC_abs="25.903465" PMx_abs="4.772009" NOx_abs="118.780949" fuel_abs="128.607456" electricity_abs="0"/>
    </tripinfo>
    <tripinfo id="h330c1:1" depart="57736.00" departLane="-32978638#0_1" departPos="5.10" departSpeed="0.00" departDelay="0.20" arrival="57781.00" arrivalLane="-266565295#5_1" arrivalPos="172.76" arrivalSpeed="16.08" duration="45.00" routeLength="370.53" waitingTime="13.00" waitingCount="1" stopTime="0.00" timeLoss="22.92" rerouteNo="1" devices="tripinfo_h330c1:1 routing_h330c1:1 emissions_h330c1:1" vType="default_016" speedFactor="1.24" vaporized="">
        <emissions CO_abs="3812.812469" CO2_abs="162474.189849" HC_abs="21.196752" PMx_abs="3.348223" NOx_abs="69.340293" fuel_abs="69.841110" electricity_abs="0"/>
    </tripinfo>
    <tripinfo id="carIn22761:1" depart="57616.00" departLane="-306240162#1_0" departPos="5.10" departSpeed="0.00" departDelay="2.10" arrival="57787.00" arrivalLane="399835085#1_1" arrivalPos="212.23" arrivalSpeed="6.47" duration="171.00" routeLength="1093.26" waitingTime="62.00" waitingCount="2" stopTime="0.00" timeLoss="86.85" rerouteNo="1" devices="tripinfo_carIn22761:1 routing_carIn22761:1 emissions_carIn22761:1" vType="default_016" speedFactor="0.92" vaporized="">
        <emissions CO_abs="14114.196500" CO2_abs="450537.552921" HC_abs="74.823658" PMx_abs="9.286255" NOx_abs="192.585120" fuel_abs="193.670949" electricity_abs="0"/>
    </tripinfo>
    <tripinfo id="carIn107084:1" depart="57601.00" departLane="124812856#0_1" departPos="5.10" departSpeed="0.00" departDelay="0.70" arrival="57794.00" arrivalLane="-128361102#1_1" arrivalPos="274.68" arrivalSpeed="14.69" duration="193.00" routeLength="2250.49" waitingTime="8.00" waitingCount="3" stopTime="0.00" timeLoss="39.39" rerouteNo="1" devices="tripinfo_carIn107084:1 routing_carIn107084:1 emissions_carIn107084:1" vType="default_016" speedFactor="1.06" vaporized="">
        <emissions CO_abs="7155.641077" CO2_abs="553793.820039" HC_abs="45.439560" PMx_abs="9.388725" NOx_abs="221.174558" fuel_abs="238.051962" electricity_abs="0"/>
    </tripinfo>
    <tripinfo id="carIn48184:1" depart="57613.00" departLane="-306240162#1_0" departPos="5.10" departSpeed="0.00" departDelay="0.70" arrival="57795.00" arrivalLane="386687235_1" arrivalPos="80.84" arrivalSpeed="13.46" duration="182.00" routeLength="2257.41" waitingTime="19.00" waitingCount="1" stopTime="0.00" timeLoss="38.81" rerouteNo="1" devices="tripinfo_carIn48184:1 routing_carIn48184:1 emissions_carIn48184:1" vType="default_016" speedFactor="1.04" vaporized="">
        <emissions CO_abs="7451.102961" CO2_abs="507277.414967" HC_abs="45.858641" PMx_abs="8.926671" NOx_abs="202.101167" fuel_abs="218.057130" electricity_abs="0"/>
    </tripinfo>
    <tripinfo id="h645c1:1" depart="57622.00" departLane="266565295#5_1" departPos="5.10" departSpeed="0.00" departDelay="0.40" arrival="57800.00" arrivalLane="-315358244_1" arrivalPos="33.95" arrivalSpeed="11.73" duration="178.00" routeLength="1910.83" waitingTime="8.00" waitingCount="1" stopTime="0.00" timeLoss="24.56" rerouteNo="1" devices="tripinfo_h645c1:1 routing_h645c1:1 emissions_h645c1:1" vType="default_016" speedFactor="0.91" vaporized="">
        <emissions CO_abs="5014.093043" CO2_abs="374417.146939" HC_abs="31.513861" PMx_abs="5.782393" NOx_abs="146.702104" fuel_abs="160.946656" electricity_abs="0"/>
    </tripinfo>
    <tripinfo id="carIn102915:1" depart="57643.00" departLane="128361102#0_1" departPos="5.10" departSpeed="0.00" departDelay="0.40" arrival="57803.00" arrivalLane="201956811#0_1" arrivalPos="40.40" arrivalSpeed="15.21" duration="160.00" routeLength="2067.33" waitingTime="9.00" waitingCount="1" stopTime="0.00" timeLoss="32.92" rerouteNo="1" devices="tripinfo_carIn102915:1 routing_carIn102915:1 emissions_carIn102915:1" vType="default_016" speedFactor="1.19" vaporized="">
        <emissions CO_abs="6760.064430" CO2_abs="483702.322912" HC_abs="41.839751" PMx_abs="8.699322" NOx_abs="195.346082" fuel_abs="207.922399" electricity_abs="0"/>
    </tripinfo>
    <tripinfo id="randUni33724:1" depart="57646.00" departLane="128361102#0_1" departPos="5.10" departSpeed="0.00" departDelay="1.20" arrival="57805.00" arrivalLane="201956811#0_1" arrivalPos="40.40" arrivalSpeed="17.27" duration="159.00" routeLength="2067.33" waitingTime="5.00" waitingCount="1" stopTime="0.00" timeLoss="44.26" rerouteNo="1" devices="tripinfo_randUni33724:1 routing_randUni33724:1 emissions_randUni33724:1" vType="random_016" speedFactor="1.32" vaporized="">
        <emissions CO_abs="7812.407628" CO2_abs="540266.460512" HC_abs="48.358275" PMx_abs="10.313906" NOx_abs="222.762364" fuel_abs="232.236140" electricity_abs="0"/>
    </tripinfo>
    <tripinfo id="carIn12365:1" depart="57713.00" departLane="315358244_1" departPos="5.10" departSpeed="0.00" departDelay="0.50" arrival="57805.00" arrivalLane="447569997#1_1" arrivalPos="180.93" arrivalSpeed="6.26" duration="92.00" routeLength="718.04" waitingTime="9.00" waitingCount="1" stopTime="0.00" timeLoss="21.86" rerouteNo="1" devices="tripinfo_carIn12365:1 routing_carIn12365:1 emissions_carIn12365:1" vType="default_016" speedFactor="0.88" vaporized="">
        <emissions CO_abs="4000.126292" CO2_abs="192983.755154" HC_abs="22.688655" PMx_abs="3.273235" NOx_abs="78.440697" fuel_abs="82.956509" electricity_abs="0"/>
    </tripinfo>
    <tripinfo id="carIn129809:1" depart="57729.00" departLane="-447569998#1_1" departPos="5.10" departSpeed="0.00" departDelay="1.00" arrival="57805.00" arrivalLane="-315358244_1" arrivalPos="33.95" arrivalSpeed="14.58" duration="76.00" routeLength="706.49" waitingTime="9.00" waitingCount="1" stopTime="0.00" timeLoss="19.97" rerouteNo="1" devices="tripinfo_carIn129809:1 routing_carIn129809:1 emissions_carIn129809:1" vType="default_015" speedFactor="1.08" vaporized="">
        <emissions CO_abs="3271.920531" CO2_abs="168868.662129" HC_abs="18.839229" PMx_abs="3.031121" NOx_abs="69.032604" fuel_abs="72.589948" electricity_abs="0"/>
    </tripinfo>
    <tripinfo id="carIn462:1" depart="57622.00" departLane="-306240162#1_0" departPos="5.10" departSpeed="0.00" departDelay="4.80" arrival="57813.00" arrivalLane="386687235_1" arrivalPos="80.84" arrivalSpeed="15.77" duration="191.00" routeLength="2257.41" waitingTime="5.00" waitingCount="2" stopTime="0.00" timeLoss="62.24" rerouteNo="1" devices="tripinfo_carIn462:1 routing_carIn462:1 emissions_carIn462:1" vType="default_016" speedFactor="1.15" vaporized="">
        <emissions CO_abs="8589.202615" CO2_abs="597232.982619" HC_abs="53.146195" PMx_abs="11.042351" NOx_abs="245.220327" fuel_abs="256.723846" electricity_abs="0"/>
    </tripinfo>
    <tripinfo id="h5216c1:1" depart="57664.00" departLane="224892339#0_1" departPos="5.10" departSpeed="0.00" departDelay="0.00" arrival="57815.00" arrivalLane="386687235_1" arrivalPos="80.84" arrivalSpeed="14.27" duration="151.00" routeLength="1823.78" waitingTime="2.00" waitingCount="1" stopTime="0.00" timeLoss="27.69" rerouteNo="1" devices="tripinfo_h5216c1:1 routing_h5216c1:1 emissions_h5216c1:1" vType="default_016" speedFactor="1.04" vaporized="">
        <emissions CO_abs="5781.184256" CO2_abs="444743.775031" HC_abs="36.664106" PMx_abs="7.721597" NOx_abs="178.992176" fuel_abs="191.175802" electricity_abs="0"/>
    </tripinfo>
    <tripinfo id="carIn82220:1" depart="57619.00" departLane="-306240162#1_0" departPos="5.10" departSpeed="0.00" departDelay="3.50" arrival="57816.00" arrivalLane="386687235_2" arrivalPos="80.84" arrivalSpeed="12.01" duration="197.00" routeLength="2257.41" waitingTime="4.00" waitingCount="1" stopTime="0.00" timeLoss="33.80" rerouteNo="1" devices="tripinfo_carIn82220:1 routing_carIn82220:1 emissions_carIn82220:1" vType="default_016" speedFactor="0.91" vaporized="">
        <emissions CO_abs="7069.735217" CO2_abs="523381.588025" HC_abs="44.456243" PMx_abs="8.915523" NOx_abs="209.695856" fuel_abs="224.979241" electricity_abs="0"/>
    </tripinfo>
    <tripinfo id="carIn107282:1" depart="57749.00" departLane="-447569998#1_1" departPos="5.10" departSpeed="0.00" departDelay="0.00" arrival="57816.00" arrivalLane="315358242#0_1" arrivalPos="165.37" arrivalSpeed="13.26" duration="67.00" routeLength="448.50" waitingTime="17.00" waitingCount="1" stopTime="0.00" timeLoss="24.76" rerouteNo="1" devices="tripinfo_carIn107282:1 routing_carIn107282:1 emissions_carIn107282:1" vType="default_016" speedFactor="0.99" vaporized="">
        <emissions CO_abs="4111.140041" CO2_abs="154889.665500" HC_abs="22.331144" PMx_abs="2.868344" NOx_abs="64.438685" fuel_abs="66.581693" electricity_abs="0"/>
    </tripinfo>
    <tripinfo id="carIn80064:1" depart="57603.00" departLane="128361109#1_1" departPos="5.10" departSpeed="0.00" departDelay="0.40" arrival="57817.00" arrivalLane="-315358254#1_1" arrivalPos="137.16" arrivalSpeed="16.58" duration="214.00" routeLength="1587.97" waitingTime="91.00" waitingCount="2" stopTime="0.00" timeLoss="141.49" rerouteNo="1" devices="tripinfo_carIn80064:1 routing_carIn80064:1 emissions_carIn80064:1" vType="default_016" speedFactor="1.22" vaporized="">
        <emissions CO_abs="22316.186491" CO2_abs="766774.249187" HC_abs="119.855812" PMx_abs="16.743601" NOx_abs="330.923798" fuel_abs="329.607883" electricity_abs="0"/>
    </tripinfo>
    <tripinfo id="carIn27009:1" depart="57673.00" departLane="-447569998#1_1" departPos="5.10" departSpeed="0.00" departDelay="0.50" arrival="57817.00" arrivalLane="-26677539_1" arrivalPos="152.75" arrivalSpeed="6.70" duration="144.00" routeLength="699.63" waitingTime="41.00" waitingCount="1" stopTime="0.00" timeLoss="55.87" rerouteNo="1" devices="tripinfo_carIn27009:1 routing_carIn27009:1 emissions_carIn27009:1" vType="default_015" speedFactor="0.95" vaporized="">
        <emissions CO_abs="10225.235877" CO2_abs="283855.717044" HC_abs="53.103245" PMx_abs="5.372207" NOx_abs="119.838446" fuel_abs="122.021746" electricity_abs="0"/>
    </tripinfo>
    <tripinfo id="carIn81860:1" depart="57712.00" departLane="128361102#0_1" departPos="5.10" departSpeed="0.00" departDelay="0.60" arrival="57817.00" arrivalLane="-24634517#17_1" arrivalPos="6.43" arrivalSpeed="7.45" duration="105.00" routeLength="1229.64" waitingTime="1.00" waitingCount="1" stopTime="0.00" timeLoss="17.31" rerouteNo="1" devices="tripinfo_carIn81860:1 routing_carIn81860:1 emissions_carIn81860:1" vType="default_016" speedFactor="1.04" vaporized="">
        <emissions CO_abs="3872.600344" CO2_abs="267689.878138" HC_abs="23.890058" PMx_abs="4.615092" NOx_abs="107.878342" fuel_abs="115.068473" electricity_abs="0"/>
    </tripinfo>
    <tripinfo id="carIn50326:1" depart="57651.00" departLane="128361102#0_1" departPos="5.10" departSpeed="0.00" departDelay="0.30" arrival="57831.00" arrivalLane="18809673#0_1" arrivalPos="473.56" arrivalSpeed="14.28" duration="180.00" routeLength="1591.07" waitingTime="31.00" waitingCount="2" stopTime="0.00" timeLoss="55.24" rerouteNo="1" devices="tripinfo_carIn50326:1 routing_carIn50326:1 emissions_carIn50326:1" vType="default_016" speedFactor="1.04" vaporized="">
        <emissions CO_abs="8771.685269" CO2_abs="426064.103582" HC_abs="49.790258" PMx_abs="7.371299" NOx_abs="172.071431" fuel_abs="183.148970" electricity_abs="0"/>
    </tripinfo>
    <tripinfo id="h8343c1:5" depart="57679.00" departLane="315358254#0_1" departPos="5.10" departSpeed="0.00" departDelay="0.60" arrival="57834.00" arrivalLane="-24634510#5_1" arrivalPos="236.88" arrivalSpeed="15.63" duration="155.00" routeLength="2056.84" waitingTime="15.00" waitingCount="2" stopTime="0.00" timeLoss="45.54" rerouteNo="1" devices="tripinfo_h8343c1:5 routing_h8343c1:5 emissions_h8343c1:5" vType="default_016" speedFactor="1.14" vaporized="">
        <emissions CO_abs="9363.724453" CO2_abs="605743.686645" HC_abs="57.105908" PMx_abs="11.979307" NOx_abs="249.638732" fuel_abs="260.382022" electricity_abs="0"/>
    </tripinfo>
    <tripinfo id="50R_frequency3.17" depart="57674.00" departLane="-18809673#6_1" departPos="12.10" departSpeed="0.00" departDelay="0.70" arrival="57835.00" arrivalLane="201956811#0_1" arrivalPos="40.40" arrivalSpeed="13.47" duration="161.00" routeLength="1954.47" waitingTime="0.00" waitingCount="0" stopTime="0.00" timeLoss="16.27" rerouteNo="1" devices="tripinfo_50R_frequency3.17 routing_50R_frequency3.17 emissions_50R_frequency3.17" vType="bus" speedFactor="1.00" vaporized="">
        <emissions CO_abs="2927.403311" CO2_abs="1889015.042031" HC_abs="616.327109" PMx_abs="315.213335" NOx_abs="14505.838446" fuel_abs="805.664816" electricity_abs="0"/>
    </tripinfo>
    <tripinfo id="carIn8642:1" depart="57774.00" departLane="-447569998#1_1" departPos="5.10" departSpeed="0.00" departDelay="0.90" arrival="57837.00" arrivalLane="-315358244_1" arrivalPos="33.95" arrivalSpeed="14.02" duration="63.00" routeLength="706.49" waitingTime="0.00" waitingCount="0" stopTime="0.00" timeLoss="6.25" rerouteNo="1" devices="tripinfo_carIn8642:1 routing_carIn8642:1 emissions_carIn8642:1" vType="default_016" speedFactor="1.07" vaporized="">
        <emissions CO_abs="2147.757242" CO2_abs="152161.713292" HC_abs="13.286734" PMx_abs="2.432584" NOx_abs="60.118897" fuel_abs="65.408077" electricity_abs="0"/>
    </tripinfo>
    <tripinfo id="h11737c1:1" depart="57665.00" departLane="272042143_1" departPos="5.10" departSpeed="0.00" departDelay="1.50" arrival="57838.00" arrivalLane="-315358254#1_1" arrivalPos="137.16" arrivalSpeed="11.62" duration="173.00" routeLength="1596.88" waitingTime="27.00" waitingCount="2" stopTime="0.00" timeLoss="47.09" rerouteNo="1" devices="tripinfo_h11737c1:1 routing_h11737c1:1 emissions_h11737c1:1" vType="default_016" speedFactor="0.93" vaporized="">
        <emissions CO_abs="7765.361481" CO2_abs="398295.119637" HC_abs="44.617179" PMx_abs="6.678038" NOx_abs="159.829174" fuel_abs="171.212059" electricity_abs="0"/>
    </tripinfo>
    <tripinfo id="carIn126288:1" depart="57674.00" departLane="272042143_1" departPos="5.10" departSpeed="0.00" departDelay="0.00" arrival="57839.00" arrivalLane="-315358254#1_1" arrivalPos="137.16" arrivalSpeed="14.41" duration="165.00" routeLength="1596.88" waitingTime="23.00" waitingCount="2" stopTime="0.00" timeLoss="58.60" rerouteNo="1" devices="tripinfo_carIn126288:1 routing_carIn126288:1 emissions_carIn126288:1" vType="default_016" speedFactor="1.09" vaporized="">
        <emissions CO_abs="7959.730028" CO2_abs="436991.171928" HC_abs="46.419120" PMx_abs="7.645853" NOx_abs="176.982934" fuel_abs="187.845099" electricity_abs="0"/>
    </tripinfo>
    <tripinfo id="h3864c1:3" depart="57678.00" departLane="24693977#1_1" departPos="5.10" departSpeed="0.00" departDelay="0.00" arrival="57840.00" arrivalLane="201956820_1" arrivalPos="48.33" arrivalSpeed="13.74" duration="162.00" routeLength="1574.85" waitingTime="3.00" waitingCount="1" stopTime="0.00" timeLoss="38.30" rerouteNo="1" devices="tripinfo_h3864c1:3 routing_h3864c1:3 emissions_h3864c1:3" vType="default_016" speedFactor="1.05" vaporized="">
        <emissions CO_abs="7762.692962" CO2_abs="471791.517426" HC_abs="46.447773" PMx_abs="8.566526" NOx_abs="194.616440" fuel_abs="202.803046" electricity_abs="0"/>
    </tripinfo>
    <tripinfo id="h16072c2:3" depart="57663.00" departLane="315358254#0_1" departPos="5.10" departSpeed="0.00" departDelay="2.50" arrival="57841.00" arrivalLane="386687235_1" arrivalPos="80.84" arrivalSpeed="15.23" duration="178.00" routeLength="1611.92" waitingTime="42.00" waitingCount="3" stopTime="0.00" timeLoss="76.01" rerouteNo="1" devices="tripinfo_h16072c2:3 routing_h16072c2:3 emissions_h16072c2:3" vType="default_016" speedFactor="1.16" vaporized="">
        <emissions CO_abs="10494.681396" CO2_abs="470980.524767" HC_abs="58.742439" PMx_abs="8.883845" NOx_abs="194.660511" fuel_abs="202.456435" electricity_abs="0"/>
    </tripinfo>
    <tripinfo id="h17600c1:1" depart="57662.00" departLane="272042143_1" departPos="5.10" departSpeed="0.00" departDelay="0.30" arrival="57852.00" arrivalLane="201238729#3_1" arrivalPos="431.02" arrivalSpeed="13.34" duration="190.00" routeLength="2100.26" waitingTime="14.00" waitingCount="1" stopTime="0.00" timeLoss="35.83" rerouteNo="1" devices="tripinfo_h17600c1:1 routing_h17600c1:1 emissions_h17600c1:1" vType="default_016" speedFactor="0.98" vaporized="">
        <emissions CO_abs="6535.846735" CO2_abs="438391.892686" HC_abs="39.917161" PMx_abs="6.990630" NOx_abs="172.336158" fuel_abs="188.447102" electricity_abs="0"/>
    </tripinfo>
    <tripinfo id="carIn100288:1" depart="57664.00" departLane="128361102#0_1" departPos="5.10" departSpeed="0.00" departDelay="0.60" arrival="57853.00" arrivalLane="201956811#0_1" arrivalPos="40.40" arrivalSpeed="14.90" duration="189.00" routeLength="2067.33" waitingTime="23.00" waitingCount="2" stopTime="0.00" timeLoss="51.82" rerouteNo="1" devices="tripinfo_carIn100288:1 routing_carIn100288:1 emissions_carIn100288:1" vType="default_016" speedFactor="1.10" vaporized="">
        <emissions CO_abs="8459.194480" CO2_abs="525550.710824" HC_abs="50.732493" PMx_abs="9.338993" NOx_abs="212.852730" fuel_abs="225.912223" electricity_abs="0"/>
    </tripinfo>