<?xml version="1.0" encoding="UTF-8"?>

<!-- generated on 2021-10-26 17:52:54 by Eclipse SUMO sumo Version 1.10.0
<configuration xmlns:xsi="http://www.w3.org/2001/XMLSchema-instance" xsi:noNamespaceSchemaLocation="http://sumo.dlr.de/xsd/sumoConfiguration.xsd">

    <input>
        <net-file value="/Users/behradkoohy/sumo-scratchpad/RESCO/environments/ingolstadt21/ingolstadt21.net.xml"/>
        <route-files value="/Users/behradkoohy/sumo-scratchpad/RESCO/environments/ingolstadt21/ingolstadt21.rou.xml"/>
    </input>

    <output>
        <tripinfo-output value="/Users/behradkoohy/sumo-scratchpad/RESCO/logs/IPPO-tr0-ingolstadt21-21-drq_norm-wait_norm/tripinfo_27.xml"/>
        <tripinfo-output.write-unfinished value="true"/>
    </output>

    <time>
        <begin value="57600"/>
        <end value="61200"/>
    </time>

    <processing>
        <time-to-teleport value="-1"/>
    </processing>

    <report>
        <no-warnings value="true"/>
        <no-step-log value="true"/>
    </report>

    <emissions>
        <device.emissions.probability value="1"/>
    </emissions>

    <traci_server>
        <remote-port value="61752"/>
    </traci_server>

    <random_number>
        <random value="true"/>
    </random_number>

</configuration>
-->

<tripinfos xmlns:xsi="http://www.w3.org/2001/XMLSchema-instance" xsi:noNamespaceSchemaLocation="http://sumo.dlr.de/xsd/tripinfo_file.xsd">
    <tripinfo id="h15454c2:3" depart="57612.00" departLane="24608844_1" departPos="5.10" departSpeed="0.00" departDelay="0.50" arrival="57671.00" arrivalLane="32978638#0_1" arrivalPos="49.29" arrivalSpeed="9.46" duration="59.00" routeLength="354.79" waitingTime="0.00" waitingCount="0" stopTime="0.00" timeLoss="11.05" rerouteNo="1" devices="tripinfo_h15454c2:3 routing_h15454c2:3 emissions_h15454c2:3" vType="default_016" speedFactor="0.72" vaporized="">
        <emissions CO_abs="2985.813397" CO2_abs="120009.534627" HC_abs="16.365600" PMx_abs="2.093057" NOx_abs="49.709120" fuel_abs="51.587897" electricity_abs="0"/>
    </tripinfo>
    <tripinfo id="carIn60260:1" depart="57606.00" departLane="315358254#0_1" departPos="5.10" departSpeed="0.00" departDelay="0.90" arrival="57677.00" arrivalLane="399835085#1_1" arrivalPos="212.23" arrivalSpeed="7.63" duration="71.00" routeLength="430.98" waitingTime="10.00" waitingCount="1" stopTime="0.00" timeLoss="20.46" rerouteNo="1" devices="tripinfo_carIn60260:1 routing_carIn60260:1 emissions_carIn60260:1" vType="default_016" speedFactor="0.92" vaporized="">
        <emissions CO_abs="3811.421938" CO2_abs="145905.904731" HC_abs="20.711861" PMx_abs="2.502001" NOx_abs="59.962574" fuel_abs="62.720081" electricity_abs="0"/>
    </tripinfo>
    <tripinfo id="carIn53971:1" depart="57640.00" departLane="272042143_1" departPos="5.10" departSpeed="0.00" departDelay="0.80" arrival="57695.00" arrivalLane="24634414#1_1" arrivalPos="162.19" arrivalSpeed="7.43" duration="55.00" routeLength="493.04" waitingTime="0.00" waitingCount="0" stopTime="0.00" timeLoss="8.84" rerouteNo="1" devices="tripinfo_carIn53971:1 routing_carIn53971:1 emissions_carIn53971:1" vType="default_016" speedFactor="0.99" vaporized="">
        <emissions CO_abs="2560.745715" CO2_abs="145611.478099" HC_abs="15.028862" PMx_abs="2.468289" NOx_abs="59.144646" fuel_abs="62.592547" electricity_abs="0"/>
    </tripinfo>
    <tripinfo id="carIn22761:1" depart="57616.00" departLane="-306240162#1_0" departPos="5.10" departSpeed="0.00" departDelay="2.10" arrival="57708.00" arrivalLane="399835085#1_1" arrivalPos="212.23" arrivalSpeed="7.90" duration="92.00" routeLength="1093.26" waitingTime="0.00" waitingCount="0" stopTime="0.00" timeLoss="13.32" rerouteNo="1" devices="tripinfo_carIn22761:1 routing_carIn22761:1 emissions_carIn22761:1" vType="default_016" speedFactor="0.99" vaporized="">
        <emissions CO_abs="4047.616654" CO2_abs="268983.340547" HC_abs="24.771728" PMx_abs="4.782491" NOx_abs="108.050557" fuel_abs="115.624526" electricity_abs="0"/>
    </tripinfo>
    <tripinfo id="h9563c2:5" depart="57631.00" departLane="315358244_1" departPos="5.10" departSpeed="0.00" departDelay="0.70" arrival="57725.00" arrivalLane="386687235_1" arrivalPos="80.84" arrivalSpeed="13.61" duration="94.00" routeLength="1186.14" waitingTime="0.00" waitingCount="0" stopTime="0.00" timeLoss="11.85" rerouteNo="1" devices="tripinfo_h9563c2:5 routing_h9563c2:5 emissions_h9563c2:5" vType="default_016" speedFactor="1.05" vaporized="">
        <emissions CO_abs="3447.211612" CO2_abs="272425.900678" HC_abs="21.941248" PMx_abs="4.665438" NOx_abs="109.146077" fuel_abs="117.103932" electricity_abs="0"/>
    </tripinfo>
    <tripinfo id="h7800c1:5" depart="57696.00" departLane="-447569998#1_1" departPos="5.10" departSpeed="0.00" departDelay="0.00" arrival="57727.00" arrivalLane="-447569998#1_2" arrivalPos="180.76" arrivalSpeed="6.49" duration="31.00" routeLength="175.66" waitingTime="0.00" waitingCount="0" stopTime="0.00" timeLoss="4.21" rerouteNo="1" devices="tripinfo_h7800c1:5 routing_h7800c1:5 emissions_h7800c1:5" vType="default_016" speedFactor="0.81" vaporized="">
        <emissions CO_abs="1443.042979" CO2_abs="51342.320984" HC_abs="7.738479" PMx_abs="0.837284" NOx_abs="20.960547" fuel_abs="22.070490" electricity_abs="0"/>
    </tripinfo>
    <tripinfo id="h3568c1:3" depart="57656.00" departLane="266565295#5_1" departPos="5.10" departSpeed="0.00" departDelay="0.80" arrival="57733.00" arrivalLane="-24634415_1" arrivalPos="62.03" arrivalSpeed="13.39" duration="77.00" routeLength="807.40" waitingTime="0.00" waitingCount="0" stopTime="0.00" timeLoss="12.34" rerouteNo="1" devices="tripinfo_h3568c1:3 routing_h3568c1:3 emissions_h3568c1:3" vType="default_016" speedFactor="1.00" vaporized="">
        <emissions CO_abs="3250.889465" CO2_abs="208379.257429" HC_abs="19.691201" PMx_abs="3.634340" NOx_abs="84.847442" fuel_abs="89.573445" electricity_abs="0"/>
    </tripinfo>
    <tripinfo id="h3688c1:1" depart="57625.00" departLane="201201950#1_1" departPos="5.10" departSpeed="0.00" departDelay="0.00" arrival="57740.00" arrivalLane="32978638#0_1" arrivalPos="49.29" arrivalSpeed="14.50" duration="115.00" routeLength="1089.75" waitingTime="25.00" waitingCount="1" stopTime="0.00" timeLoss="41.52" rerouteNo="1" devices="tripinfo_h3688c1:1 routing_h3688c1:1 emissions_h3688c1:1" vType="default_016" speedFactor="1.09" vaporized="">
        <emissions CO_abs="7382.947169" CO2_abs="329277.191231" HC_abs="41.306206" PMx_abs="6.262245" NOx_abs="136.531891" fuel_abs="141.543569" electricity_abs="0"/>
    </tripinfo>
    <tripinfo id="h317c2:1" depart="57707.00" departLane="-32978638#0_1" departPos="5.10" departSpeed="0.00" departDelay="0.10" arrival="57740.00" arrivalLane="-266565295#5_1" arrivalPos="172.76" arrivalSpeed="13.89" duration="33.00" routeLength="370.53" waitingTime="0.00" waitingCount="0" stopTime="0.00" timeLoss="6.57" rerouteNo="1" devices="tripinfo_h317c2:1 routing_h317c2:1 emissions_h317c2:1" vType="default_016" speedFactor="1.03" vaporized="">
        <emissions CO_abs="1687.141783" CO2_abs="105149.820792" HC_abs="10.163671" PMx_abs="1.910332" NOx_abs="43.296708" fuel_abs="45.199393" electricity_abs="0"/>
    </tripinfo>
    <tripinfo id="h4538c1:1" depart="57701.00" departLane="-10427692#1_1" departPos="5.10" departSpeed="0.00" departDelay="0.00" arrival="57748.00" arrivalLane="-128361102#1_1" arrivalPos="274.68" arrivalSpeed="12.96" duration="47.00" routeLength="440.74" waitingTime="3.00" waitingCount="1" stopTime="0.00" timeLoss="13.13" rerouteNo="1" devices="tripinfo_h4538c1:1 routing_h4538c1:1 emissions_h4538c1:1" vType="default_016" speedFactor="0.95" vaporized="">
        <emissions CO_abs="1818.393443" CO2_abs="120923.676974" HC_abs="11.091436" PMx_abs="1.947706" NOx_abs="48.033317" fuel_abs="51.980189" electricity_abs="0"/>
    </tripinfo>
    <tripinfo id="carIn121703:1" depart="57647.00" departLane="386687232#0_1" departPos="5.10" departSpeed="0.00" departDelay="0.30" arrival="57752.00" arrivalLane="-315358244_1" arrivalPos="33.95" arrivalSpeed="14.44" duration="105.00" routeLength="1157.39" waitingTime="14.00" waitingCount="1" stopTime="0.00" timeLoss="25.87" rerouteNo="1" devices="tripinfo_carIn121703:1 routing_carIn121703:1 emissions_carIn121703:1" vType="default_016" speedFactor="1.07" vaporized="">
        <emissions CO_abs="4266.571073" CO2_abs="263298.859498" HC_abs="25.526255" PMx_abs="4.390696" NOx_abs="104.135109" fuel_abs="113.181681" electricity_abs="0"/>
    </tripinfo>
    <tripinfo id="h5979c1:5" depart="57669.00" departLane="399835085#1_1" departPos="5.10" departSpeed="0.00" departDelay="0.00" arrival="57753.00" arrivalLane="-315358254#1_1" arrivalPos="137.16" arrivalSpeed="12.89" duration="84.00" routeLength="659.33" waitingTime="0.00" waitingCount="0" stopTime="0.00" timeLoss="11.48" rerouteNo="1" devices="tripinfo_h5979c1:5 routing_h5979c1:5 emissions_h5979c1:5" vType="default_016" speedFactor="1.00" vaporized="">
        <emissions CO_abs="3268.391431" CO2_abs="163374.531940" HC_abs="18.634564" PMx_abs="2.692363" NOx_abs="66.340477" fuel_abs="70.228580" electricity_abs="0"/>
    </tripinfo>
    <tripinfo id="h3326c1:2" depart="57656.00" departLane="22716069#0_1" departPos="5.10" departSpeed="0.00" departDelay="0.00" arrival="57758.00" arrivalLane="24634517#13_1" arrivalPos="111.62" arrivalSpeed="14.66" duration="102.00" routeLength="1312.81" waitingTime="0.00" waitingCount="0" stopTime="0.00" timeLoss="15.57" rerouteNo="1" devices="tripinfo_h3326c1:2 routing_h3326c1:2 emissions_h3326c1:2" vType="default_016" speedFactor="1.14" vaporized="">
        <emissions CO_abs="3970.564547" CO2_abs="303889.667675" HC_abs="25.266516" PMx_abs="5.476612" NOx_abs="123.502099" fuel_abs="130.628549" electricity_abs="0"/>
    </tripinfo>
    <tripinfo id="carIn30817:1" depart="57681.00" departLane="315358244_1" departPos="5.10" departSpeed="0.00" departDelay="0.20" arrival="57763.00" arrivalLane="447569997#1_1" arrivalPos="180.93" arrivalSpeed="8.72" duration="82.00" routeLength="718.04" waitingTime="10.00" waitingCount="1" stopTime="0.00" timeLoss="23.39" rerouteNo="1" devices="tripinfo_carIn30817:1 routing_carIn30817:1 emissions_carIn30817:1" vType="default_016" speedFactor="1.06" vaporized="">
        <emissions CO_abs="3847.818306" CO2_abs="209622.702163" HC_abs="22.454381" PMx_abs="3.831777" NOx_abs="86.659499" fuel_abs="90.108158" electricity_abs="0"/>
    </tripinfo>
    <tripinfo id="carIn80064:1" depart="57603.00" departLane="128361109#1_1" departPos="5.10" departSpeed="0.00" departDelay="0.40" arrival="57769.00" arrivalLane="-315358254#1_1" arrivalPos="137.16" arrivalSpeed="10.89" duration="166.00" routeLength="1587.97" waitingTime="33.00" waitingCount="3" stopTime="0.00" timeLoss="62.48" rerouteNo="1" devices="tripinfo_carIn80064:1 routing_carIn80064:1 emissions_carIn80064:1" vType="default_016" speedFactor="0.86" vaporized="">
        <emissions CO_abs="10353.235301" CO2_abs="496493.840531" HC_abs="58.844245" PMx_abs="9.428725" NOx_abs="205.029424" fuel_abs="213.423007" electricity_abs="0"/>
    </tripinfo>
    <tripinfo id="carIn27009:1" depart="57673.00" departLane="-447569998#1_1" departPos="5.10" departSpeed="0.00" departDelay="0.50" arrival="57769.00" arrivalLane="-26677539_1" arrivalPos="152.75" arrivalSpeed="7.02" duration="96.00" routeLength="699.63" waitingTime="0.00" waitingCount="0" stopTime="0.00" timeLoss="11.24" rerouteNo="1" devices="tripinfo_carIn27009:1 routing_carIn27009:1 emissions_carIn27009:1" vType="default_015" speedFactor="0.99" vaporized="">
        <emissions CO_abs="3886.091223" CO2_abs="182482.076438" HC_abs="21.864210" PMx_abs="2.851018" NOx_abs="73.353025" fuel_abs="78.442613" electricity_abs="0"/>
    </tripinfo>
    <tripinfo id="h330c1:1" depart="57736.00" departLane="-32978638#0_1" departPos="5.10" departSpeed="0.00" departDelay="0.20" arrival="57770.00" arrivalLane="-266565295#5_1" arrivalPos="172.76" arrivalSpeed="12.78" duration="34.00" routeLength="370.53" waitingTime="0.00" waitingCount="0" stopTime="0.00" timeLoss="5.69" rerouteNo="1" devices="tripinfo_h330c1:1 routing_h330c1:1 emissions_h330c1:1" vType="default_016" speedFactor="0.96" vaporized="">
        <emissions CO_abs="1626.694037" CO2_abs="99615.680674" HC_abs="9.749651" PMx_abs="1.777216" NOx_abs="40.875451" fuel_abs="42.820571" electricity_abs="0"/>
    </tripinfo>
    <tripinfo id="h3154c1:1" depart="57658.00" departLane="24634507_1" departPos="5.10" departSpeed="0.00" departDelay="0.00" arrival="57776.00" arrivalLane="-266565295#5_1" arrivalPos="172.76" arrivalSpeed="13.23" duration="118.00" routeLength="1206.22" waitingTime="7.00" waitingCount="1" stopTime="0.00" timeLoss="24.69" rerouteNo="1" devices="tripinfo_h3154c1:1 routing_h3154c1:1 emissions_h3154c1:1" vType="default_016" speedFactor="0.96" vaporized="">
        <emissions CO_abs="4837.488221" CO2_abs="302734.447235" HC_abs="29.129514" PMx_abs="5.301682" NOx_abs="123.235402" fuel_abs="130.132840" electricity_abs="0"/>
    </tripinfo>
    <tripinfo id="h11737c1:1" depart="57665.00" departLane="272042143_1" departPos="5.10" departSpeed="0.00" departDelay="1.50" arrival="57782.00" arrivalLane="-315358254#1_1" arrivalPos="137.16" arrivalSpeed="14.84" duration="117.00" routeLength="1596.88" waitingTime="0.00" waitingCount="0" stopTime="0.00" timeLoss="14.64" rerouteNo="1" devices="tripinfo_h11737c1:1 routing_h11737c1:1 emissions_h11737c1:1" vType="default_016" speedFactor="1.14" vaporized="">
        <emissions CO_abs="4013.617013" CO2_abs="337195.530959" HC_abs="26.112513" PMx_abs="5.869193" NOx_abs="134.838243" fuel_abs="144.945295" electricity_abs="0"/>
    </tripinfo>
    <tripinfo id="h12244c1:3" depart="57612.00" departLane="315358244_1" departPos="5.10" departSpeed="0.00" departDelay="0.40" arrival="57792.00" arrivalLane="386687235_1" arrivalPos="80.84" arrivalSpeed="12.92" duration="180.00" routeLength="1186.14" waitingTime="65.00" waitingCount="3" stopTime="0.00" timeLoss="89.15" rerouteNo="1" devices="tripinfo_h12244c1:3 routing_h12244c1:3 emissions_h12244c1:3" vType="default_016" speedFactor="0.95" vaporized="">
        <emissions CO_abs="12703.150190" CO2_abs="427902.740816" HC_abs="67.858277" PMx_abs="8.328554" NOx_abs="179.919452" fuel_abs="183.941147" electricity_abs="0"/>
    </tripinfo>
    <tripinfo id="S5R_frequency1.2" depart="57634.00" departLane="315358250#0_1" departPos="12.10" departSpeed="0.00" departDelay="22.40" arrival="57797.00" arrivalLane="386687235_1" arrivalPos="80.84" arrivalSpeed="12.95" duration="163.00" routeLength="1115.62" waitingTime="53.00" waitingCount="2" stopTime="0.00" timeLoss="82.04" rerouteNo="1" devices="tripinfo_S5R_frequency1.2 routing_S5R_frequency1.2 emissions_S5R_frequency1.2" vType="bus" speedFactor="1.00" vaporized="">
        <emissions CO_abs="3344.835421" CO2_abs="1779138.585871" HC_abs="715.838109" PMx_abs="350.875233" NOx_abs="14673.496226" fuel_abs="758.667956" electricity_abs="0"/>
    </tripinfo>
    <tripinfo id="carIn50326:1" depart="57651.00" departLane="128361102#0_1" departPos="5.10" departSpeed="0.00" departDelay="0.30" arrival="57798.00" arrivalLane="18809673#0_1" arrivalPos="473.56" arrivalSpeed="14.96" duration="147.00" routeLength="1591.07" waitingTime="12.00" waitingCount="1" stopTime="0.00" timeLoss="33.73" rerouteNo="1" devices="tripinfo_carIn50326:1 routing_carIn50326:1 emissions_carIn50326:1" vType="default_016" speedFactor="1.15" vaporized="">
        <emissions CO_abs="5691.295639" CO2_abs="380282.715401" HC_abs="34.668482" PMx_abs="6.525472" NOx_abs="152.413856" fuel_abs="163.467588" electricity_abs="0"/>
    </tripinfo>
    <tripinfo id="carIn107282:1" depart="57749.00" departLane="-447569998#1_1" departPos="5.10" departSpeed="0.00" departDelay="0.00" arrival="57799.00" arrivalLane="315358242#0_1" arrivalPos="165.37" arrivalSpeed="11.85" duration="50.00" routeLength="448.50" waitingTime="0.00" waitingCount="0" stopTime="0.00" timeLoss="5.32" rerouteNo="1" devices="tripinfo_carIn107282:1 routing_carIn107282:1 emissions_carIn107282:1" vType="default_016" speedFactor="0.94" vaporized="">
        <emissions CO_abs="1790.293280" CO2_abs="100055.763324" HC_abs="10.464035" PMx_abs="1.610210" NOx_abs="40.084551" fuel_abs="43.010128" electricity_abs="0"/>
    </tripinfo>
    <tripinfo id="carIn129809:1" depart="57729.00" departLane="-447569998#1_1" departPos="5.10" departSpeed="0.00" departDelay="1.00" arrival="57804.00" arrivalLane="-315358244_1" arrivalPos="33.95" arrivalSpeed="12.29" duration="75.00" routeLength="706.49" waitingTime="0.00" waitingCount="0" stopTime="0.00" timeLoss="8.52" rerouteNo="1" devices="tripinfo_carIn129809:1 routing_carIn129809:1 emissions_carIn129809:1" vType="default_015" speedFactor="0.90" vaporized="">
        <emissions CO_abs="2470.163110" CO2_abs="148724.156863" HC_abs="14.666796" PMx_abs="2.257756" NOx_abs="58.523122" fuel_abs="63.930864" electricity_abs="0"/>
    </tripinfo>
    <tripinfo id="carIn86816:1" depart="57617.00" departLane="128361102#0_1" departPos="5.10" departSpeed="0.00" departDelay="0.80" arrival="57805.00" arrivalLane="201956811#0_1" arrivalPos="40.40" arrivalSpeed="12.48" duration="188.00" routeLength="2067.33" waitingTime="9.00" waitingCount="1" stopTime="0.00" timeLoss="31.94" rerouteNo="1" devices="tripinfo_carIn86816:1 routing_carIn86816:1 emissions_carIn86816:1" vType="default_016" speedFactor="0.97" vaporized="">
        <emissions CO_abs="6485.278791" CO2_abs="462615.926412" HC_abs="40.347110" PMx_abs="7.730422" NOx_abs="184.997966" fuel_abs="198.859067" electricity_abs="0"/>
    </tripinfo>
    <tripinfo id="carIn81860:1" depart="57712.00" departLane="128361102#0_1" departPos="5.10" departSpeed="0.00" departDelay="0.60" arrival="57810.00" arrivalLane="-24634517#17_1" arrivalPos="6.43" arrivalSpeed="7.91" duration="98.00" routeLength="1229.64" waitingTime="0.00" waitingCount="0" stopTime="0.00" timeLoss="19.38" rerouteNo="1" devices="tripinfo_carIn81860:1 routing_carIn81860:1 emissions_carIn81860:1" vType="default_016" speedFactor="1.15" vaporized="">
        <emissions CO_abs="4240.541264" CO2_abs="302647.898099" HC_abs="26.472651" PMx_abs="5.492415" NOx_abs="123.340368" fuel_abs="130.094946" electricity_abs="0"/>
    </tripinfo>
    <tripinfo id="carIn12365:1" depart="57713.00" departLane="315358244_1" departPos="5.10" departSpeed="0.00" departDelay="0.50" arrival="57815.00" arrivalLane="447569997#1_1" arrivalPos="180.93" arrivalSpeed="7.32" duration="102.00" routeLength="718.04" waitingTime="18.00" waitingCount="1" stopTime="0.00" timeLoss="38.96" rerouteNo="1" devices="tripinfo_carIn12365:1 routing_carIn12365:1 emissions_carIn12365:1" vType="default_016" speedFactor="0.98" vaporized="">
        <emissions CO_abs="5441.103522" CO2_abs="225173.969726" HC_abs="30.012790" PMx_abs="4.067152" NOx_abs="93.018426" fuel_abs="96.794173" electricity_abs="0"/>
    </tripinfo>
    <tripinfo id="carIn126288:1" depart="57674.00" departLane="272042143_1" departPos="5.10" departSpeed="0.00" departDelay="0.00" arrival="57817.00" arrivalLane="-315358254#1_1" arrivalPos="137.16" arrivalSpeed="14.43" duration="143.00" routeLength="1596.88" waitingTime="13.00" waitingCount="2" stopTime="0.00" timeLoss="33.48" rerouteNo="1" devices="tripinfo_carIn126288:1 routing_carIn126288:1 emissions_carIn126288:1" vType="default_016" speedFactor="1.07" vaporized="">
        <emissions CO_abs="4589.552671" CO2_abs="369656.738241" HC_abs="29.474414" PMx_abs="5.972262" NOx_abs="145.162304" fuel_abs="158.899768" electricity_abs="0"/>
    </tripinfo>
    <tripinfo id="h17600c1:1" depart="57662.00" departLane="272042143_1" departPos="5.10" departSpeed="0.00" departDelay="0.30" arrival="57818.00" arrivalLane="201238729#3_1" arrivalPos="431.02" arrivalSpeed="14.78" duration="156.00" routeLength="2100.26" waitingTime="0.00" waitingCount="0" stopTime="0.00" timeLoss="21.85" rerouteNo="1" devices="tripinfo_h17600c1:1 routing_h17600c1:1 emissions_h17600c1:1" vType="default_016" speedFactor="1.13" vaporized="">
        <emissions CO_abs="5248.179715" CO2_abs="439534.262705" HC_abs="34.052598" PMx_abs="7.547458" NOx_abs="174.822477" fuel_abs="188.936335" electricity_abs="0"/>
    </tripinfo>
    <tripinfo id="carIn48184:1" depart="57613.00" departLane="-306240162#1_0" departPos="5.10" departSpeed="0.00" departDelay="0.70" arrival="57819.00" arrivalLane="386687235_2" arrivalPos="80.84" arrivalSpeed="13.41" duration="206.00" routeLength="2257.41" waitingTime="33.00" waitingCount="1" stopTime="0.00" timeLoss="59.26" rerouteNo="1" devices="tripinfo_carIn48184:1 routing_carIn48184:1 emissions_carIn48184:1" vType="default_016" speedFactor="1.01" vaporized="">
        <emissions CO_abs="10647.056991" CO2_abs="560074.919359" HC_abs="61.646639" PMx_abs="10.176136" NOx_abs="227.028073" fuel_abs="240.753945" electricity_abs="0"/>
    </tripinfo>
    <tripinfo id="h16072c2:3" depart="57663.00" departLane="315358254#0_1" departPos="5.10" departSpeed="0.00" departDelay="2.50" arrival="57819.00" arrivalLane="386687235_1" arrivalPos="80.84" arrivalSpeed="12.81" duration="156.00" routeLength="1611.92" waitingTime="17.00" waitingCount="1" stopTime="0.00" timeLoss="32.59" rerouteNo="1" devices="tripinfo_h16072c2:3 routing_h16072c2:3 emissions_h16072c2:3" vType="default_016" speedFactor="0.95" vaporized="">
        <emissions CO_abs="5529.804082" CO2_abs="337705.126503" HC_abs="33.051552" PMx_abs="5.628045" NOx_abs="134.912777" fuel_abs="145.165893" electricity_abs="0"/>
    </tripinfo>
    <tripinfo id="carIn85747:1" depart="57673.00" departLane="128361109#1_1" departPos="5.10" departSpeed="0.00" departDelay="0.70" arrival="57821.00" arrivalLane="386687235_1" arrivalPos="80.84" arrivalSpeed="13.94" duration="148.00" routeLength="2088.57" waitingTime="0.00" waitingCount="0" stopTime="0.00" timeLoss="10.25" rerouteNo="1" devices="tripinfo_carIn85747:1 routing_carIn85747:1 emissions_carIn85747:1" vType="default_016" speedFactor="1.09" vaporized="">
        <emissions CO_abs="2632.227302" CO2_abs="328792.425651" HC_abs="19.407075" PMx_abs="4.696691" NOx_abs="122.947749" fuel_abs="141.333828" electricity_abs="0"/>
    </tripinfo>
    <tripinfo id="carIn7949:1" depart="57676.00" departLane="128361109#1_1" departPos="5.10" departSpeed="0.00" departDelay="2.10" arrival="57823.00" arrivalLane="386687235_1" arrivalPos="80.84" arrivalSpeed="14.02" duration="147.00" routeLength="2088.57" waitingTime="0.00" waitingCount="0" stopTime="0.00" timeLoss="9.52" rerouteNo="1" devices="tripinfo_carIn7949:1 routing_carIn7949:1 emissions_carIn7949:1" vType="default_016" speedFactor="1.10" vaporized="">
        <emissions CO_abs="2726.459879" CO2_abs="337231.098982" HC_abs="19.984037" PMx_abs="4.894106" NOx_abs="126.656133" fuel_abs="144.961142" electricity_abs="0"/>
    </tripinfo>
    <tripinfo id="h7181c1:1" depart="57660.00" departLane="315358254#0_1" departPos="5.10" departSpeed="0.00" departDelay="0.10" arrival="57824.00" arrivalLane="306240162#0_0" arrivalPos="220.43" arrivalSpeed="13.29" duration="164.00" routeLength="932.35" waitingTime="83.00" waitingCount="2" stopTime="0.00" timeLoss="100.75" rerouteNo="1" devices="tripinfo_h7181c1:1 routing_h7181c1:1 emissions_h7181c1:1" vType="default_016" speedFactor="0.82" vaporized="">
        <emissions CO_abs="14901.132530" CO2_abs="426090.885428" HC_abs="77.738037" PMx_abs="8.798117" NOx_abs="181.455697" fuel_abs="183.163522" electricity_abs="0"/>
    </tripinfo>
    <tripinfo id="carIn12858:1" depart="57661.00" departLane="128361109#1_1" departPos="5.10" departSpeed="0.00" departDelay="0.90" arrival="57829.00" arrivalLane="399835085#1_1" arrivalPos="212.23" arrivalSpeed="8.82" duration="168.00" routeLength="1738.12" waitingTime="34.00" waitingCount="2" stopTime="0.00" timeLoss="65.62" rerouteNo="1" devices="tripinfo_carIn12858:1 routing_carIn12858:1 emissions_carIn12858:1" vType="default_016" speedFactor="1.12" vaporized="">
        <emissions CO_abs="12004.950846" CO2_abs="582775.774031" HC_abs="68.649979" PMx_abs="11.943124" NOx_abs="244.576093" fuel_abs="250.510914" electricity_abs="0"/>
    </tripinfo>
    <tripinfo id="carIn107084:1" depart="57601.00" departLane="124812856#0_1" departPos="5.10" departSpeed="0.00" departDelay="0.70" arrival="57834.00" arrivalLane="-128361102#1_1" arrivalPos="274.68" arrivalSpeed="14.48" duration="233.00" routeLength="2250.49" waitingTime="49.00" waitingCount="2" stopTime="0.00" timeLoss="82.10" rerouteNo="1" devices="tripinfo_carIn107084:1 routing_carIn107084:1 emissions_carIn107084:1" vType="default_016" speedFactor="1.09" vaporized="">
        <emissions CO_abs="13568.299013" CO2_abs="645024.731915" HC_abs="76.666918" PMx_abs="11.841549" NOx_abs="263.867756" fuel_abs="277.271211" electricity_abs="0"/>
    </tripinfo>
    <tripinfo id="carIn82278:1" depart="57702.00" departLane="-306240162#1_0" departPos="5.10" departSpeed="0.00" departDelay="0.70" arrival="57836.00" arrivalLane="399835085#1_1" arrivalPos="212.23" arrivalSpeed="8.21" duration="134.00" routeLength="1093.26" waitingTime="29.00" waitingCount="2" stopTime="0.00" timeLoss="59.23" rerouteNo="1" devices="tripinfo_carIn82278:1 routing_carIn82278:1 emissions_carIn82278:1" vType="default_016" speedFactor="1.04" vaporized="">
        <emissions CO_abs="8823.896555" CO2_abs="392456.187766" HC_abs="49.506571" PMx_abs="7.801367" NOx_abs="165.025230" fuel_abs="168.701296" electricity_abs="0"/>
    </tripinfo>
    <tripinfo id="randUni15030:1" depart="57735.00" departLane="386687232#0_1" departPos="5.10" departSpeed="0.00" departDelay="0.10" arrival="57836.00" arrivalLane="26677539_1" arrivalPos="151.98" arrivalSpeed="6.60" duration="101.00" routeLength="919.89" waitingTime="0.00" waitingCount="0" stopTime="0.00" timeLoss="11.68" rerouteNo="1" devices="tripinfo_randUni15030:1 routing_randUni15030:1 emissions_randUni15030:1" vType="random_016" speedFactor="0.93" vaporized="">
        <emissions CO_abs="3638.601723" CO2_abs="209540.317743" HC_abs="21.396085" PMx_abs="3.282318" NOx_abs="83.371005" fuel_abs="90.073374" electricity_abs="0"/>
    </tripinfo>
    <tripinfo id="50R_frequency3.17" depart="57674.00" departLane="-18809673#6_1" departPos="12.10" departSpeed="0.00" departDelay="0.70" arrival="57837.00" arrivalLane="201956811#0_1" arrivalPos="40.40" arrivalSpeed="12.78" duration="163.00" routeLength="1954.47" waitingTime="0.00" waitingCount="0" stopTime="0.00" timeLoss="17.50" rerouteNo="1" devices="tripinfo_50R_frequency3.17 routing_50R_frequency3.17 emissions_50R_frequency3.17" vType="bus" speedFactor="1.00" vaporized="">
        <emissions CO_abs="3207.008821" CO2_abs="2052414.464560" HC_abs="682.823620" PMx_abs="345.360493" NOx_abs="15797.180912" fuel_abs="875.356131" electricity_abs="0"/>
    </tripinfo>
    <tripinfo id="carIn77943:1" depart="57608.00" departLane="124812856#0_1" departPos="5.10" departSpeed="0.00" departDelay="2.50" arrival="57841.00" arrivalLane="-128361102#1_1" arrivalPos="274.68" arrivalSpeed="12.24" duration="233.00" routeLength="2250.49" waitingTime="26.00" waitingCount="1" stopTime="0.00" timeLoss="54.70" rerouteNo="1" devices="tripinfo_carIn77943:1 routing_carIn77943:1 emissions_carIn77943:1" vType="default_016" speedFactor="0.92" vaporized="">
        <emissions CO_abs="9917.804031" CO2_abs="529843.900684" HC_abs="57.519533" PMx_abs="9.073734" NOx_abs="214.221546" fuel_abs="227.759239" electricity_abs="0"/>
    </tripinfo>
    <tripinfo id="carIn81046:1" depart="57611.00" departLane="124812856#0_1" departPos="5.10" departSpeed="0.00" departDelay="2.50" arrival="57843.00" arrivalLane="-128361102#1_1" arrivalPos="274.68" arrivalSpeed="14.14" duration="232.00" routeLength="2250.49" waitingTime="24.00" waitingCount="1" stopTime="0.00" timeLoss="72.36" rerouteNo="1" devices="tripinfo_carIn81046:1 routing_carIn81046:1 emissions_carIn81046:1" vType="default_016" speedFactor="1.03" vaporized="">
        <emissions CO_abs="11377.633692" CO2_abs="626695.454903" HC_abs="66.521351" PMx_abs="11.185050" NOx_abs="256.365386" fuel_abs="269.390947" electricity_abs="0"/>
    </tripinfo>
    <tripinfo id="h645c1:1" depart="57622.00" departLane="266565295#5_1" departPos="5.10" departSpeed="0.00" departDelay="0.40" arrival="57844.00" arrivalLane="-315358244_1" arrivalPos="33.95" arrivalSpeed="14.02" duration="222.00" routeLength="1910.83" waitingTime="55.00" waitingCount="4" stopTime="0.00" timeLoss="87.13" rerouteNo="1" devices="tripinfo_h645c1:1 routing_h645c1:1 emissions_h645c1:1" vType="default_016" speedFactor="1.03" vaporized="">
        <emissions CO_abs="12127.532143" CO2_abs="553348.931866" HC_abs="68.129445" PMx_abs="10.132296" NOx_abs="227.116133" fuel_abs="237.863720" electricity_abs="0"/>
    </tripinfo>
    <tripinfo id="carIn102915:1" depart="57643.00" departLane="128361102#0_1" departPos="5.10" departSpeed="0.00" departDelay="0.40" arrival="57846.00" arrivalLane="201956811#0_1" arrivalPos="40.40" arrivalSpeed="11.77" duration="203.00" routeLength="2067.33" waitingTime="12.00" waitingCount="1" stopTime="0.00" timeLoss="32.56" rerouteNo="1" devices="tripinfo_carIn102915:1 routing_carIn102915:1 emissions_carIn102915:1" vType="default_016" speedFactor="0.89" vaporized="">
        <emissions CO_abs="6465.665412" CO2_abs="436814.495199" HC_abs="39.545628" PMx_abs="6.745080" NOx_abs="171.530698" fuel_abs="187.769218" electricity_abs="0"/>
    </tripinfo>
    <tripinfo id="carIn73855:1" depart="57743.00" departLane="386687232#0_1" departPos="5.10" departSpeed="0.00" departDelay="0.50" arrival="57846.00" arrivalLane="-315358244_1" arrivalPos="33.95" arrivalSpeed="14.28" duration="103.00" routeLength="1157.39" waitingTime="7.00" waitingCount="1" stopTime="0.00" timeLoss="21.42" rerouteNo="1" devices="tripinfo_carIn73855:1 routing_carIn73855:1 emissions_carIn73855:1" vType="default_016" speedFactor="1.04" vaporized="">
        <emissions CO_abs="3237.797659" CO2_abs="257377.038885" HC_abs="20.680447" PMx_abs="4.093683" NOx_abs="100.818402" fuel_abs="110.635597" electricity_abs="0"/>
    </tripinfo>