<?xml version="1.0" encoding="UTF-8"?>

<!-- generated on 2021-10-26 18:22:56 by Eclipse SUMO sumo Version 1.10.0
<configuration xmlns:xsi="http://www.w3.org/2001/XMLSchema-instance" xsi:noNamespaceSchemaLocation="http://sumo.dlr.de/xsd/sumoConfiguration.xsd">

    <input>
        <net-file value="/Users/behradkoohy/sumo-scratchpad/RESCO/environments/ingolstadt21/ingolstadt21.net.xml"/>
        <route-files value="/Users/behradkoohy/sumo-scratchpad/RESCO/environments/ingolstadt21/ingolstadt21.rou.xml"/>
    </input>

    <output>
        <tripinfo-output value="/Users/behradkoohy/sumo-scratchpad/RESCO/logs/IPPO-tr0-ingolstadt21-21-drq_norm-wait_norm/tripinfo_64.xml"/>
        <tripinfo-output.write-unfinished value="true"/>
    </output>

    <time>
        <begin value="57600"/>
        <end value="61200"/>
    </time>

    <processing>
        <time-to-teleport value="-1"/>
    </processing>

    <report>
        <no-warnings value="true"/>
        <no-step-log value="true"/>
    </report>

    <emissions>
        <device.emissions.probability value="1"/>
    </emissions>

    <traci_server>
        <remote-port value="62288"/>
    </traci_server>

    <random_number>
        <random value="true"/>
    </random_number>

</configuration>
-->

<tripinfos xmlns:xsi="http://www.w3.org/2001/XMLSchema-instance" xsi:noNamespaceSchemaLocation="http://sumo.dlr.de/xsd/tripinfo_file.xsd">
    <tripinfo id="h15454c2:3" depart="57612.00" departLane="24608844_1" departPos="5.10" departSpeed="0.00" departDelay="0.50" arrival="57658.00" arrivalLane="32978638#0_1" arrivalPos="49.29" arrivalSpeed="13.07" duration="46.00" routeLength="354.79" waitingTime="1.00" waitingCount="1" stopTime="0.00" timeLoss="10.94" rerouteNo="1" devices="tripinfo_h15454c2:3 routing_h15454c2:3 emissions_h15454c2:3" vType="default_016" speedFactor="0.98" vaporized="">
        <emissions CO_abs="2520.488695" CO2_abs="126956.415472" HC_abs="14.439509" PMx_abs="2.252806" NOx_abs="52.473911" fuel_abs="54.573551" electricity_abs="0"/>
    </tripinfo>
    <tripinfo id="carIn60260:1" depart="57606.00" departLane="315358254#0_1" departPos="5.10" departSpeed="0.00" departDelay="0.90" arrival="57682.00" arrivalLane="399835085#1_1" arrivalPos="212.23" arrivalSpeed="7.78" duration="76.00" routeLength="430.98" waitingTime="21.00" waitingCount="1" stopTime="0.00" timeLoss="30.84" rerouteNo="1" devices="tripinfo_carIn60260:1 routing_carIn60260:1 emissions_carIn60260:1" vType="default_016" speedFactor="1.03" vaporized="">
        <emissions CO_abs="5386.738061" CO2_abs="171346.220041" HC_abs="28.512698" PMx_abs="3.278078" NOx_abs="72.303584" fuel_abs="73.656317" electricity_abs="0"/>
    </tripinfo>
    <tripinfo id="carIn53971:1" depart="57640.00" departLane="272042143_1" departPos="5.10" departSpeed="0.00" departDelay="0.80" arrival="57695.00" arrivalLane="24634414#1_1" arrivalPos="162.19" arrivalSpeed="7.76" duration="55.00" routeLength="493.04" waitingTime="0.00" waitingCount="0" stopTime="0.00" timeLoss="7.71" rerouteNo="1" devices="tripinfo_carIn53971:1 routing_carIn53971:1 emissions_carIn53971:1" vType="default_016" speedFactor="0.97" vaporized="">
        <emissions CO_abs="2484.630328" CO2_abs="141282.017564" HC_abs="14.602497" PMx_abs="2.394719" NOx_abs="57.414298" fuel_abs="60.731486" electricity_abs="0"/>
    </tripinfo>
    <tripinfo id="h7800c1:5" depart="57696.00" departLane="-447569998#1_1" departPos="5.10" departSpeed="0.00" departDelay="0.00" arrival="57717.00" arrivalLane="-447569998#1_2" arrivalPos="180.76" arrivalSpeed="9.43" duration="21.00" routeLength="175.66" waitingTime="0.00" waitingCount="0" stopTime="0.00" timeLoss="3.34" rerouteNo="1" devices="tripinfo_h7800c1:5 routing_h7800c1:5 emissions_h7800c1:5" vType="default_016" speedFactor="1.21" vaporized="">
        <emissions CO_abs="1147.112332" CO2_abs="58941.189315" HC_abs="6.593630" PMx_abs="1.018198" NOx_abs="24.213922" fuel_abs="25.336510" electricity_abs="0"/>
    </tripinfo>
    <tripinfo id="h7181c1:1" depart="57660.00" departLane="315358254#0_1" departPos="5.10" departSpeed="0.00" departDelay="0.10" arrival="57732.00" arrivalLane="306240162#0_0" arrivalPos="220.43" arrivalSpeed="14.59" duration="72.00" routeLength="932.35" waitingTime="5.00" waitingCount="1" stopTime="0.00" timeLoss="14.03" rerouteNo="1" devices="tripinfo_h7181c1:1 routing_h7181c1:1 emissions_h7181c1:1" vType="default_016" speedFactor="0.88" vaporized="">
        <emissions CO_abs="3368.819686" CO2_abs="239716.554144" HC_abs="20.952038" PMx_abs="4.409577" NOx_abs="97.229193" fuel_abs="103.043535" electricity_abs="0"/>
    </tripinfo>
    <tripinfo id="h3688c1:1" depart="57625.00" departLane="201201950#1_1" departPos="5.10" departSpeed="0.00" departDelay="0.00" arrival="57737.00" arrivalLane="32978638#0_1" arrivalPos="49.29" arrivalSpeed="10.28" duration="112.00" routeLength="1089.75" waitingTime="0.00" waitingCount="0" stopTime="0.00" timeLoss="11.45" rerouteNo="1" devices="tripinfo_h3688c1:1 routing_h3688c1:1 emissions_h3688c1:1" vType="default_016" speedFactor="0.80" vaporized="">
        <emissions CO_abs="3608.178501" CO2_abs="239753.951840" HC_abs="21.949849" PMx_abs="3.634981" NOx_abs="94.448967" fuel_abs="103.060787" electricity_abs="0"/>
    </tripinfo>
    <tripinfo id="h3568c1:3" depart="57656.00" departLane="266565295#5_1" departPos="5.10" departSpeed="0.00" departDelay="0.80" arrival="57737.00" arrivalLane="-24634415_1" arrivalPos="62.03" arrivalSpeed="13.71" duration="81.00" routeLength="807.40" waitingTime="4.00" waitingCount="1" stopTime="0.00" timeLoss="23.47" rerouteNo="1" devices="tripinfo_h3568c1:3 routing_h3568c1:3 emissions_h3568c1:3" vType="default_016" speedFactor="1.13" vaporized="">
        <emissions CO_abs="4213.773163" CO2_abs="264435.271596" HC_abs="25.400681" PMx_abs="4.850048" NOx_abs="108.930168" fuel_abs="113.669293" electricity_abs="0"/>
    </tripinfo>
    <tripinfo id="h317c2:1" depart="57707.00" departLane="-32978638#0_1" departPos="5.10" departSpeed="0.00" departDelay="0.10" arrival="57740.00" arrivalLane="-266565295#5_1" arrivalPos="172.76" arrivalSpeed="13.76" duration="33.00" routeLength="370.53" waitingTime="0.00" waitingCount="0" stopTime="0.00" timeLoss="5.69" rerouteNo="1" devices="tripinfo_h317c2:1 routing_h317c2:1 emissions_h317c2:1" vType="default_016" speedFactor="1.02" vaporized="">
        <emissions CO_abs="1597.286108" CO2_abs="105758.797216" HC_abs="9.768901" PMx_abs="1.899116" NOx_abs="43.319561" fuel_abs="45.461124" electricity_abs="0"/>
    </tripinfo>
    <tripinfo id="carIn30817:1" depart="57681.00" departLane="315358244_1" departPos="5.10" departSpeed="0.00" departDelay="0.20" arrival="57747.00" arrivalLane="447569997#1_1" arrivalPos="180.93" arrivalSpeed="8.52" duration="66.00" routeLength="718.04" waitingTime="0.00" waitingCount="0" stopTime="0.00" timeLoss="6.69" rerouteNo="1" devices="tripinfo_carIn30817:1 routing_carIn30817:1 emissions_carIn30817:1" vType="default_016" speedFactor="1.04" vaporized="">
        <emissions CO_abs="2249.137558" CO2_abs="152051.703138" HC_abs="13.800073" PMx_abs="2.564499" NOx_abs="61.135073" fuel_abs="65.360659" electricity_abs="0"/>
    </tripinfo>
    <tripinfo id="h12244c1:3" depart="57612.00" departLane="315358244_1" departPos="5.10" departSpeed="0.00" departDelay="0.40" arrival="57757.00" arrivalLane="386687235_1" arrivalPos="80.84" arrivalSpeed="13.06" duration="145.00" routeLength="1186.14" waitingTime="34.00" waitingCount="4" stopTime="0.00" timeLoss="55.78" rerouteNo="1" devices="tripinfo_h12244c1:3 routing_h12244c1:3 emissions_h12244c1:3" vType="default_016" speedFactor="0.98" vaporized="">
        <emissions CO_abs="7379.639243" CO2_abs="331870.869964" HC_abs="41.345083" PMx_abs="5.866499" NOx_abs="135.129564" fuel_abs="142.659094" electricity_abs="0"/>
    </tripinfo>
    <tripinfo id="h9563c2:5" depart="57631.00" departLane="315358244_1" departPos="5.10" departSpeed="0.00" departDelay="0.70" arrival="57759.00" arrivalLane="386687235_1" arrivalPos="80.84" arrivalSpeed="13.07" duration="128.00" routeLength="1186.14" waitingTime="21.00" waitingCount="3" stopTime="0.00" timeLoss="40.19" rerouteNo="1" devices="tripinfo_h9563c2:5 routing_h9563c2:5 emissions_h9563c2:5" vType="default_016" speedFactor="0.99" vaporized="">
        <emissions CO_abs="5560.597323" CO2_abs="288632.711755" HC_abs="32.055147" PMx_abs="4.996783" NOx_abs="116.616955" fuel_abs="124.072047" electricity_abs="0"/>
    </tripinfo>
    <tripinfo id="h3154c1:1" depart="57658.00" departLane="24634507_1" departPos="5.10" departSpeed="0.00" departDelay="0.00" arrival="57759.00" arrivalLane="-266565295#5_1" arrivalPos="172.76" arrivalSpeed="13.75" duration="101.00" routeLength="1206.22" waitingTime="0.00" waitingCount="0" stopTime="0.00" timeLoss="16.88" rerouteNo="1" devices="tripinfo_h3154c1:1 routing_h3154c1:1 emissions_h3154c1:1" vType="default_016" speedFactor="1.06" vaporized="">
        <emissions CO_abs="4170.904856" CO2_abs="308174.089946" HC_abs="26.167152" PMx_abs="5.350769" NOx_abs="124.288050" fuel_abs="132.470615" electricity_abs="0"/>
    </tripinfo>
    <tripinfo id="h645c1:1" depart="57622.00" departLane="266565295#5_1" departPos="5.10" departSpeed="0.00" departDelay="0.40" arrival="57763.00" arrivalLane="-315358244_1" arrivalPos="33.95" arrivalSpeed="16.19" duration="141.00" routeLength="1910.83" waitingTime="3.00" waitingCount="1" stopTime="0.00" timeLoss="25.06" rerouteNo="1" devices="tripinfo_h645c1:1 routing_h645c1:1 emissions_h645c1:1" vType="default_016" speedFactor="1.20" vaporized="">
        <emissions CO_abs="5558.182782" CO2_abs="471661.240912" HC_abs="36.130445" PMx_abs="8.139054" NOx_abs="187.187017" fuel_abs="202.746230" electricity_abs="0"/>
    </tripinfo>
    <tripinfo id="carIn121703:1" depart="57647.00" departLane="386687232#0_1" departPos="5.10" departSpeed="0.00" departDelay="0.30" arrival="57768.00" arrivalLane="-315358244_1" arrivalPos="33.95" arrivalSpeed="17.42" duration="121.00" routeLength="1157.39" waitingTime="45.00" waitingCount="1" stopTime="0.00" timeLoss="56.55" rerouteNo="1" devices="tripinfo_carIn121703:1 routing_carIn121703:1 emissions_carIn121703:1" vType="default_016" speedFactor="1.31" vaporized="">
        <emissions CO_abs="9402.905671" CO2_abs="352027.593471" HC_abs="51.031100" PMx_abs="7.071941" NOx_abs="146.581663" fuel_abs="151.323985" electricity_abs="0"/>
    </tripinfo>
    <tripinfo id="h330c1:1" depart="57736.00" departLane="-32978638#0_1" departPos="5.10" departSpeed="0.00" departDelay="0.20" arrival="57768.00" arrivalLane="-266565295#5_1" arrivalPos="172.76" arrivalSpeed="14.68" duration="32.00" routeLength="370.53" waitingTime="0.00" waitingCount="0" stopTime="0.00" timeLoss="5.81" rerouteNo="1" devices="tripinfo_h330c1:1 routing_h330c1:1 emissions_h330c1:1" vType="default_016" speedFactor="1.07" vaporized="">
        <emissions CO_abs="1630.827859" CO2_abs="115132.638534" HC_abs="10.119649" PMx_abs="2.033579" NOx_abs="46.731930" fuel_abs="49.490508" electricity_abs="0"/>
    </tripinfo>
    <tripinfo id="carIn22761:1" depart="57616.00" departLane="-306240162#1_0" departPos="5.10" departSpeed="0.00" departDelay="2.10" arrival="57769.00" arrivalLane="399835085#1_1" arrivalPos="212.23" arrivalSpeed="6.32" duration="153.00" routeLength="1093.26" waitingTime="41.00" waitingCount="2" stopTime="0.00" timeLoss="66.01" rerouteNo="1" devices="tripinfo_carIn22761:1 routing_carIn22761:1 emissions_carIn22761:1" vType="default_016" speedFactor="0.89" vaporized="">
        <emissions CO_abs="10408.237289" CO2_abs="395287.612804" HC_abs="56.634458" PMx_abs="7.660045" NOx_abs="165.281076" fuel_abs="169.919969" electricity_abs="0"/>
    </tripinfo>
    <tripinfo id="carIn27009:1" depart="57673.00" departLane="-447569998#1_1" departPos="5.10" departSpeed="0.00" departDelay="0.50" arrival="57775.00" arrivalLane="-26677539_1" arrivalPos="152.75" arrivalSpeed="7.77" duration="102.00" routeLength="699.63" waitingTime="2.00" waitingCount="1" stopTime="0.00" timeLoss="16.37" rerouteNo="1" devices="tripinfo_carIn27009:1 routing_carIn27009:1 emissions_carIn27009:1" vType="default_015" speedFactor="0.98" vaporized="">
        <emissions CO_abs="3854.609143" CO2_abs="170544.079155" HC_abs="21.469331" PMx_abs="2.817292" NOx_abs="69.638074" fuel_abs="73.310835" electricity_abs="0"/>
    </tripinfo>
    <tripinfo id="h3326c1:2" depart="57656.00" departLane="22716069#0_1" departPos="5.10" departSpeed="0.00" departDelay="0.00" arrival="57776.00" arrivalLane="24634517#13_1" arrivalPos="111.62" arrivalSpeed="12.64" duration="120.00" routeLength="1312.81" waitingTime="0.00" waitingCount="0" stopTime="0.00" timeLoss="14.40" rerouteNo="1" devices="tripinfo_h3326c1:2 routing_h3326c1:2 emissions_h3326c1:2" vType="default_016" speedFactor="0.93" vaporized="">
        <emissions CO_abs="4176.559381" CO2_abs="301427.543447" HC_abs="26.063420" PMx_abs="5.006842" NOx_abs="120.891089" fuel_abs="129.570932" electricity_abs="0"/>
    </tripinfo>
    <tripinfo id="carIn80064:1" depart="57603.00" departLane="128361109#1_1" departPos="5.10" departSpeed="0.00" departDelay="0.40" arrival="57777.00" arrivalLane="-315358254#1_1" arrivalPos="137.16" arrivalSpeed="11.27" duration="174.00" routeLength="1587.97" waitingTime="50.00" waitingCount="2" stopTime="0.00" timeLoss="75.08" rerouteNo="1" devices="tripinfo_carIn80064:1 routing_carIn80064:1 emissions_carIn80064:1" vType="default_016" speedFactor="0.90" vaporized="">
        <emissions CO_abs="12908.646825" CO2_abs="539947.680710" HC_abs="71.595706" PMx_abs="10.829118" NOx_abs="226.711618" fuel_abs="232.102625" electricity_abs="0"/>
    </tripinfo>
    <tripinfo id="carIn12365:1" depart="57713.00" departLane="315358244_1" departPos="5.10" departSpeed="0.00" departDelay="0.50" arrival="57778.00" arrivalLane="447569997#1_1" arrivalPos="180.93" arrivalSpeed="8.94" duration="65.00" routeLength="718.04" waitingTime="0.00" waitingCount="0" stopTime="0.00" timeLoss="10.44" rerouteNo="1" devices="tripinfo_carIn12365:1 routing_carIn12365:1 emissions_carIn12365:1" vType="default_016" speedFactor="1.14" vaporized="">
        <emissions CO_abs="2719.158409" CO2_abs="182191.989700" HC_abs="16.546726" PMx_abs="3.169173" NOx_abs="73.767464" fuel_abs="78.316568" electricity_abs="0"/>
    </tripinfo>
    <tripinfo id="S5R_frequency1.2" depart="57634.00" departLane="315358250#0_1" departPos="12.10" departSpeed="0.00" departDelay="22.40" arrival="57787.00" arrivalLane="386687235_1" arrivalPos="80.84" arrivalSpeed="13.62" duration="153.00" routeLength="1115.62" waitingTime="37.00" waitingCount="3" stopTime="0.00" timeLoss="71.39" rerouteNo="1" devices="tripinfo_S5R_frequency1.2 routing_S5R_frequency1.2 emissions_S5R_frequency1.2" vType="bus" speedFactor="1.00" vaporized="">
        <emissions CO_abs="2978.554866" CO2_abs="1664266.009131" HC_abs="634.189836" PMx_abs="314.357913" NOx_abs="13468.399770" fuel_abs="709.717057" electricity_abs="0"/>
    </tripinfo>
    <tripinfo id="h16072c2:3" depart="57663.00" departLane="315358254#0_1" departPos="5.10" departSpeed="0.00" departDelay="2.50" arrival="57792.00" arrivalLane="386687235_1" arrivalPos="80.84" arrivalSpeed="15.44" duration="129.00" routeLength="1611.92" waitingTime="4.00" waitingCount="1" stopTime="0.00" timeLoss="28.95" rerouteNo="1" devices="tripinfo_h16072c2:3 routing_h16072c2:3 emissions_h16072c2:3" vType="default_016" speedFactor="1.18" vaporized="">
        <emissions CO_abs="5536.543932" CO2_abs="374896.240514" HC_abs="33.953515" PMx_abs="6.852407" NOx_abs="152.767324" fuel_abs="161.151490" electricity_abs="0"/>
    </tripinfo>
    <tripinfo id="h4538c1:1" depart="57701.00" departLane="-10427692#1_1" departPos="5.10" departSpeed="0.00" departDelay="0.00" arrival="57792.00" arrivalLane="-128361102#1_1" arrivalPos="274.68" arrivalSpeed="16.03" duration="91.00" routeLength="440.74" waitingTime="53.00" waitingCount="1" stopTime="0.00" timeLoss="64.59" rerouteNo="1" devices="tripinfo_h4538c1:1 routing_h4538c1:1 emissions_h4538c1:1" vType="default_016" speedFactor="1.19" vaporized="">
        <emissions CO_abs="10025.989805" CO2_abs="256266.474629" HC_abs="51.695619" PMx_abs="5.552047" NOx_abs="111.110297" fuel_abs="110.161667" electricity_abs="0"/>
    </tripinfo>
    <tripinfo id="h5979c1:5" depart="57669.00" departLane="399835085#1_1" departPos="5.10" departSpeed="0.00" departDelay="0.00" arrival="57793.00" arrivalLane="-315358254#1_1" arrivalPos="137.16" arrivalSpeed="11.74" duration="124.00" routeLength="659.33" waitingTime="25.00" waitingCount="1" stopTime="0.00" timeLoss="42.60" rerouteNo="1" devices="tripinfo_h5979c1:5 routing_h5979c1:5 emissions_h5979c1:5" vType="default_016" speedFactor="0.90" vaporized="">
        <emissions CO_abs="7472.030126" CO2_abs="230946.885489" HC_abs="39.370760" PMx_abs="4.359755" NOx_abs="97.432118" fuel_abs="99.276990" electricity_abs="0"/>
    </tripinfo>
    <tripinfo id="carIn118591:1" depart="57689.00" departLane="315358244_1" departPos="5.10" departSpeed="0.00" departDelay="0.20" arrival="57806.00" arrivalLane="386687235_1" arrivalPos="80.84" arrivalSpeed="12.38" duration="117.00" routeLength="1186.14" waitingTime="5.00" waitingCount="2" stopTime="0.00" timeLoss="29.22" rerouteNo="1" devices="tripinfo_carIn118591:1 routing_carIn118591:1 emissions_carIn118591:1" vType="default_016" speedFactor="0.98" vaporized="">
        <emissions CO_abs="4070.692075" CO2_abs="267902.842063" HC_abs="24.790492" PMx_abs="4.452274" NOx_abs="107.144907" fuel_abs="115.160419" electricity_abs="0"/>
    </tripinfo>
    <tripinfo id="carIn81860:1" depart="57712.00" departLane="128361102#0_1" departPos="5.10" departSpeed="0.00" departDelay="0.60" arrival="57808.00" arrivalLane="-24634517#17_1" arrivalPos="6.43" arrivalSpeed="8.87" duration="96.00" routeLength="1229.64" waitingTime="2.00" waitingCount="1" stopTime="0.00" timeLoss="19.91" rerouteNo="1" devices="tripinfo_carIn81860:1 routing_carIn81860:1 emissions_carIn81860:1" vType="default_016" speedFactor="1.19" vaporized="">
        <emissions CO_abs="4239.727119" CO2_abs="305437.733207" HC_abs="26.218405" PMx_abs="5.512258" NOx_abs="123.761196" fuel_abs="131.294179" electricity_abs="0"/>
    </tripinfo>
    <tripinfo id="h11737c1:1" depart="57665.00" departLane="272042143_1" departPos="5.10" departSpeed="0.00" departDelay="1.50" arrival="57814.00" arrivalLane="-315358254#1_1" arrivalPos="137.16" arrivalSpeed="10.98" duration="149.00" routeLength="1596.88" waitingTime="0.00" waitingCount="0" stopTime="0.00" timeLoss="13.28" rerouteNo="1" devices="tripinfo_h11737c1:1 routing_h11737c1:1 emissions_h11737c1:1" vType="default_016" speedFactor="0.86" vaporized="">
        <emissions CO_abs="3934.949616" CO2_abs="312788.635458" HC_abs="25.105982" PMx_abs="4.480642" NOx_abs="120.635744" fuel_abs="134.455355" electricity_abs="0"/>
    </tripinfo>
    <tripinfo id="carIn126288:1" depart="57674.00" departLane="272042143_1" departPos="5.10" departSpeed="0.00" departDelay="0.00" arrival="57816.00" arrivalLane="-315358254#1_1" arrivalPos="137.16" arrivalSpeed="13.36" duration="142.00" routeLength="1596.88" waitingTime="0.00" waitingCount="0" stopTime="0.00" timeLoss="30.07" rerouteNo="1" devices="tripinfo_carIn126288:1 routing_carIn126288:1 emissions_carIn126288:1" vType="default_016" speedFactor="1.04" vaporized="">
        <emissions CO_abs="4978.260351" CO2_abs="361283.041031" HC_abs="31.131073" PMx_abs="6.102139" NOx_abs="145.458026" fuel_abs="155.300105" electricity_abs="0"/>
    </tripinfo>
    <tripinfo id="carIn86816:1" depart="57617.00" departLane="128361102#0_1" departPos="5.10" departSpeed="0.00" departDelay="0.80" arrival="57817.00" arrivalLane="201956811#0_1" arrivalPos="40.40" arrivalSpeed="9.19" duration="200.00" routeLength="2067.33" waitingTime="1.00" waitingCount="1" stopTime="0.00" timeLoss="25.21" rerouteNo="1" devices="tripinfo_carIn86816:1 routing_carIn86816:1 emissions_carIn86816:1" vType="default_016" speedFactor="0.87" vaporized="">
        <emissions CO_abs="5866.378524" CO2_abs="429483.611704" HC_abs="36.619334" PMx_abs="6.438205" NOx_abs="167.765569" fuel_abs="184.617800" electricity_abs="0"/>
    </tripinfo>
    <tripinfo id="randUni15030:1" depart="57735.00" departLane="386687232#0_1" departPos="5.10" departSpeed="0.00" departDelay="0.10" arrival="57820.00" arrivalLane="26677539_1" arrivalPos="151.98" arrivalSpeed="8.67" duration="85.00" routeLength="919.89" waitingTime="0.00" waitingCount="0" stopTime="0.00" timeLoss="11.11" rerouteNo="1" devices="tripinfo_randUni15030:1 routing_randUni15030:1 emissions_randUni15030:1" vType="random_016" speedFactor="1.13" vaporized="">
        <emissions CO_abs="3366.563256" CO2_abs="221623.900836" HC_abs="20.444072" PMx_abs="3.763227" NOx_abs="89.266607" fuel_abs="95.266856" electricity_abs="0"/>
    </tripinfo>
    <tripinfo id="carIn28951:1" depart="57606.00" departLane="10425609#0_1" departPos="5.10" departSpeed="0.00" departDelay="0.20" arrival="57826.00" arrivalLane="-128361102#1_1" arrivalPos="274.68" arrivalSpeed="13.14" duration="220.00" routeLength="2113.04" waitingTime="32.00" waitingCount="4" stopTime="0.00" timeLoss="65.59" rerouteNo="1" devices="tripinfo_carIn28951:1 routing_carIn28951:1 emissions_carIn28951:1" vType="default_016" speedFactor="1.00" vaporized="">
        <emissions CO_abs="9476.692059" CO2_abs="558612.105189" HC_abs="56.227493" PMx_abs="9.699936" NOx_abs="225.976838" fuel_abs="240.124600" electricity_abs="0"/>
    </tripinfo>
    <tripinfo id="carIn81046:1" depart="57610.00" departLane="124812856#0_1" departPos="5.10" departSpeed="0.00" departDelay="1.50" arrival="57827.00" arrivalLane="-128361102#1_1" arrivalPos="274.68" arrivalSpeed="14.96" duration="217.00" routeLength="2250.49" waitingTime="11.00" waitingCount="2" stopTime="0.00" timeLoss="71.51" rerouteNo="1" devices="tripinfo_carIn81046:1 routing_carIn81046:1 emissions_carIn81046:1" vType="default_016" speedFactor="1.13" vaporized="">
        <emissions CO_abs="9757.907968" CO2_abs="637592.636734" HC_abs="59.467857" PMx_abs="11.558044" NOx_abs="261.485895" fuel_abs="274.073420" electricity_abs="0"/>
    </tripinfo>
    <tripinfo id="h17600c1:1" depart="57662.00" departLane="272042143_1" departPos="5.10" departSpeed="0.00" departDelay="0.30" arrival="57839.00" arrivalLane="201238729#3_1" arrivalPos="431.02" arrivalSpeed="14.03" duration="177.00" routeLength="2100.26" waitingTime="13.00" waitingCount="2" stopTime="0.00" timeLoss="36.73" rerouteNo="1" devices="tripinfo_h17600c1:1 routing_h17600c1:1 emissions_h17600c1:1" vType="default_016" speedFactor="1.08" vaporized="">
        <emissions CO_abs="5403.154412" CO2_abs="434068.322927" HC_abs="34.628317" PMx_abs="7.175416" NOx_abs="171.323111" fuel_abs="186.587346" electricity_abs="0"/>
    </tripinfo>
    <tripinfo id="randUni31145:1" depart="57814.00" departLane="10425609#0_1" departPos="5.10" departSpeed="0.00" departDelay="0.30" arrival="57841.00" arrivalLane="201956810_1" arrivalPos="71.65" arrivalSpeed="11.78" duration="27.00" routeLength="255.78" waitingTime="0.00" waitingCount="0" stopTime="0.00" timeLoss="5.31" rerouteNo="1" devices="tripinfo_randUni31145:1 routing_randUni31145:1 emissions_randUni31145:1" vType="random_016" speedFactor="0.90" vaporized="">
        <emissions CO_abs="1622.576145" CO2_abs="93692.819955" HC_abs="9.587455" PMx_abs="1.683025" NOx_abs="38.754180" fuel_abs="40.274621" electricity_abs="0"/>
    </tripinfo>
    <tripinfo id="carIn107282:1" depart="57749.00" departLane="-447569998#1_1" departPos="5.10" departSpeed="0.00" departDelay="0.00" arrival="57845.00" arrivalLane="315358242#0_1" arrivalPos="165.37" arrivalSpeed="13.95" duration="96.00" routeLength="448.50" waitingTime="46.00" waitingCount="1" stopTime="0.00" timeLoss="55.40" rerouteNo="1" devices="tripinfo_carIn107282:1 routing_carIn107282:1 emissions_carIn107282:1" vType="default_016" speedFactor="1.03" vaporized="">
        <emissions CO_abs="8828.401458" CO2_abs="232994.935101" HC_abs="45.643924" PMx_abs="4.842723" NOx_abs="100.261575" fuel_abs="100.157901" electricity_abs="0"/>
    </tripinfo>
    <tripinfo id="carIn12152:1" depart="57647.00" departLane="24599188#0.94_1" departPos="5.10" departSpeed="0.00" departDelay="0.50" arrival="57846.00" arrivalLane="-315358254#1_1" arrivalPos="137.16" arrivalSpeed="15.51" duration="199.00" routeLength="2034.31" waitingTime="31.00" waitingCount="2" stopTime="0.00" timeLoss="57.15" rerouteNo="1" devices="tripinfo_carIn12152:1 routing_carIn12152:1 emissions_carIn12152:1" vType="default_016" speedFactor="1.12" vaporized="">
        <emissions CO_abs="9986.490193" CO2_abs="534717.306843" HC_abs="57.704293" PMx_abs="9.435962" NOx_abs="215.936072" fuel_abs="229.853834" electricity_abs="0"/>
    </tripinfo>
    <tripinfo id="carIn12775:1" depart="57676.00" departLane="10425609#0_1" departPos="5.10" departSpeed="0.00" departDelay="0.60" arrival="57852.00" arrivalLane="18809673#0_1" arrivalPos="473.56" arrivalSpeed="14.08" duration="176.00" routeLength="1959.45" waitingTime="7.00" waitingCount="1" stopTime="0.00" timeLoss="33.94" rerouteNo="1" devices="tripinfo_carIn12775:1 routing_carIn12775:1 emissions_carIn12775:1" vType="default_016" speedFactor="1.03" vaporized="">
        <emissions CO_abs="6757.111723" CO2_abs="469038.478456" HC_abs="41.734199" PMx_abs="8.048059" NOx_abs="188.968340" fuel_abs="201.619675" electricity_abs="0"/>
    </tripinfo>
    <tripinfo id="carIn107084:1" depart="57601.00" departLane="124812856#0_1" departPos="5.10" departSpeed="0.00" departDelay="0.70" arrival="57853.00" arrivalLane="-128361102#1_1" arrivalPos="274.68" arrivalSpeed="10.52" duration="252.00" routeLength="2232.46" waitingTime="13.00" waitingCount="3" stopTime="0.00" timeLoss="54.86" rerouteNo="1" devices="tripinfo_carIn107084:1 routing_carIn107084:1 emissions_carIn107084:1" vType="default_016" speedFactor="0.83" vaporized="">
        <emissions CO_abs="8639.395979" CO2_abs="507147.087130" HC_abs="51.094081" PMx_abs="8.254962" NOx_abs="203.453817" fuel_abs="218.002567" electricity_abs="0"/>
    </tripinfo>
    <tripinfo id="carIn12858:1" depart="57661.00" departLane="128361109#1_1" departPos="5.10" departSpeed="0.00" departDelay="0.90" arrival="57853.00" arrivalLane="399835085#1_1" arrivalPos="212.23" arrivalSpeed="7.36" duration="192.00" routeLength="1738.12" waitingTime="49.00" waitingCount="2" stopTime="0.00" timeLoss="79.73" rerouteNo="1" devices="tripinfo_carIn12858:1 routing_carIn12858:1 emissions_carIn12858:1" vType="default_016" speedFactor="1.03" vaporized="">
        <emissions CO_abs="13836.772246" CO2_abs="593857.942717" HC_abs="77.179481" PMx_abs="12.033307" NOx_abs="249.130509" fuel_abs="255.276176" electricity_abs="0"/>
    </tripinfo>
    <tripinfo id="carIn85747:1" depart="57673.00" departLane="128361109#1_1" departPos="5.10" departSpeed="0.00" departDelay="0.70" arrival="57853.00" arrivalLane="386687235_1" arrivalPos="80.84" arrivalSpeed="13.98" duration="180.00" routeLength="2088.57" waitingTime="14.00" waitingCount="1" stopTime="0.00" timeLoss="30.84" rerouteNo="1" devices="tripinfo_carIn85747:1 routing_carIn85747:1 emissions_carIn85747:1" vType="default_016" speedFactor="1.01" vaporized="">
        <emissions CO_abs="5337.046881" CO2_abs="385624.691978" HC_abs="33.161584" PMx_abs="5.981336" NOx_abs="149.683695" fuel_abs="165.764575" electricity_abs="0"/>
    </tripinfo>
    <tripinfo id="carIn77943:1" depart="57607.00" departLane="124812856#0_1" departPos="5.10" departSpeed="0.00" departDelay="1.50" arrival="57854.00" arrivalLane="-128361102#1_1" arrivalPos="274.68" arrivalSpeed="12.80" duration="247.00" routeLength="2250.49" waitingTime="18.00" waitingCount="3" stopTime="0.00" timeLoss="75.05" rerouteNo="1" devices="tripinfo_carIn77943:1 routing_carIn77943:1 emissions_carIn77943:1" vType="default_016" speedFactor="0.95" vaporized="">
        <emissions CO_abs="10457.335971" CO2_abs="607055.066936" HC_abs="61.878834" PMx_abs="10.868055" NOx_abs="249.629247" fuel_abs="260.947695" electricity_abs="0"/>
    </tripinfo>
    <tripinfo id="carIn77438:1" depart="57613.00" departLane="124812856#0_1" departPos="5.10" departSpeed="0.00" departDelay="0.10" arrival="57856.00" arrivalLane="-128361102#1_1" arrivalPos="274.68" arrivalSpeed="14.09" duration="243.00" routeLength="2250.49" waitingTime="17.00" waitingCount="3" stopTime="0.00" timeLoss="81.18" rerouteNo="1" devices="tripinfo_carIn77438:1 routing_carIn77438:1 emissions_carIn77438:1" vType="default_016" speedFactor="1.02" vaporized="">
        <emissions CO_abs="11183.432661" CO2_abs="643634.589038" HC_abs="66.087690" PMx_abs="11.756276" NOx_abs="266.103519" fuel_abs="276.671442" electricity_abs="0"/>
    </tripinfo>
    <tripinfo id="randUni2407:1" depart="57820.00" departLane="10425609#0_1" departPos="5.10" departSpeed="0.00" departDelay="0.80" arrival="57856.00" arrivalLane="201956810_1" arrivalPos="71.65" arrivalSpeed="12.92" duration="36.00" routeLength="255.78" waitingTime="5.00" waitingCount="1" stopTime="0.00" timeLoss="14.11" rerouteNo="1" devices="tripinfo_randUni2407:1 routing_randUni2407:1 emissions_randUni2407:1" vType="random_016" speedFactor="0.94" vaporized="">
        <emissions CO_abs="2312.498746" CO2_abs="111067.889284" HC_abs="13.149871" PMx_abs="2.128635" NOx_abs="46.857218" fuel_abs="47.743559" electricity_abs="0"/>
    </tripinfo>
    <tripinfo id="h19804c1:3" depart="57616.00" departLane="124812856#0_1" departPos="5.10" departSpeed="0.00" departDelay="0.50" arrival="57864.00" arrivalLane="-128361102#1_1" arrivalPos="274.68" arrivalSpeed="15.03" duration="248.00" routeLength="2250.49" waitingTime="22.00" waitingCount="4" stopTime="0.00" timeLoss="96.40" rerouteNo="1" devices="tripinfo_h19804c1:3 routing_h19804c1:3 emissions_h19804c1:3" vType="default_016" speedFactor="1.08" vaporized="">
        <emissions CO_abs="11725.856720" CO2_abs="660558.191219" HC_abs="68.967284" PMx_abs="12.318056" NOx_abs="274.164248" fuel_abs="283.946065" electricity_abs="0"/>
    </tripinfo>