<?xml version="1.0" encoding="UTF-8"?>

<!-- generated on 2021-10-26 17:54:32 by Eclipse SUMO sumo Version 1.10.0
<configuration xmlns:xsi="http://www.w3.org/2001/XMLSchema-instance" xsi:noNamespaceSchemaLocation="http://sumo.dlr.de/xsd/sumoConfiguration.xsd">

    <input>
        <net-file value="/Users/behradkoohy/sumo-scratchpad/RESCO/environments/ingolstadt21/ingolstadt21.net.xml"/>
        <route-files value="/Users/behradkoohy/sumo-scratchpad/RESCO/environments/ingolstadt21/ingolstadt21.rou.xml"/>
    </input>

    <output>
        <tripinfo-output value="/Users/behradkoohy/sumo-scratchpad/RESCO/logs/IPPO-tr0-ingolstadt21-21-drq_norm-wait_norm/tripinfo_29.xml"/>
        <tripinfo-output.write-unfinished value="true"/>
    </output>

    <time>
        <begin value="57600"/>
        <end value="61200"/>
    </time>

    <processing>
        <time-to-teleport value="-1"/>
    </processing>

    <report>
        <no-warnings value="true"/>
        <no-step-log value="true"/>
    </report>

    <emissions>
        <device.emissions.probability value="1"/>
    </emissions>

    <traci_server>
        <remote-port value="61767"/>
    </traci_server>

    <random_number>
        <random value="true"/>
    </random_number>

</configuration>
-->

<tripinfos xmlns:xsi="http://www.w3.org/2001/XMLSchema-instance" xsi:noNamespaceSchemaLocation="http://sumo.dlr.de/xsd/tripinfo_file.xsd">
    <tripinfo id="h15454c2:3" depart="57612.00" departLane="24608844_1" departPos="5.10" departSpeed="0.00" departDelay="0.50" arrival="57657.00" arrivalLane="32978638#0_1" arrivalPos="49.29" arrivalSpeed="12.34" duration="45.00" routeLength="354.79" waitingTime="0.00" waitingCount="0" stopTime="0.00" timeLoss="9.34" rerouteNo="1" devices="tripinfo_h15454c2:3 routing_h15454c2:3 emissions_h15454c2:3" vType="default_016" speedFactor="0.97" vaporized="">
        <emissions CO_abs="2176.691494" CO2_abs="106934.974869" HC_abs="12.396481" PMx_abs="1.854964" NOx_abs="43.956764" fuel_abs="45.967232" electricity_abs="0"/>
    </tripinfo>
    <tripinfo id="carIn60260:1" depart="57606.00" departLane="315358254#0_1" departPos="5.10" departSpeed="0.00" departDelay="0.90" arrival="57676.00" arrivalLane="399835085#1_1" arrivalPos="212.23" arrivalSpeed="7.55" duration="70.00" routeLength="430.98" waitingTime="10.00" waitingCount="1" stopTime="0.00" timeLoss="20.68" rerouteNo="1" devices="tripinfo_carIn60260:1 routing_carIn60260:1 emissions_carIn60260:1" vType="default_016" speedFactor="0.94" vaporized="">
        <emissions CO_abs="3294.131726" CO2_abs="134757.314928" HC_abs="18.106207" PMx_abs="2.306256" NOx_abs="55.333823" fuel_abs="57.927490" electricity_abs="0"/>
    </tripinfo>
    <tripinfo id="carIn53971:1" depart="57640.00" departLane="272042143_1" departPos="5.10" departSpeed="0.00" departDelay="0.80" arrival="57699.00" arrivalLane="24634414#1_1" arrivalPos="162.19" arrivalSpeed="7.23" duration="59.00" routeLength="493.04" waitingTime="0.00" waitingCount="0" stopTime="0.00" timeLoss="8.29" rerouteNo="1" devices="tripinfo_carIn53971:1 routing_carIn53971:1 emissions_carIn53971:1" vType="default_016" speedFactor="0.91" vaporized="">
        <emissions CO_abs="2481.537574" CO2_abs="126913.711335" HC_abs="14.232450" PMx_abs="2.095449" NOx_abs="51.421327" fuel_abs="54.555403" electricity_abs="0"/>
    </tripinfo>
    <tripinfo id="h7800c1:5" depart="57696.00" departLane="-447569998#1_1" departPos="5.10" departSpeed="0.00" departDelay="0.00" arrival="57723.00" arrivalLane="-447569998#1_2" arrivalPos="180.76" arrivalSpeed="7.21" duration="27.00" routeLength="175.66" waitingTime="0.00" waitingCount="0" stopTime="0.00" timeLoss="3.53" rerouteNo="1" devices="tripinfo_h7800c1:5 routing_h7800c1:5 emissions_h7800c1:5" vType="default_016" speedFactor="0.91" vaporized="">
        <emissions CO_abs="1409.089928" CO2_abs="57996.047107" HC_abs="7.745586" PMx_abs="0.961478" NOx_abs="23.737747" fuel_abs="24.930514" electricity_abs="0"/>
    </tripinfo>
    <tripinfo id="carIn22761:1" depart="57616.00" departLane="-306240162#1_0" departPos="5.10" departSpeed="0.00" departDelay="2.10" arrival="57732.00" arrivalLane="399835085#1_1" arrivalPos="212.23" arrivalSpeed="8.55" duration="116.00" routeLength="1093.26" waitingTime="16.00" waitingCount="2" stopTime="0.00" timeLoss="41.64" rerouteNo="1" devices="tripinfo_carIn22761:1 routing_carIn22761:1 emissions_carIn22761:1" vType="default_016" speedFactor="1.04" vaporized="">
        <emissions CO_abs="6558.603525" CO2_abs="355215.500631" HC_abs="38.325808" PMx_abs="6.918382" NOx_abs="148.235794" fuel_abs="152.692025" electricity_abs="0"/>
    </tripinfo>
    <tripinfo id="h3688c1:1" depart="57625.00" departLane="201201950#1_1" departPos="5.10" departSpeed="0.00" departDelay="0.00" arrival="57739.00" arrivalLane="32978638#0_1" arrivalPos="49.29" arrivalSpeed="13.95" duration="114.00" routeLength="1089.75" waitingTime="24.00" waitingCount="1" stopTime="0.00" timeLoss="40.42" rerouteNo="1" devices="tripinfo_h3688c1:1 routing_h3688c1:1 emissions_h3688c1:1" vType="default_016" speedFactor="1.09" vaporized="">
        <emissions CO_abs="6945.421065" CO2_abs="322757.899870" HC_abs="39.177960" PMx_abs="6.072639" NOx_abs="133.401061" fuel_abs="138.741033" electricity_abs="0"/>
    </tripinfo>
    <tripinfo id="h4538c1:1" depart="57701.00" departLane="-10427692#1_1" departPos="5.10" departSpeed="0.00" departDelay="0.00" arrival="57742.00" arrivalLane="-128361102#1_1" arrivalPos="274.68" arrivalSpeed="12.88" duration="41.00" routeLength="440.74" waitingTime="0.00" waitingCount="0" stopTime="0.00" timeLoss="6.94" rerouteNo="1" devices="tripinfo_h4538c1:1 routing_h4538c1:1 emissions_h4538c1:1" vType="default_016" speedFactor="0.94" vaporized="">
        <emissions CO_abs="1684.470970" CO2_abs="112430.462717" HC_abs="10.296100" PMx_abs="1.877619" NOx_abs="45.164833" fuel_abs="48.329185" electricity_abs="0"/>
    </tripinfo>
    <tripinfo id="h3568c1:3" depart="57656.00" departLane="266565295#5_1" departPos="5.10" departSpeed="0.00" departDelay="0.80" arrival="57745.00" arrivalLane="-24634415_1" arrivalPos="62.03" arrivalSpeed="14.03" duration="89.00" routeLength="807.40" waitingTime="8.00" waitingCount="1" stopTime="0.00" timeLoss="25.53" rerouteNo="1" devices="tripinfo_h3568c1:3 routing_h3568c1:3 emissions_h3568c1:3" vType="default_016" speedFactor="1.02" vaporized="">
        <emissions CO_abs="4409.481028" CO2_abs="252635.741195" HC_abs="25.990786" PMx_abs="4.474986" NOx_abs="103.378458" fuel_abs="108.597725" electricity_abs="0"/>
    </tripinfo>
    <tripinfo id="h317c2:1" depart="57707.00" departLane="-32978638#0_1" departPos="5.10" departSpeed="0.00" departDelay="0.10" arrival="57746.00" arrivalLane="-266565295#5_1" arrivalPos="172.76" arrivalSpeed="10.96" duration="39.00" routeLength="370.53" waitingTime="0.00" waitingCount="0" stopTime="0.00" timeLoss="5.81" rerouteNo="1" devices="tripinfo_h317c2:1 routing_h317c2:1 emissions_h317c2:1" vType="default_016" speedFactor="0.83" vaporized="">
        <emissions CO_abs="1569.877263" CO2_abs="95285.754793" HC_abs="9.358821" PMx_abs="1.557067" NOx_abs="38.327599" fuel_abs="40.959533" electricity_abs="0"/>
    </tripinfo>
    <tripinfo id="S5R_frequency1.2" depart="57612.00" departLane="315358250#0_1" departPos="12.10" departSpeed="0.00" departDelay="0.40" arrival="57748.00" arrivalLane="386687235_1" arrivalPos="80.84" arrivalSpeed="13.82" duration="136.00" routeLength="1115.62" waitingTime="31.00" waitingCount="2" stopTime="0.00" timeLoss="54.03" rerouteNo="1" devices="tripinfo_S5R_frequency1.2 routing_S5R_frequency1.2 emissions_S5R_frequency1.2" vType="bus" speedFactor="1.00" vaporized="">
        <emissions CO_abs="2456.712445" CO2_abs="1362710.364014" HC_abs="528.702707" PMx_abs="259.380086" NOx_abs="11052.138029" fuel_abs="581.121842" electricity_abs="0"/>
    </tripinfo>
    <tripinfo id="h12244c1:3" depart="57612.00" departLane="315358244_1" departPos="5.10" departSpeed="0.00" departDelay="0.40" arrival="57750.00" arrivalLane="386687235_1" arrivalPos="80.84" arrivalSpeed="12.58" duration="138.00" routeLength="1186.14" waitingTime="20.00" waitingCount="2" stopTime="0.00" timeLoss="43.92" rerouteNo="1" devices="tripinfo_h12244c1:3 routing_h12244c1:3 emissions_h12244c1:3" vType="default_016" speedFactor="0.92" vaporized="">
        <emissions CO_abs="5610.365052" CO2_abs="298127.896510" HC_abs="32.471992" PMx_abs="4.966738" NOx_abs="119.709665" fuel_abs="128.153792" electricity_abs="0"/>
    </tripinfo>
    <tripinfo id="carIn30817:1" depart="57681.00" departLane="315358244_1" departPos="5.10" departSpeed="0.00" departDelay="0.20" arrival="57750.00" arrivalLane="447569997#1_1" arrivalPos="180.93" arrivalSpeed="8.17" duration="69.00" routeLength="718.04" waitingTime="0.00" waitingCount="0" stopTime="0.00" timeLoss="9.09" rerouteNo="1" devices="tripinfo_carIn30817:1 routing_carIn30817:1 emissions_carIn30817:1" vType="default_016" speedFactor="1.03" vaporized="">
        <emissions CO_abs="2434.686772" CO2_abs="155722.763570" HC_abs="14.714988" PMx_abs="2.578488" NOx_abs="62.476061" fuel_abs="66.938861" electricity_abs="0"/>
    </tripinfo>
    <tripinfo id="h9563c2:5" depart="57631.00" departLane="315358244_1" departPos="5.10" departSpeed="0.00" departDelay="0.70" arrival="57752.00" arrivalLane="386687235_1" arrivalPos="80.84" arrivalSpeed="12.42" duration="121.00" routeLength="1186.14" waitingTime="11.00" waitingCount="2" stopTime="0.00" timeLoss="30.51" rerouteNo="1" devices="tripinfo_h9563c2:5 routing_h9563c2:5 emissions_h9563c2:5" vType="default_016" speedFactor="0.96" vaporized="">
        <emissions CO_abs="5029.905478" CO2_abs="300757.227690" HC_abs="29.950619" PMx_abs="5.215494" NOx_abs="121.966761" fuel_abs="129.283202" electricity_abs="0"/>
    </tripinfo>
    <tripinfo id="h7181c1:1" depart="57660.00" departLane="315358254#0_1" departPos="5.10" departSpeed="0.00" departDelay="0.10" arrival="57763.00" arrivalLane="306240162#0_0" arrivalPos="220.43" arrivalSpeed="13.16" duration="103.00" routeLength="932.35" waitingTime="23.00" waitingCount="2" stopTime="0.00" timeLoss="42.10" rerouteNo="1" devices="tripinfo_h7181c1:1 routing_h7181c1:1 emissions_h7181c1:1" vType="default_016" speedFactor="0.84" vaporized="">
        <emissions CO_abs="6126.013008" CO2_abs="279539.772287" HC_abs="34.359631" PMx_abs="5.341183" NOx_abs="116.066162" fuel_abs="120.163198" electricity_abs="0"/>
    </tripinfo>
    <tripinfo id="h5979c1:5" depart="57669.00" departLane="399835085#1_1" departPos="5.10" departSpeed="0.00" departDelay="0.00" arrival="57767.00" arrivalLane="-315358254#1_1" arrivalPos="137.16" arrivalSpeed="14.03" duration="98.00" routeLength="659.33" waitingTime="13.00" waitingCount="1" stopTime="0.00" timeLoss="27.53" rerouteNo="1" devices="tripinfo_h5979c1:5 routing_h5979c1:5 emissions_h5979c1:5" vType="default_016" speedFactor="1.04" vaporized="">
        <emissions CO_abs="5174.590678" CO2_abs="213366.681897" HC_abs="28.495810" PMx_abs="3.695385" NOx_abs="87.554460" fuel_abs="91.718860" electricity_abs="0"/>
    </tripinfo>
    <tripinfo id="h330c1:1" depart="57736.00" departLane="-32978638#0_1" departPos="5.10" departSpeed="0.00" departDelay="0.20" arrival="57770.00" arrivalLane="-266565295#5_1" arrivalPos="172.76" arrivalSpeed="13.22" duration="34.00" routeLength="370.53" waitingTime="0.00" waitingCount="0" stopTime="0.00" timeLoss="6.63" rerouteNo="1" devices="tripinfo_h330c1:1 routing_h330c1:1 emissions_h330c1:1" vType="default_016" speedFactor="1.02" vaporized="">
        <emissions CO_abs="1775.098526" CO2_abs="118730.907602" HC_abs="10.869281" PMx_abs="2.071864" NOx_abs="48.195730" fuel_abs="51.037352" electricity_abs="0"/>
    </tripinfo>
    <tripinfo id="carIn27009:1" depart="57673.00" departLane="-447569998#1_1" departPos="5.10" departSpeed="0.00" departDelay="0.50" arrival="57775.00" arrivalLane="-26677539_1" arrivalPos="152.75" arrivalSpeed="8.01" duration="102.00" routeLength="699.63" waitingTime="2.00" waitingCount="1" stopTime="0.00" timeLoss="16.05" rerouteNo="1" devices="tripinfo_carIn27009:1 routing_carIn27009:1 emissions_carIn27009:1" vType="default_015" speedFactor="0.98" vaporized="">
        <emissions CO_abs="4152.222657" CO2_abs="183065.970512" HC_abs="23.109907" PMx_abs="3.012436" NOx_abs="74.644169" fuel_abs="78.693585" electricity_abs="0"/>
    </tripinfo>
    <tripinfo id="h3326c1:2" depart="57656.00" departLane="22716069#0_1" departPos="5.10" departSpeed="0.00" departDelay="0.00" arrival="57778.00" arrivalLane="24634517#13_1" arrivalPos="111.62" arrivalSpeed="12.33" duration="122.00" routeLength="1312.81" waitingTime="0.00" waitingCount="0" stopTime="0.00" timeLoss="14.79" rerouteNo="1" devices="tripinfo_h3326c1:2 routing_h3326c1:2 emissions_h3326c1:2" vType="default_016" speedFactor="0.92" vaporized="">
        <emissions CO_abs="4366.373682" CO2_abs="294303.592451" HC_abs="26.766691" PMx_abs="4.981974" NOx_abs="118.885487" fuel_abs="126.508725" electricity_abs="0"/>
    </tripinfo>
    <tripinfo id="carIn118591:1" depart="57689.00" departLane="315358244_1" departPos="5.10" departSpeed="0.00" departDelay="0.20" arrival="57793.00" arrivalLane="386687235_1" arrivalPos="80.84" arrivalSpeed="15.24" duration="104.00" routeLength="1186.14" waitingTime="7.00" waitingCount="2" stopTime="0.00" timeLoss="24.63" rerouteNo="1" devices="tripinfo_carIn118591:1 routing_carIn118591:1 emissions_carIn118591:1" vType="default_016" speedFactor="1.10" vaporized="">
        <emissions CO_abs="3601.796656" CO2_abs="263910.676799" HC_abs="22.592301" PMx_abs="4.588275" NOx_abs="106.052173" fuel_abs="113.443770" electricity_abs="0"/>
    </tripinfo>
    <tripinfo id="h3154c1:1" depart="57658.00" departLane="24634507_1" departPos="5.10" departSpeed="0.00" departDelay="0.00" arrival="57798.00" arrivalLane="-266565295#5_1" arrivalPos="172.76" arrivalSpeed="12.72" duration="140.00" routeLength="1206.22" waitingTime="21.00" waitingCount="2" stopTime="0.00" timeLoss="42.45" rerouteNo="1" devices="tripinfo_h3154c1:1 routing_h3154c1:1 emissions_h3154c1:1" vType="default_016" speedFactor="0.92" vaporized="">
        <emissions CO_abs="7514.038309" CO2_abs="361490.192823" HC_abs="42.674235" PMx_abs="6.482754" NOx_abs="148.460761" fuel_abs="155.390693" electricity_abs="0"/>
    </tripinfo>
    <tripinfo id="carIn107084:1" depart="57601.00" departLane="124812856#0_1" departPos="5.10" departSpeed="0.00" departDelay="0.70" arrival="57800.00" arrivalLane="-128361102#1_1" arrivalPos="274.68" arrivalSpeed="14.19" duration="199.00" routeLength="2250.49" waitingTime="16.00" waitingCount="1" stopTime="0.00" timeLoss="39.09" rerouteNo="1" devices="tripinfo_carIn107084:1 routing_carIn107084:1 emissions_carIn107084:1" vType="default_016" speedFactor="1.03" vaporized="">
        <emissions CO_abs="7137.840745" CO2_abs="497989.135367" HC_abs="44.053103" PMx_abs="8.246516" NOx_abs="197.591551" fuel_abs="214.064860" electricity_abs="0"/>
    </tripinfo>
    <tripinfo id="h645c1:1" depart="57622.00" departLane="266565295#5_1" departPos="5.10" departSpeed="0.00" departDelay="0.40" arrival="57803.00" arrivalLane="-315358244_2" arrivalPos="33.95" arrivalSpeed="15.41" duration="181.00" routeLength="1910.83" waitingTime="37.00" waitingCount="1" stopTime="0.00" timeLoss="57.11" rerouteNo="1" devices="tripinfo_h645c1:1 routing_h645c1:1 emissions_h645c1:1" vType="default_016" speedFactor="1.12" vaporized="">
        <emissions CO_abs="9818.730535" CO2_abs="478194.930457" HC_abs="55.844890" PMx_abs="8.704461" NOx_abs="194.188404" fuel_abs="205.557550" electricity_abs="0"/>
    </tripinfo>
    <tripinfo id="carIn121703:1" depart="57647.00" departLane="386687232#0_1" departPos="5.10" departSpeed="0.00" departDelay="0.30" arrival="57804.00" arrivalLane="-315358244_1" arrivalPos="33.95" arrivalSpeed="13.25" duration="157.00" routeLength="1157.39" waitingTime="44.00" waitingCount="3" stopTime="0.00" timeLoss="69.49" rerouteNo="1" devices="tripinfo_carIn121703:1 routing_carIn121703:1 emissions_carIn121703:1" vType="default_016" speedFactor="0.96" vaporized="">
        <emissions CO_abs="10690.923497" CO2_abs="391535.833916" HC_abs="57.847802" PMx_abs="7.432936" NOx_abs="163.242668" fuel_abs="168.307733" electricity_abs="0"/>
    </tripinfo>
    <tripinfo id="carIn48184:1" depart="57613.00" departLane="-306240162#1_0" departPos="5.10" departSpeed="0.00" departDelay="0.70" arrival="57824.00" arrivalLane="386687235_1" arrivalPos="80.84" arrivalSpeed="13.10" duration="211.00" routeLength="2257.41" waitingTime="28.00" waitingCount="3" stopTime="0.00" timeLoss="67.06" rerouteNo="1" devices="tripinfo_carIn48184:1 routing_carIn48184:1 emissions_carIn48184:1" vType="default_016" speedFactor="1.03" vaporized="">
        <emissions CO_abs="10826.766477" CO2_abs="621142.180134" HC_abs="63.885077" PMx_abs="11.582196" NOx_abs="254.753405" fuel_abs="267.002914" electricity_abs="0"/>
    </tripinfo>
    <tripinfo id="carIn82220:1" depart="57619.00" departLane="-306240162#1_0" departPos="5.10" departSpeed="0.00" departDelay="3.50" arrival="57824.00" arrivalLane="386687235_2" arrivalPos="80.84" arrivalSpeed="13.70" duration="205.00" routeLength="2257.41" waitingTime="21.00" waitingCount="2" stopTime="0.00" timeLoss="58.08" rerouteNo="1" devices="tripinfo_carIn82220:1 routing_carIn82220:1 emissions_carIn82220:1" vType="default_016" speedFactor="1.01" vaporized="">
        <emissions CO_abs="9284.607289" CO2_abs="573329.211681" HC_abs="55.837958" PMx_abs="10.514234" NOx_abs="233.981617" fuel_abs="246.449815" electricity_abs="0"/>
    </tripinfo>
    <tripinfo id="h16072c2:3" depart="57663.00" departLane="315358254#0_1" departPos="5.10" departSpeed="0.00" departDelay="2.50" arrival="57826.00" arrivalLane="386687235_2" arrivalPos="80.84" arrivalSpeed="14.58" duration="163.00" routeLength="1611.92" waitingTime="28.00" waitingCount="3" stopTime="0.00" timeLoss="58.79" rerouteNo="1" devices="tripinfo_h16072c2:3 routing_h16072c2:3 emissions_h16072c2:3" vType="default_016" speedFactor="1.13" vaporized="">
        <emissions CO_abs="8098.727712" CO2_abs="431431.437092" HC_abs="46.939891" PMx_abs="8.022329" NOx_abs="177.399278" fuel_abs="185.454700" electricity_abs="0"/>
    </tripinfo>
    <tripinfo id="h9953c2:3" depart="57682.00" departLane="-54169231#2_1" departPos="5.10" departSpeed="0.00" departDelay="0.00" arrival="57827.00" arrivalLane="386687235_2" arrivalPos="80.84" arrivalSpeed="15.39" duration="145.00" routeLength="1535.60" waitingTime="3.00" waitingCount="2" stopTime="0.00" timeLoss="33.03" rerouteNo="1" devices="tripinfo_h9953c2:3 routing_h9953c2:3 emissions_h9953c2:3" vType="default_016" speedFactor="1.12" vaporized="">
        <emissions CO_abs="6204.863768" CO2_abs="401895.805245" HC_abs="37.492614" PMx_abs="6.979745" NOx_abs="162.399331" fuel_abs="172.758100" electricity_abs="0"/>
    </tripinfo>
    <tripinfo id="carIn462:1" depart="57622.00" departLane="-306240162#1_0" departPos="5.10" departSpeed="0.00" departDelay="4.80" arrival="57828.00" arrivalLane="386687235_1" arrivalPos="80.84" arrivalSpeed="13.98" duration="206.00" routeLength="2257.41" waitingTime="23.00" waitingCount="3" stopTime="0.00" timeLoss="59.00" rerouteNo="1" devices="tripinfo_carIn462:1 routing_carIn462:1 emissions_carIn462:1" vType="default_016" speedFactor="1.01" vaporized="">
        <emissions CO_abs="9606.420756" CO2_abs="581944.509296" HC_abs="57.497975" PMx_abs="10.640135" NOx_abs="237.325473" fuel_abs="250.153366" electricity_abs="0"/>
    </tripinfo>
    <tripinfo id="carIn80064:1" depart="57603.00" departLane="128361109#1_1" departPos="5.10" departSpeed="0.00" departDelay="0.40" arrival="57830.00" arrivalLane="-315358254#1_1" arrivalPos="137.16" arrivalSpeed="11.88" duration="227.00" routeLength="1587.97" waitingTime="78.00" waitingCount="5" stopTime="0.00" timeLoss="132.13" rerouteNo="1" devices="tripinfo_carIn80064:1 routing_carIn80064:1 emissions_carIn80064:1" vType="default_016" speedFactor="0.94" vaporized="">
        <emissions CO_abs="17037.561928" CO2_abs="626602.123259" HC_abs="92.486262" PMx_abs="13.019478" NOx_abs="267.414378" fuel_abs="269.352948" electricity_abs="0"/>
    </tripinfo>
    <tripinfo id="carIn86816:1" depart="57617.00" departLane="128361102#0_1" departPos="5.10" departSpeed="0.00" departDelay="0.80" arrival="57835.00" arrivalLane="201956811#0_1" arrivalPos="40.40" arrivalSpeed="12.55" duration="218.00" routeLength="2067.33" waitingTime="32.00" waitingCount="2" stopTime="0.00" timeLoss="61.98" rerouteNo="1" devices="tripinfo_carIn86816:1 routing_carIn86816:1 emissions_carIn86816:1" vType="default_016" speedFactor="0.97" vaporized="">
        <emissions CO_abs="9994.508239" CO2_abs="519162.055133" HC_abs="57.659268" PMx_abs="9.178003" NOx_abs="211.570349" fuel_abs="223.167346" electricity_abs="0"/>
    </tripinfo>
    <tripinfo id="randUni15030:1" depart="57735.00" departLane="386687232#0_1" departPos="5.10" departSpeed="0.00" departDelay="0.10" arrival="57835.00" arrivalLane="26677539_1" arrivalPos="151.98" arrivalSpeed="6.69" duration="100.00" routeLength="919.89" waitingTime="0.00" waitingCount="0" stopTime="0.00" timeLoss="11.51" rerouteNo="1" devices="tripinfo_randUni15030:1 routing_randUni15030:1 emissions_randUni15030:1" vType="random_016" speedFactor="0.94" vaporized="">
        <emissions CO_abs="3446.234855" CO2_abs="207233.658593" HC_abs="20.469924" PMx_abs="3.222180" NOx_abs="82.106336" fuel_abs="89.081756" electricity_abs="0"/>
    </tripinfo>
    <tripinfo id="carIn102915:1" depart="57643.00" departLane="128361102#0_1" departPos="5.10" departSpeed="0.00" departDelay="0.40" arrival="57837.00" arrivalLane="201956811#0_1" arrivalPos="40.40" arrivalSpeed="15.76" duration="194.00" routeLength="2067.33" waitingTime="9.00" waitingCount="1" stopTime="0.00" timeLoss="69.03" rerouteNo="1" devices="tripinfo_carIn102915:1 routing_carIn102915:1 emissions_carIn102915:1" vType="default_016" speedFactor="1.22" vaporized="">
        <emissions CO_abs="8302.862474" CO2_abs="534745.969739" HC_abs="50.316435" PMx_abs="9.606444" NOx_abs="218.772632" fuel_abs="229.864316" electricity_abs="0"/>
    </tripinfo>
    <tripinfo id="carIn81860:1" depart="57712.00" departLane="128361102#0_1" departPos="5.10" departSpeed="0.00" departDelay="0.60" arrival="57838.00" arrivalLane="-24634517#17_1" arrivalPos="6.43" arrivalSpeed="7.14" duration="126.00" routeLength="1229.64" waitingTime="14.00" waitingCount="1" stopTime="0.00" timeLoss="34.86" rerouteNo="1" devices="tripinfo_carIn81860:1 routing_carIn81860:1 emissions_carIn81860:1" vType="default_016" speedFactor="0.99" vaporized="">
        <emissions CO_abs="5032.826163" CO2_abs="291550.564545" HC_abs="29.735707" PMx_abs="5.002820" NOx_abs="117.637354" fuel_abs="125.325876" electricity_abs="0"/>
    </tripinfo>
    <tripinfo id="carIn107282:1" depart="57749.00" departLane="-447569998#1_1" departPos="5.10" departSpeed="0.00" departDelay="0.00" arrival="57838.00" arrivalLane="315358242#0_1" arrivalPos="165.37" arrivalSpeed="12.03" duration="89.00" routeLength="448.50" waitingTime="33.00" waitingCount="1" stopTime="0.00" timeLoss="42.69" rerouteNo="1" devices="tripinfo_carIn107282:1 routing_carIn107282:1 emissions_carIn107282:1" vType="default_016" speedFactor="0.91" vaporized="">
        <emissions CO_abs="6738.146673" CO2_abs="190469.805152" HC_abs="35.118567" PMx_abs="3.785139" NOx_abs="81.068983" fuel_abs="81.877389" electricity_abs="0"/>
    </tripinfo>
    <tripinfo id="carIn28951:1" depart="57606.00" departLane="10425609#0_1" departPos="5.10" departSpeed="0.00" departDelay="0.20" arrival="57839.00" arrivalLane="-128361102#1_1" arrivalPos="274.68" arrivalSpeed="12.19" duration="233.00" routeLength="2113.04" waitingTime="29.00" waitingCount="2" stopTime="0.00" timeLoss="60.52" rerouteNo="1" devices="tripinfo_carIn28951:1 routing_carIn28951:1 emissions_carIn28951:1" vType="default_016" speedFactor="0.90" vaporized="">
        <emissions CO_abs="9757.808199" CO2_abs="514220.694819" HC_abs="56.397005" PMx_abs="8.696721" NOx_abs="207.488805" fuel_abs="221.043682" electricity_abs="0"/>
    </tripinfo>
    <tripinfo id="carIn77438:1" depart="57614.00" departLane="124812856#0_1" departPos="5.10" departSpeed="0.00" departDelay="1.10" arrival="57841.00" arrivalLane="-128361102#1_1" arrivalPos="274.68" arrivalSpeed="13.61" duration="227.00" routeLength="2250.49" waitingTime="29.00" waitingCount="2" stopTime="0.00" timeLoss="65.41" rerouteNo="1" devices="tripinfo_carIn77438:1 routing_carIn77438:1 emissions_carIn77438:1" vType="default_016" speedFactor="1.02" vaporized="">
        <emissions CO_abs="9517.916279" CO2_abs="543092.103280" HC_abs="55.995035" PMx_abs="9.474536" NOx_abs="219.746413" fuel_abs="233.453389" electricity_abs="0"/>
    </tripinfo>
    <tripinfo id="carIn50326:1" depart="57651.00" departLane="128361102#0_1" departPos="5.10" departSpeed="0.00" departDelay="0.30" arrival="57843.00" arrivalLane="18809673#0_1" arrivalPos="473.56" arrivalSpeed="12.82" duration="192.00" routeLength="1591.07" waitingTime="35.00" waitingCount="1" stopTime="0.00" timeLoss="59.38" rerouteNo="1" devices="tripinfo_carIn50326:1 routing_carIn50326:1 emissions_carIn50326:1" vType="default_016" speedFactor="0.97" vaporized="">
        <emissions CO_abs="10564.956684" CO2_abs="451166.285989" HC_abs="58.617094" PMx_abs="8.057981" NOx_abs="184.834949" fuel_abs="193.940076" electricity_abs="0"/>
    </tripinfo>
    <tripinfo id="h17600c1:1" depart="57662.00" departLane="272042143_1" departPos="5.10" departSpeed="0.00" departDelay="0.30" arrival="57844.00" arrivalLane="201238729#3_1" arrivalPos="431.02" arrivalSpeed="12.73" duration="182.00" routeLength="2100.26" waitingTime="4.00" waitingCount="1" stopTime="0.00" timeLoss="20.42" rerouteNo="1" devices="tripinfo_h17600c1:1 routing_h17600c1:1 emissions_h17600c1:1" vType="default_016" speedFactor="0.94" vaporized="">
        <emissions CO_abs="4518.362631" CO2_abs="387283.209845" HC_abs="29.563974" PMx_abs="5.880796" NOx_abs="150.566307" fuel_abs="166.476888" electricity_abs="0"/>
    </tripinfo>
    <tripinfo id="carIn46110:1" depart="57684.00" departLane="315358244_1" departPos="5.10" departSpeed="0.00" departDelay="1.20" arrival="57844.00" arrivalLane="32978638#0_2" arrivalPos="49.29" arrivalSpeed="13.02" duration="160.00" routeLength="1768.36" waitingTime="6.00" waitingCount="1" stopTime="0.00" timeLoss="28.79" rerouteNo="1" devices="tripinfo_carIn46110:1 routing_carIn46110:1 emissions_carIn46110:1" vType="default_016" speedFactor="0.98" vaporized="">
        <emissions CO_abs="5546.946194" CO2_abs="403783.319845" HC_abs="34.690169" PMx_abs="6.690745" NOx_abs="161.010947" fuel_abs="173.569411" electricity_abs="0"/>
    </tripinfo>
    <tripinfo id="h6541c1:3" depart="57727.00" departLane="201950247#3_1" departPos="5.10" departSpeed="0.00" departDelay="0.00" arrival="57844.00" arrivalLane="32978638#0_1" arrivalPos="49.29" arrivalSpeed="15.80" duration="117.00" routeLength="1176.17" waitingTime="8.00" waitingCount="1" stopTime="0.00" timeLoss="28.94" rerouteNo="1" devices="tripinfo_h6541c1:3 routing_h6541c1:3 emissions_h6541c1:3" vType="default_016" speedFactor="1.16" vaporized="">
        <emissions CO_abs="5893.786658" CO2_abs="334454.524733" HC_abs="34.683997" PMx_abs="6.156178" NOx_abs="137.929947" fuel_abs="143.767992" electricity_abs="0"/>
    </tripinfo>
    <tripinfo id="h5938c1:1" depart="57740.00" departLane="-26677542#0_1" departPos="5.10" departSpeed="0.00" departDelay="0.00" arrival="57850.00" arrivalLane="447569997#1_1" arrivalPos="180.93" arrivalSpeed="7.02" duration="110.00" routeLength="1093.64" waitingTime="0.00" waitingCount="0" stopTime="0.00" timeLoss="12.22" rerouteNo="1" devices="tripinfo_h5938c1:1 routing_h5938c1:1 emissions_h5938c1:1" vType="default_016" speedFactor="0.99" vaporized="">
        <emissions CO_abs="3580.564270" CO2_abs="232006.164223" HC_abs="21.690815" PMx_abs="3.738653" NOx_abs="92.485023" fuel_abs="99.730092" electricity_abs="0"/>
    </tripinfo>
    <tripinfo id="carIn129809:1" depart="57729.00" departLane="-447569998#1_1" departPos="5.10" departSpeed="0.00" departDelay="1.00" arrival="57855.00" arrivalLane="-315358244_1" arrivalPos="33.95" arrivalSpeed="13.14" duration="126.00" routeLength="706.49" waitingTime="52.00" waitingCount="2" stopTime="0.00" timeLoss="65.69" rerouteNo="1" devices="tripinfo_carIn129809:1 routing_carIn129809:1 emissions_carIn129809:1" vType="default_015" speedFactor="1.00" vaporized="">
        <emissions CO_abs="10277.127421" CO2_abs="288104.020673" HC_abs="53.518831" PMx_abs="5.747933" NOx_abs="122.130055" fuel_abs="123.847583" electricity_abs="0"/>
    </tripinfo>
    <tripinfo id="h3536c1:1" depart="57767.00" departLane="-24634413#2_1" departPos="5.10" departSpeed="0.00" departDelay="0.00" arrival="57861.00" arrivalLane="32978638#0_1" arrivalPos="49.29" arrivalSpeed="15.17" duration="94.00" routeLength="953.61" waitingTime="0.00" waitingCount="0" stopTime="0.00" timeLoss="14.14" rerouteNo="1" devices="tripinfo_h3536c1:1 routing_h3536c1:1 emissions_h3536c1:1" vType="default_016" speedFactor="1.13" vaporized="">
        <emissions CO_abs="4499.786291" CO2_abs="282118.740937" HC_abs="27.118827" PMx_abs="5.059942" NOx_abs="115.936937" fuel_abs="121.270788" electricity_abs="0"/>
    </tripinfo>
    <tripinfo id="h3864c1:3" depart="57678.00" departLane="24693977#1_1" departPos="5.10" departSpeed="0.00" departDelay="0.00" arrival="57870.00" arrivalLane="201956820_1" arrivalPos="48.33" arrivalSpeed="12.48" duration="192.00" routeLength="1574.85" waitingTime="34.00" waitingCount="2" stopTime="0.00" timeLoss="60.92" rerouteNo="1" devices="tripinfo_h3864c1:3 routing_h3864c1:3 emissions_h3864c1:3" vType="default_016" speedFactor="0.98" vaporized="">
        <emissions CO_abs="10767.831531" CO2_abs="487904.495681" HC_abs="60.453776" PMx_abs="8.950557" NOx_abs="201.991181" fuel_abs="209.731520" electricity_abs="0"/>
    </tripinfo>