<?xml version="1.0" encoding="UTF-8"?>

<!-- generated on 2021-10-26 18:34:27 by Eclipse SUMO sumo Version 1.10.0
<configuration xmlns:xsi="http://www.w3.org/2001/XMLSchema-instance" xsi:noNamespaceSchemaLocation="http://sumo.dlr.de/xsd/sumoConfiguration.xsd">

    <input>
        <net-file value="/Users/behradkoohy/sumo-scratchpad/RESCO/environments/ingolstadt21/ingolstadt21.net.xml"/>
        <route-files value="/Users/behradkoohy/sumo-scratchpad/RESCO/environments/ingolstadt21/ingolstadt21.rou.xml"/>
    </input>

    <output>
        <tripinfo-output value="/Users/behradkoohy/sumo-scratchpad/RESCO/logs/IPPO-tr0-ingolstadt21-21-drq_norm-wait_norm/tripinfo_79.xml"/>
        <tripinfo-output.write-unfinished value="true"/>
    </output>

    <time>
        <begin value="57600"/>
        <end value="61200"/>
    </time>

    <processing>
        <time-to-teleport value="-1"/>
    </processing>

    <report>
        <no-warnings value="true"/>
        <no-step-log value="true"/>
    </report>

    <emissions>
        <device.emissions.probability value="1"/>
    </emissions>

    <traci_server>
        <remote-port value="62396"/>
    </traci_server>

    <random_number>
        <random value="true"/>
    </random_number>

</configuration>
-->

<tripinfos xmlns:xsi="http://www.w3.org/2001/XMLSchema-instance" xsi:noNamespaceSchemaLocation="http://sumo.dlr.de/xsd/tripinfo_file.xsd">
    <tripinfo id="h15454c2:3" depart="57612.00" departLane="24608844_1" departPos="5.10" departSpeed="0.00" departDelay="0.50" arrival="57681.00" arrivalLane="32978638#0_1" arrivalPos="49.29" arrivalSpeed="10.00" duration="69.00" routeLength="354.79" waitingTime="14.00" waitingCount="1" stopTime="0.00" timeLoss="23.31" rerouteNo="1" devices="tripinfo_h15454c2:3 routing_h15454c2:3 emissions_h15454c2:3" vType="default_016" speedFactor="0.76" vaporized="">
        <emissions CO_abs="4245.559410" CO2_abs="131550.287578" HC_abs="22.378012" PMx_abs="2.488390" NOx_abs="55.602520" fuel_abs="56.549414" electricity_abs="0"/>
    </tripinfo>
    <tripinfo id="carIn53971:1" depart="57640.00" departLane="272042143_1" departPos="5.10" departSpeed="0.00" departDelay="0.80" arrival="57699.00" arrivalLane="24634414#1_1" arrivalPos="162.19" arrivalSpeed="7.24" duration="59.00" routeLength="493.04" waitingTime="0.00" waitingCount="0" stopTime="0.00" timeLoss="9.06" rerouteNo="1" devices="tripinfo_carIn53971:1 routing_carIn53971:1 emissions_carIn53971:1" vType="default_016" speedFactor="0.92" vaporized="">
        <emissions CO_abs="2616.441331" CO2_abs="136165.518107" HC_abs="15.056266" PMx_abs="2.214810" NOx_abs="54.902873" fuel_abs="58.532422" electricity_abs="0"/>
    </tripinfo>
    <tripinfo id="h3688c1:1" depart="57625.00" departLane="201201950#1_1" departPos="5.10" departSpeed="0.00" departDelay="0.00" arrival="57719.00" arrivalLane="32978638#0_1" arrivalPos="49.29" arrivalSpeed="12.29" duration="94.00" routeLength="1089.75" waitingTime="0.00" waitingCount="0" stopTime="0.00" timeLoss="10.40" rerouteNo="1" devices="tripinfo_h3688c1:1 routing_h3688c1:1 emissions_h3688c1:1" vType="default_016" speedFactor="0.96" vaporized="">
        <emissions CO_abs="2965.323157" CO2_abs="220400.611739" HC_abs="18.662301" PMx_abs="3.699445" NOx_abs="88.398786" fuel_abs="94.740776" electricity_abs="0"/>
    </tripinfo>
    <tripinfo id="h7800c1:5" depart="57696.00" departLane="-447569998#1_1" departPos="5.10" departSpeed="0.00" departDelay="0.00" arrival="57722.00" arrivalLane="-447569998#1_2" arrivalPos="180.76" arrivalSpeed="8.05" duration="26.00" routeLength="175.66" waitingTime="0.00" waitingCount="0" stopTime="0.00" timeLoss="3.53" rerouteNo="1" devices="tripinfo_h7800c1:5 routing_h7800c1:5 emissions_h7800c1:5" vType="default_016" speedFactor="0.97" vaporized="">
        <emissions CO_abs="1186.417987" CO2_abs="49274.448548" HC_abs="6.528160" PMx_abs="0.794468" NOx_abs="19.995979" fuel_abs="21.181425" electricity_abs="0"/>
    </tripinfo>
    <tripinfo id="carIn22761:1" depart="57616.00" departLane="-306240162#1_0" departPos="5.10" departSpeed="0.00" departDelay="2.10" arrival="57723.00" arrivalLane="399835085#1_1" arrivalPos="212.23" arrivalSpeed="7.84" duration="107.00" routeLength="1093.26" waitingTime="5.00" waitingCount="1" stopTime="0.00" timeLoss="31.15" rerouteNo="1" devices="tripinfo_carIn22761:1 routing_carIn22761:1 emissions_carIn22761:1" vType="default_016" speedFactor="1.03" vaporized="">
        <emissions CO_abs="5953.435587" CO2_abs="347657.934617" HC_abs="35.370765" PMx_abs="6.611698" NOx_abs="144.241029" fuel_abs="149.443174" electricity_abs="0"/>
    </tripinfo>
    <tripinfo id="carIn60260:1" depart="57606.00" departLane="315358254#0_1" departPos="5.10" departSpeed="0.00" departDelay="0.90" arrival="57743.00" arrivalLane="399835085#1_1" arrivalPos="212.23" arrivalSpeed="6.49" duration="137.00" routeLength="430.98" waitingTime="68.00" waitingCount="1" stopTime="0.00" timeLoss="80.04" rerouteNo="1" devices="tripinfo_carIn60260:1 routing_carIn60260:1 emissions_carIn60260:1" vType="default_016" speedFactor="0.80" vaporized="">
        <emissions CO_abs="13989.894225" CO2_abs="299970.539229" HC_abs="70.665225" PMx_abs="6.401729" NOx_abs="130.939336" fuel_abs="128.950721" electricity_abs="0"/>
    </tripinfo>
    <tripinfo id="carIn121703:1" depart="57647.00" departLane="386687232#0_1" departPos="5.10" departSpeed="0.00" departDelay="0.30" arrival="57743.00" arrivalLane="-315358244_1" arrivalPos="33.95" arrivalSpeed="14.53" duration="96.00" routeLength="1157.39" waitingTime="2.00" waitingCount="1" stopTime="0.00" timeLoss="16.28" rerouteNo="1" devices="tripinfo_carIn121703:1 routing_carIn121703:1 emissions_carIn121703:1" vType="default_016" speedFactor="1.06" vaporized="">
        <emissions CO_abs="3330.868556" CO2_abs="256567.050126" HC_abs="21.111760" PMx_abs="4.281375" NOx_abs="101.929858" fuel_abs="110.287183" electricity_abs="0"/>
    </tripinfo>
    <tripinfo id="h4538c1:1" depart="57701.00" departLane="-10427692#1_1" departPos="5.10" departSpeed="0.00" departDelay="0.00" arrival="57753.00" arrivalLane="-128361102#1_1" arrivalPos="274.68" arrivalSpeed="15.10" duration="52.00" routeLength="440.74" waitingTime="13.00" waitingCount="1" stopTime="0.00" timeLoss="22.98" rerouteNo="1" devices="tripinfo_h4538c1:1 routing_h4538c1:1 emissions_h4538c1:1" vType="default_016" speedFactor="1.09" vaporized="">
        <emissions CO_abs="3144.100669" CO2_abs="142107.095371" HC_abs="17.642309" PMx_abs="2.635809" NOx_abs="58.516681" fuel_abs="61.086429" electricity_abs="0"/>
    </tripinfo>
    <tripinfo id="S5R_frequency1.2" depart="57612.00" departLane="315358250#0_1" departPos="12.10" departSpeed="0.00" departDelay="0.40" arrival="57760.00" arrivalLane="386687235_1" arrivalPos="80.84" arrivalSpeed="12.65" duration="148.00" routeLength="1115.62" waitingTime="33.00" waitingCount="4" stopTime="0.00" timeLoss="67.02" rerouteNo="1" devices="tripinfo_S5R_frequency1.2 routing_S5R_frequency1.2 emissions_S5R_frequency1.2" vType="bus" speedFactor="1.00" vaporized="">
        <emissions CO_abs="2837.403371" CO2_abs="1561143.975991" HC_abs="604.398417" PMx_abs="298.835922" NOx_abs="12709.176720" fuel_abs="665.730775" electricity_abs="0"/>
    </tripinfo>
    <tripinfo id="carIn30817:1" depart="57681.00" departLane="315358244_1" departPos="5.10" departSpeed="0.00" departDelay="0.20" arrival="57760.00" arrivalLane="447569997#1_1" arrivalPos="180.93" arrivalSpeed="8.22" duration="79.00" routeLength="718.04" waitingTime="10.00" waitingCount="1" stopTime="0.00" timeLoss="19.55" rerouteNo="1" devices="tripinfo_carIn30817:1 routing_carIn30817:1 emissions_carIn30817:1" vType="default_016" speedFactor="1.04" vaporized="">
        <emissions CO_abs="3099.427189" CO2_abs="169682.739824" HC_abs="18.058110" PMx_abs="2.849456" NOx_abs="68.147236" fuel_abs="72.940025" electricity_abs="0"/>
    </tripinfo>
    <tripinfo id="h317c2:1" depart="57707.00" departLane="-32978638#0_1" departPos="5.10" departSpeed="0.00" departDelay="0.10" arrival="57764.00" arrivalLane="-266565295#5_1" arrivalPos="172.76" arrivalSpeed="14.41" duration="57.00" routeLength="370.53" waitingTime="22.00" waitingCount="1" stopTime="0.00" timeLoss="31.27" rerouteNo="1" devices="tripinfo_h317c2:1 routing_h317c2:1 emissions_h317c2:1" vType="default_016" speedFactor="1.07" vaporized="">
        <emissions CO_abs="4953.013496" CO2_abs="173264.195457" HC_abs="26.650205" PMx_abs="3.539505" NOx_abs="73.942764" fuel_abs="74.480092" electricity_abs="0"/>
    </tripinfo>
    <tripinfo id="carIn80064:1" depart="57603.00" departLane="128361109#1_1" departPos="5.10" departSpeed="0.00" departDelay="0.40" arrival="57765.00" arrivalLane="-315358254#1_1" arrivalPos="137.16" arrivalSpeed="14.58" duration="162.00" routeLength="1587.97" waitingTime="47.00" waitingCount="2" stopTime="0.00" timeLoss="82.49" rerouteNo="1" devices="tripinfo_carIn80064:1 routing_carIn80064:1 emissions_carIn80064:1" vType="default_016" speedFactor="1.13" vaporized="">
        <emissions CO_abs="13302.801156" CO2_abs="600494.971201" HC_abs="74.975961" PMx_abs="12.539293" NOx_abs="253.770527" fuel_abs="258.128067" electricity_abs="0"/>
    </tripinfo>
    <tripinfo id="h7181c1:1" depart="57660.00" departLane="315358254#0_1" departPos="5.10" departSpeed="0.00" departDelay="0.10" arrival="57770.00" arrivalLane="306240162#0_0" arrivalPos="220.43" arrivalSpeed="15.76" duration="110.00" routeLength="932.35" waitingTime="32.00" waitingCount="2" stopTime="0.00" timeLoss="59.18" rerouteNo="1" devices="tripinfo_h7181c1:1 routing_h7181c1:1 emissions_h7181c1:1" vType="default_016" speedFactor="1.02" vaporized="">
        <emissions CO_abs="9171.445948" CO2_abs="394467.380578" HC_abs="51.191762" PMx_abs="8.246401" NOx_abs="168.248165" fuel_abs="169.565490" electricity_abs="0"/>
    </tripinfo>
    <tripinfo id="h330c1:1" depart="57736.00" departLane="-32978638#0_1" departPos="5.10" departSpeed="0.00" departDelay="0.20" arrival="57770.00" arrivalLane="-266565295#5_1" arrivalPos="172.76" arrivalSpeed="12.19" duration="34.00" routeLength="370.53" waitingTime="0.00" waitingCount="0" stopTime="0.00" timeLoss="5.67" rerouteNo="1" devices="tripinfo_h330c1:1 routing_h330c1:1 emissions_h330c1:1" vType="default_016" speedFactor="0.97" vaporized="">
        <emissions CO_abs="1545.551283" CO2_abs="102568.561692" HC_abs="9.439181" PMx_abs="1.745094" NOx_abs="41.408151" fuel_abs="44.089922" electricity_abs="0"/>
    </tripinfo>
    <tripinfo id="h3326c1:2" depart="57656.00" departLane="22716069#0_1" departPos="5.10" departSpeed="0.00" departDelay="0.00" arrival="57775.00" arrivalLane="24634517#13_1" arrivalPos="111.62" arrivalSpeed="12.52" duration="119.00" routeLength="1312.81" waitingTime="0.00" waitingCount="0" stopTime="0.00" timeLoss="14.70" rerouteNo="1" devices="tripinfo_h3326c1:2 routing_h3326c1:2 emissions_h3326c1:2" vType="default_016" speedFactor="0.94" vaporized="">
        <emissions CO_abs="3920.676637" CO2_abs="293273.278112" HC_abs="24.677175" PMx_abs="4.702097" NOx_abs="116.254252" fuel_abs="126.065922" electricity_abs="0"/>
    </tripinfo>
    <tripinfo id="carIn27009:1" depart="57673.00" departLane="-447569998#1_1" departPos="5.10" departSpeed="0.00" departDelay="0.50" arrival="57775.00" arrivalLane="-26677539_1" arrivalPos="152.75" arrivalSpeed="7.11" duration="102.00" routeLength="699.63" waitingTime="2.00" waitingCount="1" stopTime="0.00" timeLoss="16.37" rerouteNo="1" devices="tripinfo_carIn27009:1 routing_carIn27009:1 emissions_carIn27009:1" vType="default_015" speedFactor="0.98" vaporized="">
        <emissions CO_abs="4290.199495" CO2_abs="191318.632924" HC_abs="23.928967" PMx_abs="3.146455" NOx_abs="77.987095" fuel_abs="82.241074" electricity_abs="0"/>
    </tripinfo>
    <tripinfo id="h5979c1:5" depart="57669.00" departLane="399835085#1_1" departPos="5.10" departSpeed="0.00" departDelay="0.00" arrival="57779.00" arrivalLane="-315358254#1_1" arrivalPos="137.16" arrivalSpeed="12.59" duration="110.00" routeLength="659.33" waitingTime="17.00" waitingCount="1" stopTime="0.00" timeLoss="32.07" rerouteNo="1" devices="tripinfo_h5979c1:5 routing_h5979c1:5 emissions_h5979c1:5" vType="default_016" speedFactor="0.94" vaporized="">
        <emissions CO_abs="5658.266653" CO2_abs="206085.650422" HC_abs="30.536482" PMx_abs="3.722762" NOx_abs="85.744533" fuel_abs="88.589311" electricity_abs="0"/>
    </tripinfo>
    <tripinfo id="h12244c1:3" depart="57612.00" departLane="315358244_1" departPos="5.10" departSpeed="0.00" departDelay="0.40" arrival="57783.00" arrivalLane="386687235_1" arrivalPos="80.84" arrivalSpeed="12.70" duration="171.00" routeLength="1186.14" waitingTime="47.00" waitingCount="3" stopTime="0.00" timeLoss="84.69" rerouteNo="1" devices="tripinfo_h12244c1:3 routing_h12244c1:3 emissions_h12244c1:3" vType="default_016" speedFactor="1.00" vaporized="">
        <emissions CO_abs="11599.849977" CO2_abs="424007.864356" HC_abs="62.726905" PMx_abs="8.072984" NOx_abs="176.888401" fuel_abs="182.266320" electricity_abs="0"/>
    </tripinfo>
    <tripinfo id="carIn12365:1" depart="57713.00" departLane="315358244_1" departPos="5.10" departSpeed="0.00" departDelay="0.50" arrival="57785.00" arrivalLane="447569997#1_1" arrivalPos="180.93" arrivalSpeed="9.36" duration="72.00" routeLength="718.04" waitingTime="8.00" waitingCount="1" stopTime="0.00" timeLoss="22.48" rerouteNo="1" devices="tripinfo_carIn12365:1 routing_carIn12365:1 emissions_carIn12365:1" vType="default_016" speedFactor="1.25" vaporized="">
        <emissions CO_abs="3628.766918" CO2_abs="206933.963510" HC_abs="21.441122" PMx_abs="3.954433" NOx_abs="86.053690" fuel_abs="88.952035" electricity_abs="0"/>
    </tripinfo>
    <tripinfo id="h9563c2:5" depart="57631.00" departLane="315358244_1" departPos="5.10" departSpeed="0.00" departDelay="0.70" arrival="57786.00" arrivalLane="386687235_1" arrivalPos="80.84" arrivalSpeed="13.09" duration="155.00" routeLength="1186.14" waitingTime="35.00" waitingCount="3" stopTime="0.00" timeLoss="63.84" rerouteNo="1" devices="tripinfo_h9563c2:5 routing_h9563c2:5 emissions_h9563c2:5" vType="default_016" speedFactor="0.95" vaporized="">
        <emissions CO_abs="9407.959175" CO2_abs="376862.182552" HC_abs="51.654278" PMx_abs="6.994702" NOx_abs="156.370580" fuel_abs="161.999497" electricity_abs="0"/>
    </tripinfo>
    <tripinfo id="h3568c1:3" depart="57656.00" departLane="266565295#5_1" departPos="5.10" departSpeed="0.00" departDelay="0.80" arrival="57794.00" arrivalLane="-24634415_1" arrivalPos="62.03" arrivalSpeed="14.87" duration="138.00" routeLength="807.40" waitingTime="53.00" waitingCount="2" stopTime="0.00" timeLoss="79.05" rerouteNo="1" devices="tripinfo_h3568c1:3 routing_h3568c1:3 emissions_h3568c1:3" vType="default_016" speedFactor="1.10" vaporized="">
        <emissions CO_abs="12514.233998" CO2_abs="408513.321352" HC_abs="66.603891" PMx_abs="8.443805" NOx_abs="175.372260" fuel_abs="175.605812" electricity_abs="0"/>
    </tripinfo>
    <tripinfo id="h645c1:1" depart="57622.00" departLane="266565295#5_1" departPos="5.10" departSpeed="0.00" departDelay="0.40" arrival="57799.00" arrivalLane="-315358244_1" arrivalPos="33.95" arrivalSpeed="12.73" duration="177.00" routeLength="1910.83" waitingTime="15.00" waitingCount="1" stopTime="0.00" timeLoss="38.86" rerouteNo="1" devices="tripinfo_h645c1:1 routing_h645c1:1 emissions_h645c1:1" vType="default_016" speedFactor="1.01" vaporized="">
        <emissions CO_abs="6348.411819" CO2_abs="411821.610715" HC_abs="38.504074" PMx_abs="6.825014" NOx_abs="163.662049" fuel_abs="177.025379" electricity_abs="0"/>
    </tripinfo>
    <tripinfo id="h3154c1:1" depart="57658.00" departLane="24634507_1" departPos="5.10" departSpeed="0.00" departDelay="0.00" arrival="57807.00" arrivalLane="-266565295#5_1" arrivalPos="172.76" arrivalSpeed="13.71" duration="149.00" routeLength="1206.22" waitingTime="37.00" waitingCount="2" stopTime="0.00" timeLoss="63.43" rerouteNo="1" devices="tripinfo_h3154c1:1 routing_h3154c1:1 emissions_h3154c1:1" vType="default_016" speedFactor="1.04" vaporized="">
        <emissions CO_abs="9440.828516" CO2_abs="404941.997022" HC_abs="52.477496" PMx_abs="7.773212" NOx_abs="169.145907" fuel_abs="174.069079" electricity_abs="0"/>
    </tripinfo>
    <tripinfo id="h11737c1:1" depart="57665.00" departLane="272042143_1" departPos="5.10" departSpeed="0.00" departDelay="1.50" arrival="57807.00" arrivalLane="-315358254#1_1" arrivalPos="137.16" arrivalSpeed="12.77" duration="142.00" routeLength="1596.88" waitingTime="1.00" waitingCount="1" stopTime="0.00" timeLoss="17.53" rerouteNo="1" devices="tripinfo_h11737c1:1 routing_h11737c1:1 emissions_h11737c1:1" vType="default_016" speedFactor="0.93" vaporized="">
        <emissions CO_abs="3979.924629" CO2_abs="330801.324201" HC_abs="25.776682" PMx_abs="4.924708" NOx_abs="128.089411" fuel_abs="142.197924" electricity_abs="0"/>
    </tripinfo>
    <tripinfo id="carIn118591:1" depart="57689.00" departLane="315358244_1" departPos="5.10" departSpeed="0.00" departDelay="0.20" arrival="57808.00" arrivalLane="386687235_1" arrivalPos="80.84" arrivalSpeed="11.84" duration="119.00" routeLength="1186.14" waitingTime="12.00" waitingCount="1" stopTime="0.00" timeLoss="25.74" rerouteNo="1" devices="tripinfo_carIn118591:1 routing_carIn118591:1 emissions_carIn118591:1" vType="default_016" speedFactor="0.93" vaporized="">
        <emissions CO_abs="4566.838407" CO2_abs="256413.028548" HC_abs="26.779560" PMx_abs="4.361453" NOx_abs="103.337267" fuel_abs="110.221827" electricity_abs="0"/>
    </tripinfo>
    <tripinfo id="carIn126288:1" depart="57674.00" departLane="272042143_1" departPos="5.10" departSpeed="0.00" departDelay="0.00" arrival="57809.00" arrivalLane="-315358254#1_1" arrivalPos="137.16" arrivalSpeed="12.48" duration="135.00" routeLength="1596.88" waitingTime="0.00" waitingCount="0" stopTime="0.00" timeLoss="17.10" rerouteNo="1" devices="tripinfo_carIn126288:1 routing_carIn126288:1 emissions_carIn126288:1" vType="default_016" speedFactor="0.99" vaporized="">
        <emissions CO_abs="4533.126941" CO2_abs="349597.578030" HC_abs="28.840729" PMx_abs="5.858979" NOx_abs="140.001913" fuel_abs="150.276900" electricity_abs="0"/>
    </tripinfo>
    <tripinfo id="carIn82278:1" depart="57702.00" departLane="-306240162#1_0" departPos="5.10" departSpeed="0.00" departDelay="0.70" arrival="57811.00" arrivalLane="399835085#1_1" arrivalPos="212.23" arrivalSpeed="8.02" duration="109.00" routeLength="1093.26" waitingTime="9.00" waitingCount="2" stopTime="0.00" timeLoss="37.91" rerouteNo="1" devices="tripinfo_carIn82278:1 routing_carIn82278:1 emissions_carIn82278:1" vType="default_016" speedFactor="1.09" vaporized="">
        <emissions CO_abs="7045.524601" CO2_abs="376438.458411" HC_abs="41.056343" PMx_abs="7.446350" NOx_abs="158.188235" fuel_abs="161.814739" electricity_abs="0"/>
    </tripinfo>
    <tripinfo id="carIn28951:1" depart="57606.00" departLane="10425609#0_1" departPos="5.10" departSpeed="0.00" departDelay="0.20" arrival="57813.00" arrivalLane="-128361102#1_1" arrivalPos="274.68" arrivalSpeed="15.01" duration="207.00" routeLength="2113.04" waitingTime="28.00" waitingCount="4" stopTime="0.00" timeLoss="68.11" rerouteNo="1" devices="tripinfo_carIn28951:1 routing_carIn28951:1 emissions_carIn28951:1" vType="default_016" speedFactor="1.12" vaporized="">
        <emissions CO_abs="9136.238610" CO2_abs="563794.466310" HC_abs="54.426975" PMx_abs="9.953947" NOx_abs="227.606354" fuel_abs="242.351745" electricity_abs="0"/>
    </tripinfo>
    <tripinfo id="carIn107282:1" depart="57749.00" departLane="-447569998#1_1" departPos="5.10" departSpeed="0.00" departDelay="0.00" arrival="57825.00" arrivalLane="315358242#0_1" arrivalPos="165.37" arrivalSpeed="14.56" duration="76.00" routeLength="448.50" waitingTime="28.00" waitingCount="1" stopTime="0.00" timeLoss="36.51" rerouteNo="1" devices="tripinfo_carIn107282:1 routing_carIn107282:1 emissions_carIn107282:1" vType="default_016" speedFactor="1.07" vaporized="">
        <emissions CO_abs="6111.459027" CO2_abs="189201.616497" HC_abs="32.245921" PMx_abs="3.696707" NOx_abs="79.727656" fuel_abs="81.331872" electricity_abs="0"/>
    </tripinfo>
    <tripinfo id="h19804c1:3" depart="57617.00" departLane="124812856#0_1" departPos="5.10" departSpeed="0.00" departDelay="1.50" arrival="57829.00" arrivalLane="-128361102#1_1" arrivalPos="274.68" arrivalSpeed="12.70" duration="212.00" routeLength="2250.49" waitingTime="15.00" waitingCount="2" stopTime="0.00" timeLoss="44.24" rerouteNo="1" devices="tripinfo_h19804c1:3 routing_h19804c1:3 emissions_h19804c1:3" vType="default_016" speedFactor="0.98" vaporized="">
        <emissions CO_abs="6749.408440" CO2_abs="478203.634581" HC_abs="41.939299" PMx_abs="8.054952" NOx_abs="191.656629" fuel_abs="205.559508" electricity_abs="0"/>
    </tripinfo>
    <tripinfo id="carIn48184:1" depart="57613.00" departLane="-306240162#1_0" departPos="5.10" departSpeed="0.00" departDelay="0.70" arrival="57833.00" arrivalLane="386687235_2" arrivalPos="80.84" arrivalSpeed="16.51" duration="220.00" routeLength="2257.41" waitingTime="45.00" waitingCount="4" stopTime="0.00" timeLoss="98.10" rerouteNo="1" devices="tripinfo_carIn48184:1 routing_carIn48184:1 emissions_carIn48184:1" vType="default_016" speedFactor="1.22" vaporized="">
        <emissions CO_abs="14834.717717" CO2_abs="753918.476050" HC_abs="85.483747" PMx_abs="15.101239" NOx_abs="315.103524" fuel_abs="324.077819" electricity_abs="0"/>
    </tripinfo>
    <tripinfo id="carIn81860:1" depart="57712.00" departLane="128361102#0_1" departPos="5.10" departSpeed="0.00" departDelay="0.60" arrival="57833.00" arrivalLane="-24634517#17_1" arrivalPos="6.43" arrivalSpeed="7.22" duration="121.00" routeLength="1229.64" waitingTime="13.00" waitingCount="1" stopTime="0.00" timeLoss="34.16" rerouteNo="1" devices="tripinfo_carIn81860:1 routing_carIn81860:1 emissions_carIn81860:1" vType="default_016" speedFactor="1.04" vaporized="">
        <emissions CO_abs="5632.180036" CO2_abs="311255.614724" HC_abs="32.922736" PMx_abs="5.519428" NOx_abs="126.467806" fuel_abs="133.796257" electricity_abs="0"/>
    </tripinfo>
    <tripinfo id="h16072c2:3" depart="57663.00" departLane="315358254#0_1" departPos="5.10" departSpeed="0.00" departDelay="2.50" arrival="57834.00" arrivalLane="386687235_1" arrivalPos="80.84" arrivalSpeed="12.86" duration="171.00" routeLength="1611.92" waitingTime="31.00" waitingCount="3" stopTime="0.00" timeLoss="54.48" rerouteNo="1" devices="tripinfo_h16072c2:3 routing_h16072c2:3 emissions_h16072c2:3" vType="default_016" speedFactor="1.01" vaporized="">
        <emissions CO_abs="8296.530530" CO2_abs="405790.535988" HC_abs="47.245798" PMx_abs="7.220353" NOx_abs="165.164111" fuel_abs="174.433780" electricity_abs="0"/>
    </tripinfo>
    <tripinfo id="h17549c1:1" depart="57680.00" departLane="-447569998#1_1" departPos="5.10" departSpeed="0.00" departDelay="0.00" arrival="57837.00" arrivalLane="-315358254#1_1" arrivalPos="137.16" arrivalSpeed="14.96" duration="157.00" routeLength="1746.60" waitingTime="12.00" waitingCount="1" stopTime="0.00" timeLoss="31.25" rerouteNo="1" devices="tripinfo_h17549c1:1 routing_h17549c1:1 emissions_h17549c1:1" vType="default_016" speedFactor="1.09" vaporized="">
        <emissions CO_abs="5828.325592" CO2_abs="411787.259322" HC_abs="36.174614" PMx_abs="6.967517" NOx_abs="164.372285" fuel_abs="177.009969" electricity_abs="0"/>
    </tripinfo>
    <tripinfo id="carIn129809:1" depart="57729.00" departLane="-447569998#1_1" departPos="5.10" departSpeed="0.00" departDelay="1.00" arrival="57843.00" arrivalLane="-315358244_1" arrivalPos="33.95" arrivalSpeed="14.95" duration="114.00" routeLength="706.49" waitingTime="49.00" waitingCount="1" stopTime="0.00" timeLoss="60.75" rerouteNo="1" devices="tripinfo_carIn129809:1 routing_carIn129809:1 emissions_carIn129809:1" vType="default_015" speedFactor="1.13" vaporized="">
        <emissions CO_abs="9563.481342" CO2_abs="277750.329076" HC_abs="49.990330" PMx_abs="5.563564" NOx_abs="117.264714" fuel_abs="119.396555" electricity_abs="0"/>
    </tripinfo>
    <tripinfo id="50R_frequency3.17" depart="57674.00" departLane="-18809673#6_1" departPos="12.10" departSpeed="0.00" departDelay="0.70" arrival="57845.00" arrivalLane="201956811#0_1" arrivalPos="40.40" arrivalSpeed="11.25" duration="171.00" routeLength="1954.47" waitingTime="2.00" waitingCount="1" stopTime="0.00" timeLoss="26.80" rerouteNo="1" devices="tripinfo_50R_frequency3.17 routing_50R_frequency3.17 emissions_50R_frequency3.17" vType="bus" speedFactor="1.00" vaporized="">
        <emissions CO_abs="3271.283027" CO2_abs="2049255.073569" HC_abs="699.157840" PMx_abs="351.280635" NOx_abs="15890.178330" fuel_abs="873.994330" electricity_abs="0"/>
    </tripinfo>
    <tripinfo id="randUni31145:1" depart="57814.00" departLane="10425609#0_1" departPos="5.10" departSpeed="0.00" departDelay="0.30" arrival="57845.00" arrivalLane="201956810_1" arrivalPos="71.65" arrivalSpeed="11.53" duration="31.00" routeLength="255.78" waitingTime="0.00" waitingCount="0" stopTime="0.00" timeLoss="9.47" rerouteNo="1" devices="tripinfo_randUni31145:1 routing_randUni31145:1 emissions_randUni31145:1" vType="random_016" speedFactor="0.92" vaporized="">
        <emissions CO_abs="1952.504128" CO2_abs="95874.315979" HC_abs="11.161662" PMx_abs="1.890967" NOx_abs="40.941680" fuel_abs="41.212326" electricity_abs="0"/>
    </tripinfo>
    <tripinfo id="carIn12858:1" depart="57661.00" departLane="128361109#1_1" departPos="5.10" departSpeed="0.00" departDelay="0.90" arrival="57846.00" arrivalLane="399835085#1_1" arrivalPos="212.23" arrivalSpeed="7.86" duration="185.00" routeLength="1738.12" waitingTime="35.00" waitingCount="2" stopTime="0.00" timeLoss="65.82" rerouteNo="1" devices="tripinfo_carIn12858:1 routing_carIn12858:1 emissions_carIn12858:1" vType="default_016" speedFactor="0.97" vaporized="">
        <emissions CO_abs="12215.601184" CO2_abs="582070.496766" HC_abs="69.451544" PMx_abs="11.353787" NOx_abs="241.938570" fuel_abs="250.208673" electricity_abs="0"/>
    </tripinfo>
    <tripinfo id="randUni2407:1" depart="57820.00" departLane="10425609#0_1" departPos="5.10" departSpeed="0.00" departDelay="0.80" arrival="57847.00" arrivalLane="201956810_1" arrivalPos="71.65" arrivalSpeed="16.04" duration="27.00" routeLength="255.78" waitingTime="0.00" waitingCount="0" stopTime="0.00" timeLoss="9.37" rerouteNo="1" devices="tripinfo_randUni2407:1 routing_randUni2407:1 emissions_randUni2407:1" vType="random_016" speedFactor="1.16" vaporized="">
        <emissions CO_abs="1801.670247" CO2_abs="105457.116460" HC_abs="10.677970" PMx_abs="1.944364" NOx_abs="43.746349" fuel_abs="45.331520" electricity_abs="0"/>
    </tripinfo>
    <tripinfo id="carIn86816:1" depart="57617.00" departLane="128361102#0_1" departPos="5.10" departSpeed="0.00" departDelay="0.80" arrival="57848.00" arrivalLane="201956811#0_1" arrivalPos="40.40" arrivalSpeed="14.11" duration="231.00" routeLength="2067.33" waitingTime="55.00" waitingCount="2" stopTime="0.00" timeLoss="85.62" rerouteNo="1" devices="tripinfo_carIn86816:1 routing_carIn86816:1 emissions_carIn86816:1" vType="default_016" speedFactor="1.04" vaporized="">
        <emissions CO_abs="13656.062667" CO2_abs="595478.543562" HC_abs="76.128986" PMx_abs="11.251202" NOx_abs="247.054597" fuel_abs="255.973590" electricity_abs="0"/>
    </tripinfo>
    <tripinfo id="carIn107084:1" depart="57601.00" departLane="124812856#0_1" departPos="5.10" departSpeed="0.00" departDelay="0.70" arrival="57850.00" arrivalLane="-128361102#1_1" arrivalPos="274.68" arrivalSpeed="12.36" duration="249.00" routeLength="2250.49" waitingTime="33.00" waitingCount="4" stopTime="0.00" timeLoss="73.04" rerouteNo="1" devices="tripinfo_carIn107084:1 routing_carIn107084:1 emissions_carIn107084:1" vType="default_016" speedFactor="0.94" vaporized="">
        <emissions CO_abs="9741.684858" CO2_abs="557852.720770" HC_abs="57.382651" PMx_abs="9.512505" NOx_abs="225.399362" fuel_abs="239.798590" electricity_abs="0"/>
    </tripinfo>
    <tripinfo id="randUni15030:1" depart="57735.00" departLane="386687232#0_1" departPos="5.10" departSpeed="0.00" departDelay="0.10" arrival="57851.00" arrivalLane="26677539_1" arrivalPos="151.98" arrivalSpeed="6.27" duration="116.00" routeLength="919.89" waitingTime="5.00" waitingCount="1" stopTime="0.00" timeLoss="20.88" rerouteNo="1" devices="tripinfo_randUni15030:1 routing_randUni15030:1 emissions_randUni15030:1" vType="random_016" speedFactor="0.88" vaporized="">
        <emissions CO_abs="4341.757003" CO2_abs="222281.180588" HC_abs="24.874114" PMx_abs="3.486246" NOx_abs="88.695249" fuel_abs="95.550566" electricity_abs="0"/>
    </tripinfo>
    <tripinfo id="carIn77943:1" depart="57608.00" departLane="124812856#0_1" departPos="5.10" departSpeed="0.00" departDelay="2.50" arrival="57853.00" arrivalLane="-128361102#1_1" arrivalPos="274.68" arrivalSpeed="12.81" duration="245.00" routeLength="2250.49" waitingTime="27.00" waitingCount="3" stopTime="0.00" timeLoss="68.83" rerouteNo="1" devices="tripinfo_carIn77943:1 routing_carIn77943:1 emissions_carIn77943:1" vType="default_016" speedFactor="0.93" vaporized="">
        <emissions CO_abs="9679.653458" CO2_abs="559508.002621" HC_abs="57.123954" PMx_abs="9.452812" NOx_abs="225.546512" fuel_abs="240.510181" electricity_abs="0"/>
    </tripinfo>
    <tripinfo id="h5170c2:1" depart="57631.00" departLane="201201953#4_1" departPos="5.10" departSpeed="0.00" departDelay="0.00" arrival="57854.00" arrivalLane="-266565295#5_1" arrivalPos="172.76" arrivalSpeed="16.94" duration="223.00" routeLength="3097.92" waitingTime="10.00" waitingCount="1" stopTime="0.00" timeLoss="42.16" rerouteNo="1" devices="tripinfo_h5170c2:1 routing_h5170c2:1 emissions_h5170c2:1" vType="default_016" speedFactor="1.26" vaporized="">
        <emissions CO_abs="8698.264712" CO2_abs="686620.883212" HC_abs="55.506793" PMx_abs="12.229582" NOx_abs="274.265633" fuel_abs="295.147863" electricity_abs="0"/>
    </tripinfo>