<?xml version="1.0" encoding="UTF-8"?>

<!-- generated on 2021-10-26 17:50:21 by Eclipse SUMO sumo Version 1.10.0
<configuration xmlns:xsi="http://www.w3.org/2001/XMLSchema-instance" xsi:noNamespaceSchemaLocation="http://sumo.dlr.de/xsd/sumoConfiguration.xsd">

    <input>
        <net-file value="/Users/behradkoohy/sumo-scratchpad/RESCO/environments/ingolstadt21/ingolstadt21.net.xml"/>
        <route-files value="/Users/behradkoohy/sumo-scratchpad/RESCO/environments/ingolstadt21/ingolstadt21.rou.xml"/>
    </input>

    <output>
        <tripinfo-output value="/Users/behradkoohy/sumo-scratchpad/RESCO/logs/IPPO-tr0-ingolstadt21-21-drq_norm-wait_norm/tripinfo_24.xml"/>
        <tripinfo-output.write-unfinished value="true"/>
    </output>

    <time>
        <begin value="57600"/>
        <end value="61200"/>
    </time>

    <processing>
        <time-to-teleport value="-1"/>
    </processing>

    <report>
        <no-warnings value="true"/>
        <no-step-log value="true"/>
    </report>

    <emissions>
        <device.emissions.probability value="1"/>
    </emissions>

    <traci_server>
        <remote-port value="61683"/>
    </traci_server>

    <random_number>
        <random value="true"/>
    </random_number>

</configuration>
-->

<tripinfos xmlns:xsi="http://www.w3.org/2001/XMLSchema-instance" xsi:noNamespaceSchemaLocation="http://sumo.dlr.de/xsd/tripinfo_file.xsd">
    <tripinfo id="carIn60260:1" depart="57606.00" departLane="315358254#0_1" departPos="5.10" departSpeed="0.00" departDelay="0.90" arrival="57659.00" arrivalLane="399835085#1_1" arrivalPos="212.23" arrivalSpeed="7.28" duration="53.00" routeLength="430.98" waitingTime="0.00" waitingCount="0" stopTime="0.00" timeLoss="7.43" rerouteNo="1" devices="tripinfo_carIn60260:1 routing_carIn60260:1 emissions_carIn60260:1" vType="default_016" speedFactor="1.02" vaporized="">
        <emissions CO_abs="2321.849728" CO2_abs="120811.718252" HC_abs="13.379068" PMx_abs="2.068608" NOx_abs="49.474896" fuel_abs="51.932235" electricity_abs="0"/>
    </tripinfo>
    <tripinfo id="h15454c2:3" depart="57612.00" departLane="24608844_1" departPos="5.10" departSpeed="0.00" departDelay="0.50" arrival="57662.00" arrivalLane="32978638#0_1" arrivalPos="49.29" arrivalSpeed="11.23" duration="50.00" routeLength="354.79" waitingTime="3.00" waitingCount="1" stopTime="0.00" timeLoss="12.24" rerouteNo="1" devices="tripinfo_h15454c2:3 routing_h15454c2:3 emissions_h15454c2:3" vType="default_016" speedFactor="0.90" vaporized="">
        <emissions CO_abs="2596.737210" CO2_abs="122298.162379" HC_abs="14.665783" PMx_abs="2.141457" NOx_abs="50.464333" fuel_abs="52.571330" electricity_abs="0"/>
    </tripinfo>
    <tripinfo id="carIn53971:1" depart="57640.00" departLane="272042143_1" departPos="5.10" departSpeed="0.00" departDelay="0.80" arrival="57696.00" arrivalLane="24634414#1_1" arrivalPos="162.19" arrivalSpeed="7.18" duration="56.00" routeLength="493.04" waitingTime="0.00" waitingCount="0" stopTime="0.00" timeLoss="8.08" rerouteNo="1" devices="tripinfo_carIn53971:1 routing_carIn53971:1 emissions_carIn53971:1" vType="default_016" speedFactor="0.95" vaporized="">
        <emissions CO_abs="2466.699578" CO2_abs="132174.459072" HC_abs="14.315718" PMx_abs="2.309279" NOx_abs="54.295963" fuel_abs="56.816513" electricity_abs="0"/>
    </tripinfo>
    <tripinfo id="h7800c1:5" depart="57696.00" departLane="-447569998#1_1" departPos="5.10" departSpeed="0.00" departDelay="0.00" arrival="57721.00" arrivalLane="-447569998#1_1" arrivalPos="180.76" arrivalSpeed="7.43" duration="25.00" routeLength="175.66" waitingTime="0.00" waitingCount="0" stopTime="0.00" timeLoss="3.36" rerouteNo="1" devices="tripinfo_h7800c1:5 routing_h7800c1:5 emissions_h7800c1:5" vType="default_016" speedFactor="1.01" vaporized="">
        <emissions CO_abs="1116.784589" CO2_abs="48531.722237" HC_abs="6.205354" PMx_abs="0.831932" NOx_abs="20.006268" fuel_abs="20.862033" electricity_abs="0"/>
    </tripinfo>
    <tripinfo id="h3688c1:1" depart="57625.00" departLane="201201950#1_1" departPos="5.10" departSpeed="0.00" departDelay="0.00" arrival="57724.00" arrivalLane="32978638#0_1" arrivalPos="49.29" arrivalSpeed="12.92" duration="99.00" routeLength="1089.75" waitingTime="0.00" waitingCount="0" stopTime="0.00" timeLoss="19.46" rerouteNo="1" devices="tripinfo_h3688c1:1 routing_h3688c1:1 emissions_h3688c1:1" vType="default_016" speedFactor="1.00" vaporized="">
        <emissions CO_abs="4066.924127" CO2_abs="289590.582618" HC_abs="25.309192" PMx_abs="4.896784" NOx_abs="116.264026" fuel_abs="124.482684" electricity_abs="0"/>
    </tripinfo>
    <tripinfo id="h317c2:1" depart="57707.00" departLane="-32978638#0_1" departPos="5.10" departSpeed="0.00" departDelay="0.10" arrival="57740.00" arrivalLane="-266565295#5_1" arrivalPos="172.76" arrivalSpeed="12.80" duration="33.00" routeLength="370.53" waitingTime="0.00" waitingCount="0" stopTime="0.00" timeLoss="5.76" rerouteNo="1" devices="tripinfo_h317c2:1 routing_h317c2:1 emissions_h317c2:1" vType="default_016" speedFactor="1.01" vaporized="">
        <emissions CO_abs="1643.788482" CO2_abs="104587.011429" HC_abs="9.939296" PMx_abs="1.885675" NOx_abs="42.957721" fuel_abs="44.957458" electricity_abs="0"/>
    </tripinfo>
    <tripinfo id="carIn30817:1" depart="57681.00" departLane="315358244_1" departPos="5.10" departSpeed="0.00" departDelay="0.20" arrival="57743.00" arrivalLane="447569997#1_1" arrivalPos="180.93" arrivalSpeed="8.92" duration="62.00" routeLength="718.04" waitingTime="0.00" waitingCount="0" stopTime="0.00" timeLoss="6.80" rerouteNo="1" devices="tripinfo_carIn30817:1 routing_carIn30817:1 emissions_carIn30817:1" vType="default_016" speedFactor="1.12" vaporized="">
        <emissions CO_abs="1807.655056" CO2_abs="139062.077926" HC_abs="11.423950" PMx_abs="2.148006" NOx_abs="54.160526" fuel_abs="59.777093" electricity_abs="0"/>
    </tripinfo>
    <tripinfo id="h4538c1:1" depart="57701.00" departLane="-10427692#1_1" departPos="5.10" departSpeed="0.00" departDelay="0.00" arrival="57747.00" arrivalLane="-128361102#1_1" arrivalPos="274.68" arrivalSpeed="12.29" duration="46.00" routeLength="440.74" waitingTime="2.00" waitingCount="1" stopTime="0.00" timeLoss="13.25" rerouteNo="1" devices="tripinfo_h4538c1:1 routing_h4538c1:1 emissions_h4538c1:1" vType="default_016" speedFactor="0.97" vaporized="">
        <emissions CO_abs="1942.389618" CO2_abs="118204.918195" HC_abs="11.604649" PMx_abs="1.998659" NOx_abs="47.660144" fuel_abs="50.811491" electricity_abs="0"/>
    </tripinfo>
    <tripinfo id="h7181c1:1" depart="57660.00" departLane="315358254#0_1" departPos="5.10" departSpeed="0.00" departDelay="0.10" arrival="57750.00" arrivalLane="306240162#0_0" arrivalPos="220.43" arrivalSpeed="18.08" duration="90.00" routeLength="932.35" waitingTime="26.00" waitingCount="1" stopTime="0.00" timeLoss="43.00" rerouteNo="1" devices="tripinfo_h7181c1:1 routing_h7181c1:1 emissions_h7181c1:1" vType="default_016" speedFactor="1.10" vaporized="">
        <emissions CO_abs="7481.647590" CO2_abs="340344.673867" HC_abs="42.259201" PMx_abs="7.111374" NOx_abs="143.291329" fuel_abs="146.300170" electricity_abs="0"/>
    </tripinfo>
    <tripinfo id="h3568c1:3" depart="57656.00" departLane="266565295#5_1" departPos="5.10" departSpeed="0.00" departDelay="0.80" arrival="57756.00" arrivalLane="-24634415_1" arrivalPos="62.03" arrivalSpeed="13.09" duration="100.00" routeLength="807.40" waitingTime="11.00" waitingCount="1" stopTime="0.00" timeLoss="34.36" rerouteNo="1" devices="tripinfo_h3568c1:3 routing_h3568c1:3 emissions_h3568c1:3" vType="default_016" speedFactor="0.99" vaporized="">
        <emissions CO_abs="5925.672491" CO2_abs="286176.968404" HC_abs="33.736170" PMx_abs="5.474353" NOx_abs="120.390233" fuel_abs="123.015832" electricity_abs="0"/>
    </tripinfo>
    <tripinfo id="h330c1:1" depart="57736.00" departLane="-32978638#0_1" departPos="5.10" departSpeed="0.00" departDelay="0.20" arrival="57768.00" arrivalLane="-266565295#5_1" arrivalPos="172.76" arrivalSpeed="13.82" duration="32.00" routeLength="370.53" waitingTime="0.00" waitingCount="0" stopTime="0.00" timeLoss="5.91" rerouteNo="1" devices="tripinfo_h330c1:1 routing_h330c1:1 emissions_h330c1:1" vType="default_016" speedFactor="1.07" vaporized="">
        <emissions CO_abs="1667.905800" CO2_abs="104742.004288" HC_abs="10.086779" PMx_abs="2.005821" NOx_abs="43.788232" fuel_abs="45.023923" electricity_abs="0"/>
    </tripinfo>
    <tripinfo id="h3326c1:2" depart="57656.00" departLane="22716069#0_1" departPos="5.10" departSpeed="0.00" departDelay="0.00" arrival="57771.00" arrivalLane="24634517#13_1" arrivalPos="111.62" arrivalSpeed="13.29" duration="115.00" routeLength="1312.81" waitingTime="0.00" waitingCount="0" stopTime="0.00" timeLoss="15.62" rerouteNo="1" devices="tripinfo_h3326c1:2 routing_h3326c1:2 emissions_h3326c1:2" vType="default_016" speedFactor="0.99" vaporized="">
        <emissions CO_abs="4136.875163" CO2_abs="313369.505396" HC_abs="26.182527" PMx_abs="5.255893" NOx_abs="125.545006" fuel_abs="134.704070" electricity_abs="0"/>
    </tripinfo>
    <tripinfo id="carIn27009:1" depart="57673.00" departLane="-447569998#1_1" departPos="5.10" departSpeed="0.00" departDelay="0.50" arrival="57773.00" arrivalLane="-26677539_1" arrivalPos="152.75" arrivalSpeed="8.25" duration="100.00" routeLength="699.63" waitingTime="1.00" waitingCount="1" stopTime="0.00" timeLoss="18.29" rerouteNo="1" devices="tripinfo_carIn27009:1 routing_carIn27009:1 emissions_carIn27009:1" vType="default_015" speedFactor="1.03" vaporized="">
        <emissions CO_abs="4262.068066" CO2_abs="196184.114493" HC_abs="23.905982" PMx_abs="3.165176" NOx_abs="79.507743" fuel_abs="84.332555" electricity_abs="0"/>
    </tripinfo>
    <tripinfo id="h12244c1:3" depart="57612.00" departLane="315358244_1" departPos="5.10" departSpeed="0.00" departDelay="0.40" arrival="57777.00" arrivalLane="386687235_1" arrivalPos="80.84" arrivalSpeed="14.62" duration="165.00" routeLength="1186.14" waitingTime="64.00" waitingCount="1" stopTime="0.00" timeLoss="84.69" rerouteNo="1" devices="tripinfo_h12244c1:3 routing_h12244c1:3 emissions_h12244c1:3" vType="default_016" speedFactor="1.08" vaporized="">
        <emissions CO_abs="13388.069448" CO2_abs="429424.703344" HC_abs="70.995112" PMx_abs="8.564713" NOx_abs="180.891258" fuel_abs="184.595715" electricity_abs="0"/>
    </tripinfo>
    <tripinfo id="carIn22761:1" depart="57616.00" departLane="-306240162#1_0" departPos="5.10" departSpeed="0.00" departDelay="2.10" arrival="57780.00" arrivalLane="399835085#1_1" arrivalPos="212.23" arrivalSpeed="8.53" duration="164.00" routeLength="1093.26" waitingTime="69.00" waitingCount="2" stopTime="0.00" timeLoss="94.94" rerouteNo="1" devices="tripinfo_carIn22761:1 routing_carIn22761:1 emissions_carIn22761:1" vType="default_016" speedFactor="1.13" vaporized="">
        <emissions CO_abs="14918.684902" CO2_abs="474899.885441" HC_abs="79.171726" PMx_abs="10.054798" NOx_abs="203.035757" fuel_abs="204.143308" electricity_abs="0"/>
    </tripinfo>
    <tripinfo id="carIn121703:1" depart="57647.00" departLane="386687232#0_1" departPos="5.10" departSpeed="0.00" departDelay="0.30" arrival="57782.00" arrivalLane="-315358244_1" arrivalPos="33.95" arrivalSpeed="15.81" duration="135.00" routeLength="1157.39" waitingTime="37.00" waitingCount="3" stopTime="0.00" timeLoss="62.37" rerouteNo="1" devices="tripinfo_carIn121703:1 routing_carIn121703:1 emissions_carIn121703:1" vType="default_016" speedFactor="1.16" vaporized="">
        <emissions CO_abs="8644.084660" CO2_abs="389129.614336" HC_abs="48.466110" PMx_abs="7.572064" NOx_abs="162.333931" fuel_abs="167.271497" electricity_abs="0"/>
    </tripinfo>
    <tripinfo id="h5979c1:5" depart="57669.00" departLane="399835085#1_1" departPos="5.10" departSpeed="0.00" departDelay="0.00" arrival="57788.00" arrivalLane="-315358254#1_1" arrivalPos="137.16" arrivalSpeed="12.33" duration="119.00" routeLength="659.33" waitingTime="21.00" waitingCount="1" stopTime="0.00" timeLoss="42.55" rerouteNo="1" devices="tripinfo_h5979c1:5 routing_h5979c1:5 emissions_h5979c1:5" vType="default_016" speedFactor="0.96" vaporized="">
        <emissions CO_abs="7516.860830" CO2_abs="248027.462241" HC_abs="39.965239" PMx_abs="4.571921" NOx_abs="103.883521" fuel_abs="106.619145" electricity_abs="0"/>
    </tripinfo>
    <tripinfo id="carIn12365:1" depart="57713.00" departLane="315358244_1" departPos="5.10" departSpeed="0.00" departDelay="0.50" arrival="57793.00" arrivalLane="447569997#1_1" arrivalPos="180.93" arrivalSpeed="6.55" duration="80.00" routeLength="718.04" waitingTime="0.00" waitingCount="0" stopTime="0.00" timeLoss="9.71" rerouteNo="1" devices="tripinfo_carIn12365:1 routing_carIn12365:1 emissions_carIn12365:1" vType="default_016" speedFactor="0.88" vaporized="">
        <emissions CO_abs="2769.395911" CO2_abs="152828.628944" HC_abs="16.125674" PMx_abs="2.384909" NOx_abs="60.787220" fuel_abs="65.695295" electricity_abs="0"/>
    </tripinfo>
    <tripinfo id="h3154c1:1" depart="57658.00" departLane="24634507_1" departPos="5.10" departSpeed="0.00" departDelay="0.00" arrival="57795.00" arrivalLane="-266565295#5_1" arrivalPos="172.76" arrivalSpeed="15.18" duration="137.00" routeLength="1206.22" waitingTime="38.00" waitingCount="1" stopTime="0.00" timeLoss="57.88" rerouteNo="1" devices="tripinfo_h3154c1:1 routing_h3154c1:1 emissions_h3154c1:1" vType="default_016" speedFactor="1.12" vaporized="">
        <emissions CO_abs="9887.585301" CO2_abs="402732.131514" HC_abs="54.513976" PMx_abs="7.917763" NOx_abs="168.995740" fuel_abs="173.119333" electricity_abs="0"/>
    </tripinfo>
    <tripinfo id="S5R_frequency1.2" depart="57612.00" departLane="315358250#0_1" departPos="12.10" departSpeed="0.00" departDelay="0.40" arrival="57797.00" arrivalLane="386687235_1" arrivalPos="80.84" arrivalSpeed="13.80" duration="185.00" routeLength="1115.62" waitingTime="70.00" waitingCount="3" stopTime="0.00" timeLoss="103.18" rerouteNo="1" devices="tripinfo_S5R_frequency1.2 routing_S5R_frequency1.2 emissions_S5R_frequency1.2" vType="bus" speedFactor="1.00" vaporized="">
        <emissions CO_abs="3373.377137" CO2_abs="1644045.326125" HC_abs="744.195152" PMx_abs="351.324220" NOx_abs="14023.622758" fuel_abs="701.014866" electricity_abs="0"/>
    </tripinfo>
    <tripinfo id="h9563c2:5" depart="57631.00" departLane="315358244_1" departPos="5.10" departSpeed="0.00" departDelay="0.70" arrival="57804.00" arrivalLane="386687235_1" arrivalPos="80.84" arrivalSpeed="12.95" duration="173.00" routeLength="1186.14" waitingTime="46.00" waitingCount="4" stopTime="0.00" timeLoss="86.43" rerouteNo="1" devices="tripinfo_h9563c2:5 routing_h9563c2:5 emissions_h9563c2:5" vType="default_016" speedFactor="1.00" vaporized="">
        <emissions CO_abs="10827.823210" CO2_abs="403234.054449" HC_abs="58.740437" PMx_abs="7.638496" NOx_abs="168.001295" fuel_abs="173.336263" electricity_abs="0"/>
    </tripinfo>
    <tripinfo id="carIn118591:1" depart="57689.00" departLane="315358244_1" departPos="5.10" departSpeed="0.00" departDelay="0.20" arrival="57805.00" arrivalLane="386687235_1" arrivalPos="80.84" arrivalSpeed="13.25" duration="116.00" routeLength="1186.14" waitingTime="6.00" waitingCount="3" stopTime="0.00" timeLoss="31.91" rerouteNo="1" devices="tripinfo_carIn118591:1 routing_carIn118591:1 emissions_carIn118591:1" vType="default_016" speedFactor="1.02" vaporized="">
        <emissions CO_abs="4070.510210" CO2_abs="263959.336859" HC_abs="24.681978" PMx_abs="4.379375" NOx_abs="105.307549" fuel_abs="113.465350" electricity_abs="0"/>
    </tripinfo>
    <tripinfo id="carIn107282:1" depart="57749.00" departLane="-447569998#1_1" departPos="5.10" departSpeed="0.00" departDelay="0.00" arrival="57807.00" arrivalLane="315358242#0_1" arrivalPos="165.37" arrivalSpeed="12.74" duration="58.00" routeLength="448.50" waitingTime="5.00" waitingCount="1" stopTime="0.00" timeLoss="14.13" rerouteNo="1" devices="tripinfo_carIn107282:1 routing_carIn107282:1 emissions_carIn107282:1" vType="default_016" speedFactor="0.96" vaporized="">
        <emissions CO_abs="2186.665666" CO2_abs="114291.634676" HC_abs="12.605054" PMx_abs="1.904477" NOx_abs="46.277830" fuel_abs="49.129597" electricity_abs="0"/>
    </tripinfo>
    <tripinfo id="carIn80064:1" depart="57603.00" departLane="128361109#1_1" departPos="5.10" departSpeed="0.00" departDelay="0.40" arrival="57812.00" arrivalLane="-315358254#1_1" arrivalPos="137.16" arrivalSpeed="12.41" duration="209.00" routeLength="1587.97" waitingTime="83.00" waitingCount="3" stopTime="0.00" timeLoss="116.95" rerouteNo="1" devices="tripinfo_carIn80064:1 routing_carIn80064:1 emissions_carIn80064:1" vType="default_016" speedFactor="0.97" vaporized="">
        <emissions CO_abs="18397.610280" CO2_abs="639898.364631" HC_abs="99.014253" PMx_abs="13.455172" NOx_abs="272.893894" fuel_abs="275.069246" electricity_abs="0"/>
    </tripinfo>
    <tripinfo id="h17600c1:1" depart="57662.00" departLane="272042143_1" departPos="5.10" departSpeed="0.00" departDelay="0.30" arrival="57818.00" arrivalLane="201238729#3_1" arrivalPos="431.02" arrivalSpeed="14.00" duration="156.00" routeLength="2100.26" waitingTime="0.00" waitingCount="0" stopTime="0.00" timeLoss="16.08" rerouteNo="1" devices="tripinfo_h17600c1:1 routing_h17600c1:1 emissions_h17600c1:1" vType="default_016" speedFactor="1.08" vaporized="">
        <emissions CO_abs="4359.349775" CO2_abs="404537.092982" HC_abs="29.228450" PMx_abs="6.600234" NOx_abs="158.754156" fuel_abs="173.892733" electricity_abs="0"/>
    </tripinfo>
    <tripinfo id="carIn81860:1" depart="57712.00" departLane="128361102#0_1" departPos="5.10" departSpeed="0.00" departDelay="0.60" arrival="57820.00" arrivalLane="-24634517#17_1" arrivalPos="6.43" arrivalSpeed="9.76" duration="108.00" routeLength="1229.64" waitingTime="7.00" waitingCount="1" stopTime="0.00" timeLoss="33.96" rerouteNo="1" devices="tripinfo_carIn81860:1 routing_carIn81860:1 emissions_carIn81860:1" vType="default_016" speedFactor="1.22" vaporized="">
        <emissions CO_abs="5312.839354" CO2_abs="332005.002284" HC_abs="31.942559" PMx_abs="6.192810" NOx_abs="136.251956" fuel_abs="142.714567" electricity_abs="0"/>
    </tripinfo>
    <tripinfo id="carIn82278:1" depart="57702.00" departLane="-306240162#1_0" departPos="5.10" departSpeed="0.00" departDelay="0.70" arrival="57824.00" arrivalLane="399835085#1_1" arrivalPos="212.23" arrivalSpeed="7.90" duration="122.00" routeLength="1093.26" waitingTime="16.00" waitingCount="1" stopTime="0.00" timeLoss="43.45" rerouteNo="1" devices="tripinfo_carIn82278:1 routing_carIn82278:1 emissions_carIn82278:1" vType="default_016" speedFactor="0.99" vaporized="">
        <emissions CO_abs="6824.108694" CO2_abs="316898.582725" HC_abs="38.575462" PMx_abs="6.123431" NOx_abs="132.425003" fuel_abs="136.222068" electricity_abs="0"/>
    </tripinfo>
    <tripinfo id="carIn12858:1" depart="57661.00" departLane="128361109#1_1" departPos="5.10" departSpeed="0.00" departDelay="0.90" arrival="57826.00" arrivalLane="399835085#1_1" arrivalPos="212.23" arrivalSpeed="7.97" duration="165.00" routeLength="1738.12" waitingTime="18.00" waitingCount="2" stopTime="0.00" timeLoss="53.69" rerouteNo="1" devices="tripinfo_carIn12858:1 routing_carIn12858:1 emissions_carIn12858:1" vType="default_016" speedFactor="1.03" vaporized="">
        <emissions CO_abs="10021.321768" CO2_abs="536092.129547" HC_abs="58.416605" PMx_abs="10.528139" NOx_abs="223.071703" fuel_abs="230.443284" electricity_abs="0"/>
    </tripinfo>
    <tripinfo id="carIn50326:1" depart="57651.00" departLane="128361102#0_1" departPos="5.10" departSpeed="0.00" departDelay="0.30" arrival="57834.00" arrivalLane="18809673#0_1" arrivalPos="473.56" arrivalSpeed="12.13" duration="183.00" routeLength="1591.07" waitingTime="24.00" waitingCount="2" stopTime="0.00" timeLoss="48.48" rerouteNo="1" devices="tripinfo_carIn50326:1 routing_carIn50326:1 emissions_carIn50326:1" vType="default_016" speedFactor="0.96" vaporized="">
        <emissions CO_abs="7747.744775" CO2_abs="389480.082868" HC_abs="44.326004" PMx_abs="6.575875" NOx_abs="157.258861" fuel_abs="167.422799" electricity_abs="0"/>
    </tripinfo>
    <tripinfo id="50R_frequency3.17" depart="57674.00" departLane="-18809673#6_1" departPos="12.10" departSpeed="0.00" departDelay="0.70" arrival="57836.00" arrivalLane="201956811#0_1" arrivalPos="40.40" arrivalSpeed="12.78" duration="162.00" routeLength="1954.47" waitingTime="0.00" waitingCount="0" stopTime="0.00" timeLoss="17.10" rerouteNo="1" devices="tripinfo_50R_frequency3.17 routing_50R_frequency3.17 emissions_50R_frequency3.17" vType="bus" speedFactor="1.00" vaporized="">
        <emissions CO_abs="3147.696199" CO2_abs="2034817.465735" HC_abs="660.036792" PMx_abs="338.858630" NOx_abs="15618.901185" fuel_abs="867.848133" electricity_abs="0"/>
    </tripinfo>
    <tripinfo id="carIn129809:1" depart="57729.00" departLane="-447569998#1_1" departPos="5.10" departSpeed="0.00" departDelay="1.00" arrival="57843.00" arrivalLane="-315358244_1" arrivalPos="33.95" arrivalSpeed="13.58" duration="114.00" routeLength="706.49" waitingTime="36.00" waitingCount="2" stopTime="0.00" timeLoss="53.83" rerouteNo="1" devices="tripinfo_carIn129809:1 routing_carIn129809:1 emissions_carIn129809:1" vType="default_015" speedFactor="1.00" vaporized="">
        <emissions CO_abs="7799.203733" CO2_abs="252738.601173" HC_abs="41.414755" PMx_abs="4.895865" NOx_abs="106.500675" fuel_abs="108.644164" electricity_abs="0"/>
    </tripinfo>
    <tripinfo id="carIn8642:1" depart="57774.00" departLane="-447569998#1_1" departPos="5.10" departSpeed="0.00" departDelay="0.90" arrival="57844.00" arrivalLane="-315358244_2" arrivalPos="33.95" arrivalSpeed="12.63" duration="70.00" routeLength="706.49" waitingTime="0.00" waitingCount="0" stopTime="0.00" timeLoss="9.51" rerouteNo="1" devices="tripinfo_carIn8642:1 routing_carIn8642:1 emissions_carIn8642:1" vType="default_016" speedFactor="1.00" vaporized="">
        <emissions CO_abs="2661.820473" CO2_abs="174381.014046" HC_abs="16.190620" PMx_abs="2.952455" NOx_abs="70.366426" fuel_abs="74.959127" electricity_abs="0"/>
    </tripinfo>
    <tripinfo id="h645c1:1" depart="57622.00" departLane="266565295#5_1" departPos="5.10" departSpeed="0.00" departDelay="0.40" arrival="57845.00" arrivalLane="-315358244_1" arrivalPos="33.95" arrivalSpeed="14.50" duration="223.00" routeLength="1910.83" waitingTime="70.00" waitingCount="2" stopTime="0.00" timeLoss="92.71" rerouteNo="1" devices="tripinfo_h645c1:1 routing_h645c1:1 emissions_h645c1:1" vType="default_016" speedFactor="1.06" vaporized="">
        <emissions CO_abs="15559.276274" CO2_abs="593740.172401" HC_abs="84.762432" PMx_abs="11.211730" NOx_abs="245.249472" fuel_abs="255.228122" electricity_abs="0"/>
    </tripinfo>
    <tripinfo id="carIn85747:1" depart="57673.00" departLane="128361109#1_1" departPos="5.10" departSpeed="0.00" departDelay="0.70" arrival="57873.00" arrivalLane="386687235_2" arrivalPos="80.84" arrivalSpeed="14.22" duration="200.00" routeLength="2088.57" waitingTime="34.00" waitingCount="2" stopTime="0.00" timeLoss="56.43" rerouteNo="1" devices="tripinfo_carIn85747:1 routing_carIn85747:1 emissions_carIn85747:1" vType="default_016" speedFactor="1.05" vaporized="">
        <emissions CO_abs="8704.194233" CO2_abs="472447.537271" HC_abs="50.614342" PMx_abs="8.237489" NOx_abs="189.932727" fuel_abs="203.086629" electricity_abs="0"/>
    </tripinfo>
    <tripinfo id="carIn48184:1" depart="57613.00" departLane="-306240162#1_0" departPos="5.10" departSpeed="0.00" departDelay="0.70" arrival="57874.00" arrivalLane="386687235_1" arrivalPos="80.84" arrivalSpeed="13.22" duration="261.00" routeLength="2257.41" waitingTime="70.00" waitingCount="6" stopTime="0.00" timeLoss="109.50" rerouteNo="1" devices="tripinfo_carIn48184:1 routing_carIn48184:1 emissions_carIn48184:1" vType="default_016" speedFactor="0.98" vaporized="">
        <emissions CO_abs="15378.018172" CO2_abs="652757.790957" HC_abs="85.358884" PMx_abs="12.431163" NOx_abs="270.357900" fuel_abs="280.596080" electricity_abs="0"/>
    </tripinfo>
    <tripinfo id="h5938c1:1" depart="57740.00" departLane="-26677542#0_1" departPos="5.10" departSpeed="0.00" departDelay="0.00" arrival="57874.00" arrivalLane="447569997#1_1" arrivalPos="180.93" arrivalSpeed="6.65" duration="134.00" routeLength="1093.64" waitingTime="6.00" waitingCount="1" stopTime="0.00" timeLoss="21.77" rerouteNo="1" devices="tripinfo_h5938c1:1 routing_h5938c1:1 emissions_h5938c1:1" vType="default_016" speedFactor="0.87" vaporized="">
        <emissions CO_abs="4462.256048" CO2_abs="243803.949278" HC_abs="25.910624" PMx_abs="3.739484" NOx_abs="96.691168" fuel_abs="104.802296" electricity_abs="0"/>
    </tripinfo>
    <tripinfo id="randUni31145:1" depart="57814.00" departLane="10425609#0_1" departPos="5.10" departSpeed="0.00" departDelay="0.30" arrival="57875.00" arrivalLane="201956810_1" arrivalPos="71.65" arrivalSpeed="12.88" duration="61.00" routeLength="255.78" waitingTime="31.00" waitingCount="1" stopTime="0.00" timeLoss="39.90" rerouteNo="1" devices="tripinfo_randUni31145:1 routing_randUni31145:1 emissions_randUni31145:1" vType="random_016" speedFactor="0.95" vaporized="">
        <emissions CO_abs="6499.738353" CO2_abs="183830.974027" HC_abs="33.920228" PMx_abs="3.870736" NOx_abs="79.661718" fuel_abs="79.023214" electricity_abs="0"/>
    </tripinfo>
    <tripinfo id="carIn82220:1" depart="57619.00" departLane="-306240162#1_0" departPos="5.10" departSpeed="0.00" departDelay="3.50" arrival="57876.00" arrivalLane="386687235_1" arrivalPos="80.84" arrivalSpeed="12.53" duration="257.00" routeLength="2257.41" waitingTime="53.00" waitingCount="5" stopTime="0.00" timeLoss="94.52" rerouteNo="1" devices="tripinfo_carIn82220:1 routing_carIn82220:1 emissions_carIn82220:1" vType="default_016" speedFactor="0.92" vaporized="">
        <emissions CO_abs="14066.882736" CO2_abs="646197.027540" HC_abs="79.190926" PMx_abs="11.828841" NOx_abs="264.646762" fuel_abs="277.775587" electricity_abs="0"/>
    </tripinfo>
    <tripinfo id="carIn7949:1" depart="57676.00" departLane="128361109#1_1" departPos="5.10" departSpeed="0.00" departDelay="2.10" arrival="57877.00" arrivalLane="386687235_1" arrivalPos="80.84" arrivalSpeed="13.62" duration="201.00" routeLength="2088.57" waitingTime="36.00" waitingCount="1" stopTime="0.00" timeLoss="54.68" rerouteNo="1" devices="tripinfo_carIn7949:1 routing_carIn7949:1 emissions_carIn7949:1" vType="default_016" speedFactor="1.03" vaporized="">
        <emissions CO_abs="9208.392185" CO2_abs="457228.954880" HC_abs="52.587113" PMx_abs="7.965855" NOx_abs="183.914595" fuel_abs="196.545436" electricity_abs="0"/>
    </tripinfo>
    <tripinfo id="carIn73855:1" depart="57743.00" departLane="386687232#0_1" departPos="5.10" departSpeed="0.00" departDelay="0.50" arrival="57878.00" arrivalLane="-315358244_1" arrivalPos="33.95" arrivalSpeed="13.28" duration="135.00" routeLength="1157.39" waitingTime="39.00" waitingCount="1" stopTime="0.00" timeLoss="51.29" rerouteNo="1" devices="tripinfo_carIn73855:1 routing_carIn73855:1 emissions_carIn73855:1" vType="default_016" speedFactor="1.01" vaporized="">
        <emissions CO_abs="7899.068538" CO2_abs="308147.858508" HC_abs="43.121578" PMx_abs="5.630482" NOx_abs="126.122415" fuel_abs="132.462105" electricity_abs="0"/>
    </tripinfo>
    <tripinfo id="randUni2407:1" depart="57820.00" departLane="10425609#0_1" departPos="5.10" departSpeed="0.00" departDelay="0.80" arrival="57878.00" arrivalLane="201956810_1" arrivalPos="71.65" arrivalSpeed="12.45" duration="58.00" routeLength="255.78" waitingTime="26.00" waitingCount="1" stopTime="0.00" timeLoss="35.72" rerouteNo="1" devices="tripinfo_randUni2407:1 routing_randUni2407:1 emissions_randUni2407:1" vType="random_016" speedFactor="0.90" vaporized="">
        <emissions CO_abs="5647.768144" CO2_abs="160769.278772" HC_abs="29.489513" PMx_abs="3.332743" NOx_abs="69.320789" fuel_abs="69.109758" electricity_abs="0"/>
    </tripinfo>
    <tripinfo id="carIn77943:1" depart="57608.00" departLane="124812856#0_1" departPos="5.10" departSpeed="0.00" departDelay="2.50" arrival="57879.00" arrivalLane="-128361102#1_1" arrivalPos="274.68" arrivalSpeed="12.35" duration="271.00" routeLength="2250.49" waitingTime="54.00" waitingCount="4" stopTime="0.00" timeLoss="88.51" rerouteNo="1" devices="tripinfo_carIn77943:1 routing_carIn77943:1 emissions_carIn77943:1" vType="default_016" speedFactor="0.90" vaporized="">
        <emissions CO_abs="13788.146829" CO2_abs="608181.372361" HC_abs="76.971103" PMx_abs="10.851591" NOx_abs="249.369919" fuel_abs="261.434787" electricity_abs="0"/>
    </tripinfo>
    <tripinfo id="carIn77438:1" depart="57614.00" departLane="124812856#0_1" departPos="5.10" departSpeed="0.00" departDelay="1.10" arrival="57881.00" arrivalLane="-128361102#1_1" arrivalPos="274.68" arrivalSpeed="14.67" duration="267.00" routeLength="2250.49" waitingTime="43.00" waitingCount="4" stopTime="0.00" timeLoss="117.39" rerouteNo="1" devices="tripinfo_carIn77438:1 routing_carIn77438:1 emissions_carIn77438:1" vType="default_016" speedFactor="1.10" vaporized="">
        <emissions CO_abs="14422.162789" CO2_abs="688814.889242" HC_abs="81.859170" PMx_abs="12.740743" NOx_abs="285.558191" fuel_abs="296.094435" electricity_abs="0"/>
    </tripinfo>
    <tripinfo id="carIn107084:1" depart="57601.00" departLane="124812856#0_1" departPos="5.10" departSpeed="0.00" departDelay="0.70" arrival="57883.00" arrivalLane="-128361102#1_1" arrivalPos="274.68" arrivalSpeed="13.32" duration="282.00" routeLength="2250.49" waitingTime="57.00" waitingCount="3" stopTime="0.00" timeLoss="121.05" rerouteNo="1" devices="tripinfo_carIn107084:1 routing_carIn107084:1 emissions_carIn107084:1" vType="default_016" speedFactor="1.02" vaporized="">
        <emissions CO_abs="17465.688911" CO2_abs="762305.814609" HC_abs="97.449804" PMx_abs="14.507672" NOx_abs="318.990649" fuel_abs="327.685920" electricity_abs="0"/>
    </tripinfo>