<?xml version="1.0" encoding="UTF-8"?>

<!-- generated on 2021-10-26 18:43:58 by Eclipse SUMO sumo Version 1.10.0
<configuration xmlns:xsi="http://www.w3.org/2001/XMLSchema-instance" xsi:noNamespaceSchemaLocation="http://sumo.dlr.de/xsd/sumoConfiguration.xsd">

    <input>
        <net-file value="/Users/behradkoohy/sumo-scratchpad/RESCO/environments/ingolstadt21/ingolstadt21.net.xml"/>
        <route-files value="/Users/behradkoohy/sumo-scratchpad/RESCO/environments/ingolstadt21/ingolstadt21.rou.xml"/>
    </input>

    <output>
        <tripinfo-output value="/Users/behradkoohy/sumo-scratchpad/RESCO/logs/IPPO-tr0-ingolstadt21-21-drq_norm-wait_norm/tripinfo_91.xml"/>
        <tripinfo-output.write-unfinished value="true"/>
    </output>

    <time>
        <begin value="57600"/>
        <end value="61200"/>
    </time>

    <processing>
        <time-to-teleport value="-1"/>
    </processing>

    <report>
        <no-warnings value="true"/>
        <no-step-log value="true"/>
    </report>

    <emissions>
        <device.emissions.probability value="1"/>
    </emissions>

    <traci_server>
        <remote-port value="62470"/>
    </traci_server>

    <random_number>
        <random value="true"/>
    </random_number>

</configuration>
-->

<tripinfos xmlns:xsi="http://www.w3.org/2001/XMLSchema-instance" xsi:noNamespaceSchemaLocation="http://sumo.dlr.de/xsd/tripinfo_file.xsd">
    <tripinfo id="h15454c2:3" depart="57612.00" departLane="24608844_1" departPos="5.10" departSpeed="0.00" departDelay="0.50" arrival="57650.00" arrivalLane="32978638#0_1" arrivalPos="49.29" arrivalSpeed="13.57" duration="38.00" routeLength="354.79" waitingTime="0.00" waitingCount="0" stopTime="0.00" timeLoss="5.43" rerouteNo="1" devices="tripinfo_h15454c2:3 routing_h15454c2:3 emissions_h15454c2:3" vType="default_016" speedFactor="1.06" vaporized="">
        <emissions CO_abs="1929.483021" CO2_abs="109368.262668" HC_abs="11.356085" PMx_abs="1.983476" NOx_abs="45.316472" fuel_abs="47.012843" electricity_abs="0"/>
    </tripinfo>
    <tripinfo id="carIn60260:1" depart="57606.00" departLane="315358254#0_1" departPos="5.10" departSpeed="0.00" departDelay="0.90" arrival="57665.00" arrivalLane="399835085#1_1" arrivalPos="212.23" arrivalSpeed="6.49" duration="59.00" routeLength="430.98" waitingTime="0.00" waitingCount="0" stopTime="0.00" timeLoss="7.42" rerouteNo="1" devices="tripinfo_carIn60260:1 routing_carIn60260:1 emissions_carIn60260:1" vType="default_016" speedFactor="0.89" vaporized="">
        <emissions CO_abs="2379.143389" CO2_abs="109534.754699" HC_abs="13.348541" PMx_abs="1.779446" NOx_abs="44.403073" fuel_abs="47.085073" electricity_abs="0"/>
    </tripinfo>
    <tripinfo id="carIn53971:1" depart="57640.00" departLane="272042143_1" departPos="5.10" departSpeed="0.00" departDelay="0.80" arrival="57695.00" arrivalLane="24634414#1_1" arrivalPos="162.19" arrivalSpeed="8.30" duration="55.00" routeLength="493.04" waitingTime="0.00" waitingCount="0" stopTime="0.00" timeLoss="8.95" rerouteNo="1" devices="tripinfo_carIn53971:1 routing_carIn53971:1 emissions_carIn53971:1" vType="default_016" speedFactor="1.00" vaporized="">
        <emissions CO_abs="2595.766230" CO2_abs="144065.230359" HC_abs="15.174212" PMx_abs="2.480219" NOx_abs="58.887781" fuel_abs="61.927862" electricity_abs="0"/>
    </tripinfo>
    <tripinfo id="carIn22761:1" depart="57616.00" departLane="-306240162#1_0" departPos="5.10" departSpeed="0.00" departDelay="2.10" arrival="57717.00" arrivalLane="399835085#1_1" arrivalPos="212.23" arrivalSpeed="7.18" duration="101.00" routeLength="1093.26" waitingTime="0.00" waitingCount="0" stopTime="0.00" timeLoss="18.91" rerouteNo="1" devices="tripinfo_carIn22761:1 routing_carIn22761:1 emissions_carIn22761:1" vType="default_016" speedFactor="0.95" vaporized="">
        <emissions CO_abs="5052.165074" CO2_abs="304348.731029" HC_abs="30.237902" PMx_abs="5.779117" NOx_abs="126.405307" fuel_abs="130.826270" electricity_abs="0"/>
    </tripinfo>
    <tripinfo id="h7800c1:5" depart="57696.00" departLane="-447569998#1_1" departPos="5.10" departSpeed="0.00" departDelay="0.00" arrival="57720.00" arrivalLane="-447569998#1_1" arrivalPos="180.76" arrivalSpeed="7.73" duration="24.00" routeLength="175.66" waitingTime="0.00" waitingCount="0" stopTime="0.00" timeLoss="3.12" rerouteNo="1" devices="tripinfo_h7800c1:5 routing_h7800c1:5 emissions_h7800c1:5" vType="default_016" speedFactor="1.04" vaporized="">
        <emissions CO_abs="1058.596279" CO2_abs="48393.287962" HC_abs="5.928922" PMx_abs="0.776184" NOx_abs="19.581935" fuel_abs="20.802562" electricity_abs="0"/>
    </tripinfo>
    <tripinfo id="h3568c1:3" depart="57656.00" departLane="266565295#5_1" departPos="5.10" departSpeed="0.00" departDelay="0.80" arrival="57741.00" arrivalLane="-24634415_1" arrivalPos="62.03" arrivalSpeed="13.79" duration="85.00" routeLength="807.40" waitingTime="5.00" waitingCount="1" stopTime="0.00" timeLoss="24.18" rerouteNo="1" devices="tripinfo_h3568c1:3 routing_h3568c1:3 emissions_h3568c1:3" vType="default_016" speedFactor="1.07" vaporized="">
        <emissions CO_abs="4481.314496" CO2_abs="253251.453776" HC_abs="26.401393" PMx_abs="4.793022" NOx_abs="105.826666" fuel_abs="108.861959" electricity_abs="0"/>
    </tripinfo>
    <tripinfo id="h317c2:1" depart="57707.00" departLane="-32978638#0_1" departPos="5.10" departSpeed="0.00" departDelay="0.10" arrival="57742.00" arrivalLane="-266565295#5_1" arrivalPos="172.76" arrivalSpeed="13.22" duration="35.00" routeLength="370.53" waitingTime="0.00" waitingCount="0" stopTime="0.00" timeLoss="5.81" rerouteNo="1" devices="tripinfo_h317c2:1 routing_h317c2:1 emissions_h317c2:1" vType="default_016" speedFactor="0.95" vaporized="">
        <emissions CO_abs="1583.393347" CO2_abs="104836.682606" HC_abs="9.667820" PMx_abs="1.801984" NOx_abs="42.455195" fuel_abs="45.064866" electricity_abs="0"/>
    </tripinfo>
    <tripinfo id="h4538c1:1" depart="57701.00" departLane="-10427692#1_1" departPos="5.10" departSpeed="0.00" departDelay="0.00" arrival="57744.00" arrivalLane="-128361102#1_1" arrivalPos="274.68" arrivalSpeed="14.32" duration="43.00" routeLength="440.74" waitingTime="4.00" waitingCount="1" stopTime="0.00" timeLoss="12.98" rerouteNo="1" devices="tripinfo_h4538c1:1 routing_h4538c1:1 emissions_h4538c1:1" vType="default_016" speedFactor="1.08" vaporized="">
        <emissions CO_abs="1965.527649" CO2_abs="133861.533378" HC_abs="12.046505" PMx_abs="2.301775" NOx_abs="53.769628" fuel_abs="57.541412" electricity_abs="0"/>
    </tripinfo>
    <tripinfo id="carIn30817:1" depart="57681.00" departLane="315358244_1" departPos="5.10" departSpeed="0.00" departDelay="0.20" arrival="57763.00" arrivalLane="447569997#1_1" arrivalPos="180.93" arrivalSpeed="6.58" duration="82.00" routeLength="718.04" waitingTime="0.00" waitingCount="0" stopTime="0.00" timeLoss="8.89" rerouteNo="1" devices="tripinfo_carIn30817:1 routing_carIn30817:1 emissions_carIn30817:1" vType="default_016" speedFactor="0.85" vaporized="">
        <emissions CO_abs="2919.719322" CO2_abs="163011.842068" HC_abs="17.041094" PMx_abs="2.524557" NOx_abs="64.754991" fuel_abs="70.072672" electricity_abs="0"/>
    </tripinfo>
    <tripinfo id="h12244c1:3" depart="57612.00" departLane="315358244_1" departPos="5.10" departSpeed="0.00" departDelay="0.40" arrival="57764.00" arrivalLane="386687235_1" arrivalPos="80.84" arrivalSpeed="11.68" duration="152.00" routeLength="1186.14" waitingTime="31.00" waitingCount="3" stopTime="0.00" timeLoss="52.41" rerouteNo="1" devices="tripinfo_h12244c1:3 routing_h12244c1:3 emissions_h12244c1:3" vType="default_016" speedFactor="0.87" vaporized="">
        <emissions CO_abs="7453.600643" CO2_abs="331492.028849" HC_abs="41.677014" PMx_abs="5.953777" NOx_abs="136.500232" fuel_abs="142.496075" electricity_abs="0"/>
    </tripinfo>
    <tripinfo id="h3688c1:1" depart="57625.00" departLane="201201950#1_1" departPos="5.10" departSpeed="0.00" departDelay="0.00" arrival="57764.00" arrivalLane="32978638#0_1" arrivalPos="49.29" arrivalSpeed="11.61" duration="139.00" routeLength="1089.75" waitingTime="33.00" waitingCount="1" stopTime="0.00" timeLoss="49.49" rerouteNo="1" devices="tripinfo_h3688c1:1 routing_h3688c1:1 emissions_h3688c1:1" vType="default_016" speedFactor="0.89" vaporized="">
        <emissions CO_abs="8161.388262" CO2_abs="309859.020320" HC_abs="44.389218" PMx_abs="5.702763" NOx_abs="128.202175" fuel_abs="133.197692" electricity_abs="0"/>
    </tripinfo>
    <tripinfo id="h9563c2:5" depart="57631.00" departLane="315358244_1" departPos="5.10" departSpeed="0.00" departDelay="0.70" arrival="57766.00" arrivalLane="386687235_1" arrivalPos="80.84" arrivalSpeed="11.38" duration="135.00" routeLength="1186.14" waitingTime="20.00" waitingCount="2" stopTime="0.00" timeLoss="39.58" rerouteNo="1" devices="tripinfo_h9563c2:5 routing_h9563c2:5 emissions_h9563c2:5" vType="default_016" speedFactor="0.91" vaporized="">
        <emissions CO_abs="6075.441992" CO2_abs="291186.450380" HC_abs="34.439088" PMx_abs="5.001211" NOx_abs="117.900804" fuel_abs="125.170209" electricity_abs="0"/>
    </tripinfo>
    <tripinfo id="h330c1:1" depart="57736.00" departLane="-32978638#0_1" departPos="5.10" departSpeed="0.00" departDelay="0.20" arrival="57770.00" arrivalLane="-266565295#5_1" arrivalPos="172.76" arrivalSpeed="14.08" duration="34.00" routeLength="370.53" waitingTime="0.00" waitingCount="0" stopTime="0.00" timeLoss="6.59" rerouteNo="1" devices="tripinfo_h330c1:1 routing_h330c1:1 emissions_h330c1:1" vType="default_016" speedFactor="1.02" vaporized="">
        <emissions CO_abs="1617.002422" CO2_abs="110722.440830" HC_abs="9.962029" PMx_abs="1.900461" NOx_abs="44.688380" fuel_abs="47.594876" electricity_abs="0"/>
    </tripinfo>
    <tripinfo id="S5R_frequency1.2" depart="57634.00" departLane="315358250#0_1" departPos="12.10" departSpeed="0.00" departDelay="22.40" arrival="57773.00" arrivalLane="386687235_1" arrivalPos="80.84" arrivalSpeed="13.87" duration="139.00" routeLength="1115.62" waitingTime="21.00" waitingCount="2" stopTime="0.00" timeLoss="57.83" rerouteNo="1" devices="tripinfo_S5R_frequency1.2 routing_S5R_frequency1.2 emissions_S5R_frequency1.2" vType="bus" speedFactor="1.00" vaporized="">
        <emissions CO_abs="2759.276003" CO2_abs="1652289.503083" HC_abs="562.261496" PMx_abs="292.516734" NOx_abs="13058.043867" fuel_abs="704.632002" electricity_abs="0"/>
    </tripinfo>
    <tripinfo id="h3326c1:2" depart="57656.00" departLane="22716069#0_1" departPos="5.10" departSpeed="0.00" departDelay="0.00" arrival="57778.00" arrivalLane="24634517#13_1" arrivalPos="111.62" arrivalSpeed="12.60" duration="122.00" routeLength="1312.81" waitingTime="0.00" waitingCount="0" stopTime="0.00" timeLoss="14.42" rerouteNo="1" devices="tripinfo_h3326c1:2 routing_h3326c1:2 emissions_h3326c1:2" vType="default_016" speedFactor="0.92" vaporized="">
        <emissions CO_abs="4162.963212" CO2_abs="302177.436785" HC_abs="25.993286" PMx_abs="4.875555" NOx_abs="120.180393" fuel_abs="129.893487" electricity_abs="0"/>
    </tripinfo>
    <tripinfo id="carIn121703:1" depart="57647.00" departLane="386687232#0_1" departPos="5.10" departSpeed="0.00" departDelay="0.30" arrival="57783.00" arrivalLane="-315358244_1" arrivalPos="33.95" arrivalSpeed="14.64" duration="136.00" routeLength="1157.39" waitingTime="39.00" waitingCount="2" stopTime="0.00" timeLoss="55.83" rerouteNo="1" devices="tripinfo_carIn121703:1 routing_carIn121703:1 emissions_carIn121703:1" vType="default_016" speedFactor="1.06" vaporized="">
        <emissions CO_abs="8680.946970" CO2_abs="360452.569771" HC_abs="47.933442" PMx_abs="6.778273" NOx_abs="148.949628" fuel_abs="154.945298" electricity_abs="0"/>
    </tripinfo>
    <tripinfo id="carIn27009:1" depart="57673.00" departLane="-447569998#1_1" departPos="5.10" departSpeed="0.00" departDelay="0.50" arrival="57786.00" arrivalLane="-26677539_1" arrivalPos="152.75" arrivalSpeed="7.19" duration="113.00" routeLength="699.63" waitingTime="11.00" waitingCount="1" stopTime="0.00" timeLoss="25.61" rerouteNo="1" devices="tripinfo_carIn27009:1 routing_carIn27009:1 emissions_carIn27009:1" vType="default_015" speedFactor="0.96" vaporized="">
        <emissions CO_abs="5355.301661" CO2_abs="208329.506099" HC_abs="29.173568" PMx_abs="3.552456" NOx_abs="85.699097" fuel_abs="89.553839" electricity_abs="0"/>
    </tripinfo>
    <tripinfo id="carIn118591:1" depart="57689.00" departLane="315358244_1" departPos="5.10" departSpeed="0.00" departDelay="0.20" arrival="57786.00" arrivalLane="386687235_1" arrivalPos="80.84" arrivalSpeed="12.53" duration="97.00" routeLength="1186.14" waitingTime="0.00" waitingCount="0" stopTime="0.00" timeLoss="8.40" rerouteNo="1" devices="tripinfo_carIn118591:1 routing_carIn118591:1 emissions_carIn118591:1" vType="default_016" speedFactor="0.98" vaporized="">
        <emissions CO_abs="2469.060009" CO2_abs="219983.973637" HC_abs="16.360474" PMx_abs="3.458040" NOx_abs="86.068905" fuel_abs="94.561685" electricity_abs="0"/>
    </tripinfo>
    <tripinfo id="carIn107084:1" depart="57601.00" departLane="124812856#0_1" departPos="5.10" departSpeed="0.00" departDelay="0.70" arrival="57790.00" arrivalLane="-128361102#1_1" arrivalPos="274.68" arrivalSpeed="12.94" duration="189.00" routeLength="2250.49" waitingTime="6.00" waitingCount="1" stopTime="0.00" timeLoss="27.20" rerouteNo="1" devices="tripinfo_carIn107084:1 routing_carIn107084:1 emissions_carIn107084:1" vType="default_016" speedFactor="1.02" vaporized="">
        <emissions CO_abs="6151.605339" CO2_abs="490869.970915" HC_abs="39.462754" PMx_abs="8.203943" NOx_abs="195.351309" fuel_abs="211.003750" electricity_abs="0"/>
    </tripinfo>
    <tripinfo id="carIn80064:1" depart="57603.00" departLane="128361109#1_1" departPos="5.10" departSpeed="0.00" departDelay="0.40" arrival="57792.00" arrivalLane="-315358254#1_1" arrivalPos="137.16" arrivalSpeed="10.56" duration="189.00" routeLength="1587.97" waitingTime="43.00" waitingCount="3" stopTime="0.00" timeLoss="77.90" rerouteNo="1" devices="tripinfo_carIn80064:1 routing_carIn80064:1 emissions_carIn80064:1" vType="default_016" speedFactor="0.81" vaporized="">
        <emissions CO_abs="10841.426691" CO2_abs="479682.402100" HC_abs="60.575221" PMx_abs="9.295777" NOx_abs="200.260684" fuel_abs="206.196751" electricity_abs="0"/>
    </tripinfo>
    <tripinfo id="h7181c1:1" depart="57660.00" departLane="315358254#0_1" departPos="5.10" departSpeed="0.00" departDelay="0.10" arrival="57801.00" arrivalLane="306240162#0_0" arrivalPos="220.43" arrivalSpeed="15.26" duration="141.00" routeLength="932.35" waitingTime="72.00" waitingCount="2" stopTime="0.00" timeLoss="88.06" rerouteNo="1" devices="tripinfo_h7181c1:1 routing_h7181c1:1 emissions_h7181c1:1" vType="default_016" speedFactor="0.97" vaporized="">
        <emissions CO_abs="13903.366282" CO2_abs="432271.285991" HC_abs="73.468440" PMx_abs="9.187516" NOx_abs="184.502976" fuel_abs="185.818988" electricity_abs="0"/>
    </tripinfo>
    <tripinfo id="h5979c1:5" depart="57669.00" departLane="399835085#1_1" departPos="5.10" departSpeed="0.00" departDelay="0.00" arrival="57801.00" arrivalLane="-315358254#1_1" arrivalPos="137.16" arrivalSpeed="14.35" duration="132.00" routeLength="659.33" waitingTime="49.00" waitingCount="1" stopTime="0.00" timeLoss="63.15" rerouteNo="1" devices="tripinfo_h5979c1:5 routing_h5979c1:5 emissions_h5979c1:5" vType="default_016" speedFactor="1.06" vaporized="">
        <emissions CO_abs="10970.143528" CO2_abs="299442.301208" HC_abs="56.918919" PMx_abs="6.080343" NOx_abs="128.394510" fuel_abs="128.721583" electricity_abs="0"/>
    </tripinfo>
    <tripinfo id="carIn86816:1" depart="57617.00" departLane="128361102#0_1" departPos="5.10" departSpeed="0.00" departDelay="0.80" arrival="57805.00" arrivalLane="201956811#0_1" arrivalPos="40.40" arrivalSpeed="13.44" duration="188.00" routeLength="2067.33" waitingTime="11.00" waitingCount="2" stopTime="0.00" timeLoss="39.13" rerouteNo="1" devices="tripinfo_carIn86816:1 routing_carIn86816:1 emissions_carIn86816:1" vType="default_016" speedFactor="1.02" vaporized="">
        <emissions CO_abs="7302.221385" CO2_abs="499330.319291" HC_abs="44.872786" PMx_abs="8.611626" NOx_abs="201.317840" fuel_abs="214.640877" electricity_abs="0"/>
    </tripinfo>
    <tripinfo id="carIn12365:1" depart="57713.00" departLane="315358244_1" departPos="5.10" departSpeed="0.00" departDelay="0.50" arrival="57805.00" arrivalLane="447569997#1_1" arrivalPos="180.93" arrivalSpeed="7.43" duration="92.00" routeLength="718.04" waitingTime="17.00" waitingCount="1" stopTime="0.00" timeLoss="30.31" rerouteNo="1" devices="tripinfo_carIn12365:1 routing_carIn12365:1 emissions_carIn12365:1" vType="default_016" speedFactor="1.00" vaporized="">
        <emissions CO_abs="4603.508724" CO2_abs="196858.048295" HC_abs="25.542488" PMx_abs="3.475615" NOx_abs="80.491782" fuel_abs="84.622204" electricity_abs="0"/>
    </tripinfo>
    <tripinfo id="carIn107282:1" depart="57749.00" departLane="-447569998#1_1" departPos="5.10" departSpeed="0.00" departDelay="0.00" arrival="57808.00" arrivalLane="315358242#0_1" arrivalPos="165.37" arrivalSpeed="12.10" duration="59.00" routeLength="448.50" waitingTime="5.00" waitingCount="1" stopTime="0.00" timeLoss="11.92" rerouteNo="1" devices="tripinfo_carIn107282:1 routing_carIn107282:1 emissions_carIn107282:1" vType="default_016" speedFactor="0.88" vaporized="">
        <emissions CO_abs="2369.780668" CO2_abs="120290.586084" HC_abs="13.554141" PMx_abs="1.896217" NOx_abs="48.057133" fuel_abs="51.708535" electricity_abs="0"/>
    </tripinfo>
    <tripinfo id="h3154c1:1" depart="57658.00" departLane="24634507_1" departPos="5.10" departSpeed="0.00" departDelay="0.00" arrival="57819.00" arrivalLane="-266565295#5_1" arrivalPos="172.76" arrivalSpeed="11.86" duration="161.00" routeLength="1206.22" waitingTime="42.00" waitingCount="2" stopTime="0.00" timeLoss="62.29" rerouteNo="1" devices="tripinfo_h3154c1:1 routing_h3154c1:1 emissions_h3154c1:1" vType="default_016" speedFactor="0.91" vaporized="">
        <emissions CO_abs="10947.746529" CO2_abs="413035.142099" HC_abs="59.536362" PMx_abs="7.920635" NOx_abs="173.361167" fuel_abs="177.549072" electricity_abs="0"/>
    </tripinfo>
    <tripinfo id="h16072c2:3" depart="57663.00" departLane="315358254#0_1" departPos="5.10" departSpeed="0.00" departDelay="2.50" arrival="57822.00" arrivalLane="386687235_1" arrivalPos="80.84" arrivalSpeed="14.27" duration="159.00" routeLength="1611.92" waitingTime="38.00" waitingCount="1" stopTime="0.00" timeLoss="52.35" rerouteNo="1" devices="tripinfo_h16072c2:3 routing_h16072c2:3 emissions_h16072c2:3" vType="default_016" speedFactor="1.10" vaporized="">
        <emissions CO_abs="8958.274900" CO2_abs="397214.186688" HC_abs="50.040148" PMx_abs="7.457008" NOx_abs="163.276944" fuel_abs="170.747337" electricity_abs="0"/>
    </tripinfo>
    <tripinfo id="carIn81860:1" depart="57712.00" departLane="128361102#0_1" departPos="5.10" departSpeed="0.00" departDelay="0.60" arrival="57823.00" arrivalLane="-24634517#17_1" arrivalPos="6.43" arrivalSpeed="6.76" duration="111.00" routeLength="1229.64" waitingTime="0.00" waitingCount="0" stopTime="0.00" timeLoss="12.09" rerouteNo="1" devices="tripinfo_carIn81860:1 routing_carIn81860:1 emissions_carIn81860:1" vType="default_016" speedFactor="0.91" vaporized="">
        <emissions CO_abs="3005.511034" CO2_abs="247882.318182" HC_abs="19.398610" PMx_abs="3.589058" NOx_abs="95.477867" fuel_abs="106.554602" electricity_abs="0"/>
    </tripinfo>
    <tripinfo id="carIn50326:1" depart="57651.00" departLane="128361102#0_1" departPos="5.10" departSpeed="0.00" departDelay="0.30" arrival="57824.00" arrivalLane="18809673#0_1" arrivalPos="473.56" arrivalSpeed="12.50" duration="173.00" routeLength="1591.07" waitingTime="14.00" waitingCount="2" stopTime="0.00" timeLoss="38.66" rerouteNo="1" devices="tripinfo_carIn50326:1 routing_carIn50326:1 emissions_carIn50326:1" vType="default_016" speedFactor="0.97" vaporized="">
        <emissions CO_abs="6116.210485" CO2_abs="370373.804221" HC_abs="36.452555" PMx_abs="6.035919" NOx_abs="147.929013" fuel_abs="159.209014" electricity_abs="0"/>
    </tripinfo>
    <tripinfo id="carIn48184:1" depart="57613.00" departLane="-306240162#1_0" departPos="5.10" departSpeed="0.00" departDelay="0.70" arrival="57826.00" arrivalLane="386687235_1" arrivalPos="80.84" arrivalSpeed="14.37" duration="213.00" routeLength="2257.41" waitingTime="38.00" waitingCount="3" stopTime="0.00" timeLoss="72.89" rerouteNo="1" devices="tripinfo_carIn48184:1 routing_carIn48184:1 emissions_carIn48184:1" vType="default_016" speedFactor="1.05" vaporized="">
        <emissions CO_abs="11080.037969" CO2_abs="610654.670877" HC_abs="64.864165" PMx_abs="11.502683" NOx_abs="250.724097" fuel_abs="262.495031" electricity_abs="0"/>
    </tripinfo>
    <tripinfo id="carIn82220:1" depart="57619.00" departLane="-306240162#1_0" departPos="5.10" departSpeed="0.00" departDelay="3.50" arrival="57828.00" arrivalLane="386687235_1" arrivalPos="80.84" arrivalSpeed="13.70" duration="209.00" routeLength="2257.41" waitingTime="33.00" waitingCount="2" stopTime="0.00" timeLoss="68.97" rerouteNo="1" devices="tripinfo_carIn82220:1 routing_carIn82220:1 emissions_carIn82220:1" vType="default_016" speedFactor="1.06" vaporized="">
        <emissions CO_abs="10944.792212" CO2_abs="614440.596820" HC_abs="64.330224" PMx_abs="11.518529" NOx_abs="252.460898" fuel_abs="264.122297" electricity_abs="0"/>
    </tripinfo>
    <tripinfo id="carIn129809:1" depart="57729.00" departLane="-447569998#1_1" departPos="5.10" departSpeed="0.00" departDelay="1.00" arrival="57830.00" arrivalLane="-315358244_1" arrivalPos="33.95" arrivalSpeed="12.06" duration="101.00" routeLength="706.49" waitingTime="27.00" waitingCount="1" stopTime="0.00" timeLoss="36.98" rerouteNo="1" devices="tripinfo_carIn129809:1 routing_carIn129809:1 emissions_carIn129809:1" vType="default_015" speedFactor="0.95" vaporized="">
        <emissions CO_abs="5910.153786" CO2_abs="212541.584034" HC_abs="31.828691" PMx_abs="3.784921" NOx_abs="87.087124" fuel_abs="91.364749" electricity_abs="0"/>
    </tripinfo>
    <tripinfo id="h2831c1:1" depart="57600.00" departLane="201089423#0_1" departPos="5.10" departSpeed="0.00" departDelay="0.00" arrival="57835.00" arrivalLane="-315358244_1" arrivalPos="33.95" arrivalSpeed="13.95" duration="235.00" routeLength="2672.18" waitingTime="14.00" waitingCount="3" stopTime="0.00" timeLoss="43.65" rerouteNo="1" devices="tripinfo_h2831c1:1 routing_h2831c1:1 emissions_h2831c1:1" vType="default_016" speedFactor="1.01" vaporized="">
        <emissions CO_abs="7172.204781" CO2_abs="556201.632960" HC_abs="45.445614" PMx_abs="8.972142" NOx_abs="219.042629" fuel_abs="239.087670" electricity_abs="0"/>
    </tripinfo>
    <tripinfo id="carIn102915:1" depart="57643.00" departLane="128361102#0_1" departPos="5.10" departSpeed="0.00" departDelay="0.40" arrival="57835.00" arrivalLane="201956811#0_1" arrivalPos="40.40" arrivalSpeed="12.68" duration="192.00" routeLength="2067.33" waitingTime="6.00" waitingCount="1" stopTime="0.00" timeLoss="28.05" rerouteNo="1" devices="tripinfo_carIn102915:1 routing_carIn102915:1 emissions_carIn102915:1" vType="default_016" speedFactor="0.93" vaporized="">
        <emissions CO_abs="5991.216830" CO2_abs="446284.953905" HC_abs="37.658915" PMx_abs="7.059562" NOx_abs="176.114535" fuel_abs="191.839433" electricity_abs="0"/>
    </tripinfo>
    <tripinfo id="h645c1:1" depart="57622.00" departLane="266565295#5_1" departPos="5.10" departSpeed="0.00" departDelay="0.40" arrival="57836.00" arrivalLane="-315358244_1" arrivalPos="33.95" arrivalSpeed="13.15" duration="214.00" routeLength="1910.83" waitingTime="43.00" waitingCount="4" stopTime="0.00" timeLoss="76.01" rerouteNo="1" devices="tripinfo_h645c1:1 routing_h645c1:1 emissions_h645c1:1" vType="default_016" speedFactor="1.00" vaporized="">
        <emissions CO_abs="11550.720441" CO2_abs="534492.657010" HC_abs="65.100769" PMx_abs="9.647154" NOx_abs="218.602356" fuel_abs="229.758195" electricity_abs="0"/>
    </tripinfo>
    <tripinfo id="carIn82278:1" depart="57702.00" departLane="-306240162#1_0" departPos="5.10" departSpeed="0.00" departDelay="0.70" arrival="57847.00" arrivalLane="399835085#1_1" arrivalPos="212.23" arrivalSpeed="7.58" duration="145.00" routeLength="1093.26" waitingTime="36.00" waitingCount="1" stopTime="0.00" timeLoss="60.62" rerouteNo="1" devices="tripinfo_carIn82278:1 routing_carIn82278:1 emissions_carIn82278:1" vType="default_016" speedFactor="0.92" vaporized="">
        <emissions CO_abs="10499.209046" CO2_abs="395441.842198" HC_abs="57.123177" PMx_abs="7.837031" NOx_abs="166.516190" fuel_abs="169.986078" electricity_abs="0"/>
    </tripinfo>
    <tripinfo id="carIn12858:1" depart="57661.00" departLane="128361109#1_1" departPos="5.10" departSpeed="0.00" departDelay="0.90" arrival="57850.00" arrivalLane="399835085#1_1" arrivalPos="212.23" arrivalSpeed="7.62" duration="189.00" routeLength="1738.12" waitingTime="32.00" waitingCount="2" stopTime="0.00" timeLoss="64.71" rerouteNo="1" devices="tripinfo_carIn12858:1 routing_carIn12858:1 emissions_carIn12858:1" vType="default_016" speedFactor="0.94" vaporized="">
        <emissions CO_abs="11641.893604" CO2_abs="554012.796301" HC_abs="66.149244" PMx_abs="10.883288" NOx_abs="232.042716" fuel_abs="238.147557" electricity_abs="0"/>
    </tripinfo>
    <tripinfo id="h17600c1:1" depart="57662.00" departLane="272042143_1" departPos="5.10" departSpeed="0.00" departDelay="0.30" arrival="57851.00" arrivalLane="201238729#3_1" arrivalPos="431.02" arrivalSpeed="13.98" duration="189.00" routeLength="2100.26" waitingTime="15.00" waitingCount="1" stopTime="0.00" timeLoss="40.80" rerouteNo="1" devices="tripinfo_h17600c1:1 routing_h17600c1:1 emissions_h17600c1:1" vType="default_016" speedFactor="1.02" vaporized="">
        <emissions CO_abs="6714.556831" CO2_abs="469104.981553" HC_abs="41.444199" PMx_abs="7.718060" NOx_abs="185.619570" fuel_abs="201.648849" electricity_abs="0"/>
    </tripinfo>
    <tripinfo id="carIn8642:1" depart="57774.00" departLane="-447569998#1_1" departPos="5.10" departSpeed="0.00" departDelay="0.90" arrival="57852.00" arrivalLane="-315358244_1" arrivalPos="33.95" arrivalSpeed="14.75" duration="78.00" routeLength="706.49" waitingTime="13.00" waitingCount="1" stopTime="0.00" timeLoss="22.00" rerouteNo="1" devices="tripinfo_carIn8642:1 routing_carIn8642:1 emissions_carIn8642:1" vType="default_016" speedFactor="1.08" vaporized="">
        <emissions CO_abs="3477.351910" CO2_abs="171918.106514" HC_abs="19.824704" PMx_abs="3.082970" NOx_abs="70.204041" fuel_abs="73.900915" electricity_abs="0"/>
    </tripinfo>
    <tripinfo id="carIn12775:1" depart="57676.00" departLane="10425609#0_1" departPos="5.10" departSpeed="0.00" departDelay="0.60" arrival="57854.00" arrivalLane="18809673#0_1" arrivalPos="473.56" arrivalSpeed="13.39" duration="178.00" routeLength="1959.45" waitingTime="9.00" waitingCount="1" stopTime="0.00" timeLoss="37.09" rerouteNo="1" devices="tripinfo_carIn12775:1 routing_carIn12775:1 emissions_carIn12775:1" vType="default_016" speedFactor="1.03" vaporized="">
        <emissions CO_abs="6210.415462" CO2_abs="436810.426562" HC_abs="38.455023" PMx_abs="7.107654" NOx_abs="172.877131" fuel_abs="187.766796" electricity_abs="0"/>
    </tripinfo>
    <tripinfo id="randUni31145:1" depart="57814.00" departLane="10425609#0_1" departPos="5.10" departSpeed="0.00" departDelay="0.30" arrival="57856.00" arrivalLane="201956810_1" arrivalPos="71.65" arrivalSpeed="11.21" duration="42.00" routeLength="255.78" waitingTime="10.00" waitingCount="1" stopTime="0.00" timeLoss="19.27" rerouteNo="1" devices="tripinfo_randUni31145:1 routing_randUni31145:1 emissions_randUni31145:1" vType="random_016" speedFactor="0.88" vaporized="">
        <emissions CO_abs="2760.784960" CO2_abs="114816.689485" HC_abs="15.265454" PMx_abs="2.190462" NOx_abs="48.430664" fuel_abs="49.355342" electricity_abs="0"/>
    </tripinfo>
    <tripinfo id="h11737c1:1" depart="57665.00" departLane="272042143_1" departPos="5.10" departSpeed="0.00" departDelay="1.50" arrival="57857.00" arrivalLane="-315358254#1_1" arrivalPos="137.16" arrivalSpeed="13.26" duration="192.00" routeLength="1596.88" waitingTime="51.00" waitingCount="2" stopTime="0.00" timeLoss="72.63" rerouteNo="1" devices="tripinfo_h11737c1:1 routing_h11737c1:1 emissions_h11737c1:1" vType="default_016" speedFactor="0.98" vaporized="">
        <emissions CO_abs="11397.478526" CO2_abs="454316.660602" HC_abs="62.521658" PMx_abs="8.362800" NOx_abs="187.041792" fuel_abs="195.294650" electricity_abs="0"/>
    </tripinfo>
    <tripinfo id="carIn126288:1" depart="57674.00" departLane="272042143_1" departPos="5.10" departSpeed="0.00" departDelay="0.00" arrival="57859.00" arrivalLane="-315358254#1_1" arrivalPos="137.16" arrivalSpeed="14.89" duration="185.00" routeLength="1596.88" waitingTime="48.00" waitingCount="2" stopTime="0.00" timeLoss="80.91" rerouteNo="1" devices="tripinfo_carIn126288:1 routing_carIn126288:1 emissions_carIn126288:1" vType="default_016" speedFactor="1.12" vaporized="">
        <emissions CO_abs="11627.095664" CO2_abs="498763.156269" HC_abs="64.621515" PMx_abs="9.520756" NOx_abs="207.345027" fuel_abs="214.399353" electricity_abs="0"/>
    </tripinfo>
    <tripinfo id="carIn12152:1" depart="57647.00" departLane="24599188#0.94_1" departPos="5.10" departSpeed="0.00" departDelay="0.50" arrival="57861.00" arrivalLane="-315358254#1_1" arrivalPos="137.16" arrivalSpeed="14.14" duration="214.00" routeLength="2034.31" waitingTime="33.00" waitingCount="3" stopTime="0.00" timeLoss="65.72" rerouteNo="1" devices="tripinfo_carIn12152:1 routing_carIn12152:1 emissions_carIn12152:1" vType="default_016" speedFactor="1.07" vaporized="">
        <emissions CO_abs="9754.164213" CO2_abs="511972.097901" HC_abs="56.333132" PMx_abs="8.920324" NOx_abs="206.867965" fuel_abs="220.076865" electricity_abs="0"/>
    </tripinfo>