<?xml version="1.0" encoding="UTF-8"?>

<!-- generated on 2021-10-26 18:35:19 by Eclipse SUMO sumo Version 1.10.0
<configuration xmlns:xsi="http://www.w3.org/2001/XMLSchema-instance" xsi:noNamespaceSchemaLocation="http://sumo.dlr.de/xsd/sumoConfiguration.xsd">

    <input>
        <net-file value="/Users/behradkoohy/sumo-scratchpad/RESCO/environments/ingolstadt21/ingolstadt21.net.xml"/>
        <route-files value="/Users/behradkoohy/sumo-scratchpad/RESCO/environments/ingolstadt21/ingolstadt21.rou.xml"/>
    </input>

    <output>
        <tripinfo-output value="/Users/behradkoohy/sumo-scratchpad/RESCO/logs/IPPO-tr0-ingolstadt21-21-drq_norm-wait_norm/tripinfo_80.xml"/>
        <tripinfo-output.write-unfinished value="true"/>
    </output>

    <time>
        <begin value="57600"/>
        <end value="61200"/>
    </time>

    <processing>
        <time-to-teleport value="-1"/>
    </processing>

    <report>
        <no-warnings value="true"/>
        <no-step-log value="true"/>
    </report>

    <emissions>
        <device.emissions.probability value="1"/>
    </emissions>

    <traci_server>
        <remote-port value="62402"/>
    </traci_server>

    <random_number>
        <random value="true"/>
    </random_number>

</configuration>
-->

<tripinfos xmlns:xsi="http://www.w3.org/2001/XMLSchema-instance" xsi:noNamespaceSchemaLocation="http://sumo.dlr.de/xsd/tripinfo_file.xsd">
    <tripinfo id="h15454c2:3" depart="57612.00" departLane="24608844_1" departPos="5.10" departSpeed="0.00" departDelay="0.50" arrival="57657.00" arrivalLane="32978638#0_1" arrivalPos="49.29" arrivalSpeed="12.11" duration="45.00" routeLength="354.79" waitingTime="0.00" waitingCount="0" stopTime="0.00" timeLoss="6.41" rerouteNo="1" devices="tripinfo_h15454c2:3 routing_h15454c2:3 emissions_h15454c2:3" vType="default_016" speedFactor="0.90" vaporized="">
        <emissions CO_abs="2306.883502" CO2_abs="117585.841553" HC_abs="13.231563" PMx_abs="1.998805" NOx_abs="48.070847" fuel_abs="50.545618" electricity_abs="0"/>
    </tripinfo>
    <tripinfo id="carIn53971:1" depart="57640.00" departLane="272042143_1" departPos="5.10" departSpeed="0.00" departDelay="0.80" arrival="57696.00" arrivalLane="24634414#1_1" arrivalPos="162.19" arrivalSpeed="7.42" duration="56.00" routeLength="493.04" waitingTime="0.00" waitingCount="0" stopTime="0.00" timeLoss="7.58" rerouteNo="1" devices="tripinfo_carIn53971:1 routing_carIn53971:1 emissions_carIn53971:1" vType="default_016" speedFactor="0.95" vaporized="">
        <emissions CO_abs="2383.594548" CO2_abs="131921.076646" HC_abs="13.916497" PMx_abs="2.209386" NOx_abs="53.500177" fuel_abs="56.707681" electricity_abs="0"/>
    </tripinfo>
    <tripinfo id="carIn22761:1" depart="57616.00" departLane="-306240162#1_0" departPos="5.10" departSpeed="0.00" departDelay="2.10" arrival="57707.00" arrivalLane="399835085#1_1" arrivalPos="212.23" arrivalSpeed="6.97" duration="91.00" routeLength="1093.26" waitingTime="0.00" waitingCount="0" stopTime="0.00" timeLoss="13.32" rerouteNo="1" devices="tripinfo_carIn22761:1 routing_carIn22761:1 emissions_carIn22761:1" vType="default_016" speedFactor="1.00" vaporized="">
        <emissions CO_abs="4238.564715" CO2_abs="280456.634337" HC_abs="25.967307" PMx_abs="5.251702" NOx_abs="114.545470" fuel_abs="120.556002" electricity_abs="0"/>
    </tripinfo>
    <tripinfo id="carIn60260:1" depart="57606.00" departLane="315358254#0_1" departPos="5.10" departSpeed="0.00" departDelay="0.90" arrival="57719.00" arrivalLane="399835085#1_1" arrivalPos="212.23" arrivalSpeed="8.17" duration="113.00" routeLength="430.98" waitingTime="61.00" waitingCount="1" stopTime="0.00" timeLoss="71.35" rerouteNo="1" devices="tripinfo_carIn60260:1 routing_carIn60260:1 emissions_carIn60260:1" vType="default_016" speedFactor="1.10" vaporized="">
        <emissions CO_abs="11524.169092" CO2_abs="273493.243838" HC_abs="58.873862" PMx_abs="5.874480" NOx_abs="119.235866" fuel_abs="117.567645" electricity_abs="0"/>
    </tripinfo>
    <tripinfo id="h3688c1:1" depart="57625.00" departLane="201201950#1_1" departPos="5.10" departSpeed="0.00" departDelay="0.00" arrival="57719.00" arrivalLane="32978638#0_1" arrivalPos="49.29" arrivalSpeed="15.24" duration="94.00" routeLength="1089.75" waitingTime="6.00" waitingCount="1" stopTime="0.00" timeLoss="22.68" rerouteNo="1" devices="tripinfo_h3688c1:1 routing_h3688c1:1 emissions_h3688c1:1" vType="default_016" speedFactor="1.13" vaporized="">
        <emissions CO_abs="4263.921471" CO2_abs="289083.530871" HC_abs="26.145596" PMx_abs="5.280350" NOx_abs="118.214831" fuel_abs="124.264315" electricity_abs="0"/>
    </tripinfo>
    <tripinfo id="h7800c1:5" depart="57696.00" departLane="-447569998#1_1" departPos="5.10" departSpeed="0.00" departDelay="0.00" arrival="57720.00" arrivalLane="-447569998#1_1" arrivalPos="180.76" arrivalSpeed="7.84" duration="24.00" routeLength="175.66" waitingTime="0.00" waitingCount="0" stopTime="0.00" timeLoss="3.19" rerouteNo="1" devices="tripinfo_h7800c1:5 routing_h7800c1:5 emissions_h7800c1:5" vType="default_016" speedFactor="1.05" vaporized="">
        <emissions CO_abs="1147.226268" CO2_abs="52119.398376" HC_abs="6.425952" PMx_abs="0.877925" NOx_abs="21.346723" fuel_abs="22.404229" electricity_abs="0"/>
    </tripinfo>
    <tripinfo id="S5R_frequency1.2" depart="57616.00" departLane="315358250#0_1" departPos="12.10" departSpeed="0.00" departDelay="4.40" arrival="57729.00" arrivalLane="386687235_1" arrivalPos="80.84" arrivalSpeed="13.70" duration="113.00" routeLength="1115.62" waitingTime="3.00" waitingCount="1" stopTime="0.00" timeLoss="31.33" rerouteNo="1" devices="tripinfo_S5R_frequency1.2 routing_S5R_frequency1.2 emissions_S5R_frequency1.2" vType="bus" speedFactor="1.00" vaporized="">
        <emissions CO_abs="2536.021971" CO2_abs="1562572.819444" HC_abs="533.267132" PMx_abs="271.073371" NOx_abs="12199.757781" fuel_abs="666.407917" electricity_abs="0"/>
    </tripinfo>
    <tripinfo id="h4538c1:1" depart="57701.00" departLane="-10427692#1_1" departPos="5.10" departSpeed="0.00" departDelay="0.00" arrival="57740.00" arrivalLane="-128361102#1_1" arrivalPos="274.68" arrivalSpeed="12.72" duration="39.00" routeLength="440.74" waitingTime="0.00" waitingCount="0" stopTime="0.00" timeLoss="6.71" rerouteNo="1" devices="tripinfo_h4538c1:1 routing_h4538c1:1 emissions_h4538c1:1" vType="default_016" speedFactor="0.98" vaporized="">
        <emissions CO_abs="1379.141104" CO2_abs="93919.429188" HC_abs="8.454857" PMx_abs="1.558496" NOx_abs="37.566689" fuel_abs="40.372059" electricity_abs="0"/>
    </tripinfo>
    <tripinfo id="h3568c1:3" depart="57656.00" departLane="266565295#5_1" departPos="5.10" departSpeed="0.00" departDelay="0.80" arrival="57744.00" arrivalLane="-24634415_1" arrivalPos="62.03" arrivalSpeed="14.15" duration="88.00" routeLength="807.40" waitingTime="8.00" waitingCount="1" stopTime="0.00" timeLoss="25.18" rerouteNo="1" devices="tripinfo_h3568c1:3 routing_h3568c1:3 emissions_h3568c1:3" vType="default_016" speedFactor="1.03" vaporized="">
        <emissions CO_abs="3829.008129" CO2_abs="238378.479105" HC_abs="22.998297" PMx_abs="4.302142" NOx_abs="98.025049" fuel_abs="102.468704" electricity_abs="0"/>
    </tripinfo>
    <tripinfo id="h12244c1:3" depart="57612.00" departLane="315358244_1" departPos="5.10" departSpeed="0.00" departDelay="0.40" arrival="57750.00" arrivalLane="386687235_1" arrivalPos="80.84" arrivalSpeed="10.42" duration="138.00" routeLength="1186.14" waitingTime="10.00" waitingCount="2" stopTime="0.00" timeLoss="34.40" rerouteNo="1" devices="tripinfo_h12244c1:3 routing_h12244c1:3 emissions_h12244c1:3" vType="default_016" speedFactor="0.83" vaporized="">
        <emissions CO_abs="5099.735493" CO2_abs="278621.943561" HC_abs="29.688727" PMx_abs="4.645758" NOx_abs="112.576319" fuel_abs="119.768729" electricity_abs="0"/>
    </tripinfo>
    <tripinfo id="h7181c1:1" depart="57660.00" departLane="315358254#0_1" departPos="5.10" departSpeed="0.00" departDelay="0.10" arrival="57751.00" arrivalLane="306240162#0_0" arrivalPos="220.43" arrivalSpeed="15.39" duration="91.00" routeLength="932.35" waitingTime="18.00" waitingCount="2" stopTime="0.00" timeLoss="37.50" rerouteNo="1" devices="tripinfo_h7181c1:1 routing_h7181c1:1 emissions_h7181c1:1" vType="default_016" speedFactor="0.96" vaporized="">
        <emissions CO_abs="5335.558487" CO2_abs="281147.898745" HC_abs="30.873352" PMx_abs="5.467814" NOx_abs="116.400014" fuel_abs="120.853718" electricity_abs="0"/>
    </tripinfo>
    <tripinfo id="h9563c2:5" depart="57631.00" departLane="315358244_1" departPos="5.10" departSpeed="0.00" departDelay="0.70" arrival="57752.00" arrivalLane="386687235_1" arrivalPos="80.84" arrivalSpeed="12.82" duration="121.00" routeLength="1186.14" waitingTime="8.00" waitingCount="2" stopTime="0.00" timeLoss="34.11" rerouteNo="1" devices="tripinfo_h9563c2:5 routing_h9563c2:5 emissions_h9563c2:5" vType="default_016" speedFactor="1.00" vaporized="">
        <emissions CO_abs="4061.901329" CO2_abs="260043.646564" HC_abs="24.517069" PMx_abs="4.214409" NOx_abs="103.324402" fuel_abs="111.782326" electricity_abs="0"/>
    </tripinfo>
    <tripinfo id="h3326c1:2" depart="57656.00" departLane="22716069#0_1" departPos="5.10" departSpeed="0.00" departDelay="0.00" arrival="57761.00" arrivalLane="24634517#13_1" arrivalPos="111.62" arrivalSpeed="14.90" duration="105.00" routeLength="1312.81" waitingTime="0.00" waitingCount="0" stopTime="0.00" timeLoss="15.52" rerouteNo="1" devices="tripinfo_h3326c1:2 routing_h3326c1:2 emissions_h3326c1:2" vType="default_016" speedFactor="1.08" vaporized="">
        <emissions CO_abs="4103.514984" CO2_abs="315724.094050" HC_abs="26.015531" PMx_abs="5.527426" NOx_abs="127.404736" fuel_abs="135.715834" electricity_abs="0"/>
    </tripinfo>
    <tripinfo id="carIn30817:1" depart="57681.00" departLane="315358244_1" departPos="5.10" departSpeed="0.00" departDelay="0.20" arrival="57761.00" arrivalLane="447569997#1_1" arrivalPos="180.93" arrivalSpeed="7.07" duration="80.00" routeLength="718.04" waitingTime="1.00" waitingCount="1" stopTime="0.00" timeLoss="16.49" rerouteNo="1" devices="tripinfo_carIn30817:1 routing_carIn30817:1 emissions_carIn30817:1" vType="default_016" speedFactor="0.97" vaporized="">
        <emissions CO_abs="3503.367965" CO2_abs="194881.520927" HC_abs="20.524809" PMx_abs="3.494157" NOx_abs="80.343482" fuel_abs="83.771550" electricity_abs="0"/>
    </tripinfo>
    <tripinfo id="h317c2:1" depart="57707.00" departLane="-32978638#0_1" departPos="5.10" departSpeed="0.00" departDelay="0.10" arrival="57765.00" arrivalLane="-266565295#5_1" arrivalPos="172.76" arrivalSpeed="12.57" duration="58.00" routeLength="370.53" waitingTime="19.00" waitingCount="1" stopTime="0.00" timeLoss="29.89" rerouteNo="1" devices="tripinfo_h317c2:1 routing_h317c2:1 emissions_h317c2:1" vType="default_016" speedFactor="0.96" vaporized="">
        <emissions CO_abs="4236.590661" CO2_abs="147769.899541" HC_abs="22.768088" PMx_abs="2.946382" NOx_abs="62.778712" fuel_abs="63.521107" electricity_abs="0"/>
    </tripinfo>
    <tripinfo id="h330c1:1" depart="57736.00" departLane="-32978638#0_1" departPos="5.10" departSpeed="0.00" departDelay="0.20" arrival="57767.00" arrivalLane="-266565295#5_1" arrivalPos="172.76" arrivalSpeed="14.72" duration="31.00" routeLength="370.53" waitingTime="0.00" waitingCount="0" stopTime="0.00" timeLoss="5.63" rerouteNo="1" devices="tripinfo_h330c1:1 routing_h330c1:1 emissions_h330c1:1" vType="default_016" speedFactor="1.08" vaporized="">
        <emissions CO_abs="1650.200310" CO2_abs="111354.936744" HC_abs="10.142830" PMx_abs="2.032393" NOx_abs="45.717836" fuel_abs="47.866594" electricity_abs="0"/>
    </tripinfo>
    <tripinfo id="carIn27009:1" depart="57673.00" departLane="-447569998#1_1" departPos="5.10" departSpeed="0.00" departDelay="0.50" arrival="57778.00" arrivalLane="-26677539_1" arrivalPos="152.75" arrivalSpeed="6.85" duration="105.00" routeLength="699.63" waitingTime="0.00" waitingCount="0" stopTime="0.00" timeLoss="16.18" rerouteNo="1" devices="tripinfo_carIn27009:1 routing_carIn27009:1 emissions_carIn27009:1" vType="default_015" speedFactor="0.94" vaporized="">
        <emissions CO_abs="4612.248004" CO2_abs="201414.514912" HC_abs="25.627546" PMx_abs="3.333466" NOx_abs="82.293287" fuel_abs="86.580979" electricity_abs="0"/>
    </tripinfo>
    <tripinfo id="h3154c1:1" depart="57658.00" departLane="24634507_1" departPos="5.10" departSpeed="0.00" departDelay="0.00" arrival="57782.00" arrivalLane="-266565295#5_1" arrivalPos="172.76" arrivalSpeed="12.67" duration="124.00" routeLength="1206.22" waitingTime="11.00" waitingCount="2" stopTime="0.00" timeLoss="33.24" rerouteNo="1" devices="tripinfo_h3154c1:1 routing_h3154c1:1 emissions_h3154c1:1" vType="default_016" speedFactor="0.98" vaporized="">
        <emissions CO_abs="5362.909944" CO2_abs="324479.735092" HC_abs="32.023372" PMx_abs="5.616797" NOx_abs="131.483744" fuel_abs="139.480500" electricity_abs="0"/>
    </tripinfo>
    <tripinfo id="carIn107084:1" depart="57601.00" departLane="124812856#0_1" departPos="5.10" departSpeed="0.00" departDelay="0.70" arrival="57796.00" arrivalLane="-128361102#1_1" arrivalPos="274.68" arrivalSpeed="12.25" duration="195.00" routeLength="2250.49" waitingTime="1.00" waitingCount="1" stopTime="0.00" timeLoss="24.32" rerouteNo="1" devices="tripinfo_carIn107084:1 routing_carIn107084:1 emissions_carIn107084:1" vType="default_016" speedFactor="0.96" vaporized="">
        <emissions CO_abs="6092.694386" CO2_abs="464942.251581" HC_abs="38.610035" PMx_abs="7.621551" NOx_abs="185.050726" fuel_abs="199.858913" electricity_abs="0"/>
    </tripinfo>
    <tripinfo id="carIn80064:1" depart="57603.00" departLane="128361109#1_1" departPos="5.10" departSpeed="0.00" departDelay="0.40" arrival="57797.00" arrivalLane="-315358254#1_1" arrivalPos="137.16" arrivalSpeed="15.07" duration="194.00" routeLength="1587.97" waitingTime="70.00" waitingCount="3" stopTime="0.00" timeLoss="112.15" rerouteNo="1" devices="tripinfo_carIn80064:1 routing_carIn80064:1 emissions_carIn80064:1" vType="default_016" speedFactor="1.09" vaporized="">
        <emissions CO_abs="18225.903887" CO2_abs="670119.406922" HC_abs="98.985361" PMx_abs="14.274038" NOx_abs="286.973438" fuel_abs="288.059005" electricity_abs="0"/>
    </tripinfo>
    <tripinfo id="carIn77943:1" depart="57608.00" departLane="124812856#0_1" departPos="5.10" departSpeed="0.00" departDelay="2.50" arrival="57798.00" arrivalLane="-128361102#1_1" arrivalPos="274.68" arrivalSpeed="13.07" duration="190.00" routeLength="2250.49" waitingTime="0.00" waitingCount="0" stopTime="0.00" timeLoss="30.26" rerouteNo="1" devices="tripinfo_carIn77943:1 routing_carIn77943:1 emissions_carIn77943:1" vType="default_016" speedFactor="1.03" vaporized="">
        <emissions CO_abs="6697.650774" CO2_abs="520853.718571" HC_abs="42.683378" PMx_abs="8.910729" NOx_abs="209.479529" fuel_abs="223.892209" electricity_abs="0"/>
    </tripinfo>
    <tripinfo id="carIn12365:1" depart="57713.00" departLane="315358244_1" departPos="5.10" departSpeed="0.00" departDelay="0.50" arrival="57798.00" arrivalLane="447569997#1_1" arrivalPos="180.93" arrivalSpeed="7.71" duration="85.00" routeLength="718.04" waitingTime="7.00" waitingCount="1" stopTime="0.00" timeLoss="21.09" rerouteNo="1" devices="tripinfo_carIn12365:1 routing_carIn12365:1 emissions_carIn12365:1" vType="default_016" speedFactor="0.97" vaporized="">
        <emissions CO_abs="3828.163425" CO2_abs="196209.129310" HC_abs="21.975879" PMx_abs="3.365565" NOx_abs="79.811772" fuel_abs="84.342730" electricity_abs="0"/>
    </tripinfo>
    <tripinfo id="h645c1:1" depart="57622.00" departLane="266565295#5_1" departPos="5.10" departSpeed="0.00" departDelay="0.40" arrival="57802.00" arrivalLane="-315358244_2" arrivalPos="33.95" arrivalSpeed="13.31" duration="180.00" routeLength="1910.83" waitingTime="13.00" waitingCount="2" stopTime="0.00" timeLoss="34.81" rerouteNo="1" devices="tripinfo_h645c1:1 routing_h645c1:1 emissions_h645c1:1" vType="default_016" speedFactor="0.96" vaporized="">
        <emissions CO_abs="6086.086207" CO2_abs="419420.159886" HC_abs="37.503202" PMx_abs="6.878831" NOx_abs="166.837759" fuel_abs="180.291413" electricity_abs="0"/>
    </tripinfo>
    <tripinfo id="carIn121703:1" depart="57647.00" departLane="386687232#0_1" departPos="5.10" departSpeed="0.00" departDelay="0.30" arrival="57802.00" arrivalLane="-315358244_1" arrivalPos="33.95" arrivalSpeed="11.98" duration="155.00" routeLength="1157.39" waitingTime="43.00" waitingCount="2" stopTime="0.00" timeLoss="61.91" rerouteNo="1" devices="tripinfo_carIn121703:1 routing_carIn121703:1 emissions_carIn121703:1" vType="default_016" speedFactor="0.90" vaporized="">
        <emissions CO_abs="9613.134038" CO2_abs="367931.142246" HC_abs="52.362405" PMx_abs="6.804069" NOx_abs="152.460170" fuel_abs="158.160773" electricity_abs="0"/>
    </tripinfo>
    <tripinfo id="carIn86816:1" depart="57617.00" departLane="128361102#0_1" departPos="5.10" departSpeed="0.00" departDelay="0.80" arrival="57805.00" arrivalLane="201956811#0_1" arrivalPos="40.40" arrivalSpeed="12.64" duration="188.00" routeLength="2067.33" waitingTime="3.00" waitingCount="1" stopTime="0.00" timeLoss="26.66" rerouteNo="1" devices="tripinfo_carIn86816:1 routing_carIn86816:1 emissions_carIn86816:1" vType="default_016" speedFactor="0.94" vaporized="">
        <emissions CO_abs="5801.203164" CO2_abs="441893.932146" HC_abs="36.715839" PMx_abs="7.095268" NOx_abs="175.063886" fuel_abs="189.951641" electricity_abs="0"/>
    </tripinfo>
    <tripinfo id="h5216c1:1" depart="57664.00" departLane="224892339#0_1" departPos="5.10" departSpeed="0.00" departDelay="0.00" arrival="57809.00" arrivalLane="386687235_2" arrivalPos="80.84" arrivalSpeed="16.15" duration="145.00" routeLength="1823.78" waitingTime="10.00" waitingCount="1" stopTime="0.00" timeLoss="37.57" rerouteNo="1" devices="tripinfo_h5216c1:1 routing_h5216c1:1 emissions_h5216c1:1" vType="default_016" speedFactor="1.19" vaporized="">
        <emissions CO_abs="5950.136606" CO2_abs="438473.695879" HC_abs="37.395852" PMx_abs="8.020732" NOx_abs="177.917280" fuel_abs="188.480289" electricity_abs="0"/>
    </tripinfo>
    <tripinfo id="carIn48184:1" depart="57613.00" departLane="-306240162#1_0" departPos="5.10" departSpeed="0.00" departDelay="0.70" arrival="57814.00" arrivalLane="386687235_1" arrivalPos="80.84" arrivalSpeed="12.79" duration="201.00" routeLength="2257.41" waitingTime="26.00" waitingCount="2" stopTime="0.00" timeLoss="50.68" rerouteNo="1" devices="tripinfo_carIn48184:1 routing_carIn48184:1 emissions_carIn48184:1" vType="default_016" speedFactor="0.99" vaporized="">
        <emissions CO_abs="9021.571288" CO2_abs="527991.246085" HC_abs="53.510237" PMx_abs="9.539636" NOx_abs="213.688947" fuel_abs="226.961660" electricity_abs="0"/>
    </tripinfo>
    <tripinfo id="carIn107282:1" depart="57749.00" departLane="-447569998#1_1" departPos="5.10" departSpeed="0.00" departDelay="0.00" arrival="57815.00" arrivalLane="315358242#0_1" arrivalPos="165.37" arrivalSpeed="15.22" duration="66.00" routeLength="448.50" waitingTime="18.00" waitingCount="1" stopTime="0.00" timeLoss="27.56" rerouteNo="1" devices="tripinfo_carIn107282:1 routing_carIn107282:1 emissions_carIn107282:1" vType="default_016" speedFactor="1.10" vaporized="">
        <emissions CO_abs="4350.383588" CO2_abs="163891.675570" HC_abs="23.610252" PMx_abs="3.089784" NOx_abs="68.375855" fuel_abs="70.451272" electricity_abs="0"/>
    </tripinfo>
    <tripinfo id="h17600c1:1" depart="57662.00" departLane="272042143_1" departPos="5.10" departSpeed="0.00" departDelay="0.30" arrival="57816.00" arrivalLane="201238729#3_1" arrivalPos="431.02" arrivalSpeed="15.28" duration="154.00" routeLength="2100.26" waitingTime="0.00" waitingCount="0" stopTime="0.00" timeLoss="18.43" rerouteNo="1" devices="tripinfo_h17600c1:1 routing_h17600c1:1 emissions_h17600c1:1" vType="default_016" speedFactor="1.12" vaporized="">
        <emissions CO_abs="4827.817404" CO2_abs="417472.655543" HC_abs="31.611026" PMx_abs="7.113120" NOx_abs="165.684332" fuel_abs="179.452975" electricity_abs="0"/>
    </tripinfo>
    <tripinfo id="h2831c1:1" depart="57600.00" departLane="201089423#0_1" departPos="5.10" departSpeed="0.00" departDelay="0.00" arrival="57817.00" arrivalLane="-315358244_1" arrivalPos="33.95" arrivalSpeed="14.24" duration="217.00" routeLength="2672.18" waitingTime="8.00" waitingCount="1" stopTime="0.00" timeLoss="33.59" rerouteNo="1" devices="tripinfo_h2831c1:1 routing_h2831c1:1 emissions_h2831c1:1" vType="default_016" speedFactor="1.06" vaporized="">
        <emissions CO_abs="6399.437601" CO2_abs="539891.100612" HC_abs="41.525612" PMx_abs="8.731486" NOx_abs="211.833913" fuel_abs="232.076028" electricity_abs="0"/>
    </tripinfo>
    <tripinfo id="h17549c1:1" depart="57680.00" departLane="-447569998#1_1" departPos="5.10" departSpeed="0.00" departDelay="0.00" arrival="57825.00" arrivalLane="-315358254#1_1" arrivalPos="137.16" arrivalSpeed="15.04" duration="145.00" routeLength="1746.60" waitingTime="0.00" waitingCount="0" stopTime="0.00" timeLoss="20.72" rerouteNo="1" devices="tripinfo_h17549c1:1 routing_h17549c1:1 emissions_h17549c1:1" vType="default_016" speedFactor="1.10" vaporized="">
        <emissions CO_abs="5138.812091" CO2_abs="388555.059197" HC_abs="32.451774" PMx_abs="6.534920" NOx_abs="154.913935" fuel_abs="167.023163" electricity_abs="0"/>
    </tripinfo>
    <tripinfo id="h3864c1:3" depart="57678.00" departLane="24693977#1_1" departPos="5.10" departSpeed="0.00" departDelay="0.00" arrival="57832.00" arrivalLane="201956820_2" arrivalPos="48.33" arrivalSpeed="13.50" duration="154.00" routeLength="1574.85" waitingTime="1.00" waitingCount="1" stopTime="0.00" timeLoss="24.08" rerouteNo="1" devices="tripinfo_h3864c1:3 routing_h3864c1:3 emissions_h3864c1:3" vType="default_016" speedFactor="1.00" vaporized="">
        <emissions CO_abs="5704.113780" CO2_abs="370500.124580" HC_abs="34.642965" PMx_abs="6.313294" NOx_abs="149.820002" fuel_abs="159.262532" electricity_abs="0"/>
    </tripinfo>
    <tripinfo id="carIn129809:1" depart="57729.00" departLane="-447569998#1_1" departPos="5.10" departSpeed="0.00" departDelay="1.00" arrival="57833.00" arrivalLane="-315358244_1" arrivalPos="33.95" arrivalSpeed="14.71" duration="104.00" routeLength="706.49" waitingTime="36.00" waitingCount="1" stopTime="0.00" timeLoss="47.58" rerouteNo="1" devices="tripinfo_carIn129809:1 routing_carIn129809:1 emissions_carIn129809:1" vType="default_015" speedFactor="1.07" vaporized="">
        <emissions CO_abs="7766.720082" CO2_abs="251406.878505" HC_abs="41.227136" PMx_abs="4.883491" NOx_abs="105.383694" fuel_abs="108.071749" electricity_abs="0"/>
    </tripinfo>
    <tripinfo id="h5979c1:5" depart="57669.00" departLane="399835085#1_1" departPos="5.10" departSpeed="0.00" departDelay="0.00" arrival="57834.00" arrivalLane="-315358254#1_1" arrivalPos="137.16" arrivalSpeed="10.23" duration="165.00" routeLength="659.33" waitingTime="59.00" waitingCount="2" stopTime="0.00" timeLoss="75.91" rerouteNo="1" devices="tripinfo_h5979c1:5 routing_h5979c1:5 emissions_h5979c1:5" vType="default_016" speedFactor="0.82" vaporized="">
        <emissions CO_abs="13267.236380" CO2_abs="322457.152563" HC_abs="67.853703" PMx_abs="6.405470" NOx_abs="138.018161" fuel_abs="138.616397" electricity_abs="0"/>
    </tripinfo>
    <tripinfo id="carIn82220:1" depart="57619.00" departLane="-306240162#1_0" departPos="5.10" departSpeed="0.00" departDelay="3.50" arrival="57835.00" arrivalLane="386687235_2" arrivalPos="80.84" arrivalSpeed="15.31" duration="216.00" routeLength="2257.41" waitingTime="46.00" waitingCount="2" stopTime="0.00" timeLoss="87.17" rerouteNo="1" devices="tripinfo_carIn82220:1 routing_carIn82220:1 emissions_carIn82220:1" vType="default_016" speedFactor="1.16" vaporized="">
        <emissions CO_abs="15437.563214" CO2_abs="734348.188922" HC_abs="87.651771" PMx_abs="14.592676" NOx_abs="306.910197" fuel_abs="315.666313" electricity_abs="0"/>
    </tripinfo>
    <tripinfo id="h16072c2:3" depart="57663.00" departLane="315358254#0_1" departPos="5.10" departSpeed="0.00" departDelay="2.50" arrival="57835.00" arrivalLane="386687235_1" arrivalPos="80.84" arrivalSpeed="13.82" duration="172.00" routeLength="1611.92" waitingTime="38.00" waitingCount="3" stopTime="0.00" timeLoss="61.75" rerouteNo="1" devices="tripinfo_h16072c2:3 routing_h16072c2:3 emissions_h16072c2:3" vType="default_016" speedFactor="1.07" vaporized="">
        <emissions CO_abs="8313.295140" CO2_abs="413801.179412" HC_abs="47.456941" PMx_abs="7.310180" NOx_abs="167.211509" fuel_abs="177.877282" electricity_abs="0"/>
    </tripinfo>
    <tripinfo id="randUni15030:1" depart="57735.00" departLane="386687232#0_1" departPos="5.10" departSpeed="0.00" departDelay="0.10" arrival="57836.00" arrivalLane="26677539_1" arrivalPos="151.98" arrivalSpeed="7.11" duration="101.00" routeLength="919.89" waitingTime="0.00" waitingCount="0" stopTime="0.00" timeLoss="10.96" rerouteNo="1" devices="tripinfo_randUni15030:1 routing_randUni15030:1 emissions_randUni15030:1" vType="random_016" speedFactor="0.92" vaporized="">
        <emissions CO_abs="3668.892142" CO2_abs="212001.576502" HC_abs="21.614947" PMx_abs="3.448412" NOx_abs="85.224689" fuel_abs="91.131164" electricity_abs="0"/>
    </tripinfo>
    <tripinfo id="carIn8642:1" depart="57774.00" departLane="-447569998#1_1" departPos="5.10" departSpeed="0.00" departDelay="0.90" arrival="57837.00" arrivalLane="-315358244_1" arrivalPos="33.95" arrivalSpeed="13.78" duration="63.00" routeLength="706.49" waitingTime="0.00" waitingCount="0" stopTime="0.00" timeLoss="7.30" rerouteNo="1" devices="tripinfo_carIn8642:1 routing_carIn8642:1 emissions_carIn8642:1" vType="default_016" speedFactor="1.08" vaporized="">
        <emissions CO_abs="2105.866214" CO2_abs="150738.959121" HC_abs="13.029926" PMx_abs="2.394497" NOx_abs="59.316069" fuel_abs="64.796507" electricity_abs="0"/>
    </tripinfo>
    <tripinfo id="carIn81046:1" depart="57611.00" departLane="124812856#0_1" departPos="5.10" departSpeed="0.00" departDelay="2.50" arrival="57838.00" arrivalLane="-128361102#1_1" arrivalPos="274.68" arrivalSpeed="12.46" duration="227.00" routeLength="2250.49" waitingTime="24.00" waitingCount="2" stopTime="0.00" timeLoss="51.29" rerouteNo="1" devices="tripinfo_carIn81046:1 routing_carIn81046:1 emissions_carIn81046:1" vType="default_016" speedFactor="0.93" vaporized="">
        <emissions CO_abs="8609.727195" CO2_abs="509906.546673" HC_abs="51.068924" PMx_abs="8.442763" NOx_abs="203.764059" fuel_abs="219.188643" electricity_abs="0"/>
    </tripinfo>
    <tripinfo id="carIn77438:1" depart="57614.00" departLane="124812856#0_1" departPos="5.10" departSpeed="0.00" departDelay="1.10" arrival="57840.00" arrivalLane="-128361102#1_1" arrivalPos="274.68" arrivalSpeed="13.39" duration="226.00" routeLength="2250.49" waitingTime="22.00" waitingCount="2" stopTime="0.00" timeLoss="68.46" rerouteNo="1" devices="tripinfo_carIn77438:1 routing_carIn77438:1 emissions_carIn77438:1" vType="default_016" speedFactor="1.05" vaporized="">
        <emissions CO_abs="9769.240136" CO2_abs="568707.454874" HC_abs="57.753042" PMx_abs="9.963717" NOx_abs="231.295044" fuel_abs="244.464070" electricity_abs="0"/>
    </tripinfo>
    <tripinfo id="carIn28951:1" depart="57606.00" departLane="10425609#0_1" departPos="5.10" departSpeed="0.00" departDelay="0.20" arrival="57842.00" arrivalLane="-128361102#1_1" arrivalPos="274.68" arrivalSpeed="14.07" duration="236.00" routeLength="2113.04" waitingTime="38.00" waitingCount="3" stopTime="0.00" timeLoss="92.18" rerouteNo="1" devices="tripinfo_carIn28951:1 routing_carIn28951:1 emissions_carIn28951:1" vType="default_016" speedFactor="1.08" vaporized="">
        <emissions CO_abs="11900.332967" CO2_abs="621553.779980" HC_abs="68.825487" PMx_abs="11.517975" NOx_abs="257.250736" fuel_abs="267.180599" electricity_abs="0"/>
    </tripinfo>
    <tripinfo id="h5938c1:1" depart="57740.00" departLane="-26677542#0_1" departPos="5.10" departSpeed="0.00" departDelay="0.00" arrival="57842.00" arrivalLane="447569997#1_1" arrivalPos="180.93" arrivalSpeed="8.02" duration="102.00" routeLength="1093.64" waitingTime="0.00" waitingCount="0" stopTime="0.00" timeLoss="10.67" rerouteNo="1" devices="tripinfo_h5938c1:1 routing_h5938c1:1 emissions_h5938c1:1" vType="default_016" speedFactor="1.06" vaporized="">
        <emissions CO_abs="3316.999611" CO2_abs="227441.652893" HC_abs="20.297989" PMx_abs="3.683742" NOx_abs="90.433508" fuel_abs="97.767816" electricity_abs="0"/>
    </tripinfo>
    <tripinfo id="carIn81860:1" depart="57712.00" departLane="128361102#0_1" departPos="5.10" departSpeed="0.00" departDelay="0.60" arrival="57843.00" arrivalLane="-24634517#17_1" arrivalPos="6.43" arrivalSpeed="7.83" duration="131.00" routeLength="1229.64" waitingTime="14.00" waitingCount="2" stopTime="0.00" timeLoss="42.38" rerouteNo="1" devices="tripinfo_carIn81860:1 routing_carIn81860:1 emissions_carIn81860:1" vType="default_016" speedFactor="1.02" vaporized="">
        <emissions CO_abs="5552.332833" CO2_abs="319436.380335" HC_abs="32.755583" PMx_abs="5.544569" NOx_abs="129.269451" fuel_abs="137.312805" electricity_abs="0"/>
    </tripinfo>
    <tripinfo id="randUni31145:1" depart="57814.00" departLane="10425609#0_1" departPos="5.10" departSpeed="0.00" departDelay="0.30" arrival="57845.00" arrivalLane="201956810_1" arrivalPos="71.65" arrivalSpeed="12.54" duration="31.00" routeLength="255.78" waitingTime="0.00" waitingCount="0" stopTime="0.00" timeLoss="9.88" rerouteNo="1" devices="tripinfo_randUni31145:1 routing_randUni31145:1 emissions_randUni31145:1" vType="random_016" speedFactor="0.96" vaporized="">
        <emissions CO_abs="2096.819639" CO2_abs="107660.349062" HC_abs="12.079944" PMx_abs="1.997521" NOx_abs="44.940523" fuel_abs="46.278779" electricity_abs="0"/>
    </tripinfo>