<?xml version="1.0" encoding="UTF-8"?>

<!-- generated on 2021-10-26 14:55:12 by Eclipse SUMO sumo Version 1.10.0
<configuration xmlns:xsi="http://www.w3.org/2001/XMLSchema-instance" xsi:noNamespaceSchemaLocation="http://sumo.dlr.de/xsd/sumoConfiguration.xsd">

    <input>
        <net-file value="/Users/behradkoohy/sumo-scratchpad/RESCO/environments/ingolstadt21/ingolstadt21.net.xml"/>
        <route-files value="/Users/behradkoohy/sumo-scratchpad/RESCO/environments/ingolstadt21/ingolstadt21.rou.xml"/>
    </input>

    <output>
        <tripinfo-output value="/Users/behradkoohy/sumo-scratchpad/RESCO/logs/IPPO-tr0-ingolstadt21-21-drq_norm-wait_norm/tripinfo_1.xml"/>
        <tripinfo-output.write-unfinished value="true"/>
    </output>

    <time>
        <begin value="57600"/>
        <end value="61200"/>
    </time>

    <processing>
        <time-to-teleport value="-1"/>
    </processing>

    <report>
        <no-warnings value="true"/>
        <no-step-log value="true"/>
    </report>

    <emissions>
        <device.emissions.probability value="1"/>
    </emissions>

    <traci_server>
        <remote-port value="60837"/>
    </traci_server>

    <random_number>
        <random value="true"/>
    </random_number>

</configuration>
-->

<tripinfos xmlns:xsi="http://www.w3.org/2001/XMLSchema-instance" xsi:noNamespaceSchemaLocation="http://sumo.dlr.de/xsd/tripinfo_file.xsd">
    <tripinfo id="h15454c2:3" depart="57612.00" departLane="24608844_1" departPos="5.10" departSpeed="0.00" departDelay="0.50" arrival="57656.00" arrivalLane="32978638#0_1" arrivalPos="49.29" arrivalSpeed="16.93" duration="44.00" routeLength="354.79" waitingTime="3.00" waitingCount="1" stopTime="0.00" timeLoss="17.47" rerouteNo="1" devices="tripinfo_h15454c2:3 routing_h15454c2:3 emissions_h15454c2:3" vType="default_016" speedFactor="1.29" vaporized="">
        <emissions CO_abs="2513.930184" CO2_abs="136838.308686" HC_abs="14.677892" PMx_abs="2.569847" NOx_abs="57.201294" fuel_abs="58.821025" electricity_abs="0"/>
    </tripinfo>
    <tripinfo id="carIn60260:1" depart="57606.00" departLane="315358254#0_1" departPos="5.10" departSpeed="0.00" departDelay="0.90" arrival="57683.00" arrivalLane="399835085#1_1" arrivalPos="212.23" arrivalSpeed="8.01" duration="77.00" routeLength="430.98" waitingTime="21.00" waitingCount="1" stopTime="0.00" timeLoss="32.15" rerouteNo="1" devices="tripinfo_carIn60260:1 routing_carIn60260:1 emissions_carIn60260:1" vType="default_016" speedFactor="1.04" vaporized="">
        <emissions CO_abs="5037.625383" CO2_abs="163660.305333" HC_abs="26.733025" PMx_abs="3.055309" NOx_abs="68.567803" fuel_abs="70.352409" electricity_abs="0"/>
    </tripinfo>
    <tripinfo id="carIn53971:1" depart="57640.00" departLane="272042143_1" departPos="5.10" departSpeed="0.00" departDelay="0.80" arrival="57695.00" arrivalLane="24634414#1_1" arrivalPos="162.19" arrivalSpeed="7.34" duration="55.00" routeLength="493.04" waitingTime="0.00" waitingCount="0" stopTime="0.00" timeLoss="8.48" rerouteNo="1" devices="tripinfo_carIn53971:1 routing_carIn53971:1 emissions_carIn53971:1" vType="default_016" speedFactor="0.99" vaporized="">
        <emissions CO_abs="2174.535433" CO2_abs="128059.572747" HC_abs="12.888393" PMx_abs="2.183033" NOx_abs="52.059690" fuel_abs="55.047607" electricity_abs="0"/>
    </tripinfo>
    <tripinfo id="h7800c1:5" depart="57696.00" departLane="-447569998#1_1" departPos="5.10" departSpeed="0.00" departDelay="0.00" arrival="57724.00" arrivalLane="-447569998#1_2" arrivalPos="180.76" arrivalSpeed="5.75" duration="28.00" routeLength="175.66" waitingTime="0.00" waitingCount="0" stopTime="0.00" timeLoss="4.36" rerouteNo="1" devices="tripinfo_h7800c1:5 routing_h7800c1:5 emissions_h7800c1:5" vType="default_016" speedFactor="0.90" vaporized="">
        <emissions CO_abs="1576.697708" CO2_abs="61457.467421" HC_abs="8.576047" PMx_abs="0.970854" NOx_abs="24.861563" fuel_abs="26.418603" electricity_abs="0"/>
    </tripinfo>
    <tripinfo id="carIn22761:1" depart="57616.00" departLane="-306240162#1_0" departPos="5.10" departSpeed="0.00" departDelay="2.10" arrival="57726.00" arrivalLane="399835085#1_1" arrivalPos="212.23" arrivalSpeed="7.35" duration="110.00" routeLength="1093.26" waitingTime="9.00" waitingCount="1" stopTime="0.00" timeLoss="28.84" rerouteNo="1" devices="tripinfo_carIn22761:1 routing_carIn22761:1 emissions_carIn22761:1" vType="default_016" speedFactor="0.96" vaporized="">
        <emissions CO_abs="4775.474077" CO2_abs="287722.212461" HC_abs="28.494769" PMx_abs="5.069254" NOx_abs="115.917859" fuel_abs="123.679958" electricity_abs="0"/>
    </tripinfo>
    <tripinfo id="h3688c1:1" depart="57625.00" departLane="201201950#1_1" departPos="5.10" departSpeed="0.00" departDelay="0.00" arrival="57735.00" arrivalLane="32978638#0_1" arrivalPos="49.29" arrivalSpeed="12.91" duration="110.00" routeLength="1089.75" waitingTime="11.00" waitingCount="2" stopTime="0.00" timeLoss="30.29" rerouteNo="1" devices="tripinfo_h3688c1:1 routing_h3688c1:1 emissions_h3688c1:1" vType="default_016" speedFactor="1.01" vaporized="">
        <emissions CO_abs="4764.891378" CO2_abs="279431.015326" HC_abs="28.172012" PMx_abs="4.816484" NOx_abs="112.903933" fuel_abs="120.116071" electricity_abs="0"/>
    </tripinfo>
    <tripinfo id="h12244c1:3" depart="57612.00" departLane="315358244_1" departPos="5.10" departSpeed="0.00" departDelay="0.40" arrival="57736.00" arrivalLane="386687235_1" arrivalPos="80.84" arrivalSpeed="13.74" duration="124.00" routeLength="1186.14" waitingTime="30.00" waitingCount="1" stopTime="0.00" timeLoss="42.88" rerouteNo="1" devices="tripinfo_h12244c1:3 routing_h12244c1:3 emissions_h12244c1:3" vType="default_016" speedFactor="1.07" vaporized="">
        <emissions CO_abs="7033.893026" CO2_abs="318081.246333" HC_abs="39.439797" PMx_abs="5.704072" NOx_abs="128.979384" fuel_abs="136.731386" electricity_abs="0"/>
    </tripinfo>
    <tripinfo id="h5979c1:5" depart="57669.00" departLane="399835085#1_1" departPos="5.10" departSpeed="0.00" departDelay="0.00" arrival="57749.00" arrivalLane="-315358254#1_1" arrivalPos="137.16" arrivalSpeed="13.76" duration="80.00" routeLength="659.33" waitingTime="0.00" waitingCount="0" stopTime="0.00" timeLoss="9.67" rerouteNo="1" devices="tripinfo_h5979c1:5 routing_h5979c1:5 emissions_h5979c1:5" vType="default_016" speedFactor="1.04" vaporized="">
        <emissions CO_abs="3126.797502" CO2_abs="164994.906410" HC_abs="18.039840" PMx_abs="2.653772" NOx_abs="66.411807" fuel_abs="70.925089" electricity_abs="0"/>
    </tripinfo>
    <tripinfo id="h9563c2:5" depart="57631.00" departLane="315358244_1" departPos="5.10" departSpeed="0.00" departDelay="0.70" arrival="57763.00" arrivalLane="386687235_1" arrivalPos="80.84" arrivalSpeed="12.47" duration="132.00" routeLength="1186.14" waitingTime="26.00" waitingCount="2" stopTime="0.00" timeLoss="43.00" rerouteNo="1" devices="tripinfo_h9563c2:5 routing_h9563c2:5 emissions_h9563c2:5" vType="default_016" speedFactor="0.97" vaporized="">
        <emissions CO_abs="6176.606613" CO2_abs="305477.756530" HC_abs="35.230964" PMx_abs="5.197132" NOx_abs="122.828408" fuel_abs="131.313471" electricity_abs="0"/>
    </tripinfo>
    <tripinfo id="h3326c1:2" depart="57656.00" departLane="22716069#0_1" departPos="5.10" departSpeed="0.00" departDelay="0.00" arrival="57763.00" arrivalLane="24634517#13_1" arrivalPos="111.62" arrivalSpeed="14.43" duration="107.00" routeLength="1312.81" waitingTime="0.00" waitingCount="0" stopTime="0.00" timeLoss="15.44" rerouteNo="1" devices="tripinfo_h3326c1:2 routing_h3326c1:2 emissions_h3326c1:2" vType="default_016" speedFactor="1.07" vaporized="">
        <emissions CO_abs="4396.878684" CO2_abs="335828.265751" HC_abs="27.873107" PMx_abs="5.913222" NOx_abs="135.906443" fuel_abs="144.357696" electricity_abs="0"/>
    </tripinfo>
    <tripinfo id="h4538c1:1" depart="57701.00" departLane="-10427692#1_1" departPos="5.10" departSpeed="0.00" departDelay="0.00" arrival="57763.00" arrivalLane="-128361102#1_1" arrivalPos="274.68" arrivalSpeed="15.09" duration="62.00" routeLength="440.74" waitingTime="23.00" waitingCount="1" stopTime="0.00" timeLoss="33.55" rerouteNo="1" devices="tripinfo_h4538c1:1 routing_h4538c1:1 emissions_h4538c1:1" vType="default_016" speedFactor="1.11" vaporized="">
        <emissions CO_abs="4850.814024" CO2_abs="172738.989349" HC_abs="26.054995" PMx_abs="3.366779" NOx_abs="72.153412" fuel_abs="74.254534" electricity_abs="0"/>
    </tripinfo>
    <tripinfo id="S5R_frequency1.2" depart="57656.00" departLane="315358250#0_1" departPos="12.10" departSpeed="0.00" departDelay="44.40" arrival="57768.00" arrivalLane="386687235_1" arrivalPos="80.84" arrivalSpeed="13.32" duration="112.00" routeLength="1115.62" waitingTime="13.00" waitingCount="1" stopTime="0.00" timeLoss="30.77" rerouteNo="1" devices="tripinfo_S5R_frequency1.2 routing_S5R_frequency1.2 emissions_S5R_frequency1.2" vType="bus" speedFactor="1.00" vaporized="">
        <emissions CO_abs="2185.523295" CO2_abs="1293741.713132" HC_abs="473.575529" PMx_abs="233.110994" NOx_abs="10233.286109" fuel_abs="551.749851" electricity_abs="0"/>
    </tripinfo>
    <tripinfo id="carIn30817:1" depart="57681.00" departLane="315358244_1" departPos="5.10" departSpeed="0.00" departDelay="0.20" arrival="57773.00" arrivalLane="447569997#1_1" arrivalPos="180.93" arrivalSpeed="6.90" duration="92.00" routeLength="718.04" waitingTime="7.00" waitingCount="1" stopTime="0.00" timeLoss="22.78" rerouteNo="1" devices="tripinfo_carIn30817:1 routing_carIn30817:1 emissions_carIn30817:1" vType="default_016" speedFactor="0.88" vaporized="">
        <emissions CO_abs="3441.902197" CO2_abs="182477.910987" HC_abs="19.895461" PMx_abs="3.002383" NOx_abs="73.591257" fuel_abs="78.440288" electricity_abs="0"/>
    </tripinfo>
    <tripinfo id="h317c2:1" depart="57707.00" departLane="-32978638#0_1" departPos="5.10" departSpeed="0.00" departDelay="0.10" arrival="57776.00" arrivalLane="-266565295#5_1" arrivalPos="172.76" arrivalSpeed="12.20" duration="69.00" routeLength="370.53" waitingTime="31.00" waitingCount="1" stopTime="0.00" timeLoss="40.27" rerouteNo="1" devices="tripinfo_h317c2:1 routing_h317c2:1 emissions_h317c2:1" vType="default_016" speedFactor="0.96" vaporized="">
        <emissions CO_abs="6873.634775" CO2_abs="194972.215331" HC_abs="35.889275" PMx_abs="4.107371" NOx_abs="84.273694" fuel_abs="83.812490" electricity_abs="0"/>
    </tripinfo>
    <tripinfo id="h330c1:1" depart="57736.00" departLane="-32978638#0_1" departPos="5.10" departSpeed="0.00" departDelay="0.20" arrival="57778.00" arrivalLane="-266565295#5_1" arrivalPos="172.76" arrivalSpeed="12.44" duration="42.00" routeLength="370.53" waitingTime="3.00" waitingCount="1" stopTime="0.00" timeLoss="13.71" rerouteNo="1" devices="tripinfo_h330c1:1 routing_h330c1:1 emissions_h330c1:1" vType="default_016" speedFactor="0.97" vaporized="">
        <emissions CO_abs="2119.918150" CO2_abs="116054.098012" HC_abs="12.374025" PMx_abs="2.071981" NOx_abs="47.728810" fuel_abs="49.886932" electricity_abs="0"/>
    </tripinfo>
    <tripinfo id="carIn27009:1" depart="57673.00" departLane="-447569998#1_1" departPos="5.10" departSpeed="0.00" departDelay="0.50" arrival="57785.00" arrivalLane="-26677539_1" arrivalPos="152.75" arrivalSpeed="8.52" duration="112.00" routeLength="699.63" waitingTime="26.00" waitingCount="1" stopTime="0.00" timeLoss="39.93" rerouteNo="1" devices="tripinfo_carIn27009:1 routing_carIn27009:1 emissions_carIn27009:1" vType="default_015" speedFactor="1.16" vaporized="">
        <emissions CO_abs="7466.344923" CO2_abs="256656.715976" HC_abs="39.949076" PMx_abs="4.738592" NOx_abs="107.332458" fuel_abs="110.328331" electricity_abs="0"/>
    </tripinfo>
    <tripinfo id="h3568c1:3" depart="57656.00" departLane="266565295#5_1" departPos="5.10" departSpeed="0.00" departDelay="0.80" arrival="57787.00" arrivalLane="-24634415_1" arrivalPos="62.03" arrivalSpeed="13.47" duration="131.00" routeLength="807.40" waitingTime="46.00" waitingCount="1" stopTime="0.00" timeLoss="64.90" rerouteNo="1" devices="tripinfo_h3568c1:3 routing_h3568c1:3 emissions_h3568c1:3" vType="default_016" speedFactor="0.98" vaporized="">
        <emissions CO_abs="10546.256731" CO2_abs="341530.908489" HC_abs="56.059272" PMx_abs="6.934646" NOx_abs="145.886729" fuel_abs="146.812638" electricity_abs="0"/>
    </tripinfo>
    <tripinfo id="carIn80064:1" depart="57603.00" departLane="128361109#1_1" departPos="5.10" departSpeed="0.00" departDelay="0.40" arrival="57792.00" arrivalLane="-315358254#1_1" arrivalPos="137.16" arrivalSpeed="9.62" duration="189.00" routeLength="1587.97" waitingTime="35.00" waitingCount="2" stopTime="0.00" timeLoss="73.02" rerouteNo="1" devices="tripinfo_carIn80064:1 routing_carIn80064:1 emissions_carIn80064:1" vType="default_016" speedFactor="0.77" vaporized="">
        <emissions CO_abs="11067.051409" CO2_abs="500370.240927" HC_abs="62.044533" PMx_abs="9.306935" NOx_abs="206.523343" fuel_abs="215.090025" electricity_abs="0"/>
    </tripinfo>
    <tripinfo id="carIn12365:1" depart="57713.00" departLane="315358244_1" departPos="5.10" departSpeed="0.00" departDelay="0.50" arrival="57792.00" arrivalLane="447569997#1_1" arrivalPos="180.93" arrivalSpeed="7.15" duration="79.00" routeLength="718.04" waitingTime="5.00" waitingCount="1" stopTime="0.00" timeLoss="15.42" rerouteNo="1" devices="tripinfo_carIn12365:1 routing_carIn12365:1 emissions_carIn12365:1" vType="default_016" speedFactor="0.98" vaporized="">
        <emissions CO_abs="2808.746876" CO2_abs="174631.919036" HC_abs="16.822093" PMx_abs="2.714907" NOx_abs="68.794144" fuel_abs="75.067485" electricity_abs="0"/>
    </tripinfo>
    <tripinfo id="carIn129809:1" depart="57729.00" departLane="-447569998#1_1" departPos="5.10" departSpeed="0.00" departDelay="1.00" arrival="57796.00" arrivalLane="-315358244_1" arrivalPos="33.95" arrivalSpeed="13.58" duration="67.00" routeLength="706.49" waitingTime="0.00" waitingCount="0" stopTime="0.00" timeLoss="8.05" rerouteNo="1" devices="tripinfo_carIn129809:1 routing_carIn129809:1 emissions_carIn129809:1" vType="default_015" speedFactor="1.03" vaporized="">
        <emissions CO_abs="2331.164989" CO2_abs="146222.697104" HC_abs="14.007633" PMx_abs="2.429001" NOx_abs="58.652014" fuel_abs="62.855200" electricity_abs="0"/>
    </tripinfo>
    <tripinfo id="carIn107282:1" depart="57749.00" departLane="-447569998#1_1" departPos="5.10" departSpeed="0.00" departDelay="0.00" arrival="57797.00" arrivalLane="315358242#0_1" arrivalPos="165.37" arrivalSpeed="12.16" duration="48.00" routeLength="448.50" waitingTime="0.00" waitingCount="0" stopTime="0.00" timeLoss="4.93" rerouteNo="1" devices="tripinfo_carIn107282:1 routing_carIn107282:1 emissions_carIn107282:1" vType="default_016" speedFactor="0.97" vaporized="">
        <emissions CO_abs="1739.883610" CO2_abs="103189.701995" HC_abs="10.304583" PMx_abs="1.625260" NOx_abs="41.029147" fuel_abs="44.357260" electricity_abs="0"/>
    </tripinfo>
    <tripinfo id="carIn86816:1" depart="57617.00" departLane="128361102#0_1" departPos="5.10" departSpeed="0.00" departDelay="0.80" arrival="57798.00" arrivalLane="201956811#0_1" arrivalPos="40.40" arrivalSpeed="14.10" duration="181.00" routeLength="2067.33" waitingTime="10.00" waitingCount="2" stopTime="0.00" timeLoss="36.20" rerouteNo="1" devices="tripinfo_carIn86816:1 routing_carIn86816:1 emissions_carIn86816:1" vType="default_016" speedFactor="1.05" vaporized="">
        <emissions CO_abs="5812.790280" CO2_abs="455869.355991" HC_abs="37.034610" PMx_abs="7.500190" NOx_abs="180.468561" fuel_abs="195.958779" electricity_abs="0"/>
    </tripinfo>
    <tripinfo id="h7181c1:1" depart="57660.00" departLane="315358254#0_1" departPos="5.10" departSpeed="0.00" departDelay="0.10" arrival="57799.00" arrivalLane="306240162#0_0" arrivalPos="220.43" arrivalSpeed="20.04" duration="139.00" routeLength="932.35" waitingTime="75.00" waitingCount="2" stopTime="0.00" timeLoss="96.69" rerouteNo="1" devices="tripinfo_h7181c1:1 routing_h7181c1:1 emissions_h7181c1:1" vType="default_016" speedFactor="1.21" vaporized="">
        <emissions CO_abs="16443.640975" CO2_abs="510731.741118" HC_abs="87.126016" PMx_abs="11.469337" NOx_abs="221.559813" fuel_abs="219.545657" electricity_abs="0"/>
    </tripinfo>
    <tripinfo id="carIn118591:1" depart="57689.00" departLane="315358244_1" departPos="5.10" departSpeed="0.00" departDelay="0.20" arrival="57802.00" arrivalLane="386687235_1" arrivalPos="80.84" arrivalSpeed="12.21" duration="113.00" routeLength="1186.14" waitingTime="7.00" waitingCount="1" stopTime="0.00" timeLoss="19.88" rerouteNo="1" devices="tripinfo_carIn118591:1 routing_carIn118591:1 emissions_carIn118591:1" vType="default_016" speedFactor="0.93" vaporized="">
        <emissions CO_abs="3794.160444" CO2_abs="254441.554614" HC_abs="23.202460" PMx_abs="4.132644" NOx_abs="101.121303" fuel_abs="109.374052" electricity_abs="0"/>
    </tripinfo>
    <tripinfo id="h3154c1:1" depart="57658.00" departLane="24634507_1" departPos="5.10" departSpeed="0.00" departDelay="0.00" arrival="57805.00" arrivalLane="-266565295#5_1" arrivalPos="172.76" arrivalSpeed="14.44" duration="147.00" routeLength="1206.22" waitingTime="36.00" waitingCount="2" stopTime="0.00" timeLoss="63.91" rerouteNo="1" devices="tripinfo_h3154c1:1 routing_h3154c1:1 emissions_h3154c1:1" vType="default_016" speedFactor="1.07" vaporized="">
        <emissions CO_abs="9647.982076" CO2_abs="414072.990991" HC_abs="53.672038" PMx_abs="8.089028" NOx_abs="174.002380" fuel_abs="177.993913" electricity_abs="0"/>
    </tripinfo>
    <tripinfo id="carIn50326:1" depart="57651.00" departLane="128361102#0_1" departPos="5.10" departSpeed="0.00" departDelay="0.30" arrival="57814.00" arrivalLane="18809673#0_1" arrivalPos="473.56" arrivalSpeed="13.15" duration="163.00" routeLength="1591.07" waitingTime="5.00" waitingCount="1" stopTime="0.00" timeLoss="29.08" rerouteNo="1" devices="tripinfo_carIn50326:1 routing_carIn50326:1 emissions_carIn50326:1" vType="default_016" speedFactor="0.97" vaporized="">
        <emissions CO_abs="5874.040841" CO2_abs="375641.186844" HC_abs="35.464621" PMx_abs="6.032690" NOx_abs="149.486494" fuel_abs="161.473104" electricity_abs="0"/>
    </tripinfo>
    <tripinfo id="carIn121703:1" depart="57647.00" departLane="386687232#0_1" departPos="5.10" departSpeed="0.00" departDelay="0.30" arrival="57833.00" arrivalLane="-315358244_1" arrivalPos="33.95" arrivalSpeed="14.48" duration="186.00" routeLength="1157.39" waitingTime="89.00" waitingCount="2" stopTime="0.00" timeLoss="107.05" rerouteNo="1" devices="tripinfo_carIn121703:1 routing_carIn121703:1 emissions_carIn121703:1" vType="default_016" speedFactor="1.06" vaporized="">
        <emissions CO_abs="16892.203231" CO2_abs="484580.735675" HC_abs="88.190578" PMx_abs="10.025719" NOx_abs="206.853394" fuel_abs="208.306423" electricity_abs="0"/>
    </tripinfo>
    <tripinfo id="randUni15030:1" depart="57735.00" departLane="386687232#0_1" departPos="5.10" departSpeed="0.00" departDelay="0.10" arrival="57833.00" arrivalLane="26677539_1" arrivalPos="151.98" arrivalSpeed="7.95" duration="98.00" routeLength="919.89" waitingTime="5.00" waitingCount="1" stopTime="0.00" timeLoss="19.69" rerouteNo="1" devices="tripinfo_randUni15030:1 routing_randUni15030:1 emissions_randUni15030:1" vType="random_016" speedFactor="1.06" vaporized="">
        <emissions CO_abs="3541.070003" CO2_abs="219428.547458" HC_abs="21.223261" PMx_abs="3.723977" NOx_abs="88.710592" fuel_abs="94.323319" electricity_abs="0"/>
    </tripinfo>
    <tripinfo id="carIn81860:1" depart="57712.00" departLane="128361102#0_1" departPos="5.10" departSpeed="0.00" departDelay="0.60" arrival="57836.00" arrivalLane="-24634517#17_1" arrivalPos="6.43" arrivalSpeed="7.71" duration="124.00" routeLength="1229.64" waitingTime="10.00" waitingCount="2" stopTime="0.00" timeLoss="34.08" rerouteNo="1" devices="tripinfo_carIn81860:1 routing_carIn81860:1 emissions_carIn81860:1" vType="default_016" speedFactor="1.00" vaporized="">
        <emissions CO_abs="5064.874626" CO2_abs="300954.644007" HC_abs="30.079911" PMx_abs="5.200027" NOx_abs="121.707283" fuel_abs="129.368135" electricity_abs="0"/>
    </tripinfo>
    <tripinfo id="h645c1:1" depart="57622.00" departLane="266565295#5_1" departPos="5.10" departSpeed="0.00" departDelay="0.40" arrival="57838.00" arrivalLane="-315358244_1" arrivalPos="33.95" arrivalSpeed="12.40" duration="216.00" routeLength="1910.83" waitingTime="44.00" waitingCount="3" stopTime="0.00" timeLoss="70.35" rerouteNo="1" devices="tripinfo_h645c1:1 routing_h645c1:1 emissions_h645c1:1" vType="default_016" speedFactor="0.95" vaporized="">
        <emissions CO_abs="10307.415537" CO2_abs="474618.149123" HC_abs="57.974231" PMx_abs="8.201970" NOx_abs="191.742884" fuel_abs="204.021010" electricity_abs="0"/>
    </tripinfo>
    <tripinfo id="carIn12858:1" depart="57661.00" departLane="128361109#1_1" departPos="5.10" departSpeed="0.00" departDelay="0.90" arrival="57842.00" arrivalLane="399835085#1_1" arrivalPos="212.23" arrivalSpeed="8.22" duration="181.00" routeLength="1738.12" waitingTime="40.00" waitingCount="2" stopTime="0.00" timeLoss="69.34" rerouteNo="1" devices="tripinfo_carIn12858:1 routing_carIn12858:1 emissions_carIn12858:1" vType="default_016" speedFactor="1.03" vaporized="">
        <emissions CO_abs="13157.344165" CO2_abs="573530.700976" HC_abs="73.596593" PMx_abs="11.623670" NOx_abs="240.792885" fuel_abs="246.538095" electricity_abs="0"/>
    </tripinfo>
    <tripinfo id="carIn8642:1" depart="57774.00" departLane="-447569998#1_1" departPos="5.10" departSpeed="0.00" departDelay="0.90" arrival="57847.00" arrivalLane="-315358244_1" arrivalPos="33.95" arrivalSpeed="12.52" duration="73.00" routeLength="706.49" waitingTime="0.00" waitingCount="0" stopTime="0.00" timeLoss="9.77" rerouteNo="1" devices="tripinfo_carIn8642:1 routing_carIn8642:1 emissions_carIn8642:1" vType="default_016" speedFactor="0.95" vaporized="">
        <emissions CO_abs="2438.133872" CO2_abs="149969.368063" HC_abs="14.559849" PMx_abs="2.313773" NOx_abs="59.153649" fuel_abs="64.466041" electricity_abs="0"/>
    </tripinfo>
    <tripinfo id="carIn102915:1" depart="57643.00" departLane="128361102#0_1" departPos="5.10" departSpeed="0.00" departDelay="0.40" arrival="57850.00" arrivalLane="201956811#0_1" arrivalPos="40.40" arrivalSpeed="11.83" duration="207.00" routeLength="2067.33" waitingTime="13.00" waitingCount="3" stopTime="0.00" timeLoss="41.09" rerouteNo="1" devices="tripinfo_carIn102915:1 routing_carIn102915:1 emissions_carIn102915:1" vType="default_016" speedFactor="0.91" vaporized="">
        <emissions CO_abs="6775.533234" CO2_abs="453775.782280" HC_abs="41.439071" PMx_abs="7.525814" NOx_abs="182.085244" fuel_abs="195.059404" electricity_abs="0"/>
    </tripinfo>
    <tripinfo id="carIn12775:1" depart="57676.00" departLane="10425609#0_1" departPos="5.10" departSpeed="0.00" departDelay="0.60" arrival="57851.00" arrivalLane="18809673#0_1" arrivalPos="473.56" arrivalSpeed="11.81" duration="175.00" routeLength="1959.45" waitingTime="0.00" waitingCount="0" stopTime="0.00" timeLoss="18.83" rerouteNo="1" devices="tripinfo_carIn12775:1 routing_carIn12775:1 emissions_carIn12775:1" vType="default_016" speedFactor="0.93" vaporized="">
        <emissions CO_abs="4813.560326" CO2_abs="373851.316993" HC_abs="30.619466" PMx_abs="5.922220" NOx_abs="147.620086" fuel_abs="160.703018" electricity_abs="0"/>
    </tripinfo>
    <tripinfo id="h17600c1:1" depart="57662.00" departLane="272042143_1" departPos="5.10" departSpeed="0.00" departDelay="0.30" arrival="57852.00" arrivalLane="201238729#3_1" arrivalPos="431.02" arrivalSpeed="14.12" duration="190.00" routeLength="2100.26" waitingTime="27.00" waitingCount="1" stopTime="0.00" timeLoss="44.26" rerouteNo="1" devices="tripinfo_h17600c1:1 routing_h17600c1:1 emissions_h17600c1:1" vType="default_016" speedFactor="1.04" vaporized="">
        <emissions CO_abs="8410.978270" CO2_abs="471322.869154" HC_abs="49.178014" PMx_abs="7.892111" NOx_abs="186.812289" fuel_abs="202.603496" electricity_abs="0"/>
    </tripinfo>
    <tripinfo id="h16072c2:3" depart="57663.00" departLane="315358254#0_1" departPos="5.10" departSpeed="0.00" departDelay="2.50" arrival="57853.00" arrivalLane="386687235_1" arrivalPos="80.84" arrivalSpeed="13.48" duration="190.00" routeLength="1611.92" waitingTime="51.00" waitingCount="3" stopTime="0.00" timeLoss="75.60" rerouteNo="1" devices="tripinfo_h16072c2:3 routing_h16072c2:3 emissions_h16072c2:3" vType="default_016" speedFactor="1.03" vaporized="">
        <emissions CO_abs="10781.226614" CO2_abs="453048.135963" HC_abs="59.692596" PMx_abs="8.412092" NOx_abs="186.825241" fuel_abs="194.748757" electricity_abs="0"/>
    </tripinfo>
    <tripinfo id="50R_frequency3.17" depart="57674.00" departLane="-18809673#6_1" departPos="12.10" departSpeed="0.00" departDelay="0.70" arrival="57854.00" arrivalLane="201956811#0_1" arrivalPos="40.40" arrivalSpeed="10.92" duration="180.00" routeLength="1954.47" waitingTime="7.00" waitingCount="1" stopTime="0.00" timeLoss="35.30" rerouteNo="1" devices="tripinfo_50R_frequency3.17 routing_50R_frequency3.17 emissions_50R_frequency3.17" vType="bus" speedFactor="1.00" vaporized="">
        <emissions CO_abs="3252.804456" CO2_abs="2037276.756686" HC_abs="685.483799" PMx_abs="348.660338" NOx_abs="15810.481418" fuel_abs="868.875217" electricity_abs="0"/>
    </tripinfo>
    <tripinfo id="h11868c1:5" depart="57700.00" departLane="315358254#0_1" departPos="5.10" departSpeed="0.00" departDelay="0.10" arrival="57854.00" arrivalLane="386687235_2" arrivalPos="80.84" arrivalSpeed="12.04" duration="154.00" routeLength="1611.92" waitingTime="3.00" waitingCount="2" stopTime="0.00" timeLoss="28.34" rerouteNo="1" devices="tripinfo_h11868c1:5 routing_h11868c1:5 emissions_h11868c1:5" vType="default_016" speedFactor="0.94" vaporized="">
        <emissions CO_abs="5729.888160" CO2_abs="395640.369701" HC_abs="35.326246" PMx_abs="6.547845" NOx_abs="158.531886" fuel_abs="170.069282" electricity_abs="0"/>
    </tripinfo>
    <tripinfo id="h11737c1:1" depart="57665.00" departLane="272042143_1" departPos="5.10" departSpeed="0.00" departDelay="1.50" arrival="57855.00" arrivalLane="-315358254#1_1" arrivalPos="137.16" arrivalSpeed="16.44" duration="190.00" routeLength="1596.88" waitingTime="75.00" waitingCount="1" stopTime="0.00" timeLoss="93.59" rerouteNo="1" devices="tripinfo_h11737c1:1 routing_h11737c1:1 emissions_h11737c1:1" vType="default_016" speedFactor="1.21" vaporized="">
        <emissions CO_abs="16428.052389" CO2_abs="568059.038347" HC_abs="87.995769" PMx_abs="11.470333" NOx_abs="238.752704" fuel_abs="244.188913" electricity_abs="0"/>
    </tripinfo>
    <tripinfo id="h9953c2:3" depart="57682.00" departLane="-54169231#2_1" departPos="5.10" departSpeed="0.00" departDelay="0.00" arrival="57856.00" arrivalLane="386687235_1" arrivalPos="80.84" arrivalSpeed="12.42" duration="174.00" routeLength="1535.60" waitingTime="10.00" waitingCount="1" stopTime="0.00" timeLoss="35.88" rerouteNo="1" devices="tripinfo_h9953c2:3 routing_h9953c2:3 emissions_h9953c2:3" vType="default_016" speedFactor="0.91" vaporized="">
        <emissions CO_abs="7653.912423" CO2_abs="414991.271976" HC_abs="44.513382" PMx_abs="7.075925" NOx_abs="168.648744" fuel_abs="178.388410" electricity_abs="0"/>
    </tripinfo>
    <tripinfo id="carIn126288:1" depart="57674.00" departLane="272042143_1" departPos="5.10" departSpeed="0.00" departDelay="0.00" arrival="57858.00" arrivalLane="-315358254#1_1" arrivalPos="137.16" arrivalSpeed="14.37" duration="184.00" routeLength="1596.88" waitingTime="53.00" waitingCount="2" stopTime="0.00" timeLoss="76.67" rerouteNo="1" devices="tripinfo_carIn126288:1 routing_carIn126288:1 emissions_carIn126288:1" vType="default_016" speedFactor="1.08" vaporized="">
        <emissions CO_abs="12340.876383" CO2_abs="483683.075001" HC_abs="67.417323" PMx_abs="9.158034" NOx_abs="199.936649" fuel_abs="207.918081" electricity_abs="0"/>
    </tripinfo>
    <tripinfo id="carIn12152:1" depart="57647.00" departLane="24599188#0.94_1" departPos="5.10" departSpeed="0.00" departDelay="0.50" arrival="57861.00" arrivalLane="-315358254#1_1" arrivalPos="137.16" arrivalSpeed="14.38" duration="214.00" routeLength="2034.31" waitingTime="43.00" waitingCount="2" stopTime="0.00" timeLoss="69.22" rerouteNo="1" devices="tripinfo_carIn12152:1 routing_carIn12152:1 emissions_carIn12152:1" vType="default_016" speedFactor="1.10" vaporized="">
        <emissions CO_abs="10679.730128" CO2_abs="507256.625361" HC_abs="60.327055" PMx_abs="9.007747" NOx_abs="205.466252" fuel_abs="218.050515" electricity_abs="0"/>
    </tripinfo>
    <tripinfo id="h19804c1:3" depart="57616.00" departLane="124812856#0_1" departPos="5.10" departSpeed="0.00" departDelay="0.50" arrival="57862.00" arrivalLane="-128361102#1_1" arrivalPos="274.68" arrivalSpeed="15.98" duration="246.00" routeLength="2232.46" waitingTime="67.00" waitingCount="1" stopTime="0.00" timeLoss="110.03" rerouteNo="1" devices="tripinfo_h19804c1:3 routing_h19804c1:3 emissions_h19804c1:3" vType="default_016" speedFactor="1.20" vaporized="">
        <emissions CO_abs="17942.988792" CO2_abs="724130.248898" HC_abs="98.634106" PMx_abs="14.187848" NOx_abs="302.140507" fuel_abs="311.276581" electricity_abs="0"/>
    </tripinfo>
    <tripinfo id="carIn107084:1" depart="57601.00" departLane="124812856#0_1" departPos="5.10" departSpeed="0.00" departDelay="0.70" arrival="57866.00" arrivalLane="-128361102#1_1" arrivalPos="274.68" arrivalSpeed="14.80" duration="265.00" routeLength="2250.49" waitingTime="58.00" waitingCount="4" stopTime="0.00" timeLoss="114.91" rerouteNo="1" devices="tripinfo_carIn107084:1 routing_carIn107084:1 emissions_carIn107084:1" vType="default_016" speedFactor="1.10" vaporized="">
        <emissions CO_abs="15716.356083" CO2_abs="696309.136766" HC_abs="87.858066" PMx_abs="12.935047" NOx_abs="287.520767" fuel_abs="299.316950" electricity_abs="0"/>
    </tripinfo>