<?xml version="1.0" encoding="UTF-8"?>

<!-- generated on 2021-10-26 18:47:02 by Eclipse SUMO sumo Version 1.10.0
<configuration xmlns:xsi="http://www.w3.org/2001/XMLSchema-instance" xsi:noNamespaceSchemaLocation="http://sumo.dlr.de/xsd/sumoConfiguration.xsd">

    <input>
        <net-file value="/Users/behradkoohy/sumo-scratchpad/RESCO/environments/ingolstadt21/ingolstadt21.net.xml"/>
        <route-files value="/Users/behradkoohy/sumo-scratchpad/RESCO/environments/ingolstadt21/ingolstadt21.rou.xml"/>
    </input>

    <output>
        <tripinfo-output value="/Users/behradkoohy/sumo-scratchpad/RESCO/logs/IPPO-tr0-ingolstadt21-21-drq_norm-wait_norm/tripinfo_95.xml"/>
        <tripinfo-output.write-unfinished value="true"/>
    </output>

    <time>
        <begin value="57600"/>
        <end value="61200"/>
    </time>

    <processing>
        <time-to-teleport value="-1"/>
    </processing>

    <report>
        <no-warnings value="true"/>
        <no-step-log value="true"/>
    </report>

    <emissions>
        <device.emissions.probability value="1"/>
    </emissions>

    <traci_server>
        <remote-port value="62507"/>
    </traci_server>

    <random_number>
        <random value="true"/>
    </random_number>

</configuration>
-->

<tripinfos xmlns:xsi="http://www.w3.org/2001/XMLSchema-instance" xsi:noNamespaceSchemaLocation="http://sumo.dlr.de/xsd/tripinfo_file.xsd">
    <tripinfo id="h15454c2:3" depart="57612.00" departLane="24608844_1" departPos="5.10" departSpeed="0.00" departDelay="0.50" arrival="57652.00" arrivalLane="32978638#0_1" arrivalPos="49.29" arrivalSpeed="13.27" duration="40.00" routeLength="354.79" waitingTime="0.00" waitingCount="0" stopTime="0.00" timeLoss="4.51" rerouteNo="1" devices="tripinfo_h15454c2:3 routing_h15454c2:3 emissions_h15454c2:3" vType="default_016" speedFactor="0.97" vaporized="">
        <emissions CO_abs="1612.723366" CO2_abs="91105.861551" HC_abs="9.459525" PMx_abs="1.521191" NOx_abs="36.873831" fuel_abs="39.162809" electricity_abs="0"/>
    </tripinfo>
    <tripinfo id="carIn60260:1" depart="57606.00" departLane="315358254#0_1" departPos="5.10" departSpeed="0.00" departDelay="0.90" arrival="57681.00" arrivalLane="399835085#1_1" arrivalPos="212.23" arrivalSpeed="8.41" duration="75.00" routeLength="430.98" waitingTime="21.00" waitingCount="1" stopTime="0.00" timeLoss="30.68" rerouteNo="1" devices="tripinfo_carIn60260:1 routing_carIn60260:1 emissions_carIn60260:1" vType="default_016" speedFactor="1.05" vaporized="">
        <emissions CO_abs="4836.946033" CO2_abs="159686.638628" HC_abs="25.760026" PMx_abs="3.135663" NOx_abs="67.854897" fuel_abs="68.643957" electricity_abs="0"/>
    </tripinfo>
    <tripinfo id="carIn53971:1" depart="57640.00" departLane="272042143_1" departPos="5.10" departSpeed="0.00" departDelay="0.80" arrival="57695.00" arrivalLane="24634414#1_1" arrivalPos="162.19" arrivalSpeed="7.64" duration="55.00" routeLength="493.04" waitingTime="0.00" waitingCount="0" stopTime="0.00" timeLoss="9.23" rerouteNo="1" devices="tripinfo_carIn53971:1 routing_carIn53971:1 emissions_carIn53971:1" vType="default_016" speedFactor="0.99" vaporized="">
        <emissions CO_abs="2685.637141" CO2_abs="147469.163320" HC_abs="15.678125" PMx_abs="2.610397" NOx_abs="60.792719" fuel_abs="63.390986" electricity_abs="0"/>
    </tripinfo>
    <tripinfo id="h7800c1:5" depart="57696.00" departLane="-447569998#1_1" departPos="5.10" departSpeed="0.00" departDelay="0.00" arrival="57723.00" arrivalLane="-447569998#1_2" arrivalPos="180.76" arrivalSpeed="6.44" duration="27.00" routeLength="175.66" waitingTime="0.00" waitingCount="0" stopTime="0.00" timeLoss="3.37" rerouteNo="1" devices="tripinfo_h7800c1:5 routing_h7800c1:5 emissions_h7800c1:5" vType="default_016" speedFactor="0.91" vaporized="">
        <emissions CO_abs="1186.498548" CO2_abs="46735.326954" HC_abs="6.466260" PMx_abs="0.742856" NOx_abs="18.917957" fuel_abs="20.090009" electricity_abs="0"/>
    </tripinfo>
    <tripinfo id="carIn80064:1" depart="57603.00" departLane="128361109#1_1" departPos="5.10" departSpeed="0.00" departDelay="0.40" arrival="57728.00" arrivalLane="-315358254#1_1" arrivalPos="137.16" arrivalSpeed="15.69" duration="125.00" routeLength="1587.97" waitingTime="13.00" waitingCount="2" stopTime="0.00" timeLoss="45.89" rerouteNo="1" devices="tripinfo_carIn80064:1 routing_carIn80064:1 emissions_carIn80064:1" vType="default_016" speedFactor="1.15" vaporized="">
        <emissions CO_abs="9659.974721" CO2_abs="543632.878029" HC_abs="57.042702" PMx_abs="11.387928" NOx_abs="230.398360" fuel_abs="233.683245" electricity_abs="0"/>
    </tripinfo>
    <tripinfo id="h3568c1:3" depart="57656.00" departLane="266565295#5_1" departPos="5.10" departSpeed="0.00" departDelay="0.80" arrival="57729.00" arrivalLane="-24634415_1" arrivalPos="62.03" arrivalSpeed="13.91" duration="73.00" routeLength="807.40" waitingTime="0.00" waitingCount="0" stopTime="0.00" timeLoss="12.34" rerouteNo="1" devices="tripinfo_h3568c1:3 routing_h3568c1:3 emissions_h3568c1:3" vType="default_016" speedFactor="1.06" vaporized="">
        <emissions CO_abs="3242.544601" CO2_abs="210561.053741" HC_abs="19.656955" PMx_abs="3.719395" NOx_abs="85.764883" fuel_abs="90.511216" electricity_abs="0"/>
    </tripinfo>
    <tripinfo id="h3688c1:1" depart="57625.00" departLane="201201950#1_1" departPos="5.10" departSpeed="0.00" departDelay="0.00" arrival="57740.00" arrivalLane="32978638#0_1" arrivalPos="49.29" arrivalSpeed="13.45" duration="115.00" routeLength="1089.75" waitingTime="21.00" waitingCount="1" stopTime="0.00" timeLoss="34.23" rerouteNo="1" devices="tripinfo_h3688c1:1 routing_h3688c1:1 emissions_h3688c1:1" vType="default_016" speedFactor="0.99" vaporized="">
        <emissions CO_abs="6344.936808" CO2_abs="306566.286871" HC_abs="36.060021" PMx_abs="5.517100" NOx_abs="125.384009" fuel_abs="131.781034" electricity_abs="0"/>
    </tripinfo>
    <tripinfo id="h317c2:1" depart="57707.00" departLane="-32978638#0_1" departPos="5.10" departSpeed="0.00" departDelay="0.10" arrival="57742.00" arrivalLane="-266565295#5_1" arrivalPos="172.76" arrivalSpeed="16.14" duration="35.00" routeLength="370.53" waitingTime="1.00" waitingCount="1" stopTime="0.00" timeLoss="11.68" rerouteNo="1" devices="tripinfo_h317c2:1 routing_h317c2:1 emissions_h317c2:1" vType="default_016" speedFactor="1.19" vaporized="">
        <emissions CO_abs="2315.316818" CO2_abs="137650.438052" HC_abs="13.747167" PMx_abs="2.652255" NOx_abs="57.447713" fuel_abs="59.169881" electricity_abs="0"/>
    </tripinfo>
    <tripinfo id="S5R_frequency1.2" depart="57615.00" departLane="315358250#0_1" departPos="12.10" departSpeed="0.00" departDelay="3.40" arrival="57751.00" arrivalLane="386687235_1" arrivalPos="80.84" arrivalSpeed="13.53" duration="136.00" routeLength="1115.62" waitingTime="16.00" waitingCount="2" stopTime="0.00" timeLoss="54.23" rerouteNo="1" devices="tripinfo_S5R_frequency1.2 routing_S5R_frequency1.2 emissions_S5R_frequency1.2" vType="bus" speedFactor="1.00" vaporized="">
        <emissions CO_abs="2704.938045" CO2_abs="1583073.637575" HC_abs="565.516703" PMx_abs="286.707241" NOx_abs="12600.680395" fuel_abs="675.113746" electricity_abs="0"/>
    </tripinfo>
    <tripinfo id="carIn27009:1" depart="57673.00" departLane="-447569998#1_1" departPos="5.10" departSpeed="0.00" departDelay="0.50" arrival="57765.00" arrivalLane="-26677539_1" arrivalPos="152.75" arrivalSpeed="9.63" duration="92.00" routeLength="699.63" waitingTime="6.00" waitingCount="1" stopTime="0.00" timeLoss="19.31" rerouteNo="1" devices="tripinfo_carIn27009:1 routing_carIn27009:1 emissions_carIn27009:1" vType="default_015" speedFactor="1.16" vaporized="">
        <emissions CO_abs="3782.139835" CO2_abs="198652.224008" HC_abs="21.823763" PMx_abs="3.337927" NOx_abs="81.064571" fuel_abs="85.392879" electricity_abs="0"/>
    </tripinfo>
    <tripinfo id="h9563c2:5" depart="57631.00" departLane="315358244_1" departPos="5.10" departSpeed="0.00" departDelay="0.70" arrival="57767.00" arrivalLane="386687235_1" arrivalPos="80.84" arrivalSpeed="13.51" duration="136.00" routeLength="1186.14" waitingTime="20.00" waitingCount="2" stopTime="0.00" timeLoss="50.92" rerouteNo="1" devices="tripinfo_h9563c2:5 routing_h9563c2:5 emissions_h9563c2:5" vType="default_016" speedFactor="1.02" vaporized="">
        <emissions CO_abs="6535.738216" CO2_abs="303661.211708" HC_abs="36.817148" PMx_abs="5.443821" NOx_abs="123.965790" fuel_abs="130.532504" electricity_abs="0"/>
    </tripinfo>
    <tripinfo id="h3326c1:2" depart="57656.00" departLane="22716069#0_1" departPos="5.10" departSpeed="0.00" departDelay="0.00" arrival="57767.00" arrivalLane="24634517#13_1" arrivalPos="111.62" arrivalSpeed="14.22" duration="111.00" routeLength="1312.81" waitingTime="0.00" waitingCount="0" stopTime="0.00" timeLoss="16.14" rerouteNo="1" devices="tripinfo_h3326c1:2 routing_h3326c1:2 emissions_h3326c1:2" vType="default_016" speedFactor="1.03" vaporized="">
        <emissions CO_abs="4200.104209" CO2_abs="305143.163995" HC_abs="26.243737" PMx_abs="5.324043" NOx_abs="123.511223" fuel_abs="131.167746" electricity_abs="0"/>
    </tripinfo>
    <tripinfo id="h12244c1:3" depart="57612.00" departLane="315358244_1" departPos="5.10" departSpeed="0.00" departDelay="0.40" arrival="57769.00" arrivalLane="386687235_1" arrivalPos="80.84" arrivalSpeed="12.15" duration="157.00" routeLength="1186.14" waitingTime="28.00" waitingCount="3" stopTime="0.00" timeLoss="64.32" rerouteNo="1" devices="tripinfo_h12244c1:3 routing_h12244c1:3 emissions_h12244c1:3" vType="default_016" speedFactor="0.93" vaporized="">
        <emissions CO_abs="7774.404631" CO2_abs="342184.586712" HC_abs="43.378528" PMx_abs="6.097562" NOx_abs="140.250335" fuel_abs="147.092585" electricity_abs="0"/>
    </tripinfo>
    <tripinfo id="h4538c1:1" depart="57701.00" departLane="-10427692#1_1" departPos="5.10" departSpeed="0.00" departDelay="0.00" arrival="57770.00" arrivalLane="-128361102#1_1" arrivalPos="274.68" arrivalSpeed="11.89" duration="69.00" routeLength="440.74" waitingTime="23.00" waitingCount="1" stopTime="0.00" timeLoss="32.96" rerouteNo="1" devices="tripinfo_h4538c1:1 routing_h4538c1:1 emissions_h4538c1:1" vType="default_016" speedFactor="0.89" vaporized="">
        <emissions CO_abs="5174.078254" CO2_abs="169722.713520" HC_abs="27.535873" PMx_abs="3.342847" NOx_abs="71.851294" fuel_abs="72.958178" electricity_abs="0"/>
    </tripinfo>
    <tripinfo id="h330c1:1" depart="57736.00" departLane="-32978638#0_1" departPos="5.10" departSpeed="0.00" departDelay="0.20" arrival="57770.00" arrivalLane="-266565295#5_1" arrivalPos="172.76" arrivalSpeed="13.34" duration="34.00" routeLength="370.53" waitingTime="0.00" waitingCount="0" stopTime="0.00" timeLoss="5.48" rerouteNo="1" devices="tripinfo_h330c1:1 routing_h330c1:1 emissions_h330c1:1" vType="default_016" speedFactor="0.97" vaporized="">
        <emissions CO_abs="1621.466805" CO2_abs="102683.438038" HC_abs="9.801266" PMx_abs="1.838606" NOx_abs="42.157406" fuel_abs="44.139215" electricity_abs="0"/>
    </tripinfo>
    <tripinfo id="carIn86816:1" depart="57617.00" departLane="128361102#0_1" departPos="5.10" departSpeed="0.00" departDelay="0.80" arrival="57772.00" arrivalLane="201956811#0_1" arrivalPos="40.40" arrivalSpeed="14.32" duration="155.00" routeLength="2067.33" waitingTime="0.00" waitingCount="0" stopTime="0.00" timeLoss="18.44" rerouteNo="1" devices="tripinfo_carIn86816:1 routing_carIn86816:1 emissions_carIn86816:1" vType="default_016" speedFactor="1.11" vaporized="">
        <emissions CO_abs="5201.033034" CO2_abs="443741.167767" HC_abs="33.983555" PMx_abs="7.568686" NOx_abs="176.637783" fuel_abs="190.744655" electricity_abs="0"/>
    </tripinfo>
    <tripinfo id="h5979c1:5" depart="57669.00" departLane="399835085#1_1" departPos="5.10" departSpeed="0.00" departDelay="0.00" arrival="57777.00" arrivalLane="-315358254#1_1" arrivalPos="137.16" arrivalSpeed="9.87" duration="108.00" routeLength="659.33" waitingTime="0.00" waitingCount="0" stopTime="0.00" timeLoss="13.10" rerouteNo="1" devices="tripinfo_h5979c1:5 routing_h5979c1:5 emissions_h5979c1:5" vType="default_016" speedFactor="0.77" vaporized="">
        <emissions CO_abs="4579.924121" CO2_abs="179371.236068" HC_abs="24.955197" PMx_abs="2.952310" NOx_abs="73.268228" fuel_abs="77.105773" electricity_abs="0"/>
    </tripinfo>
    <tripinfo id="carIn126288:1" depart="57674.00" departLane="272042143_1" departPos="5.10" departSpeed="0.00" departDelay="0.00" arrival="57781.00" arrivalLane="-315358254#1_1" arrivalPos="137.16" arrivalSpeed="16.91" duration="107.00" routeLength="1596.88" waitingTime="0.00" waitingCount="0" stopTime="0.00" timeLoss="11.63" rerouteNo="1" devices="tripinfo_carIn126288:1 routing_carIn126288:1 emissions_carIn126288:1" vType="default_016" speedFactor="1.22" vaporized="">
        <emissions CO_abs="3978.335281" CO2_abs="348390.639153" HC_abs="26.087926" PMx_abs="6.192830" NOx_abs="139.077936" fuel_abs="149.757310" electricity_abs="0"/>
    </tripinfo>
    <tripinfo id="carIn30817:1" depart="57681.00" departLane="315358244_1" departPos="5.10" departSpeed="0.00" departDelay="0.20" arrival="57782.00" arrivalLane="447569997#1_1" arrivalPos="180.93" arrivalSpeed="7.67" duration="101.00" routeLength="718.04" waitingTime="19.00" waitingCount="1" stopTime="0.00" timeLoss="36.12" rerouteNo="1" devices="tripinfo_carIn30817:1 routing_carIn30817:1 emissions_carIn30817:1" vType="default_016" speedFactor="0.95" vaporized="">
        <emissions CO_abs="5727.879431" CO2_abs="234245.251449" HC_abs="31.538731" PMx_abs="4.231253" NOx_abs="96.678994" fuel_abs="100.693659" electricity_abs="0"/>
    </tripinfo>
    <tripinfo id="carIn121703:1" depart="57647.00" departLane="386687232#0_1" departPos="5.10" departSpeed="0.00" departDelay="0.30" arrival="57793.00" arrivalLane="-315358244_1" arrivalPos="33.95" arrivalSpeed="13.12" duration="146.00" routeLength="1157.39" waitingTime="42.00" waitingCount="2" stopTime="0.00" timeLoss="59.42" rerouteNo="1" devices="tripinfo_carIn121703:1 routing_carIn121703:1 emissions_carIn121703:1" vType="default_016" speedFactor="0.97" vaporized="">
        <emissions CO_abs="8756.528580" CO2_abs="337212.383664" HC_abs="47.738828" PMx_abs="6.241437" NOx_abs="139.103771" fuel_abs="144.955860" electricity_abs="0"/>
    </tripinfo>
    <tripinfo id="h3154c1:1" depart="57658.00" departLane="24634507_1" departPos="5.10" departSpeed="0.00" departDelay="0.00" arrival="57799.00" arrivalLane="-266565295#5_1" arrivalPos="172.76" arrivalSpeed="13.34" duration="141.00" routeLength="1206.22" waitingTime="37.00" waitingCount="2" stopTime="0.00" timeLoss="55.85" rerouteNo="1" devices="tripinfo_h3154c1:1 routing_h3154c1:1 emissions_h3154c1:1" vType="default_016" speedFactor="1.04" vaporized="">
        <emissions CO_abs="9475.749222" CO2_abs="398405.703949" HC_abs="52.381004" PMx_abs="7.550642" NOx_abs="165.423914" fuel_abs="171.259707" electricity_abs="0"/>
    </tripinfo>
    <tripinfo id="carIn12365:1" depart="57713.00" departLane="315358244_1" departPos="5.10" departSpeed="0.00" departDelay="0.50" arrival="57801.00" arrivalLane="447569997#1_1" arrivalPos="180.93" arrivalSpeed="5.55" duration="88.00" routeLength="718.04" waitingTime="0.00" waitingCount="0" stopTime="0.00" timeLoss="8.99" rerouteNo="1" devices="tripinfo_carIn12365:1 routing_carIn12365:1 emissions_carIn12365:1" vType="default_016" speedFactor="0.78" vaporized="">
        <emissions CO_abs="2775.877120" CO2_abs="149126.411110" HC_abs="16.040720" PMx_abs="2.197422" NOx_abs="58.611158" fuel_abs="64.104098" electricity_abs="0"/>
    </tripinfo>
    <tripinfo id="carIn107282:1" depart="57749.00" departLane="-447569998#1_1" departPos="5.10" departSpeed="0.00" departDelay="0.00" arrival="57805.00" arrivalLane="315358242#0_1" arrivalPos="165.37" arrivalSpeed="14.57" duration="56.00" routeLength="448.50" waitingTime="7.00" waitingCount="1" stopTime="0.00" timeLoss="15.84" rerouteNo="1" devices="tripinfo_carIn107282:1 routing_carIn107282:1 emissions_carIn107282:1" vType="default_016" speedFactor="1.06" vaporized="">
        <emissions CO_abs="2498.463821" CO2_abs="131293.224334" HC_abs="14.401617" PMx_abs="2.242062" NOx_abs="53.196589" fuel_abs="56.437862" electricity_abs="0"/>
    </tripinfo>
    <tripinfo id="carIn118591:1" depart="57689.00" departLane="315358244_1" departPos="5.10" departSpeed="0.00" departDelay="0.20" arrival="57809.00" arrivalLane="386687235_1" arrivalPos="80.84" arrivalSpeed="12.80" duration="120.00" routeLength="1186.14" waitingTime="13.00" waitingCount="1" stopTime="0.00" timeLoss="30.76" rerouteNo="1" devices="tripinfo_carIn118591:1 routing_carIn118591:1 emissions_carIn118591:1" vType="default_016" speedFactor="0.97" vaporized="">
        <emissions CO_abs="5040.205367" CO2_abs="291043.994517" HC_abs="29.734090" PMx_abs="4.887352" NOx_abs="116.689155" fuel_abs="125.108304" electricity_abs="0"/>
    </tripinfo>
    <tripinfo id="carIn50326:1" depart="57651.00" departLane="128361102#0_1" departPos="5.10" departSpeed="0.00" departDelay="0.30" arrival="57811.00" arrivalLane="18809673#0_1" arrivalPos="473.56" arrivalSpeed="14.18" duration="160.00" routeLength="1591.07" waitingTime="10.00" waitingCount="1" stopTime="0.00" timeLoss="32.08" rerouteNo="1" devices="tripinfo_carIn50326:1 routing_carIn50326:1 emissions_carIn50326:1" vType="default_016" speedFactor="1.02" vaporized="">
        <emissions CO_abs="6046.868812" CO2_abs="371767.580930" HC_abs="36.179274" PMx_abs="6.312057" NOx_abs="149.703873" fuel_abs="159.807712" electricity_abs="0"/>
    </tripinfo>
    <tripinfo id="carIn48184:1" depart="57613.00" departLane="-306240162#1_0" departPos="5.10" departSpeed="0.00" departDelay="0.70" arrival="57814.00" arrivalLane="386687235_1" arrivalPos="80.84" arrivalSpeed="14.83" duration="201.00" routeLength="2257.41" waitingTime="31.00" waitingCount="4" stopTime="0.00" timeLoss="62.14" rerouteNo="1" devices="tripinfo_carIn48184:1 routing_carIn48184:1 emissions_carIn48184:1" vType="default_016" speedFactor="1.08" vaporized="">
        <emissions CO_abs="10713.765608" CO2_abs="600872.238285" HC_abs="63.013826" PMx_abs="11.339625" NOx_abs="245.935719" fuel_abs="258.289875" electricity_abs="0"/>
    </tripinfo>
    <tripinfo id="h16072c2:3" depart="57663.00" departLane="315358254#0_1" departPos="5.10" departSpeed="0.00" departDelay="2.50" arrival="57814.00" arrivalLane="386687235_2" arrivalPos="80.84" arrivalSpeed="13.23" duration="151.00" routeLength="1611.92" waitingTime="7.00" waitingCount="3" stopTime="0.00" timeLoss="33.53" rerouteNo="1" devices="tripinfo_h16072c2:3 routing_h16072c2:3 emissions_h16072c2:3" vType="default_016" speedFactor="1.00" vaporized="">
        <emissions CO_abs="5037.177525" CO2_abs="354041.967307" HC_abs="31.159387" PMx_abs="5.886932" NOx_abs="141.254242" fuel_abs="152.187816" electricity_abs="0"/>
    </tripinfo>
    <tripinfo id="carIn22761:1" depart="57616.00" departLane="-306240162#1_0" departPos="5.10" departSpeed="0.00" departDelay="2.10" arrival="57815.00" arrivalLane="399835085#1_1" arrivalPos="212.23" arrivalSpeed="7.50" duration="199.00" routeLength="1093.26" waitingTime="95.00" waitingCount="2" stopTime="0.00" timeLoss="119.58" rerouteNo="1" devices="tripinfo_carIn22761:1 routing_carIn22761:1 emissions_carIn22761:1" vType="default_016" speedFactor="0.99" vaporized="">
        <emissions CO_abs="19493.865133" CO2_abs="566356.337144" HC_abs="102.077579" PMx_abs="12.004074" NOx_abs="243.462825" fuel_abs="243.458629" electricity_abs="0"/>
    </tripinfo>
    <tripinfo id="h5216c1:1" depart="57664.00" departLane="224892339#0_1" departPos="5.10" departSpeed="0.00" departDelay="0.00" arrival="57817.00" arrivalLane="386687235_1" arrivalPos="80.84" arrivalSpeed="15.48" duration="153.00" routeLength="1823.78" waitingTime="19.00" waitingCount="1" stopTime="0.00" timeLoss="39.01" rerouteNo="1" devices="tripinfo_h5216c1:1 routing_h5216c1:1 emissions_h5216c1:1" vType="default_016" speedFactor="1.12" vaporized="">
        <emissions CO_abs="7793.707044" CO2_abs="466835.830017" HC_abs="46.389013" PMx_abs="8.734174" NOx_abs="191.112988" fuel_abs="200.672802" electricity_abs="0"/>
    </tripinfo>
    <tripinfo id="carIn82278:1" depart="57702.00" departLane="-306240162#1_0" departPos="5.10" departSpeed="0.00" departDelay="0.70" arrival="57818.00" arrivalLane="399835085#1_1" arrivalPos="212.23" arrivalSpeed="7.24" duration="116.00" routeLength="1093.26" waitingTime="9.00" waitingCount="2" stopTime="0.00" timeLoss="34.12" rerouteNo="1" devices="tripinfo_carIn82278:1 routing_carIn82278:1 emissions_carIn82278:1" vType="default_016" speedFactor="0.95" vaporized="">
        <emissions CO_abs="6021.243831" CO2_abs="336558.071186" HC_abs="35.349739" PMx_abs="6.298661" NOx_abs="138.854440" fuel_abs="144.672203" electricity_abs="0"/>
    </tripinfo>
    <tripinfo id="h3864c1:3" depart="57678.00" departLane="24693977#1_1" departPos="5.10" departSpeed="0.00" departDelay="0.00" arrival="57820.00" arrivalLane="201956820_2" arrivalPos="48.33" arrivalSpeed="14.22" duration="142.00" routeLength="1574.85" waitingTime="0.00" waitingCount="0" stopTime="0.00" timeLoss="17.09" rerouteNo="1" devices="tripinfo_h3864c1:3 routing_h3864c1:3 emissions_h3864c1:3" vType="default_016" speedFactor="1.04" vaporized="">
        <emissions CO_abs="5080.559431" CO2_abs="369623.690124" HC_abs="31.702918" PMx_abs="6.131978" NOx_abs="147.678044" fuel_abs="158.885582" electricity_abs="0"/>
    </tripinfo>
    <tripinfo id="carIn102915:1" depart="57643.00" departLane="128361102#0_1" departPos="5.10" departSpeed="0.00" departDelay="0.40" arrival="57822.00" arrivalLane="201956811#0_1" arrivalPos="40.40" arrivalSpeed="15.03" duration="179.00" routeLength="2067.33" waitingTime="18.00" waitingCount="2" stopTime="0.00" timeLoss="42.31" rerouteNo="1" devices="tripinfo_carIn102915:1 routing_carIn102915:1 emissions_carIn102915:1" vType="default_016" speedFactor="1.10" vaporized="">
        <emissions CO_abs="8029.079837" CO2_abs="506083.619857" HC_abs="48.404725" PMx_abs="9.214090" NOx_abs="206.434413" fuel_abs="217.543702" electricity_abs="0"/>
    </tripinfo>
    <tripinfo id="randUni15030:1" depart="57735.00" departLane="386687232#0_1" departPos="5.10" departSpeed="0.00" departDelay="0.10" arrival="57824.00" arrivalLane="26677539_1" arrivalPos="151.98" arrivalSpeed="8.64" duration="89.00" routeLength="919.89" waitingTime="0.00" waitingCount="0" stopTime="0.00" timeLoss="10.82" rerouteNo="1" devices="tripinfo_randUni15030:1 routing_randUni15030:1 emissions_randUni15030:1" vType="random_016" speedFactor="1.06" vaporized="">
        <emissions CO_abs="3269.937138" CO2_abs="211870.959049" HC_abs="19.810158" PMx_abs="3.564181" NOx_abs="85.403373" fuel_abs="91.074547" electricity_abs="0"/>
    </tripinfo>
    <tripinfo id="carIn129809:1" depart="57729.00" departLane="-447569998#1_1" departPos="5.10" departSpeed="0.00" departDelay="1.00" arrival="57832.00" arrivalLane="-315358244_1" arrivalPos="33.95" arrivalSpeed="13.12" duration="103.00" routeLength="706.49" waitingTime="28.00" waitingCount="1" stopTime="0.00" timeLoss="41.00" rerouteNo="1" devices="tripinfo_carIn129809:1 routing_carIn129809:1 emissions_carIn129809:1" vType="default_015" speedFactor="0.97" vaporized="">
        <emissions CO_abs="7120.675071" CO2_abs="243997.249581" HC_abs="38.127538" PMx_abs="4.697242" NOx_abs="102.647395" fuel_abs="104.886232" electricity_abs="0"/>
    </tripinfo>
    <tripinfo id="h645c1:1" depart="57622.00" departLane="266565295#5_1" departPos="5.10" departSpeed="0.00" departDelay="0.40" arrival="57834.00" arrivalLane="-315358244_1" arrivalPos="33.95" arrivalSpeed="14.23" duration="212.00" routeLength="1910.83" waitingTime="50.00" waitingCount="3" stopTime="0.00" timeLoss="79.10" rerouteNo="1" devices="tripinfo_h645c1:1 routing_h645c1:1 emissions_h645c1:1" vType="default_016" speedFactor="1.04" vaporized="">
        <emissions CO_abs="11108.854911" CO2_abs="512656.244732" HC_abs="62.492967" PMx_abs="9.203859" NOx_abs="208.596021" fuel_abs="220.371710" electricity_abs="0"/>
    </tripinfo>
    <tripinfo id="50R_frequency3.17" depart="57674.00" departLane="-18809673#6_1" departPos="12.10" departSpeed="0.00" departDelay="0.70" arrival="57835.00" arrivalLane="201956811#0_1" arrivalPos="40.40" arrivalSpeed="12.68" duration="161.00" routeLength="1954.47" waitingTime="0.00" waitingCount="0" stopTime="0.00" timeLoss="15.97" rerouteNo="1" devices="tripinfo_50R_frequency3.17 routing_50R_frequency3.17 emissions_50R_frequency3.17" vType="bus" speedFactor="1.00" vaporized="">
        <emissions CO_abs="3043.547970" CO2_abs="1958030.194583" HC_abs="641.796669" PMx_abs="327.627875" NOx_abs="15050.592056" fuel_abs="835.098553" electricity_abs="0"/>
    </tripinfo>
    <tripinfo id="carIn107084:1" depart="57601.00" departLane="124812856#0_1" departPos="5.10" departSpeed="0.00" departDelay="0.70" arrival="57838.00" arrivalLane="-128361102#1_1" arrivalPos="274.68" arrivalSpeed="12.24" duration="237.00" routeLength="2250.49" waitingTime="38.00" waitingCount="2" stopTime="0.00" timeLoss="65.31" rerouteNo="1" devices="tripinfo_carIn107084:1 routing_carIn107084:1 emissions_carIn107084:1" vType="default_016" speedFactor="0.96" vaporized="">
        <emissions CO_abs="11247.242703" CO2_abs="560254.009084" HC_abs="64.319342" PMx_abs="9.961040" NOx_abs="228.435143" fuel_abs="240.831494" electricity_abs="0"/>
    </tripinfo>
    <tripinfo id="h6541c1:3" depart="57727.00" departLane="201950247#3_1" departPos="5.10" departSpeed="0.00" departDelay="0.00" arrival="57839.00" arrivalLane="32978638#0_1" arrivalPos="49.29" arrivalSpeed="16.07" duration="112.00" routeLength="1176.17" waitingTime="6.00" waitingCount="1" stopTime="0.00" timeLoss="24.33" rerouteNo="1" devices="tripinfo_h6541c1:3 routing_h6541c1:3 emissions_h6541c1:3" vType="default_016" speedFactor="1.17" vaporized="">
        <emissions CO_abs="4629.677643" CO2_abs="313914.343210" HC_abs="28.403287" PMx_abs="5.487127" NOx_abs="127.099703" fuel_abs="134.938346" electricity_abs="0"/>
    </tripinfo>
    <tripinfo id="h2831c1:1" depart="57600.00" departLane="201089423#0_1" departPos="5.10" departSpeed="0.00" departDelay="0.00" arrival="57840.00" arrivalLane="-315358244_1" arrivalPos="33.95" arrivalSpeed="13.39" duration="240.00" routeLength="2672.18" waitingTime="11.00" waitingCount="3" stopTime="0.00" timeLoss="41.97" rerouteNo="1" devices="tripinfo_h2831c1:1 routing_h2831c1:1 emissions_h2831c1:1" vType="default_016" speedFactor="0.98" vaporized="">
        <emissions CO_abs="6601.656359" CO2_abs="520045.458645" HC_abs="42.114372" PMx_abs="8.303203" NOx_abs="204.784401" fuel_abs="223.545661" electricity_abs="0"/>
    </tripinfo>
    <tripinfo id="carIn28951:1" depart="57606.00" departLane="10425609#0_1" departPos="5.10" departSpeed="0.00" departDelay="0.20" arrival="57840.00" arrivalLane="-128361102#1_1" arrivalPos="274.68" arrivalSpeed="13.58" duration="234.00" routeLength="2113.04" waitingTime="47.00" waitingCount="3" stopTime="0.00" timeLoss="83.09" rerouteNo="1" devices="tripinfo_carIn28951:1 routing_carIn28951:1 emissions_carIn28951:1" vType="default_016" speedFactor="1.03" vaporized="">
        <emissions CO_abs="12468.013118" CO2_abs="601240.297910" HC_abs="70.876819" PMx_abs="11.189265" NOx_abs="248.505262" fuel_abs="258.449467" electricity_abs="0"/>
    </tripinfo>
    <tripinfo id="h17600c1:1" depart="57662.00" departLane="272042143_1" departPos="5.10" departSpeed="0.00" departDelay="0.30" arrival="57843.00" arrivalLane="201238729#3_1" arrivalPos="431.02" arrivalSpeed="13.38" duration="181.00" routeLength="2100.26" waitingTime="7.00" waitingCount="1" stopTime="0.00" timeLoss="24.02" rerouteNo="1" devices="tripinfo_h17600c1:1 routing_h17600c1:1 emissions_h17600c1:1" vType="default_016" speedFactor="0.97" vaporized="">
        <emissions CO_abs="4581.678606" CO2_abs="392498.329125" HC_abs="29.941822" PMx_abs="6.058627" NOx_abs="152.738460" fuel_abs="168.718542" electricity_abs="0"/>
    </tripinfo>
    <tripinfo id="carIn85747:1" depart="57673.00" departLane="128361109#1_1" departPos="5.10" departSpeed="0.00" departDelay="0.70" arrival="57843.00" arrivalLane="386687235_1" arrivalPos="80.84" arrivalSpeed="14.87" duration="170.00" routeLength="2088.57" waitingTime="11.00" waitingCount="2" stopTime="0.00" timeLoss="32.45" rerouteNo="1" devices="tripinfo_carIn85747:1 routing_carIn85747:1 emissions_carIn85747:1" vType="default_016" speedFactor="1.10" vaporized="">
        <emissions CO_abs="4944.956901" CO2_abs="403923.464949" HC_abs="31.721113" PMx_abs="6.617693" NOx_abs="158.431640" fuel_abs="173.629425" electricity_abs="0"/>
    </tripinfo>
    <tripinfo id="carIn82220:1" depart="57619.00" departLane="-306240162#1_0" departPos="5.10" departSpeed="0.00" departDelay="3.50" arrival="57845.00" arrivalLane="386687235_1" arrivalPos="80.84" arrivalSpeed="14.65" duration="226.00" routeLength="2257.41" waitingTime="47.00" waitingCount="3" stopTime="0.00" timeLoss="85.69" rerouteNo="1" devices="tripinfo_carIn82220:1 routing_carIn82220:1 emissions_carIn82220:1" vType="default_016" speedFactor="1.06" vaporized="">
        <emissions CO_abs="12612.683334" CO2_abs="646999.875444" HC_abs="72.686507" PMx_abs="12.467310" NOx_abs="267.926754" fuel_abs="278.118585" electricity_abs="0"/>
    </tripinfo>
    <tripinfo id="carIn8642:1" depart="57774.00" departLane="-447569998#1_1" departPos="5.10" departSpeed="0.00" departDelay="0.90" arrival="57846.00" arrivalLane="-315358244_1" arrivalPos="33.95" arrivalSpeed="13.62" duration="72.00" routeLength="706.49" waitingTime="0.00" waitingCount="0" stopTime="0.00" timeLoss="10.43" rerouteNo="1" devices="tripinfo_carIn8642:1 routing_carIn8642:1 emissions_carIn8642:1" vType="default_016" speedFactor="0.98" vaporized="">
        <emissions CO_abs="2590.428083" CO2_abs="157106.474513" HC_abs="15.434102" PMx_abs="2.507357" NOx_abs="62.426897" fuel_abs="67.533920" electricity_abs="0"/>
    </tripinfo>