<?xml version="1.0" encoding="UTF-8"?>

<!-- generated on 2021-10-26 18:25:22 by Eclipse SUMO sumo Version 1.10.0
<configuration xmlns:xsi="http://www.w3.org/2001/XMLSchema-instance" xsi:noNamespaceSchemaLocation="http://sumo.dlr.de/xsd/sumoConfiguration.xsd">

    <input>
        <net-file value="/Users/behradkoohy/sumo-scratchpad/RESCO/environments/ingolstadt21/ingolstadt21.net.xml"/>
        <route-files value="/Users/behradkoohy/sumo-scratchpad/RESCO/environments/ingolstadt21/ingolstadt21.rou.xml"/>
    </input>

    <output>
        <tripinfo-output value="/Users/behradkoohy/sumo-scratchpad/RESCO/logs/IPPO-tr0-ingolstadt21-21-drq_norm-wait_norm/tripinfo_67.xml"/>
        <tripinfo-output.write-unfinished value="true"/>
    </output>

    <time>
        <begin value="57600"/>
        <end value="61200"/>
    </time>

    <processing>
        <time-to-teleport value="-1"/>
    </processing>

    <report>
        <no-warnings value="true"/>
        <no-step-log value="true"/>
    </report>

    <emissions>
        <device.emissions.probability value="1"/>
    </emissions>

    <traci_server>
        <remote-port value="62313"/>
    </traci_server>

    <random_number>
        <random value="true"/>
    </random_number>

</configuration>
-->

<tripinfos xmlns:xsi="http://www.w3.org/2001/XMLSchema-instance" xsi:noNamespaceSchemaLocation="http://sumo.dlr.de/xsd/tripinfo_file.xsd">
    <tripinfo id="h15454c2:3" depart="57612.00" departLane="24608844_1" departPos="5.10" departSpeed="0.00" departDelay="0.50" arrival="57650.00" arrivalLane="32978638#0_1" arrivalPos="49.29" arrivalSpeed="12.93" duration="38.00" routeLength="354.79" waitingTime="0.00" waitingCount="0" stopTime="0.00" timeLoss="4.38" rerouteNo="1" devices="tripinfo_h15454c2:3 routing_h15454c2:3 emissions_h15454c2:3" vType="default_016" speedFactor="1.02" vaporized="">
        <emissions CO_abs="1776.726680" CO2_abs="98659.818220" HC_abs="10.387746" PMx_abs="1.685318" NOx_abs="40.204365" fuel_abs="42.409921" electricity_abs="0"/>
    </tripinfo>
    <tripinfo id="carIn60260:1" depart="57606.00" departLane="315358254#0_1" departPos="5.10" departSpeed="0.00" departDelay="0.90" arrival="57693.00" arrivalLane="399835085#1_1" arrivalPos="212.23" arrivalSpeed="7.22" duration="87.00" routeLength="430.98" waitingTime="31.00" waitingCount="1" stopTime="0.00" timeLoss="40.84" rerouteNo="1" devices="tripinfo_carIn60260:1 routing_carIn60260:1 emissions_carIn60260:1" vType="default_016" speedFactor="1.00" vaporized="">
        <emissions CO_abs="6476.889255" CO2_abs="179562.934433" HC_abs="33.654874" PMx_abs="3.623596" NOx_abs="76.967531" fuel_abs="77.188844" electricity_abs="0"/>
    </tripinfo>
    <tripinfo id="carIn53971:1" depart="57640.00" departLane="272042143_1" departPos="5.10" departSpeed="0.00" departDelay="0.80" arrival="57695.00" arrivalLane="24634414#1_1" arrivalPos="162.19" arrivalSpeed="6.77" duration="55.00" routeLength="493.04" waitingTime="0.00" waitingCount="0" stopTime="0.00" timeLoss="7.52" rerouteNo="1" devices="tripinfo_carIn53971:1 routing_carIn53971:1 emissions_carIn53971:1" vType="default_016" speedFactor="0.96" vaporized="">
        <emissions CO_abs="2485.799318" CO2_abs="140429.596875" HC_abs="14.593195" PMx_abs="2.412803" NOx_abs="57.315462" fuel_abs="60.365025" electricity_abs="0"/>
    </tripinfo>
    <tripinfo id="h7800c1:5" depart="57696.00" departLane="-447569998#1_1" departPos="5.10" departSpeed="0.00" departDelay="0.00" arrival="57717.00" arrivalLane="-447569998#1_2" arrivalPos="180.76" arrivalSpeed="8.94" duration="21.00" routeLength="175.66" waitingTime="0.00" waitingCount="0" stopTime="0.00" timeLoss="3.59" rerouteNo="1" devices="tripinfo_h7800c1:5 routing_h7800c1:5 emissions_h7800c1:5" vType="default_016" speedFactor="1.24" vaporized="">
        <emissions CO_abs="1149.167302" CO2_abs="60676.933243" HC_abs="6.645249" PMx_abs="1.053479" NOx_abs="24.966717" fuel_abs="26.082602" electricity_abs="0"/>
    </tripinfo>
    <tripinfo id="h317c2:1" depart="57707.00" departLane="-32978638#0_1" departPos="5.10" departSpeed="0.00" departDelay="0.10" arrival="57741.00" arrivalLane="-266565295#5_1" arrivalPos="172.76" arrivalSpeed="12.85" duration="34.00" routeLength="370.53" waitingTime="0.00" waitingCount="0" stopTime="0.00" timeLoss="6.23" rerouteNo="1" devices="tripinfo_h317c2:1 routing_h317c2:1 emissions_h317c2:1" vType="default_016" speedFactor="0.98" vaporized="">
        <emissions CO_abs="1641.694022" CO2_abs="106818.512365" HC_abs="9.982785" PMx_abs="1.858537" NOx_abs="43.432268" fuel_abs="45.916758" electricity_abs="0"/>
    </tripinfo>
    <tripinfo id="h3568c1:3" depart="57656.00" departLane="266565295#5_1" departPos="5.10" departSpeed="0.00" departDelay="0.80" arrival="57746.00" arrivalLane="-24634415_1" arrivalPos="62.03" arrivalSpeed="12.19" duration="90.00" routeLength="807.40" waitingTime="7.00" waitingCount="1" stopTime="0.00" timeLoss="23.57" rerouteNo="1" devices="tripinfo_h3568c1:3 routing_h3568c1:3 emissions_h3568c1:3" vType="default_016" speedFactor="0.97" vaporized="">
        <emissions CO_abs="4167.211786" CO2_abs="232734.950004" HC_abs="24.444507" PMx_abs="4.207295" NOx_abs="96.063819" fuel_abs="100.043127" electricity_abs="0"/>
    </tripinfo>
    <tripinfo id="h12244c1:3" depart="57612.00" departLane="315358244_1" departPos="5.10" departSpeed="0.00" departDelay="0.40" arrival="57750.00" arrivalLane="386687235_1" arrivalPos="80.84" arrivalSpeed="13.12" duration="138.00" routeLength="1186.14" waitingTime="26.00" waitingCount="4" stopTime="0.00" timeLoss="48.67" rerouteNo="1" devices="tripinfo_h12244c1:3 routing_h12244c1:3 emissions_h12244c1:3" vType="default_016" speedFactor="0.97" vaporized="">
        <emissions CO_abs="6271.425399" CO2_abs="315627.797360" HC_abs="35.874960" PMx_abs="5.355792" NOx_abs="126.872601" fuel_abs="135.676511" electricity_abs="0"/>
    </tripinfo>
    <tripinfo id="carIn27009:1" depart="57673.00" departLane="-447569998#1_1" departPos="5.10" departSpeed="0.00" departDelay="0.50" arrival="57754.00" arrivalLane="-26677539_1" arrivalPos="152.75" arrivalSpeed="9.65" duration="81.00" routeLength="699.63" waitingTime="0.00" waitingCount="0" stopTime="0.00" timeLoss="9.81" rerouteNo="1" devices="tripinfo_carIn27009:1 routing_carIn27009:1 emissions_carIn27009:1" vType="default_015" speedFactor="1.18" vaporized="">
        <emissions CO_abs="3321.598418" CO2_abs="191502.614591" HC_abs="19.536900" PMx_abs="3.027051" NOx_abs="76.735210" fuel_abs="82.319572" electricity_abs="0"/>
    </tripinfo>
    <tripinfo id="carIn30817:1" depart="57681.00" departLane="315358244_1" departPos="5.10" departSpeed="0.00" departDelay="0.20" arrival="57757.00" arrivalLane="447569997#1_1" arrivalPos="180.93" arrivalSpeed="7.58" duration="76.00" routeLength="718.04" waitingTime="0.00" waitingCount="0" stopTime="0.00" timeLoss="11.24" rerouteNo="1" devices="tripinfo_carIn30817:1 routing_carIn30817:1 emissions_carIn30817:1" vType="default_016" speedFactor="0.95" vaporized="">
        <emissions CO_abs="2805.123295" CO2_abs="161759.904517" HC_abs="16.531900" PMx_abs="2.690837" NOx_abs="65.275551" fuel_abs="69.534168" electricity_abs="0"/>
    </tripinfo>
    <tripinfo id="h3688c1:1" depart="57625.00" departLane="201201950#1_1" departPos="5.10" departSpeed="0.00" departDelay="0.00" arrival="57759.00" arrivalLane="32978638#0_1" arrivalPos="49.29" arrivalSpeed="10.25" duration="134.00" routeLength="1089.75" waitingTime="12.00" waitingCount="1" stopTime="0.00" timeLoss="27.31" rerouteNo="1" devices="tripinfo_h3688c1:1 routing_h3688c1:1 emissions_h3688c1:1" vType="default_016" speedFactor="0.75" vaporized="">
        <emissions CO_abs="5210.787637" CO2_abs="276892.518587" HC_abs="30.112203" PMx_abs="4.448274" NOx_abs="111.128955" fuel_abs="119.025661" electricity_abs="0"/>
    </tripinfo>
    <tripinfo id="h3326c1:2" depart="57656.00" departLane="22716069#0_1" departPos="5.10" departSpeed="0.00" departDelay="0.00" arrival="57763.00" arrivalLane="24634517#13_1" arrivalPos="111.62" arrivalSpeed="13.58" duration="107.00" routeLength="1312.81" waitingTime="0.00" waitingCount="0" stopTime="0.00" timeLoss="15.02" rerouteNo="1" devices="tripinfo_h3326c1:2 routing_h3326c1:2 emissions_h3326c1:2" vType="default_016" speedFactor="1.07" vaporized="">
        <emissions CO_abs="4180.762207" CO2_abs="310040.890287" HC_abs="26.259135" PMx_abs="5.497874" NOx_abs="125.833105" fuel_abs="133.272873" electricity_abs="0"/>
    </tripinfo>
    <tripinfo id="h5979c1:5" depart="57669.00" departLane="399835085#1_1" departPos="5.10" departSpeed="0.00" departDelay="0.00" arrival="57763.00" arrivalLane="-315358254#1_1" arrivalPos="137.16" arrivalSpeed="12.64" duration="94.00" routeLength="659.33" waitingTime="1.00" waitingCount="1" stopTime="0.00" timeLoss="15.79" rerouteNo="1" devices="tripinfo_h5979c1:5 routing_h5979c1:5 emissions_h5979c1:5" vType="default_016" speedFactor="0.95" vaporized="">
        <emissions CO_abs="3996.857529" CO2_abs="185389.704446" HC_abs="22.468816" PMx_abs="3.061084" NOx_abs="75.351631" fuel_abs="79.692314" electricity_abs="0"/>
    </tripinfo>
    <tripinfo id="h3154c1:1" depart="57658.00" departLane="24634507_1" departPos="5.10" departSpeed="0.00" departDelay="0.00" arrival="57776.00" arrivalLane="-266565295#5_1" arrivalPos="172.76" arrivalSpeed="14.31" duration="118.00" routeLength="1206.22" waitingTime="21.00" waitingCount="1" stopTime="0.00" timeLoss="37.62" rerouteNo="1" devices="tripinfo_h3154c1:1 routing_h3154c1:1 emissions_h3154c1:1" vType="default_016" speedFactor="1.12" vaporized="">
        <emissions CO_abs="6720.691922" CO2_abs="354637.741791" HC_abs="38.862952" PMx_abs="6.531058" NOx_abs="145.040940" fuel_abs="152.444426" electricity_abs="0"/>
    </tripinfo>
    <tripinfo id="carIn22761:1" depart="57616.00" departLane="-306240162#1_0" departPos="5.10" departSpeed="0.00" departDelay="2.10" arrival="57777.00" arrivalLane="399835085#1_1" arrivalPos="212.23" arrivalSpeed="7.71" duration="161.00" routeLength="1093.26" waitingTime="47.00" waitingCount="3" stopTime="0.00" timeLoss="77.95" rerouteNo="1" devices="tripinfo_carIn22761:1 routing_carIn22761:1 emissions_carIn22761:1" vType="default_016" speedFactor="0.94" vaporized="">
        <emissions CO_abs="11263.499786" CO2_abs="419999.359443" HC_abs="61.208963" PMx_abs="8.374555" NOx_abs="177.446948" fuel_abs="180.542458" electricity_abs="0"/>
    </tripinfo>
    <tripinfo id="carIn121703:1" depart="57647.00" departLane="386687232#0_1" departPos="5.10" departSpeed="0.00" departDelay="0.30" arrival="57784.00" arrivalLane="-315358244_1" arrivalPos="33.95" arrivalSpeed="14.01" duration="137.00" routeLength="1157.39" waitingTime="40.00" waitingCount="2" stopTime="0.00" timeLoss="56.15" rerouteNo="1" devices="tripinfo_carIn121703:1 routing_carIn121703:1 emissions_carIn121703:1" vType="default_016" speedFactor="1.05" vaporized="">
        <emissions CO_abs="8397.181082" CO2_abs="349581.468284" HC_abs="46.409380" PMx_abs="6.444565" NOx_abs="143.459974" fuel_abs="150.272415" electricity_abs="0"/>
    </tripinfo>
    <tripinfo id="h330c1:1" depart="57736.00" departLane="-32978638#0_1" departPos="5.10" departSpeed="0.00" departDelay="0.20" arrival="57788.00" arrivalLane="-266565295#5_1" arrivalPos="172.76" arrivalSpeed="11.15" duration="52.00" routeLength="370.53" waitingTime="12.00" waitingCount="1" stopTime="0.00" timeLoss="20.36" rerouteNo="1" devices="tripinfo_h330c1:1 routing_h330c1:1 emissions_h330c1:1" vType="default_016" speedFactor="0.87" vaporized="">
        <emissions CO_abs="3261.331489" CO2_abs="130239.310473" HC_abs="17.891205" PMx_abs="2.405802" NOx_abs="54.174557" fuel_abs="55.985199" electricity_abs="0"/>
    </tripinfo>
    <tripinfo id="carIn12365:1" depart="57713.00" departLane="315358244_1" departPos="5.10" departSpeed="0.00" departDelay="0.50" arrival="57791.00" arrivalLane="447569997#1_1" arrivalPos="180.93" arrivalSpeed="7.24" duration="78.00" routeLength="718.04" waitingTime="4.00" waitingCount="1" stopTime="0.00" timeLoss="15.61" rerouteNo="1" devices="tripinfo_carIn12365:1 routing_carIn12365:1 emissions_carIn12365:1" vType="default_016" speedFactor="0.99" vaporized="">
        <emissions CO_abs="2772.694015" CO2_abs="167886.907311" HC_abs="16.518009" PMx_abs="2.706017" NOx_abs="66.929576" fuel_abs="72.167964" electricity_abs="0"/>
    </tripinfo>
    <tripinfo id="h4538c1:1" depart="57701.00" departLane="-10427692#1_1" departPos="5.10" departSpeed="0.00" departDelay="0.00" arrival="57792.00" arrivalLane="-128361102#1_1" arrivalPos="274.68" arrivalSpeed="15.44" duration="91.00" routeLength="440.74" waitingTime="53.00" waitingCount="1" stopTime="0.00" timeLoss="63.69" rerouteNo="1" devices="tripinfo_h4538c1:1 routing_h4538c1:1 emissions_h4538c1:1" vType="default_016" speedFactor="1.17" vaporized="">
        <emissions CO_abs="9878.521739" CO2_abs="250265.310721" HC_abs="50.839023" PMx_abs="5.420458" NOx_abs="108.477439" fuel_abs="107.582009" electricity_abs="0"/>
    </tripinfo>
    <tripinfo id="S5R_frequency1.2" depart="57615.00" departLane="315358250#0_1" departPos="12.10" departSpeed="0.00" departDelay="3.40" arrival="57794.00" arrivalLane="386687235_1" arrivalPos="80.84" arrivalSpeed="13.89" duration="179.00" routeLength="1115.62" waitingTime="50.00" waitingCount="6" stopTime="0.00" timeLoss="97.01" rerouteNo="1" devices="tripinfo_S5R_frequency1.2 routing_S5R_frequency1.2 emissions_S5R_frequency1.2" vType="bus" speedFactor="1.00" vaporized="">
        <emissions CO_abs="3524.269933" CO2_abs="1896206.464099" HC_abs="747.671855" PMx_abs="369.847828" NOx_abs="15576.375107" fuel_abs="808.591614" electricity_abs="0"/>
    </tripinfo>
    <tripinfo id="carIn129809:1" depart="57729.00" departLane="-447569998#1_1" departPos="5.10" departSpeed="0.00" departDelay="1.00" arrival="57797.00" arrivalLane="-315358244_1" arrivalPos="33.95" arrivalSpeed="13.22" duration="68.00" routeLength="706.49" waitingTime="0.00" waitingCount="0" stopTime="0.00" timeLoss="8.46" rerouteNo="1" devices="tripinfo_carIn129809:1 routing_carIn129809:1 emissions_carIn129809:1" vType="default_015" speedFactor="1.02" vaporized="">
        <emissions CO_abs="2265.779098" CO2_abs="156177.374308" HC_abs="13.910354" PMx_abs="2.364284" NOx_abs="60.970338" fuel_abs="67.134492" electricity_abs="0"/>
    </tripinfo>
    <tripinfo id="carIn107282:1" depart="57749.00" departLane="-447569998#1_1" departPos="5.10" departSpeed="0.00" departDelay="0.00" arrival="57797.00" arrivalLane="315358242#0_1" arrivalPos="165.37" arrivalSpeed="13.46" duration="48.00" routeLength="448.50" waitingTime="0.00" waitingCount="0" stopTime="0.00" timeLoss="5.36" rerouteNo="1" devices="tripinfo_carIn107282:1 routing_carIn107282:1 emissions_carIn107282:1" vType="default_016" speedFactor="0.99" vaporized="">
        <emissions CO_abs="1831.294006" CO2_abs="107286.315632" HC_abs="10.824965" PMx_abs="1.738046" NOx_abs="42.906881" fuel_abs="46.118187" electricity_abs="0"/>
    </tripinfo>
    <tripinfo id="carIn81860:1" depart="57712.00" departLane="128361102#0_1" departPos="5.10" departSpeed="0.00" departDelay="0.60" arrival="57798.00" arrivalLane="-24634517#17_1" arrivalPos="6.43" arrivalSpeed="8.36" duration="86.00" routeLength="1229.64" waitingTime="0.00" waitingCount="0" stopTime="0.00" timeLoss="11.04" rerouteNo="1" devices="tripinfo_carIn81860:1 routing_carIn81860:1 emissions_carIn81860:1" vType="default_016" speedFactor="1.21" vaporized="">
        <emissions CO_abs="2919.267762" CO2_abs="264875.563445" HC_abs="19.346526" PMx_abs="4.487973" NOx_abs="104.178779" fuel_abs="113.858239" electricity_abs="0"/>
    </tripinfo>
    <tripinfo id="carIn80064:1" depart="57603.00" departLane="128361109#1_1" departPos="5.10" departSpeed="0.00" departDelay="0.40" arrival="57799.00" arrivalLane="-315358254#1_1" arrivalPos="137.16" arrivalSpeed="11.01" duration="196.00" routeLength="1587.97" waitingTime="58.00" waitingCount="3" stopTime="0.00" timeLoss="89.33" rerouteNo="1" devices="tripinfo_carIn80064:1 routing_carIn80064:1 emissions_carIn80064:1" vType="default_016" speedFactor="0.84" vaporized="">
        <emissions CO_abs="14915.998272" CO2_abs="584434.296852" HC_abs="81.621037" PMx_abs="11.541742" NOx_abs="244.906247" fuel_abs="251.226694" electricity_abs="0"/>
    </tripinfo>
    <tripinfo id="h17600c1:1" depart="57662.00" departLane="272042143_1" departPos="5.10" departSpeed="0.00" departDelay="0.30" arrival="57809.00" arrivalLane="201238729#3_1" arrivalPos="431.02" arrivalSpeed="15.15" duration="147.00" routeLength="2100.26" waitingTime="0.00" waitingCount="0" stopTime="0.00" timeLoss="10.55" rerouteNo="1" devices="tripinfo_h17600c1:1 routing_h17600c1:1 emissions_h17600c1:1" vType="default_016" speedFactor="1.11" vaporized="">
        <emissions CO_abs="3075.670448" CO2_abs="363624.248327" HC_abs="22.107004" PMx_abs="5.426933" NOx_abs="137.643191" fuel_abs="156.306282" electricity_abs="0"/>
    </tripinfo>
    <tripinfo id="h9563c2:5" depart="57631.00" departLane="315358244_1" departPos="5.10" departSpeed="0.00" departDelay="0.70" arrival="57817.00" arrivalLane="386687235_1" arrivalPos="80.84" arrivalSpeed="11.58" duration="186.00" routeLength="1186.14" waitingTime="66.00" waitingCount="3" stopTime="0.00" timeLoss="91.21" rerouteNo="1" devices="tripinfo_h9563c2:5 routing_h9563c2:5 emissions_h9563c2:5" vType="default_016" speedFactor="0.91" vaporized="">
        <emissions CO_abs="14178.399450" CO2_abs="444409.628172" HC_abs="74.927645" PMx_abs="8.589700" NOx_abs="186.624067" fuel_abs="191.037830" electricity_abs="0"/>
    </tripinfo>
    <tripinfo id="carIn118591:1" depart="57689.00" departLane="315358244_1" departPos="5.10" departSpeed="0.00" departDelay="0.20" arrival="57819.00" arrivalLane="386687235_1" arrivalPos="80.84" arrivalSpeed="12.46" duration="130.00" routeLength="1186.14" waitingTime="12.00" waitingCount="4" stopTime="0.00" timeLoss="37.83" rerouteNo="1" devices="tripinfo_carIn118591:1 routing_carIn118591:1 emissions_carIn118591:1" vType="default_016" speedFactor="0.94" vaporized="">
        <emissions CO_abs="4805.205682" CO2_abs="288708.674060" HC_abs="28.611248" PMx_abs="4.861488" NOx_abs="116.269340" fuel_abs="124.104210" electricity_abs="0"/>
    </tripinfo>
    <tripinfo id="h16072c2:3" depart="57663.00" departLane="315358254#0_1" departPos="5.10" departSpeed="0.00" departDelay="2.50" arrival="57823.00" arrivalLane="386687235_1" arrivalPos="80.84" arrivalSpeed="13.00" duration="160.00" routeLength="1611.92" waitingTime="26.00" waitingCount="2" stopTime="0.00" timeLoss="44.23" rerouteNo="1" devices="tripinfo_h16072c2:3 routing_h16072c2:3 emissions_h16072c2:3" vType="default_016" speedFactor="1.01" vaporized="">
        <emissions CO_abs="7185.726420" CO2_abs="387112.256272" HC_abs="41.695684" PMx_abs="6.739514" NOx_abs="156.158034" fuel_abs="166.404343" electricity_abs="0"/>
    </tripinfo>
    <tripinfo id="carIn50326:1" depart="57651.00" departLane="128361102#0_1" departPos="5.10" departSpeed="0.00" departDelay="0.30" arrival="57825.00" arrivalLane="18809673#0_1" arrivalPos="473.56" arrivalSpeed="12.18" duration="174.00" routeLength="1591.07" waitingTime="9.00" waitingCount="1" stopTime="0.00" timeLoss="35.31" rerouteNo="1" devices="tripinfo_carIn50326:1 routing_carIn50326:1 emissions_carIn50326:1" vType="default_016" speedFactor="0.93" vaporized="">
        <emissions CO_abs="6367.527111" CO2_abs="378345.804567" HC_abs="37.783973" PMx_abs="6.222434" NOx_abs="151.834274" fuel_abs="162.635840" electricity_abs="0"/>
    </tripinfo>
    <tripinfo id="h9953c2:3" depart="57682.00" departLane="-54169231#2_1" departPos="5.10" departSpeed="0.00" departDelay="0.00" arrival="57828.00" arrivalLane="386687235_1" arrivalPos="80.84" arrivalSpeed="13.20" duration="146.00" routeLength="1535.60" waitingTime="1.00" waitingCount="1" stopTime="0.00" timeLoss="22.17" rerouteNo="1" devices="tripinfo_h9953c2:3 routing_h9953c2:3 emissions_h9953c2:3" vType="default_016" speedFactor="1.02" vaporized="">
        <emissions CO_abs="5343.248269" CO2_abs="370210.092962" HC_abs="32.972617" PMx_abs="6.179140" NOx_abs="148.438337" fuel_abs="159.137795" electricity_abs="0"/>
    </tripinfo>
    <tripinfo id="h11737c1:1" depart="57665.00" departLane="272042143_1" departPos="5.10" departSpeed="0.00" departDelay="1.50" arrival="57829.00" arrivalLane="-315358254#1_1" arrivalPos="137.16" arrivalSpeed="11.01" duration="164.00" routeLength="1596.88" waitingTime="8.00" waitingCount="1" stopTime="0.00" timeLoss="25.27" rerouteNo="1" devices="tripinfo_h11737c1:1 routing_h11737c1:1 emissions_h11737c1:1" vType="default_016" speedFactor="0.84" vaporized="">
        <emissions CO_abs="5321.198516" CO2_abs="343757.966488" HC_abs="32.150713" PMx_abs="5.219374" NOx_abs="134.864244" fuel_abs="147.768197" electricity_abs="0"/>
    </tripinfo>
    <tripinfo id="h7181c1:1" depart="57660.00" departLane="315358254#0_1" departPos="5.10" departSpeed="0.00" departDelay="0.10" arrival="57830.00" arrivalLane="306240162#0_0" arrivalPos="220.43" arrivalSpeed="17.10" duration="170.00" routeLength="932.35" waitingTime="101.00" waitingCount="2" stopTime="0.00" timeLoss="122.61" rerouteNo="1" devices="tripinfo_h7181c1:1 routing_h7181c1:1 emissions_h7181c1:1" vType="default_016" speedFactor="1.10" vaporized="">
        <emissions CO_abs="19357.087904" CO2_abs="533473.827463" HC_abs="100.855540" PMx_abs="11.893861" NOx_abs="231.910910" fuel_abs="229.323575" electricity_abs="0"/>
    </tripinfo>
    <tripinfo id="carIn126288:1" depart="57674.00" departLane="272042143_1" departPos="5.10" departSpeed="0.00" departDelay="0.00" arrival="57831.00" arrivalLane="-315358254#1_1" arrivalPos="137.16" arrivalSpeed="12.62" duration="157.00" routeLength="1596.88" waitingTime="8.00" waitingCount="1" stopTime="0.00" timeLoss="36.58" rerouteNo="1" devices="tripinfo_carIn126288:1 routing_carIn126288:1 emissions_carIn126288:1" vType="default_016" speedFactor="0.97" vaporized="">
        <emissions CO_abs="5625.214001" CO2_abs="370520.468472" HC_abs="34.253876" PMx_abs="6.118559" NOx_abs="148.301741" fuel_abs="159.271536" electricity_abs="0"/>
    </tripinfo>
    <tripinfo id="carIn28951:1" depart="57606.00" departLane="10425609#0_1" departPos="5.10" departSpeed="0.00" departDelay="0.20" arrival="57833.00" arrivalLane="-128361102#1_1" arrivalPos="274.68" arrivalSpeed="11.04" duration="227.00" routeLength="2113.04" waitingTime="19.00" waitingCount="1" stopTime="0.00" timeLoss="43.28" rerouteNo="1" devices="tripinfo_carIn28951:1 routing_carIn28951:1 emissions_carIn28951:1" vType="default_016" speedFactor="0.85" vaporized="">
        <emissions CO_abs="9442.950705" CO2_abs="503282.216718" HC_abs="54.699975" PMx_abs="8.500091" NOx_abs="203.651850" fuel_abs="216.341510" electricity_abs="0"/>
    </tripinfo>
    <tripinfo id="carIn107084:1" depart="57601.00" departLane="124812856#0_1" departPos="5.10" departSpeed="0.00" departDelay="0.70" arrival="57835.00" arrivalLane="-128361102#1_1" arrivalPos="274.68" arrivalSpeed="13.86" duration="234.00" routeLength="2250.49" waitingTime="20.00" waitingCount="2" stopTime="0.00" timeLoss="81.29" rerouteNo="1" devices="tripinfo_carIn107084:1 routing_carIn107084:1 emissions_carIn107084:1" vType="default_016" speedFactor="1.08" vaporized="">
        <emissions CO_abs="11126.943503" CO2_abs="647027.518862" HC_abs="65.796737" PMx_abs="11.634692" NOx_abs="265.954299" fuel_abs="278.130123" electricity_abs="0"/>
    </tripinfo>
    <tripinfo id="carIn81046:1" depart="57611.00" departLane="124812856#0_1" departPos="5.10" departSpeed="0.00" departDelay="2.50" arrival="57836.00" arrivalLane="-128361102#1_1" arrivalPos="274.68" arrivalSpeed="12.31" duration="225.00" routeLength="2250.49" waitingTime="8.00" waitingCount="2" stopTime="0.00" timeLoss="55.98" rerouteNo="1" devices="tripinfo_carIn81046:1 routing_carIn81046:1 emissions_carIn81046:1" vType="default_016" speedFactor="0.97" vaporized="">
        <emissions CO_abs="9919.710924" CO2_abs="629337.894043" HC_abs="59.973281" PMx_abs="11.202957" NOx_abs="258.166715" fuel_abs="270.525486" electricity_abs="0"/>
    </tripinfo>
    <tripinfo id="randUni15030:1" depart="57735.00" departLane="386687232#0_1" departPos="5.10" departSpeed="0.00" departDelay="0.10" arrival="57836.00" arrivalLane="26677539_1" arrivalPos="151.98" arrivalSpeed="6.74" duration="101.00" routeLength="919.89" waitingTime="0.00" waitingCount="0" stopTime="0.00" timeLoss="11.75" rerouteNo="1" devices="tripinfo_randUni15030:1 routing_randUni15030:1 emissions_randUni15030:1" vType="random_016" speedFactor="0.93" vaporized="">
        <emissions CO_abs="3646.218521" CO2_abs="207258.334217" HC_abs="21.395233" PMx_abs="3.345983" NOx_abs="83.151338" fuel_abs="89.092320" electricity_abs="0"/>
    </tripinfo>
    <tripinfo id="carIn46110:1" depart="57684.00" departLane="315358244_1" departPos="5.10" departSpeed="0.00" departDelay="1.20" arrival="57840.00" arrivalLane="32978638#0_1" arrivalPos="49.29" arrivalSpeed="14.70" duration="156.00" routeLength="1764.04" waitingTime="13.00" waitingCount="2" stopTime="0.00" timeLoss="35.55" rerouteNo="1" devices="tripinfo_carIn46110:1 routing_carIn46110:1 emissions_carIn46110:1" vType="default_016" speedFactor="1.07" vaporized="">
        <emissions CO_abs="5322.533908" CO2_abs="395012.042669" HC_abs="33.434361" PMx_abs="6.660878" NOx_abs="157.291030" fuel_abs="169.798831" electricity_abs="0"/>
    </tripinfo>
    <tripinfo id="carIn126378:1" depart="57746.00" departLane="386687232#0_1" departPos="5.10" departSpeed="0.00" departDelay="1.80" arrival="57840.00" arrivalLane="-315358244_2" arrivalPos="33.95" arrivalSpeed="15.93" duration="94.00" routeLength="1157.39" waitingTime="7.00" waitingCount="1" stopTime="0.00" timeLoss="24.13" rerouteNo="1" devices="tripinfo_carIn126378:1 routing_carIn126378:1 emissions_carIn126378:1" vType="default_016" speedFactor="1.22" vaporized="">
        <emissions CO_abs="3998.476293" CO2_abs="275825.344589" HC_abs="24.666594" PMx_abs="5.040010" NOx_abs="111.920555" fuel_abs="118.565237" electricity_abs="0"/>
    </tripinfo>
    <tripinfo id="carIn8642:1" depart="57774.00" departLane="-447569998#1_1" departPos="5.10" departSpeed="0.00" departDelay="0.90" arrival="57842.00" arrivalLane="-315358244_1" arrivalPos="33.95" arrivalSpeed="12.74" duration="68.00" routeLength="706.49" waitingTime="0.00" waitingCount="0" stopTime="0.00" timeLoss="6.51" rerouteNo="1" devices="tripinfo_carIn8642:1 routing_carIn8642:1 emissions_carIn8642:1" vType="default_016" speedFactor="0.99" vaporized="">
        <emissions CO_abs="1885.830848" CO2_abs="139807.809388" HC_abs="11.798929" PMx_abs="2.067092" NOx_abs="54.155103" fuel_abs="60.097826" electricity_abs="0"/>
    </tripinfo>
    <tripinfo id="h645c1:1" depart="57622.00" departLane="266565295#5_1" departPos="5.10" departSpeed="0.00" departDelay="0.40" arrival="57845.00" arrivalLane="-315358244_1" arrivalPos="33.95" arrivalSpeed="13.96" duration="223.00" routeLength="1910.83" waitingTime="67.00" waitingCount="2" stopTime="0.00" timeLoss="89.04" rerouteNo="1" devices="tripinfo_h645c1:1 routing_h645c1:1 emissions_h645c1:1" vType="default_016" speedFactor="1.04" vaporized="">
        <emissions CO_abs="14536.905260" CO2_abs="570729.037501" HC_abs="79.491264" PMx_abs="10.510027" NOx_abs="233.911095" fuel_abs="245.336493" electricity_abs="0"/>
    </tripinfo>
    <tripinfo id="carIn73855:1" depart="57743.00" departLane="386687232#0_1" departPos="5.10" departSpeed="0.00" departDelay="0.50" arrival="57846.00" arrivalLane="-315358244_2" arrivalPos="33.95" arrivalSpeed="13.69" duration="103.00" routeLength="1157.39" waitingTime="9.00" waitingCount="1" stopTime="0.00" timeLoss="22.41" rerouteNo="1" devices="tripinfo_carIn73855:1 routing_carIn73855:1 emissions_carIn73855:1" vType="default_016" speedFactor="1.05" vaporized="">
        <emissions CO_abs="4321.484086" CO2_abs="274472.455783" HC_abs="26.124549" PMx_abs="4.892950" NOx_abs="111.541672" fuel_abs="117.984082" electricity_abs="0"/>
    </tripinfo>
    <tripinfo id="50R_frequency3.17" depart="57674.00" departLane="-18809673#6_1" departPos="12.10" departSpeed="0.00" departDelay="0.70" arrival="57850.00" arrivalLane="201956811#0_1" arrivalPos="40.40" arrivalSpeed="12.57" duration="176.00" routeLength="1954.47" waitingTime="3.00" waitingCount="1" stopTime="0.00" timeLoss="31.19" rerouteNo="1" devices="tripinfo_50R_frequency3.17 routing_50R_frequency3.17 emissions_50R_frequency3.17" vType="bus" speedFactor="1.00" vaporized="">
        <emissions CO_abs="3465.460252" CO2_abs="2193253.271659" HC_abs="726.314265" PMx_abs="371.801097" NOx_abs="16962.397940" fuel_abs="935.402288" electricity_abs="0"/>
    </tripinfo>
    <tripinfo id="h3864c1:3" depart="57678.00" departLane="24693977#1_1" departPos="5.10" departSpeed="0.00" departDelay="0.00" arrival="57850.00" arrivalLane="201956820_1" arrivalPos="48.33" arrivalSpeed="12.41" duration="172.00" routeLength="1574.85" waitingTime="7.00" waitingCount="1" stopTime="0.00" timeLoss="36.22" rerouteNo="1" devices="tripinfo_h3864c1:3 routing_h3864c1:3 emissions_h3864c1:3" vType="default_016" speedFactor="0.95" vaporized="">
        <emissions CO_abs="7432.100359" CO2_abs="431948.548726" HC_abs="43.914194" PMx_abs="7.426523" NOx_abs="175.881478" fuel_abs="185.677128" electricity_abs="0"/>
    </tripinfo>
    <tripinfo id="carIn12152:1" depart="57647.00" departLane="24599188#0.94_1" departPos="5.10" departSpeed="0.00" departDelay="0.50" arrival="57857.00" arrivalLane="-315358254#1_1" arrivalPos="137.16" arrivalSpeed="12.67" duration="210.00" routeLength="2034.31" waitingTime="18.00" waitingCount="2" stopTime="0.00" timeLoss="41.49" rerouteNo="1" devices="tripinfo_carIn12152:1 routing_carIn12152:1 emissions_carIn12152:1" vType="default_016" speedFactor="0.94" vaporized="">
        <emissions CO_abs="8361.748066" CO2_abs="482504.801801" HC_abs="49.287358" PMx_abs="7.945015" NOx_abs="192.820749" fuel_abs="207.409939" electricity_abs="0"/>
    </tripinfo>