<?xml version="1.0" encoding="UTF-8"?>

<!-- generated on 2021-10-26 18:15:42 by Eclipse SUMO sumo Version 1.10.0
<configuration xmlns:xsi="http://www.w3.org/2001/XMLSchema-instance" xsi:noNamespaceSchemaLocation="http://sumo.dlr.de/xsd/sumoConfiguration.xsd">

    <input>
        <net-file value="/Users/behradkoohy/sumo-scratchpad/RESCO/environments/ingolstadt21/ingolstadt21.net.xml"/>
        <route-files value="/Users/behradkoohy/sumo-scratchpad/RESCO/environments/ingolstadt21/ingolstadt21.rou.xml"/>
    </input>

    <output>
        <tripinfo-output value="/Users/behradkoohy/sumo-scratchpad/RESCO/logs/IPPO-tr0-ingolstadt21-21-drq_norm-wait_norm/tripinfo_55.xml"/>
        <tripinfo-output.write-unfinished value="true"/>
    </output>

    <time>
        <begin value="57600"/>
        <end value="61200"/>
    </time>

    <processing>
        <time-to-teleport value="-1"/>
    </processing>

    <report>
        <no-warnings value="true"/>
        <no-step-log value="true"/>
    </report>

    <emissions>
        <device.emissions.probability value="1"/>
    </emissions>

    <traci_server>
        <remote-port value="62183"/>
    </traci_server>

    <random_number>
        <random value="true"/>
    </random_number>

</configuration>
-->

<tripinfos xmlns:xsi="http://www.w3.org/2001/XMLSchema-instance" xsi:noNamespaceSchemaLocation="http://sumo.dlr.de/xsd/tripinfo_file.xsd">
    <tripinfo id="h15454c2:3" depart="57612.00" departLane="24608844_1" departPos="5.10" departSpeed="0.00" departDelay="0.50" arrival="57666.00" arrivalLane="32978638#0_1" arrivalPos="49.29" arrivalSpeed="15.43" duration="54.00" routeLength="354.79" waitingTime="12.00" waitingCount="1" stopTime="0.00" timeLoss="23.47" rerouteNo="1" devices="tripinfo_h15454c2:3 routing_h15454c2:3 emissions_h15454c2:3" vType="default_016" speedFactor="1.12" vaporized="">
        <emissions CO_abs="3718.329091" CO2_abs="148343.042345" HC_abs="20.429943" PMx_abs="2.937452" NOx_abs="63.165789" fuel_abs="63.767026" electricity_abs="0"/>
    </tripinfo>
    <tripinfo id="carIn53971:1" depart="57640.00" departLane="272042143_1" departPos="5.10" departSpeed="0.00" departDelay="0.80" arrival="57692.00" arrivalLane="24634414#1_1" arrivalPos="162.19" arrivalSpeed="8.00" duration="52.00" routeLength="493.04" waitingTime="0.00" waitingCount="0" stopTime="0.00" timeLoss="7.61" rerouteNo="1" devices="tripinfo_carIn53971:1 routing_carIn53971:1 emissions_carIn53971:1" vType="default_016" speedFactor="1.05" vaporized="">
        <emissions CO_abs="2435.204658" CO2_abs="141060.674783" HC_abs="14.407622" PMx_abs="2.560757" NOx_abs="58.342978" fuel_abs="60.636049" electricity_abs="0"/>
    </tripinfo>
    <tripinfo id="carIn60260:1" depart="57606.00" departLane="315358254#0_1" departPos="5.10" departSpeed="0.00" departDelay="0.90" arrival="57700.00" arrivalLane="399835085#1_1" arrivalPos="212.23" arrivalSpeed="5.96" duration="94.00" routeLength="430.98" waitingTime="41.00" waitingCount="1" stopTime="0.00" timeLoss="53.04" rerouteNo="1" devices="tripinfo_carIn60260:1 routing_carIn60260:1 emissions_carIn60260:1" vType="default_016" speedFactor="1.12" vaporized="">
        <emissions CO_abs="8663.803615" CO2_abs="227735.040077" HC_abs="44.777545" PMx_abs="4.745960" NOx_abs="98.445767" fuel_abs="97.896796" electricity_abs="0"/>
    </tripinfo>
    <tripinfo id="h7800c1:5" depart="57696.00" departLane="-447569998#1_1" departPos="5.10" departSpeed="0.00" departDelay="0.00" arrival="57725.00" arrivalLane="-447569998#1_2" arrivalPos="180.76" arrivalSpeed="3.45" duration="29.00" routeLength="175.66" waitingTime="2.00" waitingCount="1" stopTime="0.00" timeLoss="9.05" rerouteNo="1" devices="tripinfo_h7800c1:5 routing_h7800c1:5 emissions_h7800c1:5" vType="default_016" speedFactor="1.07" vaporized="">
        <emissions CO_abs="1269.359100" CO2_abs="52244.108641" HC_abs="6.980992" PMx_abs="0.879841" NOx_abs="21.415161" fuel_abs="22.457937" electricity_abs="0"/>
    </tripinfo>
    <tripinfo id="h12244c1:3" depart="57612.00" departLane="315358244_1" departPos="5.10" departSpeed="0.00" departDelay="0.40" arrival="57727.00" arrivalLane="386687235_1" arrivalPos="80.84" arrivalSpeed="12.75" duration="115.00" routeLength="1186.14" waitingTime="15.00" waitingCount="1" stopTime="0.00" timeLoss="28.22" rerouteNo="1" devices="tripinfo_h12244c1:3 routing_h12244c1:3 emissions_h12244c1:3" vType="default_016" speedFactor="1.00" vaporized="">
        <emissions CO_abs="4916.503415" CO2_abs="274883.767155" HC_abs="28.765610" PMx_abs="4.642808" NOx_abs="110.016770" fuel_abs="118.161785" electricity_abs="0"/>
    </tripinfo>
    <tripinfo id="h3688c1:1" depart="57625.00" departLane="201201950#1_1" departPos="5.10" departSpeed="0.00" departDelay="0.00" arrival="57740.00" arrivalLane="32978638#0_1" arrivalPos="49.29" arrivalSpeed="14.75" duration="115.00" routeLength="1089.75" waitingTime="24.00" waitingCount="1" stopTime="0.00" timeLoss="41.15" rerouteNo="1" devices="tripinfo_h3688c1:1 routing_h3688c1:1 emissions_h3688c1:1" vType="default_016" speedFactor="1.08" vaporized="">
        <emissions CO_abs="7473.764811" CO2_abs="339712.770123" HC_abs="42.018770" PMx_abs="6.533500" NOx_abs="141.521873" fuel_abs="146.029176" electricity_abs="0"/>
    </tripinfo>
    <tripinfo id="carIn121703:1" depart="57647.00" departLane="386687232#0_1" departPos="5.10" departSpeed="0.00" departDelay="0.30" arrival="57740.00" arrivalLane="-315358244_1" arrivalPos="33.95" arrivalSpeed="14.63" duration="93.00" routeLength="1157.39" waitingTime="4.00" waitingCount="1" stopTime="0.00" timeLoss="16.31" rerouteNo="1" devices="tripinfo_carIn121703:1 routing_carIn121703:1 emissions_carIn121703:1" vType="default_016" speedFactor="1.09" vaporized="">
        <emissions CO_abs="3186.319617" CO2_abs="255302.472146" HC_abs="20.477088" PMx_abs="4.335128" NOx_abs="101.619477" fuel_abs="109.743408" electricity_abs="0"/>
    </tripinfo>
    <tripinfo id="h317c2:1" depart="57707.00" departLane="-32978638#0_1" departPos="5.10" departSpeed="0.00" departDelay="0.10" arrival="57740.00" arrivalLane="-266565295#5_1" arrivalPos="172.76" arrivalSpeed="13.18" duration="33.00" routeLength="370.53" waitingTime="0.00" waitingCount="0" stopTime="0.00" timeLoss="6.62" rerouteNo="1" devices="tripinfo_h317c2:1 routing_h317c2:1 emissions_h317c2:1" vType="default_016" speedFactor="1.04" vaporized="">
        <emissions CO_abs="1722.759271" CO2_abs="110965.684803" HC_abs="10.463047" PMx_abs="2.003933" NOx_abs="45.579508" fuel_abs="47.699356" electricity_abs="0"/>
    </tripinfo>
    <tripinfo id="S5R_frequency1.2" depart="57616.00" departLane="315358250#0_1" departPos="12.10" departSpeed="0.00" departDelay="4.40" arrival="57742.00" arrivalLane="386687235_1" arrivalPos="80.84" arrivalSpeed="13.45" duration="126.00" routeLength="1115.62" waitingTime="14.00" waitingCount="1" stopTime="0.00" timeLoss="44.50" rerouteNo="1" devices="tripinfo_S5R_frequency1.2 routing_S5R_frequency1.2 emissions_S5R_frequency1.2" vType="bus" speedFactor="1.00" vaporized="">
        <emissions CO_abs="2440.745680" CO2_abs="1408445.305309" HC_abs="521.951449" PMx_abs="258.925448" NOx_abs="11255.963583" fuel_abs="600.645908" electricity_abs="0"/>
    </tripinfo>
    <tripinfo id="h3568c1:3" depart="57656.00" departLane="266565295#5_1" departPos="5.10" departSpeed="0.00" departDelay="0.80" arrival="57745.00" arrivalLane="-24634415_1" arrivalPos="62.03" arrivalSpeed="12.85" duration="89.00" routeLength="807.40" waitingTime="1.00" waitingCount="1" stopTime="0.00" timeLoss="19.41" rerouteNo="1" devices="tripinfo_h3568c1:3 routing_h3568c1:3 emissions_h3568c1:3" vType="default_016" speedFactor="0.93" vaporized="">
        <emissions CO_abs="4451.284123" CO2_abs="249653.046194" HC_abs="26.120481" PMx_abs="4.445474" NOx_abs="102.784206" fuel_abs="107.315585" electricity_abs="0"/>
    </tripinfo>
    <tripinfo id="h3326c1:2" depart="57656.00" departLane="22716069#0_1" departPos="5.10" departSpeed="0.00" departDelay="0.00" arrival="57754.00" arrivalLane="24634517#13_1" arrivalPos="111.62" arrivalSpeed="16.03" duration="98.00" routeLength="1312.81" waitingTime="0.00" waitingCount="0" stopTime="0.00" timeLoss="14.72" rerouteNo="1" devices="tripinfo_h3326c1:2 routing_h3326c1:2 emissions_h3326c1:2" vType="default_016" speedFactor="1.17" vaporized="">
        <emissions CO_abs="4227.838900" CO2_abs="333246.581534" HC_abs="27.082049" PMx_abs="5.985676" NOx_abs="134.872011" fuel_abs="143.247727" electricity_abs="0"/>
    </tripinfo>
    <tripinfo id="h7181c1:1" depart="57660.00" departLane="315358254#0_1" departPos="5.10" departSpeed="0.00" departDelay="0.10" arrival="57755.00" arrivalLane="306240162#0_0" arrivalPos="220.43" arrivalSpeed="16.01" duration="95.00" routeLength="932.35" waitingTime="27.00" waitingCount="1" stopTime="0.00" timeLoss="44.86" rerouteNo="1" devices="tripinfo_h7181c1:1 routing_h7181c1:1 emissions_h7181c1:1" vType="default_016" speedFactor="1.03" vaporized="">
        <emissions CO_abs="8722.371635" CO2_abs="370435.322084" HC_abs="48.548778" PMx_abs="7.758245" NOx_abs="157.345386" fuel_abs="159.235228" electricity_abs="0"/>
    </tripinfo>
    <tripinfo id="carIn80064:1" depart="57603.00" departLane="128361109#1_1" departPos="5.10" departSpeed="0.00" departDelay="0.40" arrival="57758.00" arrivalLane="-315358254#1_1" arrivalPos="137.16" arrivalSpeed="12.25" duration="155.00" routeLength="1587.97" waitingTime="24.00" waitingCount="3" stopTime="0.00" timeLoss="54.27" rerouteNo="1" devices="tripinfo_carIn80064:1 routing_carIn80064:1 emissions_carIn80064:1" vType="default_016" speedFactor="0.88" vaporized="">
        <emissions CO_abs="8750.569779" CO2_abs="481164.733666" HC_abs="51.309980" PMx_abs="9.326982" NOx_abs="200.015929" fuel_abs="206.832244" electricity_abs="0"/>
    </tripinfo>
    <tripinfo id="carIn86816:1" depart="57617.00" departLane="128361102#0_1" departPos="5.10" departSpeed="0.00" departDelay="0.80" arrival="57764.00" arrivalLane="201956811#0_1" arrivalPos="40.40" arrivalSpeed="15.28" duration="147.00" routeLength="2067.33" waitingTime="0.00" waitingCount="0" stopTime="0.00" timeLoss="18.28" rerouteNo="1" devices="tripinfo_carIn86816:1 routing_carIn86816:1 emissions_carIn86816:1" vType="default_016" speedFactor="1.17" vaporized="">
        <emissions CO_abs="5410.157643" CO2_abs="457578.760282" HC_abs="35.248237" PMx_abs="8.110097" NOx_abs="183.683752" fuel_abs="196.692428" electricity_abs="0"/>
    </tripinfo>
    <tripinfo id="h330c1:1" depart="57736.00" departLane="-32978638#0_1" departPos="5.10" departSpeed="0.00" departDelay="0.20" arrival="57773.00" arrivalLane="-266565295#5_1" arrivalPos="172.76" arrivalSpeed="15.31" duration="37.00" routeLength="370.53" waitingTime="3.00" waitingCount="1" stopTime="0.00" timeLoss="12.29" rerouteNo="1" devices="tripinfo_h330c1:1 routing_h330c1:1 emissions_h330c1:1" vType="default_016" speedFactor="1.12" vaporized="">
        <emissions CO_abs="2225.465160" CO2_abs="130456.145816" HC_abs="13.229589" PMx_abs="2.477810" NOx_abs="54.362553" fuel_abs="56.077450" electricity_abs="0"/>
    </tripinfo>
    <tripinfo id="carIn30817:1" depart="57681.00" departLane="315358244_1" departPos="5.10" departSpeed="0.00" departDelay="0.20" arrival="57783.00" arrivalLane="447569997#1_1" arrivalPos="180.93" arrivalSpeed="7.30" duration="102.00" routeLength="718.04" waitingTime="20.00" waitingCount="2" stopTime="0.00" timeLoss="36.18" rerouteNo="1" devices="tripinfo_carIn30817:1 routing_carIn30817:1 emissions_carIn30817:1" vType="default_016" speedFactor="0.93" vaporized="">
        <emissions CO_abs="4563.098279" CO2_abs="204711.638606" HC_abs="25.560620" PMx_abs="3.714240" NOx_abs="84.794728" fuel_abs="87.997790" electricity_abs="0"/>
    </tripinfo>
    <tripinfo id="carIn107084:1" depart="57601.00" departLane="124812856#0_1" departPos="5.10" departSpeed="0.00" departDelay="0.70" arrival="57795.00" arrivalLane="-128361102#1_1" arrivalPos="274.68" arrivalSpeed="13.24" duration="194.00" routeLength="2250.49" waitingTime="4.00" waitingCount="1" stopTime="0.00" timeLoss="31.97" rerouteNo="1" devices="tripinfo_carIn107084:1 routing_carIn107084:1 emissions_carIn107084:1" vType="default_016" speedFactor="1.01" vaporized="">
        <emissions CO_abs="6810.162702" CO2_abs="526359.019733" HC_abs="43.327562" PMx_abs="8.889834" NOx_abs="210.601604" fuel_abs="226.258949" electricity_abs="0"/>
    </tripinfo>
    <tripinfo id="carIn28951:1" depart="57606.00" departLane="10425609#0_1" departPos="5.10" departSpeed="0.00" departDelay="0.20" arrival="57797.00" arrivalLane="-128361102#1_1" arrivalPos="274.68" arrivalSpeed="15.92" duration="191.00" routeLength="2095.01" waitingTime="29.00" waitingCount="1" stopTime="0.00" timeLoss="60.35" rerouteNo="1" devices="tripinfo_carIn28951:1 routing_carIn28951:1 emissions_carIn28951:1" vType="default_016" speedFactor="1.18" vaporized="">
        <emissions CO_abs="10821.228507" CO2_abs="580466.802360" HC_abs="62.972739" PMx_abs="11.091486" NOx_abs="240.406781" fuel_abs="249.518417" electricity_abs="0"/>
    </tripinfo>
    <tripinfo id="carIn12365:1" depart="57713.00" departLane="315358244_1" departPos="5.10" departSpeed="0.00" departDelay="0.50" arrival="57798.00" arrivalLane="447569997#1_1" arrivalPos="180.93" arrivalSpeed="9.07" duration="85.00" routeLength="718.04" waitingTime="12.00" waitingCount="2" stopTime="0.00" timeLoss="29.52" rerouteNo="1" devices="tripinfo_carIn12365:1 routing_carIn12365:1 emissions_carIn12365:1" vType="default_016" speedFactor="1.11" vaporized="">
        <emissions CO_abs="4133.677957" CO2_abs="222182.143618" HC_abs="23.952684" PMx_abs="3.887757" NOx_abs="90.430069" fuel_abs="95.507275" electricity_abs="0"/>
    </tripinfo>
    <tripinfo id="carIn50326:1" depart="57651.00" departLane="128361102#0_1" departPos="5.10" departSpeed="0.00" departDelay="0.30" arrival="57801.00" arrivalLane="18809673#0_1" arrivalPos="473.56" arrivalSpeed="14.48" duration="150.00" routeLength="1591.07" waitingTime="6.00" waitingCount="1" stopTime="0.00" timeLoss="25.45" rerouteNo="1" devices="tripinfo_carIn50326:1 routing_carIn50326:1 emissions_carIn50326:1" vType="default_016" speedFactor="1.04" vaporized="">
        <emissions CO_abs="4957.201610" CO2_abs="361720.079176" HC_abs="30.901461" PMx_abs="5.798417" NOx_abs="142.923537" fuel_abs="155.488476" electricity_abs="0"/>
    </tripinfo>
    <tripinfo id="h5979c1:5" depart="57669.00" departLane="399835085#1_1" departPos="5.10" departSpeed="0.00" departDelay="0.00" arrival="57801.00" arrivalLane="-315358254#1_1" arrivalPos="137.16" arrivalSpeed="13.97" duration="132.00" routeLength="659.33" waitingTime="46.00" waitingCount="1" stopTime="0.00" timeLoss="62.81" rerouteNo="1" devices="tripinfo_h5979c1:5 routing_h5979c1:5 emissions_h5979c1:5" vType="default_016" speedFactor="1.06" vaporized="">
        <emissions CO_abs="10388.778507" CO2_abs="304682.477882" HC_abs="54.393024" PMx_abs="5.969441" NOx_abs="129.419084" fuel_abs="130.973838" electricity_abs="0"/>
    </tripinfo>
    <tripinfo id="h9563c2:5" depart="57631.00" departLane="315358244_1" departPos="5.10" departSpeed="0.00" departDelay="0.70" arrival="57803.00" arrivalLane="386687235_1" arrivalPos="80.84" arrivalSpeed="14.52" duration="172.00" routeLength="1186.14" waitingTime="61.00" waitingCount="2" stopTime="0.00" timeLoss="92.31" rerouteNo="1" devices="tripinfo_h9563c2:5 routing_h9563c2:5 emissions_h9563c2:5" vType="default_016" speedFactor="1.09" vaporized="">
        <emissions CO_abs="13898.449806" CO2_abs="468203.309004" HC_abs="74.265072" PMx_abs="9.356999" NOx_abs="197.488340" fuel_abs="201.264738" electricity_abs="0"/>
    </tripinfo>
    <tripinfo id="carIn27009:1" depart="57673.00" departLane="-447569998#1_1" departPos="5.10" departSpeed="0.00" departDelay="0.50" arrival="57807.00" arrivalLane="-26677539_1" arrivalPos="152.75" arrivalSpeed="6.73" duration="134.00" routeLength="699.63" waitingTime="17.00" waitingCount="1" stopTime="0.00" timeLoss="33.69" rerouteNo="1" devices="tripinfo_carIn27009:1 routing_carIn27009:1 emissions_carIn27009:1" vType="default_015" speedFactor="0.83" vaporized="">
        <emissions CO_abs="7075.499987" CO2_abs="221067.126772" HC_abs="37.276205" PMx_abs="3.880712" NOx_abs="91.779601" fuel_abs="95.030323" electricity_abs="0"/>
    </tripinfo>
    <tripinfo id="carIn129809:1" depart="57729.00" departLane="-447569998#1_1" departPos="5.10" departSpeed="0.00" departDelay="1.00" arrival="57810.00" arrivalLane="-315358244_1" arrivalPos="33.95" arrivalSpeed="12.11" duration="81.00" routeLength="706.49" waitingTime="7.00" waitingCount="1" stopTime="0.00" timeLoss="17.00" rerouteNo="1" devices="tripinfo_carIn129809:1 routing_carIn129809:1 emissions_carIn129809:1" vType="default_015" speedFactor="0.95" vaporized="">
        <emissions CO_abs="3018.619129" CO2_abs="164812.284545" HC_abs="17.548122" PMx_abs="2.608029" NOx_abs="65.390802" fuel_abs="70.846633" electricity_abs="0"/>
    </tripinfo>
    <tripinfo id="h9953c2:3" depart="57682.00" departLane="-54169231#2_1" departPos="5.10" departSpeed="0.00" departDelay="0.00" arrival="57823.00" arrivalLane="386687235_1" arrivalPos="80.84" arrivalSpeed="16.37" duration="141.00" routeLength="1535.60" waitingTime="16.00" waitingCount="1" stopTime="0.00" timeLoss="39.47" rerouteNo="1" devices="tripinfo_h9953c2:3 routing_h9953c2:3 emissions_h9953c2:3" vType="default_016" speedFactor="1.24" vaporized="">
        <emissions CO_abs="8066.117947" CO2_abs="486948.950293" HC_abs="48.057665" PMx_abs="9.157199" NOx_abs="200.444293" fuel_abs="209.318358" electricity_abs="0"/>
    </tripinfo>
    <tripinfo id="h17600c1:1" depart="57662.00" departLane="272042143_1" departPos="5.10" departSpeed="0.00" departDelay="0.30" arrival="57829.00" arrivalLane="201238729#3_1" arrivalPos="431.02" arrivalSpeed="15.43" duration="167.00" routeLength="2100.26" waitingTime="11.00" waitingCount="1" stopTime="0.00" timeLoss="30.13" rerouteNo="1" devices="tripinfo_h17600c1:1 routing_h17600c1:1 emissions_h17600c1:1" vType="default_016" speedFactor="1.11" vaporized="">
        <emissions CO_abs="5324.174179" CO2_abs="421283.119531" HC_abs="33.873756" PMx_abs="6.952759" NOx_abs="165.349107" fuel_abs="181.091690" electricity_abs="0"/>
    </tripinfo>
    <tripinfo id="h3864c1:3" depart="57678.00" departLane="24693977#1_1" departPos="5.10" departSpeed="0.00" departDelay="0.00" arrival="57830.00" arrivalLane="201956820_1" arrivalPos="48.33" arrivalSpeed="13.37" duration="152.00" routeLength="1574.85" waitingTime="3.00" waitingCount="1" stopTime="0.00" timeLoss="24.95" rerouteNo="1" devices="tripinfo_h3864c1:3 routing_h3864c1:3 emissions_h3864c1:3" vType="default_016" speedFactor="1.02" vaporized="">
        <emissions CO_abs="5768.659163" CO2_abs="374330.038068" HC_abs="35.018564" PMx_abs="6.587991" NOx_abs="152.757003" fuel_abs="160.908524" electricity_abs="0"/>
    </tripinfo>
    <tripinfo id="randUni15030:1" depart="57735.00" departLane="386687232#0_1" departPos="5.10" departSpeed="0.00" departDelay="0.10" arrival="57832.00" arrivalLane="26677539_1" arrivalPos="151.98" arrivalSpeed="7.93" duration="97.00" routeLength="919.89" waitingTime="0.00" waitingCount="0" stopTime="0.00" timeLoss="12.31" rerouteNo="1" devices="tripinfo_randUni15030:1 routing_randUni15030:1 emissions_randUni15030:1" vType="random_016" speedFactor="0.99" vaporized="">
        <emissions CO_abs="3693.828201" CO2_abs="217540.678519" HC_abs="21.888993" PMx_abs="3.682896" NOx_abs="88.237332" fuel_abs="93.511941" electricity_abs="0"/>
    </tripinfo>
    <tripinfo id="h11737c1:1" depart="57665.00" departLane="272042143_1" departPos="5.10" departSpeed="0.00" departDelay="1.50" arrival="57837.00" arrivalLane="-315358254#1_1" arrivalPos="137.16" arrivalSpeed="11.24" duration="172.00" routeLength="1596.88" waitingTime="27.00" waitingCount="1" stopTime="0.00" timeLoss="42.92" rerouteNo="1" devices="tripinfo_h11737c1:1 routing_h11737c1:1 emissions_h11737c1:1" vType="default_016" speedFactor="0.90" vaporized="">
        <emissions CO_abs="8179.997779" CO2_abs="398375.700834" HC_abs="46.507761" PMx_abs="6.761011" NOx_abs="160.550922" fuel_abs="171.246910" electricity_abs="0"/>
    </tripinfo>
    <tripinfo id="50R_frequency3.17" depart="57674.00" departLane="-18809673#6_1" departPos="12.10" departSpeed="0.00" departDelay="0.70" arrival="57838.00" arrivalLane="201956811#0_1" arrivalPos="40.40" arrivalSpeed="11.90" duration="164.00" routeLength="1954.47" waitingTime="0.00" waitingCount="0" stopTime="0.00" timeLoss="19.10" rerouteNo="1" devices="tripinfo_50R_frequency3.17 routing_50R_frequency3.17 emissions_50R_frequency3.17" vType="bus" speedFactor="1.00" vaporized="">
        <emissions CO_abs="2986.152499" CO2_abs="1909327.642498" HC_abs="627.371880" PMx_abs="320.988536" NOx_abs="14711.063142" fuel_abs="814.319926" electricity_abs="0"/>
    </tripinfo>
    <tripinfo id="h645c1:1" depart="57622.00" departLane="266565295#5_1" departPos="5.10" departSpeed="0.00" departDelay="0.40" arrival="57839.00" arrivalLane="-315358244_1" arrivalPos="33.95" arrivalSpeed="12.55" duration="217.00" routeLength="1910.83" waitingTime="41.00" waitingCount="3" stopTime="0.00" timeLoss="66.06" rerouteNo="1" devices="tripinfo_h645c1:1 routing_h645c1:1 emissions_h645c1:1" vType="default_016" speedFactor="0.92" vaporized="">
        <emissions CO_abs="10564.506262" CO2_abs="489739.967867" HC_abs="59.544586" PMx_abs="8.701739" NOx_abs="200.190124" fuel_abs="210.520821" electricity_abs="0"/>
    </tripinfo>
    <tripinfo id="carIn126288:1" depart="57674.00" departLane="272042143_1" departPos="5.10" departSpeed="0.00" departDelay="0.00" arrival="57839.00" arrivalLane="-315358254#1_1" arrivalPos="137.16" arrivalSpeed="13.80" duration="165.00" routeLength="1596.88" waitingTime="24.00" waitingCount="1" stopTime="0.00" timeLoss="48.55" rerouteNo="1" devices="tripinfo_carIn126288:1 routing_carIn126288:1 emissions_carIn126288:1" vType="default_016" speedFactor="1.00" vaporized="">
        <emissions CO_abs="8208.497435" CO2_abs="432055.210926" HC_abs="47.417344" PMx_abs="7.506865" NOx_abs="174.738763" fuel_abs="185.723687" electricity_abs="0"/>
    </tripinfo>
    <tripinfo id="carIn12152:1" depart="57647.00" departLane="24599188#0.94_1" departPos="5.10" departSpeed="0.00" departDelay="0.50" arrival="57841.00" arrivalLane="-315358254#1_1" arrivalPos="137.16" arrivalSpeed="13.92" duration="194.00" routeLength="2034.31" waitingTime="18.00" waitingCount="2" stopTime="0.00" timeLoss="46.06" rerouteNo="1" devices="tripinfo_carIn12152:1 routing_carIn12152:1 emissions_carIn12152:1" vType="default_016" speedFactor="1.07" vaporized="">
        <emissions CO_abs="7529.597823" CO2_abs="483737.552662" HC_abs="45.469408" PMx_abs="8.100261" NOx_abs="192.673466" fuel_abs="207.939047" electricity_abs="0"/>
    </tripinfo>
    <tripinfo id="carIn118591:1" depart="57689.00" departLane="315358244_1" departPos="5.10" departSpeed="0.00" departDelay="0.20" arrival="57842.00" arrivalLane="386687235_1" arrivalPos="80.84" arrivalSpeed="11.38" duration="153.00" routeLength="1186.14" waitingTime="23.00" waitingCount="5" stopTime="0.00" timeLoss="49.62" rerouteNo="1" devices="tripinfo_carIn118591:1 routing_carIn118591:1 emissions_carIn118591:1" vType="default_016" speedFactor="0.84" vaporized="">
        <emissions CO_abs="6828.811248" CO2_abs="328465.139943" HC_abs="38.747115" PMx_abs="5.764336" NOx_abs="134.728117" fuel_abs="141.194622" electricity_abs="0"/>
    </tripinfo>
    <tripinfo id="carIn102915:1" depart="57643.00" departLane="128361102#0_1" departPos="5.10" departSpeed="0.00" departDelay="0.40" arrival="57846.00" arrivalLane="201956811#0_1" arrivalPos="40.40" arrivalSpeed="11.89" duration="203.00" routeLength="2067.33" waitingTime="5.00" waitingCount="1" stopTime="0.00" timeLoss="28.87" rerouteNo="1" devices="tripinfo_carIn102915:1 routing_carIn102915:1 emissions_carIn102915:1" vType="default_016" speedFactor="0.87" vaporized="">
        <emissions CO_abs="5764.245633" CO2_abs="415640.322691" HC_abs="35.881162" PMx_abs="6.488462" NOx_abs="164.080909" fuel_abs="178.666799" electricity_abs="0"/>
    </tripinfo>
    <tripinfo id="h3154c1:1" depart="57658.00" departLane="24634507_1" departPos="5.10" departSpeed="0.00" departDelay="0.00" arrival="57847.00" arrivalLane="-266565295#5_1" arrivalPos="172.76" arrivalSpeed="12.91" duration="189.00" routeLength="1206.22" waitingTime="72.00" waitingCount="3" stopTime="0.00" timeLoss="99.09" rerouteNo="1" devices="tripinfo_h3154c1:1 routing_h3154c1:1 emissions_h3154c1:1" vType="default_016" speedFactor="0.99" vaporized="">
        <emissions CO_abs="15366.092684" CO2_abs="496548.953118" HC_abs="81.660529" PMx_abs="10.102321" NOx_abs="212.009115" fuel_abs="213.449696" electricity_abs="0"/>
    </tripinfo>
    <tripinfo id="h4538c1:1" depart="57701.00" departLane="-10427692#1_1" departPos="5.10" departSpeed="0.00" departDelay="0.00" arrival="57849.00" arrivalLane="-128361102#1_1" arrivalPos="274.68" arrivalSpeed="12.58" duration="148.00" routeLength="440.74" waitingTime="102.00" waitingCount="1" stopTime="0.00" timeLoss="113.51" rerouteNo="1" devices="tripinfo_h4538c1:1 routing_h4538c1:1 emissions_h4538c1:1" vType="default_016" speedFactor="0.91" vaporized="">
        <emissions CO_abs="18300.551288" CO2_abs="376642.596089" HC_abs="92.168764" PMx_abs="8.579342" NOx_abs="167.014117" fuel_abs="161.910242" electricity_abs="0"/>
    </tripinfo>
    <tripinfo id="h2831c1:1" depart="57600.00" departLane="201089423#0_1" departPos="5.10" departSpeed="0.00" departDelay="0.00" arrival="57850.00" arrivalLane="-315358244_1" arrivalPos="33.95" arrivalSpeed="13.02" duration="250.00" routeLength="2672.18" waitingTime="33.00" waitingCount="1" stopTime="0.00" timeLoss="57.00" rerouteNo="1" devices="tripinfo_h2831c1:1 routing_h2831c1:1 emissions_h2831c1:1" vType="default_016" speedFactor="1.01" vaporized="">
        <emissions CO_abs="10563.104967" CO2_abs="577757.982408" HC_abs="61.511456" PMx_abs="9.979329" NOx_abs="232.281868" fuel_abs="248.355462" electricity_abs="0"/>
    </tripinfo>
    <tripinfo id="carIn73855:1" depart="57743.00" departLane="386687232#0_1" departPos="5.10" departSpeed="0.00" departDelay="0.50" arrival="57850.00" arrivalLane="-315358244_2" arrivalPos="33.95" arrivalSpeed="14.30" duration="107.00" routeLength="1157.39" waitingTime="16.00" waitingCount="1" stopTime="0.00" timeLoss="29.89" rerouteNo="1" devices="tripinfo_carIn73855:1 routing_carIn73855:1 emissions_carIn73855:1" vType="default_016" speedFactor="1.10" vaporized="">
        <emissions CO_abs="4528.084129" CO2_abs="268358.973792" HC_abs="26.825110" PMx_abs="4.570670" NOx_abs="106.775848" fuel_abs="115.356823" electricity_abs="0"/>
    </tripinfo>
    <tripinfo id="carIn12775:1" depart="57676.00" departLane="10425609#0_1" departPos="5.10" departSpeed="0.00" departDelay="0.60" arrival="57852.00" arrivalLane="18809673#0_1" arrivalPos="473.56" arrivalSpeed="13.37" duration="176.00" routeLength="1959.45" waitingTime="0.00" waitingCount="0" stopTime="0.00" timeLoss="33.01" rerouteNo="1" devices="tripinfo_carIn12775:1 routing_carIn12775:1 emissions_carIn12775:1" vType="default_016" speedFactor="1.03" vaporized="">
        <emissions CO_abs="5961.821224" CO2_abs="441599.041751" HC_abs="37.386794" PMx_abs="7.181124" NOx_abs="175.232519" fuel_abs="189.824900" electricity_abs="0"/>
    </tripinfo>
    <tripinfo id="h8343c1:5" depart="57679.00" departLane="315358254#0_1" departPos="5.10" departSpeed="0.00" departDelay="0.60" arrival="57854.00" arrivalLane="-24634510#5_1" arrivalPos="236.88" arrivalSpeed="11.16" duration="175.00" routeLength="2056.84" waitingTime="9.00" waitingCount="1" stopTime="0.00" timeLoss="31.97" rerouteNo="1" devices="tripinfo_h8343c1:5 routing_h8343c1:5 emissions_h8343c1:5" vType="default_016" speedFactor="0.87" vaporized="">
        <emissions CO_abs="7302.674274" CO2_abs="491148.298048" HC_abs="44.780041" PMx_abs="8.684433" NOx_abs="198.029242" fuel_abs="211.123700" electricity_abs="0"/>
    </tripinfo>
    <tripinfo id="carIn81860:1" depart="57712.00" departLane="128361102#0_1" departPos="5.10" departSpeed="0.00" departDelay="0.60" arrival="57857.00" arrivalLane="-24634517#17_1" arrivalPos="6.43" arrivalSpeed="8.10" duration="145.00" routeLength="1229.64" waitingTime="45.00" waitingCount="2" stopTime="0.00" timeLoss="63.96" rerouteNo="1" devices="tripinfo_carIn81860:1 routing_carIn81860:1 emissions_carIn81860:1" vType="default_016" speedFactor="1.13" vaporized="">
        <emissions CO_abs="10627.668328" CO2_abs="398965.290899" HC_abs="57.747539" PMx_abs="7.920537" NOx_abs="167.759967" fuel_abs="171.500714" electricity_abs="0"/>
    </tripinfo>
    <tripinfo id="carIn48184:1" depart="57613.00" departLane="-306240162#1_0" departPos="5.10" departSpeed="0.00" departDelay="0.70" arrival="57862.00" arrivalLane="386687235_1" arrivalPos="80.84" arrivalSpeed="12.23" duration="249.00" routeLength="2257.41" waitingTime="55.00" waitingCount="2" stopTime="0.00" timeLoss="93.07" rerouteNo="1" devices="tripinfo_carIn48184:1 routing_carIn48184:1 emissions_carIn48184:1" vType="default_016" speedFactor="0.95" vaporized="">
        <emissions CO_abs="15384.598919" CO2_abs="674072.107335" HC_abs="85.759658" PMx_abs="12.775215" NOx_abs="279.077410" fuel_abs="289.757921" electricity_abs="0"/>
    </tripinfo>
    <tripinfo id="randUni33724:1" depart="57646.00" departLane="128361102#0_1" departPos="5.10" departSpeed="0.00" departDelay="1.20" arrival="57862.00" arrivalLane="201956811#0_1" arrivalPos="40.40" arrivalSpeed="12.95" duration="216.00" routeLength="2067.33" waitingTime="14.00" waitingCount="2" stopTime="0.00" timeLoss="66.53" rerouteNo="1" devices="tripinfo_randUni33724:1 routing_randUni33724:1 emissions_randUni33724:1" vType="random_016" speedFactor="1.01" vaporized="">
        <emissions CO_abs="8647.578591" CO2_abs="515784.946769" HC_abs="51.456801" PMx_abs="9.065484" NOx_abs="210.875636" fuel_abs="221.714536" electricity_abs="0"/>
    </tripinfo>