<?xml version="1.0" encoding="UTF-8"?>

<!-- generated on 2021-10-26 18:10:11 by Eclipse SUMO sumo Version 1.10.0
<configuration xmlns:xsi="http://www.w3.org/2001/XMLSchema-instance" xsi:noNamespaceSchemaLocation="http://sumo.dlr.de/xsd/sumoConfiguration.xsd">

    <input>
        <net-file value="/Users/behradkoohy/sumo-scratchpad/RESCO/environments/ingolstadt21/ingolstadt21.net.xml"/>
        <route-files value="/Users/behradkoohy/sumo-scratchpad/RESCO/environments/ingolstadt21/ingolstadt21.rou.xml"/>
    </input>

    <output>
        <tripinfo-output value="/Users/behradkoohy/sumo-scratchpad/RESCO/logs/IPPO-tr0-ingolstadt21-21-drq_norm-wait_norm/tripinfo_48.xml"/>
        <tripinfo-output.write-unfinished value="true"/>
    </output>

    <time>
        <begin value="57600"/>
        <end value="61200"/>
    </time>

    <processing>
        <time-to-teleport value="-1"/>
    </processing>

    <report>
        <no-warnings value="true"/>
        <no-step-log value="true"/>
    </report>

    <emissions>
        <device.emissions.probability value="1"/>
    </emissions>

    <traci_server>
        <remote-port value="62109"/>
    </traci_server>

    <random_number>
        <random value="true"/>
    </random_number>

</configuration>
-->

<tripinfos xmlns:xsi="http://www.w3.org/2001/XMLSchema-instance" xsi:noNamespaceSchemaLocation="http://sumo.dlr.de/xsd/tripinfo_file.xsd">
    <tripinfo id="h15454c2:3" depart="57612.00" departLane="24608844_1" departPos="5.10" departSpeed="0.00" departDelay="0.50" arrival="57654.00" arrivalLane="32978638#0_1" arrivalPos="49.29" arrivalSpeed="12.86" duration="42.00" routeLength="354.79" waitingTime="0.00" waitingCount="0" stopTime="0.00" timeLoss="6.41" rerouteNo="1" devices="tripinfo_h15454c2:3 routing_h15454c2:3 emissions_h15454c2:3" vType="default_016" speedFactor="0.98" vaporized="">
        <emissions CO_abs="2242.269426" CO2_abs="120047.053583" HC_abs="13.011919" PMx_abs="2.105724" NOx_abs="49.399384" fuel_abs="51.603412" electricity_abs="0"/>
    </tripinfo>
    <tripinfo id="carIn60260:1" depart="57606.00" departLane="315358254#0_1" departPos="5.10" departSpeed="0.00" departDelay="0.90" arrival="57659.00" arrivalLane="399835085#1_1" arrivalPos="212.23" arrivalSpeed="7.99" duration="53.00" routeLength="430.98" waitingTime="0.00" waitingCount="0" stopTime="0.00" timeLoss="11.08" rerouteNo="1" devices="tripinfo_carIn60260:1 routing_carIn60260:1 emissions_carIn60260:1" vType="default_016" speedFactor="1.09" vaporized="">
        <emissions CO_abs="2443.333263" CO2_abs="123861.393919" HC_abs="14.023682" PMx_abs="2.238644" NOx_abs="51.499327" fuel_abs="53.243043" electricity_abs="0"/>
    </tripinfo>
    <tripinfo id="carIn53971:1" depart="57640.00" departLane="272042143_1" departPos="5.10" departSpeed="0.00" departDelay="0.80" arrival="57695.00" arrivalLane="24634414#1_1" arrivalPos="162.19" arrivalSpeed="7.97" duration="55.00" routeLength="493.04" waitingTime="0.00" waitingCount="0" stopTime="0.00" timeLoss="9.06" rerouteNo="1" devices="tripinfo_carIn53971:1 routing_carIn53971:1 emissions_carIn53971:1" vType="default_016" speedFactor="1.00" vaporized="">
        <emissions CO_abs="2653.231975" CO2_abs="151276.896194" HC_abs="15.611831" PMx_abs="2.610190" NOx_abs="61.784130" fuel_abs="65.027807" electricity_abs="0"/>
    </tripinfo>
    <tripinfo id="h12244c1:3" depart="57612.00" departLane="315358244_1" departPos="5.10" departSpeed="0.00" departDelay="0.40" arrival="57716.00" arrivalLane="386687235_1" arrivalPos="80.84" arrivalSpeed="14.60" duration="104.00" routeLength="1186.14" waitingTime="6.00" waitingCount="2" stopTime="0.00" timeLoss="22.04" rerouteNo="1" devices="tripinfo_h12244c1:3 routing_h12244c1:3 emissions_h12244c1:3" vType="default_016" speedFactor="1.06" vaporized="">
        <emissions CO_abs="3835.085389" CO2_abs="279767.683088" HC_abs="23.896786" PMx_abs="4.684877" NOx_abs="111.272599" fuel_abs="120.260280" electricity_abs="0"/>
    </tripinfo>
    <tripinfo id="h7800c1:5" depart="57696.00" departLane="-447569998#1_1" departPos="5.10" departSpeed="0.00" departDelay="0.00" arrival="57719.00" arrivalLane="-447569998#1_2" arrivalPos="180.76" arrivalSpeed="6.13" duration="23.00" routeLength="175.66" waitingTime="0.00" waitingCount="0" stopTime="0.00" timeLoss="3.81" rerouteNo="1" devices="tripinfo_h7800c1:5 routing_h7800c1:5 emissions_h7800c1:5" vType="default_016" speedFactor="1.11" vaporized="">
        <emissions CO_abs="1113.049310" CO2_abs="52612.294533" HC_abs="6.281655" PMx_abs="0.878005" NOx_abs="21.484344" fuel_abs="22.616082" electricity_abs="0"/>
    </tripinfo>
    <tripinfo id="S5R_frequency1.2" depart="57624.00" departLane="315358250#0_1" departPos="12.10" departSpeed="0.00" departDelay="12.40" arrival="57721.00" arrivalLane="386687235_1" arrivalPos="80.84" arrivalSpeed="12.90" duration="97.00" routeLength="1115.62" waitingTime="0.00" waitingCount="0" stopTime="0.00" timeLoss="15.50" rerouteNo="1" devices="tripinfo_S5R_frequency1.2 routing_S5R_frequency1.2 emissions_S5R_frequency1.2" vType="bus" speedFactor="1.00" vaporized="">
        <emissions CO_abs="1887.548232" CO2_abs="1179180.348202" HC_abs="400.675094" PMx_abs="202.428459" NOx_abs="9155.951821" fuel_abs="502.908784" electricity_abs="0"/>
    </tripinfo>
    <tripinfo id="carIn22761:1" depart="57616.00" departLane="-306240162#1_0" departPos="5.10" departSpeed="0.00" departDelay="2.10" arrival="57722.00" arrivalLane="399835085#1_1" arrivalPos="212.23" arrivalSpeed="6.00" duration="106.00" routeLength="1093.26" waitingTime="0.00" waitingCount="0" stopTime="0.00" timeLoss="15.24" rerouteNo="1" devices="tripinfo_carIn22761:1 routing_carIn22761:1 emissions_carIn22761:1" vType="default_016" speedFactor="0.86" vaporized="">
        <emissions CO_abs="4510.808653" CO2_abs="270294.485768" HC_abs="26.876285" PMx_abs="4.850348" NOx_abs="110.392932" fuel_abs="116.188283" electricity_abs="0"/>
    </tripinfo>
    <tripinfo id="h3688c1:1" depart="57625.00" departLane="201201950#1_1" departPos="5.10" departSpeed="0.00" departDelay="0.00" arrival="57722.00" arrivalLane="32978638#0_1" arrivalPos="49.29" arrivalSpeed="13.56" duration="97.00" routeLength="1089.75" waitingTime="1.00" waitingCount="1" stopTime="0.00" timeLoss="16.05" rerouteNo="1" devices="tripinfo_h3688c1:1 routing_h3688c1:1 emissions_h3688c1:1" vType="default_016" speedFactor="0.99" vaporized="">
        <emissions CO_abs="3875.786333" CO2_abs="289949.954276" HC_abs="24.431282" PMx_abs="4.778996" NOx_abs="115.481856" fuel_abs="124.637197" electricity_abs="0"/>
    </tripinfo>
    <tripinfo id="h9563c2:5" depart="57631.00" departLane="315358244_1" departPos="5.10" departSpeed="0.00" departDelay="0.70" arrival="57737.00" arrivalLane="386687235_1" arrivalPos="80.84" arrivalSpeed="13.90" duration="106.00" routeLength="1186.14" waitingTime="2.00" waitingCount="1" stopTime="0.00" timeLoss="20.79" rerouteNo="1" devices="tripinfo_h9563c2:5 routing_h9563c2:5 emissions_h9563c2:5" vType="default_016" speedFactor="1.02" vaporized="">
        <emissions CO_abs="4038.141644" CO2_abs="284047.005651" HC_abs="25.050168" PMx_abs="4.851441" NOx_abs="114.254717" fuel_abs="122.099712" electricity_abs="0"/>
    </tripinfo>
    <tripinfo id="carIn121703:1" depart="57647.00" departLane="386687232#0_1" departPos="5.10" departSpeed="0.00" departDelay="0.30" arrival="57743.00" arrivalLane="-315358244_1" arrivalPos="33.95" arrivalSpeed="14.63" duration="96.00" routeLength="1157.39" waitingTime="2.00" waitingCount="1" stopTime="0.00" timeLoss="16.34" rerouteNo="1" devices="tripinfo_carIn121703:1 routing_carIn121703:1 emissions_carIn121703:1" vType="default_016" speedFactor="1.06" vaporized="">
        <emissions CO_abs="3252.615563" CO2_abs="258666.511433" HC_abs="20.860763" PMx_abs="4.338470" NOx_abs="102.961011" fuel_abs="111.189532" electricity_abs="0"/>
    </tripinfo>
    <tripinfo id="carIn30817:1" depart="57681.00" departLane="315358244_1" departPos="5.10" departSpeed="0.00" departDelay="0.20" arrival="57752.00" arrivalLane="447569997#1_1" arrivalPos="180.93" arrivalSpeed="7.32" duration="71.00" routeLength="718.04" waitingTime="0.00" waitingCount="0" stopTime="0.00" timeLoss="7.35" rerouteNo="1" devices="tripinfo_carIn30817:1 routing_carIn30817:1 emissions_carIn30817:1" vType="default_016" speedFactor="0.96" vaporized="">
        <emissions CO_abs="2405.375165" CO2_abs="160295.564394" HC_abs="14.635293" PMx_abs="2.410722" NOx_abs="62.638509" fuel_abs="68.904816" electricity_abs="0"/>
    </tripinfo>
    <tripinfo id="carIn28951:1" depart="57606.00" departLane="10425609#0_1" departPos="5.10" departSpeed="0.00" departDelay="0.20" arrival="57767.00" arrivalLane="-128361102#1_1" arrivalPos="274.68" arrivalSpeed="14.51" duration="161.00" routeLength="2113.04" waitingTime="0.00" waitingCount="0" stopTime="0.00" timeLoss="18.31" rerouteNo="1" devices="tripinfo_carIn28951:1 routing_carIn28951:1 emissions_carIn28951:1" vType="default_016" speedFactor="1.08" vaporized="">
        <emissions CO_abs="5028.495841" CO2_abs="433268.681562" HC_abs="32.991627" PMx_abs="7.295199" NOx_abs="172.123341" fuel_abs="186.243083" electricity_abs="0"/>
    </tripinfo>
    <tripinfo id="h5979c1:5" depart="57669.00" departLane="399835085#1_1" departPos="5.10" departSpeed="0.00" departDelay="0.00" arrival="57769.00" arrivalLane="-315358254#1_1" arrivalPos="137.16" arrivalSpeed="13.11" duration="100.00" routeLength="659.33" waitingTime="6.00" waitingCount="1" stopTime="0.00" timeLoss="22.89" rerouteNo="1" devices="tripinfo_h5979c1:5 routing_h5979c1:5 emissions_h5979c1:5" vType="default_016" speedFactor="0.95" vaporized="">
        <emissions CO_abs="4178.581400" CO2_abs="185236.257688" HC_abs="23.302580" PMx_abs="3.145476" NOx_abs="75.936459" fuel_abs="79.626369" electricity_abs="0"/>
    </tripinfo>
    <tripinfo id="h4538c1:1" depart="57701.00" departLane="-10427692#1_1" departPos="5.10" departSpeed="0.00" departDelay="0.00" arrival="57771.00" arrivalLane="-128361102#1_1" arrivalPos="274.68" arrivalSpeed="15.19" duration="70.00" routeLength="440.74" waitingTime="33.00" waitingCount="1" stopTime="0.00" timeLoss="43.05" rerouteNo="1" devices="tripinfo_h4538c1:1 routing_h4538c1:1 emissions_h4538c1:1" vType="default_016" speedFactor="1.18" vaporized="">
        <emissions CO_abs="6221.955458" CO2_abs="192306.953784" HC_abs="32.811593" PMx_abs="3.990744" NOx_abs="82.044199" fuel_abs="82.666452" electricity_abs="0"/>
    </tripinfo>
    <tripinfo id="h3326c1:2" depart="57656.00" departLane="22716069#0_1" departPos="5.10" departSpeed="0.00" departDelay="0.00" arrival="57772.00" arrivalLane="24634517#13_1" arrivalPos="111.62" arrivalSpeed="12.52" duration="116.00" routeLength="1312.81" waitingTime="0.00" waitingCount="0" stopTime="0.00" timeLoss="15.34" rerouteNo="1" devices="tripinfo_h3326c1:2 routing_h3326c1:2 emissions_h3326c1:2" vType="default_016" speedFactor="0.97" vaporized="">
        <emissions CO_abs="4241.953218" CO2_abs="320133.622455" HC_abs="26.788008" PMx_abs="5.203570" NOx_abs="127.262483" fuel_abs="137.611932" electricity_abs="0"/>
    </tripinfo>
    <tripinfo id="h317c2:1" depart="57707.00" departLane="-32978638#0_1" departPos="5.10" departSpeed="0.00" departDelay="0.10" arrival="57773.00" arrivalLane="-266565295#5_1" arrivalPos="172.76" arrivalSpeed="14.38" duration="66.00" routeLength="370.53" waitingTime="31.00" waitingCount="1" stopTime="0.00" timeLoss="41.26" rerouteNo="1" devices="tripinfo_h317c2:1 routing_h317c2:1 emissions_h317c2:1" vType="default_016" speedFactor="1.09" vaporized="">
        <emissions CO_abs="6297.790019" CO2_abs="197599.112026" HC_abs="33.344602" PMx_abs="4.110857" NOx_abs="84.733460" fuel_abs="84.941254" electricity_abs="0"/>
    </tripinfo>
    <tripinfo id="h3568c1:3" depart="57656.00" departLane="266565295#5_1" departPos="5.10" departSpeed="0.00" departDelay="0.80" arrival="57777.00" arrivalLane="-24634415_1" arrivalPos="62.03" arrivalSpeed="12.98" duration="121.00" routeLength="807.40" waitingTime="35.00" waitingCount="1" stopTime="0.00" timeLoss="52.36" rerouteNo="1" devices="tripinfo_h3568c1:3 routing_h3568c1:3 emissions_h3568c1:3" vType="default_016" speedFactor="0.94" vaporized="">
        <emissions CO_abs="9593.622911" CO2_abs="330757.039119" HC_abs="51.442233" PMx_abs="6.497496" NOx_abs="140.040329" fuel_abs="142.181100" electricity_abs="0"/>
    </tripinfo>
    <tripinfo id="h330c1:1" depart="57736.00" departLane="-32978638#0_1" departPos="5.10" departSpeed="0.00" departDelay="0.20" arrival="57781.00" arrivalLane="-266565295#5_1" arrivalPos="172.76" arrivalSpeed="11.78" duration="45.00" routeLength="370.53" waitingTime="3.00" waitingCount="1" stopTime="0.00" timeLoss="12.80" rerouteNo="1" devices="tripinfo_h330c1:1 routing_h330c1:1 emissions_h330c1:1" vType="default_016" speedFactor="0.86" vaporized="">
        <emissions CO_abs="2284.547311" CO2_abs="118266.457652" HC_abs="13.163821" PMx_abs="2.085517" NOx_abs="48.663140" fuel_abs="50.838061" electricity_abs="0"/>
    </tripinfo>
    <tripinfo id="carIn27009:1" depart="57673.00" departLane="-447569998#1_1" departPos="5.10" departSpeed="0.00" departDelay="0.50" arrival="57783.00" arrivalLane="-26677539_1" arrivalPos="152.75" arrivalSpeed="7.20" duration="110.00" routeLength="699.63" waitingTime="0.00" waitingCount="0" stopTime="0.00" timeLoss="15.33" rerouteNo="1" devices="tripinfo_carIn27009:1 routing_carIn27009:1 emissions_carIn27009:1" vType="default_015" speedFactor="0.88" vaporized="">
        <emissions CO_abs="4875.146363" CO2_abs="197581.308530" HC_abs="26.707601" PMx_abs="3.184893" NOx_abs="80.300576" fuel_abs="84.933636" electricity_abs="0"/>
    </tripinfo>
    <tripinfo id="h645c1:1" depart="57622.00" departLane="266565295#5_1" departPos="5.10" departSpeed="0.00" departDelay="0.40" arrival="57793.00" arrivalLane="-315358244_1" arrivalPos="33.95" arrivalSpeed="15.08" duration="171.00" routeLength="1910.83" waitingTime="24.00" waitingCount="2" stopTime="0.00" timeLoss="45.25" rerouteNo="1" devices="tripinfo_h645c1:1 routing_h645c1:1 emissions_h645c1:1" vType="default_016" speedFactor="1.11" vaporized="">
        <emissions CO_abs="6783.635279" CO2_abs="428700.520649" HC_abs="40.833252" PMx_abs="7.441728" NOx_abs="171.548820" fuel_abs="184.280653" electricity_abs="0"/>
    </tripinfo>
    <tripinfo id="carIn129809:1" depart="57729.00" departLane="-447569998#1_1" departPos="5.10" departSpeed="0.00" departDelay="1.00" arrival="57798.00" arrivalLane="-315358244_1" arrivalPos="33.95" arrivalSpeed="12.99" duration="69.00" routeLength="706.49" waitingTime="0.00" waitingCount="0" stopTime="0.00" timeLoss="8.31" rerouteNo="1" devices="tripinfo_carIn129809:1 routing_carIn129809:1 emissions_carIn129809:1" vType="default_015" speedFactor="1.00" vaporized="">
        <emissions CO_abs="2399.105957" CO2_abs="153737.481289" HC_abs="14.483645" PMx_abs="2.420628" NOx_abs="60.811672" fuel_abs="66.085663" electricity_abs="0"/>
    </tripinfo>
    <tripinfo id="carIn80064:1" depart="57603.00" departLane="128361109#1_1" departPos="5.10" departSpeed="0.00" departDelay="0.40" arrival="57800.00" arrivalLane="-315358254#1_1" arrivalPos="137.16" arrivalSpeed="10.77" duration="197.00" routeLength="1587.97" waitingTime="48.00" waitingCount="2" stopTime="0.00" timeLoss="82.40" rerouteNo="1" devices="tripinfo_carIn80064:1 routing_carIn80064:1 emissions_carIn80064:1" vType="default_016" speedFactor="0.79" vaporized="">
        <emissions CO_abs="13338.998909" CO2_abs="542364.255512" HC_abs="73.431304" PMx_abs="10.504978" NOx_abs="226.828682" fuel_abs="233.142134" electricity_abs="0"/>
    </tripinfo>
    <tripinfo id="carIn12365:1" depart="57713.00" departLane="315358244_1" departPos="5.10" departSpeed="0.00" departDelay="0.50" arrival="57800.00" arrivalLane="447569997#1_1" arrivalPos="180.93" arrivalSpeed="8.45" duration="87.00" routeLength="718.04" waitingTime="10.00" waitingCount="2" stopTime="0.00" timeLoss="27.20" rerouteNo="1" devices="tripinfo_carIn12365:1 routing_carIn12365:1 emissions_carIn12365:1" vType="default_016" speedFactor="1.02" vaporized="">
        <emissions CO_abs="3785.393348" CO2_abs="202178.599063" HC_abs="21.949173" PMx_abs="3.487218" NOx_abs="82.046911" fuel_abs="86.908645" electricity_abs="0"/>
    </tripinfo>
    <tripinfo id="carIn81046:1" depart="57611.00" departLane="124812856#0_1" departPos="5.10" departSpeed="0.00" departDelay="2.50" arrival="57804.00" arrivalLane="-128361102#1_1" arrivalPos="274.68" arrivalSpeed="14.64" duration="193.00" routeLength="2250.49" waitingTime="14.00" waitingCount="2" stopTime="0.00" timeLoss="41.24" rerouteNo="1" devices="tripinfo_carIn81046:1 routing_carIn81046:1 emissions_carIn81046:1" vType="default_016" speedFactor="1.09" vaporized="">
        <emissions CO_abs="7830.140144" CO2_abs="527199.438662" HC_abs="47.917811" PMx_abs="9.296699" NOx_abs="212.984765" fuel_abs="226.620499" electricity_abs="0"/>
    </tripinfo>
    <tripinfo id="h3154c1:1" depart="57658.00" departLane="24634507_1" departPos="5.10" departSpeed="0.00" departDelay="0.00" arrival="57813.00" arrivalLane="-266565295#5_1" arrivalPos="172.76" arrivalSpeed="10.70" duration="155.00" routeLength="1206.22" waitingTime="18.00" waitingCount="2" stopTime="0.00" timeLoss="40.58" rerouteNo="1" devices="tripinfo_h3154c1:1 routing_h3154c1:1 emissions_h3154c1:1" vType="default_016" speedFactor="0.78" vaporized="">
        <emissions CO_abs="6458.326948" CO2_abs="320601.519538" HC_abs="36.857473" PMx_abs="5.518049" NOx_abs="131.126470" fuel_abs="137.814307" electricity_abs="0"/>
    </tripinfo>
    <tripinfo id="h11737c1:1" depart="57665.00" departLane="272042143_1" departPos="5.10" departSpeed="0.00" departDelay="1.50" arrival="57818.00" arrivalLane="-315358254#1_1" arrivalPos="137.16" arrivalSpeed="12.14" duration="153.00" routeLength="1596.88" waitingTime="2.00" waitingCount="1" stopTime="0.00" timeLoss="22.45" rerouteNo="1" devices="tripinfo_h11737c1:1 routing_h11737c1:1 emissions_h11737c1:1" vType="default_016" speedFactor="0.89" vaporized="">
        <emissions CO_abs="4579.132170" CO2_abs="337958.412742" HC_abs="28.686623" PMx_abs="5.255766" NOx_abs="133.090442" fuel_abs="145.274478" electricity_abs="0"/>
    </tripinfo>
    <tripinfo id="carIn126288:1" depart="57674.00" departLane="272042143_1" departPos="5.10" departSpeed="0.00" departDelay="0.00" arrival="57819.00" arrivalLane="-315358254#1_1" arrivalPos="137.16" arrivalSpeed="14.94" duration="145.00" routeLength="1596.88" waitingTime="2.00" waitingCount="1" stopTime="0.00" timeLoss="36.87" rerouteNo="1" devices="tripinfo_carIn126288:1 routing_carIn126288:1 emissions_carIn126288:1" vType="default_016" speedFactor="1.08" vaporized="">
        <emissions CO_abs="5048.298413" CO2_abs="361494.498279" HC_abs="31.450717" PMx_abs="6.102898" NOx_abs="145.216112" fuel_abs="155.391094" electricity_abs="0"/>
    </tripinfo>
    <tripinfo id="carIn107282:1" depart="57749.00" departLane="-447569998#1_1" departPos="5.10" departSpeed="0.00" departDelay="0.00" arrival="57819.00" arrivalLane="315358242#0_1" arrivalPos="165.37" arrivalSpeed="10.93" duration="70.00" routeLength="448.50" waitingTime="13.00" waitingCount="1" stopTime="0.00" timeLoss="22.22" rerouteNo="1" devices="tripinfo_carIn107282:1 routing_carIn107282:1 emissions_carIn107282:1" vType="default_016" speedFactor="0.88" vaporized="">
        <emissions CO_abs="3573.893228" CO2_abs="128791.083093" HC_abs="19.261562" PMx_abs="2.352304" NOx_abs="53.614353" fuel_abs="55.362975" electricity_abs="0"/>
    </tripinfo>
    <tripinfo id="carIn81860:1" depart="57712.00" departLane="128361102#0_1" departPos="5.10" departSpeed="0.00" departDelay="0.60" arrival="57824.00" arrivalLane="-24634517#17_1" arrivalPos="6.43" arrivalSpeed="7.67" duration="112.00" routeLength="1229.64" waitingTime="6.00" waitingCount="1" stopTime="0.00" timeLoss="24.80" rerouteNo="1" devices="tripinfo_carIn81860:1 routing_carIn81860:1 emissions_carIn81860:1" vType="default_016" speedFactor="1.03" vaporized="">
        <emissions CO_abs="4098.510569" CO2_abs="287947.233321" HC_abs="25.337000" PMx_abs="4.844002" NOx_abs="115.124656" fuel_abs="123.776381" electricity_abs="0"/>
    </tripinfo>
    <tripinfo id="randUni14624:1" depart="57606.00" departLane="315358244_1" departPos="5.10" departSpeed="0.00" departDelay="0.80" arrival="57825.00" arrivalLane="-25149001#4_1" arrivalPos="105.67" arrivalSpeed="9.28" duration="219.00" routeLength="2803.98" waitingTime="11.00" waitingCount="3" stopTime="0.00" timeLoss="43.51" rerouteNo="1" devices="tripinfo_randUni14624:1 routing_randUni14624:1 emissions_randUni14624:1" vType="random_016" speedFactor="1.20" vaporized="">
        <emissions CO_abs="7869.312127" CO2_abs="617061.169720" HC_abs="50.062502" PMx_abs="10.820167" NOx_abs="246.689972" fuel_abs="265.247395" electricity_abs="0"/>
    </tripinfo>
    <tripinfo id="carIn86816:1" depart="57617.00" departLane="128361102#0_1" departPos="5.10" departSpeed="0.00" departDelay="0.80" arrival="57827.00" arrivalLane="201956811#0_1" arrivalPos="40.40" arrivalSpeed="16.25" duration="210.00" routeLength="2067.33" waitingTime="49.00" waitingCount="3" stopTime="0.00" timeLoss="80.82" rerouteNo="1" devices="tripinfo_carIn86816:1 routing_carIn86816:1 emissions_carIn86816:1" vType="default_016" speedFactor="1.18" vaporized="">
        <emissions CO_abs="13204.002505" CO2_abs="612379.331669" HC_abs="74.238020" PMx_abs="11.630239" NOx_abs="252.424245" fuel_abs="263.237942" electricity_abs="0"/>
    </tripinfo>
    <tripinfo id="carIn107084:1" depart="57601.00" departLane="124812856#0_1" departPos="5.10" departSpeed="0.00" departDelay="0.70" arrival="57828.00" arrivalLane="-128361102#1_1" arrivalPos="274.68" arrivalSpeed="11.88" duration="227.00" routeLength="2250.49" waitingTime="15.00" waitingCount="2" stopTime="0.00" timeLoss="42.76" rerouteNo="1" devices="tripinfo_carIn107084:1 routing_carIn107084:1 emissions_carIn107084:1" vType="default_016" speedFactor="0.89" vaporized="">
        <emissions CO_abs="8111.947803" CO2_abs="501864.414905" HC_abs="48.618997" PMx_abs="8.281914" NOx_abs="201.142987" fuel_abs="215.731303" electricity_abs="0"/>
    </tripinfo>
    <tripinfo id="h3864c1:3" depart="57678.00" departLane="24693977#1_1" departPos="5.10" departSpeed="0.00" departDelay="0.00" arrival="57829.00" arrivalLane="201956820_1" arrivalPos="48.33" arrivalSpeed="13.72" duration="151.00" routeLength="1574.85" waitingTime="7.00" waitingCount="1" stopTime="0.00" timeLoss="31.12" rerouteNo="1" devices="tripinfo_h3864c1:3 routing_h3864c1:3 emissions_h3864c1:3" vType="default_016" speedFactor="1.07" vaporized="">
        <emissions CO_abs="6747.366974" CO2_abs="426937.331656" HC_abs="40.756231" PMx_abs="7.701462" NOx_abs="175.258992" fuel_abs="183.522036" electricity_abs="0"/>
    </tripinfo>
    <tripinfo id="h19804c1:3" depart="57617.00" departLane="124812856#0_1" departPos="5.10" departSpeed="0.00" departDelay="1.50" arrival="57830.00" arrivalLane="-128361102#1_1" arrivalPos="274.68" arrivalSpeed="12.80" duration="213.00" routeLength="2250.49" waitingTime="1.00" waitingCount="1" stopTime="0.00" timeLoss="45.15" rerouteNo="1" devices="tripinfo_h19804c1:3 routing_h19804c1:3 emissions_h19804c1:3" vType="default_016" speedFactor="0.98" vaporized="">
        <emissions CO_abs="7850.675598" CO2_abs="540524.318554" HC_abs="48.410561" PMx_abs="9.205124" NOx_abs="218.527711" fuel_abs="232.348440" electricity_abs="0"/>
    </tripinfo>
    <tripinfo id="carIn50326:1" depart="57651.00" departLane="128361102#0_1" departPos="5.10" departSpeed="0.00" departDelay="0.30" arrival="57832.00" arrivalLane="18809673#0_1" arrivalPos="473.56" arrivalSpeed="11.00" duration="181.00" routeLength="1591.07" waitingTime="5.00" waitingCount="1" stopTime="0.00" timeLoss="30.04" rerouteNo="1" devices="tripinfo_carIn50326:1 routing_carIn50326:1 emissions_carIn50326:1" vType="default_016" speedFactor="0.86" vaporized="">
        <emissions CO_abs="6528.847979" CO2_abs="362969.080094" HC_abs="38.100370" PMx_abs="5.757824" NOx_abs="144.775669" fuel_abs="156.026629" electricity_abs="0"/>
    </tripinfo>
    <tripinfo id="carIn118591:1" depart="57689.00" departLane="315358244_1" departPos="5.10" departSpeed="0.00" departDelay="0.20" arrival="57832.00" arrivalLane="386687235_1" arrivalPos="80.84" arrivalSpeed="14.09" duration="143.00" routeLength="1186.14" waitingTime="39.00" waitingCount="3" stopTime="0.00" timeLoss="59.24" rerouteNo="1" devices="tripinfo_carIn118591:1 routing_carIn118591:1 emissions_carIn118591:1" vType="default_016" speedFactor="1.03" vaporized="">
        <emissions CO_abs="7644.862419" CO2_abs="311896.806807" HC_abs="42.125338" PMx_abs="5.807722" NOx_abs="128.567473" fuel_abs="134.073169" electricity_abs="0"/>
    </tripinfo>
    <tripinfo id="randUni31145:1" depart="57814.00" departLane="10425609#0_1" departPos="5.10" departSpeed="0.00" departDelay="0.30" arrival="57843.00" arrivalLane="201956810_1" arrivalPos="71.65" arrivalSpeed="14.44" duration="29.00" routeLength="255.78" waitingTime="0.00" waitingCount="0" stopTime="0.00" timeLoss="10.61" rerouteNo="1" devices="tripinfo_randUni31145:1 routing_randUni31145:1 emissions_randUni31145:1" vType="random_016" speedFactor="1.12" vaporized="">
        <emissions CO_abs="2303.969181" CO2_abs="124062.518586" HC_abs="13.439771" PMx_abs="2.432485" NOx_abs="52.487961" fuel_abs="53.329119" electricity_abs="0"/>
    </tripinfo>
    <tripinfo id="h17549c1:1" depart="57680.00" departLane="-447569998#1_1" departPos="5.10" departSpeed="0.00" departDelay="0.00" arrival="57847.00" arrivalLane="-315358254#1_1" arrivalPos="137.16" arrivalSpeed="12.11" duration="167.00" routeLength="1746.60" waitingTime="0.00" waitingCount="0" stopTime="0.00" timeLoss="15.88" rerouteNo="1" devices="tripinfo_h17549c1:1 routing_h17549c1:1 emissions_h17549c1:1" vType="default_016" speedFactor="0.91" vaporized="">
        <emissions CO_abs="4441.771906" CO2_abs="338633.174820" HC_abs="28.013675" PMx_abs="4.905618" NOx_abs="130.895074" fuel_abs="145.564969" electricity_abs="0"/>
    </tripinfo>
    <tripinfo id="randUni2407:1" depart="57820.00" departLane="10425609#0_1" departPos="5.10" departSpeed="0.00" departDelay="0.80" arrival="57848.00" arrivalLane="201956810_1" arrivalPos="71.65" arrivalSpeed="12.26" duration="28.00" routeLength="255.78" waitingTime="0.00" waitingCount="0" stopTime="0.00" timeLoss="6.16" rerouteNo="1" devices="tripinfo_randUni2407:1 routing_randUni2407:1 emissions_randUni2407:1" vType="random_016" speedFactor="0.94" vaporized="">
        <emissions CO_abs="1668.960986" CO2_abs="92812.831708" HC_abs="9.778051" PMx_abs="1.678504" NOx_abs="38.480044" fuel_abs="39.896384" electricity_abs="0"/>
    </tripinfo>
    <tripinfo id="h7181c1:1" depart="57660.00" departLane="315358254#0_1" departPos="5.10" departSpeed="0.00" departDelay="0.10" arrival="57850.00" arrivalLane="306240162#0_0" arrivalPos="220.43" arrivalSpeed="16.99" duration="190.00" routeLength="932.35" waitingTime="113.00" waitingCount="3" stopTime="0.00" timeLoss="140.50" rerouteNo="1" devices="tripinfo_h7181c1:1 routing_h7181c1:1 emissions_h7181c1:1" vType="default_016" speedFactor="1.04" vaporized="">
        <emissions CO_abs="21519.146216" CO2_abs="596318.836092" HC_abs="112.136672" PMx_abs="13.220849" NOx_abs="260.174948" fuel_abs="256.338521" electricity_abs="0"/>
    </tripinfo>
    <tripinfo id="50R_frequency3.17" depart="57674.00" departLane="-18809673#6_1" departPos="12.10" departSpeed="0.00" departDelay="0.70" arrival="57852.00" arrivalLane="201956811#0_1" arrivalPos="40.40" arrivalSpeed="12.40" duration="178.00" routeLength="1954.47" waitingTime="5.00" waitingCount="1" stopTime="0.00" timeLoss="33.43" rerouteNo="1" devices="tripinfo_50R_frequency3.17 routing_50R_frequency3.17 emissions_50R_frequency3.17" vType="bus" speedFactor="1.00" vaporized="">
        <emissions CO_abs="3506.264040" CO2_abs="2237990.296053" HC_abs="724.020873" PMx_abs="375.981789" NOx_abs="17269.649415" fuel_abs="954.478251" electricity_abs="0"/>
    </tripinfo>
    <tripinfo id="h17600c1:1" depart="57662.00" departLane="272042143_1" departPos="5.10" departSpeed="0.00" departDelay="0.30" arrival="57853.00" arrivalLane="201238729#3_1" arrivalPos="431.02" arrivalSpeed="12.23" duration="191.00" routeLength="2100.26" waitingTime="12.00" waitingCount="2" stopTime="0.00" timeLoss="35.42" rerouteNo="1" devices="tripinfo_h17600c1:1 routing_h17600c1:1 emissions_h17600c1:1" vType="default_016" speedFactor="0.97" vaporized="">
        <emissions CO_abs="5312.258013" CO2_abs="416671.639166" HC_abs="33.882924" PMx_abs="6.541033" NOx_abs="163.264966" fuel_abs="179.109816" electricity_abs="0"/>
    </tripinfo>
    <tripinfo id="carIn82278:1" depart="57702.00" departLane="-306240162#1_0" departPos="5.10" departSpeed="0.00" departDelay="0.70" arrival="57855.00" arrivalLane="399835085#1_1" arrivalPos="212.23" arrivalSpeed="7.20" duration="153.00" routeLength="1093.26" waitingTime="47.00" waitingCount="2" stopTime="0.00" timeLoss="72.33" rerouteNo="1" devices="tripinfo_carIn82278:1 routing_carIn82278:1 emissions_carIn82278:1" vType="default_016" speedFactor="0.97" vaporized="">
        <emissions CO_abs="12149.650386" CO2_abs="436220.230636" HC_abs="65.585420" PMx_abs="8.797209" NOx_abs="184.611153" fuel_abs="187.515480" electricity_abs="0"/>
    </tripinfo>
    <tripinfo id="carIn102915:1" depart="57643.00" departLane="128361102#0_1" departPos="5.10" departSpeed="0.00" departDelay="0.40" arrival="57856.00" arrivalLane="201956811#0_1" arrivalPos="40.40" arrivalSpeed="11.80" duration="213.00" routeLength="2067.33" waitingTime="13.00" waitingCount="1" stopTime="0.00" timeLoss="38.37" rerouteNo="1" devices="tripinfo_carIn102915:1 routing_carIn102915:1 emissions_carIn102915:1" vType="default_016" speedFactor="0.86" vaporized="">
        <emissions CO_abs="7139.466272" CO2_abs="437356.764000" HC_abs="42.656042" PMx_abs="7.073128" NOx_abs="174.576406" fuel_abs="188.002319" electricity_abs="0"/>
    </tripinfo>