<?xml version="1.0" encoding="UTF-8"?>

<!-- generated on 2021-10-26 18:04:43 by Eclipse SUMO sumo Version 1.10.0
<configuration xmlns:xsi="http://www.w3.org/2001/XMLSchema-instance" xsi:noNamespaceSchemaLocation="http://sumo.dlr.de/xsd/sumoConfiguration.xsd">

    <input>
        <net-file value="/Users/behradkoohy/sumo-scratchpad/RESCO/environments/ingolstadt21/ingolstadt21.net.xml"/>
        <route-files value="/Users/behradkoohy/sumo-scratchpad/RESCO/environments/ingolstadt21/ingolstadt21.rou.xml"/>
    </input>

    <output>
        <tripinfo-output value="/Users/behradkoohy/sumo-scratchpad/RESCO/logs/IPPO-tr0-ingolstadt21-21-drq_norm-wait_norm/tripinfo_41.xml"/>
        <tripinfo-output.write-unfinished value="true"/>
    </output>

    <time>
        <begin value="57600"/>
        <end value="61200"/>
    </time>

    <processing>
        <time-to-teleport value="-1"/>
    </processing>

    <report>
        <no-warnings value="true"/>
        <no-step-log value="true"/>
    </report>

    <emissions>
        <device.emissions.probability value="1"/>
    </emissions>

    <traci_server>
        <remote-port value="61989"/>
    </traci_server>

    <random_number>
        <random value="true"/>
    </random_number>

</configuration>
-->

<tripinfos xmlns:xsi="http://www.w3.org/2001/XMLSchema-instance" xsi:noNamespaceSchemaLocation="http://sumo.dlr.de/xsd/tripinfo_file.xsd">
    <tripinfo id="h15454c2:3" depart="57612.00" departLane="24608844_1" departPos="5.10" departSpeed="0.00" departDelay="0.50" arrival="57657.00" arrivalLane="32978638#0_1" arrivalPos="49.29" arrivalSpeed="14.40" duration="45.00" routeLength="354.79" waitingTime="2.00" waitingCount="1" stopTime="0.00" timeLoss="13.72" rerouteNo="1" devices="tripinfo_h15454c2:3 routing_h15454c2:3 emissions_h15454c2:3" vType="default_016" speedFactor="1.10" vaporized="">
        <emissions CO_abs="2489.256411" CO2_abs="129066.634415" HC_abs="14.365305" PMx_abs="2.364574" NOx_abs="53.681147" fuel_abs="55.480490" electricity_abs="0"/>
    </tripinfo>
    <tripinfo id="carIn60260:1" depart="57606.00" departLane="315358254#0_1" departPos="5.10" departSpeed="0.00" departDelay="0.90" arrival="57693.00" arrivalLane="399835085#1_1" arrivalPos="212.23" arrivalSpeed="7.89" duration="87.00" routeLength="430.98" waitingTime="30.00" waitingCount="1" stopTime="0.00" timeLoss="41.93" rerouteNo="1" devices="tripinfo_carIn60260:1 routing_carIn60260:1 emissions_carIn60260:1" vType="default_016" speedFactor="1.03" vaporized="">
        <emissions CO_abs="6737.789502" CO2_abs="191875.989203" HC_abs="35.146911" PMx_abs="3.805743" NOx_abs="81.811994" fuel_abs="82.481815" electricity_abs="0"/>
    </tripinfo>
    <tripinfo id="carIn53971:1" depart="57640.00" departLane="272042143_1" departPos="5.10" departSpeed="0.00" departDelay="0.80" arrival="57694.00" arrivalLane="24634414#1_1" arrivalPos="162.19" arrivalSpeed="8.38" duration="54.00" routeLength="493.04" waitingTime="0.00" waitingCount="0" stopTime="0.00" timeLoss="9.08" rerouteNo="1" devices="tripinfo_carIn53971:1 routing_carIn53971:1 emissions_carIn53971:1" vType="default_016" speedFactor="1.02" vaporized="">
        <emissions CO_abs="2477.252630" CO2_abs="142964.598773" HC_abs="14.631189" PMx_abs="2.536270" NOx_abs="58.816449" fuel_abs="61.454557" electricity_abs="0"/>
    </tripinfo>
    <tripinfo id="h3688c1:1" depart="57625.00" departLane="201201950#1_1" departPos="5.10" departSpeed="0.00" departDelay="0.00" arrival="57721.00" arrivalLane="32978638#0_1" arrivalPos="49.29" arrivalSpeed="12.84" duration="96.00" routeLength="1089.75" waitingTime="1.00" waitingCount="1" stopTime="0.00" timeLoss="16.84" rerouteNo="1" devices="tripinfo_h3688c1:1 routing_h3688c1:1 emissions_h3688c1:1" vType="default_016" speedFactor="1.00" vaporized="">
        <emissions CO_abs="3811.132611" CO2_abs="271160.932221" HC_abs="23.700262" PMx_abs="4.624928" NOx_abs="109.136477" fuel_abs="116.560497" electricity_abs="0"/>
    </tripinfo>
    <tripinfo id="h7800c1:5" depart="57696.00" departLane="-447569998#1_1" departPos="5.10" departSpeed="0.00" departDelay="0.00" arrival="57723.00" arrivalLane="-447569998#1_2" arrivalPos="180.76" arrivalSpeed="7.62" duration="27.00" routeLength="175.66" waitingTime="0.00" waitingCount="0" stopTime="0.00" timeLoss="4.08" rerouteNo="1" devices="tripinfo_h7800c1:5 routing_h7800c1:5 emissions_h7800c1:5" vType="default_016" speedFactor="0.95" vaporized="">
        <emissions CO_abs="1174.587261" CO2_abs="47144.951516" HC_abs="6.435894" PMx_abs="0.820650" NOx_abs="19.536746" fuel_abs="20.265966" electricity_abs="0"/>
    </tripinfo>
    <tripinfo id="h3568c1:3" depart="57656.00" departLane="266565295#5_1" departPos="5.10" departSpeed="0.00" departDelay="0.80" arrival="57728.00" arrivalLane="-24634415_1" arrivalPos="62.03" arrivalSpeed="14.46" duration="72.00" routeLength="807.40" waitingTime="0.00" waitingCount="0" stopTime="0.00" timeLoss="12.77" rerouteNo="1" devices="tripinfo_h3568c1:3 routing_h3568c1:3 emissions_h3568c1:3" vType="default_016" speedFactor="1.08" vaporized="">
        <emissions CO_abs="3245.582152" CO2_abs="216131.594428" HC_abs="19.861441" PMx_abs="3.875573" NOx_abs="88.342990" fuel_abs="92.905610" electricity_abs="0"/>
    </tripinfo>
    <tripinfo id="carIn80064:1" depart="57603.00" departLane="128361109#1_1" departPos="5.10" departSpeed="0.00" departDelay="0.40" arrival="57731.00" arrivalLane="-315358254#1_1" arrivalPos="137.16" arrivalSpeed="13.33" duration="128.00" routeLength="1587.97" waitingTime="14.00" waitingCount="1" stopTime="0.00" timeLoss="40.13" rerouteNo="1" devices="tripinfo_carIn80064:1 routing_carIn80064:1 emissions_carIn80064:1" vType="default_016" speedFactor="1.02" vaporized="">
        <emissions CO_abs="8382.858376" CO2_abs="492259.881180" HC_abs="49.978392" PMx_abs="9.752600" NOx_abs="204.639083" fuel_abs="211.600908" electricity_abs="0"/>
    </tripinfo>
    <tripinfo id="h12244c1:3" depart="57612.00" departLane="315358244_1" departPos="5.10" departSpeed="0.00" departDelay="0.40" arrival="57733.00" arrivalLane="386687235_1" arrivalPos="80.84" arrivalSpeed="13.70" duration="121.00" routeLength="1186.14" waitingTime="11.00" waitingCount="3" stopTime="0.00" timeLoss="35.91" rerouteNo="1" devices="tripinfo_h12244c1:3 routing_h12244c1:3 emissions_h12244c1:3" vType="default_016" speedFactor="1.02" vaporized="">
        <emissions CO_abs="4491.351972" CO2_abs="273574.006276" HC_abs="26.837651" PMx_abs="4.766667" NOx_abs="110.779472" fuel_abs="117.598168" electricity_abs="0"/>
    </tripinfo>
    <tripinfo id="S5R_frequency1.2" depart="57634.00" departLane="315358250#0_1" departPos="12.10" departSpeed="0.00" departDelay="22.40" arrival="57738.00" arrivalLane="386687235_1" arrivalPos="80.84" arrivalSpeed="13.31" duration="104.00" routeLength="1115.62" waitingTime="2.00" waitingCount="1" stopTime="0.00" timeLoss="22.55" rerouteNo="1" devices="tripinfo_S5R_frequency1.2 routing_S5R_frequency1.2 emissions_S5R_frequency1.2" vType="bus" speedFactor="1.00" vaporized="">
        <emissions CO_abs="2032.687650" CO2_abs="1270157.358650" HC_abs="425.033626" PMx_abs="217.587095" NOx_abs="9869.507318" fuel_abs="541.702885" electricity_abs="0"/>
    </tripinfo>
    <tripinfo id="carIn121703:1" depart="57647.00" departLane="386687232#0_1" departPos="5.10" departSpeed="0.00" departDelay="0.30" arrival="57739.00" arrivalLane="-315358244_1" arrivalPos="33.95" arrivalSpeed="14.09" duration="92.00" routeLength="1157.39" waitingTime="0.00" waitingCount="0" stopTime="0.00" timeLoss="8.68" rerouteNo="1" devices="tripinfo_carIn121703:1 routing_carIn121703:1 emissions_carIn121703:1" vType="default_016" speedFactor="1.02" vaporized="">
        <emissions CO_abs="2427.760152" CO2_abs="216801.846818" HC_abs="16.009851" PMx_abs="3.351713" NOx_abs="84.131502" fuel_abs="93.193925" electricity_abs="0"/>
    </tripinfo>
    <tripinfo id="h317c2:1" depart="57707.00" departLane="-32978638#0_1" departPos="5.10" departSpeed="0.00" departDelay="0.10" arrival="57741.00" arrivalLane="-266565295#5_1" arrivalPos="172.76" arrivalSpeed="13.65" duration="34.00" routeLength="370.53" waitingTime="0.00" waitingCount="0" stopTime="0.00" timeLoss="6.25" rerouteNo="1" devices="tripinfo_h317c2:1 routing_h317c2:1 emissions_h317c2:1" vType="default_016" speedFactor="1.00" vaporized="">
        <emissions CO_abs="1766.182365" CO2_abs="110525.759695" HC_abs="10.649947" PMx_abs="2.005862" NOx_abs="45.516473" fuel_abs="47.510274" electricity_abs="0"/>
    </tripinfo>
    <tripinfo id="carIn30817:1" depart="57681.00" departLane="315358244_1" departPos="5.10" departSpeed="0.00" departDelay="0.20" arrival="57743.00" arrivalLane="447569997#1_1" arrivalPos="180.93" arrivalSpeed="8.04" duration="62.00" routeLength="718.04" waitingTime="0.00" waitingCount="0" stopTime="0.00" timeLoss="6.37" rerouteNo="1" devices="tripinfo_carIn30817:1 routing_carIn30817:1 emissions_carIn30817:1" vType="default_016" speedFactor="1.10" vaporized="">
        <emissions CO_abs="1972.676315" CO2_abs="147862.672209" HC_abs="12.397283" PMx_abs="2.412003" NOx_abs="58.459932" fuel_abs="63.559951" electricity_abs="0"/>
    </tripinfo>
    <tripinfo id="h5979c1:5" depart="57669.00" departLane="399835085#1_1" departPos="5.10" departSpeed="0.00" departDelay="0.00" arrival="57751.00" arrivalLane="-315358254#1_1" arrivalPos="137.16" arrivalSpeed="13.96" duration="82.00" routeLength="659.33" waitingTime="0.00" waitingCount="0" stopTime="0.00" timeLoss="11.15" rerouteNo="1" devices="tripinfo_h5979c1:5 routing_h5979c1:5 emissions_h5979c1:5" vType="default_016" speedFactor="1.04" vaporized="">
        <emissions CO_abs="3351.465166" CO2_abs="175330.883643" HC_abs="19.323756" PMx_abs="3.000235" NOx_abs="71.761638" fuel_abs="75.367881" electricity_abs="0"/>
    </tripinfo>
    <tripinfo id="h3154c1:1" depart="57658.00" departLane="24634507_1" departPos="5.10" departSpeed="0.00" departDelay="0.00" arrival="57752.00" arrivalLane="-266565295#5_1" arrivalPos="172.76" arrivalSpeed="14.51" duration="94.00" routeLength="1206.22" waitingTime="0.00" waitingCount="0" stopTime="0.00" timeLoss="12.75" rerouteNo="1" devices="tripinfo_h3154c1:1 routing_h3154c1:1 emissions_h3154c1:1" vType="default_016" speedFactor="1.09" vaporized="">
        <emissions CO_abs="3502.403814" CO2_abs="280982.866901" HC_abs="22.433589" PMx_abs="4.757761" NOx_abs="112.049840" fuel_abs="120.782262" electricity_abs="0"/>
    </tripinfo>
    <tripinfo id="h4538c1:1" depart="57701.00" departLane="-10427692#1_1" departPos="5.10" departSpeed="0.00" departDelay="0.00" arrival="57754.00" arrivalLane="-128361102#1_1" arrivalPos="274.68" arrivalSpeed="14.50" duration="53.00" routeLength="440.74" waitingTime="13.00" waitingCount="1" stopTime="0.00" timeLoss="23.37" rerouteNo="1" devices="tripinfo_h4538c1:1 routing_h4538c1:1 emissions_h4538c1:1" vType="default_016" speedFactor="1.08" vaporized="">
        <emissions CO_abs="2881.069875" CO2_abs="134419.684938" HC_abs="16.221285" PMx_abs="2.435903" NOx_abs="54.943013" fuel_abs="57.781909" electricity_abs="0"/>
    </tripinfo>
    <tripinfo id="h3326c1:2" depart="57656.00" departLane="22716069#0_1" departPos="5.10" departSpeed="0.00" departDelay="0.00" arrival="57762.00" arrivalLane="24634517#13_1" arrivalPos="111.62" arrivalSpeed="14.86" duration="106.00" routeLength="1312.81" waitingTime="0.00" waitingCount="0" stopTime="0.00" timeLoss="15.33" rerouteNo="1" devices="tripinfo_h3326c1:2 routing_h3326c1:2 emissions_h3326c1:2" vType="default_016" speedFactor="1.08" vaporized="">
        <emissions CO_abs="4301.286522" CO2_abs="326540.107390" HC_abs="27.188372" PMx_abs="5.733537" NOx_abs="131.940824" fuel_abs="140.365180" electricity_abs="0"/>
    </tripinfo>
    <tripinfo id="h9563c2:5" depart="57631.00" departLane="315358244_1" departPos="5.10" departSpeed="0.00" departDelay="0.70" arrival="57777.00" arrivalLane="386687235_1" arrivalPos="80.84" arrivalSpeed="13.12" duration="146.00" routeLength="1186.14" waitingTime="36.00" waitingCount="3" stopTime="0.00" timeLoss="55.52" rerouteNo="1" devices="tripinfo_h9563c2:5 routing_h9563c2:5 emissions_h9563c2:5" vType="default_016" speedFactor="0.95" vaporized="">
        <emissions CO_abs="8783.219979" CO2_abs="349611.560411" HC_abs="48.165217" PMx_abs="6.421601" NOx_abs="144.112790" fuel_abs="150.285639" electricity_abs="0"/>
    </tripinfo>
    <tripinfo id="carIn12365:1" depart="57713.00" departLane="315358244_1" departPos="5.10" departSpeed="0.00" departDelay="0.50" arrival="57780.00" arrivalLane="447569997#1_1" arrivalPos="180.93" arrivalSpeed="8.19" duration="67.00" routeLength="718.04" waitingTime="0.00" waitingCount="0" stopTime="0.00" timeLoss="8.14" rerouteNo="1" devices="tripinfo_carIn12365:1 routing_carIn12365:1 emissions_carIn12365:1" vType="default_016" speedFactor="1.06" vaporized="">
        <emissions CO_abs="2452.156827" CO2_abs="168144.542866" HC_abs="15.052387" PMx_abs="2.737072" NOx_abs="66.837146" fuel_abs="72.278425" electricity_abs="0"/>
    </tripinfo>
    <tripinfo id="h16072c2:3" depart="57663.00" departLane="315358254#0_1" departPos="5.10" departSpeed="0.00" departDelay="2.50" arrival="57781.00" arrivalLane="386687235_1" arrivalPos="80.84" arrivalSpeed="15.19" duration="118.00" routeLength="1611.92" waitingTime="0.00" waitingCount="0" stopTime="0.00" timeLoss="12.57" rerouteNo="1" devices="tripinfo_h16072c2:3 routing_h16072c2:3 emissions_h16072c2:3" vType="default_016" speedFactor="1.12" vaporized="">
        <emissions CO_abs="3767.424685" CO2_abs="345062.901629" HC_abs="25.039320" PMx_abs="5.679810" NOx_abs="135.368214" fuel_abs="148.327370" electricity_abs="0"/>
    </tripinfo>
    <tripinfo id="carIn27009:1" depart="57673.00" departLane="-447569998#1_1" departPos="5.10" departSpeed="0.00" departDelay="0.50" arrival="57783.00" arrivalLane="-26677539_1" arrivalPos="152.75" arrivalSpeed="7.05" duration="110.00" routeLength="699.63" waitingTime="0.00" waitingCount="0" stopTime="0.00" timeLoss="14.63" rerouteNo="1" devices="tripinfo_carIn27009:1 routing_carIn27009:1 emissions_carIn27009:1" vType="default_015" speedFactor="0.88" vaporized="">
        <emissions CO_abs="4765.696835" CO2_abs="194313.746086" HC_abs="26.140359" PMx_abs="3.158854" NOx_abs="79.165895" fuel_abs="83.528952" electricity_abs="0"/>
    </tripinfo>
    <tripinfo id="carIn28951:1" depart="57606.00" departLane="10425609#0_1" departPos="5.10" departSpeed="0.00" departDelay="0.20" arrival="57784.00" arrivalLane="-128361102#1_1" arrivalPos="274.68" arrivalSpeed="13.88" duration="178.00" routeLength="2113.04" waitingTime="3.00" waitingCount="1" stopTime="0.00" timeLoss="25.82" rerouteNo="1" devices="tripinfo_carIn28951:1 routing_carIn28951:1 emissions_carIn28951:1" vType="default_016" speedFactor="1.02" vaporized="">
        <emissions CO_abs="5286.776690" CO2_abs="442800.633180" HC_abs="34.381127" PMx_abs="7.042777" NOx_abs="173.760614" fuel_abs="190.341167" electricity_abs="0"/>
    </tripinfo>
    <tripinfo id="h330c1:1" depart="57736.00" departLane="-32978638#0_1" departPos="5.10" departSpeed="0.00" departDelay="0.20" arrival="57784.00" arrivalLane="-266565295#5_1" arrivalPos="172.76" arrivalSpeed="14.41" duration="48.00" routeLength="370.53" waitingTime="12.00" waitingCount="1" stopTime="0.00" timeLoss="21.87" rerouteNo="1" devices="tripinfo_h330c1:1 routing_h330c1:1 emissions_h330c1:1" vType="default_016" speedFactor="1.07" vaporized="">
        <emissions CO_abs="3375.665738" CO2_abs="148067.463097" HC_abs="18.843099" PMx_abs="2.919708" NOx_abs="62.469089" fuel_abs="63.648341" electricity_abs="0"/>
    </tripinfo>
    <tripinfo id="carIn50326:1" depart="57651.00" departLane="128361102#0_1" departPos="5.10" departSpeed="0.00" departDelay="0.30" arrival="57792.00" arrivalLane="18809673#0_1" arrivalPos="473.56" arrivalSpeed="13.44" duration="141.00" routeLength="1591.07" waitingTime="0.00" waitingCount="0" stopTime="0.00" timeLoss="14.88" rerouteNo="1" devices="tripinfo_carIn50326:1 routing_carIn50326:1 emissions_carIn50326:1" vType="default_016" speedFactor="1.03" vaporized="">
        <emissions CO_abs="4487.367115" CO2_abs="340315.566952" HC_abs="28.276138" PMx_abs="5.441141" NOx_abs="134.350609" fuel_abs="146.287437" electricity_abs="0"/>
    </tripinfo>
    <tripinfo id="carIn118591:1" depart="57689.00" departLane="315358244_1" departPos="5.10" departSpeed="0.00" departDelay="0.20" arrival="57803.00" arrivalLane="386687235_1" arrivalPos="80.84" arrivalSpeed="14.59" duration="114.00" routeLength="1186.14" waitingTime="13.00" waitingCount="2" stopTime="0.00" timeLoss="32.19" rerouteNo="1" devices="tripinfo_carIn118591:1 routing_carIn118591:1 emissions_carIn118591:1" vType="default_016" speedFactor="1.06" vaporized="">
        <emissions CO_abs="4346.272424" CO2_abs="293714.774386" HC_abs="26.653682" PMx_abs="5.083162" NOx_abs="118.126490" fuel_abs="126.255558" electricity_abs="0"/>
    </tripinfo>
    <tripinfo id="carIn86816:1" depart="57617.00" departLane="128361102#0_1" departPos="5.10" departSpeed="0.00" departDelay="0.80" arrival="57806.00" arrivalLane="201956811#0_1" arrivalPos="40.40" arrivalSpeed="12.76" duration="189.00" routeLength="2067.33" waitingTime="2.00" waitingCount="1" stopTime="0.00" timeLoss="26.49" rerouteNo="1" devices="tripinfo_carIn86816:1 routing_carIn86816:1 emissions_carIn86816:1" vType="default_016" speedFactor="0.93" vaporized="">
        <emissions CO_abs="6322.157087" CO2_abs="456316.391419" HC_abs="39.452912" PMx_abs="7.563603" NOx_abs="182.757327" fuel_abs="196.151126" electricity_abs="0"/>
    </tripinfo>
    <tripinfo id="carIn22761:1" depart="57616.00" departLane="-306240162#1_0" departPos="5.10" departSpeed="0.00" departDelay="2.10" arrival="57810.00" arrivalLane="399835085#1_1" arrivalPos="212.23" arrivalSpeed="9.22" duration="194.00" routeLength="1093.26" waitingTime="86.00" waitingCount="3" stopTime="0.00" timeLoss="125.77" rerouteNo="1" devices="tripinfo_carIn22761:1 routing_carIn22761:1 emissions_carIn22761:1" vType="default_016" speedFactor="1.15" vaporized="">
        <emissions CO_abs="18462.718347" CO2_abs="549449.956761" HC_abs="97.028579" PMx_abs="11.787158" NOx_abs="238.083959" fuel_abs="236.190413" electricity_abs="0"/>
    </tripinfo>
    <tripinfo id="carIn107084:1" depart="57601.00" departLane="124812856#0_1" departPos="5.10" departSpeed="0.00" departDelay="0.70" arrival="57813.00" arrivalLane="-128361102#1_1" arrivalPos="274.68" arrivalSpeed="15.01" duration="212.00" routeLength="2250.49" waitingTime="35.00" waitingCount="2" stopTime="0.00" timeLoss="63.04" rerouteNo="1" devices="tripinfo_carIn107084:1 routing_carIn107084:1 emissions_carIn107084:1" vType="default_016" speedFactor="1.10" vaporized="">
        <emissions CO_abs="10516.472764" CO2_abs="581921.045294" HC_abs="61.514546" PMx_abs="10.641986" NOx_abs="237.554317" fuel_abs="250.144014" electricity_abs="0"/>
    </tripinfo>
    <tripinfo id="carIn129809:1" depart="57729.00" departLane="-447569998#1_1" departPos="5.10" departSpeed="0.00" departDelay="1.00" arrival="57814.00" arrivalLane="-315358244_1" arrivalPos="33.95" arrivalSpeed="14.55" duration="85.00" routeLength="706.49" waitingTime="11.00" waitingCount="2" stopTime="0.00" timeLoss="26.98" rerouteNo="1" devices="tripinfo_carIn129809:1 routing_carIn129809:1 emissions_carIn129809:1" vType="default_015" speedFactor="1.06" vaporized="">
        <emissions CO_abs="4549.432046" CO2_abs="220605.243322" HC_abs="25.847350" PMx_abs="3.939759" NOx_abs="90.470638" fuel_abs="94.829677" electricity_abs="0"/>
    </tripinfo>
    <tripinfo id="h5216c1:1" depart="57664.00" departLane="224892339#0_1" departPos="5.10" departSpeed="0.00" departDelay="0.00" arrival="57816.00" arrivalLane="386687235_1" arrivalPos="80.84" arrivalSpeed="13.48" duration="152.00" routeLength="1823.78" waitingTime="8.00" waitingCount="1" stopTime="0.00" timeLoss="26.48" rerouteNo="1" devices="tripinfo_h5216c1:1 routing_h5216c1:1 emissions_h5216c1:1" vType="default_016" speedFactor="1.03" vaporized="">
        <emissions CO_abs="5646.491422" CO2_abs="431598.442199" HC_abs="35.799118" PMx_abs="7.329087" NOx_abs="172.126715" fuel_abs="185.525552" electricity_abs="0"/>
    </tripinfo>
    <tripinfo id="carIn12858:1" depart="57661.00" departLane="128361109#1_1" departPos="5.10" departSpeed="0.00" departDelay="0.90" arrival="57817.00" arrivalLane="399835085#1_1" arrivalPos="212.23" arrivalSpeed="7.40" duration="156.00" routeLength="1738.12" waitingTime="9.00" waitingCount="1" stopTime="0.00" timeLoss="39.32" rerouteNo="1" devices="tripinfo_carIn12858:1 routing_carIn12858:1 emissions_carIn12858:1" vType="default_016" speedFactor="0.99" vaporized="">
        <emissions CO_abs="7872.358386" CO2_abs="484934.919977" HC_abs="47.400415" PMx_abs="9.244139" NOx_abs="199.797434" fuel_abs="208.452394" electricity_abs="0"/>
    </tripinfo>
    <tripinfo id="h11737c1:1" depart="57665.00" departLane="272042143_1" departPos="5.10" departSpeed="0.00" departDelay="1.50" arrival="57817.00" arrivalLane="-315358254#1_1" arrivalPos="137.16" arrivalSpeed="13.76" duration="152.00" routeLength="1596.88" waitingTime="16.00" waitingCount="2" stopTime="0.00" timeLoss="43.01" rerouteNo="1" devices="tripinfo_h11737c1:1 routing_h11737c1:1 emissions_h11737c1:1" vType="default_016" speedFactor="1.07" vaporized="">
        <emissions CO_abs="6506.605987" CO2_abs="390126.107986" HC_abs="38.697632" PMx_abs="6.851062" NOx_abs="157.779225" fuel_abs="167.699156" electricity_abs="0"/>
    </tripinfo>
    <tripinfo id="carIn102915:1" depart="57643.00" departLane="128361102#0_1" departPos="5.10" departSpeed="0.00" departDelay="0.40" arrival="57832.00" arrivalLane="201956811#0_1" arrivalPos="40.40" arrivalSpeed="11.79" duration="189.00" routeLength="2067.33" waitingTime="3.00" waitingCount="1" stopTime="0.00" timeLoss="27.86" rerouteNo="1" devices="tripinfo_carIn102915:1 routing_carIn102915:1 emissions_carIn102915:1" vType="default_016" speedFactor="0.94" vaporized="">
        <emissions CO_abs="5831.317459" CO2_abs="434288.820046" HC_abs="36.684891" PMx_abs="7.052861" NOx_abs="172.712192" fuel_abs="186.682497" electricity_abs="0"/>
    </tripinfo>
    <tripinfo id="randUni33724:1" depart="57646.00" departLane="128361102#0_1" departPos="5.10" departSpeed="0.00" departDelay="1.20" arrival="57833.00" arrivalLane="201956811#0_1" arrivalPos="40.40" arrivalSpeed="13.52" duration="187.00" routeLength="2067.33" waitingTime="2.00" waitingCount="2" stopTime="0.00" timeLoss="57.28" rerouteNo="1" devices="tripinfo_randUni33724:1 routing_randUni33724:1 emissions_randUni33724:1" vType="random_016" speedFactor="1.16" vaporized="">
        <emissions CO_abs="6618.236181" CO2_abs="481742.571700" HC_abs="41.346643" PMx_abs="8.034671" NOx_abs="192.871138" fuel_abs="207.080670" electricity_abs="0"/>
    </tripinfo>
    <tripinfo id="h19804c1:3" depart="57617.00" departLane="124812856#0_1" departPos="5.10" departSpeed="0.00" departDelay="1.50" arrival="57835.00" arrivalLane="-128361102#1_1" arrivalPos="274.68" arrivalSpeed="14.37" duration="218.00" routeLength="2250.49" waitingTime="23.00" waitingCount="3" stopTime="0.00" timeLoss="59.49" rerouteNo="1" devices="tripinfo_h19804c1:3 routing_h19804c1:3 emissions_h19804c1:3" vType="default_016" speedFactor="1.04" vaporized="">
        <emissions CO_abs="9148.372579" CO2_abs="562839.159414" HC_abs="54.793933" PMx_abs="9.887110" NOx_abs="227.856403" fuel_abs="241.941166" electricity_abs="0"/>
    </tripinfo>
    <tripinfo id="randUni15030:1" depart="57735.00" departLane="386687232#0_1" departPos="5.10" departSpeed="0.00" departDelay="0.10" arrival="57836.00" arrivalLane="26677539_1" arrivalPos="151.98" arrivalSpeed="7.55" duration="101.00" routeLength="919.89" waitingTime="7.00" waitingCount="1" stopTime="0.00" timeLoss="21.01" rerouteNo="1" devices="tripinfo_randUni15030:1 routing_randUni15030:1 emissions_randUni15030:1" vType="random_016" speedFactor="1.05" vaporized="">
        <emissions CO_abs="4313.441126" CO2_abs="243256.469012" HC_abs="25.311869" PMx_abs="4.141988" NOx_abs="98.605738" fuel_abs="104.566262" electricity_abs="0"/>
    </tripinfo>
    <tripinfo id="carIn77943:1" depart="57608.00" departLane="124812856#0_1" departPos="5.10" departSpeed="0.00" departDelay="2.50" arrival="57837.00" arrivalLane="-128361102#1_1" arrivalPos="274.68" arrivalSpeed="13.52" duration="229.00" routeLength="2250.49" waitingTime="26.00" waitingCount="3" stopTime="0.00" timeLoss="72.80" rerouteNo="1" devices="tripinfo_carIn77943:1 routing_carIn77943:1 emissions_carIn77943:1" vType="default_016" speedFactor="1.05" vaporized="">
        <emissions CO_abs="10139.577927" CO2_abs="604985.800677" HC_abs="60.440177" PMx_abs="11.077649" NOx_abs="248.954764" fuel_abs="260.057729" electricity_abs="0"/>
    </tripinfo>
    <tripinfo id="carIn81860:1" depart="57712.00" departLane="128361102#0_1" departPos="5.10" departSpeed="0.00" departDelay="0.60" arrival="57838.00" arrivalLane="-24634517#17_1" arrivalPos="6.43" arrivalSpeed="7.13" duration="126.00" routeLength="1229.64" waitingTime="11.00" waitingCount="1" stopTime="0.00" timeLoss="31.35" rerouteNo="1" devices="tripinfo_carIn81860:1 routing_carIn81860:1 emissions_carIn81860:1" vType="default_016" speedFactor="0.95" vaporized="">
        <emissions CO_abs="5606.273842" CO2_abs="307435.649644" HC_abs="32.687199" PMx_abs="5.196494" NOx_abs="123.784357" fuel_abs="132.154586" electricity_abs="0"/>
    </tripinfo>
    <tripinfo id="carIn77438:1" depart="57614.00" departLane="124812856#0_1" departPos="5.10" departSpeed="0.00" departDelay="1.10" arrival="57839.00" arrivalLane="-128361102#1_1" arrivalPos="274.68" arrivalSpeed="15.48" duration="225.00" routeLength="2250.49" waitingTime="33.00" waitingCount="3" stopTime="0.00" timeLoss="77.52" rerouteNo="1" devices="tripinfo_carIn77438:1 routing_carIn77438:1 emissions_carIn77438:1" vType="default_016" speedFactor="1.12" vaporized="">
        <emissions CO_abs="11604.969184" CO2_abs="637536.443088" HC_abs="67.767017" PMx_abs="11.918830" NOx_abs="262.893913" fuel_abs="274.050362" electricity_abs="0"/>
    </tripinfo>
    <tripinfo id="h7181c1:1" depart="57660.00" departLane="315358254#0_1" departPos="5.10" departSpeed="0.00" departDelay="0.10" arrival="57842.00" arrivalLane="306240162#0_0" arrivalPos="220.43" arrivalSpeed="14.47" duration="182.00" routeLength="932.35" waitingTime="100.00" waitingCount="3" stopTime="0.00" timeLoss="124.91" rerouteNo="1" devices="tripinfo_h7181c1:1 routing_h7181c1:1 emissions_h7181c1:1" vType="default_016" speedFactor="0.90" vaporized="">
        <emissions CO_abs="19103.321100" CO2_abs="520195.162713" HC_abs="99.255535" PMx_abs="11.368158" NOx_abs="226.295691" fuel_abs="223.615861" electricity_abs="0"/>
    </tripinfo>
    <tripinfo id="h17600c1:1" depart="57662.00" departLane="272042143_1" departPos="5.10" departSpeed="0.00" departDelay="0.30" arrival="57843.00" arrivalLane="201238729#3_1" arrivalPos="431.02" arrivalSpeed="12.30" duration="181.00" routeLength="2100.26" waitingTime="3.00" waitingCount="1" stopTime="0.00" timeLoss="19.53" rerouteNo="1" devices="tripinfo_h17600c1:1 routing_h17600c1:1 emissions_h17600c1:1" vType="default_016" speedFactor="0.94" vaporized="">
        <emissions CO_abs="4212.712582" CO2_abs="379314.912778" HC_abs="27.965595" PMx_abs="5.599511" NOx_abs="146.190872" fuel_abs="163.051737" electricity_abs="0"/>
    </tripinfo>
    <tripinfo id="carIn126378:1" depart="57746.00" departLane="386687232#0_1" departPos="5.10" departSpeed="0.00" departDelay="1.80" arrival="57844.00" arrivalLane="-315358244_1" arrivalPos="33.95" arrivalSpeed="14.19" duration="98.00" routeLength="1157.39" waitingTime="0.00" waitingCount="0" stopTime="0.00" timeLoss="18.28" rerouteNo="1" devices="tripinfo_carIn126378:1 routing_carIn126378:1 emissions_carIn126378:1" vType="default_016" speedFactor="1.06" vaporized="">
        <emissions CO_abs="3422.205175" CO2_abs="259644.774638" HC_abs="21.557713" PMx_abs="4.221844" NOx_abs="102.511313" fuel_abs="111.610368" electricity_abs="0"/>
    </tripinfo>
    <tripinfo id="carIn107282:1" depart="57749.00" departLane="-447569998#1_1" departPos="5.10" departSpeed="0.00" departDelay="0.00" arrival="57844.00" arrivalLane="315358242#0_1" arrivalPos="165.37" arrivalSpeed="14.19" duration="95.00" routeLength="448.50" waitingTime="47.00" waitingCount="1" stopTime="0.00" timeLoss="56.18" rerouteNo="1" devices="tripinfo_carIn107282:1 routing_carIn107282:1 emissions_carIn107282:1" vType="default_016" speedFactor="1.07" vaporized="">
        <emissions CO_abs="9067.549375" CO2_abs="234627.560371" HC_abs="46.784511" PMx_abs="4.914556" NOx_abs="101.136257" fuel_abs="100.859823" electricity_abs="0"/>
    </tripinfo>
    <tripinfo id="50R_frequency3.17" depart="57674.00" departLane="-18809673#6_1" departPos="12.10" departSpeed="0.00" departDelay="0.70" arrival="57848.00" arrivalLane="201956811#0_1" arrivalPos="40.40" arrivalSpeed="13.44" duration="174.00" routeLength="1954.47" waitingTime="5.00" waitingCount="1" stopTime="0.00" timeLoss="29.15" rerouteNo="1" devices="tripinfo_50R_frequency3.17 routing_50R_frequency3.17 emissions_50R_frequency3.17" vType="bus" speedFactor="1.00" vaporized="">
        <emissions CO_abs="3485.460220" CO2_abs="2210598.643171" HC_abs="732.603980" PMx_abs="374.205779" NOx_abs="17081.005495" fuel_abs="942.804004" electricity_abs="0"/>
    </tripinfo>
    <tripinfo id="carIn100288:1" depart="57664.00" departLane="128361102#0_1" departPos="5.10" departSpeed="0.00" departDelay="0.60" arrival="57850.00" arrivalLane="201956811#0_1" arrivalPos="40.40" arrivalSpeed="13.86" duration="186.00" routeLength="2067.33" waitingTime="15.00" waitingCount="1" stopTime="0.00" timeLoss="37.57" rerouteNo="1" devices="tripinfo_carIn100288:1 routing_carIn100288:1 emissions_carIn100288:1" vType="default_016" speedFactor="1.02" vaporized="">
        <emissions CO_abs="7189.516553" CO2_abs="476988.347167" HC_abs="43.872278" PMx_abs="8.141240" NOx_abs="191.374027" fuel_abs="205.037375" electricity_abs="0"/>