<?xml version="1.0" encoding="UTF-8"?>

<!-- generated on 2021-10-26 15:06:06 by Eclipse SUMO sumo Version 1.10.0
<configuration xmlns:xsi="http://www.w3.org/2001/XMLSchema-instance" xsi:noNamespaceSchemaLocation="http://sumo.dlr.de/xsd/sumoConfiguration.xsd">

    <input>
        <net-file value="/Users/behradkoohy/sumo-scratchpad/RESCO/environments/ingolstadt21/ingolstadt21.net.xml"/>
        <route-files value="/Users/behradkoohy/sumo-scratchpad/RESCO/environments/ingolstadt21/ingolstadt21.rou.xml"/>
    </input>

    <output>
        <tripinfo-output value="/Users/behradkoohy/sumo-scratchpad/RESCO/logs/IPPO-tr0-ingolstadt21-21-drq_norm-wait_norm/tripinfo_4.xml"/>
        <tripinfo-output.write-unfinished value="true"/>
    </output>

    <time>
        <begin value="57600"/>
        <end value="61200"/>
    </time>

    <processing>
        <time-to-teleport value="-1"/>
    </processing>

    <report>
        <no-warnings value="true"/>
        <no-step-log value="true"/>
    </report>

    <emissions>
        <device.emissions.probability value="1"/>
    </emissions>

    <traci_server>
        <remote-port value="60966"/>
    </traci_server>

    <random_number>
        <random value="true"/>
    </random_number>

</configuration>
-->

<tripinfos xmlns:xsi="http://www.w3.org/2001/XMLSchema-instance" xsi:noNamespaceSchemaLocation="http://sumo.dlr.de/xsd/tripinfo_file.xsd">
    <tripinfo id="h15454c2:3" depart="57612.00" departLane="24608844_1" departPos="5.10" departSpeed="0.00" departDelay="0.50" arrival="57646.00" arrivalLane="32978638#0_1" arrivalPos="49.29" arrivalSpeed="16.03" duration="34.00" routeLength="354.79" waitingTime="0.00" waitingCount="0" stopTime="0.00" timeLoss="4.83" rerouteNo="1" devices="tripinfo_h15454c2:3 routing_h15454c2:3 emissions_h15454c2:3" vType="default_016" speedFactor="1.16" vaporized="">
        <emissions CO_abs="1828.162142" CO2_abs="115845.289083" HC_abs="10.977390" PMx_abs="2.023897" NOx_abs="47.065273" fuel_abs="49.797012" electricity_abs="0"/>
    </tripinfo>
    <tripinfo id="carIn60260:1" depart="57606.00" departLane="315358254#0_1" departPos="5.10" departSpeed="0.00" departDelay="0.90" arrival="57657.00" arrivalLane="399835085#1_1" arrivalPos="212.23" arrivalSpeed="8.63" duration="51.00" routeLength="430.98" waitingTime="0.00" waitingCount="0" stopTime="0.00" timeLoss="6.63" rerouteNo="1" devices="tripinfo_carIn60260:1 routing_carIn60260:1 emissions_carIn60260:1" vType="default_016" speedFactor="1.05" vaporized="">
        <emissions CO_abs="2208.684535" CO2_abs="118674.756252" HC_abs="12.795968" PMx_abs="1.921422" NOx_abs="47.820762" fuel_abs="51.013752" electricity_abs="0"/>
    </tripinfo>
    <tripinfo id="carIn53971:1" depart="57640.00" departLane="272042143_1" departPos="5.10" departSpeed="0.00" departDelay="0.80" arrival="57691.00" arrivalLane="24634414#1_1" arrivalPos="162.19" arrivalSpeed="9.17" duration="51.00" routeLength="493.04" waitingTime="0.00" waitingCount="0" stopTime="0.00" timeLoss="10.36" rerouteNo="1" devices="tripinfo_carIn53971:1 routing_carIn53971:1 emissions_carIn53971:1" vType="default_016" speedFactor="1.12" vaporized="">
        <emissions CO_abs="2522.713526" CO2_abs="147632.939266" HC_abs="14.962247" PMx_abs="2.683537" NOx_abs="61.079989" fuel_abs="63.461162" electricity_abs="0"/>
    </tripinfo>
    <tripinfo id="S5R_frequency1.2" depart="57615.00" departLane="315358250#0_1" departPos="12.10" departSpeed="0.00" departDelay="3.40" arrival="57739.00" arrivalLane="386687235_1" arrivalPos="80.84" arrivalSpeed="13.49" duration="124.00" routeLength="1115.62" waitingTime="25.00" waitingCount="1" stopTime="0.00" timeLoss="42.73" rerouteNo="1" devices="tripinfo_S5R_frequency1.2 routing_S5R_frequency1.2 emissions_S5R_frequency1.2" vType="bus" speedFactor="1.00" vaporized="">
        <emissions CO_abs="2341.158204" CO2_abs="1312936.443096" HC_abs="509.559107" PMx_abs="247.926906" NOx_abs="10596.428417" fuel_abs="559.908347" electricity_abs="0"/>
    </tripinfo>
    <tripinfo id="h3568c1:3" depart="57656.00" departLane="266565295#5_1" departPos="5.10" departSpeed="0.00" departDelay="0.80" arrival="57748.00" arrivalLane="-24634415_1" arrivalPos="62.03" arrivalSpeed="13.51" duration="92.00" routeLength="807.40" waitingTime="11.00" waitingCount="1" stopTime="0.00" timeLoss="29.29" rerouteNo="1" devices="tripinfo_h3568c1:3 routing_h3568c1:3 emissions_h3568c1:3" vType="default_016" speedFactor="1.03" vaporized="">
        <emissions CO_abs="4951.969956" CO2_abs="265540.384510" HC_abs="28.725703" PMx_abs="4.897690" NOx_abs="109.839662" fuel_abs="114.144871" electricity_abs="0"/>
    </tripinfo>
    <tripinfo id="carIn121703:1" depart="57647.00" departLane="386687232#0_1" departPos="5.10" departSpeed="0.00" departDelay="0.30" arrival="57750.00" arrivalLane="-315358244_1" arrivalPos="33.95" arrivalSpeed="15.37" duration="103.00" routeLength="1157.39" waitingTime="13.00" waitingCount="2" stopTime="0.00" timeLoss="32.20" rerouteNo="1" devices="tripinfo_carIn121703:1 routing_carIn121703:1 emissions_carIn121703:1" vType="default_016" speedFactor="1.20" vaporized="">
        <emissions CO_abs="4301.226247" CO2_abs="288742.803885" HC_abs="26.311074" PMx_abs="5.343254" NOx_abs="117.936233" fuel_abs="124.117840" electricity_abs="0"/>
    </tripinfo>
    <tripinfo id="h7800c1:5" depart="57696.00" departLane="-447569998#1_1" departPos="5.10" departSpeed="0.00" departDelay="0.00" arrival="57755.00" arrivalLane="-447569998#1_2" arrivalPos="180.76" arrivalSpeed="3.06" duration="59.00" routeLength="175.66" waitingTime="31.00" waitingCount="1" stopTime="0.00" timeLoss="37.07" rerouteNo="1" devices="tripinfo_h7800c1:5 routing_h7800c1:5 emissions_h7800c1:5" vType="default_016" speedFactor="0.97" vaporized="">
        <emissions CO_abs="5762.603938" CO2_abs="125065.404454" HC_abs="29.145867" PMx_abs="2.675574" NOx_abs="54.653517" fuel_abs="53.762788" electricity_abs="0"/>
    </tripinfo>
    <tripinfo id="h9563c2:5" depart="57631.00" departLane="315358244_1" departPos="5.10" departSpeed="0.00" departDelay="0.70" arrival="57757.00" arrivalLane="386687235_1" arrivalPos="80.84" arrivalSpeed="12.30" duration="126.00" routeLength="1186.14" waitingTime="19.00" waitingCount="2" stopTime="0.00" timeLoss="36.62" rerouteNo="1" devices="tripinfo_h9563c2:5 routing_h9563c2:5 emissions_h9563c2:5" vType="default_016" speedFactor="0.97" vaporized="">
        <emissions CO_abs="5103.494562" CO2_abs="287662.339498" HC_abs="29.955213" PMx_abs="4.943619" NOx_abs="116.133550" fuel_abs="123.654587" electricity_abs="0"/>
    </tripinfo>
    <tripinfo id="h5979c1:5" depart="57669.00" departLane="399835085#1_1" departPos="5.10" departSpeed="0.00" departDelay="0.00" arrival="57760.00" arrivalLane="-315358254#1_1" arrivalPos="137.16" arrivalSpeed="15.27" duration="91.00" routeLength="659.33" waitingTime="15.00" waitingCount="1" stopTime="0.00" timeLoss="26.79" rerouteNo="1" devices="tripinfo_h5979c1:5 routing_h5979c1:5 emissions_h5979c1:5" vType="default_016" speedFactor="1.13" vaporized="">
        <emissions CO_abs="5231.724548" CO2_abs="213465.351354" HC_abs="28.783737" PMx_abs="3.828551" NOx_abs="88.325354" fuel_abs="91.761133" electricity_abs="0"/>
    </tripinfo>
    <tripinfo id="h7181c1:1" depart="57660.00" departLane="315358254#0_1" departPos="5.10" departSpeed="0.00" departDelay="0.10" arrival="57761.00" arrivalLane="306240162#0_0" arrivalPos="220.43" arrivalSpeed="15.09" duration="101.00" routeLength="932.35" waitingTime="37.00" waitingCount="1" stopTime="0.00" timeLoss="47.57" rerouteNo="1" devices="tripinfo_h7181c1:1 routing_h7181c1:1 emissions_h7181c1:1" vType="default_016" speedFactor="0.96" vaporized="">
        <emissions CO_abs="7822.128224" CO2_abs="305679.402592" HC_abs="42.762001" PMx_abs="6.147179" NOx_abs="127.519294" fuel_abs="131.400244" electricity_abs="0"/>
    </tripinfo>
    <tripinfo id="h3326c1:2" depart="57656.00" departLane="22716069#0_1" departPos="5.10" departSpeed="0.00" departDelay="0.00" arrival="57762.00" arrivalLane="24634517#13_1" arrivalPos="111.62" arrivalSpeed="13.90" duration="106.00" routeLength="1312.81" waitingTime="0.00" waitingCount="0" stopTime="0.00" timeLoss="14.70" rerouteNo="1" devices="tripinfo_h3326c1:2 routing_h3326c1:2 emissions_h3326c1:2" vType="default_016" speedFactor="1.08" vaporized="">
        <emissions CO_abs="4359.096555" CO2_abs="318769.924084" HC_abs="27.338785" PMx_abs="5.692110" NOx_abs="129.749811" fuel_abs="137.025090" electricity_abs="0"/>
    </tripinfo>
    <tripinfo id="h12244c1:3" depart="57612.00" departLane="315358244_1" departPos="5.10" departSpeed="0.00" departDelay="0.40" arrival="57764.00" arrivalLane="386687235_1" arrivalPos="80.84" arrivalSpeed="10.66" duration="152.00" routeLength="1186.14" waitingTime="29.00" waitingCount="1" stopTime="0.00" timeLoss="43.12" rerouteNo="1" devices="tripinfo_h12244c1:3 routing_h12244c1:3 emissions_h12244c1:3" vType="default_016" speedFactor="0.79" vaporized="">
        <emissions CO_abs="7449.129533" CO2_abs="304657.529899" HC_abs="40.941472" PMx_abs="5.113951" NOx_abs="123.237105" fuel_abs="130.961973" electricity_abs="0"/>
    </tripinfo>
    <tripinfo id="carIn22761:1" depart="57616.00" departLane="-306240162#1_0" departPos="5.10" departSpeed="0.00" departDelay="2.10" arrival="57764.00" arrivalLane="399835085#1_1" arrivalPos="212.23" arrivalSpeed="8.10" duration="148.00" routeLength="1093.26" waitingTime="46.00" waitingCount="1" stopTime="0.00" timeLoss="69.37" rerouteNo="1" devices="tripinfo_carIn22761:1 routing_carIn22761:1 emissions_carIn22761:1" vType="default_016" speedFactor="0.99" vaporized="">
        <emissions CO_abs="11989.750861" CO2_abs="433897.521540" HC_abs="64.858242" PMx_abs="8.785485" NOx_abs="183.661826" fuel_abs="186.516923" electricity_abs="0"/>
    </tripinfo>
    <tripinfo id="h3688c1:1" depart="57625.00" departLane="201201950#1_1" departPos="5.10" departSpeed="0.00" departDelay="0.00" arrival="57765.00" arrivalLane="32978638#0_1" arrivalPos="49.29" arrivalSpeed="12.27" duration="140.00" routeLength="1089.75" waitingTime="35.00" waitingCount="2" stopTime="0.00" timeLoss="53.59" rerouteNo="1" devices="tripinfo_h3688c1:1 routing_h3688c1:1 emissions_h3688c1:1" vType="default_016" speedFactor="0.92" vaporized="">
        <emissions CO_abs="7405.630208" CO2_abs="322908.992651" HC_abs="41.276218" PMx_abs="5.889339" NOx_abs="133.186463" fuel_abs="138.806572" electricity_abs="0"/>
    </tripinfo>
    <tripinfo id="h317c2:1" depart="57707.00" departLane="-32978638#0_1" departPos="5.10" departSpeed="0.00" departDelay="0.10" arrival="57773.00" arrivalLane="-266565295#5_1" arrivalPos="172.76" arrivalSpeed="14.11" duration="66.00" routeLength="370.53" waitingTime="32.00" waitingCount="1" stopTime="0.00" timeLoss="41.48" rerouteNo="1" devices="tripinfo_h317c2:1 routing_h317c2:1 emissions_h317c2:1" vType="default_016" speedFactor="1.11" vaporized="">
        <emissions CO_abs="7066.933124" CO2_abs="207337.765056" HC_abs="37.076634" PMx_abs="4.390280" NOx_abs="89.478138" fuel_abs="89.127843" electricity_abs="0"/>
    </tripinfo>
    <tripinfo id="carIn30817:1" depart="57681.00" departLane="315358244_1" departPos="5.10" departSpeed="0.00" departDelay="0.20" arrival="57776.00" arrivalLane="447569997#1_1" arrivalPos="180.93" arrivalSpeed="6.84" duration="95.00" routeLength="718.04" waitingTime="10.00" waitingCount="1" stopTime="0.00" timeLoss="23.17" rerouteNo="1" devices="tripinfo_carIn30817:1 routing_carIn30817:1 emissions_carIn30817:1" vType="default_016" speedFactor="0.86" vaporized="">
        <emissions CO_abs="4001.187333" CO2_abs="184498.648206" HC_abs="22.502008" PMx_abs="3.202417" NOx_abs="75.692714" fuel_abs="79.309095" electricity_abs="0"/>
    </tripinfo>
    <tripinfo id="h330c1:1" depart="57736.00" departLane="-32978638#0_1" departPos="5.10" departSpeed="0.00" departDelay="0.20" arrival="57776.00" arrivalLane="-266565295#5_1" arrivalPos="172.76" arrivalSpeed="15.24" duration="40.00" routeLength="370.53" waitingTime="5.00" waitingCount="1" stopTime="0.00" timeLoss="14.37" rerouteNo="1" devices="tripinfo_h330c1:1 routing_h330c1:1 emissions_h330c1:1" vType="default_016" speedFactor="1.11" vaporized="">
        <emissions CO_abs="2841.088936" CO2_abs="143565.684567" HC_abs="16.282462" PMx_abs="2.743022" NOx_abs="59.924575" fuel_abs="61.712974" electricity_abs="0"/>
    </tripinfo>
    <tripinfo id="carIn80064:1" depart="57603.00" departLane="128361109#1_1" departPos="5.10" departSpeed="0.00" departDelay="0.40" arrival="57787.00" arrivalLane="-315358254#1_1" arrivalPos="137.16" arrivalSpeed="14.32" duration="184.00" routeLength="1587.97" waitingTime="68.00" waitingCount="3" stopTime="0.00" timeLoss="100.99" rerouteNo="1" devices="tripinfo_carIn80064:1 routing_carIn80064:1 emissions_carIn80064:1" vType="default_016" speedFactor="1.09" vaporized="">
        <emissions CO_abs="16838.252993" CO2_abs="647979.602644" HC_abs="92.197355" PMx_abs="13.738107" NOx_abs="276.107962" fuel_abs="278.541473" electricity_abs="0"/>
    </tripinfo>
    <tripinfo id="carIn118591:1" depart="57689.00" departLane="315358244_1" departPos="5.10" departSpeed="0.00" departDelay="0.20" arrival="57789.00" arrivalLane="386687235_1" arrivalPos="80.84" arrivalSpeed="14.57" duration="100.00" routeLength="1186.14" waitingTime="5.00" waitingCount="1" stopTime="0.00" timeLoss="18.22" rerouteNo="1" devices="tripinfo_carIn118591:1 routing_carIn118591:1 emissions_carIn118591:1" vType="default_016" speedFactor="1.06" vaporized="">
        <emissions CO_abs="3238.282548" CO2_abs="254744.368518" HC_abs="20.694781" PMx_abs="4.184576" NOx_abs="100.754429" fuel_abs="109.503746" electricity_abs="0"/>
    </tripinfo>
    <tripinfo id="h4538c1:1" depart="57701.00" departLane="-10427692#1_1" departPos="5.10" departSpeed="0.00" departDelay="0.00" arrival="57792.00" arrivalLane="-128361102#1_1" arrivalPos="274.68" arrivalSpeed="15.09" duration="91.00" routeLength="440.74" waitingTime="54.00" waitingCount="1" stopTime="0.00" timeLoss="63.57" rerouteNo="1" devices="tripinfo_h4538c1:1 routing_h4538c1:1 emissions_h4538c1:1" vType="default_016" speedFactor="1.16" vaporized="">
        <emissions CO_abs="9612.994681" CO2_abs="243532.979392" HC_abs="49.454619" PMx_abs="5.276850" NOx_abs="105.546677" fuel_abs="104.687965" electricity_abs="0"/>
    </tripinfo>
    <tripinfo id="h3154c1:1" depart="57658.00" departLane="24634507_1" departPos="5.10" departSpeed="0.00" departDelay="0.00" arrival="57796.00" arrivalLane="-266565295#5_1" arrivalPos="172.76" arrivalSpeed="14.02" duration="138.00" routeLength="1206.22" waitingTime="25.00" waitingCount="3" stopTime="0.00" timeLoss="53.27" rerouteNo="1" devices="tripinfo_h3154c1:1 routing_h3154c1:1 emissions_h3154c1:1" vType="default_016" speedFactor="1.05" vaporized="">
        <emissions CO_abs="7257.369962" CO2_abs="379448.072545" HC_abs="42.008826" PMx_abs="7.110606" NOx_abs="157.492044" fuel_abs="163.109119" electricity_abs="0"/>
    </tripinfo>
    <tripinfo id="carIn12365:1" depart="57713.00" departLane="315358244_1" departPos="5.10" departSpeed="0.00" departDelay="0.50" arrival="57802.00" arrivalLane="447569997#1_1" arrivalPos="180.93" arrivalSpeed="7.69" duration="89.00" routeLength="718.04" waitingTime="13.00" waitingCount="1" stopTime="0.00" timeLoss="24.29" rerouteNo="1" devices="tripinfo_carIn12365:1 routing_carIn12365:1 emissions_carIn12365:1" vType="default_016" speedFactor="0.95" vaporized="">
        <emissions CO_abs="4312.639112" CO2_abs="190351.176471" HC_abs="24.071158" PMx_abs="3.388785" NOx_abs="78.350865" fuel_abs="81.824937" electricity_abs="0"/>
    </tripinfo>
    <tripinfo id="carIn107282:1" depart="57749.00" departLane="-447569998#1_1" departPos="5.10" departSpeed="0.00" departDelay="0.00" arrival="57804.00" arrivalLane="315358242#0_1" arrivalPos="165.37" arrivalSpeed="14.40" duration="55.00" routeLength="448.50" waitingTime="8.00" waitingCount="1" stopTime="0.00" timeLoss="17.52" rerouteNo="1" devices="tripinfo_carIn107282:1 routing_carIn107282:1 emissions_carIn107282:1" vType="default_016" speedFactor="1.11" vaporized="">
        <emissions CO_abs="2626.749552" CO2_abs="136072.844144" HC_abs="15.075655" PMx_abs="2.347065" NOx_abs="55.085105" fuel_abs="58.492447" electricity_abs="0"/>
    </tripinfo>
    <tripinfo id="carIn28951:1" depart="57606.00" departLane="10425609#0_1" departPos="5.10" departSpeed="0.00" departDelay="0.20" arrival="57813.00" arrivalLane="-128361102#1_1" arrivalPos="274.68" arrivalSpeed="15.36" duration="207.00" routeLength="2095.01" waitingTime="42.00" waitingCount="2" stopTime="0.00" timeLoss="72.91" rerouteNo="1" devices="tripinfo_carIn28951:1 routing_carIn28951:1 emissions_carIn28951:1" vType="default_016" speedFactor="1.15" vaporized="">
        <emissions CO_abs="12239.349477" CO2_abs="591267.721411" HC_abs="69.517559" PMx_abs="11.190059" NOx_abs="244.007841" fuel_abs="254.162484" electricity_abs="0"/>
    </tripinfo>
    <tripinfo id="carIn129809:1" depart="57729.00" departLane="-447569998#1_1" departPos="5.10" departSpeed="0.00" departDelay="1.00" arrival="57814.00" arrivalLane="-315358244_1" arrivalPos="33.95" arrivalSpeed="12.74" duration="85.00" routeLength="706.49" waitingTime="1.00" waitingCount="1" stopTime="0.00" timeLoss="19.64" rerouteNo="1" devices="tripinfo_carIn129809:1 routing_carIn129809:1 emissions_carIn129809:1" vType="default_015" speedFactor="0.93" vaporized="">
        <emissions CO_abs="3496.677814" CO2_abs="183749.439096" HC_abs="20.213471" PMx_abs="3.228177" NOx_abs="75.389524" fuel_abs="78.986586" electricity_abs="0"/>
    </tripinfo>
    <tripinfo id="h20540c1:1" depart="57634.00" departLane="10425609#0_1" departPos="5.10" departSpeed="0.00" departDelay="0.50" arrival="57815.00" arrivalLane="-128361102#1_1" arrivalPos="274.68" arrivalSpeed="15.97" duration="181.00" routeLength="2095.01" waitingTime="19.00" waitingCount="2" stopTime="0.00" timeLoss="48.74" rerouteNo="1" devices="tripinfo_h20540c1:1 routing_h20540c1:1 emissions_h20540c1:1" vType="default_016" speedFactor="1.17" vaporized="">
        <emissions CO_abs="7887.253662" CO2_abs="529232.806526" HC_abs="48.272418" PMx_abs="9.534506" NOx_abs="214.268858" fuel_abs="227.494358" electricity_abs="0"/>
    </tripinfo>
    <tripinfo id="carIn27009:1" depart="57673.00" departLane="-447569998#1_1" departPos="5.10" departSpeed="0.00" departDelay="0.50" arrival="57828.00" arrivalLane="-26677539_1" arrivalPos="152.75" arrivalSpeed="6.66" duration="155.00" routeLength="699.63" waitingTime="51.00" waitingCount="1" stopTime="0.00" timeLoss="66.23" rerouteNo="1" devices="tripinfo_carIn27009:1 routing_carIn27009:1 emissions_carIn27009:1" vType="default_015" speedFactor="0.95" vaporized="">
        <emissions CO_abs="12219.521204" CO2_abs="315696.601488" HC_abs="62.953283" PMx_abs="6.284424" NOx_abs="135.192683" fuel_abs="135.709525" electricity_abs="0"/>
    </tripinfo>
    <tripinfo id="carIn48184:1" depart="57613.00" departLane="-306240162#1_0" departPos="5.10" departSpeed="0.00" departDelay="0.70" arrival="57834.00" arrivalLane="386687235_1" arrivalPos="80.84" arrivalSpeed="12.18" duration="221.00" routeLength="2257.41" waitingTime="25.00" waitingCount="2" stopTime="0.00" timeLoss="56.73" rerouteNo="1" devices="tripinfo_carIn48184:1 routing_carIn48184:1 emissions_carIn48184:1" vType="default_016" speedFactor="0.90" vaporized="">
        <emissions CO_abs="9815.892280" CO2_abs="566665.030613" HC_abs="57.994492" PMx_abs="10.089987" NOx_abs="230.450172" fuel_abs="243.586055" electricity_abs="0"/>
    </tripinfo>
    <tripinfo id="carIn82220:1" depart="57619.00" departLane="-306240162#1_0" departPos="5.10" departSpeed="0.00" departDelay="3.50" arrival="57834.00" arrivalLane="386687235_2" arrivalPos="80.84" arrivalSpeed="13.10" duration="215.00" routeLength="2257.41" waitingTime="26.00" waitingCount="2" stopTime="0.00" timeLoss="64.42" rerouteNo="1" devices="tripinfo_carIn82220:1 routing_carIn82220:1 emissions_carIn82220:1" vType="default_016" speedFactor="0.99" vaporized="">
        <emissions CO_abs="10513.726122" CO2_abs="587161.266125" HC_abs="61.739528" PMx_abs="11.010834" NOx_abs="242.302930" fuel_abs="252.395995" electricity_abs="0"/>
    </tripinfo>
    <tripinfo id="carIn462:1" depart="57622.00" departLane="-306240162#1_0" departPos="5.10" departSpeed="0.00" departDelay="4.80" arrival="57835.00" arrivalLane="386687235_2" arrivalPos="80.84" arrivalSpeed="14.85" duration="213.00" routeLength="2257.41" waitingTime="25.00" waitingCount="2" stopTime="0.00" timeLoss="82.60" rerouteNo="1" devices="tripinfo_carIn462:1 routing_carIn462:1 emissions_carIn462:1" vType="default_016" speedFactor="1.14" vaporized="">
        <emissions CO_abs="11645.711025" CO2_abs="680713.778842" HC_abs="69.258860" PMx_abs="13.240892" NOx_abs="284.514804" fuel_abs="292.609059" electricity_abs="0"/>
    </tripinfo>
    <tripinfo id="h16072c2:3" depart="57663.00" departLane="315358254#0_1" departPos="5.10" departSpeed="0.00" departDelay="2.50" arrival="57836.00" arrivalLane="386687235_1" arrivalPos="80.84" arrivalSpeed="16.02" duration="173.00" routeLength="1611.92" waitingTime="27.00" waitingCount="3" stopTime="0.00" timeLoss="77.33" rerouteNo="1" devices="tripinfo_h16072c2:3 routing_h16072c2:3 emissions_h16072c2:3" vType="default_016" speedFactor="1.23" vaporized="">
        <emissions CO_abs="9697.874975" CO2_abs="510306.227272" HC_abs="56.194304" PMx_abs="9.754015" NOx_abs="212.428650" fuel_abs="219.359364" electricity_abs="0"/>
    </tripinfo>
    <tripinfo id="carIn116184:1" depart="57627.00" departLane="-306240162#1_0" departPos="5.10" departSpeed="0.00" departDelay="0.10" arrival="57837.00" arrivalLane="386687235_1" arrivalPos="80.84" arrivalSpeed="15.17" duration="210.00" routeLength="2257.41" waitingTime="36.00" waitingCount="3" stopTime="0.00" timeLoss="74.90" rerouteNo="1" devices="tripinfo_carIn116184:1 routing_carIn116184:1 emissions_carIn116184:1" vType="default_016" speedFactor="1.10" vaporized="">
        <emissions CO_abs="11243.033538" CO2_abs="621547.541221" HC_abs="65.857750" PMx_abs="12.106518" NOx_abs="258.469750" fuel_abs="267.176697" electricity_abs="0"/>
    </tripinfo>
    <tripinfo id="carIn12775:1" depart="57676.00" departLane="10425609#0_1" departPos="5.10" departSpeed="0.00" departDelay="0.60" arrival="57838.00" arrivalLane="18809673#0_1" arrivalPos="473.56" arrivalSpeed="14.67" duration="162.00" routeLength="1959.45" waitingTime="8.00" waitingCount="1" stopTime="0.00" timeLoss="24.45" rerouteNo="1" devices="tripinfo_carIn12775:1 routing_carIn12775:1 emissions_carIn12775:1" vType="default_016" speedFactor="1.06" vaporized="">
        <emissions CO_abs="4568.586118" CO2_abs="377807.790004" HC_abs="29.517888" PMx_abs="6.092893" NOx_abs="148.303822" fuel_abs="162.403461" electricity_abs="0"/>
    </tripinfo>
    <tripinfo id="carIn82278:1" depart="57702.00" departLane="-306240162#1_0" departPos="5.10" departSpeed="0.00" departDelay="0.70" arrival="57851.00" arrivalLane="399835085#1_1" arrivalPos="212.23" arrivalSpeed="8.82" duration="149.00" routeLength="1093.26" waitingTime="48.00" waitingCount="2" stopTime="0.00" timeLoss="75.49" rerouteNo="1" devices="tripinfo_carIn82278:1 routing_carIn82278:1 emissions_carIn82278:1" vType="default_016" speedFactor="1.07" vaporized="">
        <emissions CO_abs="11851.568604" CO2_abs="440809.952340" HC_abs="64.423331" PMx_abs="9.077487" NOx_abs="187.287166" fuel_abs="189.487842" electricity_abs="0"/>
    </tripinfo>
    <tripinfo id="randUni31145:1" depart="57814.00" departLane="10425609#0_1" departPos="5.10" departSpeed="0.00" departDelay="0.30" arrival="57852.00" arrivalLane="201956810_1" arrivalPos="71.65" arrivalSpeed="14.58" duration="38.00" routeLength="255.78" waitingTime="9.00" waitingCount="1" stopTime="0.00" timeLoss="20.66" rerouteNo="1" devices="tripinfo_randUni31145:1 routing_randUni31145:1 emissions_randUni31145:1" vType="random_016" speedFactor="1.14" vaporized="">
        <emissions CO_abs="2886.775220" CO2_abs="133061.244009" HC_abs="16.299500" PMx_abs="2.679807" NOx_abs="56.734349" fuel_abs="57.197530" electricity_abs="0"/>
    </tripinfo>
    <tripinfo id="carIn86816:1" depart="57617.00" departLane="128361102#0_1" departPos="5.10" departSpeed="0.00" departDelay="0.80" arrival="57856.00" arrivalLane="201956811#0_1" arrivalPos="40.40" arrivalSpeed="14.98" duration="239.00" routeLength="2067.33" waitingTime="81.00" waitingCount="2" stopTime="0.00" timeLoss="112.65" rerouteNo="1" devices="tripinfo_carIn86816:1 routing_carIn86816:1 emissions_carIn86816:1" vType="default_016" speedFactor="1.20" vaporized="">
        <emissions CO_abs="18164.054825" CO2_abs="672137.756795" HC_abs="98.368851" PMx_abs="13.304268" NOx_abs="281.191650" fuel_abs="288.928039" electricity_abs="0"/>
    </tripinfo>
    <tripinfo id="h17890c1:3" depart="57792.00" departLane="386687232#0_1" departPos="5.10" departSpeed="0.00" departDelay="0.00" arrival="57857.00" arrivalLane="32978638#0_1" arrivalPos="49.29" arrivalSpeed="15.21" duration="65.00" routeLength="792.72" waitingTime="0.00" waitingCount="0" stopTime="0.00" timeLoss="12.60" rerouteNo="1" devices="tripinfo_h17890c1:3 routing_h17890c1:3 emissions_h17890c1:3" vType="default_016" speedFactor="1.12" vaporized="">
        <emissions CO_abs="3277.791403" CO2_abs="227731.194574" HC_abs="20.259842" PMx_abs="4.161732" NOx_abs="93.415414" fuel_abs="97.891545" electricity_abs="0"/>
    </tripinfo>
    <tripinfo id="randUni2407:1" depart="57820.00" departLane="10425609#0_1" departPos="5.10" departSpeed="0.00" departDelay="0.80" arrival="57857.00" arrivalLane="201956810_1" arrivalPos="71.65" arrivalSpeed="12.66" duration="37.00" routeLength="255.78" waitingTime="5.00" waitingCount="1" stopTime="0.00" timeLoss="16.17" rerouteNo="1" devices="tripinfo_randUni2407:1 routing_randUni2407:1 emissions_randUni2407:1" vType="random_016" speedFactor="0.96" vaporized="">
        <emissions CO_abs="2152.887407" CO2_abs="105778.217907" HC_abs="12.291432" PMx_abs="1.977473" NOx_abs="44.223338" fuel_abs="45.469787" electricity_abs="0"/>
    </tripinfo>
    <tripinfo id="randUni15030:1" depart="57735.00" departLane="386687232#0_1" departPos="5.10" departSpeed="0.00" departDelay="0.10" arrival="57858.00" arrivalLane="26677539_1" arrivalPos="151.98" arrivalSpeed="6.39" duration="123.00" routeLength="919.89" waitingTime="15.00" waitingCount="1" stopTime="0.00" timeLoss="30.68" rerouteNo="1" devices="tripinfo_randUni15030:1 routing_randUni15030:1 emissions_randUni15030:1" vType="random_016" speedFactor="0.90" vaporized="">
        <emissions CO_abs="5729.433131" CO2_abs="247107.990168" HC_abs="31.797664" PMx_abs="4.188870" NOx_abs="100.500852" fuel_abs="106.223012" electricity_abs="0"/>
    </tripinfo>
    <tripinfo id="carIn12858:1" depart="57661.00" departLane="128361109#1_1" departPos="5.10" departSpeed="0.00" departDelay="0.90" arrival="57859.00" arrivalLane="399835085#1_1" arrivalPos="212.23" arrivalSpeed="7.36" duration="198.00" routeLength="1738.12" waitingTime="41.00" waitingCount="3" stopTime="0.00" timeLoss="72.42" rerouteNo="1" devices="tripinfo_carIn12858:1 routing_carIn12858:1 emissions_carIn12858:1" vType="default_016" speedFactor="0.92" vaporized="">
        <emissions CO_abs="12343.337011" CO2_abs="543806.403899" HC_abs="69.081925" PMx_abs="10.708616" NOx_abs="227.802345" fuel_abs="233.761002" electricity_abs="0"/>
    </tripinfo>
    <tripinfo id="h17600c1:1" depart="57662.00" departLane="272042143_1" departPos="5.10" departSpeed="0.00" departDelay="0.30" arrival="57863.00" arrivalLane="201238729#3_1" arrivalPos="431.02" arrivalSpeed="13.18" duration="201.00" routeLength="2100.26" waitingTime="23.00" waitingCount="2" stopTime="0.00" timeLoss="44.16" rerouteNo="1" devices="tripinfo_h17600c1:1 routing_h17600c1:1 emissions_h17600c1:1" vType="default_016" speedFactor="0.97" vaporized="">
        <emissions CO_abs="7051.970428" CO2_abs="428819.825675" HC_abs="42.124467" PMx_abs="7.253702" NOx_abs="171.900589" fuel_abs="184.332321" electricity_abs="0"/>
    </tripinfo>
    <tripinfo id="carIn75660:1" depart="57679.00" departLane="128361109#1_1" departPos="5.10" departSpeed="0.00" departDelay="3.40" arrival="57863.00" arrivalLane="386687235_2" arrivalPos="80.84" arrivalSpeed="14.16" duration="184.00" routeLength="2088.57" waitingTime="10.00" waitingCount="2" stopTime="0.00" timeLoss="37.68" rerouteNo="1" devices="tripinfo_carIn75660:1 routing_carIn75660:1 emissions_carIn75660:1" vType="default_016" speedFactor="1.03" vaporized="">
        <emissions CO_abs="5348.771194" CO2_abs="441269.934177" HC_abs="34.431030" PMx_abs="6.987460" NOx_abs="172.796406" fuel_abs="189.683282" electricity_abs="0"/>
    </tripinfo>
    <tripinfo id="carIn85747:1" depart="57673.00" departLane="128361109#1_1" departPos="5.10" departSpeed="0.00" departDelay="0.70" arrival="57864.00" arrivalLane="386687235_1" arrivalPos="80.84" arrivalSpeed="13.70" duration="191.00" routeLength="2088.57" waitingTime="24.00" waitingCount="2" stopTime="0.00" timeLoss="45.28" rerouteNo="1" devices="tripinfo_carIn85747:1 routing_carIn85747:1 emissions_carIn85747:1" vType="default_016" speedFactor="1.04" vaporized="">
        <emissions CO_abs="7012.976740" CO2_abs="459421.572174" HC_abs="42.531139" PMx_abs="7.518175" NOx_abs="181.011336" fuel_abs="197.486834" electricity_abs="0"/>
    </tripinfo>
    <tripinfo id="carIn7949:1" depart="57676.00" departLane="128361109#1_1" departPos="5.10" departSpeed="0.00" departDelay="2.10" arrival="57866.00" arrivalLane="386687235_1" arrivalPos="80.84" arrivalSpeed="13.10" duration="190.00" routeLength="2088.57" waitingTime="11.00" waitingCount="2" stopTime="0.00" timeLoss="32.89" rerouteNo="1" devices="tripinfo_carIn7949:1 routing_carIn7949:1 emissions_carIn7949:1" vType="default_016" speedFactor="0.96" vaporized="">
        <emissions CO_abs="5347.847051" CO2_abs="413236.637947" HC_abs="33.950923" PMx_abs="6.514000" NOx_abs="162.164060" fuel_abs="177.633268" electricity_abs="0"/>
    </tripinfo>