<?xml version="1.0" encoding="UTF-8"?>

<!-- generated on 2021-10-26 15:10:48 by Eclipse SUMO sumo Version 1.10.0
<configuration xmlns:xsi="http://www.w3.org/2001/XMLSchema-instance" xsi:noNamespaceSchemaLocation="http://sumo.dlr.de/xsd/sumoConfiguration.xsd">

    <input>
        <net-file value="/Users/behradkoohy/sumo-scratchpad/RESCO/environments/ingolstadt21/ingolstadt21.net.xml"/>
        <route-files value="/Users/behradkoohy/sumo-scratchpad/RESCO/environments/ingolstadt21/ingolstadt21.rou.xml"/>
    </input>

    <output>
        <tripinfo-output value="/Users/behradkoohy/sumo-scratchpad/RESCO/logs/IPPO-tr0-ingolstadt21-21-drq_norm-wait_norm/tripinfo_9.xml"/>
        <tripinfo-output.write-unfinished value="true"/>
    </output>

    <time>
        <begin value="57600"/>
        <end value="61200"/>
    </time>

    <processing>
        <time-to-teleport value="-1"/>
    </processing>

    <report>
        <no-warnings value="true"/>
        <no-step-log value="true"/>
    </report>

    <emissions>
        <device.emissions.probability value="1"/>
    </emissions>

    <traci_server>
        <remote-port value="61055"/>
    </traci_server>

    <random_number>
        <random value="true"/>
    </random_number>

</configuration>
-->

<tripinfos xmlns:xsi="http://www.w3.org/2001/XMLSchema-instance" xsi:noNamespaceSchemaLocation="http://sumo.dlr.de/xsd/tripinfo_file.xsd">
    <tripinfo id="h15454c2:3" depart="57612.00" departLane="24608844_1" departPos="5.10" departSpeed="0.00" departDelay="0.50" arrival="57654.00" arrivalLane="32978638#0_1" arrivalPos="49.29" arrivalSpeed="13.91" duration="42.00" routeLength="354.79" waitingTime="0.00" waitingCount="0" stopTime="0.00" timeLoss="7.59" rerouteNo="1" devices="tripinfo_h15454c2:3 routing_h15454c2:3 emissions_h15454c2:3" vType="default_016" speedFactor="1.02" vaporized="">
        <emissions CO_abs="2267.104334" CO2_abs="122082.398896" HC_abs="13.190233" PMx_abs="2.228440" NOx_abs="50.763847" fuel_abs="52.478185" electricity_abs="0"/>
    </tripinfo>
    <tripinfo id="carIn60260:1" depart="57606.00" departLane="315358254#0_1" departPos="5.10" departSpeed="0.00" departDelay="0.90" arrival="57658.00" arrivalLane="399835085#1_1" arrivalPos="212.23" arrivalSpeed="7.19" duration="52.00" routeLength="430.98" waitingTime="0.00" waitingCount="0" stopTime="0.00" timeLoss="6.48" rerouteNo="1" devices="tripinfo_carIn60260:1 routing_carIn60260:1 emissions_carIn60260:1" vType="default_016" speedFactor="1.02" vaporized="">
        <emissions CO_abs="2142.646294" CO2_abs="113110.563269" HC_abs="12.359350" PMx_abs="1.861134" NOx_abs="45.785404" fuel_abs="48.621901" electricity_abs="0"/>
    </tripinfo>
    <tripinfo id="carIn53971:1" depart="57640.00" departLane="272042143_1" departPos="5.10" departSpeed="0.00" departDelay="0.80" arrival="57691.00" arrivalLane="24634414#1_1" arrivalPos="162.19" arrivalSpeed="9.16" duration="51.00" routeLength="493.04" waitingTime="0.00" waitingCount="0" stopTime="0.00" timeLoss="9.66" rerouteNo="1" devices="tripinfo_carIn53971:1 routing_carIn53971:1 emissions_carIn53971:1" vType="default_016" speedFactor="1.12" vaporized="">
        <emissions CO_abs="2696.563727" CO2_abs="157602.439575" HC_abs="15.988357" PMx_abs="2.864304" NOx_abs="65.201203" fuel_abs="67.746633" electricity_abs="0"/>
    </tripinfo>
    <tripinfo id="h7800c1:5" depart="57696.00" departLane="-447569998#1_1" departPos="5.10" departSpeed="0.00" departDelay="0.00" arrival="57726.00" arrivalLane="-447569998#1_2" arrivalPos="180.76" arrivalSpeed="5.65" duration="30.00" routeLength="175.66" waitingTime="0.00" waitingCount="0" stopTime="0.00" timeLoss="3.85" rerouteNo="1" devices="tripinfo_h7800c1:5 routing_h7800c1:5 emissions_h7800c1:5" vType="default_016" speedFactor="0.83" vaporized="">
        <emissions CO_abs="1404.444227" CO2_abs="52623.794780" HC_abs="7.599918" PMx_abs="0.887852" NOx_abs="21.672171" fuel_abs="22.621247" electricity_abs="0"/>
    </tripinfo>
    <tripinfo id="h3688c1:1" depart="57625.00" departLane="201201950#1_1" departPos="5.10" departSpeed="0.00" departDelay="0.00" arrival="57735.00" arrivalLane="32978638#0_1" arrivalPos="49.29" arrivalSpeed="11.75" duration="110.00" routeLength="1089.75" waitingTime="9.00" waitingCount="1" stopTime="0.00" timeLoss="22.87" rerouteNo="1" devices="tripinfo_h3688c1:1 routing_h3688c1:1 emissions_h3688c1:1" vType="default_016" speedFactor="0.91" vaporized="">
        <emissions CO_abs="3868.316034" CO2_abs="257617.336963" HC_abs="23.609980" PMx_abs="4.177728" NOx_abs="102.476167" fuel_abs="110.739210" electricity_abs="0"/>
    </tripinfo>
    <tripinfo id="h5979c1:5" depart="57669.00" departLane="399835085#1_1" departPos="5.10" departSpeed="0.00" departDelay="0.00" arrival="57749.00" arrivalLane="-315358254#1_1" arrivalPos="137.16" arrivalSpeed="13.50" duration="80.00" routeLength="659.33" waitingTime="0.00" waitingCount="0" stopTime="0.00" timeLoss="9.07" rerouteNo="1" devices="tripinfo_h5979c1:5 routing_h5979c1:5 emissions_h5979c1:5" vType="default_016" speedFactor="1.03" vaporized="">
        <emissions CO_abs="3004.924475" CO2_abs="157957.591442" HC_abs="17.329575" PMx_abs="2.582568" NOx_abs="63.910361" fuel_abs="67.899952" electricity_abs="0"/>
    </tripinfo>
    <tripinfo id="h3568c1:3" depart="57656.00" departLane="266565295#5_1" departPos="5.10" departSpeed="0.00" departDelay="0.80" arrival="57761.00" arrivalLane="-24634415_1" arrivalPos="62.03" arrivalSpeed="12.12" duration="105.00" routeLength="807.40" waitingTime="14.00" waitingCount="1" stopTime="0.00" timeLoss="31.86" rerouteNo="1" devices="tripinfo_h3568c1:3 routing_h3568c1:3 emissions_h3568c1:3" vType="default_016" speedFactor="0.88" vaporized="">
        <emissions CO_abs="5553.507816" CO2_abs="249723.329069" HC_abs="31.108618" PMx_abs="4.450474" NOx_abs="102.805977" fuel_abs="107.346737" electricity_abs="0"/>
    </tripinfo>
    <tripinfo id="carIn22761:1" depart="57616.00" departLane="-306240162#1_0" departPos="5.10" departSpeed="0.00" departDelay="2.10" arrival="57764.00" arrivalLane="399835085#1_1" arrivalPos="212.23" arrivalSpeed="6.76" duration="148.00" routeLength="1093.26" waitingTime="30.00" waitingCount="2" stopTime="0.00" timeLoss="55.82" rerouteNo="1" devices="tripinfo_carIn22761:1 routing_carIn22761:1 emissions_carIn22761:1" vType="default_016" speedFactor="0.85" vaporized="">
        <emissions CO_abs="8420.982903" CO2_abs="355645.304157" HC_abs="46.663357" PMx_abs="6.757874" NOx_abs="148.114888" fuel_abs="152.878532" electricity_abs="0"/>
    </tripinfo>
    <tripinfo id="carIn30817:1" depart="57681.00" departLane="315358244_1" departPos="5.10" departSpeed="0.00" departDelay="0.20" arrival="57770.00" arrivalLane="447569997#1_1" arrivalPos="180.93" arrivalSpeed="7.54" duration="89.00" routeLength="718.04" waitingTime="13.00" waitingCount="2" stopTime="0.00" timeLoss="29.52" rerouteNo="1" devices="tripinfo_carIn30817:1 routing_carIn30817:1 emissions_carIn30817:1" vType="default_016" speedFactor="1.03" vaporized="">
        <emissions CO_abs="4917.861407" CO2_abs="215659.111376" HC_abs="27.432133" PMx_abs="3.981388" NOx_abs="89.428746" fuel_abs="92.703717" electricity_abs="0"/>
    </tripinfo>
    <tripinfo id="carIn27009:1" depart="57673.00" departLane="-447569998#1_1" departPos="5.10" departSpeed="0.00" departDelay="0.50" arrival="57774.00" arrivalLane="-26677539_1" arrivalPos="152.75" arrivalSpeed="8.00" duration="101.00" routeLength="699.63" waitingTime="2.00" waitingCount="1" stopTime="0.00" timeLoss="16.35" rerouteNo="1" devices="tripinfo_carIn27009:1 routing_carIn27009:1 emissions_carIn27009:1" vType="default_015" speedFactor="0.99" vaporized="">
        <emissions CO_abs="4374.211850" CO2_abs="199066.767089" HC_abs="24.489094" PMx_abs="3.255159" NOx_abs="80.990579" fuel_abs="85.571677" electricity_abs="0"/>
    </tripinfo>
    <tripinfo id="h12244c1:3" depart="57612.00" departLane="315358244_1" departPos="5.10" departSpeed="0.00" departDelay="0.40" arrival="57777.00" arrivalLane="386687235_1" arrivalPos="80.84" arrivalSpeed="12.14" duration="165.00" routeLength="1186.14" waitingTime="55.00" waitingCount="2" stopTime="0.00" timeLoss="73.69" rerouteNo="1" devices="tripinfo_h12244c1:3 routing_h12244c1:3 emissions_h12244c1:3" vType="default_016" speedFactor="0.95" vaporized="">
        <emissions CO_abs="11288.004074" CO2_abs="366723.517250" HC_abs="59.978142" PMx_abs="7.138002" NOx_abs="154.203692" fuel_abs="157.642579" electricity_abs="0"/>
    </tripinfo>
    <tripinfo id="h4538c1:1" depart="57701.00" departLane="-10427692#1_1" departPos="5.10" departSpeed="0.00" departDelay="0.00" arrival="57777.00" arrivalLane="-128361102#1_1" arrivalPos="274.68" arrivalSpeed="13.17" duration="76.00" routeLength="440.74" waitingTime="34.00" waitingCount="1" stopTime="0.00" timeLoss="43.59" rerouteNo="1" devices="tripinfo_h4538c1:1 routing_h4538c1:1 emissions_h4538c1:1" vType="default_016" speedFactor="0.98" vaporized="">
        <emissions CO_abs="6689.892884" CO2_abs="200083.357661" HC_abs="35.157287" PMx_abs="4.056443" NOx_abs="85.205475" fuel_abs="86.009568" electricity_abs="0"/>
    </tripinfo>
    <tripinfo id="h9563c2:5" depart="57631.00" departLane="315358244_1" departPos="5.10" departSpeed="0.00" departDelay="0.70" arrival="57779.00" arrivalLane="386687235_1" arrivalPos="80.84" arrivalSpeed="11.36" duration="148.00" routeLength="1186.14" waitingTime="32.00" waitingCount="2" stopTime="0.00" timeLoss="51.73" rerouteNo="1" devices="tripinfo_h9563c2:5 routing_h9563c2:5 emissions_h9563c2:5" vType="default_016" speedFactor="0.89" vaporized="">
        <emissions CO_abs="7703.830331" CO2_abs="315971.248717" HC_abs="42.449423" PMx_abs="5.725037" NOx_abs="130.172549" fuel_abs="135.824734" electricity_abs="0"/>
    </tripinfo>
    <tripinfo id="h3326c1:2" depart="57656.00" departLane="22716069#0_1" departPos="5.10" departSpeed="0.00" departDelay="0.00" arrival="57784.00" arrivalLane="24634517#13_1" arrivalPos="111.62" arrivalSpeed="11.62" duration="128.00" routeLength="1312.81" waitingTime="0.00" waitingCount="0" stopTime="0.00" timeLoss="15.11" rerouteNo="1" devices="tripinfo_h3326c1:2 routing_h3326c1:2 emissions_h3326c1:2" vType="default_016" speedFactor="0.87" vaporized="">
        <emissions CO_abs="4354.886794" CO2_abs="307329.299515" HC_abs="26.969260" PMx_abs="4.913770" NOx_abs="122.307485" fuel_abs="132.108192" electricity_abs="0"/>
    </tripinfo>
    <tripinfo id="carIn121703:1" depart="57647.00" departLane="386687232#0_1" departPos="5.10" departSpeed="0.00" departDelay="0.30" arrival="57791.00" arrivalLane="-315358244_1" arrivalPos="33.95" arrivalSpeed="15.00" duration="144.00" routeLength="1157.39" waitingTime="52.00" waitingCount="2" stopTime="0.00" timeLoss="71.06" rerouteNo="1" devices="tripinfo_carIn121703:1 routing_carIn121703:1 emissions_carIn121703:1" vType="default_016" speedFactor="1.17" vaporized="">
        <emissions CO_abs="10941.966300" CO2_abs="402984.719505" HC_abs="59.125374" PMx_abs="7.904016" NOx_abs="167.949031" fuel_abs="173.228911" electricity_abs="0"/>
    </tripinfo>
    <tripinfo id="h3154c1:1" depart="57658.00" departLane="24634507_1" departPos="5.10" departSpeed="0.00" departDelay="0.00" arrival="57798.00" arrivalLane="-266565295#5_1" arrivalPos="172.76" arrivalSpeed="12.96" duration="140.00" routeLength="1206.22" waitingTime="26.00" waitingCount="2" stopTime="0.00" timeLoss="47.67" rerouteNo="1" devices="tripinfo_h3154c1:1 routing_h3154c1:1 emissions_h3154c1:1" vType="default_016" speedFactor="0.96" vaporized="">
        <emissions CO_abs="7647.168295" CO2_abs="354438.188828" HC_abs="43.143194" PMx_abs="6.531896" NOx_abs="146.537211" fuel_abs="152.359296" electricity_abs="0"/>
    </tripinfo>
    <tripinfo id="h317c2:1" depart="57707.00" departLane="-32978638#0_1" departPos="5.10" departSpeed="0.00" departDelay="0.10" arrival="57804.00" arrivalLane="-266565295#5_1" arrivalPos="172.76" arrivalSpeed="14.32" duration="97.00" routeLength="370.53" waitingTime="61.00" waitingCount="1" stopTime="0.00" timeLoss="70.81" rerouteNo="1" devices="tripinfo_h317c2:1 routing_h317c2:1 emissions_h317c2:1" vType="default_016" speedFactor="1.07" vaporized="">
        <emissions CO_abs="11028.569791" CO2_abs="269819.726820" HC_abs="56.548535" PMx_abs="5.961252" NOx_abs="118.202261" fuel_abs="115.987997" electricity_abs="0"/>
    </tripinfo>
    <tripinfo id="h330c1:1" depart="57736.00" departLane="-32978638#0_1" departPos="5.10" departSpeed="0.00" departDelay="0.20" arrival="57805.00" arrivalLane="-266565295#5_1" arrivalPos="172.76" arrivalSpeed="17.46" duration="69.00" routeLength="370.53" waitingTime="35.00" waitingCount="1" stopTime="0.00" timeLoss="48.14" rerouteNo="1" devices="tripinfo_h330c1:1 routing_h330c1:1 emissions_h330c1:1" vType="default_016" speedFactor="1.32" vaporized="">
        <emissions CO_abs="8023.320225" CO2_abs="245696.913068" HC_abs="42.380311" PMx_abs="5.377187" NOx_abs="107.274905" fuel_abs="105.616629" electricity_abs="0"/>
    </tripinfo>
    <tripinfo id="carIn107084:1" depart="57601.00" departLane="124812856#0_1" departPos="5.10" departSpeed="0.00" departDelay="0.70" arrival="57807.00" arrivalLane="-128361102#1_1" arrivalPos="274.68" arrivalSpeed="12.81" duration="206.00" routeLength="2250.49" waitingTime="9.00" waitingCount="1" stopTime="0.00" timeLoss="34.03" rerouteNo="1" devices="tripinfo_carIn107084:1 routing_carIn107084:1 emissions_carIn107084:1" vType="default_016" speedFactor="0.95" vaporized="">
        <emissions CO_abs="6420.552055" CO2_abs="471645.544117" HC_abs="40.239317" PMx_abs="7.643448" NOx_abs="187.011572" fuel_abs="202.740728" electricity_abs="0"/>
    </tripinfo>
    <tripinfo id="carIn77943:1" depart="57608.00" departLane="124812856#0_1" departPos="5.10" departSpeed="0.00" departDelay="2.50" arrival="57809.00" arrivalLane="-128361102#1_1" arrivalPos="274.68" arrivalSpeed="15.13" duration="201.00" routeLength="2232.46" waitingTime="12.00" waitingCount="2" stopTime="0.00" timeLoss="58.85" rerouteNo="1" devices="tripinfo_carIn77943:1 routing_carIn77943:1 emissions_carIn77943:1" vType="default_016" speedFactor="1.15" vaporized="">
        <emissions CO_abs="8262.231251" CO2_abs="574319.446562" HC_abs="51.135587" PMx_abs="10.244356" NOx_abs="233.902036" fuel_abs="246.874878" electricity_abs="0"/>
    </tripinfo>
    <tripinfo id="carIn129809:1" depart="57729.00" departLane="-447569998#1_1" departPos="5.10" departSpeed="0.00" departDelay="1.00" arrival="57812.00" arrivalLane="-315358244_2" arrivalPos="33.95" arrivalSpeed="13.03" duration="83.00" routeLength="706.49" waitingTime="9.00" waitingCount="1" stopTime="0.00" timeLoss="23.68" rerouteNo="1" devices="tripinfo_carIn129809:1 routing_carIn129809:1 emissions_carIn129809:1" vType="default_015" speedFactor="1.02" vaporized="">
        <emissions CO_abs="3856.356949" CO2_abs="204375.140578" HC_abs="22.330047" PMx_abs="3.546934" NOx_abs="83.241941" fuel_abs="87.852829" electricity_abs="0"/>
    </tripinfo>
    <tripinfo id="h645c1:1" depart="57622.00" departLane="266565295#5_1" departPos="5.10" departSpeed="0.00" departDelay="0.40" arrival="57814.00" arrivalLane="-315358244_1" arrivalPos="33.95" arrivalSpeed="11.87" duration="192.00" routeLength="1910.83" waitingTime="13.00" waitingCount="2" stopTime="0.00" timeLoss="36.51" rerouteNo="1" devices="tripinfo_h645c1:1 routing_h645c1:1 emissions_h645c1:1" vType="default_016" speedFactor="0.89" vaporized="">
        <emissions CO_abs="5945.252327" CO2_abs="396332.725437" HC_abs="36.283697" PMx_abs="6.376925" NOx_abs="157.491998" fuel_abs="170.367366" electricity_abs="0"/>
    </tripinfo>
    <tripinfo id="h16072c2:3" depart="57663.00" departLane="315358254#0_1" departPos="5.10" departSpeed="0.00" departDelay="2.50" arrival="57816.00" arrivalLane="386687235_1" arrivalPos="80.84" arrivalSpeed="14.17" duration="153.00" routeLength="1611.92" waitingTime="18.00" waitingCount="2" stopTime="0.00" timeLoss="39.15" rerouteNo="1" devices="tripinfo_h16072c2:3 routing_h16072c2:3 emissions_h16072c2:3" vType="default_016" speedFactor="1.03" vaporized="">
        <emissions CO_abs="6014.888173" CO2_abs="368041.852101" HC_abs="35.925424" PMx_abs="6.363135" NOx_abs="148.172626" fuel_abs="158.206093" electricity_abs="0"/>
    </tripinfo>
    <tripinfo id="h5216c1:1" depart="57664.00" departLane="224892339#0_1" departPos="5.10" departSpeed="0.00" departDelay="0.00" arrival="57816.00" arrivalLane="386687235_2" arrivalPos="80.84" arrivalSpeed="14.52" duration="152.00" routeLength="1823.78" waitingTime="11.00" waitingCount="2" stopTime="0.00" timeLoss="36.52" rerouteNo="1" devices="tripinfo_h5216c1:1 routing_h5216c1:1 emissions_h5216c1:1" vType="default_016" speedFactor="1.11" vaporized="">
        <emissions CO_abs="7418.384910" CO2_abs="464440.968678" HC_abs="44.639492" PMx_abs="8.416487" NOx_abs="188.734821" fuel_abs="199.643457" electricity_abs="0"/>
    </tripinfo>
    <tripinfo id="carIn107282:1" depart="57749.00" departLane="-447569998#1_1" departPos="5.10" departSpeed="0.00" departDelay="0.00" arrival="57817.00" arrivalLane="315358242#0_1" arrivalPos="165.37" arrivalSpeed="12.89" duration="68.00" routeLength="448.50" waitingTime="15.00" waitingCount="1" stopTime="0.00" timeLoss="23.87" rerouteNo="1" devices="tripinfo_carIn107282:1 routing_carIn107282:1 emissions_carIn107282:1" vType="default_016" speedFactor="0.95" vaporized="">
        <emissions CO_abs="4179.978577" CO2_abs="150749.714036" HC_abs="22.549006" PMx_abs="2.836019" NOx_abs="63.146063" fuel_abs="64.802142" electricity_abs="0"/>
    </tripinfo>
    <tripinfo id="carIn82278:1" depart="57702.00" departLane="-306240162#1_0" departPos="5.10" departSpeed="0.00" departDelay="0.70" arrival="57829.00" arrivalLane="399835085#1_1" arrivalPos="212.23" arrivalSpeed="9.31" duration="127.00" routeLength="1093.26" waitingTime="33.00" waitingCount="2" stopTime="0.00" timeLoss="58.20" rerouteNo="1" devices="tripinfo_carIn82278:1 routing_carIn82278:1 emissions_carIn82278:1" vType="default_016" speedFactor="1.14" vaporized="">
        <emissions CO_abs="9184.069465" CO2_abs="422497.683979" HC_abs="51.861670" PMx_abs="8.575080" NOx_abs="178.288470" fuel_abs="181.614444" electricity_abs="0"/>
    </tripinfo>
    <tripinfo id="carIn81046:1" depart="57611.00" departLane="124812856#0_1" departPos="5.10" departSpeed="0.00" departDelay="2.50" arrival="57830.00" arrivalLane="-128361102#1_1" arrivalPos="274.68" arrivalSpeed="11.93" duration="219.00" routeLength="2250.49" waitingTime="9.00" waitingCount="1" stopTime="0.00" timeLoss="32.84" rerouteNo="1" devices="tripinfo_carIn81046:1 routing_carIn81046:1 emissions_carIn81046:1" vType="default_016" speedFactor="0.88" vaporized="">
        <emissions CO_abs="6820.618491" CO2_abs="484603.985338" HC_abs="42.308154" PMx_abs="7.664797" NOx_abs="191.806013" fuel_abs="208.311409" electricity_abs="0"/>
    </tripinfo>
    <tripinfo id="carIn77438:1" depart="57614.00" departLane="124812856#0_1" departPos="5.10" departSpeed="0.00" departDelay="1.10" arrival="57831.00" arrivalLane="-128361102#1_1" arrivalPos="274.68" arrivalSpeed="13.32" duration="217.00" routeLength="2250.49" waitingTime="8.00" waitingCount="1" stopTime="0.00" timeLoss="59.47" rerouteNo="1" devices="tripinfo_carIn77438:1 routing_carIn77438:1 emissions_carIn77438:1" vType="default_016" speedFactor="1.04" vaporized="">
        <emissions CO_abs="7774.769675" CO2_abs="529136.502757" HC_abs="47.810404" PMx_abs="9.094270" NOx_abs="214.529125" fuel_abs="227.453244" electricity_abs="0"/>
    </tripinfo>
    <tripinfo id="carIn28951:1" depart="57606.00" departLane="10425609#0_1" departPos="5.10" departSpeed="0.00" departDelay="0.20" arrival="57833.00" arrivalLane="-128361102#1_1" arrivalPos="274.68" arrivalSpeed="13.28" duration="227.00" routeLength="2113.04" waitingTime="26.00" waitingCount="2" stopTime="0.00" timeLoss="77.70" rerouteNo="1" devices="tripinfo_carIn28951:1 routing_carIn28951:1 emissions_carIn28951:1" vType="default_016" speedFactor="1.04" vaporized="">
        <emissions CO_abs="11710.224824" CO2_abs="628186.795438" HC_abs="68.164207" PMx_abs="11.818754" NOx_abs="261.973390" fuel_abs="270.031236" electricity_abs="0"/>
    </tripinfo>
    <tripinfo id="carIn12858:1" depart="57661.00" departLane="128361109#1_1" departPos="5.10" departSpeed="0.00" departDelay="0.90" arrival="57835.00" arrivalLane="399835085#1_1" arrivalPos="212.23" arrivalSpeed="7.65" duration="174.00" routeLength="1738.12" waitingTime="25.00" waitingCount="3" stopTime="0.00" timeLoss="62.87" rerouteNo="1" devices="tripinfo_carIn12858:1 routing_carIn12858:1 emissions_carIn12858:1" vType="default_016" speedFactor="1.04" vaporized="">
        <emissions CO_abs="8972.081641" CO2_abs="506916.482096" HC_abs="52.860466" PMx_abs="9.755723" NOx_abs="209.691393" fuel_abs="217.901767" electricity_abs="0"/>
    </tripinfo>
    <tripinfo id="carIn86816:1" depart="57617.00" departLane="128361102#0_1" departPos="5.10" departSpeed="0.00" departDelay="0.80" arrival="57836.00" arrivalLane="201956811#0_1" arrivalPos="40.40" arrivalSpeed="13.06" duration="219.00" routeLength="2067.33" waitingTime="41.00" waitingCount="1" stopTime="0.00" timeLoss="65.04" rerouteNo="1" devices="tripinfo_carIn86816:1 routing_carIn86816:1 emissions_carIn86816:1" vType="default_016" speedFactor="0.98" vaporized="">
        <emissions CO_abs="11297.461290" CO2_abs="519512.600169" HC_abs="63.590314" PMx_abs="9.296755" NOx_abs="212.127001" fuel_abs="223.319002" electricity_abs="0"/>
    </tripinfo>
    <tripinfo id="carIn126288:1" depart="57674.00" departLane="272042143_1" departPos="5.10" departSpeed="0.00" departDelay="0.00" arrival="57836.00" arrivalLane="-315358254#1_1" arrivalPos="137.16" arrivalSpeed="13.62" duration="162.00" routeLength="1596.88" waitingTime="32.00" waitingCount="2" stopTime="0.00" timeLoss="51.84" rerouteNo="1" devices="tripinfo_carIn126288:1 routing_carIn126288:1 emissions_carIn126288:1" vType="default_016" speedFactor="1.06" vaporized="">
        <emissions CO_abs="8618.908017" CO2_abs="414542.443749" HC_abs="48.939983" PMx_abs="7.619251" NOx_abs="169.886128" fuel_abs="178.195678" electricity_abs="0"/>
    </tripinfo>
    <tripinfo id="randUni15030:1" depart="57735.00" departLane="386687232#0_1" departPos="5.10" departSpeed="0.00" departDelay="0.10" arrival="57837.00" arrivalLane="26677539_1" arrivalPos="151.98" arrivalSpeed="7.13" duration="102.00" routeLength="919.89" waitingTime="0.00" waitingCount="0" stopTime="0.00" timeLoss="10.66" rerouteNo="1" devices="tripinfo_randUni15030:1 routing_randUni15030:1 emissions_randUni15030:1" vType="random_016" speedFactor="0.92" vaporized="">
        <emissions CO_abs="3360.905304" CO2_abs="198357.276308" HC_abs="19.873032" PMx_abs="3.084780" NOx_abs="78.720798" fuel_abs="85.266181" electricity_abs="0"/>
    </tripinfo>
    <tripinfo id="h3864c1:3" depart="57678.00" departLane="24693977#1_1" departPos="5.10" departSpeed="0.00" departDelay="0.00" arrival="57839.00" arrivalLane="201956820_2" arrivalPos="48.33" arrivalSpeed="16.36" duration="161.00" routeLength="1574.85" waitingTime="29.00" waitingCount="1" stopTime="0.00" timeLoss="53.08" rerouteNo="1" devices="tripinfo_h3864c1:3 routing_h3864c1:3 emissions_h3864c1:3" vType="default_016" speedFactor="1.21" vaporized="">
        <emissions CO_abs="10754.587585" CO2_abs="514833.347978" HC_abs="61.043102" PMx_abs="9.855128" NOx_abs="213.812538" fuel_abs="221.306245" electricity_abs="0"/>
    </tripinfo>
    <tripinfo id="h11737c1:1" depart="57665.00" departLane="272042143_1" departPos="5.10" departSpeed="0.00" departDelay="1.50" arrival="57841.00" arrivalLane="-315358254#1_1" arrivalPos="137.16" arrivalSpeed="10.61" duration="176.00" routeLength="1596.88" waitingTime="13.00" waitingCount="2" stopTime="0.00" timeLoss="34.30" rerouteNo="1" devices="tripinfo_h11737c1:1 routing_h11737c1:1 emissions_h11737c1:1" vType="default_016" speedFactor="0.82" vaporized="">
        <emissions CO_abs="5410.975048" CO2_abs="335624.004096" HC_abs="32.374714" PMx_abs="5.174679" NOx_abs="132.578417" fuel_abs="144.271746" electricity_abs="0"/>
    </tripinfo>
    <tripinfo id="carIn12365:1" depart="57713.00" departLane="315358244_1" departPos="5.10" departSpeed="0.00" departDelay="0.50" arrival="57841.00" arrivalLane="447569997#1_1" arrivalPos="180.93" arrivalSpeed="9.08" duration="128.00" routeLength="718.04" waitingTime="58.00" waitingCount="1" stopTime="0.00" timeLoss="71.12" rerouteNo="1" devices="tripinfo_carIn12365:1 routing_carIn12365:1 emissions_carIn12365:1" vType="default_016" speedFactor="1.09" vaporized="">
        <emissions CO_abs="11552.654743" CO2_abs="313576.384688" HC_abs="59.886175" PMx_abs="6.388639" NOx_abs="133.767848" fuel_abs="134.797520" electricity_abs="0"/>
    </tripinfo>
    <tripinfo id="carIn8642:1" depart="57774.00" departLane="-447569998#1_1" departPos="5.10" departSpeed="0.00" departDelay="0.90" arrival="57842.00" arrivalLane="-315358244_1" arrivalPos="33.95" arrivalSpeed="14.10" duration="68.00" routeLength="706.49" waitingTime="0.00" waitingCount="0" stopTime="0.00" timeLoss="8.66" rerouteNo="1" devices="tripinfo_carIn8642:1 routing_carIn8642:1 emissions_carIn8642:1" vType="default_016" speedFactor="1.03" vaporized="">
        <emissions CO_abs="2470.314268" CO2_abs="169895.647805" HC_abs="15.162368" PMx_abs="2.773049" NOx_abs="67.687664" fuel_abs="73.031121" electricity_abs="0"/>
    </tripinfo>
    <tripinfo id="carIn12152:1" depart="57647.00" departLane="24599188#0.94_1" departPos="5.10" departSpeed="0.00" departDelay="0.50" arrival="57843.00" arrivalLane="-315358254#1_1" arrivalPos="137.16" arrivalSpeed="12.68" duration="196.00" routeLength="2034.31" waitingTime="12.00" waitingCount="2" stopTime="0.00" timeLoss="38.53" rerouteNo="1" devices="tripinfo_carIn12152:1 routing_carIn12152:1 emissions_carIn12152:1" vType="default_016" speedFactor="1.01" vaporized="">
        <emissions CO_abs="6264.913457" CO2_abs="414943.847007" HC_abs="38.231576" PMx_abs="6.972718" NOx_abs="166.491321" fuel_abs="178.367146" electricity_abs="0"/>
    </tripinfo>
    <tripinfo id="S5R_frequency1.2" depart="57657.00" departLane="315358250#0_1" departPos="12.10" departSpeed="0.00" departDelay="45.40" arrival="57844.00" arrivalLane="386687235_1" arrivalPos="80.84" arrivalSpeed="13.21" duration="187.00" routeLength="1115.62" waitingTime="69.00" waitingCount="3" stopTime="0.00" timeLoss="105.11" rerouteNo="1" devices="tripinfo_S5R_frequency1.2 routing_S5R_frequency1.2 emissions_S5R_frequency1.2" vType="bus" speedFactor="1.00" vaporized="">
        <emissions CO_abs="3519.230564" CO2_abs="1747698.704157" HC_abs="774.096193" PMx_abs="367.229675" NOx_abs="14794.788034" fuel_abs="745.225866" electricity_abs="0"/>
    </tripinfo>
    <tripinfo id="h17600c1:1" depart="57662.00" departLane="272042143_1" departPos="5.10" departSpeed="0.00" departDelay="0.30" arrival="57844.00" arrivalLane="201238729#3_1" arrivalPos="431.02" arrivalSpeed="12.14" duration="182.00" routeLength="2100.26" waitingTime="0.00" waitingCount="0" stopTime="0.00" timeLoss="14.47" rerouteNo="1" devices="tripinfo_h17600c1:1 routing_h17600c1:1 emissions_h17600c1:1" vType="default_016" speedFactor="0.90" vaporized="">
        <emissions CO_abs="4214.051631" CO2_abs="379268.899795" HC_abs="27.935571" PMx_abs="5.439640" NOx_abs="145.486242" fuel_abs="163.032168" electricity_abs="0"/>
    </tripinfo>
    <tripinfo id="carIn118591:1" depart="57689.00" departLane="315358244_1" departPos="5.10" departSpeed="0.00" departDelay="0.20" arrival="57852.00" arrivalLane="386687235_1" arrivalPos="80.84" arrivalSpeed="13.80" duration="163.00" routeLength="1186.14" waitingTime="54.00" waitingCount="4" stopTime="0.00" timeLoss="82.66" rerouteNo="1" devices="tripinfo_carIn118591:1 routing_carIn118591:1 emissions_carIn118591:1" vType="default_016" speedFactor="1.07" vaporized="">
        <emissions CO_abs="10296.480366" CO2_abs="387221.634542" HC_abs="55.960067" PMx_abs="7.540624" NOx_abs="162.044594" fuel_abs="166.452738" electricity_abs="0"/>
    </tripinfo>
    <tripinfo id="h5938c1:1" depart="57740.00" departLane="-26677542#0_1" departPos="5.10" departSpeed="0.00" departDelay="0.00" arrival="57856.00" arrivalLane="447569997#1_1" arrivalPos="180.93" arrivalSpeed="7.23" duration="116.00" routeLength="1093.64" waitingTime="2.00" waitingCount="1" stopTime="0.00" timeLoss="17.24" rerouteNo="1" devices="tripinfo_h5938c1:1 routing_h5938c1:1 emissions_h5938c1:1" vType="default_016" speedFactor="0.99" vaporized="">
        <emissions CO_abs="3984.517403" CO2_abs="240192.111467" HC_abs="23.710948" PMx_abs="3.876614" NOx_abs="95.870752" fuel_abs="103.249120" electricity_abs="0"/>
    </tripinfo>
    <tripinfo id="h13311c1:3" depart="57635.00" departLane="399835085#1_1" departPos="5.10" departSpeed="0.00" departDelay="0.00" arrival="57857.00" arrivalLane="32978638#0_1" arrivalPos="49.29" arrivalSpeed="14.72" duration="222.00" routeLength="2580.65" waitingTime="3.00" waitingCount="1" stopTime="0.00" timeLoss="26.57" rerouteNo="1" devices="tripinfo_h13311c1:3 routing_h13311c1:3 emissions_h13311c1:3" vType="default_016" speedFactor="1.09" vaporized="">
        <emissions CO_abs="6265.301479" CO2_abs="493236.732937" HC_abs="39.860068" PMx_abs="7.956964" NOx_abs="194.280539" fuel_abs="212.021622" electricity_abs="0"/>
    </tripinfo>
    <tripinfo id="h825c2:3" depart="57690.00" departLane="315358254#0_1" departPos="5.10" departSpeed="0.00" departDelay="0.50" arrival="57859.00" arrivalLane="32978638#0_1" arrivalPos="49.29" arrivalSpeed="15.74" duration="169.00" routeLength="2207.01" waitingTime="0.00" waitingCount="0" stopTime="0.00" timeLoss="37.43" rerouteNo="1" devices="tripinfo_h825c2:3 routing_h825c2:3 emissions_h825c2:3" vType="default_016" speedFactor="1.23" vaporized="">
        <emissions CO_abs="7357.154124" CO2_abs="572585.273707" HC_abs="46.896172" PMx_abs="10.251594" NOx_abs="231.743863" fuel_abs="246.128772" electricity_abs="0"/>
    </tripinfo>