<?xml version="1.0" encoding="UTF-8"?>

<!-- generated on 2021-10-26 18:47:48 by Eclipse SUMO sumo Version 1.10.0
<configuration xmlns:xsi="http://www.w3.org/2001/XMLSchema-instance" xsi:noNamespaceSchemaLocation="http://sumo.dlr.de/xsd/sumoConfiguration.xsd">

    <input>
        <net-file value="/Users/behradkoohy/sumo-scratchpad/RESCO/environments/ingolstadt21/ingolstadt21.net.xml"/>
        <route-files value="/Users/behradkoohy/sumo-scratchpad/RESCO/environments/ingolstadt21/ingolstadt21.rou.xml"/>
    </input>

    <output>
        <tripinfo-output value="/Users/behradkoohy/sumo-scratchpad/RESCO/logs/IPPO-tr0-ingolstadt21-21-drq_norm-wait_norm/tripinfo_96.xml"/>
        <tripinfo-output.write-unfinished value="true"/>
    </output>

    <time>
        <begin value="57600"/>
        <end value="61200"/>
    </time>

    <processing>
        <time-to-teleport value="-1"/>
    </processing>

    <report>
        <no-warnings value="true"/>
        <no-step-log value="true"/>
    </report>

    <emissions>
        <device.emissions.probability value="1"/>
    </emissions>

    <traci_server>
        <remote-port value="62536"/>
    </traci_server>

    <random_number>
        <random value="true"/>
    </random_number>

</configuration>
-->

<tripinfos xmlns:xsi="http://www.w3.org/2001/XMLSchema-instance" xsi:noNamespaceSchemaLocation="http://sumo.dlr.de/xsd/tripinfo_file.xsd">
    <tripinfo id="h15454c2:3" depart="57612.00" departLane="24608844_1" departPos="5.10" departSpeed="0.00" departDelay="0.50" arrival="57677.00" arrivalLane="32978638#0_1" arrivalPos="49.29" arrivalSpeed="14.05" duration="65.00" routeLength="354.79" waitingTime="21.00" waitingCount="1" stopTime="0.00" timeLoss="32.01" rerouteNo="1" devices="tripinfo_h15454c2:3 routing_h15454c2:3 emissions_h15454c2:3" vType="default_016" speedFactor="1.03" vaporized="">
        <emissions CO_abs="4823.163409" CO2_abs="168026.021353" HC_abs="25.915446" PMx_abs="3.373962" NOx_abs="71.840931" fuel_abs="72.228441" electricity_abs="0"/>
    </tripinfo>
    <tripinfo id="carIn60260:1" depart="57606.00" departLane="315358254#0_1" departPos="5.10" departSpeed="0.00" departDelay="0.90" arrival="57683.00" arrivalLane="399835085#1_1" arrivalPos="212.23" arrivalSpeed="8.35" duration="77.00" routeLength="430.98" waitingTime="22.00" waitingCount="1" stopTime="0.00" timeLoss="31.42" rerouteNo="1" devices="tripinfo_carIn60260:1 routing_carIn60260:1 emissions_carIn60260:1" vType="default_016" speedFactor="1.02" vaporized="">
        <emissions CO_abs="5705.573811" CO2_abs="178237.132874" HC_abs="30.132988" PMx_abs="3.473513" NOx_abs="75.682086" fuel_abs="76.618486" electricity_abs="0"/>
    </tripinfo>
    <tripinfo id="carIn53971:1" depart="57640.00" departLane="272042143_1" departPos="5.10" departSpeed="0.00" departDelay="0.80" arrival="57685.00" arrivalLane="24634414#1_1" arrivalPos="162.19" arrivalSpeed="9.97" duration="45.00" routeLength="493.04" waitingTime="0.00" waitingCount="0" stopTime="0.00" timeLoss="9.05" rerouteNo="1" devices="tripinfo_carIn53971:1 routing_carIn53971:1 emissions_carIn53971:1" vType="default_016" speedFactor="1.28" vaporized="">
        <emissions CO_abs="2718.987008" CO2_abs="164082.841102" HC_abs="16.287743" PMx_abs="3.189537" NOx_abs="69.089117" fuel_abs="70.531905" electricity_abs="0"/>
    </tripinfo>
    <tripinfo id="h12244c1:3" depart="57612.00" departLane="315358244_1" departPos="5.10" departSpeed="0.00" departDelay="0.40" arrival="57713.00" arrivalLane="386687235_1" arrivalPos="80.84" arrivalSpeed="13.44" duration="101.00" routeLength="1186.14" waitingTime="0.00" waitingCount="0" stopTime="0.00" timeLoss="14.42" rerouteNo="1" devices="tripinfo_h12244c1:3 routing_h12244c1:3 emissions_h12244c1:3" vType="default_016" speedFactor="1.00" vaporized="">
        <emissions CO_abs="3433.507137" CO2_abs="252682.495267" HC_abs="21.516071" PMx_abs="4.252598" NOx_abs="101.084585" fuel_abs="108.617413" electricity_abs="0"/>
    </tripinfo>
    <tripinfo id="carIn22761:1" depart="57616.00" departLane="-306240162#1_0" departPos="5.10" departSpeed="0.00" departDelay="2.10" arrival="57743.00" arrivalLane="399835085#1_1" arrivalPos="212.23" arrivalSpeed="7.51" duration="127.00" routeLength="1093.26" waitingTime="27.00" waitingCount="2" stopTime="0.00" timeLoss="51.49" rerouteNo="1" devices="tripinfo_carIn22761:1 routing_carIn22761:1 emissions_carIn22761:1" vType="default_016" speedFactor="1.03" vaporized="">
        <emissions CO_abs="9577.439672" CO2_abs="404443.360581" HC_abs="53.130842" PMx_abs="8.221135" NOx_abs="171.405222" fuel_abs="173.854204" electricity_abs="0"/>
    </tripinfo>
    <tripinfo id="h317c2:1" depart="57707.00" departLane="-32978638#0_1" departPos="5.10" departSpeed="0.00" departDelay="0.10" arrival="57743.00" arrivalLane="-266565295#5_1" arrivalPos="172.76" arrivalSpeed="11.53" duration="36.00" routeLength="370.53" waitingTime="0.00" waitingCount="0" stopTime="0.00" timeLoss="5.36" rerouteNo="1" devices="tripinfo_h317c2:1 routing_h317c2:1 emissions_h317c2:1" vType="default_016" speedFactor="0.89" vaporized="">
        <emissions CO_abs="1588.038496" CO2_abs="100629.074516" HC_abs="9.582819" PMx_abs="1.712398" NOx_abs="40.778101" fuel_abs="43.256263" electricity_abs="0"/>
    </tripinfo>
    <tripinfo id="h3688c1:1" depart="57625.00" departLane="201201950#1_1" departPos="5.10" departSpeed="0.00" departDelay="0.00" arrival="57744.00" arrivalLane="32978638#0_1" arrivalPos="49.29" arrivalSpeed="11.10" duration="119.00" routeLength="1089.75" waitingTime="16.00" waitingCount="1" stopTime="0.00" timeLoss="29.36" rerouteNo="1" devices="tripinfo_h3688c1:1 routing_h3688c1:1 emissions_h3688c1:1" vType="default_016" speedFactor="0.89" vaporized="">
        <emissions CO_abs="5434.805006" CO2_abs="294826.950367" HC_abs="31.599739" PMx_abs="4.917831" NOx_abs="118.477049" fuel_abs="126.734729" electricity_abs="0"/>
    </tripinfo>
    <tripinfo id="h3568c1:3" depart="57656.00" departLane="266565295#5_1" departPos="5.10" departSpeed="0.00" departDelay="0.80" arrival="57746.00" arrivalLane="-24634415_1" arrivalPos="62.03" arrivalSpeed="11.70" duration="90.00" routeLength="807.40" waitingTime="1.00" waitingCount="1" stopTime="0.00" timeLoss="17.82" rerouteNo="1" devices="tripinfo_h3568c1:3 routing_h3568c1:3 emissions_h3568c1:3" vType="default_016" speedFactor="0.89" vaporized="">
        <emissions CO_abs="4098.975836" CO2_abs="237245.062882" HC_abs="24.210129" PMx_abs="4.125304" NOx_abs="97.044828" fuel_abs="101.981942" electricity_abs="0"/>
    </tripinfo>
    <tripinfo id="carIn121703:1" depart="57647.00" departLane="386687232#0_1" departPos="5.10" departSpeed="0.00" departDelay="0.30" arrival="57753.00" arrivalLane="-315358244_1" arrivalPos="33.95" arrivalSpeed="13.46" duration="106.00" routeLength="1157.39" waitingTime="10.00" waitingCount="2" stopTime="0.00" timeLoss="26.55" rerouteNo="1" devices="tripinfo_carIn121703:1 routing_carIn121703:1 emissions_carIn121703:1" vType="default_016" speedFactor="1.06" vaporized="">
        <emissions CO_abs="3691.145573" CO2_abs="256625.297471" HC_abs="22.838375" PMx_abs="4.591253" NOx_abs="104.470072" fuel_abs="110.312011" electricity_abs="0"/>
    </tripinfo>
    <tripinfo id="S5R_frequency1.2" depart="57624.00" departLane="315358250#0_1" departPos="12.10" departSpeed="0.00" departDelay="12.40" arrival="57757.00" arrivalLane="386687235_1" arrivalPos="80.84" arrivalSpeed="13.79" duration="133.00" routeLength="1115.62" waitingTime="17.00" waitingCount="2" stopTime="0.00" timeLoss="51.62" rerouteNo="1" devices="tripinfo_S5R_frequency1.2 routing_S5R_frequency1.2 emissions_S5R_frequency1.2" vType="bus" speedFactor="1.00" vaporized="">
        <emissions CO_abs="2721.046539" CO2_abs="1604070.413690" HC_abs="568.184314" PMx_abs="288.675705" NOx_abs="12734.135235" fuel_abs="684.072210" electricity_abs="0"/>
    </tripinfo>
    <tripinfo id="h7800c1:5" depart="57696.00" departLane="-447569998#1_1" departPos="5.10" departSpeed="0.00" departDelay="0.00" arrival="57765.00" arrivalLane="-447569998#1_2" arrivalPos="180.76" arrivalSpeed="3.25" duration="69.00" routeLength="175.66" waitingTime="42.00" waitingCount="1" stopTime="0.00" timeLoss="48.03" rerouteNo="1" devices="tripinfo_h7800c1:5 routing_h7800c1:5 emissions_h7800c1:5" vType="default_016" speedFactor="1.01" vaporized="">
        <emissions CO_abs="7297.792235" CO2_abs="149361.325586" HC_abs="36.709420" PMx_abs="3.299493" NOx_abs="65.864952" fuel_abs="64.207260" electricity_abs="0"/>
    </tripinfo>
    <tripinfo id="h4538c1:1" depart="57701.00" departLane="-10427692#1_1" departPos="5.10" departSpeed="0.00" departDelay="0.00" arrival="57765.00" arrivalLane="-128361102#1_1" arrivalPos="274.68" arrivalSpeed="13.97" duration="64.00" routeLength="440.74" waitingTime="24.00" waitingCount="1" stopTime="0.00" timeLoss="32.86" rerouteNo="1" devices="tripinfo_h4538c1:1 routing_h4538c1:1 emissions_h4538c1:1" vType="default_016" speedFactor="1.01" vaporized="">
        <emissions CO_abs="5148.971431" CO2_abs="173578.746676" HC_abs="27.495158" PMx_abs="3.391809" NOx_abs="72.898364" fuel_abs="74.615717" electricity_abs="0"/>
    </tripinfo>
    <tripinfo id="h3326c1:2" depart="57656.00" departLane="22716069#0_1" departPos="5.10" departSpeed="0.00" departDelay="0.00" arrival="57769.00" arrivalLane="24634517#13_1" arrivalPos="111.62" arrivalSpeed="12.52" duration="113.00" routeLength="1312.81" waitingTime="0.00" waitingCount="0" stopTime="0.00" timeLoss="14.28" rerouteNo="1" devices="tripinfo_h3326c1:2 routing_h3326c1:2 emissions_h3326c1:2" vType="default_016" speedFactor="0.98" vaporized="">
        <emissions CO_abs="4082.240886" CO2_abs="312139.077545" HC_abs="25.890193" PMx_abs="5.215792" NOx_abs="124.871250" fuel_abs="134.175162" electricity_abs="0"/>
    </tripinfo>
    <tripinfo id="h5979c1:5" depart="57669.00" departLane="399835085#1_1" departPos="5.10" departSpeed="0.00" departDelay="0.00" arrival="57769.00" arrivalLane="-315358254#1_1" arrivalPos="137.16" arrivalSpeed="11.38" duration="100.00" routeLength="659.33" waitingTime="0.00" waitingCount="0" stopTime="0.00" timeLoss="13.30" rerouteNo="1" devices="tripinfo_h5979c1:5 routing_h5979c1:5 emissions_h5979c1:5" vType="default_016" speedFactor="0.85" vaporized="">
        <emissions CO_abs="4100.656663" CO2_abs="176080.896902" HC_abs="22.725797" PMx_abs="2.968290" NOx_abs="72.209385" fuel_abs="75.690937" electricity_abs="0"/>
    </tripinfo>
    <tripinfo id="carIn12365:1" depart="57713.00" departLane="315358244_1" departPos="5.10" departSpeed="0.00" departDelay="0.50" arrival="57776.00" arrivalLane="447569997#1_2" arrivalPos="180.93" arrivalSpeed="9.03" duration="63.00" routeLength="718.04" waitingTime="0.00" waitingCount="0" stopTime="0.00" timeLoss="8.83" rerouteNo="1" devices="tripinfo_carIn12365:1 routing_carIn12365:1 emissions_carIn12365:1" vType="default_016" speedFactor="1.15" vaporized="">
        <emissions CO_abs="2442.529017" CO2_abs="173110.213898" HC_abs="15.086157" PMx_abs="2.909676" NOx_abs="69.267364" fuel_abs="74.412755" electricity_abs="0"/>
    </tripinfo>
    <tripinfo id="carIn80064:1" depart="57603.00" departLane="128361109#1_1" departPos="5.10" departSpeed="0.00" departDelay="0.40" arrival="57777.00" arrivalLane="-315358254#1_1" arrivalPos="137.16" arrivalSpeed="13.89" duration="174.00" routeLength="1587.97" waitingTime="50.00" waitingCount="3" stopTime="0.00" timeLoss="85.43" rerouteNo="1" devices="tripinfo_carIn80064:1 routing_carIn80064:1 emissions_carIn80064:1" vType="default_016" speedFactor="1.01" vaporized="">
        <emissions CO_abs="14130.503311" CO2_abs="598968.289793" HC_abs="78.682634" PMx_abs="12.483210" NOx_abs="254.367861" fuel_abs="257.472443" electricity_abs="0"/>
    </tripinfo>
    <tripinfo id="h330c1:1" depart="57736.00" departLane="-32978638#0_1" departPos="5.10" departSpeed="0.00" departDelay="0.20" arrival="57777.00" arrivalLane="-266565295#5_1" arrivalPos="172.76" arrivalSpeed="11.59" duration="41.00" routeLength="370.53" waitingTime="2.00" waitingCount="1" stopTime="0.00" timeLoss="10.38" rerouteNo="1" devices="tripinfo_h330c1:1 routing_h330c1:1 emissions_h330c1:1" vType="default_016" speedFactor="0.90" vaporized="">
        <emissions CO_abs="1864.234888" CO2_abs="112285.844425" HC_abs="11.098901" PMx_abs="1.850348" NOx_abs="45.079473" fuel_abs="48.267200" electricity_abs="0"/>
    </tripinfo>
    <tripinfo id="carIn30817:1" depart="57681.00" departLane="315358244_1" departPos="5.10" departSpeed="0.00" departDelay="0.20" arrival="57780.00" arrivalLane="447569997#1_1" arrivalPos="180.93" arrivalSpeed="5.88" duration="99.00" routeLength="718.04" waitingTime="11.00" waitingCount="1" stopTime="0.00" timeLoss="22.91" rerouteNo="1" devices="tripinfo_carIn30817:1 routing_carIn30817:1 emissions_carIn30817:1" vType="default_016" speedFactor="0.81" vaporized="">
        <emissions CO_abs="4331.854851" CO2_abs="186217.616313" HC_abs="24.021960" PMx_abs="3.151210" NOx_abs="75.942496" fuel_abs="80.048383" electricity_abs="0"/>
    </tripinfo>
    <tripinfo id="h11737c1:1" depart="57665.00" departLane="272042143_1" departPos="5.10" departSpeed="0.00" departDelay="1.50" arrival="57796.00" arrivalLane="-315358254#1_1" arrivalPos="137.16" arrivalSpeed="14.42" duration="131.00" routeLength="1596.88" waitingTime="2.00" waitingCount="1" stopTime="0.00" timeLoss="23.72" rerouteNo="1" devices="tripinfo_h11737c1:1 routing_h11737c1:1 emissions_h11737c1:1" vType="default_016" speedFactor="1.09" vaporized="">
        <emissions CO_abs="4478.047639" CO2_abs="343881.028854" HC_abs="28.371200" PMx_abs="5.831168" NOx_abs="137.156278" fuel_abs="147.819598" electricity_abs="0"/>
    </tripinfo>
    <tripinfo id="h7181c1:1" depart="57660.00" departLane="315358254#0_1" departPos="5.10" departSpeed="0.00" departDelay="0.10" arrival="57799.00" arrivalLane="306240162#0_0" arrivalPos="220.43" arrivalSpeed="18.70" duration="139.00" routeLength="932.35" waitingTime="73.00" waitingCount="2" stopTime="0.00" timeLoss="93.74" rerouteNo="1" devices="tripinfo_h7181c1:1 routing_h7181c1:1 emissions_h7181c1:1" vType="default_016" speedFactor="1.13" vaporized="">
        <emissions CO_abs="15107.875392" CO2_abs="471634.361875" HC_abs="80.041439" PMx_abs="10.437325" NOx_abs="203.846301" fuel_abs="202.739203" electricity_abs="0"/>
    </tripinfo>
    <tripinfo id="carIn50326:1" depart="57651.00" departLane="128361102#0_1" departPos="5.10" departSpeed="0.00" departDelay="0.30" arrival="57801.00" arrivalLane="18809673#0_1" arrivalPos="473.56" arrivalSpeed="14.05" duration="150.00" routeLength="1591.07" waitingTime="1.00" waitingCount="1" stopTime="0.00" timeLoss="24.56" rerouteNo="1" devices="tripinfo_carIn50326:1 routing_carIn50326:1 emissions_carIn50326:1" vType="default_016" speedFactor="1.04" vaporized="">
        <emissions CO_abs="5481.179228" CO2_abs="376218.892897" HC_abs="33.687127" PMx_abs="6.202637" NOx_abs="150.141042" fuel_abs="161.720901" electricity_abs="0"/>
    </tripinfo>
    <tripinfo id="carIn126288:1" depart="57674.00" departLane="272042143_1" departPos="5.10" departSpeed="0.00" departDelay="0.00" arrival="57803.00" arrivalLane="-315358254#1_1" arrivalPos="137.16" arrivalSpeed="13.07" duration="129.00" routeLength="1596.88" waitingTime="0.00" waitingCount="0" stopTime="0.00" timeLoss="12.86" rerouteNo="1" devices="tripinfo_carIn126288:1 routing_carIn126288:1 emissions_carIn126288:1" vType="default_016" speedFactor="1.01" vaporized="">
        <emissions CO_abs="3864.595728" CO2_abs="327622.516726" HC_abs="25.231488" PMx_abs="5.343208" NOx_abs="129.600441" fuel_abs="140.830727" electricity_abs="0"/>
    </tripinfo>
    <tripinfo id="h9563c2:5" depart="57631.00" departLane="315358244_1" departPos="5.10" departSpeed="0.00" departDelay="0.70" arrival="57807.00" arrivalLane="386687235_1" arrivalPos="80.84" arrivalSpeed="12.39" duration="176.00" routeLength="1186.14" waitingTime="61.00" waitingCount="4" stopTime="0.00" timeLoss="82.37" rerouteNo="1" devices="tripinfo_h9563c2:5 routing_h9563c2:5 emissions_h9563c2:5" vType="default_016" speedFactor="0.92" vaporized="">
        <emissions CO_abs="12320.388955" CO2_abs="406654.393349" HC_abs="65.624017" PMx_abs="7.957012" NOx_abs="171.476934" fuel_abs="174.807317" electricity_abs="0"/>
    </tripinfo>
    <tripinfo id="h3154c1:1" depart="57658.00" departLane="24634507_1" departPos="5.10" departSpeed="0.00" departDelay="0.00" arrival="57807.00" arrivalLane="-266565295#5_1" arrivalPos="172.76" arrivalSpeed="13.35" duration="149.00" routeLength="1206.22" waitingTime="35.00" waitingCount="3" stopTime="0.00" timeLoss="60.87" rerouteNo="1" devices="tripinfo_h3154c1:1 routing_h3154c1:1 emissions_h3154c1:1" vType="default_016" speedFactor="1.01" vaporized="">
        <emissions CO_abs="9470.418705" CO2_abs="409813.139313" HC_abs="52.752983" PMx_abs="7.766809" NOx_abs="170.734254" fuel_abs="176.163065" electricity_abs="0"/>
    </tripinfo>
    <tripinfo id="carIn118591:1" depart="57689.00" departLane="315358244_1" departPos="5.10" departSpeed="0.00" departDelay="0.20" arrival="57809.00" arrivalLane="386687235_1" arrivalPos="80.84" arrivalSpeed="14.11" duration="120.00" routeLength="1186.14" waitingTime="7.00" waitingCount="3" stopTime="0.00" timeLoss="36.40" rerouteNo="1" devices="tripinfo_carIn118591:1 routing_carIn118591:1 emissions_carIn118591:1" vType="default_016" speedFactor="1.03" vaporized="">
        <emissions CO_abs="4747.188690" CO2_abs="303101.818575" HC_abs="28.685982" PMx_abs="5.229094" NOx_abs="122.314695" fuel_abs="130.290847" electricity_abs="0"/>
    </tripinfo>
    <tripinfo id="carIn82220:1" depart="57618.00" departLane="-306240162#1_0" departPos="5.10" departSpeed="0.00" departDelay="2.50" arrival="57821.00" arrivalLane="386687235_2" arrivalPos="80.84" arrivalSpeed="14.46" duration="203.00" routeLength="2257.41" waitingTime="17.00" waitingCount="2" stopTime="0.00" timeLoss="71.87" rerouteNo="1" devices="tripinfo_carIn82220:1 routing_carIn82220:1 emissions_carIn82220:1" vType="default_016" speedFactor="1.13" vaporized="">
        <emissions CO_abs="11163.317286" CO2_abs="644101.233866" HC_abs="66.079943" PMx_abs="12.399777" NOx_abs="266.973968" fuel_abs="276.871376" electricity_abs="0"/>
    </tripinfo>
    <tripinfo id="carIn107084:1" depart="57601.00" departLane="124812856#0_1" departPos="5.10" departSpeed="0.00" departDelay="0.70" arrival="57822.00" arrivalLane="-128361102#1_1" arrivalPos="274.68" arrivalSpeed="10.83" duration="221.00" routeLength="2250.49" waitingTime="4.00" waitingCount="1" stopTime="0.00" timeLoss="26.82" rerouteNo="1" devices="tripinfo_carIn107084:1 routing_carIn107084:1 emissions_carIn107084:1" vType="default_016" speedFactor="0.85" vaporized="">
        <emissions CO_abs="6136.416929" CO2_abs="457622.653159" HC_abs="38.500488" PMx_abs="6.866232" NOx_abs="178.945386" fuel_abs="196.713524" electricity_abs="0"/>
    </tripinfo>
    <tripinfo id="carIn107282:1" depart="57749.00" departLane="-447569998#1_1" departPos="5.10" departSpeed="0.00" departDelay="0.00" arrival="57823.00" arrivalLane="315358242#0_1" arrivalPos="165.37" arrivalSpeed="15.44" duration="74.00" routeLength="448.50" waitingTime="29.00" waitingCount="1" stopTime="0.00" timeLoss="38.07" rerouteNo="1" devices="tripinfo_carIn107282:1 routing_carIn107282:1 emissions_carIn107282:1" vType="default_016" speedFactor="1.18" vaporized="">
        <emissions CO_abs="5991.518593" CO2_abs="193708.821233" HC_abs="31.807558" PMx_abs="3.829620" NOx_abs="81.772699" fuel_abs="83.269095" electricity_abs="0"/>
    </tripinfo>
    <tripinfo id="carIn77943:1" depart="57607.00" departLane="124812856#0_1" departPos="5.10" departSpeed="0.00" departDelay="1.50" arrival="57824.00" arrivalLane="-128361102#1_1" arrivalPos="274.68" arrivalSpeed="12.92" duration="217.00" routeLength="2250.49" waitingTime="9.00" waitingCount="2" stopTime="0.00" timeLoss="53.86" rerouteNo="1" devices="tripinfo_carIn77943:1 routing_carIn77943:1 emissions_carIn77943:1" vType="default_016" speedFactor="1.01" vaporized="">
        <emissions CO_abs="7654.253251" CO2_abs="516355.742521" HC_abs="46.930785" PMx_abs="8.768952" NOx_abs="208.481474" fuel_abs="221.959576" electricity_abs="0"/>
    </tripinfo>
    <tripinfo id="carIn48184:1" depart="57613.00" departLane="-306240162#1_0" departPos="5.10" departSpeed="0.00" departDelay="0.70" arrival="57825.00" arrivalLane="386687235_1" arrivalPos="80.84" arrivalSpeed="12.65" duration="212.00" routeLength="2257.41" waitingTime="22.00" waitingCount="4" stopTime="0.00" timeLoss="60.81" rerouteNo="1" devices="tripinfo_carIn48184:1 routing_carIn48184:1 emissions_carIn48184:1" vType="default_016" speedFactor="0.98" vaporized="">
        <emissions CO_abs="9860.945635" CO2_abs="576829.560110" HC_abs="58.438442" PMx_abs="10.425029" NOx_abs="234.459762" fuel_abs="247.955129" electricity_abs="0"/>
    </tripinfo>
    <tripinfo id="h5216c1:1" depart="57664.00" departLane="224892339#0_1" departPos="5.10" departSpeed="0.00" departDelay="0.00" arrival="57825.00" arrivalLane="386687235_2" arrivalPos="80.84" arrivalSpeed="14.40" duration="161.00" routeLength="1823.78" waitingTime="1.00" waitingCount="1" stopTime="0.00" timeLoss="40.60" rerouteNo="1" devices="tripinfo_h5216c1:1 routing_h5216c1:1 emissions_h5216c1:1" vType="default_016" speedFactor="1.07" vaporized="">
        <emissions CO_abs="6974.251473" CO2_abs="472224.328041" HC_abs="42.775577" PMx_abs="8.343867" NOx_abs="191.186597" fuel_abs="202.988965" electricity_abs="0"/>
    </tripinfo>
    <tripinfo id="h16072c2:3" depart="57663.00" departLane="315358254#0_1" departPos="5.10" departSpeed="0.00" departDelay="2.50" arrival="57831.00" arrivalLane="386687235_1" arrivalPos="80.84" arrivalSpeed="14.85" duration="168.00" routeLength="1611.92" waitingTime="26.00" waitingCount="3" stopTime="0.00" timeLoss="65.00" rerouteNo="1" devices="tripinfo_h16072c2:3 routing_h16072c2:3 emissions_h16072c2:3" vType="default_016" speedFactor="1.15" vaporized="">
        <emissions CO_abs="8179.759547" CO2_abs="431422.102687" HC_abs="47.327703" PMx_abs="7.942335" NOx_abs="176.808228" fuel_abs="185.450893" electricity_abs="0"/>
    </tripinfo>
    <tripinfo id="carIn27009:1" depart="57673.00" departLane="-447569998#1_1" departPos="5.10" departSpeed="0.00" departDelay="0.50" arrival="57836.00" arrivalLane="-26677539_1" arrivalPos="152.75" arrivalSpeed="7.52" duration="163.00" routeLength="699.63" waitingTime="61.00" waitingCount="1" stopTime="0.00" timeLoss="76.22" rerouteNo="1" devices="tripinfo_carIn27009:1 routing_carIn27009:1 emissions_carIn27009:1" vType="default_015" speedFactor="0.96" vaporized="">
        <emissions CO_abs="13561.249046" CO2_abs="337350.411774" HC_abs="69.573648" PMx_abs="6.834421" NOx_abs="145.118199" fuel_abs="145.018180" electricity_abs="0"/>
    </tripinfo>
    <tripinfo id="50R_frequency3.17" depart="57674.00" departLane="-18809673#6_1" departPos="12.10" departSpeed="0.00" departDelay="0.70" arrival="57836.00" arrivalLane="201956811#0_1" arrivalPos="40.40" arrivalSpeed="12.89" duration="162.00" routeLength="1954.47" waitingTime="0.00" waitingCount="0" stopTime="0.00" timeLoss="17.15" rerouteNo="1" devices="tripinfo_50R_frequency3.17 routing_50R_frequency3.17 emissions_50R_frequency3.17" vType="bus" speedFactor="1.00" vaporized="">
        <emissions CO_abs="3211.981798" CO2_abs="2053195.011314" HC_abs="682.965686" PMx_abs="345.773526" NOx_abs="15810.866341" fuel_abs="875.687138" electricity_abs="0"/>
    </tripinfo>
    <tripinfo id="h17600c1:1" depart="57662.00" departLane="272042143_1" departPos="5.10" departSpeed="0.00" departDelay="0.30" arrival="57837.00" arrivalLane="201238729#3_1" arrivalPos="431.02" arrivalSpeed="12.54" duration="175.00" routeLength="2100.26" waitingTime="3.00" waitingCount="1" stopTime="0.00" timeLoss="21.17" rerouteNo="1" devices="tripinfo_h17600c1:1 routing_h17600c1:1 emissions_h17600c1:1" vType="default_016" speedFactor="0.98" vaporized="">
        <emissions CO_abs="4584.052690" CO2_abs="418995.653689" HC_abs="30.608017" PMx_abs="6.395015" NOx_abs="162.361092" fuel_abs="180.108508" electricity_abs="0"/>
    </tripinfo>
    <tripinfo id="carIn81046:1" depart="57610.00" departLane="124812856#0_1" departPos="5.10" departSpeed="0.00" departDelay="1.50" arrival="57839.00" arrivalLane="-128361102#1_1" arrivalPos="274.68" arrivalSpeed="12.19" duration="229.00" routeLength="2250.49" waitingTime="8.00" waitingCount="2" stopTime="0.00" timeLoss="42.48" rerouteNo="1" devices="tripinfo_carIn81046:1 routing_carIn81046:1 emissions_carIn81046:1" vType="default_016" speedFactor="0.88" vaporized="">
        <emissions CO_abs="7854.050984" CO2_abs="507839.146120" HC_abs="47.579870" PMx_abs="8.318618" NOx_abs="203.320619" fuel_abs="218.299372" electricity_abs="0"/>
    </tripinfo>
    <tripinfo id="carIn86816:1" depart="57617.00" departLane="128361102#0_1" departPos="5.10" departSpeed="0.00" departDelay="0.80" arrival="57839.00" arrivalLane="201956811#0_1" arrivalPos="40.40" arrivalSpeed="10.30" duration="222.00" routeLength="2067.33" waitingTime="7.00" waitingCount="2" stopTime="0.00" timeLoss="36.24" rerouteNo="1" devices="tripinfo_carIn86816:1 routing_carIn86816:1 emissions_carIn86816:1" vType="default_016" speedFactor="0.81" vaporized="">
        <emissions CO_abs="7556.775888" CO2_abs="472357.601014" HC_abs="45.349854" PMx_abs="7.583654" NOx_abs="189.010217" fuel_abs="203.047658" electricity_abs="0"/>
    </tripinfo>
    <tripinfo id="h19804c1:3" depart="57616.00" departLane="124812856#0_1" departPos="5.10" departSpeed="0.00" departDelay="0.50" arrival="57840.00" arrivalLane="-128361102#1_1" arrivalPos="274.68" arrivalSpeed="13.02" duration="224.00" routeLength="2250.49" waitingTime="10.00" waitingCount="2" stopTime="0.00" timeLoss="50.55" rerouteNo="1" devices="tripinfo_h19804c1:3 routing_h19804c1:3 emissions_h19804c1:3" vType="default_016" speedFactor="0.94" vaporized="">
        <emissions CO_abs="7847.258118" CO2_abs="523807.239911" HC_abs="47.965262" PMx_abs="8.733170" NOx_abs="210.206022" fuel_abs="225.163006" electricity_abs="0"/>
    </tripinfo>
    <tripinfo id="h3864c1:3" depart="57678.00" departLane="24693977#1_1" departPos="5.10" departSpeed="0.00" departDelay="0.00" arrival="57840.00" arrivalLane="201956820_1" arrivalPos="48.33" arrivalSpeed="14.75" duration="162.00" routeLength="1574.85" waitingTime="16.00" waitingCount="2" stopTime="0.00" timeLoss="44.00" rerouteNo="1" devices="tripinfo_h3864c1:3 routing_h3864c1:3 emissions_h3864c1:3" vType="default_016" speedFactor="1.10" vaporized="">
        <emissions CO_abs="7475.096406" CO2_abs="463342.267035" HC_abs="44.808898" PMx_abs="8.338992" NOx_abs="189.681388" fuel_abs="199.171135" electricity_abs="0"/>
    </tripinfo>
    <tripinfo id="h15382c1:3" depart="57625.00" departLane="124812856#0_1" departPos="5.10" departSpeed="0.00" departDelay="2.80" arrival="57842.00" arrivalLane="-128361102#1_1" arrivalPos="274.68" arrivalSpeed="14.63" duration="217.00" routeLength="2250.49" waitingTime="7.00" waitingCount="1" stopTime="0.00" timeLoss="63.56" rerouteNo="1" devices="tripinfo_h15382c1:3 routing_h15382c1:3 emissions_h15382c1:3" vType="default_016" speedFactor="1.08" vaporized="">
        <emissions CO_abs="8867.548101" CO2_abs="588716.514774" HC_abs="54.201157" PMx_abs="10.312120" NOx_abs="239.672082" fuel_abs="253.064068" electricity_abs="0"/>
    </tripinfo>
    <tripinfo id="h645c1:1" depart="57622.00" departLane="266565295#5_1" departPos="5.10" departSpeed="0.00" departDelay="0.40" arrival="57843.00" arrivalLane="-315358244_1" arrivalPos="33.95" arrivalSpeed="13.33" duration="221.00" routeLength="1910.83" waitingTime="51.00" waitingCount="4" stopTime="0.00" timeLoss="86.35" rerouteNo="1" devices="tripinfo_h645c1:1 routing_h645c1:1 emissions_h645c1:1" vType="default_016" speedFactor="1.03" vaporized="">
        <emissions CO_abs="12452.937173" CO2_abs="565039.020261" HC_abs="69.892952" PMx_abs="10.492081" NOx_abs="233.142656" fuel_abs="242.888650" electricity_abs="0"/>
    </tripinfo>
    <tripinfo id="carIn12858:1" depart="57661.00" departLane="128361109#1_1" departPos="5.10" departSpeed="0.00" departDelay="0.90" arrival="57845.00" arrivalLane="399835085#1_1" arrivalPos="212.23" arrivalSpeed="7.57" duration="184.00" routeLength="1738.12" waitingTime="43.00" waitingCount="1" stopTime="0.00" timeLoss="68.59" rerouteNo="1" devices="tripinfo_carIn12858:1 routing_carIn12858:1 emissions_carIn12858:1" vType="default_016" speedFactor="1.00" vaporized="">
        <emissions CO_abs="13470.599715" CO2_abs="576294.490343" HC_abs="75.094790" PMx_abs="11.776247" NOx_abs="243.452389" fuel_abs="247.726115" electricity_abs="0"/>
    </tripinfo>
    <tripinfo id="carIn82278:1" depart="57702.00" departLane="-306240162#1_0" departPos="5.10" departSpeed="0.00" departDelay="0.70" arrival="57847.00" arrivalLane="399835085#1_1" arrivalPos="212.23" arrivalSpeed="8.67" duration="145.00" routeLength="1093.26" waitingTime="40.00" waitingCount="2" stopTime="0.00" timeLoss="75.89" rerouteNo="1" devices="tripinfo_carIn82278:1 routing_carIn82278:1 emissions_carIn82278:1" vType="default_016" speedFactor="1.14" vaporized="">
        <emissions CO_abs="11396.661072" CO2_abs="445831.290942" HC_abs="62.540270" PMx_abs="9.358959" NOx_abs="190.922010" fuel_abs="191.645519" electricity_abs="0"/>
    </tripinfo>
    <tripinfo id="carIn129809:1" depart="57729.00" departLane="-447569998#1_1" departPos="5.10" departSpeed="0.00" departDelay="1.00" arrival="57847.00" arrivalLane="-315358244_1" arrivalPos="33.95" arrivalSpeed="12.94" duration="118.00" routeLength="706.49" waitingTime="43.00" waitingCount="2" stopTime="0.00" timeLoss="54.35" rerouteNo="1" devices="tripinfo_carIn129809:1 routing_carIn129809:1 emissions_carIn129809:1" vType="default_015" speedFactor="0.95" vaporized="">
        <emissions CO_abs="8193.491224" CO2_abs="254083.048275" HC_abs="43.201489" PMx_abs="4.794048" NOx_abs="106.029729" fuel_abs="109.222616" electricity_abs="0"/>
    </tripinfo>