<?xml version="1.0" encoding="UTF-8"?>

<!-- generated on 2021-10-26 15:18:07 by Eclipse SUMO sumo Version 1.10.0
<configuration xmlns:xsi="http://www.w3.org/2001/XMLSchema-instance" xsi:noNamespaceSchemaLocation="http://sumo.dlr.de/xsd/sumoConfiguration.xsd">

    <input>
        <net-file value="/Users/behradkoohy/sumo-scratchpad/RESCO/environments/ingolstadt21/ingolstadt21.net.xml"/>
        <route-files value="/Users/behradkoohy/sumo-scratchpad/RESCO/environments/ingolstadt21/ingolstadt21.rou.xml"/>
    </input>

    <output>
        <tripinfo-output value="/Users/behradkoohy/sumo-scratchpad/RESCO/logs/IPPO-tr0-ingolstadt21-21-drq_norm-wait_norm/tripinfo_17.xml"/>
        <tripinfo-output.write-unfinished value="true"/>
    </output>

    <time>
        <begin value="57600"/>
        <end value="61200"/>
    </time>

    <processing>
        <time-to-teleport value="-1"/>
    </processing>

    <report>
        <no-warnings value="true"/>
        <no-step-log value="true"/>
    </report>

    <emissions>
        <device.emissions.probability value="1"/>
    </emissions>

    <traci_server>
        <remote-port value="61119"/>
    </traci_server>

    <random_number>
        <random value="true"/>
    </random_number>

</configuration>
-->

<tripinfos xmlns:xsi="http://www.w3.org/2001/XMLSchema-instance" xsi:noNamespaceSchemaLocation="http://sumo.dlr.de/xsd/tripinfo_file.xsd">
    <tripinfo id="h15454c2:3" depart="57612.00" departLane="24608844_1" departPos="5.10" departSpeed="0.00" departDelay="0.50" arrival="57648.00" arrivalLane="32978638#0_1" arrivalPos="49.29" arrivalSpeed="15.58" duration="36.00" routeLength="354.79" waitingTime="0.00" waitingCount="0" stopTime="0.00" timeLoss="6.85" rerouteNo="1" devices="tripinfo_h15454c2:3 routing_h15454c2:3 emissions_h15454c2:3" vType="default_016" speedFactor="1.17" vaporized="">
        <emissions CO_abs="2178.325311" CO2_abs="130352.508810" HC_abs="12.998921" PMx_abs="2.416107" NOx_abs="54.159785" fuel_abs="56.032930" electricity_abs="0"/>
    </tripinfo>
    <tripinfo id="carIn53971:1" depart="57640.00" departLane="272042143_1" departPos="5.10" departSpeed="0.00" departDelay="0.80" arrival="57713.00" arrivalLane="24634414#1_1" arrivalPos="162.19" arrivalSpeed="5.78" duration="73.00" routeLength="493.04" waitingTime="0.00" waitingCount="0" stopTime="0.00" timeLoss="10.42" rerouteNo="1" devices="tripinfo_carIn53971:1 routing_carIn53971:1 emissions_carIn53971:1" vType="default_016" speedFactor="0.73" vaporized="">
        <emissions CO_abs="3172.959061" CO2_abs="136373.219210" HC_abs="17.573330" PMx_abs="2.224006" NOx_abs="55.424754" fuel_abs="58.622127" electricity_abs="0"/>
    </tripinfo>
    <tripinfo id="carIn22761:1" depart="57616.00" departLane="-306240162#1_0" departPos="5.10" departSpeed="0.00" departDelay="2.10" arrival="57715.00" arrivalLane="399835085#1_1" arrivalPos="212.23" arrivalSpeed="8.77" duration="99.00" routeLength="1093.26" waitingTime="6.00" waitingCount="1" stopTime="0.00" timeLoss="31.18" rerouteNo="1" devices="tripinfo_carIn22761:1 routing_carIn22761:1 emissions_carIn22761:1" vType="default_016" speedFactor="1.15" vaporized="">
        <emissions CO_abs="6458.203047" CO2_abs="370705.035696" HC_abs="38.303106" PMx_abs="7.424314" NOx_abs="155.074074" fuel_abs="159.349773" electricity_abs="0"/>
    </tripinfo>
    <tripinfo id="h7800c1:5" depart="57696.00" departLane="-447569998#1_1" departPos="5.10" departSpeed="0.00" departDelay="0.00" arrival="57720.00" arrivalLane="-447569998#1_1" arrivalPos="180.76" arrivalSpeed="8.59" duration="24.00" routeLength="175.66" waitingTime="0.00" waitingCount="0" stopTime="0.00" timeLoss="3.76" rerouteNo="1" devices="tripinfo_h7800c1:5 routing_h7800c1:5 emissions_h7800c1:5" vType="default_016" speedFactor="1.09" vaporized="">
        <emissions CO_abs="1254.581143" CO2_abs="57904.558108" HC_abs="7.038020" PMx_abs="0.917589" NOx_abs="23.320440" fuel_abs="24.891131" electricity_abs="0"/>
    </tripinfo>
    <tripinfo id="carIn80064:1" depart="57603.00" departLane="128361109#1_1" departPos="5.10" departSpeed="0.00" departDelay="0.40" arrival="57734.00" arrivalLane="-315358254#1_1" arrivalPos="137.16" arrivalSpeed="12.45" duration="131.00" routeLength="1587.97" waitingTime="11.00" waitingCount="2" stopTime="0.00" timeLoss="38.74" rerouteNo="1" devices="tripinfo_carIn80064:1 routing_carIn80064:1 emissions_carIn80064:1" vType="default_016" speedFactor="0.97" vaporized="">
        <emissions CO_abs="6584.743997" CO2_abs="438234.194032" HC_abs="40.470393" PMx_abs="8.503187" NOx_abs="181.016057" fuel_abs="188.377157" electricity_abs="0"/>
    </tripinfo>
    <tripinfo id="carIn60260:1" depart="57606.00" departLane="315358254#0_1" departPos="5.10" departSpeed="0.00" departDelay="0.90" arrival="57739.00" arrivalLane="399835085#1_1" arrivalPos="212.23" arrivalSpeed="7.06" duration="133.00" routeLength="430.98" waitingTime="69.00" waitingCount="1" stopTime="0.00" timeLoss="81.21" rerouteNo="1" devices="tripinfo_carIn60260:1 routing_carIn60260:1 emissions_carIn60260:1" vType="default_016" speedFactor="0.89" vaporized="">
        <emissions CO_abs="13037.148282" CO2_abs="281823.371084" HC_abs="65.929542" PMx_abs="6.117386" NOx_abs="123.635382" fuel_abs="121.149410" electricity_abs="0"/>
    </tripinfo>
    <tripinfo id="h317c2:1" depart="57707.00" departLane="-32978638#0_1" departPos="5.10" departSpeed="0.00" departDelay="0.10" arrival="57745.00" arrivalLane="-266565295#5_1" arrivalPos="172.76" arrivalSpeed="11.05" duration="38.00" routeLength="370.53" waitingTime="0.00" waitingCount="0" stopTime="0.00" timeLoss="6.71" rerouteNo="1" devices="tripinfo_h317c2:1 routing_h317c2:1 emissions_h317c2:1" vType="default_016" speedFactor="0.88" vaporized="">
        <emissions CO_abs="1596.944554" CO2_abs="96023.404992" HC_abs="9.502477" PMx_abs="1.582940" NOx_abs="38.641897" fuel_abs="41.276619" electricity_abs="0"/>
    </tripinfo>
    <tripinfo id="h3688c1:1" depart="57625.00" departLane="201201950#1_1" departPos="5.10" departSpeed="0.00" departDelay="0.00" arrival="57747.00" arrivalLane="32978638#0_1" arrivalPos="49.29" arrivalSpeed="9.86" duration="122.00" routeLength="1089.75" waitingTime="1.00" waitingCount="1" stopTime="0.00" timeLoss="16.49" rerouteNo="1" devices="tripinfo_h3688c1:1 routing_h3688c1:1 emissions_h3688c1:1" vType="default_016" speedFactor="0.75" vaporized="">
        <emissions CO_abs="3914.468425" CO2_abs="229445.992372" HC_abs="23.113021" PMx_abs="3.612172" NOx_abs="91.636437" fuel_abs="98.629952" electricity_abs="0"/>
    </tripinfo>
    <tripinfo id="carIn27009:1" depart="57673.00" departLane="-447569998#1_1" departPos="5.10" departSpeed="0.00" departDelay="0.50" arrival="57764.00" arrivalLane="-26677539_1" arrivalPos="152.75" arrivalSpeed="7.64" duration="91.00" routeLength="699.63" waitingTime="0.00" waitingCount="0" stopTime="0.00" timeLoss="11.65" rerouteNo="1" devices="tripinfo_carIn27009:1 routing_carIn27009:1 emissions_carIn27009:1" vType="default_015" speedFactor="1.05" vaporized="">
        <emissions CO_abs="3672.241803" CO2_abs="181690.741584" HC_abs="20.909591" PMx_abs="2.993306" NOx_abs="73.944298" fuel_abs="78.102050" electricity_abs="0"/>
    </tripinfo>
    <tripinfo id="carIn121703:1" depart="57647.00" departLane="386687232#0_1" departPos="5.10" departSpeed="0.00" departDelay="0.30" arrival="57765.00" arrivalLane="-315358244_1" arrivalPos="33.95" arrivalSpeed="13.40" duration="118.00" routeLength="1157.39" waitingTime="22.00" waitingCount="1" stopTime="0.00" timeLoss="36.24" rerouteNo="1" devices="tripinfo_carIn121703:1 routing_carIn121703:1 emissions_carIn121703:1" vType="default_016" speedFactor="1.04" vaporized="">
        <emissions CO_abs="5930.386819" CO2_abs="290484.033080" HC_abs="33.761744" PMx_abs="5.227209" NOx_abs="118.332198" fuel_abs="124.867864" electricity_abs="0"/>
    </tripinfo>
    <tripinfo id="h3568c1:3" depart="57656.00" departLane="266565295#5_1" departPos="5.10" departSpeed="0.00" departDelay="0.80" arrival="57765.00" arrivalLane="-24634415_1" arrivalPos="62.03" arrivalSpeed="13.21" duration="109.00" routeLength="807.40" waitingTime="26.00" waitingCount="1" stopTime="0.00" timeLoss="43.44" rerouteNo="1" devices="tripinfo_h3568c1:3 routing_h3568c1:3 emissions_h3568c1:3" vType="default_016" speedFactor="0.97" vaporized="">
        <emissions CO_abs="7480.540656" CO2_abs="289407.516935" HC_abs="40.853295" PMx_abs="5.544298" NOx_abs="121.487798" fuel_abs="124.405807" electricity_abs="0"/>
    </tripinfo>
    <tripinfo id="h12244c1:3" depart="57612.00" departLane="315358244_1" departPos="5.10" departSpeed="0.00" departDelay="0.40" arrival="57766.00" arrivalLane="386687235_1" arrivalPos="80.84" arrivalSpeed="14.17" duration="154.00" routeLength="1186.14" waitingTime="58.00" waitingCount="1" stopTime="0.00" timeLoss="76.47" rerouteNo="1" devices="tripinfo_h12244c1:3 routing_h12244c1:3 emissions_h12244c1:3" vType="default_016" speedFactor="1.11" vaporized="">
        <emissions CO_abs="12001.410361" CO2_abs="398407.064116" HC_abs="63.933148" PMx_abs="7.824034" NOx_abs="166.633802" fuel_abs="171.262106" electricity_abs="0"/>
    </tripinfo>
    <tripinfo id="h330c1:1" depart="57736.00" departLane="-32978638#0_1" departPos="5.10" departSpeed="0.00" departDelay="0.20" arrival="57767.00" arrivalLane="-266565295#5_1" arrivalPos="172.76" arrivalSpeed="14.20" duration="31.00" routeLength="370.53" waitingTime="0.00" waitingCount="0" stopTime="0.00" timeLoss="5.74" rerouteNo="1" devices="tripinfo_h330c1:1 routing_h330c1:1 emissions_h330c1:1" vType="default_016" speedFactor="1.10" vaporized="">
        <emissions CO_abs="1637.488222" CO2_abs="108111.577309" HC_abs="10.020574" PMx_abs="2.000326" NOx_abs="44.541156" fuel_abs="46.472409" electricity_abs="0"/>
    </tripinfo>
    <tripinfo id="h7181c1:1" depart="57660.00" departLane="315358254#0_1" departPos="5.10" departSpeed="0.00" departDelay="0.10" arrival="57768.00" arrivalLane="306240162#0_0" arrivalPos="220.43" arrivalSpeed="15.57" duration="108.00" routeLength="932.35" waitingTime="33.00" waitingCount="2" stopTime="0.00" timeLoss="56.84" rerouteNo="1" devices="tripinfo_h7181c1:1 routing_h7181c1:1 emissions_h7181c1:1" vType="default_016" speedFactor="1.00" vaporized="">
        <emissions CO_abs="8836.595051" CO2_abs="375896.214154" HC_abs="49.180940" PMx_abs="7.677321" NOx_abs="158.650337" fuel_abs="161.582910" electricity_abs="0"/>
    </tripinfo>
    <tripinfo id="h3326c1:2" depart="57656.00" departLane="22716069#0_1" departPos="5.10" departSpeed="0.00" departDelay="0.00" arrival="57780.00" arrivalLane="24634517#13_1" arrivalPos="111.62" arrivalSpeed="12.88" duration="124.00" routeLength="1312.81" waitingTime="2.00" waitingCount="1" stopTime="0.00" timeLoss="21.24" rerouteNo="1" devices="tripinfo_h3326c1:2 routing_h3326c1:2 emissions_h3326c1:2" vType="default_016" speedFactor="0.95" vaporized="">
        <emissions CO_abs="4633.281972" CO2_abs="308899.070126" HC_abs="28.342410" PMx_abs="5.326141" NOx_abs="125.293605" fuel_abs="132.782613" electricity_abs="0"/>
    </tripinfo>
    <tripinfo id="h5979c1:5" depart="57669.00" departLane="399835085#1_1" departPos="5.10" departSpeed="0.00" departDelay="0.00" arrival="57780.00" arrivalLane="-315358254#1_1" arrivalPos="137.16" arrivalSpeed="10.85" duration="111.00" routeLength="659.33" waitingTime="6.00" waitingCount="1" stopTime="0.00" timeLoss="21.57" rerouteNo="1" devices="tripinfo_h5979c1:5 routing_h5979c1:5 emissions_h5979c1:5" vType="default_016" speedFactor="0.82" vaporized="">
        <emissions CO_abs="4737.030784" CO2_abs="186610.228935" HC_abs="25.846517" PMx_abs="3.112191" NOx_abs="76.373114" fuel_abs="80.217503" electricity_abs="0"/>
    </tripinfo>
    <tripinfo id="carIn50326:1" depart="57651.00" departLane="128361102#0_1" departPos="5.10" departSpeed="0.00" departDelay="0.30" arrival="57786.00" arrivalLane="18809673#0_1" arrivalPos="473.56" arrivalSpeed="15.19" duration="135.00" routeLength="1591.07" waitingTime="1.00" waitingCount="1" stopTime="0.00" timeLoss="25.33" rerouteNo="1" devices="tripinfo_carIn50326:1 routing_carIn50326:1 emissions_carIn50326:1" vType="default_016" speedFactor="1.19" vaporized="">
        <emissions CO_abs="5078.335518" CO2_abs="358572.780760" HC_abs="31.411356" PMx_abs="6.220129" NOx_abs="144.319842" fuel_abs="154.135033" electricity_abs="0"/>
    </tripinfo>
    <tripinfo id="S5R_frequency1.2" depart="57624.00" departLane="315358250#0_1" departPos="12.10" departSpeed="0.00" departDelay="12.40" arrival="57790.00" arrivalLane="386687235_1" arrivalPos="80.84" arrivalSpeed="13.39" duration="166.00" routeLength="1115.62" waitingTime="60.00" waitingCount="2" stopTime="0.00" timeLoss="84.03" rerouteNo="1" devices="tripinfo_S5R_frequency1.2 routing_S5R_frequency1.2 emissions_S5R_frequency1.2" vType="bus" speedFactor="1.00" vaporized="">
        <emissions CO_abs="3080.902222" CO2_abs="1515727.472655" HC_abs="681.765533" PMx_abs="321.374943" NOx_abs="12875.908727" fuel_abs="646.309799" electricity_abs="0"/>
    </tripinfo>
    <tripinfo id="carIn30817:1" depart="57681.00" departLane="315358244_1" departPos="5.10" departSpeed="0.00" departDelay="0.20" arrival="57791.00" arrivalLane="447569997#1_1" arrivalPos="180.93" arrivalSpeed="8.46" duration="110.00" routeLength="718.04" waitingTime="40.00" waitingCount="1" stopTime="0.00" timeLoss="51.99" rerouteNo="1" devices="tripinfo_carIn30817:1 routing_carIn30817:1 emissions_carIn30817:1" vType="default_016" speedFactor="1.06" vaporized="">
        <emissions CO_abs="8208.253081" CO2_abs="257195.274679" HC_abs="43.364576" PMx_abs="5.084160" NOx_abs="108.679370" fuel_abs="110.560051" electricity_abs="0"/>
    </tripinfo>
    <tripinfo id="h4538c1:1" depart="57701.00" departLane="-10427692#1_1" departPos="5.10" departSpeed="0.00" departDelay="0.00" arrival="57805.00" arrivalLane="-128361102#1_1" arrivalPos="274.68" arrivalSpeed="10.16" duration="104.00" routeLength="440.74" waitingTime="54.00" waitingCount="1" stopTime="0.00" timeLoss="63.51" rerouteNo="1" devices="tripinfo_h4538c1:1 routing_h4538c1:1 emissions_h4538c1:1" vType="default_016" speedFactor="0.79" vaporized="">
        <emissions CO_abs="9781.083370" CO2_abs="238513.141069" HC_abs="50.092102" PMx_abs="4.940087" NOx_abs="102.746832" fuel_abs="102.530662" electricity_abs="0"/>
    </tripinfo>
    <tripinfo id="carIn12365:1" depart="57713.00" departLane="315358244_1" departPos="5.10" departSpeed="0.00" departDelay="0.50" arrival="57812.00" arrivalLane="447569997#1_1" arrivalPos="180.93" arrivalSpeed="6.18" duration="99.00" routeLength="718.04" waitingTime="9.00" waitingCount="1" stopTime="0.00" timeLoss="22.76" rerouteNo="1" devices="tripinfo_carIn12365:1 routing_carIn12365:1 emissions_carIn12365:1" vType="default_016" speedFactor="0.81" vaporized="">
        <emissions CO_abs="4511.108477" CO2_abs="199431.092348" HC_abs="25.132696" PMx_abs="3.292722" NOx_abs="80.699509" fuel_abs="85.728416" electricity_abs="0"/>
    </tripinfo>
    <tripinfo id="carIn85747:1" depart="57673.00" departLane="128361109#1_1" departPos="5.10" departSpeed="0.00" departDelay="0.70" arrival="57813.00" arrivalLane="386687235_1" arrivalPos="80.84" arrivalSpeed="15.34" duration="140.00" routeLength="2088.57" waitingTime="0.00" waitingCount="0" stopTime="0.00" timeLoss="9.13" rerouteNo="1" devices="tripinfo_carIn85747:1 routing_carIn85747:1 emissions_carIn85747:1" vType="default_016" speedFactor="1.16" vaporized="">
        <emissions CO_abs="2647.904242" CO2_abs="341429.197284" HC_abs="19.675463" PMx_abs="5.027415" NOx_abs="127.736792" fuel_abs="146.765603" electricity_abs="0"/>
    </tripinfo>
    <tripinfo id="carIn129809:1" depart="57729.00" departLane="-447569998#1_1" departPos="5.10" departSpeed="0.00" departDelay="1.00" arrival="57823.00" arrivalLane="-315358244_1" arrivalPos="33.95" arrivalSpeed="12.79" duration="94.00" routeLength="706.49" waitingTime="20.00" waitingCount="1" stopTime="0.00" timeLoss="34.13" rerouteNo="1" devices="tripinfo_carIn129809:1 routing_carIn129809:1 emissions_carIn129809:1" vType="default_015" speedFactor="1.01" vaporized="">
        <emissions CO_abs="5487.465021" CO2_abs="210213.114570" HC_abs="29.892721" PMx_abs="3.893395" NOx_abs="87.341847" fuel_abs="90.363257" electricity_abs="0"/>
    </tripinfo>
    <tripinfo id="carIn86816:1" depart="57617.00" departLane="128361102#0_1" departPos="5.10" departSpeed="0.00" departDelay="0.80" arrival="57832.00" arrivalLane="201956811#0_1" arrivalPos="40.40" arrivalSpeed="14.26" duration="215.00" routeLength="2067.33" waitingTime="39.00" waitingCount="2" stopTime="0.00" timeLoss="69.20" rerouteNo="1" devices="tripinfo_carIn86816:1 routing_carIn86816:1 emissions_carIn86816:1" vType="default_016" speedFactor="1.04" vaporized="">
        <emissions CO_abs="11219.666418" CO2_abs="555018.156525" HC_abs="64.031366" PMx_abs="9.876132" NOx_abs="225.518280" fuel_abs="238.580935" electricity_abs="0"/>
    </tripinfo>
    <tripinfo id="carIn12858:1" depart="57661.00" departLane="128361109#1_1" departPos="5.10" departSpeed="0.00" departDelay="0.90" arrival="57832.00" arrivalLane="399835085#1_1" arrivalPos="212.23" arrivalSpeed="7.81" duration="171.00" routeLength="1738.12" waitingTime="32.00" waitingCount="2" stopTime="0.00" timeLoss="63.00" rerouteNo="1" devices="tripinfo_carIn12858:1 routing_carIn12858:1 emissions_carIn12858:1" vType="default_016" speedFactor="1.06" vaporized="">
        <emissions CO_abs="10425.422138" CO2_abs="524089.760416" HC_abs="59.928492" PMx_abs="10.274928" NOx_abs="217.483335" fuel_abs="225.284584" electricity_abs="0"/>
    </tripinfo>
    <tripinfo id="carIn102915:1" depart="57643.00" departLane="128361102#0_1" departPos="5.10" departSpeed="0.00" departDelay="0.40" arrival="57834.00" arrivalLane="201956811#0_1" arrivalPos="40.40" arrivalSpeed="14.51" duration="191.00" routeLength="2067.33" waitingTime="19.00" waitingCount="2" stopTime="0.00" timeLoss="51.66" rerouteNo="1" devices="tripinfo_carIn102915:1 routing_carIn102915:1 emissions_carIn102915:1" vType="default_016" speedFactor="1.09" vaporized="">
        <emissions CO_abs="7795.106817" CO2_abs="503382.465333" HC_abs="47.252697" PMx_abs="8.896247" NOx_abs="203.901020" fuel_abs="216.382812" electricity_abs="0"/>
    </tripinfo>
    <tripinfo id="h2831c1:1" depart="57600.00" departLane="201089423#0_1" departPos="5.10" departSpeed="0.00" departDelay="0.00" arrival="57836.00" arrivalLane="-315358244_1" arrivalPos="33.95" arrivalSpeed="14.14" duration="236.00" routeLength="2672.18" waitingTime="18.00" waitingCount="2" stopTime="0.00" timeLoss="49.44" rerouteNo="1" devices="tripinfo_h2831c1:1 routing_h2831c1:1 emissions_h2831c1:1" vType="default_016" speedFactor="1.04" vaporized="">
        <emissions CO_abs="8013.934211" CO2_abs="575240.759335" HC_abs="49.767585" PMx_abs="9.549180" NOx_abs="228.102986" fuel_abs="247.271908" electricity_abs="0"/>
    </tripinfo>
    <tripinfo id="h9563c2:5" depart="57631.00" departLane="315358244_1" departPos="5.10" departSpeed="0.00" departDelay="0.70" arrival="57837.00" arrivalLane="386687235_1" arrivalPos="80.84" arrivalSpeed="13.16" duration="206.00" routeLength="1186.14" waitingTime="89.00" waitingCount="4" stopTime="0.00" timeLoss="119.84" rerouteNo="1" devices="tripinfo_h9563c2:5 routing_h9563c2:5 emissions_h9563c2:5" vType="default_016" speedFactor="1.00" vaporized="">
        <emissions CO_abs="17059.740415" CO2_abs="478306.839793" HC_abs="88.879639" PMx_abs="9.784149" NOx_abs="204.108888" fuel_abs="205.609922" electricity_abs="0"/>
    </tripinfo>
    <tripinfo id="h3864c1:3" depart="57678.00" departLane="24693977#1_1" departPos="5.10" departSpeed="0.00" departDelay="0.00" arrival="57840.00" arrivalLane="201956820_1" arrivalPos="48.33" arrivalSpeed="13.65" duration="162.00" routeLength="1574.85" waitingTime="10.00" waitingCount="1" stopTime="0.00" timeLoss="40.95" rerouteNo="1" devices="tripinfo_h3864c1:3 routing_h3864c1:3 emissions_h3864c1:3" vType="default_016" speedFactor="1.07" vaporized="">
        <emissions CO_abs="7818.456970" CO2_abs="449350.032913" HC_abs="46.170501" PMx_abs="8.248749" NOx_abs="185.649457" fuel_abs="193.156663" electricity_abs="0"/>
    </tripinfo>
    <tripinfo id="carIn48184:1" depart="57613.00" departLane="-306240162#1_0" departPos="5.10" departSpeed="0.00" departDelay="0.70" arrival="57843.00" arrivalLane="386687235_1" arrivalPos="80.84" arrivalSpeed="15.95" duration="230.00" routeLength="2257.41" waitingTime="58.00" waitingCount="3" stopTime="0.00" timeLoss="101.51" rerouteNo="1" devices="tripinfo_carIn48184:1 routing_carIn48184:1 emissions_carIn48184:1" vType="default_016" speedFactor="1.16" vaporized="">
        <emissions CO_abs="15848.138363" CO2_abs="708234.747630" HC_abs="88.956856" PMx_abs="14.321106" NOx_abs="296.866120" fuel_abs="304.441734" electricity_abs="0"/>
    </tripinfo>
    <tripinfo id="h16072c2:3" depart="57663.00" departLane="315358254#0_1" departPos="5.10" departSpeed="0.00" departDelay="2.50" arrival="57844.00" arrivalLane="386687235_1" arrivalPos="80.84" arrivalSpeed="12.24" duration="181.00" routeLength="1611.92" waitingTime="28.00" waitingCount="3" stopTime="0.00" timeLoss="57.61" rerouteNo="1" devices="tripinfo_h16072c2:3 routing_h16072c2:3 emissions_h16072c2:3" vType="default_016" speedFactor="0.95" vaporized="">
        <emissions CO_abs="7643.975709" CO2_abs="398378.040848" HC_abs="44.078788" PMx_abs="6.753161" NOx_abs="160.316642" fuel_abs="171.247487" electricity_abs="0"/>
    </tripinfo>
    <tripinfo id="carIn107282:1" depart="57749.00" departLane="-447569998#1_1" departPos="5.10" departSpeed="0.00" departDelay="0.00" arrival="57844.00" arrivalLane="315358242#0_1" arrivalPos="165.37" arrivalSpeed="14.30" duration="95.00" routeLength="448.50" waitingTime="47.00" waitingCount="1" stopTime="0.00" timeLoss="56.13" rerouteNo="1" devices="tripinfo_carIn107282:1 routing_carIn107282:1 emissions_carIn107282:1" vType="default_016" speedFactor="1.08" vaporized="">
        <emissions CO_abs="9136.088994" CO2_abs="234549.002325" HC_abs="47.050045" PMx_abs="4.894983" NOx_abs="100.973561" fuel_abs="100.826136" electricity_abs="0"/>
    </tripinfo>
    <tripinfo id="carIn107084:1" depart="57601.00" departLane="124812856#0_1" departPos="5.10" departSpeed="0.00" departDelay="0.70" arrival="57845.00" arrivalLane="-128361102#1_1" arrivalPos="274.68" arrivalSpeed="13.52" duration="244.00" routeLength="2250.49" waitingTime="51.00" waitingCount="2" stopTime="0.00" timeLoss="88.56" rerouteNo="1" devices="tripinfo_carIn107084:1 routing_carIn107084:1 emissions_carIn107084:1" vType="default_016" speedFactor="1.05" vaporized="">
        <emissions CO_abs="14873.613982" CO2_abs="650435.594809" HC_abs="82.921360" PMx_abs="12.236776" NOx_abs="269.134590" fuel_abs="279.597614" electricity_abs="0"/>
    </tripinfo>
    <tripinfo id="carIn75660:1" depart="57679.00" departLane="128361109#1_1" departPos="5.10" departSpeed="0.00" departDelay="3.40" arrival="57845.00" arrivalLane="386687235_1" arrivalPos="80.84" arrivalSpeed="15.22" duration="166.00" routeLength="2088.57" waitingTime="9.00" waitingCount="2" stopTime="0.00" timeLoss="29.76" rerouteNo="1" devices="tripinfo_carIn75660:1 routing_carIn75660:1 emissions_carIn75660:1" vType="default_016" speedFactor="1.11" vaporized="">
        <emissions CO_abs="5095.068767" CO2_abs="416235.468008" HC_abs="32.743902" PMx_abs="6.916909" NOx_abs="163.931411" fuel_abs="178.921682" electricity_abs="0"/>
    </tripinfo>
    <tripinfo id="50R_frequency3.17" depart="57674.00" departLane="-18809673#6_1" departPos="12.10" departSpeed="0.00" departDelay="0.70" arrival="57846.00" arrivalLane="201956811#0_1" arrivalPos="40.40" arrivalSpeed="13.80" duration="172.00" routeLength="1954.47" waitingTime="7.00" waitingCount="1" stopTime="0.00" timeLoss="27.36" rerouteNo="1" devices="tripinfo_50R_frequency3.17 routing_50R_frequency3.17 emissions_50R_frequency3.17" vType="bus" speedFactor="1.00" vaporized="">
        <emissions CO_abs="3003.082239" CO2_abs="1868573.653750" HC_abs="642.768670" PMx_abs="322.205128" NOx_abs="14523.219473" fuel_abs="796.930847" electricity_abs="0"/>
    </tripinfo>
    <tripinfo id="carIn7949:1" depart="57676.00" departLane="128361109#1_1" departPos="5.10" departSpeed="0.00" departDelay="2.10" arrival="57846.00" arrivalLane="386687235_1" arrivalPos="80.84" arrivalSpeed="12.45" duration="170.00" routeLength="2088.57" waitingTime="17.00" waitingCount="1" stopTime="0.00" timeLoss="40.02" rerouteNo="1" devices="tripinfo_carIn7949:1 routing_carIn7949:1 emissions_carIn7949:1" vType="default_016" speedFactor="1.16" vaporized="">
        <emissions CO_abs="6411.757407" CO2_abs="445381.472422" HC_abs="39.300646" PMx_abs="7.426015" NOx_abs="174.780242" fuel_abs="191.451141" electricity_abs="0"/>
    </tripinfo>
    <tripinfo id="carIn77943:1" depart="57608.00" departLane="124812856#0_1" departPos="5.10" departSpeed="0.00" departDelay="2.50" arrival="57847.00" arrivalLane="-128361102#1_1" arrivalPos="274.68" arrivalSpeed="14.22" duration="239.00" routeLength="2250.49" waitingTime="48.00" waitingCount="1" stopTime="0.00" timeLoss="90.82" rerouteNo="1" devices="tripinfo_carIn77943:1 routing_carIn77943:1 emissions_carIn77943:1" vType="default_016" speedFactor="1.11" vaporized="">
        <emissions CO_abs="14866.026603" CO2_abs="673452.780647" HC_abs="83.524481" PMx_abs="12.645261" NOx_abs="278.267528" fuel_abs="289.491451" electricity_abs="0"/>
    </tripinfo>
    <tripinfo id="carIn88905:1" depart="57688.00" departLane="128361109#1_1" departPos="5.10" departSpeed="0.00" departDelay="5.80" arrival="57847.00" arrivalLane="386687235_2" arrivalPos="80.84" arrivalSpeed="14.86" duration="159.00" routeLength="2088.57" waitingTime="0.00" waitingCount="0" stopTime="0.00" timeLoss="21.08" rerouteNo="1" devices="tripinfo_carIn88905:1 routing_carIn88905:1 emissions_carIn88905:1" vType="default_016" speedFactor="1.09" vaporized="">
        <emissions CO_abs="4757.539976" CO2_abs="411369.763211" HC_abs="31.264253" PMx_abs="6.793914" NOx_abs="161.892561" fuel_abs="176.829969" electricity_abs="0"/>
    </tripinfo>
    <tripinfo id="h11737c1:1" depart="57665.00" departLane="272042143_1" departPos="5.10" departSpeed="0.00" departDelay="1.50" arrival="57848.00" arrivalLane="-315358254#1_1" arrivalPos="137.16" arrivalSpeed="12.38" duration="183.00" routeLength="1596.88" waitingTime="42.00" waitingCount="1" stopTime="0.00" timeLoss="60.54" rerouteNo="1" devices="tripinfo_h11737c1:1 routing_h11737c1:1 emissions_h11737c1:1" vType="default_016" speedFactor="0.95" vaporized="">
        <emissions CO_abs="10951.645762" CO2_abs="459391.558956" HC_abs="60.568131" PMx_abs="8.118424" NOx_abs="186.841425" fuel_abs="197.476207" electricity_abs="0"/>
    </tripinfo>
    <tripinfo id="carIn126288:1" depart="57674.00" departLane="272042143_1" departPos="5.10" departSpeed="0.00" departDelay="0.00" arrival="57851.00" arrivalLane="-315358254#1_1" arrivalPos="137.16" arrivalSpeed="11.70" duration="177.00" routeLength="1596.88" waitingTime="25.00" waitingCount="2" stopTime="0.00" timeLoss="48.59" rerouteNo="1" devices="tripinfo_carIn126288:1 routing_carIn126288:1 emissions_carIn126288:1" vType="default_016" speedFactor="0.91" vaporized="">
        <emissions CO_abs="7313.167504" CO2_abs="378586.281963" HC_abs="42.080308" PMx_abs="6.245368" NOx_abs="151.396752" fuel_abs="162.740057" electricity_abs="0"/>
    </tripinfo>
    <tripinfo id="carIn81046:1" depart="57611.00" departLane="124812856#0_1" departPos="5.10" departSpeed="0.00" departDelay="2.50" arrival="57852.00" arrivalLane="-128361102#1_1" arrivalPos="274.68" arrivalSpeed="12.51" duration="241.00" routeLength="2250.49" waitingTime="44.00" waitingCount="1" stopTime="0.00" timeLoss="72.07" rerouteNo="1" devices="tripinfo_carIn81046:1 routing_carIn81046:1 emissions_carIn81046:1" vType="default_016" speedFactor="0.97" vaporized="">
        <emissions CO_abs="12409.075521" CO2_abs="543159.720403" HC_abs="69.209257" PMx_abs="9.846019" NOx_abs="222.854640" fuel_abs="233.484305" electricity_abs="0"/>
    </tripinfo>
    <tripinfo id="carIn12152:1" depart="57647.00" departLane="24599188#0.94_1" departPos="5.10" departSpeed="0.00" departDelay="0.50" arrival="57853.00" arrivalLane="-315358254#1_1" arrivalPos="137.16" arrivalSpeed="14.02" duration="206.00" routeLength="2034.31" waitingTime="37.00" waitingCount="1" stopTime="0.00" timeLoss="66.55" rerouteNo="1" devices="tripinfo_carIn12152:1 routing_carIn12152:1 emissions_carIn12152:1" vType="default_016" speedFactor="1.14" vaporized="">
        <emissions CO_abs="11510.660541" CO2_abs="536110.281443" HC_abs="64.855450" PMx_abs="9.870750" NOx_abs="219.754907" fuel_abs="230.453240" electricity_abs="0"/>
    </tripinfo>
    <tripinfo id="carIn118591:1" depart="57689.00" departLane="315358244_1" departPos="5.10" departSpeed="0.00" departDelay="0.20" arrival="57853.00" arrivalLane="386687235_1" arrivalPos="80.84" arrivalSpeed="13.95" duration="164.00" routeLength="1186.14" waitingTime="56.00" waitingCount="3" stopTime="0.00" timeLoss="80.17" rerouteNo="1" devices="tripinfo_carIn118591:1 routing_carIn118591:1 emissions_carIn118591:1" vType="default_016" speedFactor="1.03" vaporized="">
        <emissions CO_abs="10972.285510" CO2_abs="400493.599254" HC_abs="59.349800" PMx_abs="7.749709" NOx_abs="167.532291" fuel_abs="172.158211" electricity_abs="0"/>
    </tripinfo>
    <tripinfo id="carIn49437:1" depart="57673.00" departLane="128361102#0_1" departPos="5.10" departSpeed="0.00" departDelay="4.50" arrival="57854.00" arrivalLane="201956811#0_1" arrivalPos="40.40" arrivalSpeed="12.84" duration="181.00" routeLength="2067.33" waitingTime="0.00" waitingCount="0" stopTime="0.00" timeLoss="19.69" rerouteNo="1" devices="tripinfo_carIn49437:1 routing_carIn49437:1 emissions_carIn49437:1" vType="default_016" speedFactor="0.94" vaporized="">