<?xml version="1.0" encoding="UTF-8"?>

<!-- generated on 2021-10-26 17:59:42 by Eclipse SUMO sumo Version 1.10.0
<configuration xmlns:xsi="http://www.w3.org/2001/XMLSchema-instance" xsi:noNamespaceSchemaLocation="http://sumo.dlr.de/xsd/sumoConfiguration.xsd">

    <input>
        <net-file value="/Users/behradkoohy/sumo-scratchpad/RESCO/environments/ingolstadt21/ingolstadt21.net.xml"/>
        <route-files value="/Users/behradkoohy/sumo-scratchpad/RESCO/environments/ingolstadt21/ingolstadt21.rou.xml"/>
    </input>

    <output>
        <tripinfo-output value="/Users/behradkoohy/sumo-scratchpad/RESCO/logs/IPPO-tr0-ingolstadt21-21-drq_norm-wait_norm/tripinfo_35.xml"/>
        <tripinfo-output.write-unfinished value="true"/>
    </output>

    <time>
        <begin value="57600"/>
        <end value="61200"/>
    </time>

    <processing>
        <time-to-teleport value="-1"/>
    </processing>

    <report>
        <no-warnings value="true"/>
        <no-step-log value="true"/>
    </report>

    <emissions>
        <device.emissions.probability value="1"/>
    </emissions>

    <traci_server>
        <remote-port value="61897"/>
    </traci_server>

    <random_number>
        <random value="true"/>
    </random_number>

</configuration>
-->

<tripinfos xmlns:xsi="http://www.w3.org/2001/XMLSchema-instance" xsi:noNamespaceSchemaLocation="http://sumo.dlr.de/xsd/tripinfo_file.xsd">
    <tripinfo id="h15454c2:3" depart="57612.00" departLane="24608844_1" departPos="5.10" departSpeed="0.00" departDelay="0.50" arrival="57650.00" arrivalLane="32978638#0_1" arrivalPos="49.29" arrivalSpeed="14.28" duration="38.00" routeLength="354.79" waitingTime="0.00" waitingCount="0" stopTime="0.00" timeLoss="6.92" rerouteNo="1" devices="tripinfo_h15454c2:3 routing_h15454c2:3 emissions_h15454c2:3" vType="default_016" speedFactor="1.11" vaporized="">
        <emissions CO_abs="2153.099190" CO2_abs="125955.895496" HC_abs="12.718506" PMx_abs="2.242098" NOx_abs="51.781470" fuel_abs="54.143185" electricity_abs="0"/>
    </tripinfo>
    <tripinfo id="carIn60260:1" depart="57606.00" departLane="315358254#0_1" departPos="5.10" departSpeed="0.00" departDelay="0.90" arrival="57684.00" arrivalLane="399835085#1_1" arrivalPos="212.23" arrivalSpeed="7.68" duration="78.00" routeLength="430.98" waitingTime="19.00" waitingCount="1" stopTime="0.00" timeLoss="31.72" rerouteNo="1" devices="tripinfo_carIn60260:1 routing_carIn60260:1 emissions_carIn60260:1" vType="default_016" speedFactor="1.01" vaporized="">
        <emissions CO_abs="5080.748357" CO2_abs="167978.291066" HC_abs="27.031738" PMx_abs="3.151118" NOx_abs="70.573136" fuel_abs="72.208465" electricity_abs="0"/>
    </tripinfo>
    <tripinfo id="carIn53971:1" depart="57640.00" departLane="272042143_1" departPos="5.10" departSpeed="0.00" departDelay="0.80" arrival="57701.00" arrivalLane="24634414#1_1" arrivalPos="162.19" arrivalSpeed="7.06" duration="61.00" routeLength="493.04" waitingTime="0.00" waitingCount="0" stopTime="0.00" timeLoss="8.41" rerouteNo="1" devices="tripinfo_carIn53971:1 routing_carIn53971:1 emissions_carIn53971:1" vType="default_016" speedFactor="0.86" vaporized="">
        <emissions CO_abs="2616.503507" CO2_abs="132749.688005" HC_abs="14.971241" PMx_abs="2.142668" NOx_abs="53.502634" fuel_abs="57.064158" electricity_abs="0"/>
    </tripinfo>
    <tripinfo id="h7800c1:5" depart="57696.00" departLane="-447569998#1_1" departPos="5.10" departSpeed="0.00" departDelay="0.00" arrival="57724.00" arrivalLane="-447569998#1_1" arrivalPos="180.76" arrivalSpeed="7.17" duration="28.00" routeLength="175.66" waitingTime="0.00" waitingCount="0" stopTime="0.00" timeLoss="4.29" rerouteNo="1" devices="tripinfo_h7800c1:5 routing_h7800c1:5 emissions_h7800c1:5" vType="default_016" speedFactor="0.92" vaporized="">
        <emissions CO_abs="1350.409328" CO2_abs="51407.380621" HC_abs="7.309348" PMx_abs="0.775521" NOx_abs="20.552832" fuel_abs="22.098475" electricity_abs="0"/>
    </tripinfo>
    <tripinfo id="h7181c1:1" depart="57660.00" departLane="315358254#0_1" departPos="5.10" departSpeed="0.00" departDelay="0.10" arrival="57731.00" arrivalLane="306240162#0_0" arrivalPos="220.43" arrivalSpeed="17.52" duration="71.00" routeLength="932.35" waitingTime="6.00" waitingCount="1" stopTime="0.00" timeLoss="22.26" rerouteNo="1" devices="tripinfo_h7181c1:1 routing_h7181c1:1 emissions_h7181c1:1" vType="default_016" speedFactor="1.06" vaporized="">
        <emissions CO_abs="4156.346650" CO2_abs="281620.237818" HC_abs="25.650368" PMx_abs="5.467291" NOx_abs="115.378274" fuel_abs="121.055892" electricity_abs="0"/>
    </tripinfo>
    <tripinfo id="h4538c1:1" depart="57701.00" departLane="-10427692#1_1" departPos="5.10" departSpeed="0.00" departDelay="0.00" arrival="57744.00" arrivalLane="-128361102#1_1" arrivalPos="274.68" arrivalSpeed="11.57" duration="43.00" routeLength="440.74" waitingTime="0.00" waitingCount="0" stopTime="0.00" timeLoss="7.33" rerouteNo="1" devices="tripinfo_h4538c1:1 routing_h4538c1:1 emissions_h4538c1:1" vType="default_016" speedFactor="0.88" vaporized="">
        <emissions CO_abs="1637.009380" CO2_abs="104857.759588" HC_abs="9.889281" PMx_abs="1.702926" NOx_abs="41.977658" fuel_abs="45.074108" electricity_abs="0"/>
    </tripinfo>
    <tripinfo id="h3568c1:3" depart="57656.00" departLane="266565295#5_1" departPos="5.10" departSpeed="0.00" departDelay="0.80" arrival="57745.00" arrivalLane="-24634415_1" arrivalPos="62.03" arrivalSpeed="12.63" duration="89.00" routeLength="807.40" waitingTime="0.00" waitingCount="0" stopTime="0.00" timeLoss="18.82" rerouteNo="1" devices="tripinfo_h3568c1:3 routing_h3568c1:3 emissions_h3568c1:3" vType="default_016" speedFactor="0.92" vaporized="">
        <emissions CO_abs="4057.537269" CO2_abs="233096.251829" HC_abs="23.913001" PMx_abs="3.994646" NOx_abs="94.919744" fuel_abs="100.198658" electricity_abs="0"/>
    </tripinfo>
    <tripinfo id="h12244c1:3" depart="57612.00" departLane="315358244_1" departPos="5.10" departSpeed="0.00" departDelay="0.40" arrival="57747.00" arrivalLane="386687235_1" arrivalPos="80.84" arrivalSpeed="14.75" duration="135.00" routeLength="1186.14" waitingTime="28.00" waitingCount="3" stopTime="0.00" timeLoss="53.75" rerouteNo="1" devices="tripinfo_h12244c1:3 routing_h12244c1:3 emissions_h12244c1:3" vType="default_016" speedFactor="1.07" vaporized="">
        <emissions CO_abs="6978.716970" CO2_abs="339469.075038" HC_abs="39.617224" PMx_abs="6.095460" NOx_abs="138.322596" fuel_abs="145.924681" electricity_abs="0"/>
    </tripinfo>
    <tripinfo id="h9563c2:5" depart="57631.00" departLane="315358244_1" departPos="5.10" departSpeed="0.00" departDelay="0.70" arrival="57749.00" arrivalLane="386687235_1" arrivalPos="80.84" arrivalSpeed="14.15" duration="118.00" routeLength="1186.14" waitingTime="12.00" waitingCount="1" stopTime="0.00" timeLoss="39.12" rerouteNo="1" devices="tripinfo_h9563c2:5 routing_h9563c2:5 emissions_h9563c2:5" vType="default_016" speedFactor="1.10" vaporized="">
        <emissions CO_abs="5584.314943" CO2_abs="313804.220533" HC_abs="32.711416" PMx_abs="5.598911" NOx_abs="127.479183" fuel_abs="134.891680" electricity_abs="0"/>
    </tripinfo>
    <tripinfo id="h317c2:1" depart="57707.00" departLane="-32978638#0_1" departPos="5.10" departSpeed="0.00" departDelay="0.10" arrival="57755.00" arrivalLane="-266565295#5_1" arrivalPos="172.76" arrivalSpeed="13.83" duration="48.00" routeLength="370.53" waitingTime="12.00" waitingCount="1" stopTime="0.00" timeLoss="21.10" rerouteNo="1" devices="tripinfo_h317c2:1 routing_h317c2:1 emissions_h317c2:1" vType="default_016" speedFactor="1.02" vaporized="">
        <emissions CO_abs="3229.748410" CO2_abs="141299.656119" HC_abs="18.016931" PMx_abs="2.631420" NOx_abs="58.609863" fuel_abs="60.739378" electricity_abs="0"/>
    </tripinfo>
    <tripinfo id="h330c1:1" depart="57736.00" departLane="-32978638#0_1" departPos="5.10" departSpeed="0.00" departDelay="0.20" arrival="57766.00" arrivalLane="-266565295#5_1" arrivalPos="172.76" arrivalSpeed="15.45" duration="30.00" routeLength="370.53" waitingTime="0.00" waitingCount="0" stopTime="0.00" timeLoss="6.15" rerouteNo="1" devices="tripinfo_h330c1:1 routing_h330c1:1 emissions_h330c1:1" vType="default_016" speedFactor="1.14" vaporized="">
        <emissions CO_abs="1842.695814" CO2_abs="121700.721035" HC_abs="11.243887" PMx_abs="2.300973" NOx_abs="50.415100" fuel_abs="52.313704" electricity_abs="0"/>
    </tripinfo>
    <tripinfo id="S5R_frequency1.2" depart="57612.00" departLane="315358250#0_1" departPos="12.10" departSpeed="0.00" departDelay="0.40" arrival="57767.00" arrivalLane="386687235_1" arrivalPos="80.84" arrivalSpeed="13.32" duration="155.00" routeLength="1115.62" waitingTime="33.00" waitingCount="4" stopTime="0.00" timeLoss="73.40" rerouteNo="1" devices="tripinfo_S5R_frequency1.2 routing_S5R_frequency1.2 emissions_S5R_frequency1.2" vType="bus" speedFactor="1.00" vaporized="">
        <emissions CO_abs="2813.273059" CO2_abs="1611719.096332" HC_abs="594.125244" PMx_abs="297.653729" NOx_abs="12925.065640" fuel_abs="687.321186" electricity_abs="0"/>
    </tripinfo>
    <tripinfo id="h3688c1:1" depart="57625.00" departLane="201201950#1_1" departPos="5.10" departSpeed="0.00" departDelay="0.00" arrival="57770.00" arrivalLane="32978638#0_1" arrivalPos="49.29" arrivalSpeed="13.01" duration="145.00" routeLength="1089.75" waitingTime="52.00" waitingCount="1" stopTime="0.00" timeLoss="67.48" rerouteNo="1" devices="tripinfo_h3688c1:1 routing_h3688c1:1 emissions_h3688c1:1" vType="default_016" speedFactor="1.02" vaporized="">
        <emissions CO_abs="11192.289296" CO2_abs="376449.771896" HC_abs="59.784462" PMx_abs="7.505031" NOx_abs="158.968742" fuel_abs="161.823013" electricity_abs="0"/>
    </tripinfo>
    <tripinfo id="carIn121703:1" depart="57647.00" departLane="386687232#0_1" departPos="5.10" departSpeed="0.00" departDelay="0.30" arrival="57775.00" arrivalLane="-315358244_1" arrivalPos="33.95" arrivalSpeed="14.03" duration="128.00" routeLength="1157.39" waitingTime="24.00" waitingCount="2" stopTime="0.00" timeLoss="45.16" rerouteNo="1" devices="tripinfo_carIn121703:1 routing_carIn121703:1 emissions_carIn121703:1" vType="default_016" speedFactor="1.02" vaporized="">
        <emissions CO_abs="6411.429703" CO2_abs="311536.036164" HC_abs="36.422462" PMx_abs="5.435342" NOx_abs="125.862712" fuel_abs="133.917609" electricity_abs="0"/>
    </tripinfo>
    <tripinfo id="h3326c1:2" depart="57656.00" departLane="22716069#0_1" departPos="5.10" departSpeed="0.00" departDelay="0.00" arrival="57775.00" arrivalLane="24634517#13_1" arrivalPos="111.62" arrivalSpeed="12.25" duration="119.00" routeLength="1312.81" waitingTime="0.00" waitingCount="0" stopTime="0.00" timeLoss="16.05" rerouteNo="1" devices="tripinfo_h3326c1:2 routing_h3326c1:2 emissions_h3326c1:2" vType="default_016" speedFactor="0.95" vaporized="">
        <emissions CO_abs="4179.534440" CO2_abs="304124.800663" HC_abs="26.116088" PMx_abs="4.959801" NOx_abs="121.197969" fuel_abs="130.730496" electricity_abs="0"/>
    </tripinfo>
    <tripinfo id="carIn27009:1" depart="57673.00" departLane="-447569998#1_1" departPos="5.10" departSpeed="0.00" departDelay="0.50" arrival="57776.00" arrivalLane="-26677539_1" arrivalPos="152.75" arrivalSpeed="7.17" duration="103.00" routeLength="699.63" waitingTime="2.00" waitingCount="1" stopTime="0.00" timeLoss="17.67" rerouteNo="1" devices="tripinfo_carIn27009:1 routing_carIn27009:1 emissions_carIn27009:1" vType="default_015" speedFactor="0.98" vaporized="">
        <emissions CO_abs="4118.837599" CO2_abs="181486.452542" HC_abs="22.897472" PMx_abs="2.861559" NOx_abs="73.192139" fuel_abs="78.014799" electricity_abs="0"/>
    </tripinfo>
    <tripinfo id="carIn22761:1" depart="57616.00" departLane="-306240162#1_0" departPos="5.10" departSpeed="0.00" departDelay="2.10" arrival="57778.00" arrivalLane="399835085#1_1" arrivalPos="212.23" arrivalSpeed="9.46" duration="162.00" routeLength="1093.26" waitingTime="63.00" waitingCount="2" stopTime="0.00" timeLoss="95.79" rerouteNo="1" devices="tripinfo_carIn22761:1 routing_carIn22761:1 emissions_carIn22761:1" vType="default_016" speedFactor="1.19" vaporized="">
        <emissions CO_abs="15435.552064" CO2_abs="527261.589384" HC_abs="82.895472" PMx_abs="11.492518" NOx_abs="228.682380" fuel_abs="226.650247" electricity_abs="0"/>
    </tripinfo>
    <tripinfo id="carIn30817:1" depart="57681.00" departLane="315358244_1" departPos="5.10" departSpeed="0.00" departDelay="0.20" arrival="57787.00" arrivalLane="447569997#1_1" arrivalPos="180.93" arrivalSpeed="6.63" duration="106.00" routeLength="718.04" waitingTime="19.00" waitingCount="1" stopTime="0.00" timeLoss="32.71" rerouteNo="1" devices="tripinfo_carIn30817:1 routing_carIn30817:1 emissions_carIn30817:1" vType="default_016" speedFactor="0.85" vaporized="">
        <emissions CO_abs="5338.940911" CO2_abs="197594.867946" HC_abs="28.886491" PMx_abs="3.539392" NOx_abs="81.766666" fuel_abs="84.939406" electricity_abs="0"/>
    </tripinfo>
    <tripinfo id="h3154c1:1" depart="57658.00" departLane="24634507_1" departPos="5.10" departSpeed="0.00" departDelay="0.00" arrival="57788.00" arrivalLane="-266565295#5_1" arrivalPos="172.76" arrivalSpeed="12.58" duration="130.00" routeLength="1206.22" waitingTime="19.00" waitingCount="1" stopTime="0.00" timeLoss="37.07" rerouteNo="1" devices="tripinfo_h3154c1:1 routing_h3154c1:1 emissions_h3154c1:1" vType="default_016" speedFactor="0.96" vaporized="">
        <emissions CO_abs="6123.376508" CO2_abs="311002.656524" HC_abs="35.185414" PMx_abs="5.634729" NOx_abs="127.866386" fuel_abs="133.687692" electricity_abs="0"/>
    </tripinfo>
    <tripinfo id="h5979c1:5" depart="57669.00" departLane="399835085#1_1" departPos="5.10" departSpeed="0.00" departDelay="0.00" arrival="57791.00" arrivalLane="-315358254#1_1" arrivalPos="137.16" arrivalSpeed="14.03" duration="122.00" routeLength="659.33" waitingTime="40.00" waitingCount="1" stopTime="0.00" timeLoss="53.04" rerouteNo="1" devices="tripinfo_h5979c1:5 routing_h5979c1:5 emissions_h5979c1:5" vType="default_016" speedFactor="1.06" vaporized="">
        <emissions CO_abs="9239.373664" CO2_abs="280890.702224" HC_abs="48.585826" PMx_abs="5.367428" NOx_abs="118.353701" fuel_abs="120.746395" electricity_abs="0"/>
    </tripinfo>
    <tripinfo id="carIn107084:1" depart="57601.00" departLane="124812856#0_1" departPos="5.10" departSpeed="0.00" departDelay="0.70" arrival="57794.00" arrivalLane="-128361102#1_1" arrivalPos="274.68" arrivalSpeed="13.04" duration="193.00" routeLength="2250.49" waitingTime="10.00" waitingCount="1" stopTime="0.00" timeLoss="33.33" rerouteNo="1" devices="tripinfo_carIn107084:1 routing_carIn107084:1 emissions_carIn107084:1" vType="default_016" speedFactor="1.03" vaporized="">
        <emissions CO_abs="6186.042741" CO2_abs="474465.560236" HC_abs="39.163734" PMx_abs="7.568242" NOx_abs="186.044712" fuel_abs="203.953007" electricity_abs="0"/>
    </tripinfo>
    <tripinfo id="carIn12365:1" depart="57713.00" departLane="315358244_1" departPos="5.10" departSpeed="0.00" departDelay="0.50" arrival="57805.00" arrivalLane="447569997#1_1" arrivalPos="180.93" arrivalSpeed="8.25" duration="92.00" routeLength="718.04" waitingTime="17.00" waitingCount="1" stopTime="0.00" timeLoss="31.39" rerouteNo="1" devices="tripinfo_carIn12365:1 routing_carIn12365:1 emissions_carIn12365:1" vType="default_016" speedFactor="1.03" vaporized="">
        <emissions CO_abs="5048.485705" CO2_abs="210700.393956" HC_abs="27.907775" PMx_abs="3.844443" NOx_abs="87.173535" fuel_abs="90.572423" electricity_abs="0"/>
    </tripinfo>
    <tripinfo id="h11737c1:1" depart="57665.00" departLane="272042143_1" departPos="5.10" departSpeed="0.00" departDelay="1.50" arrival="57807.00" arrivalLane="-315358254#1_1" arrivalPos="137.16" arrivalSpeed="12.86" duration="142.00" routeLength="1596.88" waitingTime="8.00" waitingCount="1" stopTime="0.00" timeLoss="24.58" rerouteNo="1" devices="tripinfo_h11737c1:1 routing_h11737c1:1 emissions_h11737c1:1" vType="default_016" speedFactor="1.00" vaporized="">
        <emissions CO_abs="4383.231651" CO2_abs="345111.349662" HC_abs="28.007493" PMx_abs="5.599585" NOx_abs="136.410423" fuel_abs="148.348726" electricity_abs="0"/>
    </tripinfo>
    <tripinfo id="carIn118591:1" depart="57689.00" departLane="315358244_1" departPos="5.10" departSpeed="0.00" departDelay="0.20" arrival="57807.00" arrivalLane="386687235_1" arrivalPos="80.84" arrivalSpeed="13.60" duration="118.00" routeLength="1186.14" waitingTime="12.00" waitingCount="1" stopTime="0.00" timeLoss="32.65" rerouteNo="1" devices="tripinfo_carIn118591:1 routing_carIn118591:1 emissions_carIn118591:1" vType="default_016" speedFactor="1.01" vaporized="">
        <emissions CO_abs="5068.186258" CO2_abs="305561.115371" HC_abs="30.237961" PMx_abs="5.266200" NOx_abs="123.341880" fuel_abs="131.348247" electricity_abs="0"/>
    </tripinfo>
    <tripinfo id="carIn107282:1" depart="57749.00" departLane="-447569998#1_1" departPos="5.10" departSpeed="0.00" departDelay="0.00" arrival="57809.00" arrivalLane="315358242#0_1" arrivalPos="165.37" arrivalSpeed="11.96" duration="60.00" routeLength="448.50" waitingTime="3.00" waitingCount="1" stopTime="0.00" timeLoss="12.02" rerouteNo="1" devices="tripinfo_carIn107282:1 routing_carIn107282:1 emissions_carIn107282:1" vType="default_016" speedFactor="0.88" vaporized="">
        <emissions CO_abs="2584.303706" CO2_abs="125513.849250" HC_abs="14.674757" PMx_abs="2.132223" NOx_abs="51.298235" fuel_abs="53.953669" electricity_abs="0"/>
    </tripinfo>
    <tripinfo id="carIn86816:1" depart="57617.00" departLane="128361102#0_1" departPos="5.10" departSpeed="0.00" departDelay="0.80" arrival="57812.00" arrivalLane="201956811#0_1" arrivalPos="40.40" arrivalSpeed="13.37" duration="195.00" routeLength="2067.33" waitingTime="20.00" waitingCount="2" stopTime="0.00" timeLoss="47.31" rerouteNo="1" devices="tripinfo_carIn86816:1 routing_carIn86816:1 emissions_carIn86816:1" vType="default_016" speedFactor="1.03" vaporized="">
        <emissions CO_abs="7501.368963" CO2_abs="498851.153586" HC_abs="45.729318" PMx_abs="8.323321" NOx_abs="198.679114" fuel_abs="214.435576" electricity_abs="0"/>
    </tripinfo>
    <tripinfo id="carIn82220:1" depart="57619.00" departLane="-306240162#1_0" departPos="5.10" departSpeed="0.00" departDelay="3.50" arrival="57813.00" arrivalLane="386687235_1" arrivalPos="80.84" arrivalSpeed="15.50" duration="194.00" routeLength="2257.41" waitingTime="15.00" waitingCount="4" stopTime="0.00" timeLoss="66.77" rerouteNo="1" devices="tripinfo_carIn82220:1 routing_carIn82220:1 emissions_carIn82220:1" vType="default_016" speedFactor="1.17" vaporized="">
        <emissions CO_abs="10050.533999" CO2_abs="666355.636989" HC_abs="61.513539" PMx_abs="12.813992" NOx_abs="275.025841" fuel_abs="286.436421" electricity_abs="0"/>
    </tripinfo>
    <tripinfo id="carIn48184:1" depart="57613.00" departLane="-306240162#1_0" departPos="5.10" departSpeed="0.00" departDelay="0.70" arrival="57814.00" arrivalLane="386687235_1" arrivalPos="80.84" arrivalSpeed="12.83" duration="201.00" routeLength="2257.41" waitingTime="13.00" waitingCount="3" stopTime="0.00" timeLoss="46.71" rerouteNo="1" devices="tripinfo_carIn48184:1 routing_carIn48184:1 emissions_carIn48184:1" vType="default_016" speedFactor="0.96" vaporized="">
        <emissions CO_abs="7507.564315" CO2_abs="528729.253346" HC_abs="46.534473" PMx_abs="9.126343" NOx_abs="211.411853" fuel_abs="227.278214" electricity_abs="0"/>
    </tripinfo>
    <tripinfo id="carIn50326:1" depart="57651.00" departLane="128361102#0_1" departPos="5.10" departSpeed="0.00" departDelay="0.30" arrival="57822.00" arrivalLane="18809673#0_1" arrivalPos="473.56" arrivalSpeed="12.73" duration="171.00" routeLength="1591.07" waitingTime="17.00" waitingCount="1" stopTime="0.00" timeLoss="42.77" rerouteNo="1" devices="tripinfo_carIn50326:1 routing_carIn50326:1 emissions_carIn50326:1" vType="default_016" speedFactor="1.01" vaporized="">
        <emissions CO_abs="7635.184162" CO2_abs="399643.556279" HC_abs="44.048560" PMx_abs="6.868842" NOx_abs="161.798977" fuel_abs="171.791267" electricity_abs="0"/>
    </tripinfo>
    <tripinfo id="h17549c1:1" depart="57680.00" departLane="-447569998#1_1" departPos="5.10" departSpeed="0.00" departDelay="0.00" arrival="57822.00" arrivalLane="-315358254#1_1" arrivalPos="137.16" arrivalSpeed="14.72" duration="142.00" routeLength="1746.60" waitingTime="0.00" waitingCount="0" stopTime="0.00" timeLoss="13.48" rerouteNo="1" devices="tripinfo_h17549c1:1 routing_h17549c1:1 emissions_h17549c1:1" vType="default_016" speedFactor="1.06" vaporized="">
        <emissions CO_abs="4300.150196" CO2_abs="356408.748867" HC_abs="27.831426" PMx_abs="5.779710" NOx_abs="140.470769" fuel_abs="153.204836" electricity_abs="0"/>
    </tripinfo>
    <tripinfo id="carIn129809:1" depart="57729.00" departLane="-447569998#1_1" departPos="5.10" departSpeed="0.00" departDelay="1.00" arrival="57833.00" arrivalLane="-315358244_1" arrivalPos="33.95" arrivalSpeed="12.85" duration="104.00" routeLength="706.49" waitingTime="27.00" waitingCount="1" stopTime="0.00" timeLoss="40.94" rerouteNo="1" devices="tripinfo_carIn129809:1 routing_carIn129809:1 emissions_carIn129809:1" vType="default_015" speedFactor="0.97" vaporized="">
        <emissions CO_abs="6894.921338" CO2_abs="248018.067141" HC_abs="37.167236" PMx_abs="4.571440" NOx_abs="102.867744" fuel_abs="106.614680" electricity_abs="0"/>
    </tripinfo>
    <tripinfo id="carIn126378:1" depart="57746.00" departLane="386687232#0_1" departPos="5.10" departSpeed="0.00" departDelay="1.80" arrival="57834.00" arrivalLane="-315358244_1" arrivalPos="33.95" arrivalSpeed="14.47" duration="88.00" routeLength="1157.39" waitingTime="0.00" waitingCount="0" stopTime="0.00" timeLoss="11.05" rerouteNo="1" devices="tripinfo_carIn126378:1 routing_carIn126378:1 emissions_carIn126378:1" vType="default_016" speedFactor="1.09" vaporized="">
        <emissions CO_abs="2830.605257" CO2_abs="236166.895464" HC_abs="18.391215" PMx_abs="3.979629" NOx_abs="93.828913" fuel_abs="101.517798" electricity_abs="0"/>
    </tripinfo>
    <tripinfo id="randUni15030:1" depart="57735.00" departLane="386687232#0_1" departPos="5.10" departSpeed="0.00" departDelay="0.10" arrival="57841.00" arrivalLane="26677539_1" arrivalPos="151.98" arrivalSpeed="6.85" duration="106.00" routeLength="919.89" waitingTime="0.00" waitingCount="0" stopTime="0.00" timeLoss="12.38" rerouteNo="1" devices="tripinfo_randUni15030:1 routing_randUni15030:1 emissions_randUni15030:1" vType="random_016" speedFactor="0.90" vaporized="">
        <emissions CO_abs="4011.859206" CO2_abs="221444.182102" HC_abs="23.358402" PMx_abs="3.446615" NOx_abs="88.109473" fuel_abs="95.190552" electricity_abs="0"/>
    </tripinfo>
    <tripinfo id="h645c1:1" depart="57622.00" departLane="266565295#5_1" departPos="5.10" departSpeed="0.00" departDelay="0.40" arrival="57842.00" arrivalLane="-315358244_1" arrivalPos="33.95" arrivalSpeed="11.96" duration="220.00" routeLength="1910.83" waitingTime="28.00" waitingCount="3" stopTime="0.00" timeLoss="60.24" rerouteNo="1" devices="tripinfo_h645c1:1 routing_h645c1:1 emissions_h645c1:1" vType="default_016" speedFactor="0.87" vaporized="">
        <emissions CO_abs="8991.647770" CO2_abs="464207.814914" HC_abs="51.688051" PMx_abs="7.594091" NOx_abs="185.742561" fuel_abs="199.545610" electricity_abs="0"/>
    </tripinfo>
    <tripinfo id="carIn7949:1" depart="57676.00" departLane="128361109#1_1" departPos="5.10" departSpeed="0.00" departDelay="2.10" arrival="57842.00" arrivalLane="386687235_1" arrivalPos="80.84" arrivalSpeed="14.90" duration="166.00" routeLength="2088.57" waitingTime="6.00" waitingCount="1" stopTime="0.00" timeLoss="25.30" rerouteNo="1" devices="tripinfo_carIn7949:1 routing_carIn7949:1 emissions_carIn7949:1" vType="default_016" speedFactor="1.07" vaporized="">
        <emissions CO_abs="4531.904558" CO2_abs="385119.116643" HC_abs="29.539063" PMx_abs="6.350914" NOx_abs="151.809164" fuel_abs="165.545992" electricity_abs="0"/>
    </tripinfo>
    <tripinfo id="carIn73855:1" depart="57743.00" departLane="386687232#0_1" departPos="5.10" departSpeed="0.00" departDelay="0.50" arrival="57844.00" arrivalLane="-315358244_1" arrivalPos="33.95" arrivalSpeed="12.06" duration="101.00" routeLength="1157.39" waitingTime="0.00" waitingCount="0" stopTime="0.00" timeLoss="10.59" rerouteNo="1" devices="tripinfo_carIn73855:1 routing_carIn73855:1 emissions_carIn73855:1" vType="default_016" speedFactor="0.93" vaporized="">
        <emissions CO_abs="2874.345670" CO2_abs="228907.496584" HC_abs="18.420378" PMx_abs="3.631519" NOx_abs="90.339605" fuel_abs="98.397680" electricity_abs="0"/>
    </tripinfo>
    <tripinfo id="carIn102915:1" depart="57643.00" departLane="128361102#0_1" departPos="5.10" departSpeed="0.00" departDelay="0.40" arrival="57845.00" arrivalLane="201956811#0_1" arrivalPos="40.40" arrivalSpeed="12.46" duration="202.00" routeLength="2067.33" waitingTime="16.00" waitingCount="3" stopTime="0.00" timeLoss="48.37" rerouteNo="1" devices="tripinfo_carIn102915:1 routing_carIn102915:1 emissions_carIn102915:1" vType="default_016" speedFactor="0.99" vaporized="">
        <emissions CO_abs="7191.947225" CO2_abs="491740.241248" HC_abs="44.235485" PMx_abs="8.168115" NOx_abs="196.429640" fuel_abs="211.378703" electricity_abs="0"/>
    </tripinfo>
    <tripinfo id="carIn77943:1" depart="57608.00" departLane="124812856#0_1" departPos="5.10" departSpeed="0.00" departDelay="2.50" arrival="57847.00" arrivalLane="-128361102#1_1" arrivalPos="274.68" arrivalSpeed="13.49" duration="239.00" routeLength="2250.49" waitingTime="35.00" waitingCount="3" stopTime="0.00" timeLoss="71.12" rerouteNo="1" devices="tripinfo_carIn77943:1 routing_carIn77943:1 emissions_carIn77943:1" vType="default_016" speedFactor="0.98" vaporized="">
        <emissions CO_abs="10384.161098" CO2_abs="573396.669395" HC_abs="60.696430" PMx_abs="9.942720" NOx_abs="231.950765" fuel_abs="246.480459" electricity_abs="0"/>
    </tripinfo>
    <tripinfo id="carIn81046:1" depart="57611.00" departLane="124812856#0_1" departPos="5.10" departSpeed="0.00" departDelay="2.50" arrival="57848.00" arrivalLane="-128361102#1_1" arrivalPos="274.68" arrivalSpeed="13.77" duration="237.00" routeLength="2250.49" waitingTime="32.00" waitingCount="4" stopTime="0.00" timeLoss="80.83" rerouteNo="1" devices="tripinfo_carIn81046:1 routing_carIn81046:1 emissions_carIn81046:1" vType="default_016" speedFactor="1.05" vaporized="">
        <emissions CO_abs="10306.895084" CO2_abs="584108.109808" HC_abs="60.639334" PMx_abs="10.492109" NOx_abs="238.831358" fuel_abs="251.084068" electricity_abs="0"/>
    </tripinfo>
    <tripinfo id="carIn12775:1" depart="57676.00" departLane="10425609#0_1" departPos="5.10" departSpeed="0.00" departDelay="0.60" arrival="57848.00" arrivalLane="18809673#0_1" arrivalPos="473.56" arrivalSpeed="15.00" duration="172.00" routeLength="1959.45" waitingTime="13.00" waitingCount="2" stopTime="0.00" timeLoss="44.05" rerouteNo="1" devices="tripinfo_carIn12775:1 routing_carIn12775:1 emissions_carIn12775:1" vType="default_016" speedFactor="1.13" vaporized="">
        <emissions CO_abs="6476.493789" CO2_abs="474274.191255" HC_abs="40.503316" PMx_abs="8.294606" NOx_abs="190.818916" fuel_abs="203.869847" electricity_abs="0"/>
    </tripinfo>
    <tripinfo id="50R_frequency3.17" depart="57674.00" departLane="-18809673#6_1" departPos="12.10" departSpeed="0.00" departDelay="0.70" arrival="57849.00" arrivalLane="201956811#0_1" arrivalPos="40.40" arrivalSpeed="13.31" duration="175.00" routeLength="1954.47" waitingTime="6.00" waitingCount="1" stopTime="0.00" timeLoss="29.56" rerouteNo="1" devices="tripinfo_50R_frequency3.17 routing_50R_frequency3.17 emissions_50R_frequency3.17" vType="bus" speedFactor="1.00" vaporized="">
        <emissions CO_abs="3155.743719" CO2_abs="1977398.424873" HC_abs="665.313848" PMx_abs="338.299042" NOx_abs="15342.895470" fuel_abs="843.338458" electricity_abs="0"/>
    </tripinfo>
    <tripinfo id="carIn77438:1" depart="57614.00" departLane="124812856#0_1" departPos="5.10" departSpeed="0.00" departDelay="1.10" arrival="57850.00" arrivalLane="-128361102#1_1" arrivalPos="274.68" arrivalSpeed="14.73" duration="236.00" routeLength="2250.49" waitingTime="30.00" waitingCount="5" stopTime="0.00" timeLoss="82.43" rerouteNo="1" devices="tripinfo_carIn77438:1 routing_carIn77438:1 emissions_carIn77438:1" vType="default_016" speedFactor="1.07" vaporized="">
        <emissions CO_abs="10438.188037" CO2_abs="606931.744065" HC_abs="61.642765" PMx_abs="10.927327" NOx_abs="247.971661" fuel_abs="260.894748" electricity_abs="0"/>
    </tripinfo>
    <tripinfo id="h3864c1:3" depart="57678.00" departLane="24693977#1_1" departPos="5.10" departSpeed="0.00" departDelay="0.00" arrival="57850.00" arrivalLane="201956820_1" arrivalPos="48.33" arrivalSpeed="13.91" duration="172.00" routeLength="1574.85" waitingTime="21.00" waitingCount="2" stopTime="0.00" timeLoss="50.38" rerouteNo="1" devices="tripinfo_h3864c1:3 routing_h3864c1:3 emissions_h3864c1:3" vType="default_016" speedFactor="1.07" vaporized="">
        <emissions CO_abs="8421.693724" CO2_abs="468516.524950" HC_abs="49.241632" PMx_abs="8.491004" NOx_abs="192.675314" fuel_abs="201.395930" electricity_abs="0"/>
    </tripinfo>
    <tripinfo id="randUni33724:1" depart="57646.00" departLane="128361102#0_1" departPos="5.10" departSpeed="0.00" departDelay="1.20" arrival="57852.00" arrivalLane="201956811#0_1" arrivalPos="40.40" arrivalSpeed="12.26" duration="206.00" routeLength="2067.33" waitingTime="9.00" waitingCount="3" stopTime="0.00" timeLoss="47.61" rerouteNo="1" devices="tripinfo_randUni33724:1 routing_randUni33724:1 emissions_randUni33724:1" vType="random_016" speedFactor="0.95" vaporized="">
        <emissions CO_abs="7467.417077" CO2_abs="486200.440445" HC_abs="45.356270" PMx_abs="8.140791" NOx_abs="195.483310" fuel_abs="208.997492" electricity_abs="0"/>