<?xml version="1.0" encoding="UTF-8"?>

<!-- generated on 2021-10-26 18:29:57 by Eclipse SUMO sumo Version 1.10.0
<configuration xmlns:xsi="http://www.w3.org/2001/XMLSchema-instance" xsi:noNamespaceSchemaLocation="http://sumo.dlr.de/xsd/sumoConfiguration.xsd">

    <input>
        <net-file value="/Users/behradkoohy/sumo-scratchpad/RESCO/environments/ingolstadt21/ingolstadt21.net.xml"/>
        <route-files value="/Users/behradkoohy/sumo-scratchpad/RESCO/environments/ingolstadt21/ingolstadt21.rou.xml"/>
    </input>

    <output>
        <tripinfo-output value="/Users/behradkoohy/sumo-scratchpad/RESCO/logs/IPPO-tr0-ingolstadt21-21-drq_norm-wait_norm/tripinfo_73.xml"/>
        <tripinfo-output.write-unfinished value="true"/>
    </output>

    <time>
        <begin value="57600"/>
        <end value="61200"/>
    </time>

    <processing>
        <time-to-teleport value="-1"/>
    </processing>

    <report>
        <no-warnings value="true"/>
        <no-step-log value="true"/>
    </report>

    <emissions>
        <device.emissions.probability value="1"/>
    </emissions>

    <traci_server>
        <remote-port value="62360"/>
    </traci_server>

    <random_number>
        <random value="true"/>
    </random_number>

</configuration>
-->

<tripinfos xmlns:xsi="http://www.w3.org/2001/XMLSchema-instance" xsi:noNamespaceSchemaLocation="http://sumo.dlr.de/xsd/tripinfo_file.xsd">
    <tripinfo id="h15454c2:3" depart="57612.00" departLane="24608844_1" departPos="5.10" departSpeed="0.00" departDelay="0.50" arrival="57652.00" arrivalLane="32978638#0_1" arrivalPos="49.29" arrivalSpeed="12.46" duration="40.00" routeLength="354.79" waitingTime="0.00" waitingCount="0" stopTime="0.00" timeLoss="5.60" rerouteNo="1" devices="tripinfo_h15454c2:3 routing_h15454c2:3 emissions_h15454c2:3" vType="default_016" speedFactor="0.98" vaporized="">
        <emissions CO_abs="1977.991033" CO2_abs="103575.661806" HC_abs="11.420334" PMx_abs="1.804127" NOx_abs="42.539485" fuel_abs="44.523078" electricity_abs="0"/>
    </tripinfo>
    <tripinfo id="carIn60260:1" depart="57606.00" departLane="315358254#0_1" departPos="5.10" departSpeed="0.00" departDelay="0.90" arrival="57676.00" arrivalLane="399835085#1_1" arrivalPos="212.23" arrivalSpeed="7.40" duration="70.00" routeLength="430.98" waitingTime="10.00" waitingCount="1" stopTime="0.00" timeLoss="20.86" rerouteNo="1" devices="tripinfo_carIn60260:1 routing_carIn60260:1 emissions_carIn60260:1" vType="default_016" speedFactor="0.95" vaporized="">
        <emissions CO_abs="3662.593702" CO2_abs="133850.152750" HC_abs="19.772392" PMx_abs="2.399283" NOx_abs="55.642041" fuel_abs="57.537703" electricity_abs="0"/>
    </tripinfo>
    <tripinfo id="carIn53971:1" depart="57640.00" departLane="272042143_1" departPos="5.10" departSpeed="0.00" departDelay="0.80" arrival="57690.00" arrivalLane="24634414#1_1" arrivalPos="162.19" arrivalSpeed="9.07" duration="50.00" routeLength="493.04" waitingTime="0.00" waitingCount="0" stopTime="0.00" timeLoss="8.47" rerouteNo="1" devices="tripinfo_carIn53971:1 routing_carIn53971:1 emissions_carIn53971:1" vType="default_016" speedFactor="1.11" vaporized="">
        <emissions CO_abs="2473.130319" CO2_abs="145939.414085" HC_abs="14.668107" PMx_abs="2.601055" NOx_abs="59.934422" fuel_abs="62.733256" electricity_abs="0"/>
    </tripinfo>
    <tripinfo id="h3688c1:1" depart="57625.00" departLane="201201950#1_1" departPos="5.10" departSpeed="0.00" departDelay="0.00" arrival="57720.00" arrivalLane="32978638#0_1" arrivalPos="49.29" arrivalSpeed="14.11" duration="95.00" routeLength="1089.75" waitingTime="2.00" waitingCount="1" stopTime="0.00" timeLoss="18.50" rerouteNo="1" devices="tripinfo_h3688c1:1 routing_h3688c1:1 emissions_h3688c1:1" vType="default_016" speedFactor="1.05" vaporized="">
        <emissions CO_abs="3696.213984" CO2_abs="249702.523461" HC_abs="22.691852" PMx_abs="4.548376" NOx_abs="102.463533" fuel_abs="107.336146" electricity_abs="0"/>
    </tripinfo>
    <tripinfo id="carIn22761:1" depart="57616.00" departLane="-306240162#1_0" departPos="5.10" departSpeed="0.00" departDelay="2.10" arrival="57725.00" arrivalLane="399835085#1_1" arrivalPos="212.23" arrivalSpeed="7.69" duration="109.00" routeLength="1093.26" waitingTime="7.00" waitingCount="1" stopTime="0.00" timeLoss="28.91" rerouteNo="1" devices="tripinfo_carIn22761:1 routing_carIn22761:1 emissions_carIn22761:1" vType="default_016" speedFactor="0.98" vaporized="">
        <emissions CO_abs="5339.811161" CO2_abs="309850.754592" HC_abs="31.670661" PMx_abs="5.872576" NOx_abs="128.502656" fuel_abs="133.191547" electricity_abs="0"/>
    </tripinfo>
    <tripinfo id="S5R_frequency1.2" depart="57612.00" departLane="315358250#0_1" departPos="12.10" departSpeed="0.00" departDelay="0.40" arrival="57736.00" arrivalLane="386687235_1" arrivalPos="80.84" arrivalSpeed="13.15" duration="124.00" routeLength="1115.62" waitingTime="18.00" waitingCount="1" stopTime="0.00" timeLoss="43.04" rerouteNo="1" devices="tripinfo_S5R_frequency1.2 routing_S5R_frequency1.2 emissions_S5R_frequency1.2" vType="bus" speedFactor="1.00" vaporized="">
        <emissions CO_abs="2287.267914" CO2_abs="1294106.760748" HC_abs="494.718864" PMx_abs="242.321321" NOx_abs="10413.039053" fuel_abs="551.879969" electricity_abs="0"/>
    </tripinfo>
    <tripinfo id="h4538c1:1" depart="57701.00" departLane="-10427692#1_1" departPos="5.10" departSpeed="0.00" departDelay="0.00" arrival="57737.00" arrivalLane="-128361102#1_1" arrivalPos="274.68" arrivalSpeed="14.04" duration="36.00" routeLength="440.74" waitingTime="0.00" waitingCount="0" stopTime="0.00" timeLoss="6.09" rerouteNo="1" devices="tripinfo_h4538c1:1 routing_h4538c1:1 emissions_h4538c1:1" vType="default_016" speedFactor="1.09" vaporized="">
        <emissions CO_abs="1484.966599" CO2_abs="112592.908615" HC_abs="9.335936" PMx_abs="1.908745" NOx_abs="44.920853" fuel_abs="48.398835" electricity_abs="0"/>
    </tripinfo>
    <tripinfo id="h9563c2:5" depart="57631.00" departLane="315358244_1" departPos="5.10" departSpeed="0.00" departDelay="0.70" arrival="57740.00" arrivalLane="386687235_1" arrivalPos="80.84" arrivalSpeed="12.42" duration="109.00" routeLength="1186.14" waitingTime="7.00" waitingCount="1" stopTime="0.00" timeLoss="19.27" rerouteNo="1" devices="tripinfo_h9563c2:5 routing_h9563c2:5 emissions_h9563c2:5" vType="default_016" speedFactor="0.97" vaporized="">
        <emissions CO_abs="3062.898178" CO2_abs="232851.286856" HC_abs="19.355268" PMx_abs="3.669476" NOx_abs="91.458665" fuel_abs="100.093133" electricity_abs="0"/>
    </tripinfo>
    <tripinfo id="h317c2:1" depart="57707.00" departLane="-32978638#0_1" departPos="5.10" departSpeed="0.00" departDelay="0.10" arrival="57743.00" arrivalLane="-266565295#5_1" arrivalPos="172.76" arrivalSpeed="11.81" duration="36.00" routeLength="370.53" waitingTime="0.00" waitingCount="0" stopTime="0.00" timeLoss="6.02" rerouteNo="1" devices="tripinfo_h317c2:1 routing_h317c2:1 emissions_h317c2:1" vType="default_016" speedFactor="0.93" vaporized="">
        <emissions CO_abs="1503.570062" CO2_abs="99951.582106" HC_abs="9.181499" PMx_abs="1.677198" NOx_abs="40.254635" fuel_abs="42.965020" electricity_abs="0"/>
    </tripinfo>
    <tripinfo id="carIn30817:1" depart="57681.00" departLane="315358244_1" departPos="5.10" departSpeed="0.00" departDelay="0.20" arrival="57753.00" arrivalLane="447569997#1_1" arrivalPos="180.93" arrivalSpeed="7.85" duration="72.00" routeLength="718.04" waitingTime="0.00" waitingCount="0" stopTime="0.00" timeLoss="14.00" rerouteNo="1" devices="tripinfo_carIn30817:1 routing_carIn30817:1 emissions_carIn30817:1" vType="default_016" speedFactor="1.07" vaporized="">
        <emissions CO_abs="3440.372107" CO2_abs="208493.067662" HC_abs="20.549983" PMx_abs="3.620430" NOx_abs="84.797747" fuel_abs="89.622552" electricity_abs="0"/>
    </tripinfo>
    <tripinfo id="carIn121703:1" depart="57647.00" departLane="386687232#0_1" departPos="5.10" departSpeed="0.00" departDelay="0.30" arrival="57755.00" arrivalLane="-315358244_1" arrivalPos="33.95" arrivalSpeed="15.88" duration="108.00" routeLength="1157.39" waitingTime="23.00" waitingCount="1" stopTime="0.00" timeLoss="35.50" rerouteNo="1" devices="tripinfo_carIn121703:1 routing_carIn121703:1 emissions_carIn121703:1" vType="default_016" speedFactor="1.17" vaporized="">
        <emissions CO_abs="5723.368876" CO2_abs="280955.571634" HC_abs="32.513828" PMx_abs="5.050263" NOx_abs="113.166735" fuel_abs="120.772055" electricity_abs="0"/>
    </tripinfo>
    <tripinfo id="h7800c1:5" depart="57696.00" departLane="-447569998#1_1" departPos="5.10" departSpeed="0.00" departDelay="0.00" arrival="57755.00" arrivalLane="-447569998#1_2" arrivalPos="180.76" arrivalSpeed="4.67" duration="59.00" routeLength="175.66" waitingTime="29.00" waitingCount="1" stopTime="0.00" timeLoss="36.30" rerouteNo="1" devices="tripinfo_h7800c1:5 routing_h7800c1:5 emissions_h7800c1:5" vType="default_016" speedFactor="0.95" vaporized="">
        <emissions CO_abs="5458.803416" CO2_abs="121538.040886" HC_abs="27.681040" PMx_abs="2.584359" NOx_abs="53.063054" fuel_abs="52.246352" electricity_abs="0"/>
    </tripinfo>
    <tripinfo id="h5979c1:5" depart="57669.00" departLane="399835085#1_1" departPos="5.10" departSpeed="0.00" departDelay="0.00" arrival="57756.00" arrivalLane="-315358254#1_1" arrivalPos="137.16" arrivalSpeed="14.73" duration="87.00" routeLength="659.33" waitingTime="6.00" waitingCount="1" stopTime="0.00" timeLoss="23.04" rerouteNo="1" devices="tripinfo_h5979c1:5 routing_h5979c1:5 emissions_h5979c1:5" vType="default_016" speedFactor="1.15" vaporized="">
        <emissions CO_abs="3783.623674" CO2_abs="203999.941739" HC_abs="21.909762" PMx_abs="3.420919" NOx_abs="82.826208" fuel_abs="87.691609" electricity_abs="0"/>
    </tripinfo>
    <tripinfo id="h12244c1:3" depart="57612.00" departLane="315358244_1" departPos="5.10" departSpeed="0.00" departDelay="0.40" arrival="57758.00" arrivalLane="386687235_1" arrivalPos="80.84" arrivalSpeed="10.10" duration="146.00" routeLength="1186.14" waitingTime="17.00" waitingCount="2" stopTime="0.00" timeLoss="36.64" rerouteNo="1" devices="tripinfo_h12244c1:3 routing_h12244c1:3 emissions_h12244c1:3" vType="default_016" speedFactor="0.79" vaporized="">
        <emissions CO_abs="6625.896829" CO2_abs="287115.399413" HC_abs="36.806345" PMx_abs="4.867513" NOx_abs="116.686298" fuel_abs="123.420769" electricity_abs="0"/>
    </tripinfo>
    <tripinfo id="h3326c1:2" depart="57656.00" departLane="22716069#0_1" departPos="5.10" departSpeed="0.00" departDelay="0.00" arrival="57767.00" arrivalLane="24634517#13_1" arrivalPos="111.62" arrivalSpeed="14.33" duration="111.00" routeLength="1312.81" waitingTime="3.00" waitingCount="1" stopTime="0.00" timeLoss="20.24" rerouteNo="1" devices="tripinfo_h3326c1:2 routing_h3326c1:2 emissions_h3326c1:2" vType="default_016" speedFactor="1.08" vaporized="">
        <emissions CO_abs="4535.590817" CO2_abs="324289.078787" HC_abs="28.199667" PMx_abs="5.783602" NOx_abs="131.861782" fuel_abs="139.397624" electricity_abs="0"/>
    </tripinfo>
    <tripinfo id="h330c1:1" depart="57736.00" departLane="-32978638#0_1" departPos="5.10" departSpeed="0.00" departDelay="0.20" arrival="57768.00" arrivalLane="-266565295#5_1" arrivalPos="172.76" arrivalSpeed="13.97" duration="32.00" routeLength="370.53" waitingTime="0.00" waitingCount="0" stopTime="0.00" timeLoss="5.26" rerouteNo="1" devices="tripinfo_h330c1:1 routing_h330c1:1 emissions_h330c1:1" vType="default_016" speedFactor="1.02" vaporized="">
        <emissions CO_abs="1655.637603" CO2_abs="109629.333633" HC_abs="10.137295" PMx_abs="2.030264" NOx_abs="45.339125" fuel_abs="47.124802" electricity_abs="0"/>
    </tripinfo>
    <tripinfo id="h3154c1:1" depart="57658.00" departLane="24634507_1" departPos="5.10" departSpeed="0.00" departDelay="0.00" arrival="57771.00" arrivalLane="-266565295#5_1" arrivalPos="172.76" arrivalSpeed="15.70" duration="113.00" routeLength="1206.22" waitingTime="23.00" waitingCount="1" stopTime="0.00" timeLoss="40.07" rerouteNo="1" devices="tripinfo_h3154c1:1 routing_h3154c1:1 emissions_h3154c1:1" vType="default_016" speedFactor="1.22" vaporized="">
        <emissions CO_abs="7429.418740" CO2_abs="366969.276197" HC_abs="42.384099" PMx_abs="7.078291" NOx_abs="151.829519" fuel_abs="157.745196" electricity_abs="0"/>
    </tripinfo>
    <tripinfo id="h3568c1:3" depart="57656.00" departLane="266565295#5_1" departPos="5.10" departSpeed="0.00" departDelay="0.80" arrival="57781.00" arrivalLane="-24634415_1" arrivalPos="62.03" arrivalSpeed="11.00" duration="125.00" routeLength="807.40" waitingTime="28.00" waitingCount="2" stopTime="0.00" timeLoss="50.09" rerouteNo="1" devices="tripinfo_h3568c1:3 routing_h3568c1:3 emissions_h3568c1:3" vType="default_016" speedFactor="0.86" vaporized="">
        <emissions CO_abs="7394.803216" CO2_abs="287706.618826" HC_abs="40.399115" PMx_abs="5.425358" NOx_abs="120.777236" fuel_abs="123.674690" electricity_abs="0"/>
    </tripinfo>
    <tripinfo id="carIn86816:1" depart="57617.00" departLane="128361102#0_1" departPos="5.10" departSpeed="0.00" departDelay="0.80" arrival="57782.00" arrivalLane="201956811#0_1" arrivalPos="40.40" arrivalSpeed="14.36" duration="165.00" routeLength="2067.33" waitingTime="1.00" waitingCount="1" stopTime="0.00" timeLoss="22.07" rerouteNo="1" devices="tripinfo_carIn86816:1 routing_carIn86816:1 emissions_carIn86816:1" vType="default_016" speedFactor="1.07" vaporized="">
        <emissions CO_abs="5082.992784" CO2_abs="426118.618256" HC_abs="33.046198" PMx_abs="7.054591" NOx_abs="168.532203" fuel_abs="183.169885" electricity_abs="0"/>
    </tripinfo>
    <tripinfo id="h7181c1:1" depart="57660.00" departLane="315358254#0_1" departPos="5.10" departSpeed="0.00" departDelay="0.10" arrival="57790.00" arrivalLane="306240162#0_0" arrivalPos="220.43" arrivalSpeed="17.61" duration="130.00" routeLength="932.35" waitingTime="59.00" waitingCount="2" stopTime="0.00" timeLoss="81.78" rerouteNo="1" devices="tripinfo_h7181c1:1 routing_h7181c1:1 emissions_h7181c1:1" vType="default_016" speedFactor="1.07" vaporized="">
        <emissions CO_abs="13759.607332" CO2_abs="468607.865099" HC_abs="73.855406" PMx_abs="10.156441" NOx_abs="202.065612" fuel_abs="201.437387" electricity_abs="0"/>
    </tripinfo>
    <tripinfo id="carIn28951:1" depart="57606.00" departLane="10425609#0_1" departPos="5.10" departSpeed="0.00" departDelay="0.20" arrival="57797.00" arrivalLane="-128361102#1_1" arrivalPos="274.68" arrivalSpeed="12.60" duration="191.00" routeLength="2113.04" waitingTime="8.00" waitingCount="1" stopTime="0.00" timeLoss="27.78" rerouteNo="1" devices="tripinfo_carIn28951:1 routing_carIn28951:1 emissions_carIn28951:1" vType="default_016" speedFactor="0.95" vaporized="">
        <emissions CO_abs="5707.587314" CO2_abs="421339.133319" HC_abs="35.822093" PMx_abs="6.838426" NOx_abs="167.200923" fuel_abs="181.116055" electricity_abs="0"/>
    </tripinfo>
    <tripinfo id="carIn50326:1" depart="57651.00" departLane="128361102#0_1" departPos="5.10" departSpeed="0.00" departDelay="0.30" arrival="57798.00" arrivalLane="18809673#0_1" arrivalPos="473.56" arrivalSpeed="15.55" duration="147.00" routeLength="1591.07" waitingTime="12.00" waitingCount="1" stopTime="0.00" timeLoss="33.49" rerouteNo="1" devices="tripinfo_carIn50326:1 routing_carIn50326:1 emissions_carIn50326:1" vType="default_016" speedFactor="1.15" vaporized="">
        <emissions CO_abs="5245.467891" CO2_abs="364922.250902" HC_abs="32.259194" PMx_abs="6.149538" NOx_abs="145.547283" fuel_abs="156.864752" electricity_abs="0"/>
    </tripinfo>
    <tripinfo id="carIn118591:1" depart="57689.00" departLane="315358244_1" departPos="5.10" departSpeed="0.00" departDelay="0.20" arrival="57807.00" arrivalLane="386687235_1" arrivalPos="80.84" arrivalSpeed="12.54" duration="118.00" routeLength="1186.14" waitingTime="16.00" waitingCount="1" stopTime="0.00" timeLoss="28.65" rerouteNo="1" devices="tripinfo_carIn118591:1 routing_carIn118591:1 emissions_carIn118591:1" vType="default_016" speedFactor="0.97" vaporized="">
        <emissions CO_abs="4603.484593" CO2_abs="266512.206881" HC_abs="27.139289" PMx_abs="4.308327" NOx_abs="105.383331" fuel_abs="114.563343" electricity_abs="0"/>
    </tripinfo>
    <tripinfo id="carIn12365:1" depart="57713.00" departLane="315358244_1" departPos="5.10" departSpeed="0.00" departDelay="0.50" arrival="57807.00" arrivalLane="447569997#1_1" arrivalPos="180.93" arrivalSpeed="6.41" duration="94.00" routeLength="718.04" waitingTime="7.00" waitingCount="1" stopTime="0.00" timeLoss="20.33" rerouteNo="1" devices="tripinfo_carIn12365:1 routing_carIn12365:1 emissions_carIn12365:1" vType="default_016" speedFactor="0.84" vaporized="">
        <emissions CO_abs="3920.893915" CO2_abs="189279.573182" HC_abs="22.217163" PMx_abs="3.094905" NOx_abs="76.362241" fuel_abs="81.364376" electricity_abs="0"/>
    </tripinfo>
    <tripinfo id="carIn80064:1" depart="57603.00" departLane="128361109#1_1" departPos="5.10" departSpeed="0.00" departDelay="0.40" arrival="57811.00" arrivalLane="-315358254#1_1" arrivalPos="137.16" arrivalSpeed="12.35" duration="208.00" routeLength="1587.97" waitingTime="63.00" waitingCount="4" stopTime="0.00" timeLoss="110.16" rerouteNo="1" devices="tripinfo_carIn80064:1 routing_carIn80064:1 emissions_carIn80064:1" vType="default_016" speedFactor="0.92" vaporized="">
        <emissions CO_abs="15041.321368" CO2_abs="580213.103783" HC_abs="82.277404" PMx_abs="11.822924" NOx_abs="245.653787" fuel_abs="249.411808" electricity_abs="0"/>
    </tripinfo>
    <tripinfo id="h3864c1:3" depart="57678.00" departLane="24693977#1_1" departPos="5.10" departSpeed="0.00" departDelay="0.00" arrival="57817.00" arrivalLane="201956820_2" arrivalPos="48.33" arrivalSpeed="14.10" duration="139.00" routeLength="1574.85" waitingTime="0.00" waitingCount="0" stopTime="0.00" timeLoss="18.85" rerouteNo="1" devices="tripinfo_h3864c1:3 routing_h3864c1:3 emissions_h3864c1:3" vType="default_016" speedFactor="1.07" vaporized="">
        <emissions CO_abs="5425.841112" CO2_abs="378467.263319" HC_abs="33.484653" PMx_abs="6.443476" NOx_abs="152.457896" fuel_abs="162.686977" electricity_abs="0"/>
    </tripinfo>
    <tripinfo id="carIn107084:1" depart="57601.00" departLane="124812856#0_1" departPos="5.10" departSpeed="0.00" departDelay="0.70" arrival="57827.00" arrivalLane="-128361102#1_1" arrivalPos="274.68" arrivalSpeed="13.17" duration="226.00" routeLength="2250.49" waitingTime="16.00" waitingCount="3" stopTime="0.00" timeLoss="58.60" rerouteNo="1" devices="tripinfo_carIn107084:1 routing_carIn107084:1 emissions_carIn107084:1" vType="default_016" speedFactor="0.98" vaporized="">
        <emissions CO_abs="8538.796079" CO2_abs="547717.523782" HC_abs="51.711476" PMx_abs="9.436161" NOx_abs="221.497826" fuel_abs="235.440891" electricity_abs="0"/>
    </tripinfo>
    <tripinfo id="carIn107282:1" depart="57749.00" departLane="-447569998#1_1" departPos="5.10" departSpeed="0.00" departDelay="0.00" arrival="57827.00" arrivalLane="315358242#0_1" arrivalPos="165.37" arrivalSpeed="13.36" duration="78.00" routeLength="448.50" waitingTime="26.00" waitingCount="1" stopTime="0.00" timeLoss="35.82" rerouteNo="1" devices="tripinfo_carIn107282:1 routing_carIn107282:1 emissions_carIn107282:1" vType="default_016" speedFactor="1.01" vaporized="">
        <emissions CO_abs="5603.032691" CO2_abs="173014.641821" HC_abs="29.533357" PMx_abs="3.285091" NOx_abs="72.397581" fuel_abs="74.373743" electricity_abs="0"/>
    </tripinfo>
    <tripinfo id="carIn77943:1" depart="57608.00" departLane="124812856#0_1" departPos="5.10" departSpeed="0.00" departDelay="2.50" arrival="57829.00" arrivalLane="-128361102#1_1" arrivalPos="274.68" arrivalSpeed="13.84" duration="221.00" routeLength="2250.49" waitingTime="12.00" waitingCount="2" stopTime="0.00" timeLoss="62.32" rerouteNo="1" devices="tripinfo_carIn77943:1 routing_carIn77943:1 emissions_carIn77943:1" vType="default_016" speedFactor="1.04" vaporized="">
        <emissions CO_abs="8974.469217" CO2_abs="599329.147260" HC_abs="54.955929" PMx_abs="10.580535" NOx_abs="243.991447" fuel_abs="257.625868" electricity_abs="0"/>
    </tripinfo>
    <tripinfo id="carIn12858:1" depart="57661.00" departLane="128361109#1_1" departPos="5.10" departSpeed="0.00" departDelay="0.90" arrival="57831.00" arrivalLane="399835085#1_1" arrivalPos="212.23" arrivalSpeed="7.07" duration="170.00" routeLength="1738.12" waitingTime="10.00" waitingCount="1" stopTime="0.00" timeLoss="35.91" rerouteNo="1" devices="tripinfo_carIn12858:1 routing_carIn12858:1 emissions_carIn12858:1" vType="default_016" speedFactor="0.86" vaporized="">
        <emissions CO_abs="7807.174434" CO2_abs="457144.395719" HC_abs="46.322897" PMx_abs="8.311863" NOx_abs="187.014322" fuel_abs="196.507270" electricity_abs="0"/>
    </tripinfo>
    <tripinfo id="carIn82278:1" depart="57702.00" departLane="-306240162#1_0" departPos="5.10" departSpeed="0.00" departDelay="0.70" arrival="57833.00" arrivalLane="399835085#1_1" arrivalPos="212.23" arrivalSpeed="8.12" duration="131.00" routeLength="1093.26" waitingTime="22.00" waitingCount="2" stopTime="0.00" timeLoss="53.52" rerouteNo="1" devices="tripinfo_carIn82278:1 routing_carIn82278:1 emissions_carIn82278:1" vType="default_016" speedFactor="1.01" vaporized="">
        <emissions CO_abs="8921.186882" CO2_abs="393221.555864" HC_abs="49.889886" PMx_abs="7.865932" NOx_abs="165.948464" fuel_abs="169.030246" electricity_abs="0"/>
    </tripinfo>
    <tripinfo id="h20540c1:1" depart="57634.00" departLane="10425609#0_1" departPos="5.10" departSpeed="0.00" departDelay="0.50" arrival="57834.00" arrivalLane="-128361102#1_1" arrivalPos="274.68" arrivalSpeed="12.21" duration="200.00" routeLength="2113.04" waitingTime="0.00" waitingCount="0" stopTime="0.00" timeLoss="26.59" rerouteNo="1" devices="tripinfo_h20540c1:1 routing_h20540c1:1 emissions_h20540c1:1" vType="default_016" speedFactor="0.90" vaporized="">
        <emissions CO_abs="6231.345936" CO2_abs="462073.061553" HC_abs="39.078601" PMx_abs="7.141442" NOx_abs="181.765248" fuel_abs="198.626315" electricity_abs="0"/>
    </tripinfo>
    <tripinfo id="carIn81860:1" depart="57712.00" departLane="128361102#0_1" departPos="5.10" departSpeed="0.00" departDelay="0.60" arrival="57834.00" arrivalLane="-24634517#17_1" arrivalPos="6.43" arrivalSpeed="6.97" duration="122.00" routeLength="1229.64" waitingTime="1.00" waitingCount="1" stopTime="0.00" timeLoss="22.99" rerouteNo="1" devices="tripinfo_carIn81860:1 routing_carIn81860:1 emissions_carIn81860:1" vType="default_016" speedFactor="0.91" vaporized="">
        <emissions CO_abs="4493.042185" CO2_abs="274679.805039" HC_abs="26.870976" PMx_abs="4.654275" NOx_abs="111.089371" fuel_abs="118.073625" electricity_abs="0"/>
    </tripinfo>
    <tripinfo id="randUni10474:1" depart="57605.00" departLane="124812856#0_1" departPos="5.10" departSpeed="0.00" departDelay="0.20" arrival="57837.00" arrivalLane="306240162#0_0" arrivalPos="220.43" arrivalSpeed="20.76" duration="232.00" routeLength="3031.29" waitingTime="8.00" waitingCount="2" stopTime="0.00" timeLoss="75.25" rerouteNo="1" devices="tripinfo_randUni10474:1 routing_randUni10474:1 emissions_randUni10474:1" vType="random_016" speedFactor="1.25" vaporized="">
        <emissions CO_abs="14264.974395" CO2_abs="965719.697438" HC_abs="88.072801" PMx_abs="19.155820" NOx_abs="402.739929" fuel_abs="415.118456" electricity_abs="0"/>
    </tripinfo>
    <tripinfo id="randUni31145:1" depart="57814.00" departLane="10425609#0_1" departPos="5.10" departSpeed="0.00" departDelay="0.30" arrival="57839.00" arrivalLane="201956810_1" arrivalPos="71.65" arrivalSpeed="14.16" duration="25.00" routeLength="255.78" waitingTime="0.00" waitingCount="0" stopTime="0.00" timeLoss="5.91" rerouteNo="1" devices="tripinfo_randUni31145:1 routing_randUni31145:1 emissions_randUni31145:1" vType="random_016" speedFactor="1.03" vaporized="">
        <emissions CO_abs="1756.057110" CO2_abs="104885.912460" HC_abs="10.451538" PMx_abs="1.920815" NOx_abs="43.375621" fuel_abs="45.085977" electricity_abs="0"/>
    </tripinfo>
    <tripinfo id="h2831c1:1" depart="57600.00" departLane="201089423#0_1" departPos="5.10" departSpeed="0.00" departDelay="0.00" arrival="57843.00" arrivalLane="-315358244_2" arrivalPos="33.95" arrivalSpeed="13.82" duration="243.00" routeLength="2672.18" waitingTime="27.00" waitingCount="3" stopTime="0.00" timeLoss="57.54" rerouteNo="1" devices="tripinfo_h2831c1:1 routing_h2831c1:1 emissions_h2831c1:1" vType="default_016" speedFactor="1.05" vaporized="">
        <emissions CO_abs="8486.130715" CO2_abs="581857.617056" HC_abs="52.152162" PMx_abs="9.828552" NOx_abs="231.862787" fuel_abs="250.116292" electricity_abs="0"/>
    </tripinfo>
    <tripinfo id="h645c1:1" depart="57622.00" departLane="266565295#5_1" departPos="5.10" departSpeed="0.00" departDelay="0.40" arrival="57843.00" arrivalLane="-315358244_1" arrivalPos="33.95" arrivalSpeed="14.44" duration="221.00" routeLength="1910.83" waitingTime="71.00" waitingCount="2" stopTime="0.00" timeLoss="93.75" rerouteNo="1" devices="tripinfo_h645c1:1 routing_h645c1:1 emissions_h645c1:1" vType="default_016" speedFactor="1.09" vaporized="">
        <emissions CO_abs="15201.388792" CO2_abs="563269.430222" HC_abs="82.317170" PMx_abs="10.850506" NOx_abs="233.727242" fuel_abs="242.129874" electricity_abs="0"/>
    </tripinfo>
    <tripinfo id="h15382c1:3" depart="57625.00" departLane="124812856#0_1" departPos="5.10" departSpeed="0.00" departDelay="2.80" arrival="57844.00" arrivalLane="-128361102#1_1" arrivalPos="274.68" arrivalSpeed="14.31" duration="219.00" routeLength="2250.49" waitingTime="14.00" waitingCount="2" stopTime="0.00" timeLoss="70.14" rerouteNo="1" devices="tripinfo_h15382c1:3 routing_h15382c1:3 emissions_h15382c1:3" vType="default_016" speedFactor="1.11" vaporized="">
        <emissions CO_abs="9856.263742" CO2_abs="608235.640355" HC_abs="59.102673" PMx_abs="10.800236" NOx_abs="248.088185" fuel_abs="261.454913" electricity_abs="0"/>
    </tripinfo>
    <tripinfo id="randUni2407:1" depart="57820.00" departLane="10425609#0_1" departPos="5.10" departSpeed="0.00" departDelay="0.80" arrival="57844.00" arrivalLane="201956810_1" arrivalPos="71.65" arrivalSpeed="14.74" duration="24.00" routeLength="255.78" waitingTime="0.00" waitingCount="0" stopTime="0.00" timeLoss="5.73" rerouteNo="1" devices="tripinfo_randUni2407:1 routing_randUni2407:1 emissions_randUni2407:1" vType="random_016" speedFactor="1.09" vaporized="">
        <emissions CO_abs="1632.876636" CO2_abs="99247.786543" HC_abs="9.788944" PMx_abs="1.879401" NOx_abs="41.464924" fuel_abs="42.662269" electricity_abs="0"/>
    </tripinfo>
    <tripinfo id="carIn129809:1" depart="57729.00" departLane="-447569998#1_1" departPos="5.10" departSpeed="0.00" departDelay="1.00" arrival="57846.00" arrivalLane="-315358244_1" arrivalPos="33.95" arrivalSpeed="12.67" duration="117.00" routeLength="706.49" waitingTime="43.00" waitingCount="2" stopTime="0.00" timeLoss="56.01" rerouteNo="1" devices="tripinfo_carIn129809:1 routing_carIn129809:1 emissions_carIn129809:1" vType="default_015" speedFactor="1.00" vaporized="">
        <emissions CO_abs="8928.625896" CO2_abs="259767.659751" HC_abs="46.715215" PMx_abs="5.128684" NOx_abs="109.902726" fuel_abs="111.666381" electricity_abs="0"/>
    </tripinfo>
    <tripinfo id="carIn56649:1" depart="57630.00" departLane="124812856#0_1" departPos="5.10" departSpeed="0.00" departDelay="6.10" arrival="57847.00" arrivalLane="-128361102#1_1" arrivalPos="274.68" arrivalSpeed="13.10" duration="217.00" routeLength="2250.49" waitingTime="13.00" waitingCount="2" stopTime="0.00" timeLoss="58.32" rerouteNo="1" devices="tripinfo_carIn56649:1 routing_carIn56649:1 emissions_carIn56649:1" vType="default_016" speedFactor="1.03" vaporized="">
        <emissions CO_abs="8682.126279" CO2_abs="570368.735090" HC_abs="52.825128" PMx_abs="9.725363" NOx_abs="229.802521" fuel_abs="245.177686" electricity_abs="0"/>
    </tripinfo>
    <tripinfo id="carIn8642:1" depart="57774.00" departLane="-447569998#1_1" departPos="5.10" departSpeed="0.00" departDelay="0.90" arrival="57848.00" arrivalLane="-315358244_1" arrivalPos="33.95" arrivalSpeed="13.65" duration="74.00" routeLength="706.49" waitingTime="6.00" waitingCount="1" stopTime="0.00" timeLoss="17.28" rerouteNo="1" devices="tripinfo_carIn8642:1 routing_carIn8642:1 emissions_carIn8642:1" vType="default_016" speedFactor="1.07" vaporized="">
        <emissions CO_abs="2475.050894" CO2_abs="153944.001200" HC_abs="14.823438" PMx_abs="2.492514" NOx_abs="61.081311" fuel_abs="66.174416" electricity_abs="0"/>
    </tripinfo>
    <tripinfo id="carIn77438:1" depart="57613.00" departLane="124812856#0_1" departPos="5.10" departSpeed="0.00" departDelay="0.10" arrival="57849.00" arrivalLane="-128361102#1_1" arrivalPos="274.68" arrivalSpeed="14.69" duration="236.00" routeLength="2250.49" waitingTime="27.00" waitingCount="4" stopTime="0.00" timeLoss="85.10" rerouteNo="1" devices="tripinfo_carIn77438:1 routing_carIn77438:1 emissions_carIn77438:1" vType="default_016" speedFactor="1.09" vaporized="">
        <emissions CO_abs="10392.983247" CO2_abs="613654.117230" HC_abs="61.692604" PMx_abs="10.987736" NOx_abs="250.250452" fuel_abs="263.784400" electricity_abs="0"/>
    </tripinfo>
    <tripinfo id="carIn27009:1" depart="57673.00" departLane="-447569998#1_1" departPos="5.10" departSpeed="0.00" departDelay="0.50" arrival="57851.00" arrivalLane="-26677539_1" arrivalPos="152.75" arrivalSpeed="4.85" duration="178.00" routeLength="699.63" waitingTime="43.00" waitingCount="1" stopTime="0.00" timeLoss="62.49" rerouteNo="1" devices="tripinfo_carIn27009:1 routing_carIn27009:1 emissions_carIn27009:1" vType="default_015" speedFactor="0.73" vaporized="">
        <emissions CO_abs="12786.402723" CO2_abs="317663.491954" HC_abs="65.537268" PMx_abs="6.218633" NOx_abs="135.860027" fuel_abs="136.555567" electricity_abs="0"/>
    </tripinfo>