<?xml version="1.0" encoding="UTF-8"?>

<!-- generated on 2021-10-26 18:49:00 by Eclipse SUMO sumo Version 1.10.0
<configuration xmlns:xsi="http://www.w3.org/2001/XMLSchema-instance" xsi:noNamespaceSchemaLocation="http://sumo.dlr.de/xsd/sumoConfiguration.xsd">

    <input>
        <net-file value="/Users/behradkoohy/sumo-scratchpad/RESCO/environments/ingolstadt21/ingolstadt21.net.xml"/>
        <route-files value="/Users/behradkoohy/sumo-scratchpad/RESCO/environments/ingolstadt21/ingolstadt21.rou.xml"/>
    </input>

    <output>
        <tripinfo-output value="/Users/behradkoohy/sumo-scratchpad/RESCO/logs/IPPO-tr0-ingolstadt21-21-drq_norm-wait_norm/tripinfo_97.xml"/>
        <tripinfo-output.write-unfinished value="true"/>
    </output>

    <time>
        <begin value="57600"/>
        <end value="61200"/>
    </time>

    <processing>
        <time-to-teleport value="-1"/>
    </processing>

    <report>
        <no-warnings value="true"/>
        <no-step-log value="true"/>
    </report>

    <emissions>
        <device.emissions.probability value="1"/>
    </emissions>

    <traci_server>
        <remote-port value="62573"/>
    </traci_server>

    <random_number>
        <random value="true"/>
    </random_number>

</configuration>
-->

<tripinfos xmlns:xsi="http://www.w3.org/2001/XMLSchema-instance" xsi:noNamespaceSchemaLocation="http://sumo.dlr.de/xsd/tripinfo_file.xsd">
    <tripinfo id="h15454c2:3" depart="57612.00" departLane="24608844_1" departPos="5.10" departSpeed="0.00" departDelay="0.50" arrival="57666.00" arrivalLane="32978638#0_1" arrivalPos="49.29" arrivalSpeed="14.33" duration="54.00" routeLength="354.79" waitingTime="12.00" waitingCount="1" stopTime="0.00" timeLoss="22.80" rerouteNo="1" devices="tripinfo_h15454c2:3 routing_h15454c2:3 emissions_h15454c2:3" vType="default_016" speedFactor="1.09" vaporized="">
        <emissions CO_abs="3582.107045" CO2_abs="148277.448191" HC_abs="19.793248" PMx_abs="2.827623" NOx_abs="62.306772" fuel_abs="63.738893" electricity_abs="0"/>
    </tripinfo>
    <tripinfo id="carIn60260:1" depart="57606.00" departLane="315358254#0_1" departPos="5.10" departSpeed="0.00" departDelay="0.90" arrival="57669.00" arrivalLane="399835085#1_1" arrivalPos="212.23" arrivalSpeed="6.62" duration="63.00" routeLength="430.98" waitingTime="0.00" waitingCount="0" stopTime="0.00" timeLoss="10.17" rerouteNo="1" devices="tripinfo_carIn60260:1 routing_carIn60260:1 emissions_carIn60260:1" vType="default_016" speedFactor="0.87" vaporized="">
        <emissions CO_abs="2761.787403" CO2_abs="122370.981234" HC_abs="15.385575" PMx_abs="2.005147" NOx_abs="49.731696" fuel_abs="52.602969" electricity_abs="0"/>
    </tripinfo>
    <tripinfo id="carIn53971:1" depart="57640.00" departLane="272042143_1" departPos="5.10" departSpeed="0.00" departDelay="0.80" arrival="57699.00" arrivalLane="24634414#1_1" arrivalPos="162.19" arrivalSpeed="6.42" duration="59.00" routeLength="493.04" waitingTime="0.00" waitingCount="0" stopTime="0.00" timeLoss="9.06" rerouteNo="1" devices="tripinfo_carIn53971:1 routing_carIn53971:1 emissions_carIn53971:1" vType="default_016" speedFactor="0.92" vaporized="">
        <emissions CO_abs="2515.826542" CO2_abs="132762.525843" HC_abs="14.540189" PMx_abs="2.261462" NOx_abs="54.200056" fuel_abs="57.069417" electricity_abs="0"/>
    </tripinfo>
    <tripinfo id="h12244c1:3" depart="57612.00" departLane="315358244_1" departPos="5.10" departSpeed="0.00" departDelay="0.40" arrival="57702.00" arrivalLane="386687235_1" arrivalPos="80.84" arrivalSpeed="15.93" duration="90.00" routeLength="1186.14" waitingTime="1.00" waitingCount="1" stopTime="0.00" timeLoss="16.63" rerouteNo="1" devices="tripinfo_h12244c1:3 routing_h12244c1:3 emissions_h12244c1:3" vType="default_016" speedFactor="1.18" vaporized="">
        <emissions CO_abs="3433.747084" CO2_abs="274733.310678" HC_abs="21.874845" PMx_abs="4.743633" NOx_abs="109.304085" fuel_abs="118.095781" electricity_abs="0"/>
    </tripinfo>
    <tripinfo id="S5R_frequency1.2" depart="57615.00" departLane="315358250#0_1" departPos="12.10" departSpeed="0.00" departDelay="3.40" arrival="57710.00" arrivalLane="386687235_1" arrivalPos="80.84" arrivalSpeed="13.41" duration="95.00" routeLength="1115.62" waitingTime="0.00" waitingCount="0" stopTime="0.00" timeLoss="13.39" rerouteNo="1" devices="tripinfo_S5R_frequency1.2 routing_S5R_frequency1.2 emissions_S5R_frequency1.2" vType="bus" speedFactor="1.00" vaporized="">
        <emissions CO_abs="1876.944523" CO2_abs="1201654.764585" HC_abs="391.196230" PMx_abs="201.596328" NOx_abs="9258.223419" fuel_abs="512.497814" electricity_abs="0"/>
    </tripinfo>
    <tripinfo id="h7800c1:5" depart="57696.00" departLane="-447569998#1_1" departPos="5.10" departSpeed="0.00" departDelay="0.00" arrival="57720.00" arrivalLane="-447569998#1_1" arrivalPos="180.76" arrivalSpeed="8.23" duration="24.00" routeLength="175.66" waitingTime="0.00" waitingCount="0" stopTime="0.00" timeLoss="2.93" rerouteNo="1" devices="tripinfo_h7800c1:5 routing_h7800c1:5 emissions_h7800c1:5" vType="default_016" speedFactor="1.05" vaporized="">
        <emissions CO_abs="1024.127768" CO2_abs="47243.424247" HC_abs="5.750205" PMx_abs="0.779509" NOx_abs="19.251225" fuel_abs="20.308236" electricity_abs="0"/>
    </tripinfo>
    <tripinfo id="h3688c1:1" depart="57625.00" departLane="201201950#1_1" departPos="5.10" departSpeed="0.00" departDelay="0.00" arrival="57721.00" arrivalLane="32978638#0_1" arrivalPos="49.29" arrivalSpeed="12.78" duration="96.00" routeLength="1089.75" waitingTime="2.00" waitingCount="1" stopTime="0.00" timeLoss="15.15" rerouteNo="1" devices="tripinfo_h3688c1:1 routing_h3688c1:1 emissions_h3688c1:1" vType="default_016" speedFactor="0.98" vaporized="">
        <emissions CO_abs="3643.038162" CO2_abs="270398.465064" HC_abs="22.896217" PMx_abs="4.489672" NOx_abs="107.945935" fuel_abs="116.232806" electricity_abs="0"/>
    </tripinfo>
    <tripinfo id="carIn80064:1" depart="57603.00" departLane="128361109#1_1" departPos="5.10" departSpeed="0.00" departDelay="0.40" arrival="57730.00" arrivalLane="-315358254#1_1" arrivalPos="137.16" arrivalSpeed="12.58" duration="127.00" routeLength="1587.97" waitingTime="5.00" waitingCount="1" stopTime="0.00" timeLoss="33.19" rerouteNo="1" devices="tripinfo_carIn80064:1 routing_carIn80064:1 emissions_carIn80064:1" vType="default_016" speedFactor="0.95" vaporized="">
        <emissions CO_abs="6368.560540" CO2_abs="427191.988599" HC_abs="39.230008" PMx_abs="8.293667" NOx_abs="177.191335" fuel_abs="183.630489" electricity_abs="0"/>
    </tripinfo>
    <tripinfo id="h9563c2:5" depart="57631.00" departLane="315358244_1" departPos="5.10" departSpeed="0.00" departDelay="0.70" arrival="57732.00" arrivalLane="386687235_1" arrivalPos="80.84" arrivalSpeed="14.91" duration="101.00" routeLength="1186.14" waitingTime="5.00" waitingCount="1" stopTime="0.00" timeLoss="21.87" rerouteNo="1" devices="tripinfo_h9563c2:5 routing_h9563c2:5 emissions_h9563c2:5" vType="default_016" speedFactor="1.09" vaporized="">
        <emissions CO_abs="3524.232520" CO2_abs="265814.685701" HC_abs="22.200359" PMx_abs="4.463093" NOx_abs="105.575287" fuel_abs="114.262386" electricity_abs="0"/>
    </tripinfo>
    <tripinfo id="h317c2:1" depart="57707.00" departLane="-32978638#0_1" departPos="5.10" departSpeed="0.00" departDelay="0.10" arrival="57743.00" arrivalLane="-266565295#5_1" arrivalPos="172.76" arrivalSpeed="16.08" duration="36.00" routeLength="370.53" waitingTime="1.00" waitingCount="1" stopTime="0.00" timeLoss="11.97" rerouteNo="1" devices="tripinfo_h317c2:1 routing_h317c2:1 emissions_h317c2:1" vType="default_016" speedFactor="1.16" vaporized="">
        <emissions CO_abs="2420.100135" CO2_abs="134789.963719" HC_abs="14.186515" PMx_abs="2.656187" NOx_abs="56.821720" fuel_abs="57.940315" electricity_abs="0"/>
    </tripinfo>
    <tripinfo id="carIn22761:1" depart="57616.00" departLane="-306240162#1_0" departPos="5.10" departSpeed="0.00" departDelay="2.10" arrival="57746.00" arrivalLane="399835085#1_1" arrivalPos="212.23" arrivalSpeed="5.59" duration="130.00" routeLength="1093.26" waitingTime="7.00" waitingCount="2" stopTime="0.00" timeLoss="30.18" rerouteNo="1" devices="tripinfo_carIn22761:1 routing_carIn22761:1 emissions_carIn22761:1" vType="default_016" speedFactor="0.78" vaporized="">
        <emissions CO_abs="5671.799580" CO2_abs="296531.152733" HC_abs="32.677251" PMx_abs="5.156878" NOx_abs="120.710451" fuel_abs="127.467121" electricity_abs="0"/>
    </tripinfo>
    <tripinfo id="h3326c1:2" depart="57656.00" departLane="22716069#0_1" departPos="5.10" departSpeed="0.00" departDelay="0.00" arrival="57757.00" arrivalLane="24634517#13_1" arrivalPos="111.62" arrivalSpeed="15.13" duration="101.00" routeLength="1312.81" waitingTime="0.00" waitingCount="0" stopTime="0.00" timeLoss="14.29" rerouteNo="1" devices="tripinfo_h3326c1:2 routing_h3326c1:2 emissions_h3326c1:2" vType="default_016" speedFactor="1.12" vaporized="">
        <emissions CO_abs="4068.347009" CO2_abs="323252.477700" HC_abs="26.048392" PMx_abs="5.686675" NOx_abs="130.222873" fuel_abs="138.951839" electricity_abs="0"/>
    </tripinfo>
    <tripinfo id="h4538c1:1" depart="57701.00" departLane="-10427692#1_1" departPos="5.10" departSpeed="0.00" departDelay="0.00" arrival="57757.00" arrivalLane="-128361102#1_1" arrivalPos="274.68" arrivalSpeed="12.60" duration="56.00" routeLength="440.74" waitingTime="13.00" waitingCount="1" stopTime="0.00" timeLoss="23.19" rerouteNo="1" devices="tripinfo_h4538c1:1 routing_h4538c1:1 emissions_h4538c1:1" vType="default_016" speedFactor="0.99" vaporized="">
        <emissions CO_abs="3190.582654" CO2_abs="137514.944973" HC_abs="17.731378" PMx_abs="2.507712" NOx_abs="56.652788" fuel_abs="59.112599" electricity_abs="0"/>
    </tripinfo>
    <tripinfo id="h5979c1:5" depart="57669.00" departLane="399835085#1_1" departPos="5.10" departSpeed="0.00" departDelay="0.00" arrival="57762.00" arrivalLane="-315358254#1_1" arrivalPos="137.16" arrivalSpeed="14.11" duration="93.00" routeLength="659.33" waitingTime="1.00" waitingCount="1" stopTime="0.00" timeLoss="21.14" rerouteNo="1" devices="tripinfo_h5979c1:5 routing_h5979c1:5 emissions_h5979c1:5" vType="default_016" speedFactor="1.02" vaporized="">
        <emissions CO_abs="4418.827586" CO2_abs="207697.904366" HC_abs="24.925247" PMx_abs="3.527514" NOx_abs="85.016045" fuel_abs="89.281604" electricity_abs="0"/>
    </tripinfo>
    <tripinfo id="carIn121703:1" depart="57647.00" departLane="386687232#0_1" departPos="5.10" departSpeed="0.00" departDelay="0.30" arrival="57773.00" arrivalLane="-315358244_1" arrivalPos="33.95" arrivalSpeed="14.57" duration="126.00" routeLength="1157.39" waitingTime="23.00" waitingCount="3" stopTime="0.00" timeLoss="49.01" rerouteNo="1" devices="tripinfo_carIn121703:1 routing_carIn121703:1 emissions_carIn121703:1" vType="default_016" speedFactor="1.09" vaporized="">
        <emissions CO_abs="6258.209450" CO2_abs="325728.858533" HC_abs="36.122371" PMx_abs="6.028909" NOx_abs="134.183384" fuel_abs="140.017621" electricity_abs="0"/>
    </tripinfo>
    <tripinfo id="h3568c1:3" depart="57656.00" departLane="266565295#5_1" departPos="5.10" departSpeed="0.00" departDelay="0.80" arrival="57774.00" arrivalLane="-24634415_1" arrivalPos="62.03" arrivalSpeed="10.46" duration="118.00" routeLength="807.40" waitingTime="16.00" waitingCount="2" stopTime="0.00" timeLoss="37.36" rerouteNo="1" devices="tripinfo_h3568c1:3 routing_h3568c1:3 emissions_h3568c1:3" vType="default_016" speedFactor="0.80" vaporized="">
        <emissions CO_abs="6125.548783" CO2_abs="269473.496249" HC_abs="34.150511" PMx_abs="4.744645" NOx_abs="111.094653" fuel_abs="115.836743" electricity_abs="0"/>
    </tripinfo>
    <tripinfo id="carIn27009:1" depart="57673.00" departLane="-447569998#1_1" departPos="5.10" departSpeed="0.00" departDelay="0.50" arrival="57781.00" arrivalLane="-26677539_1" arrivalPos="152.75" arrivalSpeed="8.61" duration="108.00" routeLength="699.63" waitingTime="14.00" waitingCount="1" stopTime="0.00" timeLoss="29.48" rerouteNo="1" devices="tripinfo_carIn27009:1 routing_carIn27009:1 emissions_carIn27009:1" vType="default_015" speedFactor="1.07" vaporized="">
        <emissions CO_abs="5649.193404" CO2_abs="229094.051561" HC_abs="31.023337" PMx_abs="4.028686" NOx_abs="94.806491" fuel_abs="98.479450" electricity_abs="0"/>
    </tripinfo>
    <tripinfo id="carIn30817:1" depart="57681.00" departLane="315358244_1" departPos="5.10" departSpeed="0.00" departDelay="0.20" arrival="57783.00" arrivalLane="447569997#1_1" arrivalPos="180.93" arrivalSpeed="7.56" duration="102.00" routeLength="718.04" waitingTime="23.00" waitingCount="2" stopTime="0.00" timeLoss="42.02" rerouteNo="1" devices="tripinfo_carIn30817:1 routing_carIn30817:1 emissions_carIn30817:1" vType="default_016" speedFactor="1.03" vaporized="">
        <emissions CO_abs="5630.905640" CO2_abs="234088.479472" HC_abs="31.122799" PMx_abs="4.351760" NOx_abs="97.236227" fuel_abs="100.626018" electricity_abs="0"/>
    </tripinfo>
    <tripinfo id="carIn50326:1" depart="57651.00" departLane="128361102#0_1" departPos="5.10" departSpeed="0.00" departDelay="0.30" arrival="57793.00" arrivalLane="18809673#0_1" arrivalPos="473.56" arrivalSpeed="14.88" duration="142.00" routeLength="1591.07" waitingTime="0.00" waitingCount="0" stopTime="0.00" timeLoss="24.14" rerouteNo="1" devices="tripinfo_carIn50326:1 routing_carIn50326:1 emissions_carIn50326:1" vType="default_016" speedFactor="1.10" vaporized="">
        <emissions CO_abs="5004.272385" CO2_abs="352688.401803" HC_abs="30.921643" PMx_abs="5.742265" NOx_abs="139.814046" fuel_abs="151.606155" electricity_abs="0"/>
    </tripinfo>
    <tripinfo id="h645c1:1" depart="57622.00" departLane="266565295#5_1" departPos="5.10" departSpeed="0.00" departDelay="0.40" arrival="57795.00" arrivalLane="-315358244_1" arrivalPos="33.95" arrivalSpeed="13.03" duration="173.00" routeLength="1910.83" waitingTime="16.00" waitingCount="2" stopTime="0.00" timeLoss="36.87" rerouteNo="1" devices="tripinfo_h645c1:1 routing_h645c1:1 emissions_h645c1:1" vType="default_016" speedFactor="1.02" vaporized="">
        <emissions CO_abs="5870.901785" CO2_abs="424914.121291" HC_abs="36.564630" PMx_abs="6.820276" NOx_abs="166.929703" fuel_abs="182.653117" electricity_abs="0"/>
    </tripinfo>
    <tripinfo id="carIn28951:1" depart="57606.00" departLane="10425609#0_1" departPos="5.10" departSpeed="0.00" departDelay="0.20" arrival="57796.00" arrivalLane="-128361102#1_1" arrivalPos="274.68" arrivalSpeed="13.05" duration="190.00" routeLength="2113.04" waitingTime="12.00" waitingCount="2" stopTime="0.00" timeLoss="39.23" rerouteNo="1" devices="tripinfo_carIn28951:1 routing_carIn28951:1 emissions_carIn28951:1" vType="default_016" speedFactor="1.03" vaporized="">
        <emissions CO_abs="6563.329419" CO2_abs="488423.202737" HC_abs="41.211956" PMx_abs="8.046659" NOx_abs="193.877956" fuel_abs="209.952515" electricity_abs="0"/>
    </tripinfo>
    <tripinfo id="h330c1:1" depart="57736.00" departLane="-32978638#0_1" departPos="5.10" departSpeed="0.00" departDelay="0.20" arrival="57796.00" arrivalLane="-266565295#5_1" arrivalPos="172.76" arrivalSpeed="12.29" duration="60.00" routeLength="370.53" waitingTime="21.00" waitingCount="1" stopTime="0.00" timeLoss="31.21" rerouteNo="1" devices="tripinfo_h330c1:1 routing_h330c1:1 emissions_h330c1:1" vType="default_016" speedFactor="0.96" vaporized="">
        <emissions CO_abs="4884.964411" CO2_abs="165389.210460" HC_abs="26.134698" PMx_abs="3.316166" NOx_abs="70.349942" fuel_abs="71.095129" electricity_abs="0"/>
    </tripinfo>
    <tripinfo id="carIn77438:1" depart="57613.00" departLane="124812856#0_1" departPos="5.10" departSpeed="0.00" departDelay="0.10" arrival="57798.00" arrivalLane="-128361102#1_1" arrivalPos="274.68" arrivalSpeed="15.31" duration="185.00" routeLength="2232.46" waitingTime="6.00" waitingCount="1" stopTime="0.00" timeLoss="42.52" rerouteNo="1" devices="tripinfo_carIn77438:1 routing_carIn77438:1 emissions_carIn77438:1" vType="default_016" speedFactor="1.15" vaporized="">
        <emissions CO_abs="7302.705385" CO2_abs="547629.341568" HC_abs="46.132796" PMx_abs="9.807147" NOx_abs="222.464288" fuel_abs="235.401491" electricity_abs="0"/>
    </tripinfo>
    <tripinfo id="carIn12365:1" depart="57713.00" departLane="315358244_1" departPos="5.10" departSpeed="0.00" departDelay="0.50" arrival="57798.00" arrivalLane="447569997#1_1" arrivalPos="180.93" arrivalSpeed="8.61" duration="85.00" routeLength="718.04" waitingTime="12.00" waitingCount="2" stopTime="0.00" timeLoss="29.15" rerouteNo="1" devices="tripinfo_carIn12365:1 routing_carIn12365:1 emissions_carIn12365:1" vType="default_016" speedFactor="1.11" vaporized="">
        <emissions CO_abs="3310.176845" CO2_abs="185618.629988" HC_abs="19.342517" PMx_abs="3.187029" NOx_abs="75.234927" fuel_abs="79.790034" electricity_abs="0"/>
    </tripinfo>
    <tripinfo id="h7181c1:1" depart="57660.00" departLane="315358254#0_1" departPos="5.10" departSpeed="0.00" departDelay="0.10" arrival="57801.00" arrivalLane="306240162#0_0" arrivalPos="220.43" arrivalSpeed="15.72" duration="141.00" routeLength="932.35" waitingTime="68.00" waitingCount="2" stopTime="0.00" timeLoss="88.45" rerouteNo="1" devices="tripinfo_h7181c1:1 routing_h7181c1:1 emissions_h7181c1:1" vType="default_016" speedFactor="0.98" vaporized="">
        <emissions CO_abs="13842.839891" CO2_abs="452647.059852" HC_abs="73.763883" PMx_abs="9.627029" NOx_abs="194.188047" fuel_abs="194.577147" electricity_abs="0"/>
    </tripinfo>
    <tripinfo id="h11737c1:1" depart="57665.00" departLane="272042143_1" departPos="5.10" departSpeed="0.00" departDelay="1.50" arrival="57801.00" arrivalLane="-315358254#1_1" arrivalPos="137.16" arrivalSpeed="11.93" duration="136.00" routeLength="1596.88" waitingTime="0.00" waitingCount="0" stopTime="0.00" timeLoss="12.09" rerouteNo="1" devices="tripinfo_h11737c1:1 routing_h11737c1:1 emissions_h11737c1:1" vType="default_016" speedFactor="0.94" vaporized="">
        <emissions CO_abs="3644.779658" CO2_abs="319964.927625" HC_abs="24.027326" PMx_abs="4.863157" NOx_abs="124.409403" fuel_abs="137.539487" electricity_abs="0"/>
    </tripinfo>
    <tripinfo id="carIn126288:1" depart="57674.00" departLane="272042143_1" departPos="5.10" departSpeed="0.00" departDelay="0.00" arrival="57802.00" arrivalLane="-315358254#1_1" arrivalPos="137.16" arrivalSpeed="14.76" duration="128.00" routeLength="1596.88" waitingTime="0.00" waitingCount="0" stopTime="0.00" timeLoss="23.67" rerouteNo="1" devices="tripinfo_carIn126288:1 routing_carIn126288:1 emissions_carIn126288:1" vType="default_016" speedFactor="1.11" vaporized="">
        <emissions CO_abs="4673.927102" CO2_abs="365725.499405" HC_abs="29.890277" PMx_abs="6.392372" NOx_abs="147.690354" fuel_abs="157.209180" electricity_abs="0"/>
    </tripinfo>
    <tripinfo id="carIn129809:1" depart="57729.00" departLane="-447569998#1_1" departPos="5.10" departSpeed="0.00" departDelay="1.00" arrival="57805.00" arrivalLane="-315358244_1" arrivalPos="33.95" arrivalSpeed="13.65" duration="76.00" routeLength="706.49" waitingTime="6.00" waitingCount="1" stopTime="0.00" timeLoss="19.66" rerouteNo="1" devices="tripinfo_carIn129809:1 routing_carIn129809:1 emissions_carIn129809:1" vType="default_015" speedFactor="1.07" vaporized="">
        <emissions CO_abs="2930.668349" CO2_abs="172303.040794" HC_abs="17.337062" PMx_abs="2.888379" NOx_abs="69.140363" fuel_abs="74.066212" electricity_abs="0"/>
    </tripinfo>
    <tripinfo id="carIn86816:1" depart="57617.00" departLane="128361102#0_1" departPos="5.10" departSpeed="0.00" departDelay="0.80" arrival="57806.00" arrivalLane="201956811#0_1" arrivalPos="40.40" arrivalSpeed="13.37" duration="189.00" routeLength="2067.33" waitingTime="4.00" waitingCount="3" stopTime="0.00" timeLoss="34.17" rerouteNo="1" devices="tripinfo_carIn86816:1 routing_carIn86816:1 emissions_carIn86816:1" vType="default_016" speedFactor="0.98" vaporized="">
        <emissions CO_abs="5714.501218" CO2_abs="432759.268270" HC_abs="36.019712" PMx_abs="6.825642" NOx_abs="170.149397" fuel_abs="186.025288" electricity_abs="0"/>
    </tripinfo>
    <tripinfo id="carIn107282:1" depart="57749.00" departLane="-447569998#1_1" departPos="5.10" departSpeed="0.00" departDelay="0.00" arrival="57807.00" arrivalLane="315358242#0_1" arrivalPos="165.37" arrivalSpeed="13.00" duration="58.00" routeLength="448.50" waitingTime="6.00" waitingCount="1" stopTime="0.00" timeLoss="13.44" rerouteNo="1" devices="tripinfo_carIn107282:1 routing_carIn107282:1 emissions_carIn107282:1" vType="default_016" speedFactor="0.94" vaporized="">
        <emissions CO_abs="2309.120563" CO2_abs="126191.570649" HC_abs="13.438206" PMx_abs="2.076442" NOx_abs="50.813644" fuel_abs="54.244886" electricity_abs="0"/>
    </tripinfo>
    <tripinfo id="carIn118591:1" depart="57689.00" departLane="315358244_1" departPos="5.10" departSpeed="0.00" departDelay="0.20" arrival="57817.00" arrivalLane="386687235_1" arrivalPos="80.84" arrivalSpeed="12.37" duration="128.00" routeLength="1186.14" waitingTime="16.00" waitingCount="3" stopTime="0.00" timeLoss="35.42" rerouteNo="1" devices="tripinfo_carIn118591:1 routing_carIn118591:1 emissions_carIn118591:1" vType="default_016" speedFactor="0.94" vaporized="">
        <emissions CO_abs="5639.968983" CO2_abs="303325.138154" HC_abs="32.752943" PMx_abs="5.160871" NOx_abs="122.320286" fuel_abs="130.387683" electricity_abs="0"/>
    </tripinfo>
    <tripinfo id="carIn7949:1" depart="57676.00" departLane="128361109#1_1" departPos="5.10" departSpeed="0.00" departDelay="2.10" arrival="57822.00" arrivalLane="386687235_2" arrivalPos="80.84" arrivalSpeed="15.46" duration="146.00" routeLength="2088.57" waitingTime="0.00" waitingCount="0" stopTime="0.00" timeLoss="12.99" rerouteNo="1" devices="tripinfo_carIn7949:1 routing_carIn7949:1 emissions_carIn7949:1" vType="default_016" speedFactor="1.13" vaporized="">
        <emissions CO_abs="3751.297789" CO2_abs="392586.010945" HC_abs="26.043551" PMx_abs="6.225145" NOx_abs="151.339982" fuel_abs="168.755489" electricity_abs="0"/>
    </tripinfo>
    <tripinfo id="carIn102915:1" depart="57643.00" departLane="128361102#0_1" departPos="5.10" departSpeed="0.00" departDelay="0.40" arrival="57823.00" arrivalLane="201956811#0_1" arrivalPos="40.40" arrivalSpeed="11.24" duration="180.00" routeLength="2067.33" waitingTime="12.00" waitingCount="2" stopTime="0.00" timeLoss="46.85" rerouteNo="1" devices="tripinfo_carIn102915:1 routing_carIn102915:1 emissions_carIn102915:1" vType="default_016" speedFactor="1.14" vaporized="">
        <emissions CO_abs="7640.258920" CO2_abs="519159.434283" HC_abs="46.622062" PMx_abs="9.247691" NOx_abs="210.142186" fuel_abs="223.164212" electricity_abs="0"/>
    </tripinfo>
    <tripinfo id="carIn85747:1" depart="57673.00" departLane="128361109#1_1" departPos="5.10" departSpeed="0.00" departDelay="0.70" arrival="57823.00" arrivalLane="386687235_1" arrivalPos="80.84" arrivalSpeed="15.19" duration="150.00" routeLength="2088.57" waitingTime="0.00" waitingCount="0" stopTime="0.00" timeLoss="19.04" rerouteNo="1" devices="tripinfo_carIn85747:1 routing_carIn85747:1 emissions_carIn85747:1" vType="default_016" speedFactor="1.15" vaporized="">
        <emissions CO_abs="4181.556444" CO2_abs="402202.689117" HC_abs="28.070785" PMx_abs="6.392269" NOx_abs="155.284291" fuel_abs="172.889502" electricity_abs="0"/>
    </tripinfo>
    <tripinfo id="h3864c1:3" depart="57678.00" departLane="24693977#1_1" departPos="5.10" departSpeed="0.00" departDelay="0.00" arrival="57829.00" arrivalLane="201956820_1" arrivalPos="48.33" arrivalSpeed="14.39" duration="151.00" routeLength="1574.85" waitingTime="7.00" waitingCount="2" stopTime="0.00" timeLoss="36.26" rerouteNo="1" devices="tripinfo_h3864c1:3 routing_h3864c1:3 emissions_h3864c1:3" vType="default_016" speedFactor="1.12" vaporized="">
        <emissions CO_abs="6971.170213" CO2_abs="443655.300364" HC_abs="42.027567" PMx_abs="8.082729" NOx_abs="182.080271" fuel_abs="190.708244" electricity_abs="0"/>
    </tripinfo>
    <tripinfo id="h17600c1:1" depart="57662.00" departLane="272042143_1" departPos="5.10" departSpeed="0.00" departDelay="0.30" arrival="57832.00" arrivalLane="201238729#3_1" arrivalPos="431.02" arrivalSpeed="12.69" duration="170.00" routeLength="2100.26" waitingTime="0.00" waitingCount="0" stopTime="0.00" timeLoss="12.77" rerouteNo="1" devices="tripinfo_h17600c1:1 routing_h17600c1:1 emissions_h17600c1:1" vType="default_016" speedFactor="0.97" vaporized="">
        <emissions CO_abs="3489.970862" CO2_abs="354316.905604" HC_abs="24.087682" PMx_abs="5.078492" NOx_abs="134.947198" fuel_abs="152.306048" electricity_abs="0"/>
    </tripinfo>
    <tripinfo id="h3154c1:1" depart="57658.00" departLane="24634507_1" departPos="5.10" departSpeed="0.00" departDelay="0.00" arrival="57833.00" arrivalLane="-266565295#5_1" arrivalPos="172.76" arrivalSpeed="9.37" duration="175.00" routeLength="1206.22" waitingTime="35.00" waitingCount="2" stopTime="0.00" timeLoss="57.85" rerouteNo="1" devices="tripinfo_h3154c1:1 routing_h3154c1:1 emissions_h3154c1:1" vType="default_016" speedFactor="0.76" vaporized="">
        <emissions CO_abs="8775.216068" CO2_abs="332568.057571" HC_abs="47.657791" PMx_abs="5.907819" NOx_abs="137.184978" fuel_abs="142.959761" electricity_abs="0"/>
    </tripinfo>
    <tripinfo id="carIn107084:1" depart="57601.00" departLane="124812856#0_1" departPos="5.10" departSpeed="0.00" departDelay="0.70" arrival="57836.00" arrivalLane="-128361102#1_1" arrivalPos="274.68" arrivalSpeed="14.14" duration="235.00" routeLength="2250.49" waitingTime="34.00" waitingCount="3" stopTime="0.00" timeLoss="74.54" rerouteNo="1" devices="tripinfo_carIn107084:1 routing_carIn107084:1 emissions_carIn107084:1" vType="default_016" speedFactor="1.03" vaporized="">
        <emissions CO_abs="10890.929948" CO2_abs="605920.922959" HC_abs="63.804651" PMx_abs="10.918165" NOx_abs="248.233008" fuel_abs="260.460590" electricity_abs="0"/>
    </tripinfo>
    <tripinfo id="carIn12152:1" depart="57647.00" departLane="24599188#0.94_1" departPos="5.10" departSpeed="0.00" departDelay="0.50" arrival="57837.00" arrivalLane="-315358254#1_1" arrivalPos="137.16" arrivalSpeed="13.78" duration="190.00" routeLength="2034.31" waitingTime="6.00" waitingCount="2" stopTime="0.00" timeLoss="30.93" rerouteNo="1" devices="tripinfo_carIn12152:1 routing_carIn12152:1 emissions_carIn12152:1" vType="default_016" speedFactor="1.00" vaporized="">
        <emissions CO_abs="5991.612784" CO2_abs="432030.104355" HC_abs="37.306209" PMx_abs="6.850915" NOx_abs="170.339397" fuel_abs="185.712023" electricity_abs="0"/>
    </tripinfo>
    <tripinfo id="h17549c1:1" depart="57680.00" departLane="-447569998#1_1" departPos="5.10" departSpeed="0.00" departDelay="0.00" arrival="57839.00" arrivalLane="-315358254#1_1" arrivalPos="137.16" arrivalSpeed="14.25" duration="159.00" routeLength="1746.60" waitingTime="5.00" waitingCount="1" stopTime="0.00" timeLoss="24.94" rerouteNo="1" devices="tripinfo_h17549c1:1 routing_h17549c1:1 emissions_h17549c1:1" vType="default_016" speedFactor="1.03" vaporized="">
        <emissions CO_abs="5457.839895" CO2_abs="397056.960515" HC_abs="34.038513" PMx_abs="6.431975" NOx_abs="156.903703" fuel_abs="170.678297" electricity_abs="0"/>
    </tripinfo>
    <tripinfo id="carIn77943:1" depart="57608.00" departLane="124812856#0_1" departPos="5.10" departSpeed="0.00" departDelay="2.50" arrival="57843.00" arrivalLane="-128361102#1_1" arrivalPos="274.68" arrivalSpeed="10.79" duration="235.00" routeLength="2250.49" waitingTime="8.00" waitingCount="2" stopTime="0.00" timeLoss="43.30" rerouteNo="1" devices="tripinfo_carIn77943:1 routing_carIn77943:1 emissions_carIn77943:1" vType="default_016" speedFactor="0.86" vaporized="">
        <emissions CO_abs="7849.786495" CO2_abs="506228.758994" HC_abs="47.496299" PMx_abs="8.193372" NOx_abs="202.498702" fuel_abs="217.607253" electricity_abs="0"/>
    </tripinfo>
    <tripinfo id="randUni31145:1" depart="57814.00" departLane="10425609#0_1" departPos="5.10" departSpeed="0.00" departDelay="0.30" arrival="57844.00" arrivalLane="201956810_1" arrivalPos="71.65" arrivalSpeed="14.04" duration="30.00" routeLength="255.78" waitingTime="0.00" waitingCount="0" stopTime="0.00" timeLoss="11.25" rerouteNo="1" devices="tripinfo_randUni31145:1 routing_randUni31145:1 emissions_randUni31145:1" vType="random_016" speedFactor="1.04" vaporized="">
        <emissions CO_abs="2284.903464" CO2_abs="117621.080768" HC_abs="13.183446" PMx_abs="2.252357" NOx_abs="49.610203" fuel_abs="50.560371" electricity_abs="0"/>
    </tripinfo>
    <tripinfo id="carIn81046:1" depart="57611.00" departLane="124812856#0_1" departPos="5.10" departSpeed="0.00" departDelay="2.50" arrival="57845.00" arrivalLane="-128361102#1_1" arrivalPos="274.68" arrivalSpeed="14.37" duration="234.00" routeLength="2250.49" waitingTime="7.00" waitingCount="2" stopTime="0.00" timeLoss="82.59" rerouteNo="1" devices="tripinfo_carIn81046:1 routing_carIn81046:1 emissions_carIn81046:1" vType="default_016" speedFactor="1.09" vaporized="">
        <emissions CO_abs="9670.871617" CO2_abs="605463.136073" HC_abs="58.226261" PMx_abs="10.556713" NOx_abs="247.323136" fuel_abs="260.263154" electricity_abs="0"/>
    </tripinfo>
    <tripinfo id="50R_frequency3.17" depart="57674.00" departLane="-18809673#6_1" departPos="12.10" departSpeed="0.00" departDelay="0.70" arrival="57845.00" arrivalLane="201956811#0_1" arrivalPos="40.40" arrivalSpeed="12.14" duration="171.00" routeLength="1954.47" waitingTime="0.00" waitingCount="0" stopTime="0.00" timeLoss="25.56" rerouteNo="1" devices="tripinfo_50R_frequency3.17 routing_50R_frequency3.17 emissions_50R_frequency3.17" vType="bus" speedFactor="1.00" vaporized="">
        <emissions CO_abs="3107.112405" CO2_abs="1960317.224856" HC_abs="654.754538" PMx_abs="333.420292" NOx_abs="15173.445098" fuel_abs="836.058525" electricity_abs="0"/>
    </tripinfo>