<?xml version="1.0" encoding="UTF-8"?>

<!-- generated on 2021-10-26 18:26:54 by Eclipse SUMO sumo Version 1.10.0
<configuration xmlns:xsi="http://www.w3.org/2001/XMLSchema-instance" xsi:noNamespaceSchemaLocation="http://sumo.dlr.de/xsd/sumoConfiguration.xsd">

    <input>
        <net-file value="/Users/behradkoohy/sumo-scratchpad/RESCO/environments/ingolstadt21/ingolstadt21.net.xml"/>
        <route-files value="/Users/behradkoohy/sumo-scratchpad/RESCO/environments/ingolstadt21/ingolstadt21.rou.xml"/>
    </input>

    <output>
        <tripinfo-output value="/Users/behradkoohy/sumo-scratchpad/RESCO/logs/IPPO-tr0-ingolstadt21-21-drq_norm-wait_norm/tripinfo_69.xml"/>
        <tripinfo-output.write-unfinished value="true"/>
    </output>

    <time>
        <begin value="57600"/>
        <end value="61200"/>
    </time>

    <processing>
        <time-to-teleport value="-1"/>
    </processing>

    <report>
        <no-warnings value="true"/>
        <no-step-log value="true"/>
    </report>

    <emissions>
        <device.emissions.probability value="1"/>
    </emissions>

    <traci_server>
        <remote-port value="62336"/>
    </traci_server>

    <random_number>
        <random value="true"/>
    </random_number>

</configuration>
-->

<tripinfos xmlns:xsi="http://www.w3.org/2001/XMLSchema-instance" xsi:noNamespaceSchemaLocation="http://sumo.dlr.de/xsd/tripinfo_file.xsd">
    <tripinfo id="h15454c2:3" depart="57612.00" departLane="24608844_1" departPos="5.10" departSpeed="0.00" departDelay="0.50" arrival="57648.00" arrivalLane="32978638#0_1" arrivalPos="49.29" arrivalSpeed="15.72" duration="36.00" routeLength="354.79" waitingTime="0.00" waitingCount="0" stopTime="0.00" timeLoss="6.02" rerouteNo="1" devices="tripinfo_h15454c2:3 routing_h15454c2:3 emissions_h15454c2:3" vType="default_016" speedFactor="1.13" vaporized="">
        <emissions CO_abs="2229.747683" CO2_abs="133908.683303" HC_abs="13.302396" PMx_abs="2.463773" NOx_abs="55.583997" fuel_abs="57.561588" electricity_abs="0"/>
    </tripinfo>
    <tripinfo id="carIn60260:1" depart="57606.00" departLane="315358254#0_1" departPos="5.10" departSpeed="0.00" departDelay="0.90" arrival="57661.00" arrivalLane="399835085#1_1" arrivalPos="212.23" arrivalSpeed="6.77" duration="55.00" routeLength="430.98" waitingTime="0.00" waitingCount="0" stopTime="0.00" timeLoss="6.54" rerouteNo="1" devices="tripinfo_carIn60260:1 routing_carIn60260:1 emissions_carIn60260:1" vType="default_016" speedFactor="0.95" vaporized="">
        <emissions CO_abs="2251.691544" CO2_abs="113995.126099" HC_abs="12.889934" PMx_abs="1.907931" NOx_abs="46.463719" fuel_abs="49.002161" electricity_abs="0"/>
    </tripinfo>
    <tripinfo id="carIn53971:1" depart="57640.00" departLane="272042143_1" departPos="5.10" departSpeed="0.00" departDelay="0.80" arrival="57692.00" arrivalLane="24634414#1_1" arrivalPos="162.19" arrivalSpeed="8.53" duration="52.00" routeLength="493.04" waitingTime="0.00" waitingCount="0" stopTime="0.00" timeLoss="9.90" rerouteNo="1" devices="tripinfo_carIn53971:1 routing_carIn53971:1 emissions_carIn53971:1" vType="default_016" speedFactor="1.09" vaporized="">
        <emissions CO_abs="2643.880895" CO2_abs="156632.462379" HC_abs="15.672322" PMx_abs="2.755854" NOx_abs="64.154990" fuel_abs="67.329787" electricity_abs="0"/>
    </tripinfo>
    <tripinfo id="h3688c1:1" depart="57625.00" departLane="201201950#1_1" departPos="5.10" departSpeed="0.00" departDelay="0.00" arrival="57710.00" arrivalLane="32978638#0_1" arrivalPos="49.29" arrivalSpeed="14.19" duration="85.00" routeLength="1089.75" waitingTime="0.00" waitingCount="0" stopTime="0.00" timeLoss="9.78" rerouteNo="1" devices="tripinfo_h3688c1:1 routing_h3688c1:1 emissions_h3688c1:1" vType="default_016" speedFactor="1.07" vaporized="">
        <emissions CO_abs="3054.594633" CO2_abs="255995.850637" HC_abs="19.900310" PMx_abs="4.371668" NOx_abs="102.336692" fuel_abs="110.041274" electricity_abs="0"/>
    </tripinfo>
    <tripinfo id="h12244c1:3" depart="57612.00" departLane="315358244_1" departPos="5.10" departSpeed="0.00" departDelay="0.40" arrival="57727.00" arrivalLane="386687235_1" arrivalPos="80.84" arrivalSpeed="12.27" duration="115.00" routeLength="1186.14" waitingTime="7.00" waitingCount="1" stopTime="0.00" timeLoss="22.60" rerouteNo="1" devices="tripinfo_h12244c1:3 routing_h12244c1:3 emissions_h12244c1:3" vType="default_016" speedFactor="0.93" vaporized="">
        <emissions CO_abs="3312.294464" CO2_abs="244921.441466" HC_abs="20.755917" PMx_abs="3.801548" NOx_abs="96.001256" fuel_abs="105.281741" electricity_abs="0"/>
    </tripinfo>
    <tripinfo id="h7800c1:5" depart="57696.00" departLane="-447569998#1_1" departPos="5.10" departSpeed="0.00" departDelay="0.00" arrival="57727.00" arrivalLane="-447569998#1_1" arrivalPos="180.76" arrivalSpeed="6.44" duration="31.00" routeLength="175.66" waitingTime="0.00" waitingCount="0" stopTime="0.00" timeLoss="3.94" rerouteNo="1" devices="tripinfo_h7800c1:5 routing_h7800c1:5 emissions_h7800c1:5" vType="default_016" speedFactor="0.79" vaporized="">
        <emissions CO_abs="1544.224811" CO2_abs="54563.086396" HC_abs="8.272817" PMx_abs="0.894732" NOx_abs="22.324522" fuel_abs="23.454998" electricity_abs="0"/>
    </tripinfo>
    <tripinfo id="carIn22761:1" depart="57616.00" departLane="-306240162#1_0" departPos="5.10" departSpeed="0.00" departDelay="2.10" arrival="57741.00" arrivalLane="399835085#1_1" arrivalPos="212.23" arrivalSpeed="6.31" duration="125.00" routeLength="1093.26" waitingTime="8.00" waitingCount="2" stopTime="0.00" timeLoss="36.24" rerouteNo="1" devices="tripinfo_carIn22761:1 routing_carIn22761:1 emissions_carIn22761:1" vType="default_016" speedFactor="0.88" vaporized="">
        <emissions CO_abs="5506.445345" CO2_abs="300319.486484" HC_abs="32.118741" PMx_abs="5.526298" NOx_abs="123.916951" fuel_abs="129.094948" electricity_abs="0"/>
    </tripinfo>
    <tripinfo id="h7181c1:1" depart="57660.00" departLane="315358254#0_1" departPos="5.10" departSpeed="0.00" departDelay="0.10" arrival="57745.00" arrivalLane="306240162#0_0" arrivalPos="220.43" arrivalSpeed="12.79" duration="85.00" routeLength="932.35" waitingTime="8.00" waitingCount="1" stopTime="0.00" timeLoss="19.00" rerouteNo="1" devices="tripinfo_h7181c1:1 routing_h7181c1:1 emissions_h7181c1:1" vType="default_016" speedFactor="0.79" vaporized="">
        <emissions CO_abs="3357.910249" CO2_abs="221035.099656" HC_abs="20.334685" PMx_abs="3.783139" NOx_abs="88.231197" fuel_abs="95.013798" electricity_abs="0"/>
    </tripinfo>
    <tripinfo id="h3568c1:3" depart="57656.00" departLane="266565295#5_1" departPos="5.10" departSpeed="0.00" departDelay="0.80" arrival="57746.00" arrivalLane="-24634415_1" arrivalPos="62.03" arrivalSpeed="12.95" duration="90.00" routeLength="807.40" waitingTime="5.00" waitingCount="1" stopTime="0.00" timeLoss="24.44" rerouteNo="1" devices="tripinfo_h3568c1:3 routing_h3568c1:3 emissions_h3568c1:3" vType="default_016" speedFactor="0.98" vaporized="">
        <emissions CO_abs="4078.488394" CO2_abs="237876.566421" HC_abs="24.182065" PMx_abs="4.388966" NOx_abs="98.886037" fuel_abs="102.252991" electricity_abs="0"/>
    </tripinfo>
    <tripinfo id="carIn30817:1" depart="57681.00" departLane="315358244_1" departPos="5.10" departSpeed="0.00" departDelay="0.20" arrival="57761.00" arrivalLane="447569997#1_1" arrivalPos="180.93" arrivalSpeed="7.24" duration="80.00" routeLength="718.04" waitingTime="0.00" waitingCount="0" stopTime="0.00" timeLoss="18.09" rerouteNo="1" devices="tripinfo_carIn30817:1 routing_carIn30817:1 emissions_carIn30817:1" vType="default_016" speedFactor="0.99" vaporized="">
        <emissions CO_abs="3433.613613" CO2_abs="192808.982594" HC_abs="20.109861" PMx_abs="3.360662" NOx_abs="78.758030" fuel_abs="82.880776" electricity_abs="0"/>
    </tripinfo>
    <tripinfo id="carIn121703:1" depart="57647.00" departLane="386687232#0_1" departPos="5.10" departSpeed="0.00" departDelay="0.30" arrival="57764.00" arrivalLane="-315358244_1" arrivalPos="33.95" arrivalSpeed="13.08" duration="117.00" routeLength="1157.39" waitingTime="12.00" waitingCount="2" stopTime="0.00" timeLoss="31.93" rerouteNo="1" devices="tripinfo_carIn121703:1 routing_carIn121703:1 emissions_carIn121703:1" vType="default_016" speedFactor="1.00" vaporized="">
        <emissions CO_abs="4577.987642" CO2_abs="286176.125203" HC_abs="27.517951" PMx_abs="4.939852" NOx_abs="115.579405" fuel_abs="123.015267" electricity_abs="0"/>
    </tripinfo>
    <tripinfo id="S5R_frequency1.2" depart="57624.00" departLane="315358250#0_1" departPos="12.10" departSpeed="0.00" departDelay="12.40" arrival="57767.00" arrivalLane="386687235_1" arrivalPos="80.84" arrivalSpeed="13.69" duration="143.00" routeLength="1115.62" waitingTime="36.00" waitingCount="2" stopTime="0.00" timeLoss="61.41" rerouteNo="1" devices="tripinfo_S5R_frequency1.2 routing_S5R_frequency1.2 emissions_S5R_frequency1.2" vType="bus" speedFactor="1.00" vaporized="">
        <emissions CO_abs="2645.324758" CO2_abs="1447875.702905" HC_abs="572.894811" PMx_abs="279.010655" NOx_abs="11799.415152" fuel_abs="617.435442" electricity_abs="0"/>
    </tripinfo>
    <tripinfo id="carIn27009:1" depart="57673.00" departLane="-447569998#1_1" departPos="5.10" departSpeed="0.00" departDelay="0.50" arrival="57769.00" arrivalLane="-26677539_1" arrivalPos="152.75" arrivalSpeed="8.22" duration="96.00" routeLength="699.63" waitingTime="0.00" waitingCount="0" stopTime="0.00" timeLoss="12.26" rerouteNo="1" devices="tripinfo_carIn27009:1 routing_carIn27009:1 emissions_carIn27009:1" vType="default_015" speedFactor="1.00" vaporized="">
        <emissions CO_abs="3771.447122" CO2_abs="176549.820469" HC_abs="21.207987" PMx_abs="2.769516" NOx_abs="71.071486" fuel_abs="75.892534" electricity_abs="0"/>
    </tripinfo>
    <tripinfo id="h5979c1:5" depart="57669.00" departLane="399835085#1_1" departPos="5.10" departSpeed="0.00" departDelay="0.00" arrival="57773.00" arrivalLane="-315358254#1_1" arrivalPos="137.16" arrivalSpeed="12.20" duration="104.00" routeLength="659.33" waitingTime="12.00" waitingCount="1" stopTime="0.00" timeLoss="25.49" rerouteNo="1" devices="tripinfo_h5979c1:5 routing_h5979c1:5 emissions_h5979c1:5" vType="default_016" speedFactor="0.93" vaporized="">
        <emissions CO_abs="4795.758124" CO2_abs="194240.130930" HC_abs="26.302834" PMx_abs="3.261145" NOx_abs="79.256461" fuel_abs="83.497234" electricity_abs="0"/>
    </tripinfo>
    <tripinfo id="h4538c1:1" depart="57701.00" departLane="-10427692#1_1" departPos="5.10" departSpeed="0.00" departDelay="0.00" arrival="57776.00" arrivalLane="-128361102#1_1" arrivalPos="274.68" arrivalSpeed="13.43" duration="75.00" routeLength="440.74" waitingTime="33.00" waitingCount="1" stopTime="0.00" timeLoss="43.36" rerouteNo="1" devices="tripinfo_h4538c1:1 routing_h4538c1:1 emissions_h4538c1:1" vType="default_016" speedFactor="1.01" vaporized="">
        <emissions CO_abs="6083.422738" CO2_abs="178005.372473" HC_abs="31.863106" PMx_abs="3.678429" NOx_abs="76.310140" fuel_abs="76.518930" electricity_abs="0"/>
    </tripinfo>
    <tripinfo id="h3326c1:2" depart="57656.00" departLane="22716069#0_1" departPos="5.10" departSpeed="0.00" departDelay="0.00" arrival="57783.00" arrivalLane="24634517#13_1" arrivalPos="111.62" arrivalSpeed="11.35" duration="127.00" routeLength="1312.81" waitingTime="0.00" waitingCount="0" stopTime="0.00" timeLoss="15.27" rerouteNo="1" devices="tripinfo_h3326c1:2 routing_h3326c1:2 emissions_h3326c1:2" vType="default_016" speedFactor="0.87" vaporized="">
        <emissions CO_abs="4390.395748" CO2_abs="308943.940934" HC_abs="27.163936" PMx_abs="4.919848" NOx_abs="122.844261" fuel_abs="132.802298" electricity_abs="0"/>
    </tripinfo>
    <tripinfo id="h317c2:1" depart="57707.00" departLane="-32978638#0_1" departPos="5.10" departSpeed="0.00" departDelay="0.10" arrival="57783.00" arrivalLane="-266565295#5_1" arrivalPos="172.76" arrivalSpeed="14.22" duration="76.00" routeLength="370.53" waitingTime="43.00" waitingCount="1" stopTime="0.00" timeLoss="51.21" rerouteNo="1" devices="tripinfo_h317c2:1 routing_h317c2:1 emissions_h317c2:1" vType="default_016" speedFactor="1.09" vaporized="">
        <emissions CO_abs="8088.769950" CO2_abs="223379.194388" HC_abs="42.056993" PMx_abs="4.798122" NOx_abs="96.883742" fuel_abs="96.023827" electricity_abs="0"/>
    </tripinfo>
    <tripinfo id="h330c1:1" depart="57736.00" departLane="-32978638#0_1" departPos="5.10" departSpeed="0.00" departDelay="0.20" arrival="57785.00" arrivalLane="-266565295#5_1" arrivalPos="172.76" arrivalSpeed="14.86" duration="49.00" routeLength="370.53" waitingTime="15.00" waitingCount="1" stopTime="0.00" timeLoss="23.79" rerouteNo="1" devices="tripinfo_h330c1:1 routing_h330c1:1 emissions_h330c1:1" vType="default_016" speedFactor="1.09" vaporized="">
        <emissions CO_abs="3614.172845" CO2_abs="150963.536762" HC_abs="19.978002" PMx_abs="3.010464" NOx_abs="63.950304" fuel_abs="64.893337" electricity_abs="0"/>
    </tripinfo>
    <tripinfo id="carIn80064:1" depart="57603.00" departLane="128361109#1_1" departPos="5.10" departSpeed="0.00" departDelay="0.40" arrival="57796.00" arrivalLane="-315358254#1_1" arrivalPos="137.16" arrivalSpeed="13.97" duration="193.00" routeLength="1587.97" waitingTime="65.00" waitingCount="3" stopTime="0.00" timeLoss="105.54" rerouteNo="1" devices="tripinfo_carIn80064:1 routing_carIn80064:1 emissions_carIn80064:1" vType="default_016" speedFactor="1.02" vaporized="">
        <emissions CO_abs="15664.606118" CO2_abs="621437.505111" HC_abs="86.155274" PMx_abs="12.891048" NOx_abs="263.544167" fuel_abs="267.132005" electricity_abs="0"/>
    </tripinfo>
    <tripinfo id="carIn107282:1" depart="57749.00" departLane="-447569998#1_1" departPos="5.10" departSpeed="0.00" departDelay="0.00" arrival="57798.00" arrivalLane="315358242#0_1" arrivalPos="165.37" arrivalSpeed="12.56" duration="49.00" routeLength="448.50" waitingTime="0.00" waitingCount="0" stopTime="0.00" timeLoss="5.06" rerouteNo="1" devices="tripinfo_carIn107282:1 routing_carIn107282:1 emissions_carIn107282:1" vType="default_016" speedFactor="0.95" vaporized="">
        <emissions CO_abs="1775.235646" CO2_abs="109925.030255" HC_abs="10.612755" PMx_abs="1.667272" NOx_abs="43.181432" fuel_abs="47.252559" electricity_abs="0"/>
    </tripinfo>
    <tripinfo id="h9563c2:5" depart="57631.00" departLane="315358244_1" departPos="5.10" departSpeed="0.00" departDelay="0.70" arrival="57803.00" arrivalLane="386687235_1" arrivalPos="80.84" arrivalSpeed="12.63" duration="172.00" routeLength="1186.14" waitingTime="55.00" waitingCount="4" stopTime="0.00" timeLoss="82.50" rerouteNo="1" devices="tripinfo_h9563c2:5 routing_h9563c2:5 emissions_h9563c2:5" vType="default_016" speedFactor="0.96" vaporized="">
        <emissions CO_abs="11627.847317" CO2_abs="423566.238614" HC_abs="62.815192" PMx_abs="7.927750" NOx_abs="175.789983" fuel_abs="182.076727" electricity_abs="0"/>
    </tripinfo>
    <tripinfo id="carIn86816:1" depart="57617.00" departLane="128361102#0_1" departPos="5.10" departSpeed="0.00" departDelay="0.80" arrival="57804.00" arrivalLane="201956811#0_1" arrivalPos="40.40" arrivalSpeed="12.32" duration="187.00" routeLength="2067.33" waitingTime="4.00" waitingCount="1" stopTime="0.00" timeLoss="30.05" rerouteNo="1" devices="tripinfo_carIn86816:1 routing_carIn86816:1 emissions_carIn86816:1" vType="default_016" speedFactor="0.96" vaporized="">
        <emissions CO_abs="5929.906101" CO2_abs="466144.725454" HC_abs="37.862695" PMx_abs="7.461218" NOx_abs="184.108791" fuel_abs="200.375953" electricity_abs="0"/>
    </tripinfo>
    <tripinfo id="carIn118591:1" depart="57689.00" departLane="315358244_1" departPos="5.10" departSpeed="0.00" departDelay="0.20" arrival="57805.00" arrivalLane="386687235_1" arrivalPos="80.84" arrivalSpeed="13.35" duration="116.00" routeLength="1186.14" waitingTime="7.00" waitingCount="3" stopTime="0.00" timeLoss="32.16" rerouteNo="1" devices="tripinfo_carIn118591:1 routing_carIn118591:1 emissions_carIn118591:1" vType="default_016" speedFactor="1.03" vaporized="">
        <emissions CO_abs="4522.826507" CO2_abs="293336.246528" HC_abs="27.446148" PMx_abs="5.105833" NOx_abs="118.736430" fuel_abs="126.092897" electricity_abs="0"/>
    </tripinfo>
    <tripinfo id="h3154c1:1" depart="57658.00" departLane="24634507_1" departPos="5.10" departSpeed="0.00" departDelay="0.00" arrival="57806.00" arrivalLane="-266565295#5_1" arrivalPos="172.76" arrivalSpeed="14.16" duration="148.00" routeLength="1206.22" waitingTime="39.00" waitingCount="1" stopTime="0.00" timeLoss="63.38" rerouteNo="1" devices="tripinfo_h3154c1:1 routing_h3154c1:1 emissions_h3154c1:1" vType="default_016" speedFactor="1.06" vaporized="">
        <emissions CO_abs="10602.573330" CO2_abs="439132.041405" HC_abs="58.520951" PMx_abs="8.352966" NOx_abs="182.613105" fuel_abs="188.766529" electricity_abs="0"/>
    </tripinfo>
    <tripinfo id="carIn77943:1" depart="57608.00" departLane="124812856#0_1" departPos="5.10" departSpeed="0.00" departDelay="2.50" arrival="57817.00" arrivalLane="-128361102#1_1" arrivalPos="274.68" arrivalSpeed="13.30" duration="209.00" routeLength="2250.49" waitingTime="14.00" waitingCount="2" stopTime="0.00" timeLoss="39.47" rerouteNo="1" devices="tripinfo_carIn77943:1 routing_carIn77943:1 emissions_carIn77943:1" vType="default_016" speedFactor="0.97" vaporized="">
        <emissions CO_abs="7004.978829" CO2_abs="495169.254462" HC_abs="43.432999" PMx_abs="7.978533" NOx_abs="195.831777" fuel_abs="212.852907" electricity_abs="0"/>
    </tripinfo>
    <tripinfo id="carIn129809:1" depart="57729.00" departLane="-447569998#1_1" departPos="5.10" departSpeed="0.00" departDelay="1.00" arrival="57817.00" arrivalLane="-315358244_1" arrivalPos="33.95" arrivalSpeed="12.12" duration="88.00" routeLength="706.49" waitingTime="14.00" waitingCount="1" stopTime="0.00" timeLoss="25.27" rerouteNo="1" devices="tripinfo_carIn129809:1 routing_carIn129809:1 emissions_carIn129809:1" vType="default_015" speedFactor="0.96" vaporized="">
        <emissions CO_abs="3979.274867" CO2_abs="185210.594317" HC_abs="22.396828" PMx_abs="3.089839" NOx_abs="74.526755" fuel_abs="79.615359" electricity_abs="0"/>
    </tripinfo>
    <tripinfo id="carIn50326:1" depart="57651.00" departLane="128361102#0_1" departPos="5.10" departSpeed="0.00" departDelay="0.30" arrival="57823.00" arrivalLane="18809673#0_1" arrivalPos="473.56" arrivalSpeed="14.62" duration="172.00" routeLength="1591.07" waitingTime="28.00" waitingCount="1" stopTime="0.00" timeLoss="49.34" rerouteNo="1" devices="tripinfo_carIn50326:1 routing_carIn50326:1 emissions_carIn50326:1" vType="default_016" speedFactor="1.06" vaporized="">
        <emissions CO_abs="8613.105181" CO2_abs="402523.244486" HC_abs="48.577930" PMx_abs="7.164801" NOx_abs="164.095125" fuel_abs="173.029592" electricity_abs="0"/>
    </tripinfo>
    <tripinfo id="h11737c1:1" depart="57665.00" departLane="272042143_1" departPos="5.10" departSpeed="0.00" departDelay="1.50" arrival="57828.00" arrivalLane="-315358254#1_1" arrivalPos="137.16" arrivalSpeed="12.49" duration="163.00" routeLength="1596.88" waitingTime="15.00" waitingCount="2" stopTime="0.00" timeLoss="34.94" rerouteNo="1" devices="tripinfo_h11737c1:1 routing_h11737c1:1 emissions_h11737c1:1" vType="default_016" speedFactor="0.91" vaporized="">
        <emissions CO_abs="5529.890301" CO2_abs="349593.769723" HC_abs="33.306314" PMx_abs="5.668444" NOx_abs="139.156391" fuel_abs="150.276367" electricity_abs="0"/>
    </tripinfo>
    <tripinfo id="randUni15030:1" depart="57735.00" departLane="386687232#0_1" departPos="5.10" departSpeed="0.00" departDelay="0.10" arrival="57828.00" arrivalLane="26677539_1" arrivalPos="151.98" arrivalSpeed="7.52" duration="93.00" routeLength="919.89" waitingTime="0.00" waitingCount="0" stopTime="0.00" timeLoss="10.22" rerouteNo="1" devices="tripinfo_randUni15030:1 routing_randUni15030:1 emissions_randUni15030:1" vType="random_016" speedFactor="1.00" vaporized="">
        <emissions CO_abs="3256.633204" CO2_abs="208781.030706" HC_abs="19.651287" PMx_abs="3.314114" NOx_abs="82.931191" fuel_abs="89.746644" electricity_abs="0"/>
    </tripinfo>
    <tripinfo id="carIn126288:1" depart="57674.00" departLane="272042143_1" departPos="5.10" departSpeed="0.00" departDelay="0.00" arrival="57831.00" arrivalLane="-315358254#1_1" arrivalPos="137.16" arrivalSpeed="12.68" duration="157.00" routeLength="1596.88" waitingTime="8.00" waitingCount="2" stopTime="0.00" timeLoss="34.92" rerouteNo="1" devices="tripinfo_carIn126288:1 routing_carIn126288:1 emissions_carIn126288:1" vType="default_016" speedFactor="0.96" vaporized="">
        <emissions CO_abs="5478.878305" CO2_abs="366737.648462" HC_abs="33.508921" PMx_abs="6.077793" NOx_abs="146.750352" fuel_abs="157.645366" electricity_abs="0"/>
    </tripinfo>
    <tripinfo id="50R_frequency3.17" depart="57674.00" departLane="-18809673#6_1" departPos="12.10" departSpeed="0.00" departDelay="0.70" arrival="57835.00" arrivalLane="201956811#0_1" arrivalPos="40.40" arrivalSpeed="13.36" duration="161.00" routeLength="1954.47" waitingTime="0.00" waitingCount="0" stopTime="0.00" timeLoss="16.03" rerouteNo="1" devices="tripinfo_50R_frequency3.17 routing_50R_frequency3.17 emissions_50R_frequency3.17" vType="bus" speedFactor="1.00" vaporized="">
        <emissions CO_abs="2928.401892" CO2_abs="1868364.752768" HC_abs="621.909429" PMx_abs="315.102929" NOx_abs="14398.200101" fuel_abs="796.854901" electricity_abs="0"/>
    </tripinfo>
    <tripinfo id="carIn12365:1" depart="57713.00" departLane="315358244_1" departPos="5.10" departSpeed="0.00" departDelay="0.50" arrival="57839.00" arrivalLane="447569997#1_1" arrivalPos="180.93" arrivalSpeed="6.42" duration="126.00" routeLength="718.04" waitingTime="35.00" waitingCount="2" stopTime="0.00" timeLoss="54.72" rerouteNo="1" devices="tripinfo_carIn12365:1 routing_carIn12365:1 emissions_carIn12365:1" vType="default_016" speedFactor="0.87" vaporized="">
        <emissions CO_abs="7673.886173" CO2_abs="252596.028774" HC_abs="40.781010" PMx_abs="4.588118" NOx_abs="104.777002" fuel_abs="108.583207" electricity_abs="0"/>
    </tripinfo>
    <tripinfo id="h3864c1:3" depart="57678.00" departLane="24693977#1_1" departPos="5.10" departSpeed="0.00" departDelay="0.00" arrival="57840.00" arrivalLane="201956820_1" arrivalPos="48.33" arrivalSpeed="13.31" duration="162.00" routeLength="1574.85" waitingTime="8.00" waitingCount="2" stopTime="0.00" timeLoss="36.99" rerouteNo="1" devices="tripinfo_h3864c1:3 routing_h3864c1:3 emissions_h3864c1:3" vType="default_016" speedFactor="1.03" vaporized="">
        <emissions CO_abs="6926.788909" CO2_abs="436246.679182" HC_abs="41.756460" PMx_abs="7.718133" NOx_abs="178.285845" fuel_abs="187.523964" electricity_abs="0"/>
    </tripinfo>
    <tripinfo id="carIn107084:1" depart="57601.00" departLane="124812856#0_1" departPos="5.10" departSpeed="0.00" departDelay="0.70" arrival="57841.00" arrivalLane="-128361102#1_1" arrivalPos="274.68" arrivalSpeed="10.35" duration="240.00" routeLength="2232.46" waitingTime="14.00" waitingCount="1" stopTime="0.00" timeLoss="36.27" rerouteNo="1" devices="tripinfo_carIn107084:1 routing_carIn107084:1 emissions_carIn107084:1" vType="default_016" speedFactor="0.80" vaporized="">
        <emissions CO_abs="8519.193324" CO2_abs="493309.063426" HC_abs="50.145696" PMx_abs="7.618114" NOx_abs="195.067869" fuel_abs="212.054891" electricity_abs="0"/>
    </tripinfo>
    <tripinfo id="h15382c1:3" depart="57623.00" departLane="124812856#0_1" departPos="5.10" departSpeed="0.00" departDelay="0.80" arrival="57843.00" arrivalLane="-128361102#1_1" arrivalPos="274.68" arrivalSpeed="13.80" duration="220.00" routeLength="2232.46" waitingTime="9.00" waitingCount="1" stopTime="0.00" timeLoss="78.15" rerouteNo="1" devices="tripinfo_h15382c1:3 routing_h15382c1:3 emissions_h15382c1:3" vType="default_016" speedFactor="1.15" vaporized="">
        <emissions CO_abs="9411.413618" CO2_abs="598192.195430" HC_abs="56.897217" PMx_abs="10.694287" NOx_abs="245.119377" fuel_abs="257.137245" electricity_abs="0"/>
    </tripinfo>
    <tripinfo id="h17600c1:1" depart="57662.00" departLane="272042143_1" departPos="5.10" departSpeed="0.00" departDelay="0.30" arrival="57843.00" arrivalLane="201238729#3_1" arrivalPos="431.02" arrivalSpeed="13.15" duration="181.00" routeLength="2100.26" waitingTime="7.00" waitingCount="1" stopTime="0.00" timeLoss="23.63" rerouteNo="1" devices="tripinfo_h17600c1:1 routing_h17600c1:1 emissions_h17600c1:1" vType="default_016" speedFactor="0.96" vaporized="">
        <emissions CO_abs="4952.796265" CO2_abs="400032.071649" HC_abs="31.864669" PMx_abs="6.312083" NOx_abs="156.935092" fuel_abs="171.956983" electricity_abs="0"/>
    </tripinfo>
    <tripinfo id="carIn8642:1" depart="57774.00" departLane="-447569998#1_1" departPos="5.10" departSpeed="0.00" departDelay="0.90" arrival="57843.00" arrivalLane="-315358244_1" arrivalPos="33.95" arrivalSpeed="14.83" duration="69.00" routeLength="706.49" waitingTime="4.00" waitingCount="1" stopTime="0.00" timeLoss="16.04" rerouteNo="1" devices="tripinfo_carIn8642:1 routing_carIn8642:1 emissions_carIn8642:1" vType="default_016" speedFactor="1.14" vaporized="">
        <emissions CO_abs="3129.928489" CO2_abs="194651.049345" HC_abs="18.726376" PMx_abs="3.505765" NOx_abs="79.683869" fuel_abs="83.672187" electricity_abs="0"/>
    </tripinfo>
    <tripinfo id="carIn77438:1" depart="57614.00" departLane="124812856#0_1" departPos="5.10" departSpeed="0.00" departDelay="1.10" arrival="57845.00" arrivalLane="-128361102#1_1" arrivalPos="274.68" arrivalSpeed="14.23" duration="231.00" routeLength="2250.49" waitingTime="24.00" waitingCount="2" stopTime="0.00" timeLoss="77.01" rerouteNo="1" devices="tripinfo_carIn77438:1 routing_carIn77438:1 emissions_carIn77438:1" vType="default_016" speedFactor="1.07" vaporized="">
        <emissions CO_abs="11719.645444" CO2_abs="634540.585612" HC_abs="68.225581" PMx_abs="11.402103" NOx_abs="260.208850" fuel_abs="272.763281" electricity_abs="0"/>
    </tripinfo>
    <tripinfo id="carIn126378:1" depart="57746.00" departLane="386687232#0_1" departPos="5.10" departSpeed="0.00" departDelay="1.80" arrival="57845.00" arrivalLane="-315358244_1" arrivalPos="33.95" arrivalSpeed="13.89" duration="99.00" routeLength="1157.39" waitingTime="4.00" waitingCount="1" stopTime="0.00" timeLoss="20.04" rerouteNo="1" devices="tripinfo_carIn126378:1 routing_carIn126378:1 emissions_carIn126378:1" vType="default_016" speedFactor="1.07" vaporized="">
        <emissions CO_abs="3635.195109" CO2_abs="273286.914510" HC_abs="22.929290" PMx_abs="4.671512" NOx_abs="109.508841" fuel_abs="117.474224" electricity_abs="0"/>
    </tripinfo>
    <tripinfo id="carIn81046:1" depart="57611.00" departLane="124812856#0_1" departPos="5.10" departSpeed="0.00" departDelay="2.50" arrival="57846.00" arrivalLane="-128361102#1_1" arrivalPos="274.68" arrivalSpeed="13.15" duration="235.00" routeLength="2250.49" waitingTime="19.00" waitingCount="2" stopTime="0.00" timeLoss="72.31" rerouteNo="1" devices="tripinfo_carIn81046:1 routing_carIn81046:1 emissions_carIn81046:1" vType="default_016" speedFactor="1.01" vaporized="">
        <emissions CO_abs="10234.559970" CO2_abs="595317.083704" HC_abs="60.549645" PMx_abs="10.405435" NOx_abs="242.571318" fuel_abs="255.902455" electricity_abs="0"/>
    </tripinfo>
    <tripinfo id="h19804c1:3" depart="57617.00" departLane="124812856#0_1" departPos="5.10" departSpeed="0.00" departDelay="1.50" arrival="57848.00" arrivalLane="-128361102#1_1" arrivalPos="274.68" arrivalSpeed="13.83" duration="231.00" routeLength="2250.49" waitingTime="14.00" waitingCount="1" stopTime="0.00" timeLoss="79.56" rerouteNo="1" devices="tripinfo_h19804c1:3 routing_h19804c1:3 emissions_h19804c1:3" vType="default_016" speedFactor="1.09" vaporized="">
        <emissions CO_abs="10697.723169" CO2_abs="648405.915423" HC_abs="63.990096" PMx_abs="11.725784" NOx_abs="266.854411" fuel_abs="278.722176" electricity_abs="0"/>
    </tripinfo>
    <tripinfo id="h6541c1:3" depart="57727.00" departLane="201950247#3_1" departPos="5.10" departSpeed="0.00" departDelay="0.00" arrival="57848.00" arrivalLane="32978638#0_1" arrivalPos="49.29" arrivalSpeed="13.52" duration="121.00" routeLength="1176.17" waitingTime="1.00" waitingCount="1" stopTime="0.00" timeLoss="23.51" rerouteNo="1" devices="tripinfo_h6541c1:3 routing_h6541c1:3 emissions_h6541c1:3" vType="default_016" speedFactor="1.05" vaporized="">
        <emissions CO_abs="5200.415209" CO2_abs="312536.417476" HC_abs="30.970017" PMx_abs="5.514554" NOx_abs="127.984087" fuel_abs="134.346351" electricity_abs="0"/>
    </tripinfo>
    <tripinfo id="carIn73855:1" depart="57743.00" departLane="386687232#0_1" departPos="5.10" departSpeed="0.00" departDelay="0.50" arrival="57848.00" arrivalLane="-315358244_1" arrivalPos="33.95" arrivalSpeed="12.53" duration="105.00" routeLength="1157.39" waitingTime="1.00" waitingCount="1" stopTime="0.00" timeLoss="15.50" rerouteNo="1" devices="tripinfo_carIn73855:1 routing_carIn73855:1 emissions_carIn73855:1" vType="default_016" speedFactor="0.95" vaporized="">
        <emissions CO_abs="3266.654190" CO2_abs="251243.266770" HC_abs="20.714133" PMx_abs="3.950685" NOx_abs="98.884421" fuel_abs="107.999039" electricity_abs="0"/>
    </tripinfo>
    <tripinfo id="carIn56649:1" depart="57627.00" departLane="124812856#0_1" departPos="5.10" departSpeed="0.00" departDelay="3.10" arrival="57849.00" arrivalLane="-128361102#1_1" arrivalPos="274.68" arrivalSpeed="14.71" duration="222.00" routeLength="2250.49" waitingTime="21.00" waitingCount="2" stopTime="0.00" timeLoss="72.61" rerouteNo="1" devices="tripinfo_carIn56649:1 routing_carIn56649:1 emissions_carIn56649:1" vType="default_016" speedFactor="1.10" vaporized="">
        <emissions CO_abs="10457.094156" CO2_abs="624219.776226" HC_abs="62.348486" PMx_abs="11.584097" NOx_abs="258.248253" fuel_abs="268.325317" electricity_abs="0"/>
    </tripinfo>