<?xml version="1.0" encoding="UTF-8"?>

<!-- generated on 2021-10-26 18:32:13 by Eclipse SUMO sumo Version 1.10.0
<configuration xmlns:xsi="http://www.w3.org/2001/XMLSchema-instance" xsi:noNamespaceSchemaLocation="http://sumo.dlr.de/xsd/sumoConfiguration.xsd">

    <input>
        <net-file value="/Users/behradkoohy/sumo-scratchpad/RESCO/environments/ingolstadt21/ingolstadt21.net.xml"/>
        <route-files value="/Users/behradkoohy/sumo-scratchpad/RESCO/environments/ingolstadt21/ingolstadt21.rou.xml"/>
    </input>

    <output>
        <tripinfo-output value="/Users/behradkoohy/sumo-scratchpad/RESCO/logs/IPPO-tr0-ingolstadt21-21-drq_norm-wait_norm/tripinfo_76.xml"/>
        <tripinfo-output.write-unfinished value="true"/>
    </output>

    <time>
        <begin value="57600"/>
        <end value="61200"/>
    </time>

    <processing>
        <time-to-teleport value="-1"/>
    </processing>

    <report>
        <no-warnings value="true"/>
        <no-step-log value="true"/>
    </report>

    <emissions>
        <device.emissions.probability value="1"/>
    </emissions>

    <traci_server>
        <remote-port value="62376"/>
    </traci_server>

    <random_number>
        <random value="true"/>
    </random_number>

</configuration>
-->

<tripinfos xmlns:xsi="http://www.w3.org/2001/XMLSchema-instance" xsi:noNamespaceSchemaLocation="http://sumo.dlr.de/xsd/tripinfo_file.xsd">
    <tripinfo id="h15454c2:3" depart="57612.00" departLane="24608844_1" departPos="5.10" departSpeed="0.00" departDelay="0.50" arrival="57657.00" arrivalLane="32978638#0_1" arrivalPos="49.29" arrivalSpeed="13.65" duration="45.00" routeLength="354.79" waitingTime="0.00" waitingCount="0" stopTime="0.00" timeLoss="10.80" rerouteNo="1" devices="tripinfo_h15454c2:3 routing_h15454c2:3 emissions_h15454c2:3" vType="default_016" speedFactor="0.99" vaporized="">
        <emissions CO_abs="2664.868155" CO2_abs="127078.432984" HC_abs="15.102226" PMx_abs="2.295682" NOx_abs="52.858521" fuel_abs="54.626053" electricity_abs="0"/>
    </tripinfo>
    <tripinfo id="carIn60260:1" depart="57606.00" departLane="315358254#0_1" departPos="5.10" departSpeed="0.00" departDelay="0.90" arrival="57679.00" arrivalLane="399835085#1_1" arrivalPos="212.23" arrivalSpeed="8.80" duration="73.00" routeLength="430.98" waitingTime="20.00" waitingCount="1" stopTime="0.00" timeLoss="31.98" rerouteNo="1" devices="tripinfo_carIn60260:1 routing_carIn60260:1 emissions_carIn60260:1" vType="default_016" speedFactor="1.13" vaporized="">
        <emissions CO_abs="4891.578920" CO2_abs="169885.503122" HC_abs="26.239657" PMx_abs="3.250734" NOx_abs="71.573852" fuel_abs="73.028028" electricity_abs="0"/>
    </tripinfo>
    <tripinfo id="carIn53971:1" depart="57640.00" departLane="272042143_1" departPos="5.10" departSpeed="0.00" departDelay="0.80" arrival="57697.00" arrivalLane="24634414#1_1" arrivalPos="162.19" arrivalSpeed="7.36" duration="57.00" routeLength="493.04" waitingTime="0.00" waitingCount="0" stopTime="0.00" timeLoss="9.37" rerouteNo="1" devices="tripinfo_carIn53971:1 routing_carIn53971:1 emissions_carIn53971:1" vType="default_016" speedFactor="0.96" vaporized="">
        <emissions CO_abs="2506.393987" CO2_abs="139766.563908" HC_abs="14.657414" PMx_abs="2.332968" NOx_abs="56.596382" fuel_abs="60.080146" electricity_abs="0"/>
    </tripinfo>
    <tripinfo id="S5R_frequency1.2" depart="57612.00" departLane="315358250#0_1" departPos="12.10" departSpeed="0.00" departDelay="0.40" arrival="57706.00" arrivalLane="386687235_1" arrivalPos="80.84" arrivalSpeed="13.73" duration="94.00" routeLength="1115.62" waitingTime="0.00" waitingCount="0" stopTime="0.00" timeLoss="12.84" rerouteNo="1" devices="tripinfo_S5R_frequency1.2 routing_S5R_frequency1.2 emissions_S5R_frequency1.2" vType="bus" speedFactor="1.00" vaporized="">
        <emissions CO_abs="1973.221824" CO2_abs="1249762.463227" HC_abs="417.992361" PMx_abs="212.011939" NOx_abs="9657.468207" fuel_abs="533.017214" electricity_abs="0"/>
    </tripinfo>
    <tripinfo id="h9563c2:5" depart="57631.00" departLane="315358244_1" departPos="5.10" departSpeed="0.00" departDelay="0.70" arrival="57725.00" arrivalLane="386687235_1" arrivalPos="80.84" arrivalSpeed="14.28" duration="94.00" routeLength="1186.14" waitingTime="0.00" waitingCount="0" stopTime="0.00" timeLoss="14.25" rerouteNo="1" devices="tripinfo_h9563c2:5 routing_h9563c2:5 emissions_h9563c2:5" vType="default_016" speedFactor="1.09" vaporized="">
        <emissions CO_abs="3559.648864" CO2_abs="282396.592794" HC_abs="22.745999" PMx_abs="4.774567" NOx_abs="112.420329" fuel_abs="121.390025" electricity_abs="0"/>
    </tripinfo>
    <tripinfo id="h7800c1:5" depart="57696.00" departLane="-447569998#1_1" departPos="5.10" departSpeed="0.00" departDelay="0.00" arrival="57725.00" arrivalLane="-447569998#1_2" arrivalPos="180.76" arrivalSpeed="4.56" duration="29.00" routeLength="175.66" waitingTime="0.00" waitingCount="0" stopTime="0.00" timeLoss="7.42" rerouteNo="1" devices="tripinfo_h7800c1:5 routing_h7800c1:5 emissions_h7800c1:5" vType="default_016" speedFactor="1.00" vaporized="">
        <emissions CO_abs="1365.627580" CO2_abs="54436.457530" HC_abs="7.467635" PMx_abs="0.914960" NOx_abs="22.331868" fuel_abs="23.400389" electricity_abs="0"/>
    </tripinfo>
    <tripinfo id="h12244c1:3" depart="57612.00" departLane="315358244_1" departPos="5.10" departSpeed="0.00" departDelay="0.40" arrival="57728.00" arrivalLane="386687235_1" arrivalPos="80.84" arrivalSpeed="13.56" duration="116.00" routeLength="1186.14" waitingTime="11.00" waitingCount="2" stopTime="0.00" timeLoss="33.34" rerouteNo="1" devices="tripinfo_h12244c1:3 routing_h12244c1:3 emissions_h12244c1:3" vType="default_016" speedFactor="1.05" vaporized="">
        <emissions CO_abs="4397.354733" CO2_abs="296892.350050" HC_abs="26.994344" PMx_abs="5.149107" NOx_abs="119.897091" fuel_abs="127.621413" electricity_abs="0"/>
    </tripinfo>
    <tripinfo id="h3688c1:1" depart="57625.00" departLane="201201950#1_1" departPos="5.10" departSpeed="0.00" departDelay="0.00" arrival="57745.00" arrivalLane="32978638#0_1" arrivalPos="49.29" arrivalSpeed="12.80" duration="120.00" routeLength="1089.75" waitingTime="17.00" waitingCount="2" stopTime="0.00" timeLoss="35.95" rerouteNo="1" devices="tripinfo_h3688c1:1 routing_h3688c1:1 emissions_h3688c1:1" vType="default_016" speedFactor="0.95" vaporized="">
        <emissions CO_abs="6052.526049" CO2_abs="296047.385910" HC_abs="34.500341" PMx_abs="5.344413" NOx_abs="121.640030" fuel_abs="127.259231" electricity_abs="0"/>
    </tripinfo>
    <tripinfo id="carIn80064:1" depart="57603.00" departLane="128361109#1_1" departPos="5.10" departSpeed="0.00" departDelay="0.40" arrival="57747.00" arrivalLane="-315358254#1_1" arrivalPos="137.16" arrivalSpeed="12.68" duration="144.00" routeLength="1587.97" waitingTime="20.00" waitingCount="2" stopTime="0.00" timeLoss="52.72" rerouteNo="1" devices="tripinfo_carIn80064:1 routing_carIn80064:1 emissions_carIn80064:1" vType="default_016" speedFactor="0.97" vaporized="">
        <emissions CO_abs="8749.552150" CO2_abs="494668.425482" HC_abs="51.680274" PMx_abs="9.778368" NOx_abs="206.103599" fuel_abs="212.636484" electricity_abs="0"/>
    </tripinfo>
    <tripinfo id="carIn22761:1" depart="57616.00" departLane="-306240162#1_0" departPos="5.10" departSpeed="0.00" departDelay="2.10" arrival="57748.00" arrivalLane="399835085#1_1" arrivalPos="212.23" arrivalSpeed="6.22" duration="132.00" routeLength="1093.26" waitingTime="8.00" waitingCount="2" stopTime="0.00" timeLoss="33.73" rerouteNo="1" devices="tripinfo_carIn22761:1 routing_carIn22761:1 emissions_carIn22761:1" vType="default_016" speedFactor="0.79" vaporized="">
        <emissions CO_abs="5867.764002" CO2_abs="309748.523996" HC_abs="33.690015" PMx_abs="5.368463" NOx_abs="125.805484" fuel_abs="133.148712" electricity_abs="0"/>
    </tripinfo>
    <tripinfo id="h4538c1:1" depart="57701.00" departLane="-10427692#1_1" departPos="5.10" departSpeed="0.00" departDelay="0.00" arrival="57753.00" arrivalLane="-128361102#1_1" arrivalPos="274.68" arrivalSpeed="14.37" duration="52.00" routeLength="440.74" waitingTime="14.00" waitingCount="1" stopTime="0.00" timeLoss="23.27" rerouteNo="1" devices="tripinfo_h4538c1:1 routing_h4538c1:1 emissions_h4538c1:1" vType="default_016" speedFactor="1.13" vaporized="">
        <emissions CO_abs="3351.051610" CO2_abs="142315.492485" HC_abs="18.496713" PMx_abs="2.696214" NOx_abs="58.952136" fuel_abs="61.176080" electricity_abs="0"/>
    </tripinfo>
    <tripinfo id="h3568c1:3" depart="57656.00" departLane="266565295#5_1" departPos="5.10" departSpeed="0.00" departDelay="0.80" arrival="57768.00" arrivalLane="-24634415_1" arrivalPos="62.03" arrivalSpeed="12.60" duration="112.00" routeLength="807.40" waitingTime="21.00" waitingCount="2" stopTime="0.00" timeLoss="44.10" rerouteNo="1" devices="tripinfo_h3568c1:3 routing_h3568c1:3 emissions_h3568c1:3" vType="default_016" speedFactor="0.95" vaporized="">
        <emissions CO_abs="6872.347997" CO2_abs="299936.885001" HC_abs="38.351960" PMx_abs="5.743064" NOx_abs="126.243245" fuel_abs="128.931215" electricity_abs="0"/>
    </tripinfo>
    <tripinfo id="carIn30817:1" depart="57681.00" departLane="315358244_1" departPos="5.10" departSpeed="0.00" departDelay="0.20" arrival="57770.00" arrivalLane="447569997#1_1" arrivalPos="180.93" arrivalSpeed="7.63" duration="89.00" routeLength="718.04" waitingTime="13.00" waitingCount="1" stopTime="0.00" timeLoss="29.95" rerouteNo="1" devices="tripinfo_carIn30817:1 routing_carIn30817:1 emissions_carIn30817:1" vType="default_016" speedFactor="1.05" vaporized="">
        <emissions CO_abs="4671.540574" CO2_abs="204901.771097" HC_abs="26.056611" PMx_abs="3.828845" NOx_abs="85.418048" fuel_abs="88.079454" electricity_abs="0"/>
    </tripinfo>
    <tripinfo id="carIn107084:1" depart="57601.00" departLane="124812856#0_1" departPos="5.10" departSpeed="0.00" departDelay="0.70" arrival="57773.00" arrivalLane="-128361102#1_1" arrivalPos="274.68" arrivalSpeed="14.80" duration="172.00" routeLength="2250.49" waitingTime="1.00" waitingCount="1" stopTime="0.00" timeLoss="27.42" rerouteNo="1" devices="tripinfo_carIn107084:1 routing_carIn107084:1 emissions_carIn107084:1" vType="default_016" speedFactor="1.14" vaporized="">
        <emissions CO_abs="6044.063054" CO2_abs="490927.404185" HC_abs="38.761868" PMx_abs="8.453544" NOx_abs="195.874130" fuel_abs="211.028028" electricity_abs="0"/>
    </tripinfo>
    <tripinfo id="h317c2:1" depart="57707.00" departLane="-32978638#0_1" departPos="5.10" departSpeed="0.00" departDelay="0.10" arrival="57774.00" arrivalLane="-266565295#5_1" arrivalPos="172.76" arrivalSpeed="13.85" duration="67.00" routeLength="370.53" waitingTime="32.00" waitingCount="1" stopTime="0.00" timeLoss="41.52" rerouteNo="1" devices="tripinfo_h317c2:1 routing_h317c2:1 emissions_h317c2:1" vType="default_016" speedFactor="1.08" vaporized="">
        <emissions CO_abs="6245.592828" CO2_abs="192306.002172" HC_abs="32.945450" PMx_abs="4.052186" NOx_abs="82.941882" fuel_abs="82.665921" electricity_abs="0"/>
    </tripinfo>
    <tripinfo id="h330c1:1" depart="57736.00" departLane="-32978638#0_1" departPos="5.10" departSpeed="0.00" departDelay="0.20" arrival="57777.00" arrivalLane="-266565295#5_1" arrivalPos="172.76" arrivalSpeed="13.80" duration="41.00" routeLength="370.53" waitingTime="2.00" waitingCount="1" stopTime="0.00" timeLoss="14.19" rerouteNo="1" devices="tripinfo_h330c1:1 routing_h330c1:1 emissions_h330c1:1" vType="default_016" speedFactor="1.03" vaporized="">
        <emissions CO_abs="2195.444891" CO2_abs="122466.252935" HC_abs="12.892167" PMx_abs="2.299395" NOx_abs="51.040621" fuel_abs="52.643054" electricity_abs="0"/>
    </tripinfo>
    <tripinfo id="h5979c1:5" depart="57669.00" departLane="399835085#1_1" departPos="5.10" departSpeed="0.00" departDelay="0.00" arrival="57780.00" arrivalLane="-315358254#1_1" arrivalPos="137.16" arrivalSpeed="13.06" duration="111.00" routeLength="659.33" waitingTime="26.00" waitingCount="2" stopTime="0.00" timeLoss="40.15" rerouteNo="1" devices="tripinfo_h5979c1:5 routing_h5979c1:5 emissions_h5979c1:5" vType="default_016" speedFactor="1.03" vaporized="">
        <emissions CO_abs="6953.448765" CO2_abs="224437.138725" HC_abs="36.870048" PMx_abs="4.228739" NOx_abs="94.401087" fuel_abs="96.478422" electricity_abs="0"/>
    </tripinfo>
    <tripinfo id="h11737c1:1" depart="57665.00" departLane="272042143_1" departPos="5.10" departSpeed="0.00" departDelay="1.50" arrival="57786.00" arrivalLane="-315358254#1_1" arrivalPos="137.16" arrivalSpeed="14.50" duration="121.00" routeLength="1596.88" waitingTime="0.00" waitingCount="0" stopTime="0.00" timeLoss="12.29" rerouteNo="1" devices="tripinfo_h11737c1:1 routing_h11737c1:1 emissions_h11737c1:1" vType="default_016" speedFactor="1.07" vaporized="">
        <emissions CO_abs="3512.415976" CO2_abs="309711.393543" HC_abs="23.130827" PMx_abs="5.142784" NOx_abs="122.515806" fuel_abs="133.131291" electricity_abs="0"/>
    </tripinfo>
    <tripinfo id="carIn27009:1" depart="57673.00" departLane="-447569998#1_1" departPos="5.10" departSpeed="0.00" departDelay="0.50" arrival="57792.00" arrivalLane="-26677539_1" arrivalPos="152.75" arrivalSpeed="7.75" duration="119.00" routeLength="699.63" waitingTime="23.00" waitingCount="1" stopTime="0.00" timeLoss="38.25" rerouteNo="1" devices="tripinfo_carIn27009:1 routing_carIn27009:1 emissions_carIn27009:1" vType="default_015" speedFactor="1.03" vaporized="">
        <emissions CO_abs="7276.975765" CO2_abs="248258.437264" HC_abs="38.863459" PMx_abs="4.465558" NOx_abs="103.332776" fuel_abs="106.718384" electricity_abs="0"/>
    </tripinfo>
    <tripinfo id="h3326c1:2" depart="57656.00" departLane="22716069#0_1" departPos="5.10" departSpeed="0.00" departDelay="0.00" arrival="57796.00" arrivalLane="24634517#13_1" arrivalPos="111.62" arrivalSpeed="11.21" duration="140.00" routeLength="1312.81" waitingTime="9.00" waitingCount="1" stopTime="0.00" timeLoss="29.39" rerouteNo="1" devices="tripinfo_h3326c1:2 routing_h3326c1:2 emissions_h3326c1:2" vType="default_016" speedFactor="0.88" vaporized="">
        <emissions CO_abs="5184.039274" CO2_abs="315871.975809" HC_abs="30.945672" PMx_abs="5.184796" NOx_abs="126.698719" fuel_abs="135.780724" electricity_abs="0"/>
    </tripinfo>
    <tripinfo id="h3154c1:1" depart="57658.00" departLane="24634507_1" departPos="5.10" departSpeed="0.00" departDelay="0.00" arrival="57798.00" arrivalLane="-266565295#5_1" arrivalPos="172.76" arrivalSpeed="12.04" duration="140.00" routeLength="1206.22" waitingTime="26.00" waitingCount="1" stopTime="0.00" timeLoss="41.81" rerouteNo="1" devices="tripinfo_h3154c1:1 routing_h3154c1:1 emissions_h3154c1:1" vType="default_016" speedFactor="0.91" vaporized="">
        <emissions CO_abs="7079.287688" CO2_abs="322190.582132" HC_abs="39.732313" PMx_abs="5.600748" NOx_abs="130.961696" fuel_abs="138.497926" electricity_abs="0"/>
    </tripinfo>
    <tripinfo id="carIn86816:1" depart="57617.00" departLane="128361102#0_1" departPos="5.10" departSpeed="0.00" departDelay="0.80" arrival="57802.00" arrivalLane="201956811#0_1" arrivalPos="40.40" arrivalSpeed="14.28" duration="185.00" routeLength="2067.33" waitingTime="11.00" waitingCount="2" stopTime="0.00" timeLoss="38.30" rerouteNo="1" devices="tripinfo_carIn86816:1 routing_carIn86816:1 emissions_carIn86816:1" vType="default_016" speedFactor="1.03" vaporized="">
        <emissions CO_abs="6484.481024" CO2_abs="472040.307899" HC_abs="40.434372" PMx_abs="7.800371" NOx_abs="187.390799" fuel_abs="202.910291" electricity_abs="0"/>
    </tripinfo>
    <tripinfo id="h7181c1:1" depart="57660.00" departLane="315358254#0_1" departPos="5.10" departSpeed="0.00" departDelay="0.10" arrival="57803.00" arrivalLane="306240162#0_0" arrivalPos="220.43" arrivalSpeed="13.36" duration="143.00" routeLength="932.35" waitingTime="64.00" waitingCount="2" stopTime="0.00" timeLoss="83.42" rerouteNo="1" devices="tripinfo_h7181c1:1 routing_h7181c1:1 emissions_h7181c1:1" vType="default_016" speedFactor="0.87" vaporized="">
        <emissions CO_abs="12783.012249" CO2_abs="415645.316104" HC_abs="67.943501" PMx_abs="8.444289" NOx_abs="175.721091" fuel_abs="178.672053" electricity_abs="0"/>
    </tripinfo>
    <tripinfo id="carIn129809:1" depart="57729.00" departLane="-447569998#1_1" departPos="5.10" departSpeed="0.00" departDelay="1.00" arrival="57803.00" arrivalLane="-315358244_1" arrivalPos="33.95" arrivalSpeed="13.40" duration="74.00" routeLength="706.49" waitingTime="2.00" waitingCount="1" stopTime="0.00" timeLoss="16.35" rerouteNo="1" devices="tripinfo_carIn129809:1 routing_carIn129809:1 emissions_carIn129809:1" vType="default_015" speedFactor="1.05" vaporized="">
        <emissions CO_abs="3251.367875" CO2_abs="190138.570257" HC_abs="19.251372" PMx_abs="3.330475" NOx_abs="77.674921" fuel_abs="81.732748" electricity_abs="0"/>
    </tripinfo>
    <tripinfo id="carIn121703:1" depart="57647.00" departLane="386687232#0_1" departPos="5.10" departSpeed="0.00" departDelay="0.30" arrival="57804.00" arrivalLane="-315358244_2" arrivalPos="33.95" arrivalSpeed="14.37" duration="157.00" routeLength="1157.39" waitingTime="64.00" waitingCount="1" stopTime="0.00" timeLoss="80.15" rerouteNo="1" devices="tripinfo_carIn121703:1 routing_carIn121703:1 emissions_carIn121703:1" vType="default_016" speedFactor="1.09" vaporized="">
        <emissions CO_abs="13132.816861" CO2_abs="434144.759184" HC_abs="69.946028" PMx_abs="8.598404" NOx_abs="182.131371" fuel_abs="186.624498" electricity_abs="0"/>
    </tripinfo>
    <tripinfo id="carIn12365:1" depart="57713.00" departLane="315358244_1" departPos="5.10" departSpeed="0.00" departDelay="0.50" arrival="57805.00" arrivalLane="447569997#1_1" arrivalPos="180.93" arrivalSpeed="8.18" duration="92.00" routeLength="718.04" waitingTime="17.00" waitingCount="1" stopTime="0.00" timeLoss="30.41" rerouteNo="1" devices="tripinfo_carIn12365:1 routing_carIn12365:1 emissions_carIn12365:1" vType="default_016" speedFactor="1.00" vaporized="">
        <emissions CO_abs="5240.274828" CO2_abs="211671.670023" HC_abs="28.800854" PMx_abs="3.881299" NOx_abs="87.794811" fuel_abs="90.990044" electricity_abs="0"/>
    </tripinfo>
    <tripinfo id="carIn118591:1" depart="57689.00" departLane="315358244_1" departPos="5.10" departSpeed="0.00" departDelay="0.20" arrival="57807.00" arrivalLane="386687235_1" arrivalPos="80.84" arrivalSpeed="16.68" duration="118.00" routeLength="1186.14" waitingTime="25.00" waitingCount="2" stopTime="0.00" timeLoss="49.75" rerouteNo="1" devices="tripinfo_carIn118591:1 routing_carIn118591:1 emissions_carIn118591:1" vType="default_016" speedFactor="1.28" vaporized="">
        <emissions CO_abs="7799.400835" CO2_abs="399810.475345" HC_abs="44.957120" PMx_abs="7.923725" NOx_abs="167.182690" fuel_abs="171.861692" electricity_abs="0"/>
    </tripinfo>
    <tripinfo id="carIn107282:1" depart="57749.00" departLane="-447569998#1_1" departPos="5.10" departSpeed="0.00" departDelay="0.00" arrival="57807.00" arrivalLane="315358242#0_1" arrivalPos="165.37" arrivalSpeed="12.70" duration="58.00" routeLength="448.50" waitingTime="5.00" waitingCount="1" stopTime="0.00" timeLoss="13.65" rerouteNo="1" devices="tripinfo_carIn107282:1 routing_carIn107282:1 emissions_carIn107282:1" vType="default_016" speedFactor="0.94" vaporized="">
        <emissions CO_abs="2380.104824" CO2_abs="127743.532007" HC_abs="13.786351" PMx_abs="2.054623" NOx_abs="51.172205" fuel_abs="54.912119" electricity_abs="0"/>
    </tripinfo>
    <tripinfo id="carIn81860:1" depart="57712.00" departLane="128361102#0_1" departPos="5.10" departSpeed="0.00" departDelay="0.60" arrival="57812.00" arrivalLane="-24634517#17_1" arrivalPos="6.43" arrivalSpeed="7.97" duration="100.00" routeLength="1229.64" waitingTime="0.00" waitingCount="0" stopTime="0.00" timeLoss="18.57" rerouteNo="1" devices="tripinfo_carIn81860:1 routing_carIn81860:1 emissions_carIn81860:1" vType="default_016" speedFactor="1.11" vaporized="">
        <emissions CO_abs="3816.320034" CO2_abs="290759.683183" HC_abs="24.111574" PMx_abs="4.948090" NOx_abs="116.006966" fuel_abs="124.985029" electricity_abs="0"/>
    </tripinfo>
    <tripinfo id="carIn102915:1" depart="57643.00" departLane="128361102#0_1" departPos="5.10" departSpeed="0.00" departDelay="0.40" arrival="57814.00" arrivalLane="201956811#0_1" arrivalPos="40.40" arrivalSpeed="12.57" duration="171.00" routeLength="2067.33" waitingTime="0.00" waitingCount="0" stopTime="0.00" timeLoss="18.06" rerouteNo="1" devices="tripinfo_carIn102915:1 routing_carIn102915:1 emissions_carIn102915:1" vType="default_016" speedFactor="0.99" vaporized="">
        <emissions CO_abs="4877.462669" CO2_abs="414715.586573" HC_abs="31.853516" PMx_abs="6.589602" NOx_abs="162.950721" fuel_abs="178.268519" electricity_abs="0"/>
    </tripinfo>
    <tripinfo id="carIn126288:1" depart="57674.00" departLane="272042143_1" departPos="5.10" departSpeed="0.00" departDelay="0.00" arrival="57815.00" arrivalLane="-315358254#1_1" arrivalPos="137.16" arrivalSpeed="14.31" duration="141.00" routeLength="1596.88" waitingTime="14.00" waitingCount="1" stopTime="0.00" timeLoss="32.88" rerouteNo="1" devices="tripinfo_carIn126288:1 routing_carIn126288:1 emissions_carIn126288:1" vType="default_016" speedFactor="1.08" vaporized="">
        <emissions CO_abs="6077.557797" CO2_abs="388224.667880" HC_abs="36.689666" PMx_abs="6.778933" NOx_abs="156.160228" fuel_abs="166.881582" electricity_abs="0"/>
    </tripinfo>
    <tripinfo id="h3864c1:3" depart="57678.00" departLane="24693977#1_1" departPos="5.10" departSpeed="0.00" departDelay="0.00" arrival="57823.00" arrivalLane="201956820_2" arrivalPos="48.33" arrivalSpeed="14.77" duration="145.00" routeLength="1574.85" waitingTime="3.00" waitingCount="1" stopTime="0.00" timeLoss="26.53" rerouteNo="1" devices="tripinfo_h3864c1:3 routing_h3864c1:3 emissions_h3864c1:3" vType="default_016" speedFactor="1.10" vaporized="">
        <emissions CO_abs="5874.067664" CO2_abs="396495.214255" HC_abs="35.895424" PMx_abs="7.007729" NOx_abs="161.470607" fuel_abs="170.436169" electricity_abs="0"/>
    </tripinfo>
    <tripinfo id="carIn77943:1" depart="57608.00" departLane="124812856#0_1" departPos="5.10" departSpeed="0.00" departDelay="2.50" arrival="57824.00" arrivalLane="-128361102#1_1" arrivalPos="274.68" arrivalSpeed="14.23" duration="216.00" routeLength="2250.49" waitingTime="28.00" waitingCount="1" stopTime="0.00" timeLoss="63.89" rerouteNo="1" devices="tripinfo_carIn77943:1 routing_carIn77943:1 emissions_carIn77943:1" vType="default_016" speedFactor="1.08" vaporized="">
        <emissions CO_abs="10036.280923" CO2_abs="576920.067408" HC_abs="59.229231" PMx_abs="10.155686" NOx_abs="233.655426" fuel_abs="247.994514" electricity_abs="0"/>
    </tripinfo>
    <tripinfo id="carIn81046:1" depart="57611.00" departLane="124812856#0_1" departPos="5.10" departSpeed="0.00" departDelay="2.50" arrival="57826.00" arrivalLane="-128361102#1_1" arrivalPos="274.68" arrivalSpeed="14.77" duration="215.00" routeLength="2250.49" waitingTime="28.00" waitingCount="1" stopTime="0.00" timeLoss="63.27" rerouteNo="1" devices="tripinfo_carIn81046:1 routing_carIn81046:1 emissions_carIn81046:1" vType="default_016" speedFactor="1.08" vaporized="">
        <emissions CO_abs="10159.370805" CO2_abs="564091.419552" HC_abs="59.429956" PMx_abs="10.000172" NOx_abs="228.896408" fuel_abs="242.480178" electricity_abs="0"/>
    </tripinfo>
    <tripinfo id="h19804c1:3" depart="57617.00" departLane="124812856#0_1" departPos="5.10" departSpeed="0.00" departDelay="1.50" arrival="57828.00" arrivalLane="-128361102#1_1" arrivalPos="274.68" arrivalSpeed="14.25" duration="211.00" routeLength="2250.49" waitingTime="35.00" waitingCount="2" stopTime="0.00" timeLoss="62.76" rerouteNo="1" devices="tripinfo_h19804c1:3 routing_h19804c1:3 emissions_h19804c1:3" vType="default_016" speedFactor="1.11" vaporized="">
        <emissions CO_abs="11047.324574" CO2_abs="599581.496825" HC_abs="64.211323" PMx_abs="10.971906" NOx_abs="244.797265" fuel_abs="257.735666" electricity_abs="0"/>
    </tripinfo>
    <tripinfo id="h5216c1:1" depart="57664.00" departLane="224892339#0_1" departPos="5.10" departSpeed="0.00" departDelay="0.00" arrival="57829.00" arrivalLane="386687235_2" arrivalPos="80.84" arrivalSpeed="13.88" duration="165.00" routeLength="1823.78" waitingTime="18.00" waitingCount="1" stopTime="0.00" timeLoss="43.09" rerouteNo="1" devices="tripinfo_h5216c1:1 routing_h5216c1:1 emissions_h5216c1:1" vType="default_016" speedFactor="1.06" vaporized="">
        <emissions CO_abs="7557.474092" CO2_abs="465430.788844" HC_abs="45.284058" PMx_abs="8.229567" NOx_abs="187.707567" fuel_abs="200.069374" electricity_abs="0"/>
    </tripinfo>
    <tripinfo id="h16072c2:3" depart="57663.00" departLane="315358254#0_1" departPos="5.10" departSpeed="0.00" departDelay="2.50" arrival="57831.00" arrivalLane="386687235_1" arrivalPos="80.84" arrivalSpeed="13.01" duration="168.00" routeLength="1611.92" waitingTime="24.00" waitingCount="1" stopTime="0.00" timeLoss="42.41" rerouteNo="1" devices="tripinfo_h16072c2:3 routing_h16072c2:3 emissions_h16072c2:3" vType="default_016" speedFactor="0.94" vaporized="">
        <emissions CO_abs="7559.393262" CO2_abs="392213.584038" HC_abs="43.533179" PMx_abs="6.540377" NOx_abs="156.865268" fuel_abs="168.597846" electricity_abs="0"/>
    </tripinfo>
    <tripinfo id="h9953c2:3" depart="57682.00" departLane="-54169231#2_1" departPos="5.10" departSpeed="0.00" departDelay="0.00" arrival="57833.00" arrivalLane="386687235_1" arrivalPos="80.84" arrivalSpeed="12.90" duration="151.00" routeLength="1535.60" waitingTime="3.00" waitingCount="1" stopTime="0.00" timeLoss="25.74" rerouteNo="1" devices="tripinfo_h9953c2:3 routing_h9953c2:3 emissions_h9953c2:3" vType="default_016" speedFactor="1.00" vaporized="">
        <emissions CO_abs="5572.152453" CO2_abs="374668.964664" HC_abs="34.099682" PMx_abs="6.182208" NOx_abs="150.032899" fuel_abs="161.054699" electricity_abs="0"/>
    </tripinfo>
    <tripinfo id="carIn50326:1" depart="57651.00" departLane="128361102#0_1" departPos="5.10" departSpeed="0.00" departDelay="0.30" arrival="57834.00" arrivalLane="18809673#0_1" arrivalPos="473.56" arrivalSpeed="12.95" duration="183.00" routeLength="1591.07" waitingTime="28.00" waitingCount="1" stopTime="0.00" timeLoss="47.39" rerouteNo="1" devices="tripinfo_carIn50326:1 routing_carIn50326:1 emissions_carIn50326:1" vType="default_016" speedFactor="0.96" vaporized="">
        <emissions CO_abs="8745.281737" CO2_abs="410689.551481" HC_abs="49.342879" PMx_abs="6.918391" NOx_abs="165.357998" fuel_abs="176.540504" electricity_abs="0"/>
    </tripinfo>
    <tripinfo id="randUni33724:1" depart="57646.00" departLane="128361102#0_1" departPos="5.10" departSpeed="0.00" departDelay="1.20" arrival="57841.00" arrivalLane="201956811#0_1" arrivalPos="40.40" arrivalSpeed="13.57" duration="195.00" routeLength="2067.33" waitingTime="14.00" waitingCount="3" stopTime="0.00" timeLoss="51.90" rerouteNo="1" devices="tripinfo_randUni33724:1 routing_randUni33724:1 emissions_randUni33724:1" vType="random_016" speedFactor="1.06" vaporized="">
        <emissions CO_abs="7107.952817" CO2_abs="493422.601833" HC_abs="43.965405" PMx_abs="8.643724" NOx_abs="200.150705" fuel_abs="212.101084" electricity_abs="0"/>
    </tripinfo>
    <tripinfo id="randUni31145:1" depart="57814.00" departLane="10425609#0_1" departPos="5.10" departSpeed="0.00" departDelay="0.30" arrival="57841.00" arrivalLane="201956810_1" arrivalPos="71.65" arrivalSpeed="13.45" duration="27.00" routeLength="255.78" waitingTime="0.00" waitingCount="0" stopTime="0.00" timeLoss="6.94" rerouteNo="1" devices="tripinfo_randUni31145:1 routing_randUni31145:1 emissions_randUni31145:1" vType="random_016" speedFactor="1.00" vaporized="">
        <emissions CO_abs="1630.518865" CO2_abs="91983.117749" HC_abs="9.591412" PMx_abs="1.691401" NOx_abs="38.198553" fuel_abs="39.539674" electricity_abs="0"/>
    </tripinfo>
    <tripinfo id="randUni15030:1" depart="57735.00" departLane="386687232#0_1" departPos="5.10" departSpeed="0.00" departDelay="0.10" arrival="57842.00" arrivalLane="26677539_1" arrivalPos="151.98" arrivalSpeed="7.04" duration="107.00" routeLength="919.89" waitingTime="5.00" waitingCount="1" stopTime="0.00" timeLoss="20.62" rerouteNo="1" devices="tripinfo_randUni15030:1 routing_randUni15030:1 emissions_randUni15030:1" vType="random_016" speedFactor="0.96" vaporized="">
        <emissions CO_abs="4181.419304" CO2_abs="224788.822851" HC_abs="24.236224" PMx_abs="3.647117" NOx_abs="90.165184" fuel_abs="96.628178" electricity_abs="0"/>
    </tripinfo>
    <tripinfo id="50R_frequency3.17" depart="57674.00" departLane="-18809673#6_1" departPos="12.10" departSpeed="0.00" departDelay="0.70" arrival="57846.00" arrivalLane="201956811#0_1" arrivalPos="40.40" arrivalSpeed="12.96" duration="172.00" routeLength="1954.47" waitingTime="2.00" waitingCount="1" stopTime="0.00" timeLoss="26.74" rerouteNo="1" devices="tripinfo_50R_frequency3.17 routing_50R_frequency3.17 emissions_50R_frequency3.17" vType="bus" speedFactor="1.00" vaporized="">
        <emissions CO_abs="3317.450617" CO2_abs="2085923.050244" HC_abs="703.993345" PMx_abs="356.119643" NOx_abs="16159.212503" fuel_abs="889.630720" electricity_abs="0"/>
    </tripinfo>
    <tripinfo id="randUni2407:1" depart="57820.00" departLane="10425609#0_1" departPos="5.10" departSpeed="0.00" departDelay="0.80" arrival="57849.00" arrivalLane="201956810_1" arrivalPos="71.65" arrivalSpeed="12.00" duration="29.00" routeLength="255.78" waitingTime="0.00" waitingCount="0" stopTime="0.00" timeLoss="6.13" rerouteNo="1" devices="tripinfo_randUni2407:1 routing_randUni2407:1 emissions_randUni2407:1" vType="random_016" speedFactor="0.88" vaporized="">
        <emissions CO_abs="1731.051008" CO2_abs="89016.837259" HC_abs="9.975183" PMx_abs="1.654212" NOx_abs="37.263522" fuel_abs="38.264680" electricity_abs="0"/>
    </tripinfo>