<?xml version="1.0" encoding="UTF-8"?>

<!-- generated on 2021-10-26 18:02:22 by Eclipse SUMO sumo Version 1.10.0
<configuration xmlns:xsi="http://www.w3.org/2001/XMLSchema-instance" xsi:noNamespaceSchemaLocation="http://sumo.dlr.de/xsd/sumoConfiguration.xsd">

    <input>
        <net-file value="/Users/behradkoohy/sumo-scratchpad/RESCO/environments/ingolstadt21/ingolstadt21.net.xml"/>
        <route-files value="/Users/behradkoohy/sumo-scratchpad/RESCO/environments/ingolstadt21/ingolstadt21.rou.xml"/>
    </input>

    <output>
        <tripinfo-output value="/Users/behradkoohy/sumo-scratchpad/RESCO/logs/IPPO-tr0-ingolstadt21-21-drq_norm-wait_norm/tripinfo_38.xml"/>
        <tripinfo-output.write-unfinished value="true"/>
    </output>

    <time>
        <begin value="57600"/>
        <end value="61200"/>
    </time>

    <processing>
        <time-to-teleport value="-1"/>
    </processing>

    <report>
        <no-warnings value="true"/>
        <no-step-log value="true"/>
    </report>

    <emissions>
        <device.emissions.probability value="1"/>
    </emissions>

    <traci_server>
        <remote-port value="61962"/>
    </traci_server>

    <random_number>
        <random value="true"/>
    </random_number>

</configuration>
-->

<tripinfos xmlns:xsi="http://www.w3.org/2001/XMLSchema-instance" xsi:noNamespaceSchemaLocation="http://sumo.dlr.de/xsd/tripinfo_file.xsd">
    <tripinfo id="h15454c2:3" depart="57612.00" departLane="24608844_1" departPos="5.10" departSpeed="0.00" departDelay="0.50" arrival="57652.00" arrivalLane="32978638#0_1" arrivalPos="49.29" arrivalSpeed="13.41" duration="40.00" routeLength="354.79" waitingTime="0.00" waitingCount="0" stopTime="0.00" timeLoss="4.30" rerouteNo="1" devices="tripinfo_h15454c2:3 routing_h15454c2:3 emissions_h15454c2:3" vType="default_016" speedFactor="0.97" vaporized="">
        <emissions CO_abs="1698.616187" CO2_abs="99197.335925" HC_abs="10.044511" PMx_abs="1.675269" NOx_abs="40.236322" fuel_abs="42.640939" electricity_abs="0"/>
    </tripinfo>
    <tripinfo id="carIn60260:1" depart="57606.00" departLane="315358254#0_1" departPos="5.10" departSpeed="0.00" departDelay="0.90" arrival="57665.00" arrivalLane="399835085#1_1" arrivalPos="212.23" arrivalSpeed="6.61" duration="59.00" routeLength="430.98" waitingTime="2.00" waitingCount="1" stopTime="0.00" timeLoss="9.74" rerouteNo="1" devices="tripinfo_carIn60260:1 routing_carIn60260:1 emissions_carIn60260:1" vType="default_016" speedFactor="0.93" vaporized="">
        <emissions CO_abs="2605.977418" CO2_abs="123038.616864" HC_abs="14.724721" PMx_abs="2.156574" NOx_abs="50.847021" fuel_abs="52.889607" electricity_abs="0"/>
    </tripinfo>
    <tripinfo id="carIn53971:1" depart="57640.00" departLane="272042143_1" departPos="5.10" departSpeed="0.00" departDelay="0.80" arrival="57697.00" arrivalLane="24634414#1_1" arrivalPos="162.19" arrivalSpeed="6.76" duration="57.00" routeLength="493.04" waitingTime="0.00" waitingCount="0" stopTime="0.00" timeLoss="7.94" rerouteNo="1" devices="tripinfo_carIn53971:1 routing_carIn53971:1 emissions_carIn53971:1" vType="default_016" speedFactor="0.94" vaporized="">
        <emissions CO_abs="2438.603493" CO2_abs="132405.703948" HC_abs="14.185258" PMx_abs="2.268426" NOx_abs="54.117344" fuel_abs="56.915955" electricity_abs="0"/>
    </tripinfo>
    <tripinfo id="h7800c1:5" depart="57696.00" departLane="-447569998#1_1" departPos="5.10" departSpeed="0.00" departDelay="0.00" arrival="57719.00" arrivalLane="-447569998#1_1" arrivalPos="180.76" arrivalSpeed="8.61" duration="23.00" routeLength="175.66" waitingTime="0.00" waitingCount="0" stopTime="0.00" timeLoss="3.11" rerouteNo="1" devices="tripinfo_h7800c1:5 routing_h7800c1:5 emissions_h7800c1:5" vType="default_016" speedFactor="1.10" vaporized="">
        <emissions CO_abs="982.774097" CO2_abs="46081.720232" HC_abs="5.540051" PMx_abs="0.781217" NOx_abs="18.889382" fuel_abs="19.808818" electricity_abs="0"/>
    </tripinfo>
    <tripinfo id="h3688c1:1" depart="57625.00" departLane="201201950#1_1" departPos="5.10" departSpeed="0.00" departDelay="0.00" arrival="57730.00" arrivalLane="32978638#0_1" arrivalPos="49.29" arrivalSpeed="14.14" duration="105.00" routeLength="1089.75" waitingTime="16.00" waitingCount="1" stopTime="0.00" timeLoss="29.18" rerouteNo="1" devices="tripinfo_h3688c1:1 routing_h3688c1:1 emissions_h3688c1:1" vType="default_016" speedFactor="1.06" vaporized="">
        <emissions CO_abs="5064.757380" CO2_abs="293447.899915" HC_abs="29.825701" PMx_abs="5.279680" NOx_abs="119.473345" fuel_abs="126.141114" electricity_abs="0"/>
    </tripinfo>
    <tripinfo id="h4538c1:1" depart="57701.00" departLane="-10427692#1_1" departPos="5.10" departSpeed="0.00" departDelay="0.00" arrival="57739.00" arrivalLane="-128361102#1_1" arrivalPos="274.68" arrivalSpeed="12.78" duration="38.00" routeLength="440.74" waitingTime="0.00" waitingCount="0" stopTime="0.00" timeLoss="6.08" rerouteNo="1" devices="tripinfo_h4538c1:1 routing_h4538c1:1 emissions_h4538c1:1" vType="default_016" speedFactor="0.99" vaporized="">
        <emissions CO_abs="1508.375963" CO2_abs="108147.036881" HC_abs="9.401378" PMx_abs="1.817101" NOx_abs="43.354093" fuel_abs="46.487822" electricity_abs="0"/>
    </tripinfo>
    <tripinfo id="h7181c1:1" depart="57660.00" departLane="315358254#0_1" departPos="5.10" departSpeed="0.00" departDelay="0.10" arrival="57742.00" arrivalLane="306240162#0_0" arrivalPos="220.43" arrivalSpeed="14.73" duration="82.00" routeLength="932.35" waitingTime="16.00" waitingCount="1" stopTime="0.00" timeLoss="27.54" rerouteNo="1" devices="tripinfo_h7181c1:1 routing_h7181c1:1 emissions_h7181c1:1" vType="default_016" speedFactor="0.95" vaporized="">
        <emissions CO_abs="5176.251451" CO2_abs="272642.644948" HC_abs="29.896086" PMx_abs="5.205728" NOx_abs="111.350845" fuel_abs="117.197900" electricity_abs="0"/>
    </tripinfo>
    <tripinfo id="h12244c1:3" depart="57612.00" departLane="315358244_1" departPos="5.10" departSpeed="0.00" departDelay="0.40" arrival="57753.00" arrivalLane="386687235_1" arrivalPos="80.84" arrivalSpeed="14.59" duration="141.00" routeLength="1186.14" waitingTime="41.00" waitingCount="3" stopTime="0.00" timeLoss="60.64" rerouteNo="1" devices="tripinfo_h12244c1:3 routing_h12244c1:3 emissions_h12244c1:3" vType="default_016" speedFactor="1.08" vaporized="">
        <emissions CO_abs="8666.076180" CO2_abs="356680.958343" HC_abs="47.763043" PMx_abs="6.869277" NOx_abs="148.616084" fuel_abs="153.323812" electricity_abs="0"/>
    </tripinfo>
    <tripinfo id="h5979c1:5" depart="57669.00" departLane="399835085#1_1" departPos="5.10" departSpeed="0.00" departDelay="0.00" arrival="57753.00" arrivalLane="-315358254#1_1" arrivalPos="137.16" arrivalSpeed="13.56" duration="84.00" routeLength="659.33" waitingTime="0.00" waitingCount="0" stopTime="0.00" timeLoss="11.98" rerouteNo="1" devices="tripinfo_h5979c1:5 routing_h5979c1:5 emissions_h5979c1:5" vType="default_016" speedFactor="1.02" vaporized="">
        <emissions CO_abs="3703.170940" CO2_abs="189132.985260" HC_abs="21.217220" PMx_abs="3.052533" NOx_abs="76.310793" fuel_abs="81.301213" electricity_abs="0"/>
    </tripinfo>
    <tripinfo id="carIn22761:1" depart="57616.00" departLane="-306240162#1_0" departPos="5.10" departSpeed="0.00" departDelay="2.10" arrival="57754.00" arrivalLane="399835085#1_1" arrivalPos="212.23" arrivalSpeed="8.07" duration="138.00" routeLength="1093.26" waitingTime="38.00" waitingCount="2" stopTime="0.00" timeLoss="59.22" rerouteNo="1" devices="tripinfo_carIn22761:1 routing_carIn22761:1 emissions_carIn22761:1" vType="default_016" speedFactor="0.99" vaporized="">
        <emissions CO_abs="10946.481341" CO2_abs="409393.237595" HC_abs="59.572202" PMx_abs="8.461506" NOx_abs="174.978382" fuel_abs="175.982779" electricity_abs="0"/>
    </tripinfo>
    <tripinfo id="h3568c1:3" depart="57656.00" departLane="266565295#5_1" departPos="5.10" departSpeed="0.00" departDelay="0.80" arrival="57754.00" arrivalLane="-24634415_1" arrivalPos="62.03" arrivalSpeed="13.69" duration="98.00" routeLength="807.40" waitingTime="18.00" waitingCount="1" stopTime="0.00" timeLoss="34.27" rerouteNo="1" devices="tripinfo_h3568c1:3 routing_h3568c1:3 emissions_h3568c1:3" vType="default_016" speedFactor="1.00" vaporized="">
        <emissions CO_abs="6277.677499" CO2_abs="280374.875915" HC_abs="35.176963" PMx_abs="5.265662" NOx_abs="116.777998" fuel_abs="120.522358" electricity_abs="0"/>
    </tripinfo>
    <tripinfo id="S5R_frequency1.2" depart="57615.00" departLane="315358250#0_1" departPos="12.10" departSpeed="0.00" departDelay="3.40" arrival="57759.00" arrivalLane="386687235_1" arrivalPos="80.84" arrivalSpeed="13.56" duration="144.00" routeLength="1115.62" waitingTime="29.00" waitingCount="3" stopTime="0.00" timeLoss="62.31" rerouteNo="1" devices="tripinfo_S5R_frequency1.2 routing_S5R_frequency1.2 emissions_S5R_frequency1.2" vType="bus" speedFactor="1.00" vaporized="">
        <emissions CO_abs="2911.027182" CO2_abs="1632992.484410" HC_abs="617.728501" PMx_abs="307.267881" NOx_abs="13197.758956" fuel_abs="696.381291" electricity_abs="0"/>
    </tripinfo>
    <tripinfo id="h9563c2:5" depart="57631.00" departLane="315358244_1" departPos="5.10" departSpeed="0.00" departDelay="0.70" arrival="57761.00" arrivalLane="386687235_1" arrivalPos="80.84" arrivalSpeed="13.68" duration="130.00" routeLength="1186.14" waitingTime="19.00" waitingCount="3" stopTime="0.00" timeLoss="47.54" rerouteNo="1" devices="tripinfo_h9563c2:5 routing_h9563c2:5 emissions_h9563c2:5" vType="default_016" speedFactor="1.05" vaporized="">
        <emissions CO_abs="5924.890281" CO2_abs="307701.495117" HC_abs="34.126758" PMx_abs="5.490886" NOx_abs="125.364704" fuel_abs="132.268717" electricity_abs="0"/>
    </tripinfo>
    <tripinfo id="carIn30817:1" depart="57681.00" departLane="315358244_1" departPos="5.10" departSpeed="0.00" departDelay="0.20" arrival="57765.00" arrivalLane="447569997#1_1" arrivalPos="180.93" arrivalSpeed="7.33" duration="84.00" routeLength="718.04" waitingTime="6.00" waitingCount="1" stopTime="0.00" timeLoss="17.94" rerouteNo="1" devices="tripinfo_carIn30817:1 routing_carIn30817:1 emissions_carIn30817:1" vType="default_016" speedFactor="0.94" vaporized="">
        <emissions CO_abs="3037.937174" CO2_abs="181180.361599" HC_abs="18.017318" PMx_abs="2.868308" NOx_abs="72.003991" fuel_abs="77.882402" electricity_abs="0"/>
    </tripinfo>
    <tripinfo id="h330c1:1" depart="57736.00" departLane="-32978638#0_1" departPos="5.10" departSpeed="0.00" departDelay="0.20" arrival="57767.00" arrivalLane="-266565295#5_2" arrivalPos="172.76" arrivalSpeed="15.39" duration="31.00" routeLength="370.53" waitingTime="0.00" waitingCount="0" stopTime="0.00" timeLoss="6.77" rerouteNo="1" devices="tripinfo_h330c1:1 routing_h330c1:1 emissions_h330c1:1" vType="default_016" speedFactor="1.15" vaporized="">
        <emissions CO_abs="1866.604480" CO2_abs="124992.427317" HC_abs="11.418958" PMx_abs="2.373512" NOx_abs="51.863933" fuel_abs="53.728619" electricity_abs="0"/>
    </tripinfo>
    <tripinfo id="carIn27009:1" depart="57673.00" departLane="-447569998#1_1" departPos="5.10" departSpeed="0.00" departDelay="0.50" arrival="57769.00" arrivalLane="-26677539_1" arrivalPos="152.75" arrivalSpeed="7.94" duration="96.00" routeLength="699.63" waitingTime="0.00" waitingCount="0" stopTime="0.00" timeLoss="10.65" rerouteNo="1" devices="tripinfo_carIn27009:1 routing_carIn27009:1 emissions_carIn27009:1" vType="default_015" speedFactor="0.98" vaporized="">
        <emissions CO_abs="3903.369911" CO2_abs="185999.211982" HC_abs="22.028934" PMx_abs="2.926532" NOx_abs="74.902059" fuel_abs="79.954424" electricity_abs="0"/>
    </tripinfo>
    <tripinfo id="h645c1:1" depart="57622.00" departLane="266565295#5_1" departPos="5.10" departSpeed="0.00" departDelay="0.40" arrival="57770.00" arrivalLane="-315358244_1" arrivalPos="33.95" arrivalSpeed="16.43" duration="148.00" routeLength="1910.83" waitingTime="15.00" waitingCount="1" stopTime="0.00" timeLoss="31.28" rerouteNo="1" devices="tripinfo_h645c1:1 routing_h645c1:1 emissions_h645c1:1" vType="default_016" speedFactor="1.19" vaporized="">
        <emissions CO_abs="6315.569562" CO2_abs="399370.856779" HC_abs="38.002217" PMx_abs="7.234988" NOx_abs="160.983740" fuel_abs="171.672640" electricity_abs="0"/>
    </tripinfo>
    <tripinfo id="h317c2:1" depart="57707.00" departLane="-32978638#0_1" departPos="5.10" departSpeed="0.00" departDelay="0.10" arrival="57771.00" arrivalLane="-266565295#5_1" arrivalPos="172.76" arrivalSpeed="9.80" duration="64.00" routeLength="370.53" waitingTime="20.00" waitingCount="1" stopTime="0.00" timeLoss="28.29" rerouteNo="1" devices="tripinfo_h317c2:1 routing_h317c2:1 emissions_h317c2:1" vType="default_016" speedFactor="0.76" vaporized="">
        <emissions CO_abs="4377.396312" CO2_abs="143163.544985" HC_abs="23.272284" PMx_abs="2.773793" NOx_abs="60.608214" fuel_abs="61.541321" electricity_abs="0"/>
    </tripinfo>
    <tripinfo id="carIn121703:1" depart="57647.00" departLane="386687232#0_1" departPos="5.10" departSpeed="0.00" departDelay="0.30" arrival="57772.00" arrivalLane="-315358244_1" arrivalPos="33.95" arrivalSpeed="14.69" duration="125.00" routeLength="1157.39" waitingTime="31.00" waitingCount="2" stopTime="0.00" timeLoss="48.28" rerouteNo="1" devices="tripinfo_carIn121703:1 routing_carIn121703:1 emissions_carIn121703:1" vType="default_016" speedFactor="1.10" vaporized="">
        <emissions CO_abs="7352.366611" CO2_abs="322843.068786" HC_abs="41.052508" PMx_abs="6.062153" NOx_abs="133.118594" fuel_abs="138.778039" electricity_abs="0"/>
    </tripinfo>
    <tripinfo id="h3326c1:2" depart="57656.00" departLane="22716069#0_1" departPos="5.10" departSpeed="0.00" departDelay="0.00" arrival="57775.00" arrivalLane="24634517#13_1" arrivalPos="111.62" arrivalSpeed="12.72" duration="119.00" routeLength="1312.81" waitingTime="0.00" waitingCount="0" stopTime="0.00" timeLoss="13.92" rerouteNo="1" devices="tripinfo_h3326c1:2 routing_h3326c1:2 emissions_h3326c1:2" vType="default_016" speedFactor="0.92" vaporized="">
        <emissions CO_abs="4100.217331" CO2_abs="307897.173040" HC_abs="25.861991" PMx_abs="5.049086" NOx_abs="122.900189" fuel_abs="132.351926" electricity_abs="0"/>
    </tripinfo>
    <tripinfo id="carIn80064:1" depart="57603.00" departLane="128361109#1_1" departPos="5.10" departSpeed="0.00" departDelay="0.40" arrival="57781.00" arrivalLane="-315358254#1_1" arrivalPos="137.16" arrivalSpeed="9.88" duration="178.00" routeLength="1587.97" waitingTime="29.00" waitingCount="2" stopTime="0.00" timeLoss="55.78" rerouteNo="1" devices="tripinfo_carIn80064:1 routing_carIn80064:1 emissions_carIn80064:1" vType="default_016" speedFactor="0.73" vaporized="">
        <emissions CO_abs="9824.320036" CO2_abs="452405.563057" HC_abs="55.234189" PMx_abs="8.485563" NOx_abs="187.595848" fuel_abs="194.471529" electricity_abs="0"/>
    </tripinfo>
    <tripinfo id="carIn107084:1" depart="57601.00" departLane="124812856#0_1" departPos="5.10" departSpeed="0.00" departDelay="0.70" arrival="57793.00" arrivalLane="-128361102#1_1" arrivalPos="274.68" arrivalSpeed="15.23" duration="192.00" routeLength="2250.49" waitingTime="18.00" waitingCount="1" stopTime="0.00" timeLoss="42.02" rerouteNo="1" devices="tripinfo_carIn107084:1 routing_carIn107084:1 emissions_carIn107084:1" vType="default_016" speedFactor="1.10" vaporized="">
        <emissions CO_abs="8466.284019" CO2_abs="536725.854482" HC_abs="51.012628" PMx_abs="9.652761" NOx_abs="217.788608" fuel_abs="230.715652" electricity_abs="0"/>
    </tripinfo>
    <tripinfo id="carIn118591:1" depart="57689.00" departLane="315358244_1" departPos="5.10" departSpeed="0.00" departDelay="0.20" arrival="57793.00" arrivalLane="386687235_1" arrivalPos="80.84" arrivalSpeed="13.00" duration="104.00" routeLength="1186.14" waitingTime="2.00" waitingCount="1" stopTime="0.00" timeLoss="15.28" rerouteNo="1" devices="tripinfo_carIn118591:1 routing_carIn118591:1 emissions_carIn118591:1" vType="default_016" speedFactor="0.97" vaporized="">
        <emissions CO_abs="3520.048950" CO2_abs="262671.289377" HC_abs="22.171140" PMx_abs="4.405928" NOx_abs="105.126000" fuel_abs="112.911141" electricity_abs="0"/>
    </tripinfo>
    <tripinfo id="h3154c1:1" depart="57658.00" departLane="24634507_1" departPos="5.10" departSpeed="0.00" departDelay="0.00" arrival="57798.00" arrivalLane="-266565295#5_1" arrivalPos="172.76" arrivalSpeed="12.44" duration="140.00" routeLength="1206.22" waitingTime="23.00" waitingCount="2" stopTime="0.00" timeLoss="48.28" rerouteNo="1" devices="tripinfo_h3154c1:1 routing_h3154c1:1 emissions_h3154c1:1" vType="default_016" speedFactor="0.97" vaporized="">
        <emissions CO_abs="7773.069349" CO2_abs="373347.551587" HC_abs="44.156758" PMx_abs="6.810576" NOx_abs="153.828582" fuel_abs="160.487574" electricity_abs="0"/>
    </tripinfo>
    <tripinfo id="carIn107282:1" depart="57749.00" departLane="-447569998#1_1" departPos="5.10" departSpeed="0.00" departDelay="0.00" arrival="57799.00" arrivalLane="315358242#0_1" arrivalPos="165.37" arrivalSpeed="12.72" duration="50.00" routeLength="448.50" waitingTime="0.00" waitingCount="0" stopTime="0.00" timeLoss="4.86" rerouteNo="1" devices="tripinfo_carIn107282:1 routing_carIn107282:1 emissions_carIn107282:1" vType="default_016" speedFactor="0.93" vaporized="">
        <emissions CO_abs="1921.715429" CO2_abs="108767.651482" HC_abs="11.257530" PMx_abs="1.715566" NOx_abs="43.366929" fuel_abs="46.755065" electricity_abs="0"/>
    </tripinfo>
    <tripinfo id="carIn129809:1" depart="57729.00" departLane="-447569998#1_1" departPos="5.10" departSpeed="0.00" departDelay="1.00" arrival="57808.00" arrivalLane="-315358244_1" arrivalPos="33.95" arrivalSpeed="11.67" duration="79.00" routeLength="706.49" waitingTime="0.00" waitingCount="0" stopTime="0.00" timeLoss="7.17" rerouteNo="1" devices="tripinfo_carIn129809:1 routing_carIn129809:1 emissions_carIn129809:1" vType="default_015" speedFactor="0.84" vaporized="">
        <emissions CO_abs="2690.116721" CO2_abs="150855.661189" HC_abs="15.700236" PMx_abs="2.248442" NOx_abs="59.319790" fuel_abs="64.847315" electricity_abs="0"/>
    </tripinfo>
    <tripinfo id="carIn81860:1" depart="57712.00" departLane="128361102#0_1" departPos="5.10" departSpeed="0.00" departDelay="0.60" arrival="57810.00" arrivalLane="-24634517#17_1" arrivalPos="6.43" arrivalSpeed="7.07" duration="98.00" routeLength="1229.64" waitingTime="0.00" waitingCount="0" stopTime="0.00" timeLoss="12.72" rerouteNo="1" devices="tripinfo_carIn81860:1 routing_carIn81860:1 emissions_carIn81860:1" vType="default_016" speedFactor="1.05" vaporized="">
        <emissions CO_abs="3086.049471" CO2_abs="254567.787822" HC_abs="19.948572" PMx_abs="4.240918" NOx_abs="101.052928" fuel_abs="109.427612" electricity_abs="0"/>
    </tripinfo>
    <tripinfo id="carIn12365:1" depart="57713.00" departLane="315358244_1" departPos="5.10" departSpeed="0.00" departDelay="0.50" arrival="57811.00" arrivalLane="447569997#1_1" arrivalPos="180.93" arrivalSpeed="7.96" duration="98.00" routeLength="718.04" waitingTime="18.00" waitingCount="2" stopTime="0.00" timeLoss="37.23" rerouteNo="1" devices="tripinfo_carIn12365:1 routing_carIn12365:1 emissions_carIn12365:1" vType="default_016" speedFactor="1.02" vaporized="">
        <emissions CO_abs="5653.067205" CO2_abs="237565.250172" HC_abs="31.284579" PMx_abs="4.385283" NOx_abs="98.633921" fuel_abs="102.120530" electricity_abs="0"/>
    </tripinfo>
    <tripinfo id="h3864c1:3" depart="57678.00" departLane="24693977#1_1" departPos="5.10" departSpeed="0.00" departDelay="0.00" arrival="57819.00" arrivalLane="201956820_2" arrivalPos="48.33" arrivalSpeed="13.49" duration="141.00" routeLength="1574.85" waitingTime="0.00" waitingCount="0" stopTime="0.00" timeLoss="19.34" rerouteNo="1" devices="tripinfo_h3864c1:3 routing_h3864c1:3 emissions_h3864c1:3" vType="default_016" speedFactor="1.05" vaporized="">
        <emissions CO_abs="5484.704349" CO2_abs="379756.556193" HC_abs="33.846586" PMx_abs="6.486381" NOx_abs="153.241221" fuel_abs="163.241190" electricity_abs="0"/>
    </tripinfo>
    <tripinfo id="h11737c1:1" depart="57665.00" departLane="272042143_1" departPos="5.10" departSpeed="0.00" departDelay="1.50" arrival="57825.00" arrivalLane="-315358254#1_1" arrivalPos="137.16" arrivalSpeed="11.76" duration="160.00" routeLength="1596.88" waitingTime="7.00" waitingCount="1" stopTime="0.00" timeLoss="22.80" rerouteNo="1" devices="tripinfo_h11737c1:1 routing_h11737c1:1 emissions_h11737c1:1" vType="default_016" speedFactor="0.85" vaporized="">
        <emissions CO_abs="4687.423573" CO2_abs="332523.874208" HC_abs="29.021651" PMx_abs="5.056733" NOx_abs="130.502716" fuel_abs="142.938692" electricity_abs="0"/>
    </tripinfo>
    <tripinfo id="carIn50326:1" depart="57651.00" departLane="128361102#0_1" departPos="5.10" departSpeed="0.00" departDelay="0.30" arrival="57827.00" arrivalLane="18809673#0_1" arrivalPos="473.56" arrivalSpeed="15.03" duration="176.00" routeLength="1591.07" waitingTime="31.00" waitingCount="2" stopTime="0.00" timeLoss="63.32" rerouteNo="1" devices="tripinfo_carIn50326:1 routing_carIn50326:1 emissions_carIn50326:1" vType="default_016" speedFactor="1.15" vaporized="">
        <emissions CO_abs="9534.569382" CO2_abs="457734.305006" HC_abs="53.944690" PMx_abs="8.279405" NOx_abs="187.040112" fuel_abs="196.762339" electricity_abs="0"/>
    </tripinfo>
    <tripinfo id="carIn28951:1" depart="57606.00" departLane="10425609#0_1" departPos="5.10" departSpeed="0.00" departDelay="0.20" arrival="57847.00" arrivalLane="-128361102#1_1" arrivalPos="274.68" arrivalSpeed="13.20" duration="241.00" routeLength="2113.04" waitingTime="47.00" waitingCount="3" stopTime="0.00" timeLoss="78.48" rerouteNo="1" devices="tripinfo_carIn28951:1 routing_carIn28951:1 emissions_carIn28951:1" vType="default_016" speedFactor="0.95" vaporized="">
        <emissions CO_abs="12181.311956" CO2_abs="568904.416921" HC_abs="68.778791" PMx_abs="10.216320" NOx_abs="233.104518" fuel_abs="244.550417" electricity_abs="0"/>
    </tripinfo>
    <tripinfo id="carIn77943:1" depart="57608.00" departLane="124812856#0_1" departPos="5.10" departSpeed="0.00" departDelay="2.50" arrival="57849.00" arrivalLane="-128361102#1_1" arrivalPos="274.68" arrivalSpeed="12.58" duration="241.00" routeLength="2250.49" waitingTime="35.00" waitingCount="3" stopTime="0.00" timeLoss="74.75" rerouteNo="1" devices="tripinfo_carIn77943:1 routing_carIn77943:1 emissions_carIn77943:1" vType="default_016" speedFactor="0.99" vaporized="">
        <emissions CO_abs="11513.581809" CO2_abs="602295.703518" HC_abs="66.522655" PMx_abs="10.911666" NOx_abs="247.347837" fuel_abs="258.902729" electricity_abs="0"/>
    </tripinfo>
    <tripinfo id="carIn81046:1" depart="57611.00" departLane="124812856#0_1" departPos="5.10" departSpeed="0.00" departDelay="2.50" arrival="57851.00" arrivalLane="-128361102#1_1" arrivalPos="274.68" arrivalSpeed="14.61" duration="240.00" routeLength="2250.49" waitingTime="31.00" waitingCount="3" stopTime="0.00" timeLoss="92.17" rerouteNo="1" devices="tripinfo_carIn81046:1 routing_carIn81046:1 emissions_carIn81046:1" vType="default_016" speedFactor="1.11" vaporized="">
        <emissions CO_abs="11947.733009" CO2_abs="660204.162822" HC_abs="70.012588" PMx_abs="12.426852" NOx_abs="274.475185" fuel_abs="283.793937" electricity_abs="0"/>
    </tripinfo>
    <tripinfo id="h17600c1:1" depart="57662.00" departLane="272042143_1" departPos="5.10" departSpeed="0.00" departDelay="0.30" arrival="57851.00" arrivalLane="201238729#3_1" arrivalPos="431.02" arrivalSpeed="13.36" duration="189.00" routeLength="2100.26" waitingTime="20.00" waitingCount="2" stopTime="0.00" timeLoss="43.48" rerouteNo="1" devices="tripinfo_h17600c1:1 routing_h17600c1:1 emissions_h17600c1:1" vType="default_016" speedFactor="1.04" vaporized="">
        <emissions CO_abs="7220.612411" CO2_abs="470729.001986" HC_abs="43.763494" PMx_abs="7.939830" NOx_abs="187.433388" fuel_abs="202.347064" electricity_abs="0"/>
    </tripinfo>
    <tripinfo id="h19804c1:3" depart="57617.00" departLane="124812856#0_1" departPos="5.10" departSpeed="0.00" departDelay="1.50" arrival="57855.00" arrivalLane="-128361102#1_1" arrivalPos="274.68" arrivalSpeed="12.79" duration="238.00" routeLength="2250.49" waitingTime="27.00" waitingCount="3" stopTime="0.00" timeLoss="61.29" rerouteNo="1" devices="tripinfo_h19804c1:3 routing_h19804c1:3 emissions_h19804c1:3" vType="default_016" speedFactor="0.93" vaporized="">
        <emissions CO_abs="9473.469092" CO2_abs="548834.637588" HC_abs="55.929093" PMx_abs="9.217999" NOx_abs="220.709521" fuel_abs="235.922211" electricity_abs="0"/>
    </tripinfo>
    <tripinfo id="randUni31145:1" depart="57814.00" departLane="10425609#0_1" departPos="5.10" departSpeed="0.00" departDelay="0.30" arrival="57856.00" arrivalLane="201956810_1" arrivalPos="71.65" arrivalSpeed="12.03" duration="42.00" routeLength="255.78" waitingTime="9.00" waitingCount="1" stopTime="0.00" timeLoss="19.80" rerouteNo="1" devices="tripinfo_randUni31145:1 routing_randUni31145:1 emissions_randUni31145:1" vType="random_016" speedFactor="0.88" vaporized="">
        <emissions CO_abs="2751.525027" CO2_abs="112444.766182" HC_abs="15.158179" PMx_abs="2.103611" NOx_abs="47.159019" fuel_abs="48.335846" electricity_abs="0"/>
    </tripinfo>
    <tripinfo id="carIn77438:1" depart="57614.00" departLane="124812856#0_1" departPos="5.10" departSpeed="0.00" departDelay="1.10" arrival="57857.00" arrivalLane="-128361102#1_1" arrivalPos="274.68" arrivalSpeed="11.92" duration="243.00" routeLength="2250.49" waitingTime="24.00" waitingCount="3" stopTime="0.00" timeLoss="68.59" rerouteNo="1" devices="tripinfo_carIn77438:1 routing_carIn77438:1 emissions_carIn77438:1" vType="default_016" speedFactor="0.95" vaporized="">
        <emissions CO_abs="10334.264295" CO2_abs="572184.283032" HC_abs="60.428688" PMx_abs="9.898470" NOx_abs="232.350361" fuel_abs="245.959207" electricity_abs="0"/>
    </tripinfo>
    <tripinfo id="carIn46110:1" depart="57684.00" departLane="315358244_1" departPos="5.10" departSpeed="0.00" departDelay="1.20" arrival="57858.00" arrivalLane="32978638#0_1" arrivalPos="49.29" arrivalSpeed="15.74" duration="174.00" routeLength="1764.04" waitingTime="33.00" waitingCount="3" stopTime="0.00" timeLoss="62.65" rerouteNo="1" devices="tripinfo_carIn46110:1 routing_carIn46110:1 emissions_carIn46110:1" vType="default_016" speedFactor="1.15" vaporized="">
        <emissions CO_abs="9492.201942" CO2_abs="509864.324045" HC_abs="55.052277" PMx_abs="9.478096" NOx_abs="208.983454" fuel_abs="219.169775" electricity_abs="0"/>
    </tripinfo>
    <tripinfo id="h15382c1:3" depart="57625.00" departLane="124812856#0_1" departPos="5.10" departSpeed="0.00" departDelay="2.80" arrival="57859.00" arrivalLane="-128361102#1_1" arrivalPos="274.68" arrivalSpeed="11.87" duration="234.00" routeLength="2250.49" waitingTime="11.00" waitingCount="2" stopTime="0.00" timeLoss="53.84" rerouteNo="1" devices="tripinfo_h15382c1:3 routing_h15382c1:3 emissions_h15382c1:3" vType="default_016" speedFactor="0.91" vaporized="">
        <emissions CO_abs="8712.464497" CO2_abs="522027.027991" HC_abs="51.825222" PMx_abs="8.682886" NOx_abs="209.816644" fuel_abs="224.398514" electricity_abs="0"/>
    </tripinfo>
    <tripinfo id="randUni2407:1" depart="57820.00" departLane="10425609#0_1" departPos="5.10" departSpeed="0.00" departDelay="0.80" arrival="57859.00" arrivalLane="201956810_1" arrivalPos="71.65" arrivalSpeed="10.57" duration="39.00" routeLength="255.78" waitingTime="5.00" waitingCount="1" stopTime="0.00" timeLoss="16.17" rerouteNo="1" devices="tripinfo_randUni2407:1 routing_randUni2407:1 emissions_randUni2407:1" vType="random_016" speedFactor="0.85" vaporized="">
        <emissions CO_abs="1981.086754" CO2_abs="89275.568591" HC_abs="11.130158" PMx_abs="1.764279" NOx_abs="38.214661" fuel_abs="38.375930" electricity_abs="0"/>
    </tripinfo>
    <tripinfo id="carIn3969:1" depart="57628.00" departLane="124812856#0_1" departPos="5.10" departSpeed="0.00" departDelay="4.30" arrival="57861.00" arrivalLane="-128361102#1_1" arrivalPos="274.68" arrivalSpeed="13.71" duration="233.00" routeLength="2250.49" waitingTime="20.00" waitingCount="2" stopTime="0.00" timeLoss="79.09" rerouteNo="1" devices="tripinfo_carIn3969:1 routing_carIn3969:1 emissions_carIn3969:1" vType="default_016" speedFactor="1.07" vaporized="">
        <emissions CO_abs="10600.225463" CO2_abs="600236.284014" HC_abs="62.269362" PMx_abs="10.583545" NOx_abs="244.918671" fuel_abs="258.017130" electricity_abs="0"/>
    </tripinfo>
    <tripinfo id="randUni15030:1" depart="57735.00" departLane="386687232#0_1" departPos="5.10" departSpeed="0.00" departDelay="0.10" arrival="57862.00" arrivalLane="26677539_1" arrivalPos="151.98" arrivalSpeed="8.82" duration="127.00" routeLength="919.89" waitingTime="35.00" waitingCount="1" stopTime="0.00" timeLoss="51.11" rerouteNo="1" devices="tripinfo_randUni15030:1 routing_randUni15030:1 emissions_randUni15030:1" vType="random_016" speedFactor="1.10" vaporized="">
        <emissions CO_abs="8938.249724" CO2_abs="306758.158505" HC_abs="47.802202" PMx_abs="5.899338" NOx_abs="128.681849" fuel_abs="131.865059" electricity_abs="0"/>
    </tripinfo>
    <tripinfo id="carIn82220:1" depart="57619.00" departLane="-306240162#1_0" departPos="5.10" departSpeed="0.00" departDelay="3.50" arrival="57863.00" arrivalLane="386687235_2" arrivalPos="80.84" arrivalSpeed="14.05" duration="244.00" routeLength="2257.41" waitingTime="67.00" waitingCount="2" stopTime="0.00" timeLoss="109.53" rerouteNo="1" devices="tripinfo_carIn82220:1 routing_carIn82220:1 emissions_carIn82220:1" vType="default_016" speedFactor="1.10" vaporized="">
        <emissions CO_abs="18064.065946" CO2_abs="773463.170162" HC_abs="100.522612" PMx_abs="15.388426" NOx_abs="324.128785" fuel_abs="332.481694" electricity_abs="0"/>
    </tripinfo>