<?xml version="1.0" encoding="UTF-8"?>

<!-- generated on 2021-10-26 18:10:55 by Eclipse SUMO sumo Version 1.10.0
<configuration xmlns:xsi="http://www.w3.org/2001/XMLSchema-instance" xsi:noNamespaceSchemaLocation="http://sumo.dlr.de/xsd/sumoConfiguration.xsd">

    <input>
        <net-file value="/Users/behradkoohy/sumo-scratchpad/RESCO/environments/ingolstadt21/ingolstadt21.net.xml"/>
        <route-files value="/Users/behradkoohy/sumo-scratchpad/RESCO/environments/ingolstadt21/ingolstadt21.rou.xml"/>
    </input>

    <output>
        <tripinfo-output value="/Users/behradkoohy/sumo-scratchpad/RESCO/logs/IPPO-tr0-ingolstadt21-21-drq_norm-wait_norm/tripinfo_49.xml"/>
        <tripinfo-output.write-unfinished value="true"/>
    </output>

    <time>
        <begin value="57600"/>
        <end value="61200"/>
    </time>

    <processing>
        <time-to-teleport value="-1"/>
    </processing>

    <report>
        <no-warnings value="true"/>
        <no-step-log value="true"/>
    </report>

    <emissions>
        <device.emissions.probability value="1"/>
    </emissions>

    <traci_server>
        <remote-port value="62121"/>
    </traci_server>

    <random_number>
        <random value="true"/>
    </random_number>

</configuration>
-->

<tripinfos xmlns:xsi="http://www.w3.org/2001/XMLSchema-instance" xsi:noNamespaceSchemaLocation="http://sumo.dlr.de/xsd/tripinfo_file.xsd">
    <tripinfo id="h15454c2:3" depart="57612.00" departLane="24608844_1" departPos="5.10" departSpeed="0.00" departDelay="0.50" arrival="57647.00" arrivalLane="32978638#0_1" arrivalPos="49.29" arrivalSpeed="16.22" duration="35.00" routeLength="354.79" waitingTime="0.00" waitingCount="0" stopTime="0.00" timeLoss="6.81" rerouteNo="1" devices="tripinfo_h15454c2:3 routing_h15454c2:3 emissions_h15454c2:3" vType="default_016" speedFactor="1.21" vaporized="">
        <emissions CO_abs="2097.809649" CO2_abs="132201.861405" HC_abs="12.626972" PMx_abs="2.360001" NOx_abs="54.195486" fuel_abs="56.827938" electricity_abs="0"/>
    </tripinfo>
    <tripinfo id="carIn60260:1" depart="57606.00" departLane="315358254#0_1" departPos="5.10" departSpeed="0.00" departDelay="0.90" arrival="57660.00" arrivalLane="399835085#1_1" arrivalPos="212.23" arrivalSpeed="8.59" duration="54.00" routeLength="430.98" waitingTime="1.00" waitingCount="1" stopTime="0.00" timeLoss="12.51" rerouteNo="1" devices="tripinfo_carIn60260:1 routing_carIn60260:1 emissions_carIn60260:1" vType="default_016" speedFactor="1.12" vaporized="">
        <emissions CO_abs="2503.764635" CO2_abs="130043.378592" HC_abs="14.392972" PMx_abs="2.168362" NOx_abs="52.711603" fuel_abs="55.900671" electricity_abs="0"/>
    </tripinfo>
    <tripinfo id="carIn53971:1" depart="57640.00" departLane="272042143_1" departPos="5.10" departSpeed="0.00" departDelay="0.80" arrival="57692.00" arrivalLane="24634414#1_1" arrivalPos="162.19" arrivalSpeed="8.23" duration="52.00" routeLength="493.04" waitingTime="0.00" waitingCount="0" stopTime="0.00" timeLoss="7.43" rerouteNo="1" devices="tripinfo_carIn53971:1 routing_carIn53971:1 emissions_carIn53971:1" vType="default_016" speedFactor="1.03" vaporized="">
        <emissions CO_abs="2183.431536" CO2_abs="134940.866713" HC_abs="13.080447" PMx_abs="2.256441" NOx_abs="54.450344" fuel_abs="58.005582" electricity_abs="0"/>
    </tripinfo>
    <tripinfo id="h7800c1:5" depart="57696.00" departLane="-447569998#1_1" departPos="5.10" departSpeed="0.00" departDelay="0.00" arrival="57720.00" arrivalLane="-447569998#1_1" arrivalPos="180.76" arrivalSpeed="7.42" duration="24.00" routeLength="175.66" waitingTime="0.00" waitingCount="0" stopTime="0.00" timeLoss="2.79" rerouteNo="1" devices="tripinfo_h7800c1:5 routing_h7800c1:5 emissions_h7800c1:5" vType="default_016" speedFactor="1.02" vaporized="">
        <emissions CO_abs="1107.203013" CO2_abs="51117.736562" HC_abs="6.218011" PMx_abs="0.845490" NOx_abs="20.845252" fuel_abs="21.973658" electricity_abs="0"/>
    </tripinfo>
    <tripinfo id="h3688c1:1" depart="57625.00" departLane="201201950#1_1" departPos="5.10" departSpeed="0.00" departDelay="0.00" arrival="57730.00" arrivalLane="32978638#0_1" arrivalPos="49.29" arrivalSpeed="11.68" duration="105.00" routeLength="1089.75" waitingTime="0.00" waitingCount="0" stopTime="0.00" timeLoss="11.30" rerouteNo="1" devices="tripinfo_h3688c1:1 routing_h3688c1:1 emissions_h3688c1:1" vType="default_016" speedFactor="0.86" vaporized="">
        <emissions CO_abs="3303.680866" CO2_abs="235105.911714" HC_abs="20.483573" PMx_abs="3.644321" NOx_abs="92.822833" fuel_abs="101.062487" electricity_abs="0"/>
    </tripinfo>
    <tripinfo id="h7181c1:1" depart="57660.00" departLane="315358254#0_1" departPos="5.10" departSpeed="0.00" departDelay="0.10" arrival="57741.00" arrivalLane="306240162#0_0" arrivalPos="220.43" arrivalSpeed="16.53" duration="81.00" routeLength="932.35" waitingTime="11.00" waitingCount="2" stopTime="0.00" timeLoss="31.39" rerouteNo="1" devices="tripinfo_h7181c1:1 routing_h7181c1:1 emissions_h7181c1:1" vType="default_016" speedFactor="1.04" vaporized="">
        <emissions CO_abs="5740.951702" CO2_abs="330875.401941" HC_abs="34.074712" PMx_abs="6.665031" NOx_abs="138.188121" fuel_abs="142.228733" electricity_abs="0"/>
    </tripinfo>
    <tripinfo id="h3568c1:3" depart="57656.00" departLane="266565295#5_1" departPos="5.10" departSpeed="0.00" departDelay="0.80" arrival="57742.00" arrivalLane="-24634415_1" arrivalPos="62.03" arrivalSpeed="14.95" duration="86.00" routeLength="807.40" waitingTime="4.00" waitingCount="1" stopTime="0.00" timeLoss="26.49" rerouteNo="1" devices="tripinfo_h3568c1:3 routing_h3568c1:3 emissions_h3568c1:3" vType="default_016" speedFactor="1.09" vaporized="">
        <emissions CO_abs="5040.200263" CO2_abs="286478.002060" HC_abs="29.731152" PMx_abs="5.516328" NOx_abs="120.476669" fuel_abs="123.144441" electricity_abs="0"/>
    </tripinfo>
    <tripinfo id="carIn30817:1" depart="57681.00" departLane="315358244_1" departPos="5.10" departSpeed="0.00" departDelay="0.20" arrival="57756.00" arrivalLane="447569997#1_1" arrivalPos="180.93" arrivalSpeed="8.48" duration="75.00" routeLength="718.04" waitingTime="2.00" waitingCount="1" stopTime="0.00" timeLoss="18.63" rerouteNo="1" devices="tripinfo_carIn30817:1 routing_carIn30817:1 emissions_carIn30817:1" vType="default_016" speedFactor="1.11" vaporized="">
        <emissions CO_abs="3066.295532" CO2_abs="186274.980640" HC_abs="18.263186" PMx_abs="3.170789" NOx_abs="75.164006" fuel_abs="80.072015" electricity_abs="0"/>
    </tripinfo>
    <tripinfo id="carIn27009:1" depart="57673.00" departLane="-447569998#1_1" departPos="5.10" departSpeed="0.00" departDelay="0.50" arrival="57759.00" arrivalLane="-26677539_1" arrivalPos="152.75" arrivalSpeed="8.87" duration="86.00" routeLength="699.63" waitingTime="0.00" waitingCount="0" stopTime="0.00" timeLoss="10.66" rerouteNo="1" devices="tripinfo_carIn27009:1 routing_carIn27009:1 emissions_carIn27009:1" vType="default_015" speedFactor="1.12" vaporized="">
        <emissions CO_abs="3520.130211" CO2_abs="187436.437273" HC_abs="20.356386" PMx_abs="3.069243" NOx_abs="76.002820" fuel_abs="80.571725" electricity_abs="0"/>
    </tripinfo>
    <tripinfo id="h317c2:1" depart="57707.00" departLane="-32978638#0_1" departPos="5.10" departSpeed="0.00" departDelay="0.10" arrival="57759.00" arrivalLane="-266565295#5_1" arrivalPos="172.76" arrivalSpeed="10.75" duration="52.00" routeLength="370.53" waitingTime="11.00" waitingCount="1" stopTime="0.00" timeLoss="18.39" rerouteNo="1" devices="tripinfo_h317c2:1 routing_h317c2:1 emissions_h317c2:1" vType="default_016" speedFactor="0.82" vaporized="">
        <emissions CO_abs="2885.444707" CO2_abs="119288.519687" HC_abs="15.926361" PMx_abs="2.211716" NOx_abs="49.822333" fuel_abs="51.277733" electricity_abs="0"/>
    </tripinfo>
    <tripinfo id="h3326c1:2" depart="57656.00" departLane="22716069#0_1" departPos="5.10" departSpeed="0.00" departDelay="0.00" arrival="57766.00" arrivalLane="24634517#13_1" arrivalPos="111.62" arrivalSpeed="14.15" duration="110.00" routeLength="1312.81" waitingTime="0.00" waitingCount="0" stopTime="0.00" timeLoss="15.78" rerouteNo="1" devices="tripinfo_h3326c1:2 routing_h3326c1:2 emissions_h3326c1:2" vType="default_016" speedFactor="1.03" vaporized="">
        <emissions CO_abs="3942.264384" CO2_abs="307762.937175" HC_abs="25.082925" PMx_abs="5.058347" NOx_abs="122.224321" fuel_abs="132.294131" electricity_abs="0"/>
    </tripinfo>
    <tripinfo id="h12244c1:3" depart="57612.00" departLane="315358244_1" departPos="5.10" departSpeed="0.00" departDelay="0.40" arrival="57767.00" arrivalLane="386687235_1" arrivalPos="80.84" arrivalSpeed="14.19" duration="155.00" routeLength="1186.14" waitingTime="52.00" waitingCount="3" stopTime="0.00" timeLoss="73.12" rerouteNo="1" devices="tripinfo_h12244c1:3 routing_h12244c1:3 emissions_h12244c1:3" vType="default_016" speedFactor="1.05" vaporized="">
        <emissions CO_abs="10851.983091" CO2_abs="403051.530166" HC_abs="58.752798" PMx_abs="7.534787" NOx_abs="166.163600" fuel_abs="173.258079" electricity_abs="0"/>
    </tripinfo>
    <tripinfo id="carIn80064:1" depart="57603.00" departLane="128361109#1_1" departPos="5.10" departSpeed="0.00" departDelay="0.40" arrival="57769.00" arrivalLane="-315358254#1_1" arrivalPos="137.16" arrivalSpeed="13.75" duration="166.00" routeLength="1587.97" waitingTime="43.00" waitingCount="1" stopTime="0.00" timeLoss="78.63" rerouteNo="1" devices="tripinfo_carIn80064:1 routing_carIn80064:1 emissions_carIn80064:1" vType="default_016" speedFactor="1.03" vaporized="">
        <emissions CO_abs="13435.948842" CO2_abs="580042.186425" HC_abs="75.017253" PMx_abs="11.831081" NOx_abs="244.237344" fuel_abs="249.337094" electricity_abs="0"/>
    </tripinfo>
    <tripinfo id="carIn22761:1" depart="57616.00" departLane="-306240162#1_0" departPos="5.10" departSpeed="0.00" departDelay="2.10" arrival="57771.00" arrivalLane="399835085#1_1" arrivalPos="212.23" arrivalSpeed="7.19" duration="155.00" routeLength="1093.26" waitingTime="48.00" waitingCount="1" stopTime="0.00" timeLoss="65.49" rerouteNo="1" devices="tripinfo_carIn22761:1 routing_carIn22761:1 emissions_carIn22761:1" vType="default_016" speedFactor="0.87" vaporized="">
        <emissions CO_abs="11489.768969" CO2_abs="382929.671088" HC_abs="61.254519" PMx_abs="7.553928" NOx_abs="160.892217" fuel_abs="164.608742" electricity_abs="0"/>
    </tripinfo>
    <tripinfo id="h4538c1:1" depart="57701.00" departLane="-10427692#1_1" departPos="5.10" departSpeed="0.00" departDelay="0.00" arrival="57776.00" arrivalLane="-128361102#1_1" arrivalPos="274.68" arrivalSpeed="13.84" duration="75.00" routeLength="440.74" waitingTime="33.00" waitingCount="1" stopTime="0.00" timeLoss="42.89" rerouteNo="1" devices="tripinfo_h4538c1:1 routing_h4538c1:1 emissions_h4538c1:1" vType="default_016" speedFactor="1.01" vaporized="">
        <emissions CO_abs="6185.081291" CO2_abs="194062.523478" HC_abs="32.708865" PMx_abs="3.862554" NOx_abs="82.002560" fuel_abs="83.421267" electricity_abs="0"/>
    </tripinfo>
    <tripinfo id="h330c1:1" depart="57736.00" departLane="-32978638#0_1" departPos="5.10" departSpeed="0.00" departDelay="0.20" arrival="57785.00" arrivalLane="-266565295#5_1" arrivalPos="172.76" arrivalSpeed="14.20" duration="49.00" routeLength="370.53" waitingTime="13.00" waitingCount="1" stopTime="0.00" timeLoss="22.01" rerouteNo="1" devices="tripinfo_h330c1:1 routing_h330c1:1 emissions_h330c1:1" vType="default_016" speedFactor="1.04" vaporized="">
        <emissions CO_abs="3285.932987" CO2_abs="142985.525860" HC_abs="18.314184" PMx_abs="2.753515" NOx_abs="59.916081" fuel_abs="61.463941" electricity_abs="0"/>
    </tripinfo>
    <tripinfo id="carIn107084:1" depart="57601.00" departLane="124812856#0_1" departPos="5.10" departSpeed="0.00" departDelay="0.70" arrival="57789.00" arrivalLane="-128361102#1_1" arrivalPos="274.68" arrivalSpeed="13.36" duration="188.00" routeLength="2250.49" waitingTime="1.00" waitingCount="1" stopTime="0.00" timeLoss="21.64" rerouteNo="1" devices="tripinfo_carIn107084:1 routing_carIn107084:1 emissions_carIn107084:1" vType="default_016" speedFactor="0.99" vaporized="">
        <emissions CO_abs="5095.860012" CO2_abs="446441.186129" HC_abs="33.519523" PMx_abs="6.874938" NOx_abs="173.738176" fuel_abs="191.906222" electricity_abs="0"/>
    </tripinfo>
    <tripinfo id="carIn77943:1" depart="57608.00" departLane="124812856#0_1" departPos="5.10" departSpeed="0.00" departDelay="2.50" arrival="57797.00" arrivalLane="-128361102#1_1" arrivalPos="274.68" arrivalSpeed="12.25" duration="189.00" routeLength="2250.49" waitingTime="0.00" waitingCount="0" stopTime="0.00" timeLoss="17.82" rerouteNo="1" devices="tripinfo_carIn77943:1 routing_carIn77943:1 emissions_carIn77943:1" vType="default_016" speedFactor="0.96" vaporized="">
        <emissions CO_abs="4930.492247" CO2_abs="424135.456634" HC_abs="32.297899" PMx_abs="6.680968" NOx_abs="166.465239" fuel_abs="182.317738" electricity_abs="0"/>
    </tripinfo>
    <tripinfo id="carIn12365:1" depart="57713.00" departLane="315358244_1" departPos="5.10" departSpeed="0.00" departDelay="0.50" arrival="57799.00" arrivalLane="447569997#1_1" arrivalPos="180.93" arrivalSpeed="7.31" duration="86.00" routeLength="718.04" waitingTime="8.00" waitingCount="1" stopTime="0.00" timeLoss="19.21" rerouteNo="1" devices="tripinfo_carIn12365:1 routing_carIn12365:1 emissions_carIn12365:1" vType="default_016" speedFactor="0.93" vaporized="">
        <emissions CO_abs="3097.488069" CO2_abs="176787.590131" HC_abs="18.197426" PMx_abs="2.865471" NOx_abs="70.809139" fuel_abs="75.994121" electricity_abs="0"/>
    </tripinfo>
    <tripinfo id="carIn107282:1" depart="57749.00" departLane="-447569998#1_1" departPos="5.10" departSpeed="0.00" departDelay="0.00" arrival="57802.00" arrivalLane="315358242#0_1" arrivalPos="165.37" arrivalSpeed="15.94" duration="53.00" routeLength="448.50" waitingTime="11.00" waitingCount="1" stopTime="0.00" timeLoss="18.80" rerouteNo="1" devices="tripinfo_carIn107282:1 routing_carIn107282:1 emissions_carIn107282:1" vType="default_016" speedFactor="1.23" vaporized="">
        <emissions CO_abs="2988.511460" CO2_abs="138148.850998" HC_abs="16.805003" PMx_abs="2.639363" NOx_abs="57.676649" fuel_abs="59.384715" electricity_abs="0"/>
    </tripinfo>
    <tripinfo id="carIn129809:1" depart="57729.00" departLane="-447569998#1_1" departPos="5.10" departSpeed="0.00" departDelay="1.00" arrival="57803.00" arrivalLane="-315358244_2" arrivalPos="33.95" arrivalSpeed="14.40" duration="74.00" routeLength="706.49" waitingTime="3.00" waitingCount="1" stopTime="0.00" timeLoss="17.81" rerouteNo="1" devices="tripinfo_carIn129809:1 routing_carIn129809:1 emissions_carIn129809:1" vType="default_015" speedFactor="1.08" vaporized="">
        <emissions CO_abs="2992.356253" CO2_abs="181715.781296" HC_abs="17.861741" PMx_abs="3.165740" NOx_abs="73.828804" fuel_abs="78.112093" electricity_abs="0"/>
    </tripinfo>
    <tripinfo id="carIn121703:1" depart="57647.00" departLane="386687232#0_1" departPos="5.10" departSpeed="0.00" departDelay="0.30" arrival="57805.00" arrivalLane="-315358244_1" arrivalPos="33.95" arrivalSpeed="10.50" duration="158.00" routeLength="1157.39" waitingTime="32.00" waitingCount="2" stopTime="0.00" timeLoss="49.94" rerouteNo="1" devices="tripinfo_carIn121703:1 routing_carIn121703:1 emissions_carIn121703:1" vType="default_016" speedFactor="0.78" vaporized="">
        <emissions CO_abs="7525.840971" CO2_abs="313073.497705" HC_abs="41.502204" PMx_abs="5.337373" NOx_abs="127.327629" fuel_abs="134.579461" electricity_abs="0"/>
    </tripinfo>
    <tripinfo id="h3154c1:1" depart="57658.00" departLane="24634507_1" departPos="5.10" departSpeed="0.00" departDelay="0.00" arrival="57806.00" arrivalLane="-266565295#5_1" arrivalPos="172.76" arrivalSpeed="13.57" duration="148.00" routeLength="1206.22" waitingTime="38.00" waitingCount="2" stopTime="0.00" timeLoss="60.50" rerouteNo="1" devices="tripinfo_h3154c1:1 routing_h3154c1:1 emissions_h3154c1:1" vType="default_016" speedFactor="1.02" vaporized="">
        <emissions CO_abs="9259.164402" CO2_abs="401088.658878" HC_abs="51.591339" PMx_abs="7.537192" NOx_abs="166.437421" fuel_abs="172.412862" electricity_abs="0"/>
    </tripinfo>
    <tripinfo id="h11737c1:1" depart="57665.00" departLane="272042143_1" departPos="5.10" departSpeed="0.00" departDelay="1.50" arrival="57806.00" arrivalLane="-315358254#1_1" arrivalPos="137.16" arrivalSpeed="14.22" duration="141.00" routeLength="1596.88" waitingTime="5.00" waitingCount="2" stopTime="0.00" timeLoss="28.69" rerouteNo="1" devices="tripinfo_h11737c1:1 routing_h11737c1:1 emissions_h11737c1:1" vType="default_016" speedFactor="1.04" vaporized="">
        <emissions CO_abs="4773.389946" CO2_abs="368807.824668" HC_abs="30.237750" PMx_abs="6.089304" NOx_abs="146.318097" fuel_abs="158.534743" electricity_abs="0"/>
    </tripinfo>
    <tripinfo id="carIn126288:1" depart="57674.00" departLane="272042143_1" departPos="5.10" departSpeed="0.00" departDelay="0.00" arrival="57810.00" arrivalLane="-315358254#1_1" arrivalPos="137.16" arrivalSpeed="12.89" duration="136.00" routeLength="1596.88" waitingTime="0.00" waitingCount="0" stopTime="0.00" timeLoss="15.14" rerouteNo="1" devices="tripinfo_carIn126288:1 routing_carIn126288:1 emissions_carIn126288:1" vType="default_016" speedFactor="0.97" vaporized="">
        <emissions CO_abs="3885.014448" CO2_abs="324958.103251" HC_abs="25.256528" PMx_abs="5.107156" NOx_abs="127.499354" fuel_abs="139.685736" electricity_abs="0"/>
    </tripinfo>
    <tripinfo id="carIn82278:1" depart="57702.00" departLane="-306240162#1_0" departPos="5.10" departSpeed="0.00" departDelay="0.70" arrival="57810.00" arrivalLane="399835085#1_1" arrivalPos="212.23" arrivalSpeed="9.17" duration="108.00" routeLength="1093.26" waitingTime="22.00" waitingCount="1" stopTime="0.00" timeLoss="38.09" rerouteNo="1" devices="tripinfo_carIn82278:1 routing_carIn82278:1 emissions_carIn82278:1" vType="default_016" speedFactor="1.12" vaporized="">
        <emissions CO_abs="7717.421794" CO2_abs="362420.961437" HC_abs="43.787105" PMx_abs="7.254192" NOx_abs="150.034650" fuel_abs="155.790177" electricity_abs="0"/>
    </tripinfo>
    <tripinfo id="S5R_frequency1.2" depart="57624.00" departLane="315358250#0_1" departPos="12.10" departSpeed="0.00" departDelay="12.40" arrival="57811.00" arrivalLane="386687235_1" arrivalPos="80.84" arrivalSpeed="12.25" duration="187.00" routeLength="1115.62" waitingTime="72.00" waitingCount="4" stopTime="0.00" timeLoss="105.84" rerouteNo="1" devices="tripinfo_S5R_frequency1.2 routing_S5R_frequency1.2 emissions_S5R_frequency1.2" vType="bus" speedFactor="1.00" vaporized="">
        <emissions CO_abs="3536.073384" CO2_abs="1678762.468642" HC_abs="786.123662" PMx_abs="367.477288" NOx_abs="14470.769117" fuel_abs="715.802628" electricity_abs="0"/>
    </tripinfo>
    <tripinfo id="h5979c1:5" depart="57669.00" departLane="399835085#1_1" departPos="5.10" departSpeed="0.00" departDelay="0.00" arrival="57812.00" arrivalLane="-315358254#1_1" arrivalPos="137.16" arrivalSpeed="15.76" duration="143.00" routeLength="659.33" waitingTime="55.00" waitingCount="3" stopTime="0.00" timeLoss="79.49" rerouteNo="1" devices="tripinfo_h5979c1:5 routing_h5979c1:5 emissions_h5979c1:5" vType="default_016" speedFactor="1.16" vaporized="">
        <emissions CO_abs="11607.184918" CO2_abs="331611.225601" HC_abs="60.558928" PMx_abs="6.631944" NOx_abs="141.424587" fuel_abs="142.549774" electricity_abs="0"/>
    </tripinfo>
    <tripinfo id="carIn86816:1" depart="57617.00" departLane="128361102#0_1" departPos="5.10" departSpeed="0.00" departDelay="0.80" arrival="57817.00" arrivalLane="201956811#0_1" arrivalPos="40.40" arrivalSpeed="7.39" duration="200.00" routeLength="2067.33" waitingTime="7.00" waitingCount="1" stopTime="0.00" timeLoss="30.88" rerouteNo="1" devices="tripinfo_carIn86816:1 routing_carIn86816:1 emissions_carIn86816:1" vType="default_016" speedFactor="0.89" vaporized="">
        <emissions CO_abs="6193.517837" CO2_abs="436379.271466" HC_abs="38.351327" PMx_abs="7.006282" NOx_abs="173.410788" fuel_abs="187.581463" electricity_abs="0"/>
    </tripinfo>
    <tripinfo id="carIn102915:1" depart="57643.00" departLane="128361102#0_1" departPos="5.10" departSpeed="0.00" departDelay="0.40" arrival="57819.00" arrivalLane="201956811#0_1" arrivalPos="40.40" arrivalSpeed="13.74" duration="176.00" routeLength="2067.33" waitingTime="0.00" waitingCount="0" stopTime="0.00" timeLoss="34.05" rerouteNo="1" devices="tripinfo_carIn102915:1 routing_carIn102915:1 emissions_carIn102915:1" vType="default_016" speedFactor="1.07" vaporized="">
        <emissions CO_abs="5899.672454" CO2_abs="461909.782500" HC_abs="37.690869" PMx_abs="7.727732" NOx_abs="184.659008" fuel_abs="198.555032" electricity_abs="0"/>
    </tripinfo>
    <tripinfo id="h17549c1:1" depart="57680.00" departLane="-447569998#1_1" departPos="5.10" departSpeed="0.00" departDelay="0.00" arrival="57823.00" arrivalLane="-315358254#1_1" arrivalPos="137.16" arrivalSpeed="14.52" duration="143.00" routeLength="1746.60" waitingTime="0.00" waitingCount="0" stopTime="0.00" timeLoss="15.59" rerouteNo="1" devices="tripinfo_h17549c1:1 routing_h17549c1:1 emissions_h17549c1:1" vType="default_016" speedFactor="1.08" vaporized="">
        <emissions CO_abs="4650.614973" CO2_abs="374618.072287" HC_abs="29.773794" PMx_abs="6.140440" NOx_abs="148.127825" fuel_abs="161.032233" electricity_abs="0"/>
    </tripinfo>
    <tripinfo id="carIn126378:1" depart="57746.00" departLane="386687232#0_1" departPos="5.10" departSpeed="0.00" departDelay="1.80" arrival="57828.00" arrivalLane="-315358244_2" arrivalPos="33.95" arrivalSpeed="16.27" duration="82.00" routeLength="1157.39" waitingTime="0.00" waitingCount="0" stopTime="0.00" timeLoss="11.70" rerouteNo="1" devices="tripinfo_carIn126378:1 routing_carIn126378:1 emissions_carIn126378:1" vType="default_016" speedFactor="1.20" vaporized="">
        <emissions CO_abs="2843.813544" CO2_abs="250936.066802" HC_abs="18.708394" PMx_abs="4.245840" NOx_abs="98.819042" fuel_abs="107.866333" electricity_abs="0"/>
    </tripinfo>
    <tripinfo id="carIn73855:1" depart="57743.00" departLane="386687232#0_1" departPos="5.10" departSpeed="0.00" departDelay="0.50" arrival="57829.00" arrivalLane="-315358244_1" arrivalPos="33.95" arrivalSpeed="14.79" duration="86.00" routeLength="1157.39" waitingTime="0.00" waitingCount="0" stopTime="0.00" timeLoss="12.06" rerouteNo="1" devices="tripinfo_carIn73855:1 routing_carIn73855:1 emissions_carIn73855:1" vType="default_016" speedFactor="1.15" vaporized="">
        <emissions CO_abs="3000.400484" CO2_abs="242461.874122" HC_abs="19.174543" PMx_abs="4.097397" NOx_abs="95.900540" fuel_abs="104.223822" electricity_abs="0"/>
    </tripinfo>
    <tripinfo id="h3864c1:3" depart="57678.00" departLane="24693977#1_1" departPos="5.10" departSpeed="0.00" departDelay="0.00" arrival="57830.00" arrivalLane="201956820_2" arrivalPos="48.33" arrivalSpeed="12.60" duration="152.00" routeLength="1574.85" waitingTime="0.00" waitingCount="0" stopTime="0.00" timeLoss="17.68" rerouteNo="1" devices="tripinfo_h3864c1:3 routing_h3864c1:3 emissions_h3864c1:3" vType="default_016" speedFactor="0.96" vaporized="">
        <emissions CO_abs="5473.861656" CO2_abs="369644.796240" HC_abs="33.532968" PMx_abs="6.044672" NOx_abs="147.836332" fuel_abs="158.895065" electricity_abs="0"/>
    </tripinfo>
    <tripinfo id="carIn81860:1" depart="57712.00" departLane="128361102#0_1" departPos="5.10" departSpeed="0.00" departDelay="0.60" arrival="57833.00" arrivalLane="-24634517#17_1" arrivalPos="6.43" arrivalSpeed="7.93" duration="121.00" routeLength="1229.64" waitingTime="3.00" waitingCount="1" stopTime="0.00" timeLoss="22.46" rerouteNo="1" devices="tripinfo_carIn81860:1 routing_carIn81860:1 emissions_carIn81860:1" vType="default_016" speedFactor="0.92" vaporized="">
        <emissions CO_abs="4129.920685" CO2_abs="294526.098116" HC_abs="25.623160" PMx_abs="4.534912" NOx_abs="115.559341" fuel_abs="126.604907" electricity_abs="0"/>
    </tripinfo>
    <tripinfo id="h9563c2:5" depart="57631.00" departLane="315358244_1" departPos="5.10" departSpeed="0.00" departDelay="0.70" arrival="57835.00" arrivalLane="386687235_1" arrivalPos="80.84" arrivalSpeed="12.64" duration="204.00" routeLength="1186.14" waitingTime="85.00" waitingCount="4" stopTime="0.00" timeLoss="114.92" rerouteNo="1" devices="tripinfo_h9563c2:5 routing_h9563c2:5 emissions_h9563c2:5" vType="default_016" speedFactor="0.97" vaporized="">
        <emissions CO_abs="15442.732684" CO2_abs="450685.742052" HC_abs="80.853454" PMx_abs="8.965228" NOx_abs="190.519861" fuel_abs="193.736297" electricity_abs="0"/>
    </tripinfo>
    <tripinfo id="h645c1:1" depart="57622.00" departLane="266565295#5_1" departPos="5.10" departSpeed="0.00" departDelay="0.40" arrival="57836.00" arrivalLane="-315358244_1" arrivalPos="33.95" arrivalSpeed="15.63" duration="214.00" routeLength="1910.83" waitingTime="64.00" waitingCount="3" stopTime="0.00" timeLoss="93.98" rerouteNo="1" devices="tripinfo_h645c1:1 routing_h645c1:1 emissions_h645c1:1" vType="default_016" speedFactor="1.16" vaporized="">
        <emissions CO_abs="13801.039910" CO2_abs="555047.752076" HC_abs="75.584513" PMx_abs="10.537953" NOx_abs="228.515939" fuel_abs="238.594938" electricity_abs="0"/>
    </tripinfo>
    <tripinfo id="carIn118591:1" depart="57689.00" departLane="315358244_1" departPos="5.10" departSpeed="0.00" departDelay="0.20" arrival="57839.00" arrivalLane="386687235_1" arrivalPos="80.84" arrivalSpeed="14.80" duration="150.00" routeLength="1186.14" waitingTime="40.00" waitingCount="3" stopTime="0.00" timeLoss="68.81" rerouteNo="1" devices="tripinfo_carIn118591:1 routing_carIn118591:1 emissions_carIn118591:1" vType="default_016" speedFactor="1.07" vaporized="">
        <emissions CO_abs="8479.308067" CO2_abs="343622.976880" HC_abs="46.487465" PMx_abs="6.308278" NOx_abs="140.670880" fuel_abs="147.711299" electricity_abs="0"/>
    </tripinfo>
    <tripinfo id="h17600c1:1" depart="57662.00" departLane="272042143_1" departPos="5.10" departSpeed="0.00" departDelay="0.30" arrival="57841.00" arrivalLane="201238729#3_1" arrivalPos="431.02" arrivalSpeed="13.22" duration="179.00" routeLength="2100.26" waitingTime="4.00" waitingCount="1" stopTime="0.00" timeLoss="20.98" rerouteNo="1" devices="tripinfo_h17600c1:1 routing_h17600c1:1 emissions_h17600c1:1" vType="default_016" speedFactor="0.96" vaporized="">
        <emissions CO_abs="4429.491380" CO2_abs="396179.179503" HC_abs="29.347732" PMx_abs="5.908787" NOx_abs="152.850761" fuel_abs="170.300941" electricity_abs="0"/>
    </tripinfo>
    <tripinfo id="randUni33724:1" depart="57646.00" departLane="128361102#0_1" departPos="5.10" departSpeed="0.00" departDelay="1.20" arrival="57842.00" arrivalLane="201956811#0_1" arrivalPos="40.40" arrivalSpeed="11.80" duration="196.00" routeLength="2067.33" waitingTime="6.00" waitingCount="1" stopTime="0.00" timeLoss="26.60" rerouteNo="1" devices="tripinfo_randUni33724:1 routing_randUni33724:1 emissions_randUni33724:1" vType="random_016" speedFactor="0.89" vaporized="">
        <emissions CO_abs="5464.210484" CO2_abs="414088.515809" HC_abs="34.476279" PMx_abs="6.380217" NOx_abs="162.595474" fuel_abs="177.999665" electricity_abs="0"/>
    </tripinfo>
    <tripinfo id="randUni15030:1" depart="57735.00" departLane="386687232#0_1" departPos="5.10" departSpeed="0.00" departDelay="0.10" arrival="57844.00" arrivalLane="26677539_1" arrivalPos="151.98" arrivalSpeed="7.65" duration="109.00" routeLength="919.89" waitingTime="6.00" waitingCount="1" stopTime="0.00" timeLoss="19.63" rerouteNo="1" devices="tripinfo_randUni15030:1 routing_randUni15030:1 emissions_randUni15030:1" vType="random_016" speedFactor="0.93" vaporized="">
        <emissions CO_abs="3974.787621" CO2_abs="219275.325070" HC_abs="23.172994" PMx_abs="3.577865" NOx_abs="88.214375" fuel_abs="94.258001" electricity_abs="0"/>
    </tripinfo>
    <tripinfo id="randUni31145:1" depart="57814.00" departLane="10425609#0_1" departPos="5.10" departSpeed="0.00" departDelay="0.30" arrival="57844.00" arrivalLane="201956810_1" arrivalPos="71.65" arrivalSpeed="14.06" duration="30.00" routeLength="255.78" waitingTime="0.00" waitingCount="0" stopTime="0.00" timeLoss="10.53" rerouteNo="1" devices="tripinfo_randUni31145:1 routing_randUni31145:1 emissions_randUni31145:1" vType="random_016" speedFactor="1.05" vaporized="">
        <emissions CO_abs="2255.596983" CO2_abs="120775.501379" HC_abs="13.129728" PMx_abs="2.313269" NOx_abs="50.789865" fuel_abs="51.916262" electricity_abs="0"/>
    </tripinfo>
    <tripinfo id="carIn81046:1" depart="57611.00" departLane="124812856#0_1" departPos="5.10" departSpeed="0.00" departDelay="2.50" arrival="57845.00" arrivalLane="-128361102#1_1" arrivalPos="274.68" arrivalSpeed="11.62" duration="234.00" routeLength="2250.49" waitingTime="30.00" waitingCount="1" stopTime="0.00" timeLoss="51.22" rerouteNo="1" devices="tripinfo_carIn81046:1 routing_carIn81046:1 emissions_carIn81046:1" vType="default_016" speedFactor="0.90" vaporized="">
        <emissions CO_abs="9692.161787" CO2_abs="519017.408786" HC_abs="56.174290" PMx_abs="8.512153" NOx_abs="206.975046" fuel_abs="223.105953" electricity_abs="0"/>
    </tripinfo>
    <tripinfo id="carIn100288:1" depart="57664.00" departLane="128361102#0_1" departPos="5.10" departSpeed="0.00" departDelay="0.60" arrival="57845.00" arrivalLane="201956811#0_1" arrivalPos="40.40" arrivalSpeed="14.71" duration="181.00" routeLength="2067.33" waitingTime="5.00" waitingCount="1" stopTime="0.00" timeLoss="41.03" rerouteNo="1" devices="tripinfo_carIn100288:1 routing_carIn100288:1 emissions_carIn100288:1" vType="default_016" speedFactor="1.08" vaporized="">
        <emissions CO_abs="6268.108611" CO2_abs="468310.203162" HC_abs="39.512254" PMx_abs="7.980129" NOx_abs="187.818864" fuel_abs="201.306349" electricity_abs="0"/>
    </tripinfo>