<?xml version="1.0" encoding="UTF-8"?>

<!-- generated on 2021-10-26 18:32:55 by Eclipse SUMO sumo Version 1.10.0
<configuration xmlns:xsi="http://www.w3.org/2001/XMLSchema-instance" xsi:noNamespaceSchemaLocation="http://sumo.dlr.de/xsd/sumoConfiguration.xsd">

    <input>
        <net-file value="/Users/behradkoohy/sumo-scratchpad/RESCO/environments/ingolstadt21/ingolstadt21.net.xml"/>
        <route-files value="/Users/behradkoohy/sumo-scratchpad/RESCO/environments/ingolstadt21/ingolstadt21.rou.xml"/>
    </input>

    <output>
        <tripinfo-output value="/Users/behradkoohy/sumo-scratchpad/RESCO/logs/IPPO-tr0-ingolstadt21-21-drq_norm-wait_norm/tripinfo_77.xml"/>
        <tripinfo-output.write-unfinished value="true"/>
    </output>

    <time>
        <begin value="57600"/>
        <end value="61200"/>
    </time>

    <processing>
        <time-to-teleport value="-1"/>
    </processing>

    <report>
        <no-warnings value="true"/>
        <no-step-log value="true"/>
    </report>

    <emissions>
        <device.emissions.probability value="1"/>
    </emissions>

    <traci_server>
        <remote-port value="62384"/>
    </traci_server>

    <random_number>
        <random value="true"/>
    </random_number>

</configuration>
-->

<tripinfos xmlns:xsi="http://www.w3.org/2001/XMLSchema-instance" xsi:noNamespaceSchemaLocation="http://sumo.dlr.de/xsd/tripinfo_file.xsd">
    <tripinfo id="h15454c2:3" depart="57612.00" departLane="24608844_1" departPos="5.10" departSpeed="0.00" departDelay="0.50" arrival="57657.00" arrivalLane="32978638#0_1" arrivalPos="49.29" arrivalSpeed="11.29" duration="45.00" routeLength="354.79" waitingTime="0.00" waitingCount="0" stopTime="0.00" timeLoss="4.78" rerouteNo="1" devices="tripinfo_h15454c2:3 routing_h15454c2:3 emissions_h15454c2:3" vType="default_016" speedFactor="0.85" vaporized="">
        <emissions CO_abs="1910.209047" CO2_abs="94455.720395" HC_abs="10.870945" PMx_abs="1.523411" NOx_abs="38.103197" fuel_abs="40.603043" electricity_abs="0"/>
    </tripinfo>
    <tripinfo id="carIn60260:1" depart="57606.00" departLane="315358254#0_1" departPos="5.10" departSpeed="0.00" departDelay="0.90" arrival="57684.00" arrivalLane="399835085#1_1" arrivalPos="212.23" arrivalSpeed="7.04" duration="78.00" routeLength="430.98" waitingTime="20.00" waitingCount="1" stopTime="0.00" timeLoss="30.48" rerouteNo="1" devices="tripinfo_carIn60260:1 routing_carIn60260:1 emissions_carIn60260:1" vType="default_016" speedFactor="0.97" vaporized="">
        <emissions CO_abs="4900.967471" CO2_abs="159120.786137" HC_abs="26.007353" PMx_abs="2.990695" NOx_abs="66.925006" fuel_abs="68.400971" electricity_abs="0"/>
    </tripinfo>
    <tripinfo id="carIn53971:1" depart="57640.00" departLane="272042143_1" departPos="5.10" departSpeed="0.00" departDelay="0.80" arrival="57701.00" arrivalLane="24634414#1_1" arrivalPos="162.19" arrivalSpeed="6.27" duration="61.00" routeLength="493.04" waitingTime="0.00" waitingCount="0" stopTime="0.00" timeLoss="7.03" rerouteNo="1" devices="tripinfo_carIn53971:1 routing_carIn53971:1 emissions_carIn53971:1" vType="default_016" speedFactor="0.85" vaporized="">
        <emissions CO_abs="2382.195294" CO2_abs="123340.703095" HC_abs="13.704104" PMx_abs="2.066382" NOx_abs="50.173624" fuel_abs="53.019431" electricity_abs="0"/>
    </tripinfo>
    <tripinfo id="h3688c1:1" depart="57625.00" departLane="201201950#1_1" departPos="5.10" departSpeed="0.00" departDelay="0.00" arrival="57716.00" arrivalLane="32978638#0_1" arrivalPos="49.29" arrivalSpeed="12.75" duration="91.00" routeLength="1089.75" waitingTime="0.00" waitingCount="0" stopTime="0.00" timeLoss="9.58" rerouteNo="1" devices="tripinfo_h3688c1:1 routing_h3688c1:1 emissions_h3688c1:1" vType="default_016" speedFactor="0.98" vaporized="">
        <emissions CO_abs="2796.585672" CO2_abs="234289.060352" HC_abs="18.186778" PMx_abs="3.767204" NOx_abs="92.425344" fuel_abs="100.710819" electricity_abs="0"/>
    </tripinfo>
    <tripinfo id="h7800c1:5" depart="57696.00" departLane="-447569998#1_1" departPos="5.10" departSpeed="0.00" departDelay="0.00" arrival="57721.00" arrivalLane="-447569998#1_1" arrivalPos="180.76" arrivalSpeed="7.01" duration="25.00" routeLength="175.66" waitingTime="0.00" waitingCount="0" stopTime="0.00" timeLoss="3.43" rerouteNo="1" devices="tripinfo_h7800c1:5 routing_h7800c1:5 emissions_h7800c1:5" vType="default_016" speedFactor="1.00" vaporized="">
        <emissions CO_abs="1213.141544" CO2_abs="52965.747293" HC_abs="6.740781" PMx_abs="0.876987" NOx_abs="21.625487" fuel_abs="22.768104" electricity_abs="0"/>
    </tripinfo>
    <tripinfo id="S5R_frequency1.2" depart="57615.00" departLane="315358250#0_1" departPos="12.10" departSpeed="0.00" departDelay="3.40" arrival="57731.00" arrivalLane="386687235_1" arrivalPos="80.84" arrivalSpeed="13.45" duration="116.00" routeLength="1115.62" waitingTime="7.00" waitingCount="2" stopTime="0.00" timeLoss="34.08" rerouteNo="1" devices="tripinfo_S5R_frequency1.2 routing_S5R_frequency1.2 emissions_S5R_frequency1.2" vType="bus" speedFactor="1.00" vaporized="">
        <emissions CO_abs="2138.330176" CO2_abs="1279193.422740" HC_abs="455.292329" PMx_abs="227.913399" NOx_abs="10088.903413" fuel_abs="545.542342" electricity_abs="0"/>
    </tripinfo>
    <tripinfo id="h9563c2:5" depart="57631.00" departLane="315358244_1" departPos="5.10" departSpeed="0.00" departDelay="0.70" arrival="57733.00" arrivalLane="386687235_1" arrivalPos="80.84" arrivalSpeed="16.01" duration="102.00" routeLength="1186.14" waitingTime="3.00" waitingCount="1" stopTime="0.00" timeLoss="32.30" rerouteNo="1" devices="tripinfo_h9563c2:5 routing_h9563c2:5 emissions_h9563c2:5" vType="default_016" speedFactor="1.25" vaporized="">
        <emissions CO_abs="4520.080036" CO2_abs="280270.912145" HC_abs="27.098428" PMx_abs="5.005293" NOx_abs="112.719910" fuel_abs="120.476784" electricity_abs="0"/>
    </tripinfo>
    <tripinfo id="h3568c1:3" depart="57656.00" departLane="266565295#5_1" departPos="5.10" departSpeed="0.00" departDelay="0.80" arrival="57737.00" arrivalLane="-24634415_1" arrivalPos="62.03" arrivalSpeed="14.15" duration="81.00" routeLength="807.40" waitingTime="4.00" waitingCount="1" stopTime="0.00" timeLoss="21.85" rerouteNo="1" devices="tripinfo_h3568c1:3 routing_h3568c1:3 emissions_h3568c1:3" vType="default_016" speedFactor="1.09" vaporized="">
        <emissions CO_abs="4162.901571" CO2_abs="258440.213976" HC_abs="25.032678" PMx_abs="4.708898" NOx_abs="106.384566" fuel_abs="111.092352" electricity_abs="0"/>
    </tripinfo>
    <tripinfo id="h317c2:1" depart="57707.00" departLane="-32978638#0_1" departPos="5.10" departSpeed="0.00" departDelay="0.10" arrival="57738.00" arrivalLane="-266565295#5_1" arrivalPos="172.76" arrivalSpeed="14.51" duration="31.00" routeLength="370.53" waitingTime="0.00" waitingCount="0" stopTime="0.00" timeLoss="5.80" rerouteNo="1" devices="tripinfo_h317c2:1 routing_h317c2:1 emissions_h317c2:1" vType="default_016" speedFactor="1.12" vaporized="">
        <emissions CO_abs="1660.758961" CO2_abs="112400.778183" HC_abs="10.233204" PMx_abs="2.096004" NOx_abs="46.380040" fuel_abs="48.316090" electricity_abs="0"/>
    </tripinfo>
    <tripinfo id="h4538c1:1" depart="57701.00" departLane="-10427692#1_1" departPos="5.10" departSpeed="0.00" departDelay="0.00" arrival="57742.00" arrivalLane="-128361102#1_1" arrivalPos="274.68" arrivalSpeed="15.69" duration="41.00" routeLength="440.74" waitingTime="2.00" waitingCount="1" stopTime="0.00" timeLoss="13.35" rerouteNo="1" devices="tripinfo_h4538c1:1 routing_h4538c1:1 emissions_h4538c1:1" vType="default_016" speedFactor="1.16" vaporized="">
        <emissions CO_abs="1787.023279" CO2_abs="115404.396393" HC_abs="10.867835" PMx_abs="2.092048" NOx_abs="47.073907" fuel_abs="49.607390" electricity_abs="0"/>
    </tripinfo>
    <tripinfo id="h5979c1:5" depart="57669.00" departLane="399835085#1_1" departPos="5.10" departSpeed="0.00" departDelay="0.00" arrival="57747.00" arrivalLane="-315358254#1_1" arrivalPos="137.16" arrivalSpeed="15.15" duration="78.00" routeLength="659.33" waitingTime="0.00" waitingCount="0" stopTime="0.00" timeLoss="13.72" rerouteNo="1" devices="tripinfo_h5979c1:5 routing_h5979c1:5 emissions_h5979c1:5" vType="default_016" speedFactor="1.14" vaporized="">
        <emissions CO_abs="3250.302099" CO2_abs="172813.585927" HC_abs="18.770707" PMx_abs="2.889178" NOx_abs="70.091210" fuel_abs="74.285868" electricity_abs="0"/>
    </tripinfo>
    <tripinfo id="h12244c1:3" depart="57612.00" departLane="315358244_1" departPos="5.10" departSpeed="0.00" departDelay="0.40" arrival="57749.00" arrivalLane="386687235_1" arrivalPos="80.84" arrivalSpeed="10.52" duration="137.00" routeLength="1186.14" waitingTime="11.00" waitingCount="1" stopTime="0.00" timeLoss="24.68" rerouteNo="1" devices="tripinfo_h12244c1:3 routing_h12244c1:3 emissions_h12244c1:3" vType="default_016" speedFactor="0.77" vaporized="">
        <emissions CO_abs="4831.531259" CO2_abs="255380.012240" HC_abs="27.889602" PMx_abs="4.091742" NOx_abs="102.206438" fuel_abs="109.778306" electricity_abs="0"/>
    </tripinfo>
    <tripinfo id="carIn22761:1" depart="57616.00" departLane="-306240162#1_0" departPos="5.10" departSpeed="0.00" departDelay="2.10" arrival="57751.00" arrivalLane="399835085#1_1" arrivalPos="212.23" arrivalSpeed="8.53" duration="135.00" routeLength="1093.26" waitingTime="35.00" waitingCount="2" stopTime="0.00" timeLoss="61.71" rerouteNo="1" devices="tripinfo_carIn22761:1 routing_carIn22761:1 emissions_carIn22761:1" vType="default_016" speedFactor="1.06" vaporized="">
        <emissions CO_abs="9396.202949" CO2_abs="406258.927356" HC_abs="52.385206" PMx_abs="8.217575" NOx_abs="171.623026" fuel_abs="174.634551" electricity_abs="0"/>
    </tripinfo>
    <tripinfo id="carIn30817:1" depart="57681.00" departLane="315358244_1" departPos="5.10" departSpeed="0.00" departDelay="0.20" arrival="57755.00" arrivalLane="447569997#1_1" arrivalPos="180.93" arrivalSpeed="6.60" duration="74.00" routeLength="718.04" waitingTime="0.00" waitingCount="0" stopTime="0.00" timeLoss="8.17" rerouteNo="1" devices="tripinfo_carIn30817:1 routing_carIn30817:1 emissions_carIn30817:1" vType="default_016" speedFactor="0.94" vaporized="">
        <emissions CO_abs="2296.018566" CO2_abs="136445.464507" HC_abs="13.616478" PMx_abs="2.209711" NOx_abs="54.642833" fuel_abs="58.652529" electricity_abs="0"/>
    </tripinfo>
    <tripinfo id="carIn27009:1" depart="57673.00" departLane="-447569998#1_1" departPos="5.10" departSpeed="0.00" departDelay="0.50" arrival="57771.00" arrivalLane="-26677539_1" arrivalPos="152.75" arrivalSpeed="8.50" duration="98.00" routeLength="699.63" waitingTime="2.00" waitingCount="1" stopTime="0.00" timeLoss="17.56" rerouteNo="1" devices="tripinfo_carIn27009:1 routing_carIn27009:1 emissions_carIn27009:1" vType="default_015" speedFactor="1.04" vaporized="">
        <emissions CO_abs="4065.972802" CO2_abs="193441.136468" HC_abs="22.962945" PMx_abs="3.162396" NOx_abs="78.624162" fuel_abs="83.153270" electricity_abs="0"/>
    </tripinfo>
    <tripinfo id="carIn121703:1" depart="57647.00" departLane="386687232#0_1" departPos="5.10" departSpeed="0.00" departDelay="0.30" arrival="57772.00" arrivalLane="-315358244_1" arrivalPos="33.95" arrivalSpeed="11.90" duration="125.00" routeLength="1157.39" waitingTime="13.00" waitingCount="2" stopTime="0.00" timeLoss="28.04" rerouteNo="1" devices="tripinfo_carIn121703:1 routing_carIn121703:1 emissions_carIn121703:1" vType="default_016" speedFactor="0.87" vaporized="">
        <emissions CO_abs="4460.456332" CO2_abs="272999.404004" HC_abs="26.660232" PMx_abs="4.502468" NOx_abs="109.579641" fuel_abs="117.351477" electricity_abs="0"/>
    </tripinfo>
    <tripinfo id="h330c1:1" depart="57736.00" departLane="-32978638#0_1" departPos="5.10" departSpeed="0.00" departDelay="0.20" arrival="57774.00" arrivalLane="-266565295#5_1" arrivalPos="172.76" arrivalSpeed="11.07" duration="38.00" routeLength="370.53" waitingTime="0.00" waitingCount="0" stopTime="0.00" timeLoss="6.10" rerouteNo="1" devices="tripinfo_h330c1:1 routing_h330c1:1 emissions_h330c1:1" vType="default_016" speedFactor="0.85" vaporized="">
        <emissions CO_abs="1652.833161" CO2_abs="101251.852386" HC_abs="9.878962" PMx_abs="1.668321" NOx_abs="40.758152" fuel_abs="43.524092" electricity_abs="0"/>
    </tripinfo>
    <tripinfo id="h3326c1:2" depart="57656.00" departLane="22716069#0_1" departPos="5.10" departSpeed="0.00" departDelay="0.00" arrival="57775.00" arrivalLane="24634517#13_1" arrivalPos="111.62" arrivalSpeed="12.64" duration="119.00" routeLength="1312.81" waitingTime="0.00" waitingCount="0" stopTime="0.00" timeLoss="13.48" rerouteNo="1" devices="tripinfo_h3326c1:2 routing_h3326c1:2 emissions_h3326c1:2" vType="default_016" speedFactor="0.92" vaporized="">
        <emissions CO_abs="3852.072711" CO2_abs="293667.456444" HC_abs="24.377330" PMx_abs="4.687087" NOx_abs="116.345209" fuel_abs="126.235326" electricity_abs="0"/>
    </tripinfo>
    <tripinfo id="carIn86816:1" depart="57617.00" departLane="128361102#0_1" departPos="5.10" departSpeed="0.00" departDelay="0.80" arrival="57784.00" arrivalLane="201956811#0_1" arrivalPos="40.40" arrivalSpeed="13.59" duration="167.00" routeLength="2067.33" waitingTime="0.00" waitingCount="0" stopTime="0.00" timeLoss="15.63" rerouteNo="1" devices="tripinfo_carIn86816:1 routing_carIn86816:1 emissions_carIn86816:1" vType="default_016" speedFactor="1.00" vaporized="">
        <emissions CO_abs="4669.561742" CO2_abs="403556.327351" HC_abs="30.646510" PMx_abs="6.487165" NOx_abs="158.869177" fuel_abs="173.471465" electricity_abs="0"/>
    </tripinfo>
    <tripinfo id="carIn12365:1" depart="57713.00" departLane="315358244_1" departPos="5.10" departSpeed="0.00" departDelay="0.50" arrival="57796.00" arrivalLane="447569997#1_1" arrivalPos="180.93" arrivalSpeed="7.23" duration="83.00" routeLength="718.04" waitingTime="8.00" waitingCount="1" stopTime="0.00" timeLoss="21.00" rerouteNo="1" devices="tripinfo_carIn12365:1 routing_carIn12365:1 emissions_carIn12365:1" vType="default_016" speedFactor="1.00" vaporized="">
        <emissions CO_abs="3615.959287" CO2_abs="191040.317223" HC_abs="20.889645" PMx_abs="3.244188" NOx_abs="77.238084" fuel_abs="82.120839" electricity_abs="0"/>
    </tripinfo>
    <tripinfo id="carIn118591:1" depart="57689.00" departLane="315358244_1" departPos="5.10" departSpeed="0.00" departDelay="0.20" arrival="57797.00" arrivalLane="386687235_1" arrivalPos="80.84" arrivalSpeed="14.94" duration="108.00" routeLength="1186.14" waitingTime="9.00" waitingCount="3" stopTime="0.00" timeLoss="28.17" rerouteNo="1" devices="tripinfo_carIn118591:1 routing_carIn118591:1 emissions_carIn118591:1" vType="default_016" speedFactor="1.09" vaporized="">
        <emissions CO_abs="4196.464657" CO2_abs="270715.046512" HC_abs="25.357735" PMx_abs="4.749573" NOx_abs="109.171455" fuel_abs="116.369009" electricity_abs="0"/>
    </tripinfo>
    <tripinfo id="carIn28951:1" depart="57606.00" departLane="10425609#0_1" departPos="5.10" departSpeed="0.00" departDelay="0.20" arrival="57799.00" arrivalLane="-128361102#1_1" arrivalPos="274.68" arrivalSpeed="11.90" duration="193.00" routeLength="2113.04" waitingTime="0.00" waitingCount="0" stopTime="0.00" timeLoss="22.49" rerouteNo="1" devices="tripinfo_carIn28951:1 routing_carIn28951:1 emissions_carIn28951:1" vType="default_016" speedFactor="0.91" vaporized="">
        <emissions CO_abs="5844.567141" CO2_abs="442410.720087" HC_abs="36.898496" PMx_abs="6.996220" NOx_abs="174.907093" fuel_abs="190.173947" electricity_abs="0"/>
    </tripinfo>
    <tripinfo id="carIn80064:1" depart="57603.00" departLane="128361109#1_1" departPos="5.10" departSpeed="0.00" departDelay="0.40" arrival="57803.00" arrivalLane="-315358254#1_1" arrivalPos="137.16" arrivalSpeed="10.59" duration="200.00" routeLength="1587.97" waitingTime="59.00" waitingCount="3" stopTime="0.00" timeLoss="94.66" rerouteNo="1" devices="tripinfo_carIn80064:1 routing_carIn80064:1 emissions_carIn80064:1" vType="default_016" speedFactor="0.85" vaporized="">
        <emissions CO_abs="13683.111501" CO2_abs="541124.994313" HC_abs="75.123317" PMx_abs="10.889816" NOx_abs="228.703179" fuel_abs="232.609159" electricity_abs="0"/>
    </tripinfo>
    <tripinfo id="carIn129809:1" depart="57729.00" departLane="-447569998#1_1" departPos="5.10" departSpeed="0.00" departDelay="1.00" arrival="57803.00" arrivalLane="-315358244_1" arrivalPos="33.95" arrivalSpeed="14.11" duration="74.00" routeLength="706.49" waitingTime="0.00" waitingCount="0" stopTime="0.00" timeLoss="15.02" rerouteNo="1" devices="tripinfo_carIn129809:1 routing_carIn129809:1 emissions_carIn129809:1" vType="default_015" speedFactor="1.03" vaporized="">
        <emissions CO_abs="3116.566189" CO2_abs="189961.265927" HC_abs="18.627089" PMx_abs="3.220784" NOx_abs="76.747097" fuel_abs="81.656601" electricity_abs="0"/>
    </tripinfo>
    <tripinfo id="carIn50326:1" depart="57651.00" departLane="128361102#0_1" departPos="5.10" departSpeed="0.00" departDelay="0.30" arrival="57804.00" arrivalLane="18809673#0_1" arrivalPos="473.56" arrivalSpeed="13.45" duration="153.00" routeLength="1591.07" waitingTime="0.00" waitingCount="0" stopTime="0.00" timeLoss="19.67" rerouteNo="1" devices="tripinfo_carIn50326:1 routing_carIn50326:1 emissions_carIn50326:1" vType="default_016" speedFactor="0.98" vaporized="">
        <emissions CO_abs="5138.506270" CO2_abs="351296.250862" HC_abs="31.575648" PMx_abs="5.728968" NOx_abs="140.100566" fuel_abs="151.007780" electricity_abs="0"/>
    </tripinfo>
    <tripinfo id="h7181c1:1" depart="57660.00" departLane="315358254#0_1" departPos="5.10" departSpeed="0.00" departDelay="0.10" arrival="57810.00" arrivalLane="306240162#0_0" arrivalPos="220.43" arrivalSpeed="16.08" duration="150.00" routeLength="932.35" waitingTime="74.00" waitingCount="3" stopTime="0.00" timeLoss="99.59" rerouteNo="1" devices="tripinfo_h7181c1:1 routing_h7181c1:1 emissions_h7181c1:1" vType="default_016" speedFactor="1.01" vaporized="">
        <emissions CO_abs="15081.020132" CO2_abs="485420.706442" HC_abs="80.253549" PMx_abs="10.573878" NOx_abs="210.426637" fuel_abs="208.665161" electricity_abs="0"/>
    </tripinfo>
    <tripinfo id="carIn12858:1" depart="57661.00" departLane="128361109#1_1" departPos="5.10" departSpeed="0.00" departDelay="0.90" arrival="57811.00" arrivalLane="399835085#1_1" arrivalPos="212.23" arrivalSpeed="8.56" duration="150.00" routeLength="1738.12" waitingTime="13.00" waitingCount="2" stopTime="0.00" timeLoss="44.33" rerouteNo="1" devices="tripinfo_carIn12858:1 routing_carIn12858:1 emissions_carIn12858:1" vType="default_016" speedFactor="1.09" vaporized="">
        <emissions CO_abs="9156.075780" CO2_abs="534937.283656" HC_abs="54.473434" PMx_abs="10.521177" NOx_abs="222.147881" fuel_abs="229.946173" electricity_abs="0"/>
    </tripinfo>
    <tripinfo id="carIn77943:1" depart="57608.00" departLane="124812856#0_1" departPos="5.10" departSpeed="0.00" departDelay="2.50" arrival="57820.00" arrivalLane="-128361102#1_1" arrivalPos="274.68" arrivalSpeed="11.86" duration="212.00" routeLength="2250.49" waitingTime="6.00" waitingCount="1" stopTime="0.00" timeLoss="38.23" rerouteNo="1" devices="tripinfo_carIn77943:1 routing_carIn77943:1 emissions_carIn77943:1" vType="default_016" speedFactor="0.94" vaporized="">
        <emissions CO_abs="6869.176793" CO2_abs="507524.599866" HC_abs="43.090879" PMx_abs="8.123396" NOx_abs="201.125211" fuel_abs="218.163700" electricity_abs="0"/>
    </tripinfo>
    <tripinfo id="carIn81046:1" depart="57611.00" departLane="124812856#0_1" departPos="5.10" departSpeed="0.00" departDelay="2.50" arrival="57822.00" arrivalLane="-128361102#1_1" arrivalPos="274.68" arrivalSpeed="13.40" duration="211.00" routeLength="2250.49" waitingTime="4.00" waitingCount="1" stopTime="0.00" timeLoss="53.89" rerouteNo="1" devices="tripinfo_carIn81046:1 routing_carIn81046:1 emissions_carIn81046:1" vType="default_016" speedFactor="1.05" vaporized="">
        <emissions CO_abs="7835.443099" CO2_abs="541673.634858" HC_abs="48.394156" PMx_abs="9.381819" NOx_abs="219.685530" fuel_abs="232.842247" electricity_abs="0"/>
    </tripinfo>
    <tripinfo id="randUni15030:1" depart="57735.00" departLane="386687232#0_1" departPos="5.10" departSpeed="0.00" departDelay="0.10" arrival="57822.00" arrivalLane="26677539_1" arrivalPos="151.98" arrivalSpeed="8.29" duration="87.00" routeLength="919.89" waitingTime="0.00" waitingCount="0" stopTime="0.00" timeLoss="10.62" rerouteNo="1" devices="tripinfo_randUni15030:1 routing_randUni15030:1 emissions_randUni15030:1" vType="random_016" speedFactor="1.08" vaporized="">
        <emissions CO_abs="3419.976748" CO2_abs="218630.189393" HC_abs="20.647495" PMx_abs="3.745214" NOx_abs="88.564292" fuel_abs="93.979994" electricity_abs="0"/>
    </tripinfo>
    <tripinfo id="carIn102915:1" depart="57643.00" departLane="128361102#0_1" departPos="5.10" departSpeed="0.00" departDelay="0.40" arrival="57832.00" arrivalLane="201956811#0_1" arrivalPos="40.40" arrivalSpeed="14.85" duration="189.00" routeLength="2067.33" waitingTime="24.00" waitingCount="2" stopTime="0.00" timeLoss="56.59" rerouteNo="1" devices="tripinfo_carIn102915:1 routing_carIn102915:1 emissions_carIn102915:1" vType="default_016" speedFactor="1.14" vaporized="">
        <emissions CO_abs="8955.420681" CO2_abs="536954.096251" HC_abs="53.116442" PMx_abs="9.784176" NOx_abs="218.977244" fuel_abs="230.813930" electricity_abs="0"/>
    </tripinfo>
    <tripinfo id="h645c1:1" depart="57622.00" departLane="266565295#5_1" departPos="5.10" departSpeed="0.00" departDelay="0.40" arrival="57833.00" arrivalLane="-315358244_1" arrivalPos="33.95" arrivalSpeed="12.12" duration="211.00" routeLength="1910.83" waitingTime="30.00" waitingCount="2" stopTime="0.00" timeLoss="59.01" rerouteNo="1" devices="tripinfo_h645c1:1 routing_h645c1:1 emissions_h645c1:1" vType="default_016" speedFactor="0.91" vaporized="">
        <emissions CO_abs="9472.236680" CO2_abs="486024.670320" HC_abs="54.452560" PMx_abs="8.303221" NOx_abs="196.417610" fuel_abs="208.923407" electricity_abs="0"/>
    </tripinfo>
    <tripinfo id="carIn73855:1" depart="57743.00" departLane="386687232#0_1" departPos="5.10" departSpeed="0.00" departDelay="0.50" arrival="57834.00" arrivalLane="-315358244_1" arrivalPos="33.95" arrivalSpeed="14.26" duration="91.00" routeLength="1157.39" waitingTime="0.00" waitingCount="0" stopTime="0.00" timeLoss="12.33" rerouteNo="1" devices="tripinfo_carIn73855:1 routing_carIn73855:1 emissions_carIn73855:1" vType="default_016" speedFactor="1.07" vaporized="">
        <emissions CO_abs="2897.179000" CO2_abs="239122.395579" HC_abs="18.773807" PMx_abs="3.981151" NOx_abs="94.885274" fuel_abs="102.788323" electricity_abs="0"/>
    </tripinfo>
    <tripinfo id="randUni33724:1" depart="57646.00" departLane="128361102#0_1" departPos="5.10" departSpeed="0.00" departDelay="1.20" arrival="57835.00" arrivalLane="201956811#0_1" arrivalPos="40.40" arrivalSpeed="14.64" duration="189.00" routeLength="2067.33" waitingTime="19.00" waitingCount="2" stopTime="0.00" timeLoss="48.98" rerouteNo="1" devices="tripinfo_randUni33724:1 routing_randUni33724:1 emissions_randUni33724:1" vType="random_016" speedFactor="1.08" vaporized="">
        <emissions CO_abs="8039.808100" CO2_abs="508574.981512" HC_abs="48.525725" PMx_abs="9.143864" NOx_abs="207.150424" fuel_abs="218.614745" electricity_abs="0"/>
    </tripinfo>
    <tripinfo id="h3154c1:1" depart="57658.00" departLane="24634507_1" departPos="5.10" departSpeed="0.00" departDelay="0.00" arrival="57837.00" arrivalLane="-266565295#5_1" arrivalPos="172.76" arrivalSpeed="12.66" duration="179.00" routeLength="1206.22" waitingTime="62.00" waitingCount="2" stopTime="0.00" timeLoss="89.00" rerouteNo="1" devices="tripinfo_h3154c1:1 routing_h3154c1:1 emissions_h3154c1:1" vType="default_016" speedFactor="0.99" vaporized="">
        <emissions CO_abs="13825.390460" CO2_abs="479559.545786" HC_abs="74.221849" PMx_abs="9.453821" NOx_abs="202.514078" fuel_abs="206.146145" electricity_abs="0"/>
    </tripinfo>
    <tripinfo id="50R_frequency3.17" depart="57674.00" departLane="-18809673#6_1" departPos="12.10" departSpeed="0.00" departDelay="0.70" arrival="57838.00" arrivalLane="201956811#0_1" arrivalPos="40.40" arrivalSpeed="11.41" duration="164.00" routeLength="1954.47" waitingTime="0.00" waitingCount="0" stopTime="0.00" timeLoss="19.62" rerouteNo="1" devices="tripinfo_50R_frequency3.17 routing_50R_frequency3.17 emissions_50R_frequency3.17" vType="bus" speedFactor="1.00" vaporized="">
        <emissions CO_abs="3115.006156" CO2_abs="1988921.895226" HC_abs="658.250914" PMx_abs="335.010256" NOx_abs="15327.229703" fuel_abs="848.269458" electricity_abs="0"/>
    </tripinfo>
    <tripinfo id="h3864c1:3" depart="57678.00" departLane="24693977#1_1" departPos="5.10" departSpeed="0.00" departDelay="0.00" arrival="57840.00" arrivalLane="201956820_1" arrivalPos="48.33" arrivalSpeed="13.56" duration="162.00" routeLength="1574.85" waitingTime="11.00" waitingCount="2" stopTime="0.00" timeLoss="39.36" rerouteNo="1" devices="tripinfo_h3864c1:3 routing_h3864c1:3 emissions_h3864c1:3" vType="default_016" speedFactor="1.06" vaporized="">
        <emissions CO_abs="7202.662532" CO2_abs="425485.230828" HC_abs="42.802419" PMx_abs="7.729328" NOx_abs="175.190800" fuel_abs="182.898151" electricity_abs="0"/>
    </tripinfo>
    <tripinfo id="carIn107084:1" depart="57601.00" departLane="124812856#0_1" departPos="5.10" departSpeed="0.00" departDelay="0.70" arrival="57841.00" arrivalLane="-128361102#1_1" arrivalPos="274.68" arrivalSpeed="10.40" duration="240.00" routeLength="2232.46" waitingTime="13.00" waitingCount="3" stopTime="0.00" timeLoss="45.05" rerouteNo="1" devices="tripinfo_carIn107084:1 routing_carIn107084:1 emissions_carIn107084:1" vType="default_016" speedFactor="0.84" vaporized="">
        <emissions CO_abs="7683.080413" CO2_abs="473833.950942" HC_abs="45.968005" PMx_abs="7.633303" NOx_abs="189.307556" fuel_abs="203.682378" electricity_abs="0"/>
    </tripinfo>
    <tripinfo id="h5938c1:1" depart="57740.00" departLane="-26677542#0_1" departPos="5.10" departSpeed="0.00" departDelay="0.00" arrival="57841.00" arrivalLane="447569997#1_1" arrivalPos="180.93" arrivalSpeed="8.41" duration="101.00" routeLength="1093.64" waitingTime="0.00" waitingCount="0" stopTime="0.00" timeLoss="10.13" rerouteNo="1" devices="tripinfo_h5938c1:1 routing_h5938c1:1 emissions_h5938c1:1" vType="default_016" speedFactor="1.07" vaporized="">
        <emissions CO_abs="3381.223245" CO2_abs="240984.060036" HC_abs="20.996387" PMx_abs="3.881270" NOx_abs="95.522143" fuel_abs="103.589094" electricity_abs="0"/>
    </tripinfo>
    <tripinfo id="h19804c1:3" depart="57617.00" departLane="124812856#0_1" departPos="5.10" departSpeed="0.00" departDelay="1.50" arrival="57843.00" arrivalLane="-128361102#1_1" arrivalPos="274.68" arrivalSpeed="13.04" duration="226.00" routeLength="2250.49" waitingTime="16.00" waitingCount="2" stopTime="0.00" timeLoss="60.19" rerouteNo="1" devices="tripinfo_h19804c1:3 routing_h19804c1:3 emissions_h19804c1:3" vType="default_016" speedFactor="0.99" vaporized="">
        <emissions CO_abs="8603.033997" CO2_abs="536432.459350" HC_abs="51.680214" PMx_abs="9.104536" NOx_abs="216.312838" fuel_abs="230.590296" electricity_abs="0"/>
    </tripinfo>
    <tripinfo id="h16072c2:3" depart="57663.00" departLane="315358254#0_1" departPos="5.10" departSpeed="0.00" departDelay="2.50" arrival="57843.00" arrivalLane="386687235_1" arrivalPos="80.84" arrivalSpeed="15.13" duration="180.00" routeLength="1611.92" waitingTime="47.00" waitingCount="3" stopTime="0.00" timeLoss="73.33" rerouteNo="1" devices="tripinfo_h16072c2:3 routing_h16072c2:3 emissions_h16072c2:3" vType="default_016" speedFactor="1.10" vaporized="">
        <emissions CO_abs="10393.108577" CO2_abs="461074.182427" HC_abs="57.983508" PMx_abs="8.589382" NOx_abs="189.522523" fuel_abs="198.198373" electricity_abs="0"/>
    </tripinfo>
    <tripinfo id="carIn7949:1" depart="57676.00" departLane="128361109#1_1" departPos="5.10" departSpeed="0.00" departDelay="2.10" arrival="57843.00" arrivalLane="386687235_2" arrivalPos="80.84" arrivalSpeed="15.41" duration="167.00" routeLength="2088.57" waitingTime="20.00" waitingCount="1" stopTime="0.00" timeLoss="37.54" rerouteNo="1" devices="tripinfo_carIn7949:1 routing_carIn7949:1 emissions_carIn7949:1" vType="default_016" speedFactor="1.16" vaporized="">
        <emissions CO_abs="6139.680593" CO2_abs="419732.091352" HC_abs="37.735231" PMx_abs="7.194845" NOx_abs="165.975639" fuel_abs="180.425355" electricity_abs="0"/>
    </tripinfo>
    <tripinfo id="carIn12775:1" depart="57676.00" departLane="10425609#0_1" departPos="5.10" departSpeed="0.00" departDelay="0.60" arrival="57843.00" arrivalLane="18809673#0_1" arrivalPos="473.56" arrivalSpeed="13.47" duration="167.00" routeLength="1959.45" waitingTime="0.00" waitingCount="0" stopTime="0.00" timeLoss="20.31" rerouteNo="1" devices="tripinfo_carIn12775:1 routing_carIn12775:1 emissions_carIn12775:1" vType="default_016" speedFactor="0.99" vaporized="">
        <emissions CO_abs="4845.303855" CO2_abs="389661.983761" HC_abs="31.123789" PMx_abs="6.200372" NOx_abs="153.508279" fuel_abs="167.499222" electricity_abs="0"/>
    </tripinfo>
    <tripinfo id="carIn81860:1" depart="57712.00" departLane="128361102#0_1" departPos="5.10" departSpeed="0.00" departDelay="0.60" arrival="57844.00" arrivalLane="-24634517#17_1" arrivalPos="6.43" arrivalSpeed="7.39" duration="132.00" routeLength="1229.64" waitingTime="7.00" waitingCount="1" stopTime="0.00" timeLoss="32.02" rerouteNo="1" devices="tripinfo_carIn81860:1 routing_carIn81860:1 emissions_carIn81860:1" vType="default_016" speedFactor="0.90" vaporized="">
        <emissions CO_abs="4532.853180" CO2_abs="270569.972497" HC_abs="26.920397" PMx_abs="4.405688" NOx_abs="108.146549" fuel_abs="116.307354" electricity_abs="0"/>
    </tripinfo>