<?xml version="1.0" encoding="UTF-8"?>

<!-- generated on 2021-10-26 15:09:00 by Eclipse SUMO sumo Version 1.10.0
<configuration xmlns:xsi="http://www.w3.org/2001/XMLSchema-instance" xsi:noNamespaceSchemaLocation="http://sumo.dlr.de/xsd/sumoConfiguration.xsd">

    <input>
        <net-file value="/Users/behradkoohy/sumo-scratchpad/RESCO/environments/ingolstadt21/ingolstadt21.net.xml"/>
        <route-files value="/Users/behradkoohy/sumo-scratchpad/RESCO/environments/ingolstadt21/ingolstadt21.rou.xml"/>
    </input>

    <output>
        <tripinfo-output value="/Users/behradkoohy/sumo-scratchpad/RESCO/logs/IPPO-tr0-ingolstadt21-21-drq_norm-wait_norm/tripinfo_7.xml"/>
        <tripinfo-output.write-unfinished value="true"/>
    </output>

    <time>
        <begin value="57600"/>
        <end value="61200"/>
    </time>

    <processing>
        <time-to-teleport value="-1"/>
    </processing>

    <report>
        <no-warnings value="true"/>
        <no-step-log value="true"/>
    </report>

    <emissions>
        <device.emissions.probability value="1"/>
    </emissions>

    <traci_server>
        <remote-port value="61017"/>
    </traci_server>

    <random_number>
        <random value="true"/>
    </random_number>

</configuration>
-->

<tripinfos xmlns:xsi="http://www.w3.org/2001/XMLSchema-instance" xsi:noNamespaceSchemaLocation="http://sumo.dlr.de/xsd/tripinfo_file.xsd">
    <tripinfo id="h15454c2:3" depart="57612.00" departLane="24608844_1" departPos="5.10" departSpeed="0.00" departDelay="0.50" arrival="57657.00" arrivalLane="32978638#0_1" arrivalPos="49.29" arrivalSpeed="13.70" duration="45.00" routeLength="354.79" waitingTime="2.00" waitingCount="1" stopTime="0.00" timeLoss="12.26" rerouteNo="1" devices="tripinfo_h15454c2:3 routing_h15454c2:3 emissions_h15454c2:3" vType="default_016" speedFactor="1.03" vaporized="">
        <emissions CO_abs="2413.588017" CO2_abs="120425.070731" HC_abs="13.818290" PMx_abs="2.234604" NOx_abs="50.418470" fuel_abs="51.765853" electricity_abs="0"/>
    </tripinfo>
    <tripinfo id="carIn53971:1" depart="57640.00" departLane="272042143_1" departPos="5.10" departSpeed="0.00" departDelay="0.80" arrival="57691.00" arrivalLane="24634414#1_1" arrivalPos="162.19" arrivalSpeed="8.64" duration="51.00" routeLength="493.04" waitingTime="0.00" waitingCount="0" stopTime="0.00" timeLoss="9.12" rerouteNo="1" devices="tripinfo_carIn53971:1 routing_carIn53971:1 emissions_carIn53971:1" vType="default_016" speedFactor="1.10" vaporized="">
        <emissions CO_abs="2468.114618" CO2_abs="144115.899451" HC_abs="14.626137" PMx_abs="2.596081" NOx_abs="59.472907" fuel_abs="61.949376" electricity_abs="0"/>
    </tripinfo>
    <tripinfo id="carIn60260:1" depart="57606.00" departLane="315358254#0_1" departPos="5.10" departSpeed="0.00" departDelay="0.90" arrival="57692.00" arrivalLane="399835085#1_1" arrivalPos="212.23" arrivalSpeed="5.96" duration="86.00" routeLength="430.98" waitingTime="19.00" waitingCount="1" stopTime="0.00" timeLoss="30.04" rerouteNo="1" devices="tripinfo_carIn60260:1 routing_carIn60260:1 emissions_carIn60260:1" vType="default_016" speedFactor="0.82" vaporized="">
        <emissions CO_abs="5008.006686" CO2_abs="152259.915214" HC_abs="26.304683" PMx_abs="2.767562" NOx_abs="63.631013" fuel_abs="65.452096" electricity_abs="0"/>
    </tripinfo>
    <tripinfo id="carIn22761:1" depart="57616.00" departLane="-306240162#1_0" departPos="5.10" departSpeed="0.00" departDelay="2.10" arrival="57705.00" arrivalLane="399835085#1_1" arrivalPos="212.23" arrivalSpeed="5.19" duration="89.00" routeLength="1093.26" waitingTime="0.00" waitingCount="0" stopTime="0.00" timeLoss="20.74" rerouteNo="1" devices="tripinfo_carIn22761:1 routing_carIn22761:1 emissions_carIn22761:1" vType="default_016" speedFactor="1.15" vaporized="">
        <emissions CO_abs="4381.243594" CO2_abs="297764.700423" HC_abs="26.937715" PMx_abs="5.644470" NOx_abs="122.026449" fuel_abs="127.995757" electricity_abs="0"/>
    </tripinfo>
    <tripinfo id="h7800c1:5" depart="57696.00" departLane="-447569998#1_1" departPos="5.10" departSpeed="0.00" departDelay="0.00" arrival="57718.00" arrivalLane="-447569998#1_1" arrivalPos="180.76" arrivalSpeed="8.35" duration="22.00" routeLength="175.66" waitingTime="0.00" waitingCount="0" stopTime="0.00" timeLoss="3.03" rerouteNo="1" devices="tripinfo_h7800c1:5 routing_h7800c1:5 emissions_h7800c1:5" vType="default_016" speedFactor="1.12" vaporized="">
        <emissions CO_abs="966.648284" CO2_abs="46416.087545" HC_abs="5.467633" PMx_abs="0.747238" NOx_abs="18.755600" fuel_abs="19.952592" electricity_abs="0"/>
    </tripinfo>
    <tripinfo id="h3688c1:1" depart="57625.00" departLane="201201950#1_1" departPos="5.10" departSpeed="0.00" departDelay="0.00" arrival="57732.00" arrivalLane="32978638#0_1" arrivalPos="49.29" arrivalSpeed="12.65" duration="107.00" routeLength="1089.75" waitingTime="8.00" waitingCount="1" stopTime="0.00" timeLoss="24.05" rerouteNo="1" devices="tripinfo_h3688c1:1 routing_h3688c1:1 emissions_h3688c1:1" vType="default_016" speedFactor="0.96" vaporized="">
        <emissions CO_abs="3838.129511" CO2_abs="261238.814262" HC_abs="23.576970" PMx_abs="4.319391" NOx_abs="104.348551" fuel_abs="112.295748" electricity_abs="0"/>
    </tripinfo>
    <tripinfo id="h12244c1:3" depart="57612.00" departLane="315358244_1" departPos="5.10" departSpeed="0.00" departDelay="0.40" arrival="57739.00" arrivalLane="386687235_1" arrivalPos="80.84" arrivalSpeed="13.49" duration="127.00" routeLength="1186.14" waitingTime="19.00" waitingCount="2" stopTime="0.00" timeLoss="40.31" rerouteNo="1" devices="tripinfo_h12244c1:3 routing_h12244c1:3 emissions_h12244c1:3" vType="default_016" speedFactor="1.01" vaporized="">
        <emissions CO_abs="5421.982383" CO2_abs="312144.342587" HC_abs="31.949315" PMx_abs="5.395371" NOx_abs="126.058958" fuel_abs="134.178288" electricity_abs="0"/>
    </tripinfo>
    <tripinfo id="h9563c2:5" depart="57631.00" departLane="315358244_1" departPos="5.10" departSpeed="0.00" departDelay="0.70" arrival="57740.00" arrivalLane="386687235_1" arrivalPos="80.84" arrivalSpeed="16.90" duration="109.00" routeLength="1186.14" waitingTime="11.00" waitingCount="1" stopTime="0.00" timeLoss="38.54" rerouteNo="1" devices="tripinfo_h9563c2:5 routing_h9563c2:5 emissions_h9563c2:5" vType="default_016" speedFactor="1.22" vaporized="">
        <emissions CO_abs="4870.816007" CO2_abs="310843.228154" HC_abs="29.483728" PMx_abs="5.687829" NOx_abs="127.296339" fuel_abs="133.618085" electricity_abs="0"/>
    </tripinfo>
    <tripinfo id="h3568c1:3" depart="57656.00" departLane="266565295#5_1" departPos="5.10" departSpeed="0.00" departDelay="0.80" arrival="57741.00" arrivalLane="-24634415_1" arrivalPos="62.03" arrivalSpeed="11.58" duration="85.00" routeLength="807.40" waitingTime="0.00" waitingCount="0" stopTime="0.00" timeLoss="14.10" rerouteNo="1" devices="tripinfo_h3568c1:3 routing_h3568c1:3 emissions_h3568c1:3" vType="default_016" speedFactor="0.91" vaporized="">
        <emissions CO_abs="3312.459974" CO2_abs="197610.865611" HC_abs="19.677683" PMx_abs="3.278414" NOx_abs="79.635162" fuel_abs="84.944995" electricity_abs="0"/>
    </tripinfo>
    <tripinfo id="h4538c1:1" depart="57701.00" departLane="-10427692#1_1" departPos="5.10" departSpeed="0.00" departDelay="0.00" arrival="57761.00" arrivalLane="-128361102#1_1" arrivalPos="274.68" arrivalSpeed="12.13" duration="60.00" routeLength="440.74" waitingTime="14.00" waitingCount="1" stopTime="0.00" timeLoss="23.55" rerouteNo="1" devices="tripinfo_h4538c1:1 routing_h4538c1:1 emissions_h4538c1:1" vType="default_016" speedFactor="0.88" vaporized="">
        <emissions CO_abs="2901.164610" CO2_abs="130498.670780" HC_abs="16.250263" PMx_abs="2.307570" NOx_abs="53.505397" fuel_abs="56.096544" electricity_abs="0"/>
    </tripinfo>
    <tripinfo id="h5979c1:5" depart="57669.00" departLane="399835085#1_1" departPos="5.10" departSpeed="0.00" departDelay="0.00" arrival="57764.00" arrivalLane="-315358254#1_1" arrivalPos="137.16" arrivalSpeed="11.66" duration="95.00" routeLength="659.33" waitingTime="0.00" waitingCount="0" stopTime="0.00" timeLoss="13.53" rerouteNo="1" devices="tripinfo_h5979c1:5 routing_h5979c1:5 emissions_h5979c1:5" vType="default_016" speedFactor="0.90" vaporized="">
        <emissions CO_abs="3797.121002" CO2_abs="173735.505882" HC_abs="21.281406" PMx_abs="2.835838" NOx_abs="70.510678" fuel_abs="74.682679" electricity_abs="0"/>
    </tripinfo>
    <tripinfo id="carIn27009:1" depart="57673.00" departLane="-447569998#1_1" departPos="5.10" departSpeed="0.00" departDelay="0.50" arrival="57774.00" arrivalLane="-26677539_1" arrivalPos="152.75" arrivalSpeed="7.20" duration="101.00" routeLength="699.63" waitingTime="0.00" waitingCount="0" stopTime="0.00" timeLoss="12.11" rerouteNo="1" devices="tripinfo_carIn27009:1 routing_carIn27009:1 emissions_carIn27009:1" vType="default_015" speedFactor="0.94" vaporized="">
        <emissions CO_abs="3831.452208" CO2_abs="170110.421288" HC_abs="21.331424" PMx_abs="2.692037" NOx_abs="68.706260" fuel_abs="73.124589" electricity_abs="0"/>
    </tripinfo>
    <tripinfo id="h3154c1:1" depart="57658.00" departLane="24634507_1" departPos="5.10" departSpeed="0.00" departDelay="0.00" arrival="57777.00" arrivalLane="-266565295#5_1" arrivalPos="172.76" arrivalSpeed="12.88" duration="119.00" routeLength="1206.22" waitingTime="9.00" waitingCount="1" stopTime="0.00" timeLoss="30.71" rerouteNo="1" devices="tripinfo_h3154c1:1 routing_h3154c1:1 emissions_h3154c1:1" vType="default_016" speedFactor="1.01" vaporized="">
        <emissions CO_abs="5246.526329" CO2_abs="317148.674636" HC_abs="31.344991" PMx_abs="5.654618" NOx_abs="129.483252" fuel_abs="136.328939" electricity_abs="0"/>
    </tripinfo>
    <tripinfo id="carIn86816:1" depart="57617.00" departLane="128361102#0_1" departPos="5.10" departSpeed="0.00" departDelay="0.80" arrival="57782.00" arrivalLane="201956811#0_1" arrivalPos="40.40" arrivalSpeed="14.91" duration="165.00" routeLength="2067.33" waitingTime="4.00" waitingCount="2" stopTime="0.00" timeLoss="31.50" rerouteNo="1" devices="tripinfo_carIn86816:1 routing_carIn86816:1 emissions_carIn86816:1" vType="default_016" speedFactor="1.13" vaporized="">
        <emissions CO_abs="6241.297888" CO2_abs="471317.142852" HC_abs="39.421874" PMx_abs="8.310855" NOx_abs="190.096610" fuel_abs="202.598475" electricity_abs="0"/>
    </tripinfo>
    <tripinfo id="h317c2:1" depart="57707.00" departLane="-32978638#0_1" departPos="5.10" departSpeed="0.00" departDelay="0.10" arrival="57787.00" arrivalLane="-266565295#5_1" arrivalPos="172.76" arrivalSpeed="12.01" duration="80.00" routeLength="370.53" waitingTime="40.00" waitingCount="1" stopTime="0.00" timeLoss="49.68" rerouteNo="1" devices="tripinfo_h317c2:1 routing_h317c2:1 emissions_h317c2:1" vType="default_016" speedFactor="0.92" vaporized="">
        <emissions CO_abs="8168.580415" CO2_abs="213263.311644" HC_abs="42.197394" PMx_abs="4.499602" NOx_abs="92.256133" fuel_abs="91.675806" electricity_abs="0"/>
    </tripinfo>
    <tripinfo id="h330c1:1" depart="57736.00" departLane="-32978638#0_1" departPos="5.10" departSpeed="0.00" departDelay="0.20" arrival="57789.00" arrivalLane="-266565295#5_1" arrivalPos="172.76" arrivalSpeed="12.65" duration="53.00" routeLength="370.53" waitingTime="13.00" waitingCount="1" stopTime="0.00" timeLoss="23.59" rerouteNo="1" devices="tripinfo_h330c1:1 routing_h330c1:1 emissions_h330c1:1" vType="default_016" speedFactor="0.96" vaporized="">
        <emissions CO_abs="3627.577408" CO2_abs="143364.177396" HC_abs="19.878813" PMx_abs="2.713295" NOx_abs="59.916843" fuel_abs="61.627055" electricity_abs="0"/>
    </tripinfo>
    <tripinfo id="h3326c1:2" depart="57656.00" departLane="22716069#0_1" departPos="5.10" departSpeed="0.00" departDelay="0.00" arrival="57792.00" arrivalLane="24634517#13_1" arrivalPos="111.62" arrivalSpeed="11.60" duration="136.00" routeLength="1312.81" waitingTime="0.00" waitingCount="0" stopTime="0.00" timeLoss="19.72" rerouteNo="1" devices="tripinfo_h3326c1:2 routing_h3326c1:2 emissions_h3326c1:2" vType="default_016" speedFactor="0.84" vaporized="">
        <emissions CO_abs="4815.479913" CO2_abs="303361.268645" HC_abs="28.960159" PMx_abs="4.884951" NOx_abs="121.289847" fuel_abs="130.402853" electricity_abs="0"/>
    </tripinfo>
    <tripinfo id="carIn30817:1" depart="57681.00" departLane="315358244_1" departPos="5.10" departSpeed="0.00" departDelay="0.20" arrival="57793.00" arrivalLane="447569997#1_1" arrivalPos="180.93" arrivalSpeed="6.93" duration="112.00" routeLength="718.04" waitingTime="28.00" waitingCount="2" stopTime="0.00" timeLoss="45.43" rerouteNo="1" devices="tripinfo_carIn30817:1 routing_carIn30817:1 emissions_carIn30817:1" vType="default_016" speedFactor="0.92" vaporized="">
        <emissions CO_abs="6425.695030" CO2_abs="228876.585935" HC_abs="34.579760" PMx_abs="4.217101" NOx_abs="95.132301" fuel_abs="98.386430" electricity_abs="0"/>
    </tripinfo>
    <tripinfo id="carIn129809:1" depart="57729.00" departLane="-447569998#1_1" departPos="5.10" departSpeed="0.00" departDelay="1.00" arrival="57798.00" arrivalLane="-315358244_1" arrivalPos="33.95" arrivalSpeed="13.01" duration="69.00" routeLength="706.49" waitingTime="0.00" waitingCount="0" stopTime="0.00" timeLoss="8.48" rerouteNo="1" devices="tripinfo_carIn129809:1 routing_carIn129809:1 emissions_carIn129809:1" vType="default_015" speedFactor="1.00" vaporized="">
        <emissions CO_abs="2266.454868" CO2_abs="154361.908305" HC_abs="13.874268" PMx_abs="2.398966" NOx_abs="60.685615" fuel_abs="66.354019" electricity_abs="0"/>
    </tripinfo>
    <tripinfo id="carIn107282:1" depart="57749.00" departLane="-447569998#1_1" departPos="5.10" departSpeed="0.00" departDelay="0.00" arrival="57798.00" arrivalLane="315358242#0_1" arrivalPos="165.37" arrivalSpeed="12.31" duration="49.00" routeLength="448.50" waitingTime="0.00" waitingCount="0" stopTime="0.00" timeLoss="4.88" rerouteNo="1" devices="tripinfo_carIn107282:1 routing_carIn107282:1 emissions_carIn107282:1" vType="default_016" speedFactor="0.96" vaporized="">
        <emissions CO_abs="1935.967238" CO2_abs="111181.979742" HC_abs="11.396266" PMx_abs="1.842130" NOx_abs="44.884612" fuel_abs="47.792735" electricity_abs="0"/>
    </tripinfo>
    <tripinfo id="carIn50326:1" depart="57651.00" departLane="128361102#0_1" departPos="5.10" departSpeed="0.00" departDelay="0.30" arrival="57811.00" arrivalLane="18809673#0_1" arrivalPos="473.56" arrivalSpeed="13.75" duration="160.00" routeLength="1591.07" waitingTime="13.00" waitingCount="1" stopTime="0.00" timeLoss="34.29" rerouteNo="1" devices="tripinfo_carIn50326:1 routing_carIn50326:1 emissions_carIn50326:1" vType="default_016" speedFactor="1.03" vaporized="">
        <emissions CO_abs="6238.200046" CO2_abs="372641.999298" HC_abs="37.052990" PMx_abs="6.143352" NOx_abs="148.620255" fuel_abs="160.184050" electricity_abs="0"/>
    </tripinfo>
    <tripinfo id="carIn82278:1" depart="57702.00" departLane="-306240162#1_0" departPos="5.10" departSpeed="0.00" departDelay="0.70" arrival="57816.00" arrivalLane="399835085#1_1" arrivalPos="212.23" arrivalSpeed="7.80" duration="114.00" routeLength="1093.26" waitingTime="11.00" waitingCount="2" stopTime="0.00" timeLoss="32.96" rerouteNo="1" devices="tripinfo_carIn82278:1 routing_carIn82278:1 emissions_carIn82278:1" vType="default_016" speedFactor="0.96" vaporized="">
        <emissions CO_abs="6032.056712" CO2_abs="312285.735980" HC_abs="34.768671" PMx_abs="5.825815" NOx_abs="128.165681" fuel_abs="134.239001" electricity_abs="0"/>
    </tripinfo>
    <tripinfo id="S5R_frequency1.2" depart="57634.00" departLane="315358250#0_1" departPos="12.10" departSpeed="0.00" departDelay="22.40" arrival="57818.00" arrivalLane="386687235_1" arrivalPos="80.84" arrivalSpeed="12.91" duration="184.00" routeLength="1115.62" waitingTime="66.00" waitingCount="3" stopTime="0.00" timeLoss="102.66" rerouteNo="1" devices="tripinfo_S5R_frequency1.2 routing_S5R_frequency1.2 emissions_S5R_frequency1.2" vType="bus" speedFactor="1.00" vaporized="">
        <emissions CO_abs="3580.562471" CO2_abs="1796815.927763" HC_abs="780.568411" PMx_abs="373.671950" NOx_abs="15154.145208" fuel_abs="766.171247" electricity_abs="0"/>
    </tripinfo>
    <tripinfo id="carIn102915:1" depart="57643.00" departLane="128361102#0_1" departPos="5.10" departSpeed="0.00" departDelay="0.40" arrival="57821.00" arrivalLane="201956811#0_1" arrivalPos="40.40" arrivalSpeed="12.64" duration="178.00" routeLength="2067.33" waitingTime="4.00" waitingCount="1" stopTime="0.00" timeLoss="23.07" rerouteNo="1" devices="tripinfo_carIn102915:1 routing_carIn102915:1 emissions_carIn102915:1" vType="default_016" speedFactor="0.98" vaporized="">
        <emissions CO_abs="5240.813484" CO2_abs="430286.064848" HC_abs="33.886650" PMx_abs="6.792438" NOx_abs="168.982136" fuel_abs="184.961810" electricity_abs="0"/>
    </tripinfo>
    <tripinfo id="h7181c1:1" depart="57660.00" departLane="315358254#0_1" departPos="5.10" departSpeed="0.00" departDelay="0.10" arrival="57822.00" arrivalLane="306240162#0_0" arrivalPos="220.43" arrivalSpeed="15.71" duration="162.00" routeLength="932.35" waitingTime="90.00" waitingCount="2" stopTime="0.00" timeLoss="107.28" rerouteNo="1" devices="tripinfo_h7181c1:1 routing_h7181c1:1 emissions_h7181c1:1" vType="default_016" speedFactor="0.94" vaporized="">
        <emissions CO_abs="16821.181375" CO2_abs="462305.265631" HC_abs="87.562932" PMx_abs="10.121217" NOx_abs="200.570082" fuel_abs="198.730695" electricity_abs="0"/>
    </tripinfo>
    <tripinfo id="randUni33724:1" depart="57646.00" departLane="128361102#0_1" departPos="5.10" departSpeed="0.00" departDelay="1.20" arrival="57823.00" arrivalLane="201956811#0_1" arrivalPos="40.40" arrivalSpeed="13.15" duration="177.00" routeLength="2067.33" waitingTime="3.00" waitingCount="1" stopTime="0.00" timeLoss="28.74" rerouteNo="1" devices="tripinfo_randUni33724:1 routing_randUni33724:1 emissions_randUni33724:1" vType="random_016" speedFactor="1.02" vaporized="">
        <emissions CO_abs="5749.907688" CO2_abs="441547.845043" HC_abs="36.467376" PMx_abs="7.236598" NOx_abs="175.351038" fuel_abs="189.802655" electricity_abs="0"/>
    </tripinfo>
    <tripinfo id="carIn12365:1" depart="57713.00" departLane="315358244_1" departPos="5.10" departSpeed="0.00" departDelay="0.50" arrival="57828.00" arrivalLane="447569997#1_1" arrivalPos="180.93" arrivalSpeed="7.35" duration="115.00" routeLength="718.04" waitingTime="38.00" waitingCount="1" stopTime="0.00" timeLoss="51.10" rerouteNo="1" devices="tripinfo_carIn12365:1 routing_carIn12365:1 emissions_carIn12365:1" vType="default_016" speedFactor="0.97" vaporized="">
        <emissions CO_abs="8437.184218" CO2_abs="264657.561772" HC_abs="44.602081" PMx_abs="5.184954" NOx_abs="111.831246" fuel_abs="113.767889" electricity_abs="0"/>
    </tripinfo>
    <tripinfo id="carIn12858:1" depart="57661.00" departLane="128361109#1_1" departPos="5.10" departSpeed="0.00" departDelay="0.90" arrival="57829.00" arrivalLane="399835085#1_1" arrivalPos="212.23" arrivalSpeed="8.56" duration="168.00" routeLength="1738.12" waitingTime="27.00" waitingCount="3" stopTime="0.00" timeLoss="68.39" rerouteNo="1" devices="tripinfo_carIn12858:1 routing_carIn12858:1 emissions_carIn12858:1" vType="default_016" speedFactor="1.17" vaporized="">
        <emissions CO_abs="10849.235165" CO2_abs="577707.857030" HC_abs="63.192291" PMx_abs="11.665366" NOx_abs="242.380317" fuel_abs="248.331674" electricity_abs="0"/>
    </tripinfo>
    <tripinfo id="h11737c1:1" depart="57665.00" departLane="272042143_1" departPos="5.10" departSpeed="0.00" departDelay="1.50" arrival="57850.00" arrivalLane="-315358254#1_1" arrivalPos="137.16" arrivalSpeed="10.30" duration="185.00" routeLength="1596.88" waitingTime="14.00" waitingCount="2" stopTime="0.00" timeLoss="36.79" rerouteNo="1" devices="tripinfo_h11737c1:1 routing_h11737c1:1 emissions_h11737c1:1" vType="default_016" speedFactor="0.79" vaporized="">
        <emissions CO_abs="6293.677544" CO2_abs="355467.913902" HC_abs="36.826697" PMx_abs="5.464732" NOx_abs="140.612394" fuel_abs="152.802348" electricity_abs="0"/>
    </tripinfo>
    <tripinfo id="carIn126288:1" depart="57674.00" departLane="272042143_1" departPos="5.10" departSpeed="0.00" departDelay="0.00" arrival="57852.00" arrivalLane="-315358254#1_1" arrivalPos="137.16" arrivalSpeed="10.93" duration="178.00" routeLength="1596.88" waitingTime="8.00" waitingCount="2" stopTime="0.00" timeLoss="35.30" rerouteNo="1" devices="tripinfo_carIn126288:1 routing_carIn126288:1 emissions_carIn126288:1" vType="default_016" speedFactor="0.82" vaporized="">
        <emissions CO_abs="5977.286376" CO2_abs="368096.506696" HC_abs="35.729326" PMx_abs="5.845445" NOx_abs="146.773559" fuel_abs="158.230164" electricity_abs="0"/>
    </tripinfo>
    <tripinfo id="h17600c1:1" depart="57662.00" departLane="272042143_1" departPos="5.10" departSpeed="0.00" departDelay="0.30" arrival="57855.00" arrivalLane="201238729#3_1" arrivalPos="431.02" arrivalSpeed="13.45" duration="193.00" routeLength="2100.26" waitingTime="24.00" waitingCount="1" stopTime="0.00" timeLoss="43.83" rerouteNo="1" devices="tripinfo_h17600c1:1 routing_h17600c1:1 emissions_h17600c1:1" vType="default_016" speedFactor="1.02" vaporized="">
        <emissions CO_abs="7329.243033" CO2_abs="456586.773538" HC_abs="43.937405" PMx_abs="7.369539" NOx_abs="179.418361" fuel_abs="196.268725" electricity_abs="0"/>
    </tripinfo>
    <tripinfo id="randUni15030:1" depart="57735.00" departLane="386687232#0_1" departPos="5.10" departSpeed="0.00" departDelay="0.10" arrival="57859.00" arrivalLane="26677539_1" arrivalPos="151.98" arrivalSpeed="7.04" duration="124.00" routeLength="919.89" waitingTime="25.00" waitingCount="1" stopTime="0.00" timeLoss="40.67" rerouteNo="1" devices="tripinfo_randUni15030:1 routing_randUni15030:1 emissions_randUni15030:1" vType="random_016" speedFactor="1.00" vaporized="">
        <emissions CO_abs="7088.612064" CO2_abs="282096.663533" HC_abs="38.829456" PMx_abs="5.067808" NOx_abs="116.038779" fuel_abs="121.263495" electricity_abs="0"/>
    </tripinfo>
    <tripinfo id="carIn100288:1" depart="57664.00" departLane="128361102#0_1" departPos="5.10" departSpeed="0.00" departDelay="0.60" arrival="57863.00" arrivalLane="201956811#0_1" arrivalPos="40.40" arrivalSpeed="14.14" duration="199.00" routeLength="2067.33" waitingTime="25.00" waitingCount="3" stopTime="0.00" timeLoss="55.18" rerouteNo="1" devices="tripinfo_carIn100288:1 routing_carIn100288:1 emissions_carIn100288:1" vType="default_016" speedFactor="1.06" vaporized="">
        <emissions CO_abs="8431.539065" CO2_abs="496417.476946" HC_abs="49.892857" PMx_abs="8.589716" NOx_abs="199.591467" fuel_abs="213.389799" electricity_abs="0"/>
    </tripinfo>
    <tripinfo id="carIn29531:1" depart="57667.00" departLane="128361102#0_1" departPos="5.10" departSpeed="0.00" departDelay="1.60" arrival="57865.00" arrivalLane="201956811#0_1" arrivalPos="40.40" arrivalSpeed="13.47" duration="198.00" routeLength="2067.33" waitingTime="19.00" waitingCount="2" stopTime="0.00" timeLoss="47.88" rerouteNo="1" devices="tripinfo_carIn29531:1 routing_carIn29531:1 emissions_carIn29531:1" vType="default_016" speedFactor="1.01" vaporized="">
        <emissions CO_abs="7526.142359" CO2_abs="468463.127002" HC_abs="45.208819" PMx_abs="7.912903" NOx_abs="187.715199" fuel_abs="201.373240" electricity_abs="0"/>
    </tripinfo>
    <tripinfo id="h645c1:1" depart="57622.00" departLane="266565295#5_1" departPos="5.10" departSpeed="0.00" departDelay="0.40" arrival="57873.00" arrivalLane="-315358244_1" arrivalPos="33.95" arrivalSpeed="15.67" duration="251.00" routeLength="1910.83" waitingTime="98.00" waitingCount="4" stopTime="0.00" timeLoss="130.27" rerouteNo="1" devices="tripinfo_h645c1:1 routing_h645c1:1 emissions_h645c1:1" vType="default_016" speedFactor="1.15" vaporized="">
        <emissions CO_abs="19857.777780" CO2_abs="703322.917707" HC_abs="106.767366" PMx_abs="14.060191" NOx_abs="295.684317" fuel_abs="302.333880" electricity_abs="0"/>
    </tripinfo>
    <tripinfo id="carIn121703:1" depart="57647.00" departLane="386687232#0_1" departPos="5.10" departSpeed="0.00" departDelay="0.30" arrival="57873.00" arrivalLane="-315358244_2" arrivalPos="33.95" arrivalSpeed="15.33" duration="226.00" routeLength="1157.39" waitingTime="127.00" waitingCount="3" stopTime="0.00" timeLoss="152.46" rerouteNo="1" devices="tripinfo_carIn121703:1 routing_carIn121703:1 emissions_carIn121703:1" vType="default_016" speedFactor="1.15" vaporized="">
        <emissions CO_abs="23190.049212" CO2_abs="606451.584847" HC_abs="119.738806" PMx_abs="13.040237" NOx_abs="262.089346" fuel_abs="260.695968" electricity_abs="0"/>
    </tripinfo>
    <tripinfo id="carIn8642:1" depart="57774.00" departLane="-447569998#1_1" departPos="5.10" departSpeed="0.00" departDelay="0.90" arrival="57876.00" arrivalLane="-315358244_1" arrivalPos="33.95" arrivalSpeed="13.50" duration="102.00" routeLength="706.49" waitingTime="26.00" waitingCount="2" stopTime="0.00" timeLoss="42.09" rerouteNo="1" devices="tripinfo_carIn8642:1 routing_carIn8642:1 emissions_carIn8642:1" vType="default_016" speedFactor="1.01" vaporized="">
        <emissions CO_abs="6654.069406" CO2_abs="240125.269856" HC_abs="35.886323" PMx_abs="4.453644" NOx_abs="99.638490" fuel_abs="103.221782" electricity_abs="0"/>
    </tripinfo>
    <tripinfo id="carIn28951:1" depart="57606.00" departLane="10425609#0_1" departPos="5.10" departSpeed="0.00" departDelay="0.20" arrival="57877.00" arrivalLane="-128361102#1_1" arrivalPos="274.68" arrivalSpeed="12.65" duration="271.00" routeLength="2113.04" waitingTime="88.00" waitingCount="1" stopTime="0.00" timeLoss="112.16" rerouteNo="1" devices="tripinfo_carIn28951:1 routing_carIn28951:1 emissions_carIn28951:1" vType="default_016" speedFactor="0.97" vaporized="">
        <emissions CO_abs="18861.485359" CO2_abs="648180.468259" HC_abs="101.051091" PMx_abs="12.386716" NOx_abs="270.023114" fuel_abs="278.631346" electricity_abs="0"/>
    </tripinfo>
    <tripinfo id="carIn70533:1" depart="57812.00" departLane="-447569998#1_1" departPos="5.10" departSpeed="0.00" departDelay="0.10" arrival="57878.00" arrivalLane="-315358244_1" arrivalPos="33.95" arrivalSpeed="13.69" duration="66.00" routeLength="706.49" waitingTime="0.00" waitingCount="0" stopTime="0.00" timeLoss="7.05" rerouteNo="1" devices="tripinfo_carIn70533:1 routing_carIn70533:1 emissions_carIn70533:1" vType="default_016" speedFactor="1.03" vaporized="">
        <emissions CO_abs="2292.675802" CO2_abs="160548.941379" HC_abs="14.174079" PMx_abs="2.678904" NOx_abs="64.295027" fuel_abs="69.013242" electricity_abs="0"/>
    </tripinfo>
    <tripinfo id="h17549c1:1" depart="57680.00" departLane="-447569998#1_1" departPos="5.10" departSpeed="0.00" departDelay="0.00" arrival="57879.00" arrivalLane="-315358254#1_1" arrivalPos="137.16" arrivalSpeed="11.11" duration="199.00" routeLength="1746.60" waitingTime="11.00" waitingCount="1" stopTime="0.00" timeLoss="33.34" rerouteNo="1" devices="tripinfo_h17549c1:1 routing_h17549c1:1 emissions_h17549c1:1" vType="default_016" speedFactor="0.82" vaporized="">
        <emissions CO_abs="7019.470204" CO2_abs="400600.847859" HC_abs="41.145886" PMx_abs="6.017357" NOx_abs="157.409599" fuel_abs="172.203474" electricity_abs="0"/>
    </tripinfo>
    <tripinfo id="h20540c1:1" depart="57634.00" departLane="10425609#0_1" departPos="5.10" departSpeed="0.00" departDelay="0.50" arrival="57880.00" arrivalLane="-128361102#1_1" arrivalPos="274.68" arrivalSpeed="12.39" duration="246.00" routeLength="2113.04" waitingTime="52.00" waitingCount="3" stopTime="0.00" timeLoss="82.77" rerouteNo="1" devices="tripinfo_h20540c1:1 routing_h20540c1:1 emissions_h20540c1:1" vType="default_016" speedFactor="0.95" vaporized="">
        <emissions CO_abs="12848.209660" CO2_abs="584924.286165" HC_abs="72.178776" PMx_abs="10.484667" NOx_abs="239.595663" fuel_abs="251.437052" electricity_abs="0"/>
    </tripinfo>
    <tripinfo id="h5239c1:3" depart="57834.00" departLane="315358254#0_1" departPos="5.10" departSpeed="0.00" departDelay="0.80" arrival="57880.00" arrivalLane="224892361#3_1" arrivalPos="220.30" arrivalSpeed="24.01" duration="46.00" routeLength="793.34" waitingTime="0.00" waitingCount="0" stopTime="0.00" timeLoss="8.62" rerouteNo="1" devices="tripinfo_h5239c1:3 routing_h5239c1:3 emissions_h5239c1:3" vType="default_016" speedFactor="1.10" vaporized="">
        <emissions CO_abs="3931.548149" CO2_abs="267410.217907" HC_abs="24.409980" PMx_abs="5.611304" NOx_abs="111.527104" fuel_abs="114.947071" electricity_abs="0"/>
    </tripinfo>
    <tripinfo id="randUni3548:1" depart="57726.00" departLane="-447569998#1_1" departPos="5.10" departSpeed="0.00" departDelay="0.00" arrival="57881.00" arrivalLane="-315358254#1_1" arrivalPos="137.16" arrivalSpeed="15.16" duration="155.00" routeLength="1746.60" waitingTime="11.00" waitingCount="2" stopTime="0.00" timeLoss="43.87" rerouteNo="1" devices="tripinfo_randUni3548:1 routing_randUni3548:1 emissions_randUni3548:1" vType="random_016" speedFactor="1.23" vaporized="">
        <emissions CO_abs="6369.416485" CO2_abs="430509.919528" HC_abs="39.000775" PMx_abs="7.734734" NOx_abs="174.409075" fuel_abs="185.057605" electricity_abs="0"/>
    </tripinfo>
    <tripinfo id="randUni31145:1" depart="57814.00" departLane="10425609#0_1" departPos="5.10" departSpeed="0.00" departDelay="0.30" arrival="57881.00" arrivalLane="201956810_1" arrivalPos="71.65" arrivalSpeed="11.90" duration="67.00" routeLength="255.78" waitingTime="32.00" waitingCount="2" stopTime="0.00" timeLoss="46.45" rerouteNo="1" devices="tripinfo_randUni31145:1 routing_randUni31145:1 emissions_randUni31145:1" vType="random_016" speedFactor="0.94" vaporized="">
        <emissions CO_abs="6115.327155" CO2_abs="170947.488050" HC_abs="31.889499" PMx_abs="3.743177" NOx_abs="75.195835" fuel_abs="73.484826" electricity_abs="0"/>
    </tripinfo>