<?xml version="1.0" encoding="UTF-8"?>

<!-- generated on 2021-10-26 17:56:20 by Eclipse SUMO sumo Version 1.10.0
<configuration xmlns:xsi="http://www.w3.org/2001/XMLSchema-instance" xsi:noNamespaceSchemaLocation="http://sumo.dlr.de/xsd/sumoConfiguration.xsd">

    <input>
        <net-file value="/Users/behradkoohy/sumo-scratchpad/RESCO/environments/ingolstadt21/ingolstadt21.net.xml"/>
        <route-files value="/Users/behradkoohy/sumo-scratchpad/RESCO/environments/ingolstadt21/ingolstadt21.rou.xml"/>
    </input>

    <output>
        <tripinfo-output value="/Users/behradkoohy/sumo-scratchpad/RESCO/logs/IPPO-tr0-ingolstadt21-21-drq_norm-wait_norm/tripinfo_31.xml"/>
        <tripinfo-output.write-unfinished value="true"/>
    </output>

    <time>
        <begin value="57600"/>
        <end value="61200"/>
    </time>

    <processing>
        <time-to-teleport value="-1"/>
    </processing>

    <report>
        <no-warnings value="true"/>
        <no-step-log value="true"/>
    </report>

    <emissions>
        <device.emissions.probability value="1"/>
    </emissions>

    <traci_server>
        <remote-port value="61827"/>
    </traci_server>

    <random_number>
        <random value="true"/>
    </random_number>

</configuration>
-->

<tripinfos xmlns:xsi="http://www.w3.org/2001/XMLSchema-instance" xsi:noNamespaceSchemaLocation="http://sumo.dlr.de/xsd/tripinfo_file.xsd">
    <tripinfo id="carIn60260:1" depart="57606.00" departLane="315358254#0_1" departPos="5.10" departSpeed="0.00" departDelay="0.90" arrival="57682.00" arrivalLane="399835085#1_1" arrivalPos="212.23" arrivalSpeed="8.18" duration="76.00" routeLength="430.98" waitingTime="21.00" waitingCount="1" stopTime="0.00" timeLoss="31.46" rerouteNo="1" devices="tripinfo_carIn60260:1 routing_carIn60260:1 emissions_carIn60260:1" vType="default_016" speedFactor="1.03" vaporized="">
        <emissions CO_abs="5001.868157" CO2_abs="163553.062096" HC_abs="26.585836" PMx_abs="3.148478" NOx_abs="69.219713" fuel_abs="70.306127" electricity_abs="0"/>
    </tripinfo>
    <tripinfo id="h15454c2:3" depart="57612.00" departLane="24608844_1" departPos="5.10" departSpeed="0.00" departDelay="0.50" arrival="57690.00" arrivalLane="32978638#0_1" arrivalPos="49.29" arrivalSpeed="10.76" duration="78.00" routeLength="354.79" waitingTime="21.00" waitingCount="2" stopTime="0.00" timeLoss="36.34" rerouteNo="1" devices="tripinfo_h15454c2:3 routing_h15454c2:3 emissions_h15454c2:3" vType="default_016" speedFactor="0.83" vaporized="">
        <emissions CO_abs="5247.652632" CO2_abs="156759.826837" HC_abs="27.528321" PMx_abs="3.006329" NOx_abs="66.428765" fuel_abs="67.386326" electricity_abs="0"/>
    </tripinfo>
    <tripinfo id="carIn53971:1" depart="57640.00" departLane="272042143_1" departPos="5.10" departSpeed="0.00" departDelay="0.80" arrival="57697.00" arrivalLane="24634414#1_1" arrivalPos="162.19" arrivalSpeed="7.20" duration="57.00" routeLength="493.04" waitingTime="0.00" waitingCount="0" stopTime="0.00" timeLoss="10.35" rerouteNo="1" devices="tripinfo_carIn53971:1 routing_carIn53971:1 emissions_carIn53971:1" vType="default_016" speedFactor="0.98" vaporized="">
        <emissions CO_abs="2522.479569" CO2_abs="134524.405876" HC_abs="14.628255" PMx_abs="2.372721" NOx_abs="55.421511" fuel_abs="57.826636" electricity_abs="0"/>
    </tripinfo>
    <tripinfo id="h7800c1:5" depart="57696.00" departLane="-447569998#1_1" departPos="5.10" departSpeed="0.00" departDelay="0.00" arrival="57718.00" arrivalLane="-447569998#1_2" arrivalPos="180.76" arrivalSpeed="9.38" duration="22.00" routeLength="175.66" waitingTime="0.00" waitingCount="0" stopTime="0.00" timeLoss="3.32" rerouteNo="1" devices="tripinfo_h7800c1:5 routing_h7800c1:5 emissions_h7800c1:5" vType="default_016" speedFactor="1.14" vaporized="">
        <emissions CO_abs="1076.449883" CO2_abs="52338.717140" HC_abs="6.108077" PMx_abs="0.862846" NOx_abs="21.271836" fuel_abs="22.498474" electricity_abs="0"/>
    </tripinfo>
    <tripinfo id="h3688c1:1" depart="57625.00" departLane="201201950#1_1" departPos="5.10" departSpeed="0.00" departDelay="0.00" arrival="57719.00" arrivalLane="32978638#0_1" arrivalPos="49.29" arrivalSpeed="12.56" duration="94.00" routeLength="1089.75" waitingTime="0.00" waitingCount="0" stopTime="0.00" timeLoss="11.10" rerouteNo="1" devices="tripinfo_h3688c1:1 routing_h3688c1:1 emissions_h3688c1:1" vType="default_016" speedFactor="0.97" vaporized="">
        <emissions CO_abs="3143.811024" CO2_abs="252252.283372" HC_abs="20.186287" PMx_abs="4.013145" NOx_abs="99.424318" fuel_abs="108.432601" electricity_abs="0"/>
    </tripinfo>
    <tripinfo id="carIn22761:1" depart="57616.00" departLane="-306240162#1_0" departPos="5.10" departSpeed="0.00" departDelay="2.10" arrival="57731.00" arrivalLane="399835085#1_1" arrivalPos="212.23" arrivalSpeed="6.62" duration="115.00" routeLength="1093.26" waitingTime="7.00" waitingCount="1" stopTime="0.00" timeLoss="26.75" rerouteNo="1" devices="tripinfo_carIn22761:1 routing_carIn22761:1 emissions_carIn22761:1" vType="default_016" speedFactor="0.88" vaporized="">
        <emissions CO_abs="4677.316749" CO2_abs="281376.032642" HC_abs="27.891185" PMx_abs="5.054006" NOx_abs="114.915450" fuel_abs="120.951755" electricity_abs="0"/>
    </tripinfo>
    <tripinfo id="h12244c1:3" depart="57612.00" departLane="315358244_1" departPos="5.10" departSpeed="0.00" departDelay="0.40" arrival="57732.00" arrivalLane="386687235_1" arrivalPos="80.84" arrivalSpeed="17.67" duration="120.00" routeLength="1186.14" waitingTime="31.00" waitingCount="2" stopTime="0.00" timeLoss="53.24" rerouteNo="1" devices="tripinfo_h12244c1:3 routing_h12244c1:3 emissions_h12244c1:3" vType="default_016" speedFactor="1.30" vaporized="">
        <emissions CO_abs="7043.968959" CO2_abs="334653.714698" HC_abs="39.877443" PMx_abs="6.469927" NOx_abs="137.979601" fuel_abs="143.854315" electricity_abs="0"/>
    </tripinfo>
    <tripinfo id="h317c2:1" depart="57707.00" departLane="-32978638#0_1" departPos="5.10" departSpeed="0.00" departDelay="0.10" arrival="57742.00" arrivalLane="-266565295#5_1" arrivalPos="172.76" arrivalSpeed="12.51" duration="35.00" routeLength="370.53" waitingTime="0.00" waitingCount="0" stopTime="0.00" timeLoss="5.88" rerouteNo="1" devices="tripinfo_h317c2:1 routing_h317c2:1 emissions_h317c2:1" vType="default_016" speedFactor="0.94" vaporized="">
        <emissions CO_abs="1608.550691" CO2_abs="101381.038113" HC_abs="9.703068" PMx_abs="1.771704" NOx_abs="41.345962" fuel_abs="43.579441" electricity_abs="0"/>
    </tripinfo>
    <tripinfo id="h3568c1:3" depart="57656.00" departLane="266565295#5_1" departPos="5.10" departSpeed="0.00" departDelay="0.80" arrival="57745.00" arrivalLane="-24634415_1" arrivalPos="62.03" arrivalSpeed="14.97" duration="89.00" routeLength="807.40" waitingTime="9.00" waitingCount="1" stopTime="0.00" timeLoss="30.36" rerouteNo="1" devices="tripinfo_h3568c1:3 routing_h3568c1:3 emissions_h3568c1:3" vType="default_016" speedFactor="1.11" vaporized="">
        <emissions CO_abs="5435.847761" CO2_abs="286691.914939" HC_abs="31.509311" PMx_abs="5.464019" NOx_abs="120.012521" fuel_abs="123.236832" electricity_abs="0"/>
    </tripinfo>
    <tripinfo id="carIn121703:1" depart="57647.00" departLane="386687232#0_1" departPos="5.10" departSpeed="0.00" departDelay="0.30" arrival="57749.00" arrivalLane="-315358244_1" arrivalPos="33.95" arrivalSpeed="13.21" duration="102.00" routeLength="1157.39" waitingTime="4.00" waitingCount="1" stopTime="0.00" timeLoss="16.01" rerouteNo="1" devices="tripinfo_carIn121703:1 routing_carIn121703:1 emissions_carIn121703:1" vType="default_016" speedFactor="0.99" vaporized="">
        <emissions CO_abs="2940.901090" CO2_abs="231104.153920" HC_abs="18.759497" PMx_abs="3.638184" NOx_abs="90.628919" fuel_abs="99.342045" electricity_abs="0"/>
    </tripinfo>
    <tripinfo id="h5979c1:5" depart="57669.00" departLane="399835085#1_1" departPos="5.10" departSpeed="0.00" departDelay="0.00" arrival="57758.00" arrivalLane="-315358254#1_1" arrivalPos="137.16" arrivalSpeed="15.10" duration="89.00" routeLength="659.33" waitingTime="8.00" waitingCount="1" stopTime="0.00" timeLoss="22.23" rerouteNo="1" devices="tripinfo_h5979c1:5 routing_h5979c1:5 emissions_h5979c1:5" vType="default_016" speedFactor="1.10" vaporized="">
        <emissions CO_abs="4237.710166" CO2_abs="203183.059863" HC_abs="24.007021" PMx_abs="3.539329" NOx_abs="83.442145" fuel_abs="87.340661" electricity_abs="0"/>
    </tripinfo>
    <tripinfo id="carIn30817:1" depart="57681.00" departLane="315358244_1" departPos="5.10" departSpeed="0.00" departDelay="0.20" arrival="57764.00" arrivalLane="447569997#1_1" arrivalPos="180.93" arrivalSpeed="6.97" duration="83.00" routeLength="718.04" waitingTime="3.00" waitingCount="1" stopTime="0.00" timeLoss="14.34" rerouteNo="1" devices="tripinfo_carIn30817:1 routing_carIn30817:1 emissions_carIn30817:1" vType="default_016" speedFactor="0.90" vaporized="">
        <emissions CO_abs="2804.010984" CO2_abs="160797.761210" HC_abs="16.468231" PMx_abs="2.489054" NOx_abs="63.682067" fuel_abs="69.120878" electricity_abs="0"/>
    </tripinfo>
    <tripinfo id="h3326c1:2" depart="57656.00" departLane="22716069#0_1" departPos="5.10" departSpeed="0.00" departDelay="0.00" arrival="57766.00" arrivalLane="24634517#13_1" arrivalPos="111.62" arrivalSpeed="13.07" duration="110.00" routeLength="1312.81" waitingTime="0.00" waitingCount="0" stopTime="0.00" timeLoss="15.32" rerouteNo="1" devices="tripinfo_h3326c1:2 routing_h3326c1:2 emissions_h3326c1:2" vType="default_016" speedFactor="1.03" vaporized="">
        <emissions CO_abs="3993.767168" CO2_abs="303260.056151" HC_abs="25.297432" PMx_abs="5.195625" NOx_abs="122.006106" fuel_abs="130.358294" electricity_abs="0"/>
    </tripinfo>
    <tripinfo id="h3154c1:1" depart="57658.00" departLane="24634507_1" departPos="5.10" departSpeed="0.00" departDelay="0.00" arrival="57768.00" arrivalLane="-266565295#5_1" arrivalPos="172.76" arrivalSpeed="13.01" duration="110.00" routeLength="1206.22" waitingTime="0.00" waitingCount="0" stopTime="0.00" timeLoss="17.20" rerouteNo="1" devices="tripinfo_h3154c1:1 routing_h3154c1:1 emissions_h3154c1:1" vType="default_016" speedFactor="0.96" vaporized="">
        <emissions CO_abs="4155.417005" CO2_abs="292493.638775" HC_abs="25.762449" PMx_abs="4.967409" NOx_abs="117.920429" fuel_abs="125.730553" electricity_abs="0"/>
    </tripinfo>
    <tripinfo id="carIn27009:1" depart="57673.00" departLane="-447569998#1_1" departPos="5.10" departSpeed="0.00" departDelay="0.50" arrival="57772.00" arrivalLane="-26677539_1" arrivalPos="152.75" arrivalSpeed="7.55" duration="99.00" routeLength="699.63" waitingTime="0.00" waitingCount="0" stopTime="0.00" timeLoss="13.45" rerouteNo="1" devices="tripinfo_carIn27009:1 routing_carIn27009:1 emissions_carIn27009:1" vType="default_015" speedFactor="0.98" vaporized="">
        <emissions CO_abs="3813.766576" CO2_abs="175178.240624" HC_abs="21.374824" PMx_abs="2.790024" NOx_abs="70.819770" fuel_abs="75.302935" electricity_abs="0"/>
    </tripinfo>
    <tripinfo id="h16072c2:3" depart="57663.00" departLane="315358254#0_1" departPos="5.10" departSpeed="0.00" departDelay="2.50" arrival="57781.00" arrivalLane="386687235_1" arrivalPos="80.84" arrivalSpeed="15.49" duration="118.00" routeLength="1611.92" waitingTime="0.00" waitingCount="0" stopTime="0.00" timeLoss="15.59" rerouteNo="1" devices="tripinfo_h16072c2:3 routing_h16072c2:3 emissions_h16072c2:3" vType="default_016" speedFactor="1.15" vaporized="">
        <emissions CO_abs="3628.067442" CO2_abs="326933.227451" HC_abs="23.829539" PMx_abs="5.271415" NOx_abs="127.144046" fuel_abs="140.534453" electricity_abs="0"/>
    </tripinfo>
    <tripinfo id="carIn28951:1" depart="57606.00" departLane="10425609#0_1" departPos="5.10" departSpeed="0.00" departDelay="0.20" arrival="57795.00" arrivalLane="-128361102#1_1" arrivalPos="274.68" arrivalSpeed="14.04" duration="189.00" routeLength="2113.04" waitingTime="11.00" waitingCount="2" stopTime="0.00" timeLoss="40.50" rerouteNo="1" devices="tripinfo_carIn28951:1 routing_carIn28951:1 emissions_carIn28951:1" vType="default_016" speedFactor="1.05" vaporized="">
        <emissions CO_abs="7114.380582" CO2_abs="502730.248659" HC_abs="44.068259" PMx_abs="8.495896" NOx_abs="201.121604" fuel_abs="216.102469" electricity_abs="0"/>
    </tripinfo>
    <tripinfo id="carIn107282:1" depart="57749.00" departLane="-447569998#1_1" departPos="5.10" departSpeed="0.00" departDelay="0.00" arrival="57797.00" arrivalLane="315358242#0_1" arrivalPos="165.37" arrivalSpeed="13.34" duration="48.00" routeLength="448.50" waitingTime="0.00" waitingCount="0" stopTime="0.00" timeLoss="5.57" rerouteNo="1" devices="tripinfo_carIn107282:1 routing_carIn107282:1 emissions_carIn107282:1" vType="default_016" speedFactor="0.99" vaporized="">
        <emissions CO_abs="1956.627977" CO2_abs="112187.246162" HC_abs="11.509311" PMx_abs="1.833694" NOx_abs="45.090633" fuel_abs="48.224904" electricity_abs="0"/>
    </tripinfo>
    <tripinfo id="carIn107084:1" depart="57601.00" departLane="124812856#0_1" departPos="5.10" departSpeed="0.00" departDelay="0.70" arrival="57798.00" arrivalLane="-128361102#1_1" arrivalPos="274.68" arrivalSpeed="13.19" duration="197.00" routeLength="2250.49" waitingTime="2.00" waitingCount="1" stopTime="0.00" timeLoss="32.08" rerouteNo="1" devices="tripinfo_carIn107084:1 routing_carIn107084:1 emissions_carIn107084:1" vType="default_016" speedFactor="1.00" vaporized="">
        <emissions CO_abs="6550.803222" CO2_abs="503877.310337" HC_abs="41.613321" PMx_abs="8.304350" NOx_abs="200.649031" fuel_abs="216.595345" electricity_abs="0"/>
    </tripinfo>
    <tripinfo id="h7181c1:1" depart="57660.00" departLane="315358254#0_1" departPos="5.10" departSpeed="0.00" departDelay="0.10" arrival="57801.00" arrivalLane="306240162#0_0" arrivalPos="220.43" arrivalSpeed="14.85" duration="141.00" routeLength="932.35" waitingTime="68.00" waitingCount="2" stopTime="0.00" timeLoss="87.39" rerouteNo="1" devices="tripinfo_h7181c1:1 routing_h7181c1:1 emissions_h7181c1:1" vType="default_016" speedFactor="0.96" vaporized="">
        <emissions CO_abs="13604.637790" CO2_abs="408199.311960" HC_abs="71.593588" PMx_abs="8.757695" NOx_abs="175.607916" fuel_abs="175.471455" electricity_abs="0"/>
    </tripinfo>
    <tripinfo id="h330c1:1" depart="57736.00" departLane="-32978638#0_1" departPos="5.10" departSpeed="0.00" departDelay="0.20" arrival="57803.00" arrivalLane="-266565295#5_1" arrivalPos="172.76" arrivalSpeed="15.38" duration="67.00" routeLength="370.53" waitingTime="33.00" waitingCount="1" stopTime="0.00" timeLoss="42.22" rerouteNo="1" devices="tripinfo_h330c1:1 routing_h330c1:1 emissions_h330c1:1" vType="default_016" speedFactor="1.12" vaporized="">
        <emissions CO_abs="6673.190172" CO2_abs="197020.456174" HC_abs="35.051678" PMx_abs="4.273189" NOx_abs="85.884472" fuel_abs="84.692550" electricity_abs="0"/>
    </tripinfo>
    <tripinfo id="h9563c2:5" depart="57631.00" departLane="315358244_1" departPos="5.10" departSpeed="0.00" departDelay="0.70" arrival="57806.00" arrivalLane="386687235_1" arrivalPos="80.84" arrivalSpeed="14.36" duration="175.00" routeLength="1186.14" waitingTime="70.00" waitingCount="4" stopTime="0.00" timeLoss="95.26" rerouteNo="1" devices="tripinfo_h9563c2:5 routing_h9563c2:5 emissions_h9563c2:5" vType="default_016" speedFactor="1.09" vaporized="">
        <emissions CO_abs="12624.611852" CO2_abs="436537.531360" HC_abs="67.645468" PMx_abs="8.484076" NOx_abs="182.319820" fuel_abs="187.652793" electricity_abs="0"/>
    </tripinfo>
    <tripinfo id="carIn77943:1" depart="57608.00" departLane="124812856#0_1" departPos="5.10" departSpeed="0.00" departDelay="2.50" arrival="57807.00" arrivalLane="-128361102#1_1" arrivalPos="274.68" arrivalSpeed="13.62" duration="199.00" routeLength="2250.49" waitingTime="11.00" waitingCount="2" stopTime="0.00" timeLoss="40.70" rerouteNo="1" devices="tripinfo_carIn77943:1 routing_carIn77943:1 emissions_carIn77943:1" vType="default_016" speedFactor="1.04" vaporized="">
        <emissions CO_abs="6647.715968" CO2_abs="502545.391689" HC_abs="42.012368" PMx_abs="8.535595" NOx_abs="201.382339" fuel_abs="216.022548" electricity_abs="0"/>
    </tripinfo>
    <tripinfo id="carIn86816:1" depart="57617.00" departLane="128361102#0_1" departPos="5.10" departSpeed="0.00" departDelay="0.80" arrival="57815.00" arrivalLane="201956811#0_1" arrivalPos="40.40" arrivalSpeed="12.72" duration="198.00" routeLength="2067.33" waitingTime="12.00" waitingCount="2" stopTime="0.00" timeLoss="36.67" rerouteNo="1" devices="tripinfo_carIn86816:1 routing_carIn86816:1 emissions_carIn86816:1" vType="default_016" speedFactor="0.94" vaporized="">
        <emissions CO_abs="6176.896994" CO2_abs="445787.954826" HC_abs="38.473304" PMx_abs="7.000516" NOx_abs="175.459106" fuel_abs="191.626048" electricity_abs="0"/>
    </tripinfo>
    <tripinfo id="carIn82278:1" depart="57702.00" departLane="-306240162#1_0" departPos="5.10" departSpeed="0.00" departDelay="0.70" arrival="57821.00" arrivalLane="399835085#1_1" arrivalPos="212.23" arrivalSpeed="8.26" duration="119.00" routeLength="1093.26" waitingTime="12.00" waitingCount="2" stopTime="0.00" timeLoss="46.75" rerouteNo="1" devices="tripinfo_carIn82278:1 routing_carIn82278:1 emissions_carIn82278:1" vType="default_016" speedFactor="1.08" vaporized="">
        <emissions CO_abs="7360.326689" CO2_abs="381038.736681" HC_abs="42.596955" PMx_abs="7.526646" NOx_abs="160.022677" fuel_abs="163.792418" electricity_abs="0"/>
    </tripinfo>
    <tripinfo id="h9953c2:3" depart="57682.00" departLane="-54169231#2_1" departPos="5.10" departSpeed="0.00" departDelay="0.00" arrival="57826.00" arrivalLane="386687235_1" arrivalPos="80.84" arrivalSpeed="13.66" duration="144.00" routeLength="1535.60" waitingTime="4.00" waitingCount="1" stopTime="0.00" timeLoss="26.67" rerouteNo="1" devices="tripinfo_h9953c2:3 routing_h9953c2:3 emissions_h9953c2:3" vType="default_016" speedFactor="1.07" vaporized="">
        <emissions CO_abs="5387.615418" CO2_abs="371755.460656" HC_abs="33.175982" PMx_abs="6.374992" NOx_abs="149.904713" fuel_abs="159.801855" electricity_abs="0"/>
    </tripinfo>
    <tripinfo id="randUni15030:1" depart="57735.00" departLane="386687232#0_1" departPos="5.10" departSpeed="0.00" departDelay="0.10" arrival="57831.00" arrivalLane="26677539_1" arrivalPos="151.98" arrivalSpeed="7.61" duration="96.00" routeLength="919.89" waitingTime="0.00" waitingCount="0" stopTime="0.00" timeLoss="12.64" rerouteNo="1" devices="tripinfo_randUni15030:1 routing_randUni15030:1 emissions_randUni15030:1" vType="random_016" speedFactor="1.00" vaporized="">
        <emissions CO_abs="3388.689716" CO2_abs="208683.873690" HC_abs="20.270204" PMx_abs="3.418191" NOx_abs="83.745433" fuel_abs="89.704817" electricity_abs="0"/>
    </tripinfo>
    <tripinfo id="carIn12775:1" depart="57676.00" departLane="10425609#0_1" departPos="5.10" departSpeed="0.00" departDelay="0.60" arrival="57838.00" arrivalLane="18809673#0_1" arrivalPos="473.56" arrivalSpeed="15.37" duration="162.00" routeLength="1959.45" waitingTime="4.00" waitingCount="1" stopTime="0.00" timeLoss="35.95" rerouteNo="1" devices="tripinfo_carIn12775:1 routing_carIn12775:1 emissions_carIn12775:1" vType="default_016" speedFactor="1.16" vaporized="">
        <emissions CO_abs="6348.786491" CO2_abs="469378.447515" HC_abs="39.845857" PMx_abs="8.343966" NOx_abs="189.593312" fuel_abs="201.765137" electricity_abs="0"/>
    </tripinfo>
    <tripinfo id="randUni31145:1" depart="57815.00" departLane="10425609#0_1" departPos="5.10" departSpeed="0.00" departDelay="1.30" arrival="57840.00" arrivalLane="201956810_1" arrivalPos="71.65" arrivalSpeed="14.51" duration="25.00" routeLength="255.78" waitingTime="0.00" waitingCount="0" stopTime="0.00" timeLoss="5.55" rerouteNo="1" devices="tripinfo_randUni31145:1 routing_randUni31145:1 emissions_randUni31145:1" vType="random_016" speedFactor="1.05" vaporized="">
        <emissions CO_abs="1687.614708" CO2_abs="104464.010815" HC_abs="10.152093" PMx_abs="1.931017" NOx_abs="43.273194" fuel_abs="44.904547" electricity_abs="0"/>
    </tripinfo>
    <tripinfo id="carIn12858:1" depart="57661.00" departLane="128361109#1_1" departPos="5.10" departSpeed="0.00" departDelay="0.90" arrival="57841.00" arrivalLane="399835085#1_1" arrivalPos="212.23" arrivalSpeed="6.99" duration="180.00" routeLength="1738.12" waitingTime="23.00" waitingCount="2" stopTime="0.00" timeLoss="53.73" rerouteNo="1" devices="tripinfo_carIn12858:1 routing_carIn12858:1 emissions_carIn12858:1" vType="default_016" speedFactor="0.91" vaporized="">
        <emissions CO_abs="9626.879361" CO2_abs="500035.210251" HC_abs="55.520970" PMx_abs="9.488920" NOx_abs="206.577174" fuel_abs="214.944591" electricity_abs="0"/>
    </tripinfo>
    <tripinfo id="carIn129809:1" depart="57729.00" departLane="-447569998#1_1" departPos="5.10" departSpeed="0.00" departDelay="1.00" arrival="57843.00" arrivalLane="-315358244_1" arrivalPos="33.95" arrivalSpeed="12.85" duration="114.00" routeLength="706.49" waitingTime="38.00" waitingCount="2" stopTime="0.00" timeLoss="52.69" rerouteNo="1" devices="tripinfo_carIn129809:1 routing_carIn129809:1 emissions_carIn129809:1" vType="default_015" speedFactor="0.98" vaporized="">
        <emissions CO_abs="7900.402926" CO2_abs="270018.831330" HC_abs="42.261794" PMx_abs="5.240736" NOx_abs="113.750635" fuel_abs="116.071995" electricity_abs="0"/>
    </tripinfo>
    <tripinfo id="50R_frequency3.17" depart="57674.00" departLane="-18809673#6_1" departPos="12.10" departSpeed="0.00" departDelay="0.70" arrival="57844.00" arrivalLane="201956811#0_1" arrivalPos="40.40" arrivalSpeed="11.87" duration="170.00" routeLength="1954.47" waitingTime="1.00" waitingCount="1" stopTime="0.00" timeLoss="25.61" rerouteNo="1" devices="tripinfo_50R_frequency3.17 routing_50R_frequency3.17 emissions_50R_frequency3.17" vType="bus" speedFactor="1.00" vaporized="">
        <emissions CO_abs="3061.858015" CO2_abs="1947676.863010" HC_abs="640.738766" PMx_abs="328.697007" NOx_abs="15037.148571" fuel_abs="830.669081" electricity_abs="0"/>
    </tripinfo>
    <tripinfo id="randUni2407:1" depart="57820.00" departLane="10425609#0_1" departPos="5.10" departSpeed="0.00" departDelay="0.80" arrival="57847.00" arrivalLane="201956810_1" arrivalPos="71.65" arrivalSpeed="11.88" duration="27.00" routeLength="255.78" waitingTime="0.00" waitingCount="0" stopTime="0.00" timeLoss="5.24" rerouteNo="1" devices="tripinfo_randUni2407:1 routing_randUni2407:1 emissions_randUni2407:1" vType="random_016" speedFactor="0.92" vaporized="">
        <emissions CO_abs="1576.078546" CO2_abs="91454.815917" HC_abs="9.327698" PMx_abs="1.661925" NOx_abs="37.913807" fuel_abs="39.312565" electricity_abs="0"/>
    </tripinfo>
    <tripinfo id="carIn8642:1" depart="57774.00" departLane="-447569998#1_1" departPos="5.10" departSpeed="0.00" departDelay="0.90" arrival="57849.00" arrivalLane="-315358244_1" arrivalPos="33.95" arrivalSpeed="12.24" duration="75.00" routeLength="706.49" waitingTime="0.00" waitingCount="0" stopTime="0.00" timeLoss="6.90" rerouteNo="1" devices="tripinfo_carIn8642:1 routing_carIn8642:1 emissions_carIn8642:1" vType="default_016" speedFactor="0.89" vaporized="">
        <emissions CO_abs="2478.903453" CO2_abs="149250.700746" HC_abs="14.719130" PMx_abs="2.270005" NOx_abs="58.783655" fuel_abs="64.157196" electricity_abs="0"/>
    </tripinfo>
    <tripinfo id="carIn81860:1" depart="57712.00" departLane="128361102#0_1" departPos="5.10" departSpeed="0.00" departDelay="0.60" arrival="57851.00" arrivalLane="-24634517#17_1" arrivalPos="6.43" arrivalSpeed="8.09" duration="139.00" routeLength="1229.64" waitingTime="32.00" waitingCount="1" stopTime="0.00" timeLoss="55.48" rerouteNo="1" devices="tripinfo_carIn81860:1 routing_carIn81860:1 emissions_carIn81860:1" vType="default_016" speedFactor="1.09" vaporized="">
        <emissions CO_abs="9217.498580" CO2_abs="369527.543101" HC_abs="50.602987" PMx_abs="7.144706" NOx_abs="154.346748" fuel_abs="158.846227" electricity_abs="0"/>
    </tripinfo>
    <tripinfo id="carIn81046:1" depart="57611.00" departLane="124812856#0_1" departPos="5.10" departSpeed="0.00" departDelay="2.50" arrival="57855.00" arrivalLane="-128361102#1_1" arrivalPos="274.68" arrivalSpeed="13.37" duration="244.00" routeLength="2250.49" waitingTime="39.00" waitingCount="5" stopTime="0.00" timeLoss="86.61" rerouteNo="1" devices="tripinfo_carIn81046:1 routing_carIn81046:1 emissions_carIn81046:1" vType="default_016" speedFactor="1.04" vaporized="">
        <emissions CO_abs="11564.136437" CO2_abs="637576.497606" HC_abs="67.534850" PMx_abs="11.416336" NOx_abs="260.188533" fuel_abs="274.068269" electricity_abs="0"/>
    </tripinfo>
    <tripinfo id="S5R_frequency1.2" depart="57634.00" departLane="315358250#0_1" departPos="12.10" departSpeed="0.00" departDelay="22.40" arrival="57856.00" arrivalLane="386687235_1" arrivalPos="80.84" arrivalSpeed="12.78" duration="222.00" routeLength="1115.62" waitingTime="97.00" waitingCount="5" stopTime="0.00" timeLoss="140.85" rerouteNo="1" devices="tripinfo_S5R_frequency1.2 routing_S5R_frequency1.2 emissions_S5R_frequency1.2" vType="bus" speedFactor="1.00" vaporized="">
        <emissions CO_abs="4100.826384" CO2_abs="1925764.833914" HC_abs="905.613031" PMx_abs="425.219175" NOx_abs="16684.413691" fuel_abs="821.104277" electricity_abs="0"/>
    </tripinfo>
    <tripinfo id="h17600c1:1" depart="57662.00" departLane="272042143_1" departPos="5.10" departSpeed="0.00" departDelay="0.30" arrival="57856.00" arrivalLane="201238729#3_1" arrivalPos="431.02" arrivalSpeed="11.64" duration="194.00" routeLength="2100.26" waitingTime="7.00" waitingCount="1" stopTime="0.00" timeLoss="25.97" rerouteNo="1" devices="tripinfo_h17600c1:1 routing_h17600c1:1 emissions_h17600c1:1" vType="default_016" speedFactor="0.90" vaporized="">
        <emissions CO_abs="4634.620567" CO2_abs="373926.269398" HC_abs="29.720779" PMx_abs="5.414889" NOx_abs="143.901998" fuel_abs="160.735908" electricity_abs="0"/>
    </tripinfo>
    <tripinfo id="h11737c1:1" depart="57665.00" departLane="272042143_1" departPos="5.10" departSpeed="0.00" departDelay="1.50" arrival="57857.00" arrivalLane="-315358254#1_1" arrivalPos="137.16" arrivalSpeed="12.95" duration="192.00" routeLength="1596.88" waitingTime="49.00" waitingCount="2" stopTime="0.00" timeLoss="69.99" rerouteNo="1" devices="tripinfo_h11737c1:1 routing_h11737c1:1 emissions_h11737c1:1" vType="default_016" speedFactor="0.95" vaporized="">
        <emissions CO_abs="11492.947382" CO2_abs="450686.888381" HC_abs="62.866535" PMx_abs="8.305301" NOx_abs="185.919871" fuel_abs="193.734453" electricity_abs="0"/>
    </tripinfo>
    <tripinfo id="carIn12365:1" depart="57713.00" departLane="315358244_1" departPos="5.10" departSpeed="0.00" departDelay="0.50" arrival="57859.00" arrivalLane="447569997#1_1" arrivalPos="180.93" arrivalSpeed="7.34" duration="146.00" routeLength="718.04" waitingTime="58.00" waitingCount="3" stopTime="0.00" timeLoss="79.03" rerouteNo="1" devices="tripinfo_carIn12365:1 routing_carIn12365:1 emissions_carIn12365:1" vType="default_016" speedFactor="0.92" vaporized="">
        <emissions CO_abs="11119.103450" CO2_abs="311419.227835" HC_abs="57.882727" PMx_abs="6.192123" NOx_abs="132.517665" fuel_abs="133.870091" electricity_abs="0"/>
    </tripinfo>
    <tripinfo id="carIn126288:1" depart="57674.00" departLane="272042143_1" departPos="5.10" departSpeed="0.00" departDelay="0.00" arrival="57860.00" arrivalLane="-315358254#1_1" arrivalPos="137.16" arrivalSpeed="11.93" duration="186.00" routeLength="1596.88" waitingTime="40.00" waitingCount="2" stopTime="0.00" timeLoss="60.72" rerouteNo="1" devices="tripinfo_carIn126288:1 routing_carIn126288:1 emissions_carIn126288:1" vType="default_016" speedFactor="0.93" vaporized="">
        <emissions CO_abs="9727.039211" CO2_abs="415254.422212" HC_abs="53.951900" PMx_abs="7.277826" NOx_abs="168.799893" fuel_abs="178.503124" electricity_abs="0"/>
    </tripinfo>
    <tripinfo id="h17549c1:1" depart="57680.00" departLane="-447569998#1_1" departPos="5.10" departSpeed="0.00" departDelay="0.00" arrival="57862.00" arrivalLane="-315358254#1_1" arrivalPos="137.16" arrivalSpeed="15.29" duration="182.00" routeLength="1746.60" waitingTime="42.00" waitingCount="2" stopTime="0.00" timeLoss="69.57" rerouteNo="1" devices="tripinfo_h17549c1:1 routing_h17549c1:1 emissions_h17549c1:1" vType="default_016" speedFactor="1.22" vaporized="">
        <emissions CO_abs="10660.151664" CO2_abs="483328.541359" HC_abs="59.859965" PMx_abs="9.050150" NOx_abs="198.268423" fuel_abs="207.764505" electricity_abs="0"/>
    </tripinfo>
    <tripinfo id="h2831c1:1" depart="57600.00" departLane="201089423#0_1" departPos="5.10" departSpeed="0.00" departDelay="0.00" arrival="57863.00" arrivalLane="-315358244_2" arrivalPos="33.95" arrivalSpeed="14.14" duration="263.00" routeLength="2672.18" waitingTime="47.00" waitingCount="3" stopTime="0.00" timeLoss="84.11" rerouteNo="1" devices="tripinfo_h2831c1:1 routing_h2831c1:1 emissions_h2831c1:1" vType="default_016" speedFactor="1.09" vaporized="">
        <emissions CO_abs="12193.752923" CO2_abs="659367.234517" HC_abs="70.426704" PMx_abs="11.455569" NOx_abs="264.503267" fuel_abs="283.436116" electricity_abs="0"/>
    </tripinfo>
    <tripinfo id="h645c1:1" depart="57622.00" departLane="266565295#5_1" departPos="5.10" departSpeed="0.00" departDelay="0.40" arrival="57864.00" arrivalLane="-315358244_1" arrivalPos="33.95" arrivalSpeed="14.64" duration="242.00" routeLength="1910.83" waitingTime="81.00" waitingCount="3" stopTime="0.00" timeLoss="112.33" rerouteNo="1" devices="tripinfo_h645c1:1 routing_h645c1:1 emissions_h645c1:1" vType="default_016" speedFactor="1.07" vaporized="">
        <emissions CO_abs="15862.766903" CO2_abs="591339.649111" HC_abs="86.036781" PMx_abs="11.273236" NOx_abs="245.277683" fuel_abs="254.196326" electricity_abs="0"/>
    </tripinfo>