<?xml version="1.0" encoding="UTF-8"?>

<!-- generated on 2021-10-26 15:19:46 by Eclipse SUMO sumo Version 1.10.0
<configuration xmlns:xsi="http://www.w3.org/2001/XMLSchema-instance" xsi:noNamespaceSchemaLocation="http://sumo.dlr.de/xsd/sumoConfiguration.xsd">

    <input>
        <net-file value="/Users/behradkoohy/sumo-scratchpad/RESCO/environments/ingolstadt21/ingolstadt21.net.xml"/>
        <route-files value="/Users/behradkoohy/sumo-scratchpad/RESCO/environments/ingolstadt21/ingolstadt21.rou.xml"/>
    </input>

    <output>
        <tripinfo-output value="/Users/behradkoohy/sumo-scratchpad/RESCO/logs/IPPO-tr0-ingolstadt21-21-drq_norm-wait_norm/tripinfo_19.xml"/>
        <tripinfo-output.write-unfinished value="true"/>
    </output>

    <time>
        <begin value="57600"/>
        <end value="61200"/>
    </time>

    <processing>
        <time-to-teleport value="-1"/>
    </processing>

    <report>
        <no-warnings value="true"/>
        <no-step-log value="true"/>
    </report>

    <emissions>
        <device.emissions.probability value="1"/>
    </emissions>

    <traci_server>
        <remote-port value="61142"/>
    </traci_server>

    <random_number>
        <random value="true"/>
    </random_number>

</configuration>
-->

<tripinfos xmlns:xsi="http://www.w3.org/2001/XMLSchema-instance" xsi:noNamespaceSchemaLocation="http://sumo.dlr.de/xsd/tripinfo_file.xsd">
    <tripinfo id="h15454c2:3" depart="57612.00" departLane="24608844_1" departPos="5.10" departSpeed="0.00" departDelay="0.50" arrival="57678.00" arrivalLane="32978638#0_1" arrivalPos="49.29" arrivalSpeed="11.81" duration="66.00" routeLength="354.79" waitingTime="19.00" waitingCount="1" stopTime="0.00" timeLoss="28.15" rerouteNo="1" devices="tripinfo_h15454c2:3 routing_h15454c2:3 emissions_h15454c2:3" vType="default_016" speedFactor="0.92" vaporized="">
        <emissions CO_abs="4368.246171" CO2_abs="147073.205882" HC_abs="23.310348" PMx_abs="2.774461" NOx_abs="61.839729" fuel_abs="63.221954" electricity_abs="0"/>
    </tripinfo>
    <tripinfo id="carIn53971:1" depart="57640.00" departLane="272042143_1" departPos="5.10" departSpeed="0.00" departDelay="0.80" arrival="57692.00" arrivalLane="24634414#1_1" arrivalPos="162.19" arrivalSpeed="7.84" duration="52.00" routeLength="493.04" waitingTime="0.00" waitingCount="0" stopTime="0.00" timeLoss="7.19" rerouteNo="1" devices="tripinfo_carIn53971:1 routing_carIn53971:1 emissions_carIn53971:1" vType="default_016" speedFactor="1.01" vaporized="">
        <emissions CO_abs="2248.357833" CO2_abs="133191.493427" HC_abs="13.324414" PMx_abs="2.272077" NOx_abs="54.130287" fuel_abs="57.253596" electricity_abs="0"/>
    </tripinfo>
    <tripinfo id="carIn60260:1" depart="57606.00" departLane="315358254#0_1" departPos="5.10" departSpeed="0.00" departDelay="0.90" arrival="57705.00" arrivalLane="399835085#1_1" arrivalPos="212.23" arrivalSpeed="7.66" duration="99.00" routeLength="430.98" waitingTime="41.00" waitingCount="1" stopTime="0.00" timeLoss="50.85" rerouteNo="1" devices="tripinfo_carIn60260:1 routing_carIn60260:1 emissions_carIn60260:1" vType="default_016" speedFactor="0.95" vaporized="">
        <emissions CO_abs="8589.504185" CO2_abs="219812.985646" HC_abs="44.233137" PMx_abs="4.521338" NOx_abs="94.792095" fuel_abs="94.491600" electricity_abs="0"/>
    </tripinfo>
    <tripinfo id="carIn22761:1" depart="57616.00" departLane="-306240162#1_0" departPos="5.10" departSpeed="0.00" departDelay="2.10" arrival="57715.00" arrivalLane="399835085#1_1" arrivalPos="212.23" arrivalSpeed="7.82" duration="99.00" routeLength="1093.26" waitingTime="2.00" waitingCount="1" stopTime="0.00" timeLoss="18.68" rerouteNo="1" devices="tripinfo_carIn22761:1 routing_carIn22761:1 emissions_carIn22761:1" vType="default_016" speedFactor="0.96" vaporized="">
        <emissions CO_abs="4705.964827" CO2_abs="287120.264340" HC_abs="28.212881" PMx_abs="5.240794" NOx_abs="117.229893" fuel_abs="123.420840" electricity_abs="0"/>
    </tripinfo>
    <tripinfo id="h3688c1:1" depart="57625.00" departLane="201201950#1_1" departPos="5.10" departSpeed="0.00" departDelay="0.00" arrival="57716.00" arrivalLane="32978638#0_1" arrivalPos="49.29" arrivalSpeed="13.23" duration="91.00" routeLength="1089.75" waitingTime="0.00" waitingCount="0" stopTime="0.00" timeLoss="10.37" rerouteNo="1" devices="tripinfo_h3688c1:1 routing_h3688c1:1 emissions_h3688c1:1" vType="default_016" speedFactor="0.99" vaporized="">
        <emissions CO_abs="3093.317818" CO2_abs="247556.061877" HC_abs="19.806277" PMx_abs="4.045137" NOx_abs="98.230254" fuel_abs="106.413729" electricity_abs="0"/>
    </tripinfo>
    <tripinfo id="h7800c1:5" depart="57696.00" departLane="-447569998#1_1" departPos="5.10" departSpeed="0.00" departDelay="0.00" arrival="57725.00" arrivalLane="-447569998#1_2" arrivalPos="180.76" arrivalSpeed="4.76" duration="29.00" routeLength="175.66" waitingTime="0.00" waitingCount="0" stopTime="0.00" timeLoss="7.27" rerouteNo="1" devices="tripinfo_h7800c1:5 routing_h7800c1:5 emissions_h7800c1:5" vType="default_016" speedFactor="0.99" vaporized="">
        <emissions CO_abs="1495.369384" CO2_abs="59656.760250" HC_abs="8.181937" PMx_abs="1.021807" NOx_abs="24.596891" fuel_abs="25.644390" electricity_abs="0"/>
    </tripinfo>
    <tripinfo id="h7181c1:1" depart="57660.00" departLane="315358254#0_1" departPos="5.10" departSpeed="0.00" departDelay="0.10" arrival="57752.00" arrivalLane="306240162#0_0" arrivalPos="220.43" arrivalSpeed="14.41" duration="92.00" routeLength="932.35" waitingTime="19.00" waitingCount="2" stopTime="0.00" timeLoss="35.77" rerouteNo="1" devices="tripinfo_h7181c1:1 routing_h7181c1:1 emissions_h7181c1:1" vType="default_016" speedFactor="0.92" vaporized="">
        <emissions CO_abs="5368.426458" CO2_abs="277221.287609" HC_abs="30.954679" PMx_abs="5.326185" NOx_abs="114.370996" fuel_abs="119.166030" electricity_abs="0"/>
    </tripinfo>
    <tripinfo id="carIn80064:1" depart="57603.00" departLane="128361109#1_1" departPos="5.10" departSpeed="0.00" departDelay="0.40" arrival="57753.00" arrivalLane="-315358254#1_1" arrivalPos="137.16" arrivalSpeed="11.79" duration="150.00" routeLength="1587.97" waitingTime="26.00" waitingCount="1" stopTime="0.00" timeLoss="53.06" rerouteNo="1" devices="tripinfo_carIn80064:1 routing_carIn80064:1 emissions_carIn80064:1" vType="default_016" speedFactor="0.92" vaporized="">
        <emissions CO_abs="10277.025831" CO2_abs="512791.178759" HC_abs="58.944586" PMx_abs="9.937651" NOx_abs="212.649228" fuel_abs="220.427968" electricity_abs="0"/>
    </tripinfo>
    <tripinfo id="carIn121703:1" depart="57647.00" departLane="386687232#0_1" departPos="5.10" departSpeed="0.00" departDelay="0.30" arrival="57763.00" arrivalLane="-315358244_1" arrivalPos="33.95" arrivalSpeed="14.19" duration="116.00" routeLength="1157.39" waitingTime="14.00" waitingCount="3" stopTime="0.00" timeLoss="35.67" rerouteNo="1" devices="tripinfo_carIn121703:1 routing_carIn121703:1 emissions_carIn121703:1" vType="default_016" speedFactor="1.05" vaporized="">
        <emissions CO_abs="5013.747534" CO2_abs="301006.702803" HC_abs="29.850785" PMx_abs="5.406043" NOx_abs="122.945318" fuel_abs="129.390159" electricity_abs="0"/>
    </tripinfo>
    <tripinfo id="h3568c1:3" depart="57656.00" departLane="266565295#5_1" departPos="5.10" departSpeed="0.00" departDelay="0.80" arrival="57763.00" arrivalLane="-24634415_1" arrivalPos="62.03" arrivalSpeed="14.87" duration="107.00" routeLength="807.40" waitingTime="30.00" waitingCount="1" stopTime="0.00" timeLoss="49.39" rerouteNo="1" devices="tripinfo_h3568c1:3 routing_h3568c1:3 emissions_h3568c1:3" vType="default_016" speedFactor="1.12" vaporized="">
        <emissions CO_abs="8237.150790" CO2_abs="319277.579303" HC_abs="44.969327" PMx_abs="6.313582" NOx_abs="134.892634" fuel_abs="137.245578" electricity_abs="0"/>
    </tripinfo>
    <tripinfo id="h3154c1:1" depart="57658.00" departLane="24634507_1" departPos="5.10" departSpeed="0.00" departDelay="0.00" arrival="57764.00" arrivalLane="-266565295#5_1" arrivalPos="172.76" arrivalSpeed="15.39" duration="106.00" routeLength="1206.22" waitingTime="4.00" waitingCount="2" stopTime="0.00" timeLoss="31.23" rerouteNo="1" devices="tripinfo_h3154c1:1 routing_h3154c1:1 emissions_h3154c1:1" vType="default_016" speedFactor="1.19" vaporized="">
        <emissions CO_abs="5785.940551" CO2_abs="363298.336679" HC_abs="34.889373" PMx_abs="7.048431" NOx_abs="151.769968" fuel_abs="156.165685" electricity_abs="0"/>
    </tripinfo>
    <tripinfo id="h3326c1:2" depart="57656.00" departLane="22716069#0_1" departPos="5.10" departSpeed="0.00" departDelay="0.00" arrival="57768.00" arrivalLane="24634517#13_1" arrivalPos="111.62" arrivalSpeed="12.81" duration="112.00" routeLength="1312.81" waitingTime="0.00" waitingCount="0" stopTime="0.00" timeLoss="15.00" rerouteNo="1" devices="tripinfo_h3326c1:2 routing_h3326c1:2 emissions_h3326c1:2" vType="default_016" speedFactor="1.00" vaporized="">
        <emissions CO_abs="4099.190871" CO2_abs="309929.596929" HC_abs="25.921114" PMx_abs="5.284515" NOx_abs="124.663320" fuel_abs="133.225277" electricity_abs="0"/>
    </tripinfo>
    <tripinfo id="S5R_frequency1.2" depart="57615.00" departLane="315358250#0_1" departPos="12.10" departSpeed="0.00" departDelay="3.40" arrival="57771.00" arrivalLane="386687235_1" arrivalPos="80.84" arrivalSpeed="13.74" duration="156.00" routeLength="1115.62" waitingTime="46.00" waitingCount="2" stopTime="0.00" timeLoss="74.14" rerouteNo="1" devices="tripinfo_S5R_frequency1.2 routing_S5R_frequency1.2 emissions_S5R_frequency1.2" vType="bus" speedFactor="1.00" vaporized="">
        <emissions CO_abs="3221.397245" CO2_abs="1711399.712870" HC_abs="694.469936" PMx_abs="338.196123" NOx_abs="14115.366739" fuel_abs="729.786826" electricity_abs="0"/>
    </tripinfo>
    <tripinfo id="h5979c1:5" depart="57669.00" departLane="399835085#1_1" departPos="5.10" departSpeed="0.00" departDelay="0.00" arrival="57777.00" arrivalLane="-315358254#1_1" arrivalPos="137.16" arrivalSpeed="13.27" duration="108.00" routeLength="659.33" waitingTime="24.00" waitingCount="1" stopTime="0.00" timeLoss="36.29" rerouteNo="1" devices="tripinfo_h5979c1:5 routing_h5979c1:5 emissions_h5979c1:5" vType="default_016" speedFactor="1.02" vaporized="">
        <emissions CO_abs="6487.471351" CO2_abs="218244.423429" HC_abs="34.597934" PMx_abs="4.036417" NOx_abs="91.333458" fuel_abs="93.816248" electricity_abs="0"/>
    </tripinfo>
    <tripinfo id="carIn30817:1" depart="57681.00" departLane="315358244_1" departPos="5.10" departSpeed="0.00" departDelay="0.20" arrival="57789.00" arrivalLane="447569997#1_1" arrivalPos="180.93" arrivalSpeed="9.36" duration="108.00" routeLength="718.04" waitingTime="40.00" waitingCount="1" stopTime="0.00" timeLoss="53.31" rerouteNo="1" devices="tripinfo_carIn30817:1 routing_carIn30817:1 emissions_carIn30817:1" vType="default_016" speedFactor="1.13" vaporized="">
        <emissions CO_abs="9000.084046" CO2_abs="290964.993367" HC_abs="47.784811" PMx_abs="5.828079" NOx_abs="123.333947" fuel_abs="125.076227" electricity_abs="0"/>
    </tripinfo>
    <tripinfo id="carIn12365:1" depart="57713.00" departLane="315358244_1" departPos="5.10" departSpeed="0.00" departDelay="0.50" arrival="57791.00" arrivalLane="447569997#1_1" arrivalPos="180.93" arrivalSpeed="8.73" duration="78.00" routeLength="718.04" waitingTime="8.00" waitingCount="1" stopTime="0.00" timeLoss="23.74" rerouteNo="1" devices="tripinfo_carIn12365:1 routing_carIn12365:1 emissions_carIn12365:1" vType="default_016" speedFactor="1.13" vaporized="">
        <emissions CO_abs="3280.113668" CO2_abs="197644.591539" HC_abs="19.543876" PMx_abs="3.471081" NOx_abs="80.346012" fuel_abs="84.959221" electricity_abs="0"/>
    </tripinfo>
    <tripinfo id="carIn48184:1" depart="57613.00" departLane="-306240162#1_0" departPos="5.10" departSpeed="0.00" departDelay="0.70" arrival="57793.00" arrivalLane="386687235_1" arrivalPos="80.84" arrivalSpeed="13.65" duration="180.00" routeLength="2257.41" waitingTime="10.00" waitingCount="2" stopTime="0.00" timeLoss="39.34" rerouteNo="1" devices="tripinfo_carIn48184:1 routing_carIn48184:1 emissions_carIn48184:1" vType="default_016" speedFactor="1.06" vaporized="">
        <emissions CO_abs="7313.552929" CO2_abs="538190.263393" HC_abs="46.040887" PMx_abs="9.706312" NOx_abs="216.911277" fuel_abs="231.344296" electricity_abs="0"/>
    </tripinfo>
    <tripinfo id="h16072c2:3" depart="57663.00" departLane="315358254#0_1" departPos="5.10" departSpeed="0.00" departDelay="2.50" arrival="57794.00" arrivalLane="386687235_2" arrivalPos="80.84" arrivalSpeed="14.53" duration="131.00" routeLength="1611.92" waitingTime="1.00" waitingCount="1" stopTime="0.00" timeLoss="22.95" rerouteNo="1" devices="tripinfo_h16072c2:3 routing_h16072c2:3 emissions_h16072c2:3" vType="default_016" speedFactor="1.09" vaporized="">
        <emissions CO_abs="4294.483021" CO2_abs="348591.727074" HC_abs="27.702795" PMx_abs="5.814130" NOx_abs="138.156966" fuel_abs="149.844500" electricity_abs="0"/>
    </tripinfo>
    <tripinfo id="carIn86816:1" depart="57617.00" departLane="128361102#0_1" departPos="5.10" departSpeed="0.00" departDelay="0.80" arrival="57798.00" arrivalLane="201956811#0_1" arrivalPos="40.40" arrivalSpeed="14.30" duration="181.00" routeLength="2067.33" waitingTime="28.00" waitingCount="2" stopTime="0.00" timeLoss="57.17" rerouteNo="1" devices="tripinfo_carIn86816:1 routing_carIn86816:1 emissions_carIn86816:1" vType="default_016" speedFactor="1.22" vaporized="">
        <emissions CO_abs="9118.886598" CO2_abs="542434.277747" HC_abs="53.845278" PMx_abs="9.959099" NOx_abs="220.138187" fuel_abs="233.169705" electricity_abs="0"/>
    </tripinfo>
    <tripinfo id="carIn129809:1" depart="57729.00" departLane="-447569998#1_1" departPos="5.10" departSpeed="0.00" departDelay="1.00" arrival="57798.00" arrivalLane="-315358244_1" arrivalPos="33.95" arrivalSpeed="13.19" duration="69.00" routeLength="706.49" waitingTime="0.00" waitingCount="0" stopTime="0.00" timeLoss="7.60" rerouteNo="1" devices="tripinfo_carIn129809:1 routing_carIn129809:1 emissions_carIn129809:1" vType="default_015" speedFactor="0.99" vaporized="">
        <emissions CO_abs="2164.387292" CO2_abs="152272.604252" HC_abs="13.367916" PMx_abs="2.291379" NOx_abs="59.360927" fuel_abs="65.455970" electricity_abs="0"/>
    </tripinfo>
    <tripinfo id="carIn27009:1" depart="57673.00" departLane="-447569998#1_1" departPos="5.10" departSpeed="0.00" departDelay="0.50" arrival="57799.00" arrivalLane="-26677539_1" arrivalPos="152.75" arrivalSpeed="7.54" duration="126.00" routeLength="699.63" waitingTime="22.00" waitingCount="1" stopTime="0.00" timeLoss="36.54" rerouteNo="1" devices="tripinfo_carIn27009:1 routing_carIn27009:1 emissions_carIn27009:1" vType="default_015" speedFactor="0.94" vaporized="">
        <emissions CO_abs="7762.585150" CO2_abs="248529.827711" HC_abs="41.069842" PMx_abs="4.500934" NOx_abs="103.799656" fuel_abs="106.835392" electricity_abs="0"/>
    </tripinfo>
    <tripinfo id="carIn107084:1" depart="57601.00" departLane="124812856#0_1" departPos="5.10" departSpeed="0.00" departDelay="0.70" arrival="57803.00" arrivalLane="-128361102#1_1" arrivalPos="274.68" arrivalSpeed="15.14" duration="202.00" routeLength="2250.49" waitingTime="29.00" waitingCount="2" stopTime="0.00" timeLoss="57.28" rerouteNo="1" devices="tripinfo_carIn107084:1 routing_carIn107084:1 emissions_carIn107084:1" vType="default_016" speedFactor="1.13" vaporized="">
        <emissions CO_abs="9779.317034" CO2_abs="588328.124266" HC_abs="58.172022" PMx_abs="10.666523" NOx_abs="239.195347" fuel_abs="252.897577" electricity_abs="0"/>
    </tripinfo>
    <tripinfo id="h12244c1:3" depart="57612.00" departLane="315358244_1" departPos="5.10" departSpeed="0.00" departDelay="0.40" arrival="57807.00" arrivalLane="386687235_1" arrivalPos="80.84" arrivalSpeed="13.44" duration="195.00" routeLength="1186.14" waitingTime="84.00" waitingCount="3" stopTime="0.00" timeLoss="110.50" rerouteNo="1" devices="tripinfo_h12244c1:3 routing_h12244c1:3 emissions_h12244c1:3" vType="default_016" speedFactor="1.02" vaporized="">
        <emissions CO_abs="15678.526668" CO2_abs="470052.708297" HC_abs="82.356626" PMx_abs="9.368134" NOx_abs="198.444297" fuel_abs="202.061213" electricity_abs="0"/>
    </tripinfo>
    <tripinfo id="carIn82220:1" depart="57619.00" departLane="-306240162#1_0" departPos="5.10" departSpeed="0.00" departDelay="3.50" arrival="57813.00" arrivalLane="386687235_1" arrivalPos="80.84" arrivalSpeed="13.21" duration="194.00" routeLength="2257.41" waitingTime="17.00" waitingCount="2" stopTime="0.00" timeLoss="44.41" rerouteNo="1" devices="tripinfo_carIn82220:1 routing_carIn82220:1 emissions_carIn82220:1" vType="default_016" speedFactor="0.99" vaporized="">
        <emissions CO_abs="7960.005178" CO2_abs="517746.563799" HC_abs="48.392073" PMx_abs="9.115326" NOx_abs="208.087715" fuel_abs="222.557487" electricity_abs="0"/>
    </tripinfo>
    <tripinfo id="carIn82278:1" depart="57702.00" departLane="-306240162#1_0" departPos="5.10" departSpeed="0.00" departDelay="0.70" arrival="57814.00" arrivalLane="399835085#1_1" arrivalPos="212.23" arrivalSpeed="8.50" duration="112.00" routeLength="1093.26" waitingTime="6.00" waitingCount="2" stopTime="0.00" timeLoss="35.60" rerouteNo="1" devices="tripinfo_carIn82278:1 routing_carIn82278:1 emissions_carIn82278:1" vType="default_016" speedFactor="1.03" vaporized="">
        <emissions CO_abs="6507.291117" CO2_abs="360267.954165" HC_abs="38.209530" PMx_abs="6.996765" NOx_abs="150.448998" fuel_abs="154.863742" electricity_abs="0"/>
    </tripinfo>
    <tripinfo id="carIn462:1" depart="57622.00" departLane="-306240162#1_0" departPos="5.10" departSpeed="0.00" departDelay="4.80" arrival="57815.00" arrivalLane="386687235_1" arrivalPos="80.84" arrivalSpeed="13.32" duration="193.00" routeLength="2257.41" waitingTime="14.00" waitingCount="2" stopTime="0.00" timeLoss="43.39" rerouteNo="1" devices="tripinfo_carIn462:1 routing_carIn462:1 emissions_carIn462:1" vType="default_016" speedFactor="0.99" vaporized="">
        <emissions CO_abs="6516.729934" CO2_abs="494370.924022" HC_abs="41.292025" PMx_abs="8.489425" NOx_abs="196.550004" fuel_abs="212.508764" electricity_abs="0"/>
    </tripinfo>
    <tripinfo id="h330c1:1" depart="57736.00" departLane="-32978638#0_1" departPos="5.10" departSpeed="0.00" departDelay="0.20" arrival="57818.00" arrivalLane="-266565295#5_2" arrivalPos="172.76" arrivalSpeed="13.83" duration="82.00" routeLength="370.53" waitingTime="44.00" waitingCount="1" stopTime="0.00" timeLoss="54.22" rerouteNo="1" devices="tripinfo_h330c1:1 routing_h330c1:1 emissions_h330c1:1" vType="default_016" speedFactor="1.00" vaporized="">
        <emissions CO_abs="8271.142471" CO2_abs="214803.462452" HC_abs="42.719897" PMx_abs="4.636040" NOx_abs="93.551457" fuel_abs="92.337756" electricity_abs="0"/>
    </tripinfo>
    <tripinfo id="carIn12152:1" depart="57647.00" departLane="24599188#0.94_1" departPos="5.10" departSpeed="0.00" departDelay="0.50" arrival="57820.00" arrivalLane="-315358254#1_1" arrivalPos="137.16" arrivalSpeed="13.07" duration="173.00" routeLength="2034.31" waitingTime="0.00" waitingCount="0" stopTime="0.00" timeLoss="16.56" rerouteNo="1" devices="tripinfo_carIn12152:1 routing_carIn12152:1 emissions_carIn12152:1" vType="default_016" speedFactor="1.01" vaporized="">
        <emissions CO_abs="4706.556885" CO2_abs="389504.625889" HC_abs="30.449937" PMx_abs="6.056443" NOx_abs="152.245175" fuel_abs="167.431706" electricity_abs="0"/>
    </tripinfo>
    <tripinfo id="carIn50326:1" depart="57651.00" departLane="128361102#0_1" departPos="5.10" departSpeed="0.00" departDelay="0.30" arrival="57820.00" arrivalLane="18809673#0_1" arrivalPos="473.56" arrivalSpeed="13.93" duration="169.00" routeLength="1591.07" waitingTime="21.00" waitingCount="2" stopTime="0.00" timeLoss="47.72" rerouteNo="1" devices="tripinfo_carIn50326:1 routing_carIn50326:1 emissions_carIn50326:1" vType="default_016" speedFactor="1.07" vaporized="">
        <emissions CO_abs="6779.657510" CO2_abs="390427.795439" HC_abs="39.887059" PMx_abs="6.658683" NOx_abs="157.249010" fuel_abs="167.829304" electricity_abs="0"/>
    </tripinfo>
    <tripinfo id="h317c2:1" depart="57707.00" departLane="-32978638#0_1" departPos="5.10" departSpeed="0.00" departDelay="0.10" arrival="57820.00" arrivalLane="-266565295#5_1" arrivalPos="172.76" arrivalSpeed="10.42" duration="113.00" routeLength="370.53" waitingTime="70.00" waitingCount="1" stopTime="0.00" timeLoss="78.56" rerouteNo="1" devices="tripinfo_h317c2:1 routing_h317c2:1 emissions_h317c2:1" vType="default_016" speedFactor="0.79" vaporized="">
        <emissions CO_abs="12751.603532" CO2_abs="277181.122865" HC_abs="64.538602" PMx_abs="6.063912" NOx_abs="121.498277" fuel_abs="119.153723" electricity_abs="0"/>
    </tripinfo>
    <tripinfo id="carIn12858:1" depart="57661.00" departLane="128361109#1_1" departPos="5.10" departSpeed="0.00" departDelay="0.90" arrival="57823.00" arrivalLane="399835085#1_1" arrivalPos="212.23" arrivalSpeed="6.48" duration="162.00" routeLength="1738.12" waitingTime="3.00" waitingCount="1" stopTime="0.00" timeLoss="29.18" rerouteNo="1" devices="tripinfo_carIn12858:1 routing_carIn12858:1 emissions_carIn12858:1" vType="default_016" speedFactor="0.87" vaporized="">
        <emissions CO_abs="6914.909241" CO2_abs="435944.275908" HC_abs="41.773842" PMx_abs="7.800820" NOx_abs="177.398073" fuel_abs="187.393980" electricity_abs="0"/>
    </tripinfo>
    <tripinfo id="h9563c2:5" depart="57631.00" departLane="315358244_1" departPos="5.10" departSpeed="0.00" departDelay="0.70" arrival="57824.00" arrivalLane="386687235_1" arrivalPos="80.84" arrivalSpeed="12.13" duration="193.00" routeLength="1186.14" waitingTime="66.00" waitingCount="4" stopTime="0.00" timeLoss="97.18" rerouteNo="1" devices="tripinfo_h9563c2:5 routing_h9563c2:5 emissions_h9563c2:5" vType="default_016" speedFactor="0.90" vaporized="">
        <emissions CO_abs="12033.734368" CO2_abs="390138.562270" HC_abs="63.897230" PMx_abs="7.495946" NOx_abs="163.726723" fuel_abs="167.708088" electricity_abs="0"/>
    </tripinfo>
    <tripinfo id="h645c1:1" depart="57622.00" departLane="266565295#5_1" departPos="5.10" departSpeed="0.00" departDelay="0.40" arrival="57825.00" arrivalLane="-315358244_1" arrivalPos="33.95" arrivalSpeed="13.26" duration="203.00" routeLength="1910.83" waitingTime="45.00" waitingCount="2" stopTime="0.00" timeLoss="68.90" rerouteNo="1" devices="tripinfo_h645c1:1 routing_h645c1:1 emissions_h645c1:1" vType="default_016" speedFactor="1.04" vaporized="">
        <emissions CO_abs="11384.673969" CO2_abs="505669.827362" HC_abs="63.570279" PMx_abs="9.443828" NOx_abs="208.707510" fuel_abs="217.368244" electricity_abs="0"/>
    </tripinfo>
    <tripinfo id="h9953c2:3" depart="57682.00" departLane="-54169231#2_1" departPos="5.10" departSpeed="0.00" departDelay="0.00" arrival="57832.00" arrivalLane="386687235_2" arrivalPos="80.84" arrivalSpeed="13.56" duration="150.00" routeLength="1535.60" waitingTime="1.00" waitingCount="1" stopTime="0.00" timeLoss="28.92" rerouteNo="1" devices="tripinfo_h9953c2:3 routing_h9953c2:3 emissions_h9953c2:3" vType="default_016" speedFactor="1.03" vaporized="">
        <emissions CO_abs="6327.582062" CO2_abs="401391.656258" HC_abs="38.188045" PMx_abs="7.124087" NOx_abs="164.110899" fuel_abs="172.541195" electricity_abs="0"/>
    </tripinfo>
    <tripinfo id="carIn116184:1" depart="57627.00" departLane="-306240162#1_0" departPos="5.10" departSpeed="0.00" departDelay="0.10" arrival="57833.00" arrivalLane="386687235_1" arrivalPos="80.84" arrivalSpeed="14.41" duration="206.00" routeLength="2257.41" waitingTime="30.00" waitingCount="3" stopTime="0.00" timeLoss="72.99" rerouteNo="1" devices="tripinfo_carIn116184:1 routing_carIn116184:1 emissions_carIn116184:1" vType="default_016" speedFactor="1.12" vaporized="">
        <emissions CO_abs="10016.626780" CO2_abs="604063.100479" HC_abs="59.890749" PMx_abs="11.304188" NOx_abs="246.612605" fuel_abs="259.660990" electricity_abs="0"/>
    </tripinfo>
    <tripinfo id="h11737c1:1" depart="57665.00" departLane="272042143_1" departPos="5.10" departSpeed="0.00" departDelay="1.50" arrival="57836.00" arrivalLane="-315358254#1_1" arrivalPos="137.16" arrivalSpeed="14.31" duration="171.00" routeLength="1596.88" waitingTime="44.00" waitingCount="2" stopTime="0.00" timeLoss="66.81" rerouteNo="1" devices="tripinfo_h11737c1:1 routing_h11737c1:1 emissions_h11737c1:1" vType="default_016" speedFactor="1.12" vaporized="">
        <emissions CO_abs="10588.200327" CO2_abs="466657.071569" HC_abs="59.050080" PMx_abs="8.731346" NOx_abs="191.983298" fuel_abs="200.598264" electricity_abs="0"/>
    </tripinfo>
    <tripinfo id="carIn107282:1" depart="57749.00" departLane="-447569998#1_1" departPos="5.10" departSpeed="0.00" departDelay="0.00" arrival="57837.00" arrivalLane="315358242#0_1" arrivalPos="165.37" arrivalSpeed="12.14" duration="88.00" routeLength="448.50" waitingTime="34.00" waitingCount="1" stopTime="0.00" timeLoss="44.22" rerouteNo="1" devices="tripinfo_carIn107282:1 routing_carIn107282:1 emissions_carIn107282:1" vType="default_016" speedFactor="0.95" vaporized="">
        <emissions CO_abs="6734.706456" CO2_abs="180311.367253" HC_abs="34.882187" PMx_abs="3.723944" NOx_abs="77.677989" fuel_abs="77.510662" electricity_abs="0"/>
    </tripinfo>
    <tripinfo id="randUni31145:1" depart="57814.00" departLane="10425609#0_1" departPos="5.10" departSpeed="0.00" departDelay="0.30" arrival="57839.00" arrivalLane="201956810_1" arrivalPos="71.65" arrivalSpeed="13.77" duration="25.00" routeLength="255.78" waitingTime="0.00" waitingCount="0" stopTime="0.00" timeLoss="5.63" rerouteNo="1" devices="tripinfo_randUni31145:1 routing_randUni31145:1 emissions_randUni31145:1" vType="random_016" speedFactor="1.01" vaporized="">
        <emissions CO_abs="1432.642701" CO2_abs="89998.467900" HC_abs="8.645432" PMx_abs="1.631821" NOx_abs="37.140607" fuel_abs="38.686462" electricity_abs="0"/>
    </tripinfo>
    <tripinfo id="carIn126288:1" depart="57674.00" departLane="272042143_1" departPos="5.10" departSpeed="0.00" departDelay="0.00" arrival="57841.00" arrivalLane="-315358254#1_1" arrivalPos="137.16" arrivalSpeed="12.52" duration="167.00" routeLength="1596.88" waitingTime="21.00" waitingCount="1" stopTime="0.00" timeLoss="40.96" rerouteNo="1" devices="tripinfo_carIn126288:1 routing_carIn126288:1 emissions_carIn126288:1" vType="default_016" speedFactor="0.93" vaporized="">
        <emissions CO_abs="6824.750677" CO2_abs="377832.108816" HC_abs="39.814454" PMx_abs="5.993679" NOx_abs="149.065754" fuel_abs="162.415876" electricity_abs="0"/>
    </tripinfo>
    <tripinfo id="carIn102915:1" depart="57643.00" departLane="128361102#0_1" departPos="5.10" departSpeed="0.00" departDelay="0.40" arrival="57842.00" arrivalLane="201956811#0_1" arrivalPos="40.40" arrivalSpeed="14.35" duration="199.00" routeLength="2067.33" waitingTime="31.00" waitingCount="2" stopTime="0.00" timeLoss="60.29" rerouteNo="1" devices="tripinfo_carIn102915:1 routing_carIn102915:1 emissions_carIn102915:1" vType="default_016" speedFactor="1.09" vaporized="">
        <emissions CO_abs="8631.189439" CO2_abs="502842.583764" HC_abs="51.049748" PMx_abs="8.968289" NOx_abs="203.852439" fuel_abs="216.151376" electricity_abs="0"/>
    </tripinfo>
    <tripinfo id="randUni15030:1" depart="57735.00" departLane="386687232#0_1" departPos="5.10" departSpeed="0.00" departDelay="0.10" arrival="57843.00" arrivalLane="26677539_1" arrivalPos="151.98" arrivalSpeed="7.69" duration="108.00" routeLength="919.89" waitingTime="15.00" waitingCount="1" stopTime="0.00" timeLoss="30.05" rerouteNo="1" devices="tripinfo_randUni15030:1 routing_randUni15030:1 emissions_randUni15030:1" vType="random_016" speedFactor="1.07" vaporized="">
        <emissions CO_abs="4962.936956" CO2_abs="243276.121929" HC_abs="28.254264" PMx_abs="4.239990" NOx_abs="98.903846" fuel_abs="104.575148" electricity_abs="0"/>
    </tripinfo>
    <tripinfo id="randUni2407:1" depart="57820.00" departLane="10425609#0_1" departPos="5.10" departSpeed="0.00" departDelay="0.80" arrival="57846.00" arrivalLane="201956810_1" arrivalPos="71.65" arrivalSpeed="13.52" duration="26.00" routeLength="255.78" waitingTime="0.00" waitingCount="0" stopTime="0.00" timeLoss="6.01" rerouteNo="1" devices="tripinfo_randUni2407:1 routing_randUni2407:1 emissions_randUni2407:1" vType="random_016" speedFactor="1.01" vaporized="">
        <emissions CO_abs="1571.185256" CO2_abs="92512.075670" HC_abs="9.340622" PMx_abs="1.722563" NOx_abs="38.511255" fuel_abs="39.766964" electricity_abs="0"/>
    </tripinfo>
    <tripinfo id="h4538c1:1" depart="57701.00" departLane="-10427692#1_1" departPos="5.10" departSpeed="0.00" departDelay="0.00" arrival="57847.00" arrivalLane="-128361102#1_1" arrivalPos="274.68" arrivalSpeed="13.02" duration="146.00" routeLength="440.74" waitingTime="102.00" waitingCount="1" stopTime="0.00" timeLoss="113.28" rerouteNo="1" devices="tripinfo_h4538c1:1 routing_h4538c1:1 emissions_h4538c1:1" vType="default_016" speedFactor="0.97" vaporized="">
        <emissions CO_abs="17486.117397" CO2_abs="363953.550625" HC_abs="88.147793" PMx_abs="8.162121" NOx_abs="160.297334" fuel_abs="156.455559" electricity_abs="0"/>
    </tripinfo>
    <tripinfo id="carIn75660:1" depart="57679.00" departLane="128361109#1_1" departPos="5.10" departSpeed="0.00" departDelay="3.40" arrival="57853.00" arrivalLane="386687235_2" arrivalPos="80.84" arrivalSpeed="13.12" duration="174.00" routeLength="2088.57" waitingTime="0.00" waitingCount="0" stopTime="0.00" timeLoss="22.09" rerouteNo="1" devices="tripinfo_carIn75660:1 routing_carIn75660:1 emissions_carIn75660:1" vType="default_016" speedFactor="0.99" vaporized="">
        <emissions CO_abs="4325.164287" CO2_abs="385960.274968" HC_abs="28.633991" PMx_abs="5.853219" NOx_abs="149.426156" fuel_abs="165.908127" electricity_abs="0"/>
    </tripinfo>