<?xml version="1.0" encoding="UTF-8"?>

<!-- generated on 2021-10-26 18:14:56 by Eclipse SUMO sumo Version 1.10.0
<configuration xmlns:xsi="http://www.w3.org/2001/XMLSchema-instance" xsi:noNamespaceSchemaLocation="http://sumo.dlr.de/xsd/sumoConfiguration.xsd">

    <input>
        <net-file value="/Users/behradkoohy/sumo-scratchpad/RESCO/environments/ingolstadt21/ingolstadt21.net.xml"/>
        <route-files value="/Users/behradkoohy/sumo-scratchpad/RESCO/environments/ingolstadt21/ingolstadt21.rou.xml"/>
    </input>

    <output>
        <tripinfo-output value="/Users/behradkoohy/sumo-scratchpad/RESCO/logs/IPPO-tr0-ingolstadt21-21-drq_norm-wait_norm/tripinfo_54.xml"/>
        <tripinfo-output.write-unfinished value="true"/>
    </output>

    <time>
        <begin value="57600"/>
        <end value="61200"/>
    </time>

    <processing>
        <time-to-teleport value="-1"/>
    </processing>

    <report>
        <no-warnings value="true"/>
        <no-step-log value="true"/>
    </report>

    <emissions>
        <device.emissions.probability value="1"/>
    </emissions>

    <traci_server>
        <remote-port value="62176"/>
    </traci_server>

    <random_number>
        <random value="true"/>
    </random_number>

</configuration>
-->

<tripinfos xmlns:xsi="http://www.w3.org/2001/XMLSchema-instance" xsi:noNamespaceSchemaLocation="http://sumo.dlr.de/xsd/tripinfo_file.xsd">
    <tripinfo id="h15454c2:3" depart="57612.00" departLane="24608844_1" departPos="5.10" departSpeed="0.00" departDelay="0.50" arrival="57651.00" arrivalLane="32978638#0_1" arrivalPos="49.29" arrivalSpeed="13.31" duration="39.00" routeLength="354.79" waitingTime="0.00" waitingCount="0" stopTime="0.00" timeLoss="4.44" rerouteNo="1" devices="tripinfo_h15454c2:3 routing_h15454c2:3 emissions_h15454c2:3" vType="default_016" speedFactor="0.98" vaporized="">
        <emissions CO_abs="1693.927698" CO2_abs="97237.051190" HC_abs="9.974986" PMx_abs="1.634044" NOx_abs="39.394018" fuel_abs="41.798328" electricity_abs="0"/>
    </tripinfo>
    <tripinfo id="carIn60260:1" depart="57606.00" departLane="315358254#0_1" departPos="5.10" departSpeed="0.00" departDelay="0.90" arrival="57660.00" arrivalLane="399835085#1_1" arrivalPos="212.23" arrivalSpeed="7.96" duration="54.00" routeLength="430.98" waitingTime="2.00" waitingCount="1" stopTime="0.00" timeLoss="11.70" rerouteNo="1" devices="tripinfo_carIn60260:1 routing_carIn60260:1 emissions_carIn60260:1" vType="default_016" speedFactor="1.09" vaporized="">
        <emissions CO_abs="2497.574583" CO2_abs="130085.968921" HC_abs="14.391784" PMx_abs="2.203034" NOx_abs="53.000807" fuel_abs="55.918920" electricity_abs="0"/>
    </tripinfo>
    <tripinfo id="carIn53971:1" depart="57640.00" departLane="272042143_1" departPos="5.10" departSpeed="0.00" departDelay="0.80" arrival="57696.00" arrivalLane="24634414#1_1" arrivalPos="162.19" arrivalSpeed="8.08" duration="56.00" routeLength="493.04" waitingTime="0.00" waitingCount="0" stopTime="0.00" timeLoss="8.91" rerouteNo="1" devices="tripinfo_carIn53971:1 routing_carIn53971:1 emissions_carIn53971:1" vType="default_016" speedFactor="0.98" vaporized="">
        <emissions CO_abs="2563.780920" CO2_abs="142095.366640" HC_abs="14.997082" PMx_abs="2.504369" NOx_abs="58.448468" fuel_abs="61.081012" electricity_abs="0"/>
    </tripinfo>
    <tripinfo id="h12244c1:3" depart="57612.00" departLane="315358244_1" departPos="5.10" departSpeed="0.00" departDelay="0.40" arrival="57717.00" arrivalLane="386687235_1" arrivalPos="80.84" arrivalSpeed="13.95" duration="105.00" routeLength="1186.14" waitingTime="3.00" waitingCount="1" stopTime="0.00" timeLoss="19.59" rerouteNo="1" devices="tripinfo_h12244c1:3 routing_h12244c1:3 emissions_h12244c1:3" vType="default_016" speedFactor="1.01" vaporized="">
        <emissions CO_abs="3737.553932" CO2_abs="284047.267253" HC_abs="23.618144" PMx_abs="4.663943" NOx_abs="112.676371" fuel_abs="122.099884" electricity_abs="0"/>
    </tripinfo>
    <tripinfo id="h3688c1:1" depart="57625.00" departLane="201201950#1_1" departPos="5.10" departSpeed="0.00" departDelay="0.00" arrival="57718.00" arrivalLane="32978638#0_1" arrivalPos="49.29" arrivalSpeed="12.50" duration="93.00" routeLength="1089.75" waitingTime="0.00" waitingCount="0" stopTime="0.00" timeLoss="10.24" rerouteNo="1" devices="tripinfo_h3688c1:1 routing_h3688c1:1 emissions_h3688c1:1" vType="default_016" speedFactor="0.98" vaporized="">
        <emissions CO_abs="2903.968703" CO2_abs="246597.501068" HC_abs="18.963565" PMx_abs="3.871590" NOx_abs="96.633613" fuel_abs="106.001807" electricity_abs="0"/>
    </tripinfo>
    <tripinfo id="S5R_frequency1.2" depart="57624.00" departLane="315358250#0_1" departPos="12.10" departSpeed="0.00" departDelay="12.40" arrival="57720.00" arrivalLane="386687235_1" arrivalPos="80.84" arrivalSpeed="13.43" duration="96.00" routeLength="1115.62" waitingTime="0.00" waitingCount="0" stopTime="0.00" timeLoss="14.39" rerouteNo="1" devices="tripinfo_S5R_frequency1.2 routing_S5R_frequency1.2 emissions_S5R_frequency1.2" vType="bus" speedFactor="1.00" vaporized="">
        <emissions CO_abs="1792.791683" CO2_abs="1116202.308962" HC_abs="384.177620" PMx_abs="192.398892" NOx_abs="8673.015110" fuel_abs="476.051592" electricity_abs="0"/>
    </tripinfo>
    <tripinfo id="h7800c1:5" depart="57696.00" departLane="-447569998#1_1" departPos="5.10" departSpeed="0.00" departDelay="0.00" arrival="57720.00" arrivalLane="-447569998#1_1" arrivalPos="180.76" arrivalSpeed="7.95" duration="24.00" routeLength="175.66" waitingTime="0.00" waitingCount="0" stopTime="0.00" timeLoss="3.80" rerouteNo="1" devices="tripinfo_h7800c1:5 routing_h7800c1:5 emissions_h7800c1:5" vType="default_016" speedFactor="1.06" vaporized="">
        <emissions CO_abs="1189.792315" CO2_abs="52884.217076" HC_abs="6.625632" PMx_abs="0.833359" NOx_abs="21.283017" fuel_abs="22.733107" electricity_abs="0"/>
    </tripinfo>
    <tripinfo id="h3568c1:3" depart="57656.00" departLane="266565295#5_1" departPos="5.10" departSpeed="0.00" departDelay="0.80" arrival="57748.00" arrivalLane="-24634415_1" arrivalPos="62.03" arrivalSpeed="11.79" duration="92.00" routeLength="807.40" waitingTime="6.00" waitingCount="1" stopTime="0.00" timeLoss="23.19" rerouteNo="1" devices="tripinfo_h3568c1:3 routing_h3568c1:3 emissions_h3568c1:3" vType="default_016" speedFactor="0.94" vaporized="">
        <emissions CO_abs="4005.094791" CO2_abs="227541.952869" HC_abs="23.579707" PMx_abs="4.086285" NOx_abs="93.840982" fuel_abs="97.810844" electricity_abs="0"/>
    </tripinfo>
    <tripinfo id="h4538c1:1" depart="57701.00" departLane="-10427692#1_1" departPos="5.10" departSpeed="0.00" departDelay="0.00" arrival="57755.00" arrivalLane="-128361102#1_1" arrivalPos="274.68" arrivalSpeed="13.60" duration="54.00" routeLength="440.74" waitingTime="13.00" waitingCount="1" stopTime="0.00" timeLoss="23.13" rerouteNo="1" devices="tripinfo_h4538c1:1 routing_h4538c1:1 emissions_h4538c1:1" vType="default_016" speedFactor="1.02" vaporized="">
        <emissions CO_abs="3172.342949" CO2_abs="138357.388830" HC_abs="17.647805" PMx_abs="2.522999" NOx_abs="56.869177" fuel_abs="59.474711" electricity_abs="0"/>
    </tripinfo>
    <tripinfo id="carIn22761:1" depart="57616.00" departLane="-306240162#1_0" departPos="5.10" departSpeed="0.00" departDelay="2.10" arrival="57759.00" arrivalLane="399835085#1_1" arrivalPos="212.23" arrivalSpeed="8.72" duration="143.00" routeLength="1093.26" waitingTime="50.00" waitingCount="2" stopTime="0.00" timeLoss="73.75" rerouteNo="1" devices="tripinfo_carIn22761:1 routing_carIn22761:1 emissions_carIn22761:1" vType="default_016" speedFactor="1.13" vaporized="">
        <emissions CO_abs="12396.112998" CO2_abs="462794.946281" HC_abs="67.480094" PMx_abs="9.737539" NOx_abs="197.678516" fuel_abs="198.938050" electricity_abs="0"/>
    </tripinfo>
    <tripinfo id="h9563c2:5" depart="57631.00" departLane="315358244_1" departPos="5.10" departSpeed="0.00" departDelay="0.70" arrival="57760.00" arrivalLane="386687235_1" arrivalPos="80.84" arrivalSpeed="9.79" duration="129.00" routeLength="1186.14" waitingTime="0.00" waitingCount="0" stopTime="0.00" timeLoss="10.85" rerouteNo="1" devices="tripinfo_h9563c2:5 routing_h9563c2:5 emissions_h9563c2:5" vType="default_016" speedFactor="0.73" vaporized="">
        <emissions CO_abs="3494.003819" CO2_abs="221131.727836" HC_abs="20.952071" PMx_abs="3.142148" NOx_abs="85.980404" fuel_abs="95.056266" electricity_abs="0"/>
    </tripinfo>
    <tripinfo id="carIn30817:1" depart="57681.00" departLane="315358244_1" departPos="5.10" departSpeed="0.00" departDelay="0.20" arrival="57763.00" arrivalLane="447569997#1_1" arrivalPos="180.93" arrivalSpeed="7.16" duration="82.00" routeLength="718.04" waitingTime="2.00" waitingCount="1" stopTime="0.00" timeLoss="19.69" rerouteNo="1" devices="tripinfo_carIn30817:1 routing_carIn30817:1 emissions_carIn30817:1" vType="default_016" speedFactor="0.99" vaporized="">
        <emissions CO_abs="3665.367870" CO2_abs="199669.192495" HC_abs="21.353878" PMx_abs="3.495008" NOx_abs="81.730851" fuel_abs="85.829771" electricity_abs="0"/>
    </tripinfo>
    <tripinfo id="carIn27009:1" depart="57673.00" departLane="-447569998#1_1" departPos="5.10" departSpeed="0.00" departDelay="0.50" arrival="57766.00" arrivalLane="-26677539_1" arrivalPos="152.75" arrivalSpeed="7.61" duration="93.00" routeLength="699.63" waitingTime="0.00" waitingCount="0" stopTime="0.00" timeLoss="11.65" rerouteNo="1" devices="tripinfo_carIn27009:1 routing_carIn27009:1 emissions_carIn27009:1" vType="default_015" speedFactor="1.03" vaporized="">
        <emissions CO_abs="3673.132287" CO2_abs="180187.064470" HC_abs="20.862222" PMx_abs="2.889224" NOx_abs="72.853305" fuel_abs="77.455820" electricity_abs="0"/>
    </tripinfo>
    <tripinfo id="carIn80064:1" depart="57603.00" departLane="128361109#1_1" departPos="5.10" departSpeed="0.00" departDelay="0.40" arrival="57771.00" arrivalLane="-315358254#1_1" arrivalPos="137.16" arrivalSpeed="12.90" duration="168.00" routeLength="1587.97" waitingTime="44.00" waitingCount="2" stopTime="0.00" timeLoss="79.63" rerouteNo="1" devices="tripinfo_carIn80064:1 routing_carIn80064:1 emissions_carIn80064:1" vType="default_016" speedFactor="1.02" vaporized="">
        <emissions CO_abs="13295.257734" CO2_abs="571734.633362" HC_abs="74.189569" PMx_abs="11.769229" NOx_abs="241.297640" fuel_abs="245.765899" electricity_abs="0"/>
    </tripinfo>
    <tripinfo id="carIn121703:1" depart="57647.00" departLane="386687232#0_1" departPos="5.10" departSpeed="0.00" departDelay="0.30" arrival="57773.00" arrivalLane="-315358244_1" arrivalPos="33.95" arrivalSpeed="14.11" duration="126.00" routeLength="1157.39" waitingTime="33.00" waitingCount="1" stopTime="0.00" timeLoss="46.06" rerouteNo="1" devices="tripinfo_carIn121703:1 routing_carIn121703:1 emissions_carIn121703:1" vType="default_016" speedFactor="1.06" vaporized="">
        <emissions CO_abs="7513.419374" CO2_abs="308769.514806" HC_abs="41.367134" PMx_abs="5.648878" NOx_abs="126.070160" fuel_abs="132.729010" electricity_abs="0"/>
    </tripinfo>
    <tripinfo id="h317c2:1" depart="57707.00" departLane="-32978638#0_1" departPos="5.10" departSpeed="0.00" departDelay="0.10" arrival="57775.00" arrivalLane="-266565295#5_1" arrivalPos="172.76" arrivalSpeed="13.56" duration="68.00" routeLength="370.53" waitingTime="30.00" waitingCount="1" stopTime="0.00" timeLoss="40.18" rerouteNo="1" devices="tripinfo_h317c2:1 routing_h317c2:1 emissions_h317c2:1" vType="default_016" speedFactor="0.99" vaporized="">
        <emissions CO_abs="6710.393874" CO2_abs="201084.905779" HC_abs="35.256717" PMx_abs="4.116456" NOx_abs="85.918909" fuel_abs="86.440023" electricity_abs="0"/>
    </tripinfo>
    <tripinfo id="h330c1:1" depart="57736.00" departLane="-32978638#0_1" departPos="5.10" departSpeed="0.00" departDelay="0.20" arrival="57779.00" arrivalLane="-266565295#5_1" arrivalPos="172.76" arrivalSpeed="12.30" duration="43.00" routeLength="370.53" waitingTime="5.00" waitingCount="1" stopTime="0.00" timeLoss="12.32" rerouteNo="1" devices="tripinfo_h330c1:1 routing_h330c1:1 emissions_h330c1:1" vType="default_016" speedFactor="0.91" vaporized="">
        <emissions CO_abs="2256.655620" CO2_abs="125225.524144" HC_abs="13.217902" PMx_abs="2.262383" NOx_abs="51.664556" fuel_abs="53.829288" electricity_abs="0"/>
    </tripinfo>
    <tripinfo id="carIn118591:1" depart="57689.00" departLane="315358244_1" departPos="5.10" departSpeed="0.00" departDelay="0.20" arrival="57793.00" arrivalLane="386687235_1" arrivalPos="80.84" arrivalSpeed="12.40" duration="104.00" routeLength="1186.14" waitingTime="2.00" waitingCount="1" stopTime="0.00" timeLoss="13.95" rerouteNo="1" devices="tripinfo_carIn118591:1 routing_carIn118591:1 emissions_carIn118591:1" vType="default_016" speedFactor="0.96" vaporized="">
        <emissions CO_abs="3222.882898" CO2_abs="243870.309643" HC_abs="20.350701" PMx_abs="4.007121" NOx_abs="97.023183" fuel_abs="104.829495" electricity_abs="0"/>
    </tripinfo>
    <tripinfo id="h3326c1:2" depart="57656.00" departLane="22716069#0_1" departPos="5.10" departSpeed="0.00" departDelay="0.00" arrival="57794.00" arrivalLane="24634517#13_1" arrivalPos="111.62" arrivalSpeed="11.25" duration="138.00" routeLength="1312.81" waitingTime="8.00" waitingCount="1" stopTime="0.00" timeLoss="25.21" rerouteNo="1" devices="tripinfo_h3326c1:2 routing_h3326c1:2 emissions_h3326c1:2" vType="default_016" speedFactor="0.86" vaporized="">
        <emissions CO_abs="4658.317301" CO2_abs="293502.657707" HC_abs="28.025266" PMx_abs="4.756673" NOx_abs="117.319920" fuel_abs="126.165007" electricity_abs="0"/>
    </tripinfo>
    <tripinfo id="carIn107084:1" depart="57601.00" departLane="124812856#0_1" departPos="5.10" departSpeed="0.00" departDelay="0.70" arrival="57795.00" arrivalLane="-128361102#1_1" arrivalPos="274.68" arrivalSpeed="13.75" duration="194.00" routeLength="2250.49" waitingTime="17.00" waitingCount="1" stopTime="0.00" timeLoss="36.97" rerouteNo="1" devices="tripinfo_carIn107084:1 routing_carIn107084:1 emissions_carIn107084:1" vType="default_016" speedFactor="1.05" vaporized="">
        <emissions CO_abs="7530.511368" CO2_abs="512205.811157" HC_abs="46.104077" PMx_abs="8.664472" NOx_abs="204.005700" fuel_abs="220.175925" electricity_abs="0"/>
    </tripinfo>
    <tripinfo id="carIn28951:1" depart="57606.00" departLane="10425609#0_1" departPos="5.10" departSpeed="0.00" departDelay="0.20" arrival="57797.00" arrivalLane="-128361102#1_1" arrivalPos="274.68" arrivalSpeed="14.74" duration="191.00" routeLength="2113.04" waitingTime="20.00" waitingCount="2" stopTime="0.00" timeLoss="47.06" rerouteNo="1" devices="tripinfo_carIn28951:1 routing_carIn28951:1 emissions_carIn28951:1" vType="default_016" speedFactor="1.08" vaporized="">
        <emissions CO_abs="8005.463027" CO2_abs="510352.090949" HC_abs="48.360476" PMx_abs="9.039160" NOx_abs="206.559744" fuel_abs="219.378843" electricity_abs="0"/>
    </tripinfo>
    <tripinfo id="carIn82278:1" depart="57702.00" departLane="-306240162#1_0" departPos="5.10" departSpeed="0.00" departDelay="0.70" arrival="57799.00" arrivalLane="399835085#1_1" arrivalPos="212.23" arrivalSpeed="8.61" duration="97.00" routeLength="1093.26" waitingTime="0.00" waitingCount="0" stopTime="0.00" timeLoss="27.29" rerouteNo="1" devices="tripinfo_carIn82278:1 routing_carIn82278:1 emissions_carIn82278:1" vType="default_016" speedFactor="1.12" vaporized="">
        <emissions CO_abs="6165.489870" CO2_abs="373660.622034" HC_abs="37.007505" PMx_abs="7.349026" NOx_abs="156.648872" fuel_abs="160.620034" electricity_abs="0"/>
    </tripinfo>
    <tripinfo id="h17600c1:1" depart="57662.00" departLane="272042143_1" departPos="5.10" departSpeed="0.00" departDelay="0.30" arrival="57801.00" arrivalLane="201238729#3_1" arrivalPos="431.02" arrivalSpeed="15.67" duration="139.00" routeLength="2100.26" waitingTime="0.00" waitingCount="0" stopTime="0.00" timeLoss="10.13" rerouteNo="1" devices="tripinfo_h17600c1:1 routing_h17600c1:1 emissions_h17600c1:1" vType="default_016" speedFactor="1.18" vaporized="">
        <emissions CO_abs="3145.027582" CO2_abs="342630.202164" HC_abs="22.175284" PMx_abs="5.509125" NOx_abs="131.932712" fuel_abs="147.281521" electricity_abs="0"/>
    </tripinfo>
    <tripinfo id="h7181c1:1" depart="57660.00" departLane="315358254#0_1" departPos="5.10" departSpeed="0.00" departDelay="0.10" arrival="57802.00" arrivalLane="306240162#0_0" arrivalPos="220.43" arrivalSpeed="15.33" duration="142.00" routeLength="932.35" waitingTime="58.00" waitingCount="3" stopTime="0.00" timeLoss="86.49" rerouteNo="1" devices="tripinfo_h7181c1:1 routing_h7181c1:1 emissions_h7181c1:1" vType="default_016" speedFactor="0.93" vaporized="">
        <emissions CO_abs="12002.926680" CO2_abs="423838.647575" HC_abs="64.683881" PMx_abs="8.847155" NOx_abs="180.859398" fuel_abs="182.192838" electricity_abs="0"/>
    </tripinfo>
    <tripinfo id="h645c1:1" depart="57622.00" departLane="266565295#5_1" departPos="5.10" departSpeed="0.00" departDelay="0.40" arrival="57803.00" arrivalLane="-315358244_1" arrivalPos="33.95" arrivalSpeed="14.50" duration="181.00" routeLength="1910.83" waitingTime="25.00" waitingCount="3" stopTime="0.00" timeLoss="54.60" rerouteNo="1" devices="tripinfo_h645c1:1 routing_h645c1:1 emissions_h645c1:1" vType="default_016" speedFactor="1.10" vaporized="">
        <emissions CO_abs="7799.475113" CO2_abs="476963.262695" HC_abs="46.513800" PMx_abs="8.515428" NOx_abs="193.212292" fuel_abs="205.026565" electricity_abs="0"/>
    </tripinfo>
    <tripinfo id="carIn50326:1" depart="57651.00" departLane="128361102#0_1" departPos="5.10" departSpeed="0.00" departDelay="0.30" arrival="57804.00" arrivalLane="18809673#0_1" arrivalPos="473.56" arrivalSpeed="12.91" duration="153.00" routeLength="1591.07" waitingTime="0.00" waitingCount="0" stopTime="0.00" timeLoss="18.85" rerouteNo="1" devices="tripinfo_carIn50326:1 routing_carIn50326:1 emissions_carIn50326:1" vType="default_016" speedFactor="0.97" vaporized="">
        <emissions CO_abs="4951.275796" CO2_abs="341604.879626" HC_abs="30.412669" PMx_abs="5.291119" NOx_abs="134.438790" fuel_abs="146.842241" electricity_abs="0"/>
    </tripinfo>
    <tripinfo id="h16072c2:3" depart="57663.00" departLane="315358254#0_1" departPos="5.10" departSpeed="0.00" departDelay="2.50" arrival="57804.00" arrivalLane="386687235_1" arrivalPos="80.84" arrivalSpeed="13.89" duration="141.00" routeLength="1611.92" waitingTime="7.00" waitingCount="1" stopTime="0.00" timeLoss="23.87" rerouteNo="1" devices="tripinfo_h16072c2:3 routing_h16072c2:3 emissions_h16072c2:3" vType="default_016" speedFactor="1.01" vaporized="">
        <emissions CO_abs="4351.976773" CO2_abs="345214.438913" HC_abs="27.828335" PMx_abs="5.525660" NOx_abs="135.759549" fuel_abs="148.393143" electricity_abs="0"/>
    </tripinfo>
    <tripinfo id="carIn12365:1" depart="57713.00" departLane="315358244_1" departPos="5.10" departSpeed="0.00" departDelay="0.50" arrival="57806.00" arrivalLane="447569997#1_1" arrivalPos="180.93" arrivalSpeed="7.14" duration="93.00" routeLength="718.04" waitingTime="18.00" waitingCount="1" stopTime="0.00" timeLoss="29.71" rerouteNo="1" devices="tripinfo_carIn12365:1 routing_carIn12365:1 emissions_carIn12365:1" vType="default_016" speedFactor="0.97" vaporized="">
        <emissions CO_abs="5080.914733" CO2_abs="213342.553963" HC_abs="28.094811" PMx_abs="3.765313" NOx_abs="87.357586" fuel_abs="91.708368" electricity_abs="0"/>
    </tripinfo>
    <tripinfo id="carIn107282:1" depart="57749.00" departLane="-447569998#1_1" departPos="5.10" departSpeed="0.00" departDelay="0.00" arrival="57806.00" arrivalLane="315358242#0_1" arrivalPos="165.37" arrivalSpeed="13.19" duration="57.00" routeLength="448.50" waitingTime="4.00" waitingCount="1" stopTime="0.00" timeLoss="14.27" rerouteNo="1" devices="tripinfo_carIn107282:1 routing_carIn107282:1 emissions_carIn107282:1" vType="default_016" speedFactor="0.98" vaporized="">
        <emissions CO_abs="2464.867753" CO2_abs="126930.325235" HC_abs="14.173543" PMx_abs="2.168891" NOx_abs="51.769865" fuel_abs="54.562432" electricity_abs="0"/>
    </tripinfo>
    <tripinfo id="h3154c1:1" depart="57658.00" departLane="24634507_1" departPos="5.10" departSpeed="0.00" departDelay="0.00" arrival="57809.00" arrivalLane="-266565295#5_1" arrivalPos="172.76" arrivalSpeed="11.23" duration="151.00" routeLength="1206.22" waitingTime="29.00" waitingCount="2" stopTime="0.00" timeLoss="50.51" rerouteNo="1" devices="tripinfo_h3154c1:1 routing_h3154c1:1 emissions_h3154c1:1" vType="default_016" speedFactor="0.89" vaporized="">
        <emissions CO_abs="7647.240164" CO2_abs="342579.295642" HC_abs="42.817571" PMx_abs="6.132746" NOx_abs="140.787832" fuel_abs="147.262077" electricity_abs="0"/>
    </tripinfo>
    <tripinfo id="h11737c1:1" depart="57665.00" departLane="272042143_1" departPos="5.10" departSpeed="0.00" departDelay="1.50" arrival="57817.00" arrivalLane="-315358254#1_1" arrivalPos="137.16" arrivalSpeed="13.98" duration="152.00" routeLength="1596.88" waitingTime="27.00" waitingCount="1" stopTime="0.00" timeLoss="45.23" rerouteNo="1" devices="tripinfo_h11737c1:1 routing_h11737c1:1 emissions_h11737c1:1" vType="default_016" speedFactor="1.09" vaporized="">
        <emissions CO_abs="7507.545864" CO2_abs="390518.362624" HC_abs="43.143118" PMx_abs="6.965087" NOx_abs="157.804645" fuel_abs="167.868520" electricity_abs="0"/>
    </tripinfo>
    <tripinfo id="carIn126288:1" depart="57674.00" departLane="272042143_1" departPos="5.10" departSpeed="0.00" departDelay="0.00" arrival="57818.00" arrivalLane="-315358254#1_1" arrivalPos="137.16" arrivalSpeed="14.86" duration="144.00" routeLength="1596.88" waitingTime="18.00" waitingCount="2" stopTime="0.00" timeLoss="38.90" rerouteNo="1" devices="tripinfo_carIn126288:1 routing_carIn126288:1 emissions_carIn126288:1" vType="default_016" speedFactor="1.10" vaporized="">
        <emissions CO_abs="6861.770477" CO2_abs="389454.393778" HC_abs="40.222643" PMx_abs="7.126795" NOx_abs="159.138089" fuel_abs="167.410288" electricity_abs="0"/>
    </tripinfo>
    <tripinfo id="carIn12858:1" depart="57661.00" departLane="128361109#1_1" departPos="5.10" departSpeed="0.00" departDelay="0.90" arrival="57822.00" arrivalLane="399835085#1_1" arrivalPos="212.23" arrivalSpeed="8.26" duration="161.00" routeLength="1738.12" waitingTime="23.00" waitingCount="1" stopTime="0.00" timeLoss="49.63" rerouteNo="1" devices="tripinfo_carIn12858:1 routing_carIn12858:1 emissions_carIn12858:1" vType="default_016" speedFactor="1.04" vaporized="">
        <emissions CO_abs="9799.049463" CO2_abs="528642.716366" HC_abs="57.220008" PMx_abs="10.305174" NOx_abs="218.644447" fuel_abs="227.241229" electricity_abs="0"/>
    </tripinfo>
    <tripinfo id="h5979c1:5" depart="57669.00" departLane="399835085#1_1" departPos="5.10" departSpeed="0.00" departDelay="0.00" arrival="57823.00" arrivalLane="-315358254#1_1" arrivalPos="137.16" arrivalSpeed="12.33" duration="154.00" routeLength="659.33" waitingTime="51.00" waitingCount="2" stopTime="0.00" timeLoss="75.11" rerouteNo="1" devices="tripinfo_h5979c1:5 routing_h5979c1:5 emissions_h5979c1:5" vType="default_016" speedFactor="0.93" vaporized="">
        <emissions CO_abs="12302.264655" CO2_abs="324261.292830" HC_abs="63.557741" PMx_abs="6.558597" NOx_abs="139.417196" fuel_abs="139.390897" electricity_abs="0"/>
    </tripinfo>
    <tripinfo id="carIn107842:1" depart="57623.00" departLane="124812856#0_1" departPos="5.10" departSpeed="0.00" departDelay="1.90" arrival="57831.00" arrivalLane="-128361102#1_1" arrivalPos="274.68" arrivalSpeed="15.57" duration="208.00" routeLength="2250.49" waitingTime="7.00" waitingCount="2" stopTime="0.00" timeLoss="61.19" rerouteNo="1" devices="tripinfo_carIn107842:1 routing_carIn107842:1 emissions_carIn107842:1" vType="default_016" speedFactor="1.13" vaporized="">
        <emissions CO_abs="7997.430350" CO2_abs="556719.645884" HC_abs="49.417187" PMx_abs="9.821592" NOx_abs="226.443081" fuel_abs="239.309591" electricity_abs="0"/>
    </tripinfo>
    <tripinfo id="carIn129809:1" depart="57729.00" departLane="-447569998#1_1" departPos="5.10" departSpeed="0.00" departDelay="1.00" arrival="57834.00" arrivalLane="-315358244_1" arrivalPos="33.95" arrivalSpeed="12.44" duration="105.00" routeLength="706.49" waitingTime="23.00" waitingCount="2" stopTime="0.00" timeLoss="43.51" rerouteNo="1" devices="tripinfo_carIn129809:1 routing_carIn129809:1 emissions_carIn129809:1" vType="default_015" speedFactor="0.98" vaporized="">
        <emissions CO_abs="7242.561883" CO2_abs="256694.662895" HC_abs="38.952808" PMx_abs="4.844842" NOx_abs="107.332745" fuel_abs="110.344359" electricity_abs="0"/>
    </tripinfo>
    <tripinfo id="carIn86816:1" depart="57617.00" departLane="128361102#0_1" departPos="5.10" departSpeed="0.00" departDelay="0.80" arrival="57835.00" arrivalLane="201956811#0_1" arrivalPos="40.40" arrivalSpeed="12.93" duration="218.00" routeLength="2067.33" waitingTime="37.00" waitingCount="1" stopTime="0.00" timeLoss="57.28" rerouteNo="1" devices="tripinfo_carIn86816:1 routing_carIn86816:1 emissions_carIn86816:1" vType="default_016" speedFactor="0.94" vaporized="">
        <emissions CO_abs="10326.611252" CO2_abs="512049.256834" HC_abs="58.911587" PMx_abs="8.545580" NOx_abs="204.604352" fuel_abs="220.111093" electricity_abs="0"/>
    </tripinfo>
    <tripinfo id="carIn8642:1" depart="57774.00" departLane="-447569998#1_1" departPos="5.10" departSpeed="0.00" departDelay="0.90" arrival="57837.00" arrivalLane="-315358244_1" arrivalPos="33.95" arrivalSpeed="14.50" duration="63.00" routeLength="706.49" waitingTime="0.00" waitingCount="0" stopTime="0.00" timeLoss="6.07" rerouteNo="1" devices="tripinfo_carIn8642:1 routing_carIn8642:1 emissions_carIn8642:1" vType="default_016" speedFactor="1.07" vaporized="">
        <emissions CO_abs="1965.680606" CO2_abs="144243.610262" HC_abs="12.226939" PMx_abs="2.292660" NOx_abs="56.742900" fuel_abs="62.004377" electricity_abs="0"/>
    </tripinfo>
    <tripinfo id="carIn77943:1" depart="57608.00" departLane="124812856#0_1" departPos="5.10" departSpeed="0.00" departDelay="2.50" arrival="57838.00" arrivalLane="-128361102#1_1" arrivalPos="274.68" arrivalSpeed="12.44" duration="230.00" routeLength="2250.49" waitingTime="28.00" waitingCount="1" stopTime="0.00" timeLoss="60.62" rerouteNo="1" devices="tripinfo_carIn77943:1 routing_carIn77943:1 emissions_carIn77943:1" vType="default_016" speedFactor="0.97" vaporized="">
        <emissions CO_abs="10921.987531" CO2_abs="563090.377940" HC_abs="62.919363" PMx_abs="10.049467" NOx_abs="230.281599" fuel_abs="242.050308" electricity_abs="0"/>
    </tripinfo>
    <tripinfo id="h5938c1:1" depart="57740.00" departLane="-26677542#0_1" departPos="5.10" departSpeed="0.00" departDelay="0.00" arrival="57839.00" arrivalLane="447569997#1_1" arrivalPos="180.93" arrivalSpeed="7.87" duration="99.00" routeLength="1093.64" waitingTime="0.00" waitingCount="0" stopTime="0.00" timeLoss="10.54" rerouteNo="1" devices="tripinfo_h5938c1:1 routing_h5938c1:1 emissions_h5938c1:1" vType="default_016" speedFactor="1.09" vaporized="">
        <emissions CO_abs="3299.644226" CO2_abs="223924.202341" HC_abs="20.242812" PMx_abs="3.688153" NOx_abs="89.379712" fuel_abs="96.255767" electricity_abs="0"/>
    </tripinfo>
    <tripinfo id="carIn81046:1" depart="57611.00" departLane="124812856#0_1" departPos="5.10" departSpeed="0.00" departDelay="2.50" arrival="57840.00" arrivalLane="-128361102#1_1" arrivalPos="274.68" arrivalSpeed="13.33" duration="229.00" routeLength="2250.49" waitingTime="26.00" waitingCount="1" stopTime="0.00" timeLoss="69.61" rerouteNo="1" devices="tripinfo_carIn81046:1 routing_carIn81046:1 emissions_carIn81046:1" vType="default_016" speedFactor="1.03" vaporized="">
        <emissions CO_abs="10878.004051" CO2_abs="595667.118717" HC_abs="63.520714" PMx_abs="10.670730" NOx_abs="243.648578" fuel_abs="256.053146" electricity_abs="0"/>
    </tripinfo>
    <tripinfo id="carIn77438:1" depart="57614.00" departLane="124812856#0_1" departPos="5.10" departSpeed="0.00" departDelay="1.10" arrival="57842.00" arrivalLane="-128361102#1_1" arrivalPos="274.68" arrivalSpeed="13.63" duration="228.00" routeLength="2250.49" waitingTime="21.00" waitingCount="2" stopTime="0.00" timeLoss="69.28" rerouteNo="1" devices="tripinfo_carIn77438:1 routing_carIn77438:1 emissions_carIn77438:1" vType="default_016" speedFactor="1.04" vaporized="">
        <emissions CO_abs="10974.278653" CO2_abs="632005.343931" HC_abs="64.782952" PMx_abs="11.315655" NOx_abs="258.741763" fuel_abs="271.672964" electricity_abs="0"/>
    </tripinfo>
    <tripinfo id="carIn81860:1" depart="57712.00" departLane="128361102#0_1" departPos="5.10" departSpeed="0.00" departDelay="0.60" arrival="57850.00" arrivalLane="-24634517#17_1" arrivalPos="6.43" arrivalSpeed="7.15" duration="138.00" routeLength="1229.64" waitingTime="20.00" waitingCount="1" stopTime="0.00" timeLoss="42.07" rerouteNo="1" devices="tripinfo_carIn81860:1 routing_carIn81860:1 emissions_carIn81860:1" vType="default_016" speedFactor="0.94" vaporized="">
        <emissions CO_abs="6687.538377" CO2_abs="315909.374742" HC_abs="37.827184" PMx_abs="5.576395" NOx_abs="128.908867" fuel_abs="135.797523" electricity_abs="0"/>
    </tripinfo>
    <tripinfo id="carIn102915:1" depart="57643.00" departLane="128361102#0_1" departPos="5.10" departSpeed="0.00" departDelay="0.40" arrival="57852.00" arrivalLane="201956811#0_1" arrivalPos="40.40" arrivalSpeed="14.67" duration="209.00" routeLength="2067.33" waitingTime="37.00" waitingCount="3" stopTime="0.00" timeLoss="72.23" rerouteNo="1" devices="tripinfo_carIn102915:1 routing_carIn102915:1 emissions_carIn102915:1" vType="default_016" speedFactor="1.11" vaporized="">
        <emissions CO_abs="11517.931200" CO2_abs="583464.853194" HC_abs="66.076541" PMx_abs="10.833647" NOx_abs="239.967103" fuel_abs="250.808137" electricity_abs="0"/>
    </tripinfo>