<?xml version="1.0" encoding="UTF-8"?>

<!-- generated on 2021-10-26 18:50:07 by Eclipse SUMO sumo Version 1.10.0
<configuration xmlns:xsi="http://www.w3.org/2001/XMLSchema-instance" xsi:noNamespaceSchemaLocation="http://sumo.dlr.de/xsd/sumoConfiguration.xsd">

    <input>
        <net-file value="/Users/behradkoohy/sumo-scratchpad/RESCO/environments/ingolstadt21/ingolstadt21.net.xml"/>
        <route-files value="/Users/behradkoohy/sumo-scratchpad/RESCO/environments/ingolstadt21/ingolstadt21.rou.xml"/>
    </input>

    <output>
        <tripinfo-output value="/Users/behradkoohy/sumo-scratchpad/RESCO/logs/IPPO-tr0-ingolstadt21-21-drq_norm-wait_norm/tripinfo_98.xml"/>
        <tripinfo-output.write-unfinished value="true"/>
    </output>

    <time>
        <begin value="57600"/>
        <end value="61200"/>
    </time>

    <processing>
        <time-to-teleport value="-1"/>
    </processing>

    <report>
        <no-warnings value="true"/>
        <no-step-log value="true"/>
    </report>

    <emissions>
        <device.emissions.probability value="1"/>
    </emissions>

    <traci_server>
        <remote-port value="62591"/>
    </traci_server>

    <random_number>
        <random value="true"/>
    </random_number>

</configuration>
-->

<tripinfos xmlns:xsi="http://www.w3.org/2001/XMLSchema-instance" xsi:noNamespaceSchemaLocation="http://sumo.dlr.de/xsd/tripinfo_file.xsd">
    <tripinfo id="h15454c2:3" depart="57612.00" departLane="24608844_1" departPos="5.10" departSpeed="0.00" departDelay="0.50" arrival="57650.00" arrivalLane="32978638#0_1" arrivalPos="49.29" arrivalSpeed="13.91" duration="38.00" routeLength="354.79" waitingTime="0.00" waitingCount="0" stopTime="0.00" timeLoss="4.60" rerouteNo="1" devices="tripinfo_h15454c2:3 routing_h15454c2:3 emissions_h15454c2:3" vType="default_016" speedFactor="1.03" vaporized="">
        <emissions CO_abs="1586.880993" CO2_abs="90755.103786" HC_abs="9.361074" PMx_abs="1.652776" NOx_abs="37.603328" fuel_abs="39.011807" electricity_abs="0"/>
    </tripinfo>
    <tripinfo id="carIn60260:1" depart="57606.00" departLane="315358254#0_1" departPos="5.10" departSpeed="0.00" departDelay="0.90" arrival="57675.00" arrivalLane="399835085#1_1" arrivalPos="212.23" arrivalSpeed="6.22" duration="69.00" routeLength="430.98" waitingTime="0.00" waitingCount="0" stopTime="0.00" timeLoss="9.14" rerouteNo="1" devices="tripinfo_carIn60260:1 routing_carIn60260:1 emissions_carIn60260:1" vType="default_016" speedFactor="0.77" vaporized="">
        <emissions CO_abs="3152.696024" CO2_abs="123160.828227" HC_abs="17.176724" PMx_abs="2.057058" NOx_abs="50.509281" fuel_abs="52.942734" electricity_abs="0"/>
    </tripinfo>
    <tripinfo id="carIn53971:1" depart="57640.00" departLane="272042143_1" departPos="5.10" departSpeed="0.00" departDelay="0.80" arrival="57691.00" arrivalLane="24634414#1_1" arrivalPos="162.19" arrivalSpeed="7.65" duration="51.00" routeLength="493.04" waitingTime="0.00" waitingCount="0" stopTime="0.00" timeLoss="7.95" rerouteNo="1" devices="tripinfo_carIn53971:1 routing_carIn53971:1 emissions_carIn53971:1" vType="default_016" speedFactor="1.06" vaporized="">
        <emissions CO_abs="2353.980893" CO2_abs="135349.217851" HC_abs="13.893336" PMx_abs="2.416499" NOx_abs="55.830560" fuel_abs="58.180999" electricity_abs="0"/>
    </tripinfo>
    <tripinfo id="h3688c1:1" depart="57625.00" departLane="201201950#1_1" departPos="5.10" departSpeed="0.00" departDelay="0.00" arrival="57706.00" arrivalLane="32978638#0_1" arrivalPos="49.29" arrivalSpeed="15.61" duration="81.00" routeLength="1089.75" waitingTime="0.00" waitingCount="0" stopTime="0.00" timeLoss="10.27" rerouteNo="1" devices="tripinfo_h3688c1:1 routing_h3688c1:1 emissions_h3688c1:1" vType="default_016" speedFactor="1.13" vaporized="">
        <emissions CO_abs="3052.574153" CO2_abs="239465.190484" HC_abs="19.528439" PMx_abs="4.285854" NOx_abs="97.030575" fuel_abs="102.935338" electricity_abs="0"/>
    </tripinfo>
    <tripinfo id="carIn22761:1" depart="57616.00" departLane="-306240162#1_0" departPos="5.10" departSpeed="0.00" departDelay="2.10" arrival="57717.00" arrivalLane="399835085#1_1" arrivalPos="212.23" arrivalSpeed="7.59" duration="101.00" routeLength="1093.26" waitingTime="6.00" waitingCount="1" stopTime="0.00" timeLoss="21.26" rerouteNo="1" devices="tripinfo_carIn22761:1 routing_carIn22761:1 emissions_carIn22761:1" vType="default_016" speedFactor="0.98" vaporized="">
        <emissions CO_abs="4473.392170" CO2_abs="264350.468912" HC_abs="26.579258" PMx_abs="4.846876" NOx_abs="108.123490" fuel_abs="113.633144" electricity_abs="0"/>
    </tripinfo>
    <tripinfo id="h7800c1:5" depart="57696.00" departLane="-447569998#1_1" departPos="5.10" departSpeed="0.00" departDelay="0.00" arrival="57720.00" arrivalLane="-447569998#1_2" arrivalPos="180.76" arrivalSpeed="7.82" duration="24.00" routeLength="175.66" waitingTime="0.00" waitingCount="0" stopTime="0.00" timeLoss="3.22" rerouteNo="1" devices="tripinfo_h7800c1:5 routing_h7800c1:5 emissions_h7800c1:5" vType="default_016" speedFactor="1.03" vaporized="">
        <emissions CO_abs="1110.550500" CO2_abs="49954.096760" HC_abs="6.204981" PMx_abs="0.823133" NOx_abs="20.351967" fuel_abs="21.473481" electricity_abs="0"/>
    </tripinfo>
    <tripinfo id="h12244c1:3" depart="57612.00" departLane="315358244_1" departPos="5.10" departSpeed="0.00" departDelay="0.40" arrival="57737.00" arrivalLane="386687235_1" arrivalPos="80.84" arrivalSpeed="13.34" duration="125.00" routeLength="1186.14" waitingTime="15.00" waitingCount="3" stopTime="0.00" timeLoss="35.69" rerouteNo="1" devices="tripinfo_h12244c1:3 routing_h12244c1:3 emissions_h12244c1:3" vType="default_016" speedFactor="0.97" vaporized="">
        <emissions CO_abs="5953.173307" CO2_abs="322734.375846" HC_abs="34.653427" PMx_abs="5.718153" NOx_abs="131.679114" fuel_abs="138.730561" electricity_abs="0"/>
    </tripinfo>
    <tripinfo id="h3568c1:3" depart="57656.00" departLane="266565295#5_1" departPos="5.10" departSpeed="0.00" departDelay="0.80" arrival="57737.00" arrivalLane="-24634415_1" arrivalPos="62.03" arrivalSpeed="11.78" duration="81.00" routeLength="807.40" waitingTime="0.00" waitingCount="0" stopTime="0.00" timeLoss="12.01" rerouteNo="1" devices="tripinfo_h3568c1:3 routing_h3568c1:3 emissions_h3568c1:3" vType="default_016" speedFactor="0.94" vaporized="">
        <emissions CO_abs="3329.045896" CO2_abs="200880.106031" HC_abs="19.868879" PMx_abs="3.531868" NOx_abs="82.236088" fuel_abs="86.349974" electricity_abs="0"/>
    </tripinfo>
    <tripinfo id="S5R_frequency1.2" depart="57624.00" departLane="315358250#0_1" departPos="12.10" departSpeed="0.00" departDelay="12.40" arrival="57743.00" arrivalLane="386687235_1" arrivalPos="80.84" arrivalSpeed="13.72" duration="119.00" routeLength="1115.62" waitingTime="12.00" waitingCount="2" stopTime="0.00" timeLoss="37.15" rerouteNo="1" devices="tripinfo_S5R_frequency1.2 routing_S5R_frequency1.2 emissions_S5R_frequency1.2" vType="bus" speedFactor="1.00" vaporized="">
        <emissions CO_abs="2432.087478" CO2_abs="1464679.363860" HC_abs="508.486029" PMx_abs="258.880061" NOx_abs="11535.008660" fuel_abs="624.641364" electricity_abs="0"/>
    </tripinfo>
    <tripinfo id="h9563c2:5" depart="57631.00" departLane="315358244_1" departPos="5.10" departSpeed="0.00" departDelay="0.70" arrival="57745.00" arrivalLane="386687235_1" arrivalPos="80.84" arrivalSpeed="13.71" duration="114.00" routeLength="1186.14" waitingTime="2.00" waitingCount="1" stopTime="0.00" timeLoss="29.38" rerouteNo="1" devices="tripinfo_h9563c2:5 routing_h9563c2:5 emissions_h9563c2:5" vType="default_016" speedFactor="1.03" vaporized="">
        <emissions CO_abs="4583.466185" CO2_abs="296091.141944" HC_abs="27.757040" PMx_abs="5.104155" NOx_abs="119.576725" fuel_abs="127.277194" electricity_abs="0"/>
    </tripinfo>
    <tripinfo id="carIn30817:1" depart="57681.00" departLane="315358244_1" departPos="5.10" departSpeed="0.00" departDelay="0.20" arrival="57747.00" arrivalLane="447569997#1_1" arrivalPos="180.93" arrivalSpeed="8.07" duration="66.00" routeLength="718.04" waitingTime="0.00" waitingCount="0" stopTime="0.00" timeLoss="6.83" rerouteNo="1" devices="tripinfo_carIn30817:1 routing_carIn30817:1 emissions_carIn30817:1" vType="default_016" speedFactor="1.03" vaporized="">
        <emissions CO_abs="2097.297055" CO2_abs="150723.856459" HC_abs="13.047845" PMx_abs="2.422404" NOx_abs="59.725111" fuel_abs="64.789951" electricity_abs="0"/>
    </tripinfo>
    <tripinfo id="h317c2:1" depart="57707.00" departLane="-32978638#0_1" departPos="5.10" departSpeed="0.00" departDelay="0.10" arrival="57748.00" arrivalLane="-266565295#5_1" arrivalPos="172.76" arrivalSpeed="11.53" duration="41.00" routeLength="370.53" waitingTime="1.00" waitingCount="1" stopTime="0.00" timeLoss="8.90" rerouteNo="1" devices="tripinfo_h317c2:1 routing_h317c2:1 emissions_h317c2:1" vType="default_016" speedFactor="0.85" vaporized="">
        <emissions CO_abs="2005.076425" CO2_abs="111779.995868" HC_abs="11.746697" PMx_abs="1.980993" NOx_abs="46.040306" fuel_abs="48.049643" electricity_abs="0"/>
    </tripinfo>
    <tripinfo id="h7181c1:1" depart="57660.00" departLane="315358254#0_1" departPos="5.10" departSpeed="0.00" departDelay="0.10" arrival="57750.00" arrivalLane="306240162#0_0" arrivalPos="220.43" arrivalSpeed="16.74" duration="90.00" routeLength="932.35" waitingTime="18.00" waitingCount="2" stopTime="0.00" timeLoss="40.91" rerouteNo="1" devices="tripinfo_h7181c1:1 routing_h7181c1:1 emissions_h7181c1:1" vType="default_016" speedFactor="1.05" vaporized="">
        <emissions CO_abs="7363.259156" CO2_abs="366276.702622" HC_abs="42.344463" PMx_abs="7.636841" NOx_abs="155.274972" fuel_abs="157.446596" electricity_abs="0"/>
    </tripinfo>
    <tripinfo id="carIn121703:1" depart="57647.00" departLane="386687232#0_1" departPos="5.10" departSpeed="0.00" departDelay="0.30" arrival="57753.00" arrivalLane="-315358244_1" arrivalPos="33.95" arrivalSpeed="14.14" duration="106.00" routeLength="1157.39" waitingTime="7.00" waitingCount="2" stopTime="0.00" timeLoss="23.39" rerouteNo="1" devices="tripinfo_carIn121703:1 routing_carIn121703:1 emissions_carIn121703:1" vType="default_016" speedFactor="1.02" vaporized="">
        <emissions CO_abs="3560.462551" CO2_abs="256180.585480" HC_abs="22.211480" PMx_abs="4.328360" NOx_abs="102.580991" fuel_abs="110.121143" electricity_abs="0"/>
    </tripinfo>
    <tripinfo id="carIn27009:1" depart="57673.00" departLane="-447569998#1_1" departPos="5.10" departSpeed="0.00" departDelay="0.50" arrival="57761.00" arrivalLane="-26677539_1" arrivalPos="152.75" arrivalSpeed="7.99" duration="88.00" routeLength="699.63" waitingTime="0.00" waitingCount="0" stopTime="0.00" timeLoss="11.03" rerouteNo="1" devices="tripinfo_carIn27009:1 routing_carIn27009:1 emissions_carIn27009:1" vType="default_015" speedFactor="1.09" vaporized="">
        <emissions CO_abs="3482.788589" CO2_abs="178642.041829" HC_abs="19.962570" PMx_abs="2.842666" NOx_abs="71.962700" fuel_abs="76.791582" electricity_abs="0"/>
    </tripinfo>
    <tripinfo id="h330c1:1" depart="57736.00" departLane="-32978638#0_1" departPos="5.10" departSpeed="0.00" departDelay="0.20" arrival="57766.00" arrivalLane="-266565295#5_1" arrivalPos="172.76" arrivalSpeed="15.75" duration="30.00" routeLength="370.53" waitingTime="0.00" waitingCount="0" stopTime="0.00" timeLoss="6.17" rerouteNo="1" devices="tripinfo_h330c1:1 routing_h330c1:1 emissions_h330c1:1" vType="default_016" speedFactor="1.15" vaporized="">
        <emissions CO_abs="1809.704772" CO2_abs="119989.724930" HC_abs="11.095705" PMx_abs="2.260524" NOx_abs="49.618344" fuel_abs="51.578241" electricity_abs="0"/>
    </tripinfo>
    <tripinfo id="h5979c1:5" depart="57669.00" departLane="399835085#1_1" departPos="5.10" departSpeed="0.00" departDelay="0.00" arrival="57767.00" arrivalLane="-315358254#1_1" arrivalPos="137.16" arrivalSpeed="16.55" duration="98.00" routeLength="659.33" waitingTime="7.00" waitingCount="1" stopTime="0.00" timeLoss="36.50" rerouteNo="1" devices="tripinfo_h5979c1:5 routing_h5979c1:5 emissions_h5979c1:5" vType="default_016" speedFactor="1.20" vaporized="">
        <emissions CO_abs="4958.846733" CO2_abs="219022.834842" HC_abs="27.671531" PMx_abs="3.962743" NOx_abs="90.954543" fuel_abs="94.149680" electricity_abs="0"/>
    </tripinfo>
    <tripinfo id="h3154c1:1" depart="57658.00" departLane="24634507_1" departPos="5.10" departSpeed="0.00" departDelay="0.00" arrival="57787.00" arrivalLane="-266565295#5_1" arrivalPos="172.76" arrivalSpeed="12.48" duration="129.00" routeLength="1206.22" waitingTime="17.00" waitingCount="2" stopTime="0.00" timeLoss="37.04" rerouteNo="1" devices="tripinfo_h3154c1:1 routing_h3154c1:1 emissions_h3154c1:1" vType="default_016" speedFactor="0.97" vaporized="">
        <emissions CO_abs="5817.090034" CO2_abs="326410.567985" HC_abs="34.174395" PMx_abs="5.929287" NOx_abs="134.284751" fuel_abs="140.310398" electricity_abs="0"/>
    </tripinfo>
    <tripinfo id="h3326c1:2" depart="57656.00" departLane="22716069#0_1" departPos="5.10" departSpeed="0.00" departDelay="0.00" arrival="57790.00" arrivalLane="24634517#13_1" arrivalPos="111.62" arrivalSpeed="10.33" duration="134.00" routeLength="1312.81" waitingTime="0.00" waitingCount="0" stopTime="0.00" timeLoss="14.85" rerouteNo="1" devices="tripinfo_h3326c1:2 routing_h3326c1:2 emissions_h3326c1:2" vType="default_016" speedFactor="0.82" vaporized="">
        <emissions CO_abs="4159.530671" CO2_abs="281782.374814" HC_abs="25.463145" PMx_abs="4.434831" NOx_abs="111.976933" fuel_abs="121.126842" electricity_abs="0"/>
    </tripinfo>
    <tripinfo id="carIn118591:1" depart="57689.00" departLane="315358244_1" departPos="5.10" departSpeed="0.00" departDelay="0.20" arrival="57792.00" arrivalLane="386687235_1" arrivalPos="80.84" arrivalSpeed="15.25" duration="103.00" routeLength="1186.14" waitingTime="14.00" waitingCount="1" stopTime="0.00" timeLoss="24.83" rerouteNo="1" devices="tripinfo_carIn118591:1 routing_carIn118591:1 emissions_carIn118591:1" vType="default_016" speedFactor="1.10" vaporized="">
        <emissions CO_abs="4405.088084" CO2_abs="278319.985089" HC_abs="26.407387" PMx_abs="4.774355" NOx_abs="110.793133" fuel_abs="119.638361" electricity_abs="0"/>
    </tripinfo>
    <tripinfo id="carIn12365:1" depart="57713.00" departLane="315358244_1" departPos="5.10" departSpeed="0.00" departDelay="0.50" arrival="57794.00" arrivalLane="447569997#1_1" arrivalPos="180.93" arrivalSpeed="8.35" duration="81.00" routeLength="718.04" waitingTime="10.00" waitingCount="2" stopTime="0.00" timeLoss="26.79" rerouteNo="1" devices="tripinfo_carIn12365:1 routing_carIn12365:1 emissions_carIn12365:1" vType="default_016" speedFactor="1.14" vaporized="">
        <emissions CO_abs="3089.214642" CO2_abs="181974.619658" HC_abs="18.284683" PMx_abs="3.234956" NOx_abs="74.333065" fuel_abs="78.223333" electricity_abs="0"/>
    </tripinfo>
    <tripinfo id="carIn50326:1" depart="57651.00" departLane="128361102#0_1" departPos="5.10" departSpeed="0.00" departDelay="0.30" arrival="57799.00" arrivalLane="18809673#0_1" arrivalPos="473.56" arrivalSpeed="14.17" duration="148.00" routeLength="1591.07" waitingTime="5.00" waitingCount="2" stopTime="0.00" timeLoss="29.64" rerouteNo="1" devices="tripinfo_carIn50326:1 routing_carIn50326:1 emissions_carIn50326:1" vType="default_016" speedFactor="1.10" vaporized="">
        <emissions CO_abs="5332.137554" CO2_abs="365367.326744" HC_abs="32.743384" PMx_abs="6.165783" NOx_abs="146.401156" fuel_abs="157.056079" electricity_abs="0"/>
    </tripinfo>
    <tripinfo id="carIn81860:1" depart="57712.00" departLane="128361102#0_1" departPos="5.10" departSpeed="0.00" departDelay="0.60" arrival="57801.00" arrivalLane="-24634517#17_1" arrivalPos="6.43" arrivalSpeed="10.22" duration="89.00" routeLength="1229.64" waitingTime="2.00" waitingCount="1" stopTime="0.00" timeLoss="18.22" rerouteNo="1" devices="tripinfo_carIn81860:1 routing_carIn81860:1 emissions_carIn81860:1" vType="default_016" speedFactor="1.28" vaporized="">
        <emissions CO_abs="3741.143982" CO2_abs="283416.450138" HC_abs="23.662457" PMx_abs="5.139438" NOx_abs="114.192617" fuel_abs="121.828120" electricity_abs="0"/>
    </tripinfo>
    <tripinfo id="carIn86816:1" depart="57617.00" departLane="128361102#0_1" departPos="5.10" departSpeed="0.00" departDelay="0.80" arrival="57805.00" arrivalLane="201956811#0_1" arrivalPos="40.40" arrivalSpeed="11.70" duration="188.00" routeLength="2067.33" waitingTime="0.00" waitingCount="0" stopTime="0.00" timeLoss="17.78" rerouteNo="1" devices="tripinfo_carIn86816:1 routing_carIn86816:1 emissions_carIn86816:1" vType="default_016" speedFactor="0.89" vaporized="">
        <emissions CO_abs="5077.760515" CO2_abs="399498.381274" HC_abs="32.377342" PMx_abs="6.115160" NOx_abs="156.562080" fuel_abs="171.727865" electricity_abs="0"/>
    </tripinfo>
    <tripinfo id="carIn28951:1" depart="57606.00" departLane="10425609#0_1" departPos="5.10" departSpeed="0.00" departDelay="0.20" arrival="57807.00" arrivalLane="-128361102#1_1" arrivalPos="274.68" arrivalSpeed="13.38" duration="201.00" routeLength="2113.04" waitingTime="15.00" waitingCount="2" stopTime="0.00" timeLoss="40.36" rerouteNo="1" devices="tripinfo_carIn28951:1 routing_carIn28951:1 emissions_carIn28951:1" vType="default_016" speedFactor="0.96" vaporized="">
        <emissions CO_abs="6962.919427" CO2_abs="469977.764762" HC_abs="42.698336" PMx_abs="7.869418" NOx_abs="188.283658" fuel_abs="202.023885" electricity_abs="0"/>
    </tripinfo>
    <tripinfo id="carIn107084:1" depart="57601.00" departLane="124812856#0_1" departPos="5.10" departSpeed="0.00" departDelay="0.70" arrival="57809.00" arrivalLane="-128361102#1_1" arrivalPos="274.68" arrivalSpeed="14.15" duration="208.00" routeLength="2250.49" waitingTime="13.00" waitingCount="1" stopTime="0.00" timeLoss="57.19" rerouteNo="1" devices="tripinfo_carIn107084:1 routing_carIn107084:1 emissions_carIn107084:1" vType="default_016" speedFactor="1.09" vaporized="">
        <emissions CO_abs="8664.394943" CO2_abs="560214.571973" HC_abs="52.591799" PMx_abs="9.948323" NOx_abs="228.351383" fuel_abs="240.812341" electricity_abs="0"/>
    </tripinfo>
    <tripinfo id="carIn48184:1" depart="57613.00" departLane="-306240162#1_0" departPos="5.10" departSpeed="0.00" departDelay="0.70" arrival="57811.00" arrivalLane="386687235_1" arrivalPos="80.84" arrivalSpeed="14.90" duration="198.00" routeLength="2257.41" waitingTime="26.00" waitingCount="3" stopTime="0.00" timeLoss="60.90" rerouteNo="1" devices="tripinfo_carIn48184:1 routing_carIn48184:1 emissions_carIn48184:1" vType="default_016" speedFactor="1.09" vaporized="">
        <emissions CO_abs="10405.767602" CO2_abs="625131.103656" HC_abs="61.961265" PMx_abs="11.727928" NOx_abs="255.486972" fuel_abs="268.717169" electricity_abs="0"/>
    </tripinfo>
    <tripinfo id="h16072c2:3" depart="57663.00" departLane="315358254#0_1" departPos="5.10" departSpeed="0.00" departDelay="2.50" arrival="57811.00" arrivalLane="386687235_2" arrivalPos="80.84" arrivalSpeed="14.81" duration="148.00" routeLength="1611.92" waitingTime="21.00" waitingCount="2" stopTime="0.00" timeLoss="43.44" rerouteNo="1" devices="tripinfo_h16072c2:3 routing_h16072c2:3 emissions_h16072c2:3" vType="default_016" speedFactor="1.13" vaporized="">
        <emissions CO_abs="6504.426649" CO2_abs="371017.086054" HC_abs="38.136133" PMx_abs="6.701895" NOx_abs="150.440453" fuel_abs="159.485017" electricity_abs="0"/>
    </tripinfo>
    <tripinfo id="h645c1:1" depart="57622.00" departLane="266565295#5_1" departPos="5.10" departSpeed="0.00" departDelay="0.40" arrival="57813.00" arrivalLane="-315358244_2" arrivalPos="33.95" arrivalSpeed="13.06" duration="191.00" routeLength="1910.83" waitingTime="32.00" waitingCount="1" stopTime="0.00" timeLoss="53.45" rerouteNo="1" devices="tripinfo_h645c1:1 routing_h645c1:1 emissions_h645c1:1" vType="default_016" speedFactor="1.01" vaporized="">
        <emissions CO_abs="9251.572521" CO2_abs="445869.704344" HC_abs="52.489391" PMx_abs="7.897459" NOx_abs="180.899263" fuel_abs="191.662477" electricity_abs="0"/>
    </tripinfo>
    <tripinfo id="carIn129809:1" depart="57729.00" departLane="-447569998#1_1" departPos="5.10" departSpeed="0.00" departDelay="1.00" arrival="57814.00" arrivalLane="-315358244_1" arrivalPos="33.95" arrivalSpeed="13.27" duration="85.00" routeLength="706.49" waitingTime="8.00" waitingCount="1" stopTime="0.00" timeLoss="21.54" rerouteNo="1" devices="tripinfo_carIn129809:1 routing_carIn129809:1 emissions_carIn129809:1" vType="default_015" speedFactor="0.96" vaporized="">
        <emissions CO_abs="4037.764606" CO2_abs="201572.054746" HC_abs="23.063598" PMx_abs="3.432794" NOx_abs="81.726285" fuel_abs="86.648187" electricity_abs="0"/>
    </tripinfo>
    <tripinfo id="carIn107282:1" depart="57749.00" departLane="-447569998#1_1" departPos="5.10" departSpeed="0.00" departDelay="0.00" arrival="57818.00" arrivalLane="315358242#0_1" arrivalPos="165.37" arrivalSpeed="12.03" duration="69.00" routeLength="448.50" waitingTime="12.00" waitingCount="1" stopTime="0.00" timeLoss="22.66" rerouteNo="1" devices="tripinfo_carIn107282:1 routing_carIn107282:1 emissions_carIn107282:1" vType="default_016" speedFactor="0.91" vaporized="">
        <emissions CO_abs="3907.318181" CO2_abs="149002.016557" HC_abs="21.235089" PMx_abs="2.607743" NOx_abs="61.201840" fuel_abs="64.050968" electricity_abs="0"/>
    </tripinfo>
    <tripinfo id="carIn82278:1" depart="57702.00" departLane="-306240162#1_0" departPos="5.10" departSpeed="0.00" departDelay="0.70" arrival="57826.00" arrivalLane="399835085#1_1" arrivalPos="212.23" arrivalSpeed="7.27" duration="124.00" routeLength="1093.26" waitingTime="25.00" waitingCount="1" stopTime="0.00" timeLoss="43.25" rerouteNo="1" devices="tripinfo_carIn82278:1 routing_carIn82278:1 emissions_carIn82278:1" vType="default_016" speedFactor="0.97" vaporized="">
        <emissions CO_abs="8243.158733" CO2_abs="348480.972230" HC_abs="45.807135" PMx_abs="6.946489" NOx_abs="146.736996" fuel_abs="149.798413" electricity_abs="0"/>
    </tripinfo>
    <tripinfo id="h17600c1:1" depart="57662.00" departLane="272042143_1" departPos="5.10" departSpeed="0.00" departDelay="0.30" arrival="57827.00" arrivalLane="201238729#3_1" arrivalPos="431.02" arrivalSpeed="14.99" duration="165.00" routeLength="2100.26" waitingTime="8.00" waitingCount="1" stopTime="0.00" timeLoss="25.37" rerouteNo="1" devices="tripinfo_h17600c1:1 routing_h17600c1:1 emissions_h17600c1:1" vType="default_016" speedFactor="1.09" vaporized="">
        <emissions CO_abs="5033.685732" CO2_abs="407751.751350" HC_abs="32.345172" PMx_abs="6.859527" NOx_abs="161.496932" fuel_abs="175.274781" electricity_abs="0"/>
    </tripinfo>
    <tripinfo id="h4538c1:1" depart="57701.00" departLane="-10427692#1_1" departPos="5.10" departSpeed="0.00" departDelay="0.00" arrival="57827.00" arrivalLane="-128361102#1_1" arrivalPos="274.68" arrivalSpeed="13.53" duration="126.00" routeLength="440.74" waitingTime="82.00" waitingCount="1" stopTime="0.00" timeLoss="92.97" rerouteNo="1" devices="tripinfo_h4538c1:1 routing_h4538c1:1 emissions_h4538c1:1" vType="default_016" speedFactor="0.98" vaporized="">
        <emissions CO_abs="14450.681083" CO2_abs="314244.278118" HC_abs="73.179899" PMx_abs="7.045051" NOx_abs="138.459994" fuel_abs="135.086087" electricity_abs="0"/>
    </tripinfo>
    <tripinfo id="carIn82220:1" depart="57619.00" departLane="-306240162#1_0" departPos="5.10" departSpeed="0.00" departDelay="3.50" arrival="57831.00" arrivalLane="386687235_1" arrivalPos="80.84" arrivalSpeed="13.75" duration="212.00" routeLength="2257.41" waitingTime="32.00" waitingCount="5" stopTime="0.00" timeLoss="73.40" rerouteNo="1" devices="tripinfo_carIn82220:1 routing_carIn82220:1 emissions_carIn82220:1" vType="default_016" speedFactor="1.07" vaporized="">
        <emissions CO_abs="10213.276734" CO2_abs="563606.164077" HC_abs="59.811839" PMx_abs="10.844446" NOx_abs="233.249398" fuel_abs="242.270431" electricity_abs="0"/>
    </tripinfo>
    <tripinfo id="50R_frequency3.17" depart="57674.00" departLane="-18809673#6_1" departPos="12.10" departSpeed="0.00" departDelay="0.70" arrival="57836.00" arrivalLane="201956811#0_1" arrivalPos="40.40" arrivalSpeed="13.33" duration="162.00" routeLength="1954.47" waitingTime="0.00" waitingCount="0" stopTime="0.00" timeLoss="16.75" rerouteNo="1" devices="tripinfo_50R_frequency3.17 routing_50R_frequency3.17 emissions_50R_frequency3.17" vType="bus" speedFactor="1.00" vaporized="">
        <emissions CO_abs="3187.892401" CO2_abs="2059235.630762" HC_abs="671.390322" PMx_abs="343.332507" NOx_abs="15806.934345" fuel_abs="878.264946" electricity_abs="0"/>
    </tripinfo>
    <tripinfo id="carIn46110:1" depart="57683.00" departLane="315358244_1" departPos="5.10" departSpeed="0.00" departDelay="0.20" arrival="57840.00" arrivalLane="32978638#0_1" arrivalPos="49.29" arrivalSpeed="13.93" duration="157.00" routeLength="1764.04" waitingTime="11.00" waitingCount="1" stopTime="0.00" timeLoss="29.59" rerouteNo="1" devices="tripinfo_carIn46110:1 routing_carIn46110:1 emissions_carIn46110:1" vType="default_016" speedFactor="1.01" vaporized="">
        <emissions CO_abs="5457.058250" CO2_abs="359864.648562" HC_abs="33.278137" PMx_abs="6.108616" NOx_abs="144.133772" fuel_abs="154.690877" electricity_abs="0"/>
    </tripinfo>
    <tripinfo id="carIn80064:1" depart="57603.00" departLane="128361109#1_1" departPos="5.10" departSpeed="0.00" departDelay="0.40" arrival="57841.00" arrivalLane="-315358254#1_1" arrivalPos="137.16" arrivalSpeed="9.84" duration="238.00" routeLength="1587.97" waitingTime="80.00" waitingCount="4" stopTime="0.00" timeLoss="119.84" rerouteNo="1" devices="tripinfo_carIn80064:1 routing_carIn80064:1 emissions_carIn80064:1" vType="default_016" speedFactor="0.76" vaporized="">
        <emissions CO_abs="17704.621873" CO2_abs="608756.838490" HC_abs="94.886743" PMx_abs="12.333725" NOx_abs="258.812172" fuel_abs="261.683262" electricity_abs="0"/>
    </tripinfo>
    <tripinfo id="carIn102915:1" depart="57643.00" departLane="128361102#0_1" departPos="5.10" departSpeed="0.00" departDelay="0.40" arrival="57846.00" arrivalLane="201956811#0_1" arrivalPos="40.40" arrivalSpeed="13.15" duration="203.00" routeLength="2067.33" waitingTime="17.00" waitingCount="2" stopTime="0.00" timeLoss="47.29" rerouteNo="1" devices="tripinfo_carIn102915:1 routing_carIn102915:1 emissions_carIn102915:1" vType="default_016" speedFactor="0.97" vaporized="">
        <emissions CO_abs="7755.329490" CO2_abs="500920.418745" HC_abs="47.024212" PMx_abs="8.478508" NOx_abs="201.335519" fuel_abs="215.324982" electricity_abs="0"/>
    </tripinfo>
    <tripinfo id="carIn462:1" depart="57621.00" departLane="-306240162#1_0" departPos="5.10" departSpeed="0.00" departDelay="3.80" arrival="57849.00" arrivalLane="386687235_1" arrivalPos="80.84" arrivalSpeed="9.76" duration="228.00" routeLength="2257.41" waitingTime="8.00" waitingCount="3" stopTime="0.00" timeLoss="40.68" rerouteNo="1" devices="tripinfo_carIn462:1 routing_carIn462:1 emissions_carIn462:1" vType="default_016" speedFactor="0.79" vaporized="">
        <emissions CO_abs="7279.085283" CO2_abs="480293.894522" HC_abs="44.205606" PMx_abs="7.717544" NOx_abs="190.639173" fuel_abs="206.458943" electricity_abs="0"/>
    </tripinfo>
    <tripinfo id="randUni33724:1" depart="57646.00" departLane="128361102#0_1" departPos="5.10" departSpeed="0.00" departDelay="1.20" arrival="57849.00" arrivalLane="201956811#0_1" arrivalPos="40.40" arrivalSpeed="14.52" duration="203.00" routeLength="2067.33" waitingTime="16.00" waitingCount="3" stopTime="0.00" timeLoss="64.96" rerouteNo="1" devices="tripinfo_randUni33724:1 routing_randUni33724:1 emissions_randUni33724:1" vType="random_016" speedFactor="1.10" vaporized="">
        <emissions CO_abs="9107.209531" CO2_abs="556171.009046" HC_abs="54.577058" PMx_abs="10.128776" NOx_abs="228.788900" fuel_abs="239.074192" electricity_abs="0"/>
    </tripinfo>
    <tripinfo id="carIn77943:1" depart="57608.00" departLane="124812856#0_1" departPos="5.10" departSpeed="0.00" departDelay="2.50" arrival="57851.00" arrivalLane="-128361102#1_1" arrivalPos="274.68" arrivalSpeed="11.55" duration="243.00" routeLength="2250.49" waitingTime="21.00" waitingCount="3" stopTime="0.00" timeLoss="55.71" rerouteNo="1" devices="tripinfo_carIn77943:1 routing_carIn77943:1 emissions_carIn77943:1" vType="default_016" speedFactor="0.88" vaporized="">
        <emissions CO_abs="8653.256503" CO2_abs="562795.714397" HC_abs="52.471924" PMx_abs="9.085433" NOx_abs="224.572326" fuel_abs="241.923112" electricity_abs="0"/>
    </tripinfo>
    <tripinfo id="carIn100288:1" depart="57664.00" departLane="128361102#0_1" departPos="5.10" departSpeed="0.00" departDelay="0.60" arrival="57851.00" arrivalLane="201956811#0_1" arrivalPos="40.40" arrivalSpeed="11.58" duration="187.00" routeLength="2067.33" waitingTime="0.00" waitingCount="0" stopTime="0.00" timeLoss="21.18" rerouteNo="1" devices="tripinfo_carIn100288:1 routing_carIn100288:1 emissions_carIn100288:1" vType="default_016" speedFactor="0.91" vaporized="">
        <emissions CO_abs="5172.827724" CO2_abs="414168.648053" HC_abs="33.163007" PMx_abs="6.376940" NOx_abs="162.359136" fuel_abs="178.033892" electricity_abs="0"/>
    </tripinfo>
    <tripinfo id="carIn77438:1" depart="57614.00" departLane="124812856#0_1" departPos="5.10" departSpeed="0.00" departDelay="1.10" arrival="57852.00" arrivalLane="-128361102#1_1" arrivalPos="274.68" arrivalSpeed="13.15" duration="238.00" routeLength="2250.49" waitingTime="14.00" waitingCount="3" stopTime="0.00" timeLoss="68.98" rerouteNo="1" devices="tripinfo_carIn77438:1 routing_carIn77438:1 emissions_carIn77438:1" vType="default_016" speedFactor="0.97" vaporized="">
        <emissions CO_abs="9388.431235" CO2_abs="590220.675625" HC_abs="56.622478" PMx_abs="10.490975" NOx_abs="242.405499" fuel_abs="253.710721" electricity_abs="0"/>
    </tripinfo>