<?xml version="1.0" encoding="UTF-8"?>

<!-- generated on 2021-10-26 15:14:18 by Eclipse SUMO sumo Version 1.10.0
<configuration xmlns:xsi="http://www.w3.org/2001/XMLSchema-instance" xsi:noNamespaceSchemaLocation="http://sumo.dlr.de/xsd/sumoConfiguration.xsd">

    <input>
        <net-file value="/Users/behradkoohy/sumo-scratchpad/RESCO/environments/ingolstadt21/ingolstadt21.net.xml"/>
        <route-files value="/Users/behradkoohy/sumo-scratchpad/RESCO/environments/ingolstadt21/ingolstadt21.rou.xml"/>
    </input>

    <output>
        <tripinfo-output value="/Users/behradkoohy/sumo-scratchpad/RESCO/logs/IPPO-tr0-ingolstadt21-21-drq_norm-wait_norm/tripinfo_13.xml"/>
        <tripinfo-output.write-unfinished value="true"/>
    </output>

    <time>
        <begin value="57600"/>
        <end value="61200"/>
    </time>

    <processing>
        <time-to-teleport value="-1"/>
    </processing>

    <report>
        <no-warnings value="true"/>
        <no-step-log value="true"/>
    </report>

    <emissions>
        <device.emissions.probability value="1"/>
    </emissions>

    <traci_server>
        <remote-port value="61088"/>
    </traci_server>

    <random_number>
        <random value="true"/>
    </random_number>

</configuration>
-->

<tripinfos xmlns:xsi="http://www.w3.org/2001/XMLSchema-instance" xsi:noNamespaceSchemaLocation="http://sumo.dlr.de/xsd/tripinfo_file.xsd">
    <tripinfo id="carIn60260:1" depart="57606.00" departLane="315358254#0_1" departPos="5.10" departSpeed="0.00" departDelay="0.90" arrival="57661.00" arrivalLane="399835085#1_1" arrivalPos="212.23" arrivalSpeed="7.68" duration="55.00" routeLength="430.98" waitingTime="2.00" waitingCount="1" stopTime="0.00" timeLoss="11.03" rerouteNo="1" devices="tripinfo_carIn60260:1 routing_carIn60260:1 emissions_carIn60260:1" vType="default_016" speedFactor="1.04" vaporized="">
        <emissions CO_abs="2572.824540" CO2_abs="125825.074491" HC_abs="14.628967" PMx_abs="2.133644" NOx_abs="51.435466" fuel_abs="54.087440" electricity_abs="0"/>
    </tripinfo>
    <tripinfo id="h15454c2:3" depart="57612.00" departLane="24608844_1" departPos="5.10" departSpeed="0.00" departDelay="0.50" arrival="57668.00" arrivalLane="32978638#0_1" arrivalPos="49.29" arrivalSpeed="11.30" duration="56.00" routeLength="354.79" waitingTime="8.00" waitingCount="1" stopTime="0.00" timeLoss="16.73" rerouteNo="1" devices="tripinfo_h15454c2:3 routing_h15454c2:3 emissions_h15454c2:3" vType="default_016" speedFactor="0.87" vaporized="">
        <emissions CO_abs="3139.608744" CO2_abs="123386.548502" HC_abs="17.178368" PMx_abs="2.324769" NOx_abs="52.005077" fuel_abs="53.039376" electricity_abs="0"/>
    </tripinfo>
    <tripinfo id="carIn53971:1" depart="57640.00" departLane="272042143_1" departPos="5.10" departSpeed="0.00" departDelay="0.80" arrival="57699.00" arrivalLane="24634414#1_1" arrivalPos="162.19" arrivalSpeed="7.27" duration="59.00" routeLength="493.04" waitingTime="0.00" waitingCount="0" stopTime="0.00" timeLoss="8.12" rerouteNo="1" devices="tripinfo_carIn53971:1 routing_carIn53971:1 emissions_carIn53971:1" vType="default_016" speedFactor="0.89" vaporized="">
        <emissions CO_abs="2560.739311" CO2_abs="133180.695654" HC_abs="14.755225" PMx_abs="2.281757" NOx_abs="54.495558" fuel_abs="57.249179" electricity_abs="0"/>
    </tripinfo>
    <tripinfo id="h7800c1:5" depart="57696.00" departLane="-447569998#1_1" departPos="5.10" departSpeed="0.00" departDelay="0.00" arrival="57719.00" arrivalLane="-447569998#1_1" arrivalPos="180.76" arrivalSpeed="8.95" duration="23.00" routeLength="175.66" waitingTime="0.00" waitingCount="0" stopTime="0.00" timeLoss="3.25" rerouteNo="1" devices="tripinfo_h7800c1:5 routing_h7800c1:5 emissions_h7800c1:5" vType="default_016" speedFactor="1.09" vaporized="">
        <emissions CO_abs="1109.567053" CO2_abs="50750.932542" HC_abs="6.227404" PMx_abs="0.876102" NOx_abs="20.912292" fuel_abs="21.815937" electricity_abs="0"/>
    </tripinfo>
    <tripinfo id="h3688c1:1" depart="57625.00" departLane="201201950#1_1" departPos="5.10" departSpeed="0.00" departDelay="0.00" arrival="57722.00" arrivalLane="32978638#0_1" arrivalPos="49.29" arrivalSpeed="12.78" duration="97.00" routeLength="1089.75" waitingTime="0.00" waitingCount="0" stopTime="0.00" timeLoss="10.64" rerouteNo="1" devices="tripinfo_h3688c1:1 routing_h3688c1:1 emissions_h3688c1:1" vType="default_016" speedFactor="0.93" vaporized="">
        <emissions CO_abs="3098.305774" CO2_abs="245052.757187" HC_abs="19.793546" PMx_abs="3.772833" NOx_abs="95.963566" fuel_abs="105.338041" electricity_abs="0"/>
    </tripinfo>
    <tripinfo id="h3568c1:3" depart="57656.00" departLane="266565295#5_1" departPos="5.10" departSpeed="0.00" departDelay="0.80" arrival="57725.00" arrivalLane="-24634415_1" arrivalPos="62.03" arrivalSpeed="14.43" duration="69.00" routeLength="807.40" waitingTime="0.00" waitingCount="0" stopTime="0.00" timeLoss="11.35" rerouteNo="1" devices="tripinfo_h3568c1:3 routing_h3568c1:3 emissions_h3568c1:3" vType="default_016" speedFactor="1.12" vaporized="">
        <emissions CO_abs="3237.492414" CO2_abs="221350.408418" HC_abs="19.953828" PMx_abs="4.056345" NOx_abs="90.910833" fuel_abs="95.148756" electricity_abs="0"/>
    </tripinfo>
    <tripinfo id="h4538c1:1" depart="57701.00" departLane="-10427692#1_1" departPos="5.10" departSpeed="0.00" departDelay="0.00" arrival="57743.00" arrivalLane="-128361102#1_1" arrivalPos="274.68" arrivalSpeed="11.80" duration="42.00" routeLength="440.74" waitingTime="0.00" waitingCount="0" stopTime="0.00" timeLoss="5.96" rerouteNo="1" devices="tripinfo_h4538c1:1 routing_h4538c1:1 emissions_h4538c1:1" vType="default_016" speedFactor="0.90" vaporized="">
        <emissions CO_abs="1688.254730" CO2_abs="110369.015788" HC_abs="10.266949" PMx_abs="1.868090" NOx_abs="44.628506" fuel_abs="47.443033" electricity_abs="0"/>
    </tripinfo>
    <tripinfo id="h12244c1:3" depart="57612.00" departLane="315358244_1" departPos="5.10" departSpeed="0.00" departDelay="0.40" arrival="57747.00" arrivalLane="386687235_1" arrivalPos="80.84" arrivalSpeed="14.44" duration="135.00" routeLength="1186.14" waitingTime="36.00" waitingCount="2" stopTime="0.00" timeLoss="54.82" rerouteNo="1" devices="tripinfo_h12244c1:3 routing_h12244c1:3 emissions_h12244c1:3" vType="default_016" speedFactor="1.08" vaporized="">
        <emissions CO_abs="8538.720864" CO2_abs="368610.669206" HC_abs="47.472209" PMx_abs="6.771635" NOx_abs="150.918419" fuel_abs="158.452160" electricity_abs="0"/>
    </tripinfo>
    <tripinfo id="h9563c2:5" depart="57631.00" departLane="315358244_1" departPos="5.10" departSpeed="0.00" departDelay="0.70" arrival="57750.00" arrivalLane="386687235_1" arrivalPos="80.84" arrivalSpeed="12.94" duration="119.00" routeLength="1186.14" waitingTime="10.00" waitingCount="2" stopTime="0.00" timeLoss="30.27" rerouteNo="1" devices="tripinfo_h9563c2:5 routing_h9563c2:5 emissions_h9563c2:5" vType="default_016" speedFactor="0.98" vaporized="">
        <emissions CO_abs="4463.621539" CO2_abs="279174.859508" HC_abs="26.846473" PMx_abs="4.689942" NOx_abs="111.986751" fuel_abs="120.005908" electricity_abs="0"/>
    </tripinfo>
    <tripinfo id="carIn121703:1" depart="57647.00" departLane="386687232#0_1" departPos="5.10" departSpeed="0.00" departDelay="0.30" arrival="57756.00" arrivalLane="-315358244_1" arrivalPos="33.95" arrivalSpeed="12.70" duration="109.00" routeLength="1157.39" waitingTime="8.00" waitingCount="2" stopTime="0.00" timeLoss="24.06" rerouteNo="1" devices="tripinfo_carIn121703:1 routing_carIn121703:1 emissions_carIn121703:1" vType="default_016" speedFactor="0.99" vaporized="">
        <emissions CO_abs="3630.938966" CO2_abs="258328.486971" HC_abs="22.580466" PMx_abs="4.315982" NOx_abs="103.255614" fuel_abs="111.044532" electricity_abs="0"/>
    </tripinfo>
    <tripinfo id="h317c2:1" depart="57707.00" departLane="-32978638#0_1" departPos="5.10" departSpeed="0.00" departDelay="0.10" arrival="57756.00" arrivalLane="-266565295#5_1" arrivalPos="172.76" arrivalSpeed="12.75" duration="49.00" routeLength="370.53" waitingTime="12.00" waitingCount="1" stopTime="0.00" timeLoss="19.65" rerouteNo="1" devices="tripinfo_h317c2:1 routing_h317c2:1 emissions_h317c2:1" vType="default_016" speedFactor="0.96" vaporized="">
        <emissions CO_abs="2994.300750" CO2_abs="130648.692899" HC_abs="16.714690" PMx_abs="2.518903" NOx_abs="54.960214" fuel_abs="56.160787" electricity_abs="0"/>
    </tripinfo>
    <tripinfo id="S5R_frequency1.2" depart="57616.00" departLane="315358250#0_1" departPos="12.10" departSpeed="0.00" departDelay="4.40" arrival="57757.00" arrivalLane="386687235_1" arrivalPos="80.84" arrivalSpeed="13.36" duration="141.00" routeLength="1115.62" waitingTime="30.00" waitingCount="2" stopTime="0.00" timeLoss="59.45" rerouteNo="1" devices="tripinfo_S5R_frequency1.2 routing_S5R_frequency1.2 emissions_S5R_frequency1.2" vType="bus" speedFactor="1.00" vaporized="">
        <emissions CO_abs="2677.395535" CO2_abs="1526087.751866" HC_abs="562.455744" PMx_abs="282.880156" NOx_abs="12265.756089" fuel_abs="650.796979" electricity_abs="0"/>
    </tripinfo>
    <tripinfo id="h7181c1:1" depart="57660.00" departLane="315358254#0_1" departPos="5.10" departSpeed="0.00" departDelay="0.10" arrival="57760.00" arrivalLane="306240162#0_0" arrivalPos="220.43" arrivalSpeed="17.76" duration="100.00" routeLength="932.35" waitingTime="35.00" waitingCount="2" stopTime="0.00" timeLoss="52.18" rerouteNo="1" devices="tripinfo_h7181c1:1 routing_h7181c1:1 emissions_h7181c1:1" vType="default_016" speedFactor="1.08" vaporized="">
        <emissions CO_abs="8865.311726" CO2_abs="361000.743947" HC_abs="48.966965" PMx_abs="7.686577" NOx_abs="153.966112" fuel_abs="155.179818" electricity_abs="0"/>
    </tripinfo>
    <tripinfo id="carIn27009:1" depart="57673.00" departLane="-447569998#1_1" departPos="5.10" departSpeed="0.00" departDelay="0.50" arrival="57769.00" arrivalLane="-26677539_1" arrivalPos="152.75" arrivalSpeed="7.97" duration="96.00" routeLength="699.63" waitingTime="0.00" waitingCount="0" stopTime="0.00" timeLoss="10.43" rerouteNo="1" devices="tripinfo_carIn27009:1 routing_carIn27009:1 emissions_carIn27009:1" vType="default_015" speedFactor="0.99" vaporized="">
        <emissions CO_abs="4011.746957" CO2_abs="189659.605315" HC_abs="22.587193" PMx_abs="2.887989" NOx_abs="75.718991" fuel_abs="81.528074" electricity_abs="0"/>
    </tripinfo>
    <tripinfo id="h3326c1:2" depart="57656.00" departLane="22716069#0_1" departPos="5.10" departSpeed="0.00" departDelay="0.00" arrival="57774.00" arrivalLane="24634517#13_1" arrivalPos="111.62" arrivalSpeed="12.16" duration="118.00" routeLength="1312.81" waitingTime="0.00" waitingCount="0" stopTime="0.00" timeLoss="13.83" rerouteNo="1" devices="tripinfo_h3326c1:2 routing_h3326c1:2 emissions_h3326c1:2" vType="default_016" speedFactor="0.94" vaporized="">
        <emissions CO_abs="4155.333335" CO2_abs="311961.303653" HC_abs="26.203332" PMx_abs="5.114261" NOx_abs="124.442904" fuel_abs="134.098933" electricity_abs="0"/>
    </tripinfo>
    <tripinfo id="h330c1:1" depart="57736.00" departLane="-32978638#0_1" departPos="5.10" departSpeed="0.00" departDelay="0.20" arrival="57775.00" arrivalLane="-266565295#5_1" arrivalPos="172.76" arrivalSpeed="13.89" duration="39.00" routeLength="370.53" waitingTime="3.00" waitingCount="1" stopTime="0.00" timeLoss="11.39" rerouteNo="1" devices="tripinfo_h330c1:1 routing_h330c1:1 emissions_h330c1:1" vType="default_016" speedFactor="1.00" vaporized="">
        <emissions CO_abs="2087.824646" CO2_abs="121949.606883" HC_abs="12.386888" PMx_abs="2.259711" NOx_abs="50.553464" fuel_abs="52.420939" electricity_abs="0"/>
    </tripinfo>
    <tripinfo id="h3154c1:1" depart="57658.00" departLane="24634507_1" departPos="5.10" departSpeed="0.00" departDelay="0.00" arrival="57785.00" arrivalLane="-266565295#5_1" arrivalPos="172.76" arrivalSpeed="14.53" duration="127.00" routeLength="1206.22" waitingTime="28.00" waitingCount="1" stopTime="0.00" timeLoss="43.84" rerouteNo="1" devices="tripinfo_h3154c1:1 routing_h3154c1:1 emissions_h3154c1:1" vType="default_016" speedFactor="1.07" vaporized="">
        <emissions CO_abs="8042.381702" CO2_abs="365284.897014" HC_abs="45.232828" PMx_abs="7.003152" NOx_abs="152.152321" fuel_abs="157.021661" electricity_abs="0"/>
    </tripinfo>
    <tripinfo id="h5979c1:5" depart="57669.00" departLane="399835085#1_1" departPos="5.10" departSpeed="0.00" departDelay="0.00" arrival="57791.00" arrivalLane="-315358254#1_1" arrivalPos="137.16" arrivalSpeed="9.32" duration="122.00" routeLength="659.33" waitingTime="9.00" waitingCount="1" stopTime="0.00" timeLoss="22.96" rerouteNo="1" devices="tripinfo_h5979c1:5 routing_h5979c1:5 emissions_h5979c1:5" vType="default_016" speedFactor="0.74" vaporized="">
        <emissions CO_abs="5447.307068" CO2_abs="189232.628325" HC_abs="29.133967" PMx_abs="3.228542" NOx_abs="77.995366" fuel_abs="81.345216" electricity_abs="0"/>
    </tripinfo>
    <tripinfo id="carIn86816:1" depart="57617.00" departLane="128361102#0_1" departPos="5.10" departSpeed="0.00" departDelay="0.80" arrival="57793.00" arrivalLane="201956811#0_1" arrivalPos="40.40" arrivalSpeed="13.67" duration="176.00" routeLength="2067.33" waitingTime="1.00" waitingCount="1" stopTime="0.00" timeLoss="25.09" rerouteNo="1" devices="tripinfo_carIn86816:1 routing_carIn86816:1 emissions_carIn86816:1" vType="default_016" speedFactor="1.00" vaporized="">
        <emissions CO_abs="6071.599133" CO2_abs="455314.467296" HC_abs="38.307142" PMx_abs="7.681029" NOx_abs="182.408917" fuel_abs="195.720113" electricity_abs="0"/>
    </tripinfo>
    <tripinfo id="carIn107282:1" depart="57749.00" departLane="-447569998#1_1" departPos="5.10" departSpeed="0.00" departDelay="0.00" arrival="57796.00" arrivalLane="315358242#0_1" arrivalPos="165.37" arrivalSpeed="13.02" duration="47.00" routeLength="448.50" waitingTime="0.00" waitingCount="0" stopTime="0.00" timeLoss="4.46" rerouteNo="1" devices="tripinfo_carIn107282:1 routing_carIn107282:1 emissions_carIn107282:1" vType="default_016" speedFactor="0.98" vaporized="">
        <emissions CO_abs="1797.737678" CO2_abs="111565.099429" HC_abs="10.742999" PMx_abs="1.741416" NOx_abs="44.169381" fuel_abs="47.957477" electricity_abs="0"/>
    </tripinfo>
    <tripinfo id="carIn129809:1" depart="57729.00" departLane="-447569998#1_1" departPos="5.10" departSpeed="0.00" departDelay="1.00" arrival="57800.00" arrivalLane="-315358244_1" arrivalPos="33.95" arrivalSpeed="15.17" duration="71.00" routeLength="706.49" waitingTime="0.00" waitingCount="0" stopTime="0.00" timeLoss="17.44" rerouteNo="1" devices="tripinfo_carIn129809:1 routing_carIn129809:1 emissions_carIn129809:1" vType="default_015" speedFactor="1.12" vaporized="">
        <emissions CO_abs="3279.492664" CO2_abs="188064.882748" HC_abs="19.306332" PMx_abs="3.308141" NOx_abs="76.586444" fuel_abs="80.841417" electricity_abs="0"/>
    </tripinfo>
    <tripinfo id="carIn22761:1" depart="57616.00" departLane="-306240162#1_0" departPos="5.10" departSpeed="0.00" departDelay="2.10" arrival="57802.00" arrivalLane="399835085#1_1" arrivalPos="212.23" arrivalSpeed="8.15" duration="186.00" routeLength="1093.26" waitingTime="95.00" waitingCount="1" stopTime="0.00" timeLoss="112.23" rerouteNo="1" devices="tripinfo_carIn22761:1 routing_carIn22761:1 emissions_carIn22761:1" vType="default_016" speedFactor="1.06" vaporized="">
        <emissions CO_abs="19850.682804" CO2_abs="543004.030694" HC_abs="103.180486" PMx_abs="11.740985" NOx_abs="234.128075" fuel_abs="233.420935" electricity_abs="0"/>
    </tripinfo>
    <tripinfo id="carIn82278:1" depart="57702.00" departLane="-306240162#1_0" departPos="5.10" departSpeed="0.00" departDelay="0.70" arrival="57804.00" arrivalLane="399835085#1_1" arrivalPos="212.23" arrivalSpeed="9.18" duration="102.00" routeLength="1093.26" waitingTime="10.00" waitingCount="1" stopTime="0.00" timeLoss="31.67" rerouteNo="1" devices="tripinfo_carIn82278:1 routing_carIn82278:1 emissions_carIn82278:1" vType="default_016" speedFactor="1.11" vaporized="">
        <emissions CO_abs="6713.283870" CO2_abs="352952.532227" HC_abs="38.997036" PMx_abs="7.102064" NOx_abs="148.699738" fuel_abs="151.719094" electricity_abs="0"/>
    </tripinfo>
    <tripinfo id="carIn12858:1" depart="57661.00" departLane="128361109#1_1" departPos="5.10" departSpeed="0.00" departDelay="0.90" arrival="57807.00" arrivalLane="399835085#1_1" arrivalPos="212.23" arrivalSpeed="8.39" duration="146.00" routeLength="1738.12" waitingTime="9.00" waitingCount="2" stopTime="0.00" timeLoss="41.10" rerouteNo="1" devices="tripinfo_carIn12858:1 routing_carIn12858:1 emissions_carIn12858:1" vType="default_016" speedFactor="1.10" vaporized="">
        <emissions CO_abs="8203.070877" CO2_abs="517761.133876" HC_abs="49.762045" PMx_abs="10.231827" NOx_abs="215.741293" fuel_abs="222.562219" electricity_abs="0"/>
    </tripinfo>
    <tripinfo id="carIn48184:1" depart="57613.00" departLane="-306240162#1_0" departPos="5.10" departSpeed="0.00" departDelay="0.70" arrival="57819.00" arrivalLane="386687235_1" arrivalPos="80.84" arrivalSpeed="12.88" duration="206.00" routeLength="2257.41" waitingTime="26.00" waitingCount="2" stopTime="0.00" timeLoss="51.13" rerouteNo="1" devices="tripinfo_carIn48184:1 routing_carIn48184:1 emissions_carIn48184:1" vType="default_016" speedFactor="0.96" vaporized="">
        <emissions CO_abs="8697.069460" CO2_abs="502262.717538" HC_abs="51.425527" PMx_abs="8.968032" NOx_abs="203.108189" fuel_abs="215.902240" electricity_abs="0"/>
    </tripinfo>
    <tripinfo id="carIn82220:1" depart="57619.00" departLane="-306240162#1_0" departPos="5.10" departSpeed="0.00" departDelay="3.50" arrival="57821.00" arrivalLane="386687235_1" arrivalPos="80.84" arrivalSpeed="12.95" duration="202.00" routeLength="2257.41" waitingTime="23.00" waitingCount="2" stopTime="0.00" timeLoss="47.77" rerouteNo="1" devices="tripinfo_carIn82220:1 routing_carIn82220:1 emissions_carIn82220:1" vType="default_016" speedFactor="0.97" vaporized="">
        <emissions CO_abs="8598.867717" CO2_abs="538114.593485" HC_abs="51.745901" PMx_abs="9.428669" NOx_abs="216.078456" fuel_abs="231.313182" electricity_abs="0"/>
    </tripinfo>
    <tripinfo id="carIn30817:1" depart="57681.00" departLane="315358244_1" departPos="5.10" departSpeed="0.00" departDelay="0.20" arrival="57831.00" arrivalLane="447569997#1_1" arrivalPos="180.93" arrivalSpeed="8.91" duration="150.00" routeLength="718.04" waitingTime="75.00" waitingCount="3" stopTime="0.00" timeLoss="92.77" rerouteNo="1" devices="tripinfo_carIn30817:1 routing_carIn30817:1 emissions_carIn30817:1" vType="default_016" speedFactor="1.08" vaporized="">
        <emissions CO_abs="13895.532812" CO2_abs="365939.503530" HC_abs="71.809513" PMx_abs="7.772161" NOx_abs="158.517143" fuel_abs="157.306758" electricity_abs="0"/>
    </tripinfo>
    <tripinfo id="carIn12365:1" depart="57713.00" departLane="315358244_1" departPos="5.10" departSpeed="0.00" departDelay="0.50" arrival="57833.00" arrivalLane="447569997#1_2" arrivalPos="180.93" arrivalSpeed="8.76" duration="120.00" routeLength="718.04" waitingTime="42.00" waitingCount="2" stopTime="0.00" timeLoss="64.62" rerouteNo="1" devices="tripinfo_carIn12365:1 routing_carIn12365:1 emissions_carIn12365:1" vType="default_016" speedFactor="1.12" vaporized="">
        <emissions CO_abs="9168.324038" CO2_abs="296850.381024" HC_abs="48.717757" PMx_abs="6.119998" NOx_abs="127.551237" fuel_abs="127.605822" electricity_abs="0"/>
    </tripinfo>
    <tripinfo id="carIn50326:1" depart="57651.00" departLane="128361102#0_1" departPos="5.10" departSpeed="0.00" departDelay="0.30" arrival="57841.00" arrivalLane="18809673#0_1" arrivalPos="473.56" arrivalSpeed="12.69" duration="190.00" routeLength="1591.07" waitingTime="27.00" waitingCount="1" stopTime="0.00" timeLoss="49.21" rerouteNo="1" devices="tripinfo_carIn50326:1 routing_carIn50326:1 emissions_carIn50326:1" vType="default_016" speedFactor="0.93" vaporized="">
        <emissions CO_abs="9325.012168" CO2_abs="421278.270568" HC_abs="52.276694" PMx_abs="7.431436" NOx_abs="172.327453" fuel_abs="181.091945" electricity_abs="0"/>
    </tripinfo>
    <tripinfo id="carIn462:1" depart="57622.00" departLane="-306240162#1_0" departPos="5.10" departSpeed="0.00" departDelay="4.80" arrival="57843.00" arrivalLane="386687235_1" arrivalPos="80.84" arrivalSpeed="14.26" duration="221.00" routeLength="2257.41" waitingTime="44.00" waitingCount="3" stopTime="0.00" timeLoss="85.92" rerouteNo="1" devices="tripinfo_carIn462:1 routing_carIn462:1 emissions_carIn462:1" vType="default_016" speedFactor="1.10" vaporized="">
        <emissions CO_abs="12243.508551" CO2_abs="602963.270829" HC_abs="69.890846" PMx_abs="11.493881" NOx_abs="248.766892" fuel_abs="259.189678" electricity_abs="0"/>
    </tripinfo>
    <tripinfo id="randUni31145:1" depart="57814.00" departLane="10425609#0_1" departPos="5.10" departSpeed="0.00" departDelay="0.30" arrival="57843.00" arrivalLane="201956810_1" arrivalPos="71.65" arrivalSpeed="10.96" duration="29.00" routeLength="255.78" waitingTime="0.00" waitingCount="0" stopTime="0.00" timeLoss="6.06" rerouteNo="1" devices="tripinfo_randUni31145:1 routing_randUni31145:1 emissions_randUni31145:1" vType="random_016" speedFactor="0.87" vaporized="">
        <emissions CO_abs="1540.505288" CO2_abs="86492.211404" HC_abs="9.042217" PMx_abs="1.548899" NOx_abs="35.764549" fuel_abs="37.179422" electricity_abs="0"/>
    </tripinfo>
    <tripinfo id="carIn12152:1" depart="57647.00" departLane="24599188#0.94_1" departPos="5.10" departSpeed="0.00" departDelay="0.50" arrival="57848.00" arrivalLane="-315358254#1_1" arrivalPos="137.16" arrivalSpeed="12.86" duration="201.00" routeLength="2034.31" waitingTime="8.00" waitingCount="2" stopTime="0.00" timeLoss="33.29" rerouteNo="1" devices="tripinfo_carIn12152:1 routing_carIn12152:1 emissions_carIn12152:1" vType="default_016" speedFactor="0.95" vaporized="">
        <emissions CO_abs="6580.978844" CO2_abs="436163.136346" HC_abs="40.068092" PMx_abs="6.911343" NOx_abs="172.404091" fuel_abs="187.489060" electricity_abs="0"/>
    </tripinfo>
    <tripinfo id="50R_frequency3.17" depart="57674.00" departLane="-18809673#6_1" departPos="12.10" departSpeed="0.00" departDelay="0.70" arrival="57849.00" arrivalLane="201956811#0_1" arrivalPos="40.40" arrivalSpeed="10.02" duration="175.00" routeLength="1954.47" waitingTime="2.00" waitingCount="1" stopTime="0.00" timeLoss="30.66" rerouteNo="1" devices="tripinfo_50R_frequency3.17 routing_50R_frequency3.17 emissions_50R_frequency3.17" vType="bus" speedFactor="1.00" vaporized="">
        <emissions CO_abs="3338.685580" CO2_abs="2088547.516246" HC_abs="708.535663" PMx_abs="358.117665" NOx_abs="16209.243127" fuel_abs="890.745841" electricity_abs="0"/>
    </tripinfo>
    <tripinfo id="carIn126288:1" depart="57674.00" departLane="272042143_1" departPos="5.10" departSpeed="0.00" departDelay="0.00" arrival="57849.00" arrivalLane="-315358254#1_1" arrivalPos="137.16" arrivalSpeed="13.79" duration="175.00" routeLength="1596.88" waitingTime="48.00" waitingCount="1" stopTime="0.00" timeLoss="78.10" rerouteNo="1" devices="tripinfo_carIn126288:1 routing_carIn126288:1 emissions_carIn126288:1" vType="default_016" speedFactor="1.20" vaporized="">
        <emissions CO_abs="12628.218008" CO2_abs="501848.625286" HC_abs="69.252389" PMx_abs="9.833338" NOx_abs="209.649436" fuel_abs="215.726146" electricity_abs="0"/>
    </tripinfo>
    <tripinfo id="randUni2407:1" depart="57820.00" departLane="10425609#0_1" departPos="5.10" departSpeed="0.00" departDelay="0.80" arrival="57849.00" arrivalLane="201956810_1" arrivalPos="71.65" arrivalSpeed="11.59" duration="29.00" routeLength="255.78" waitingTime="0.00" waitingCount="0" stopTime="0.00" timeLoss="5.06" rerouteNo="1" devices="tripinfo_randUni2407:1 routing_randUni2407:1 emissions_randUni2407:1" vType="random_016" speedFactor="0.84" vaporized="">
        <emissions CO_abs="1449.413262" CO2_abs="78716.411999" HC_abs="8.454262" PMx_abs="1.470888" NOx_abs="33.027936" fuel_abs="33.836866" electricity_abs="0"/>
    </tripinfo>
    <tripinfo id="carIn102915:1" depart="57643.00" departLane="128361102#0_1" departPos="5.10" departSpeed="0.00" departDelay="0.40" arrival="57851.00" arrivalLane="201956811#0_1" arrivalPos="40.40" arrivalSpeed="12.93" duration="208.00" routeLength="2067.33" waitingTime="37.00" waitingCount="1" stopTime="0.00" timeLoss="70.92" rerouteNo="1" devices="tripinfo_carIn102915:1 routing_carIn102915:1 emissions_carIn102915:1" vType="default_016" speedFactor="1.10" vaporized="">
        <emissions CO_abs="12773.970145" CO2_abs="597555.285374" HC_abs="72.075050" PMx_abs="11.271732" NOx_abs="246.991066" fuel_abs="256.865596" electricity_abs="0"/>
    </tripinfo>
    <tripinfo id="h645c1:1" depart="57622.00" departLane="266565295#5_1" departPos="5.10" departSpeed="0.00" departDelay="0.40" arrival="57852.00" arrivalLane="-315358244_2" arrivalPos="33.95" arrivalSpeed="12.69" duration="230.00" routeLength="1910.83" waitingTime="47.00" waitingCount="4" stopTime="0.00" timeLoss="81.32" rerouteNo="1" devices="tripinfo_h645c1:1 routing_h645c1:1 emissions_h645c1:1" vType="default_016" speedFactor="0.93" vaporized="">
        <emissions CO_abs="11324.057005" CO2_abs="519654.515269" HC_abs="63.717862" PMx_abs="9.347639" NOx_abs="213.332004" fuel_abs="223.379866" electricity_abs="0"/>
    </tripinfo>
    <tripinfo id="h3864c1:3" depart="57678.00" departLane="24693977#1_1" departPos="5.10" departSpeed="0.00" departDelay="0.00" arrival="57852.00" arrivalLane="201956820_2" arrivalPos="48.33" arrivalSpeed="13.60" duration="174.00" routeLength="1574.85" waitingTime="23.00" waitingCount="2" stopTime="0.00" timeLoss="49.30" rerouteNo="1" devices="tripinfo_h3864c1:3 routing_h3864c1:3 emissions_h3864c1:3" vType="default_016" speedFactor="1.04" vaporized="">
        <emissions CO_abs="9407.088841" CO2_abs="477342.143736" HC_abs="53.985222" PMx_abs="8.709540" NOx_abs="196.811430" fuel_abs="205.190317" electricity_abs="0"/>
    </tripinfo>
    <tripinfo id="h17549c1:1" depart="57680.00" departLane="-447569998#1_1" departPos="5.10" departSpeed="0.00" departDelay="0.00" arrival="57853.00" arrivalLane="-315358254#1_1" arrivalPos="137.16" arrivalSpeed="11.82" duration="173.00" routeLength="1746.60" waitingTime="3.00" waitingCount="2" stopTime="0.00" timeLoss="23.47" rerouteNo="1" devices="tripinfo_h17549c1:1 routing_h17549c1:1 emissions_h17549c1:1" vType="default_016" speedFactor="0.92" vaporized="">
        <emissions CO_abs="5429.837856" CO2_abs="369193.203012" HC_abs="33.275743" PMx_abs="5.775501" NOx_abs="145.757705" fuel_abs="158.701333" electricity_abs="0"/>
    </tripinfo>
    <tripinfo id="h2831c1:1" depart="57600.00" departLane="201089423#0_1" departPos="5.10" departSpeed="0.00" departDelay="0.00" arrival="57854.00" arrivalLane="-315358244_1" arrivalPos="33.95" arrivalSpeed="13.32" duration="254.00" routeLength="2672.18" waitingTime="21.00" waitingCount="5" stopTime="0.00" timeLoss="64.55" rerouteNo="1" devices="tripinfo_h2831c1:1 routing_h2831c1:1 emissions_h2831c1:1" vType="default_016" speedFactor="1.03" vaporized="">
        <emissions CO_abs="9080.882044" CO2_abs="621228.745750" HC_abs="55.837059" PMx_abs="10.721084" NOx_abs="250.476500" fuel_abs="267.039822" electricity_abs="0"/>
    </tripinfo>
    <tripinfo id="h5938c1:1" depart="57740.00" departLane="-26677542#0_1" departPos="5.10" departSpeed="0.00" departDelay="0.00" arrival="57859.00" arrivalLane="447569997#1_1" arrivalPos="180.93" arrivalSpeed="6.88" duration="119.00" routeLength="1093.64" waitingTime="4.00" waitingCount="1" stopTime="0.00" timeLoss="18.64" rerouteNo="1" devices="tripinfo_h5938c1:1 routing_h5938c1:1 emissions_h5938c1:1" vType="default_016" speedFactor="0.97" vaporized="">
        <emissions CO_abs="4096.919761" CO2_abs="246101.697353" HC_abs="24.296048" PMx_abs="3.886988" NOx_abs="97.532422" fuel_abs="105.789566" electricity_abs="0"/>
    </tripinfo>
    <tripinfo id="randUni15030:1" depart="57735.00" departLane="386687232#0_1" departPos="5.10" departSpeed="0.00" departDelay="0.10" arrival="57861.00" arrivalLane="26677539_1" arrivalPos="151.98" arrivalSpeed="8.37" duration="126.00" routeLength="919.89" waitingTime="36.00" waitingCount="1" stopTime="0.00" timeLoss="50.71" rerouteNo="1" devices="tripinfo_randUni15030:1 routing_randUni15030:1 emissions_randUni15030:1" vType="random_016" speedFactor="1.10" vaporized="">
        <emissions CO_abs="8459.243715" CO2_abs="305850.825221" HC_abs="45.664620" PMx_abs="5.856640" NOx_abs="127.978841" fuel_abs="131.474704" electricity_abs="0"/>
    </tripinfo>
    <tripinfo id="carIn73855:1" depart="57743.00" departLane="386687232#0_1" departPos="5.10" departSpeed="0.00" departDelay="0.50" arrival="57866.00" arrivalLane="-315358244_1" arrivalPos="33.95" arrivalSpeed="13.78" duration="123.00" routeLength="1157.39" waitingTime="30.00" waitingCount="1" stopTime="0.00" timeLoss="41.46" rerouteNo="1" devices="tripinfo_carIn73855:1 routing_carIn73855:1 emissions_carIn73855:1" vType="default_016" speedFactor="1.04" vaporized="">
        <emissions CO_abs="6958.569105" CO2_abs="284218.207606" HC_abs="38.321138" PMx_abs="5.296503" NOx_abs="117.037303" fuel_abs="122.175135" electricity_abs="0"/>
    </tripinfo>
    <tripinfo id="carIn126378:1" depart="57746.00" departLane="386687232#0_1" departPos="5.10" departSpeed="0.00" departDelay="1.80" arrival="57867.00" arrivalLane="-315358244_1" arrivalPos="33.95" arrivalSpeed="14.73" duration="121.00" routeLength="1157.39" waitingTime="28.00" waitingCount="1" stopTime="0.00" timeLoss="41.32" rerouteNo="1" devices="tripinfo_carIn126378:1 routing_carIn126378:1 emissions_carIn126378:1" vType="default_016" speedFactor="1.06" vaporized="">
        <emissions CO_abs="7177.430949" CO2_abs="321302.000717" HC_abs="40.181276" PMx_abs="5.841531" NOx_abs="131.003276" fuel_abs="138.115789" electricity_abs="0"/>
    </tripinfo>