<?xml version="1.0" encoding="UTF-8"?>

<!-- generated on 2021-10-26 18:06:11 by Eclipse SUMO sumo Version 1.10.0
<configuration xmlns:xsi="http://www.w3.org/2001/XMLSchema-instance" xsi:noNamespaceSchemaLocation="http://sumo.dlr.de/xsd/sumoConfiguration.xsd">

    <input>
        <net-file value="/Users/behradkoohy/sumo-scratchpad/RESCO/environments/ingolstadt21/ingolstadt21.net.xml"/>
        <route-files value="/Users/behradkoohy/sumo-scratchpad/RESCO/environments/ingolstadt21/ingolstadt21.rou.xml"/>
    </input>

    <output>
        <tripinfo-output value="/Users/behradkoohy/sumo-scratchpad/RESCO/logs/IPPO-tr0-ingolstadt21-21-drq_norm-wait_norm/tripinfo_43.xml"/>
        <tripinfo-output.write-unfinished value="true"/>
    </output>

    <time>
        <begin value="57600"/>
        <end value="61200"/>
    </time>

    <processing>
        <time-to-teleport value="-1"/>
    </processing>

    <report>
        <no-warnings value="true"/>
        <no-step-log value="true"/>
    </report>

    <emissions>
        <device.emissions.probability value="1"/>
    </emissions>

    <traci_server>
        <remote-port value="62051"/>
    </traci_server>

    <random_number>
        <random value="true"/>
    </random_number>

</configuration>
-->

<tripinfos xmlns:xsi="http://www.w3.org/2001/XMLSchema-instance" xsi:noNamespaceSchemaLocation="http://sumo.dlr.de/xsd/tripinfo_file.xsd">
    <tripinfo id="h15454c2:3" depart="57612.00" departLane="24608844_1" departPos="5.10" departSpeed="0.00" departDelay="0.50" arrival="57652.00" arrivalLane="32978638#0_1" arrivalPos="49.29" arrivalSpeed="12.79" duration="40.00" routeLength="354.79" waitingTime="0.00" waitingCount="0" stopTime="0.00" timeLoss="4.62" rerouteNo="1" devices="tripinfo_h15454c2:3 routing_h15454c2:3 emissions_h15454c2:3" vType="default_016" speedFactor="0.98" vaporized="">
        <emissions CO_abs="1793.788172" CO2_abs="100921.154988" HC_abs="10.513844" PMx_abs="1.699134" NOx_abs="40.977917" fuel_abs="43.381996" electricity_abs="0"/>
    </tripinfo>
    <tripinfo id="carIn53971:1" depart="57640.00" departLane="272042143_1" departPos="5.10" departSpeed="0.00" departDelay="0.80" arrival="57693.00" arrivalLane="24634414#1_1" arrivalPos="162.19" arrivalSpeed="8.62" duration="53.00" routeLength="493.04" waitingTime="0.00" waitingCount="0" stopTime="0.00" timeLoss="8.40" rerouteNo="1" devices="tripinfo_carIn53971:1 routing_carIn53971:1 emissions_carIn53971:1" vType="default_016" speedFactor="1.04" vaporized="">
        <emissions CO_abs="2490.968033" CO2_abs="147268.812462" HC_abs="14.728321" PMx_abs="2.589644" NOx_abs="60.361753" fuel_abs="63.304739" electricity_abs="0"/>
    </tripinfo>
    <tripinfo id="carIn80064:1" depart="57603.00" departLane="128361109#1_1" departPos="5.10" departSpeed="0.00" departDelay="0.40" arrival="57710.00" arrivalLane="-315358254#1_1" arrivalPos="137.16" arrivalSpeed="13.74" duration="107.00" routeLength="1587.97" waitingTime="0.00" waitingCount="0" stopTime="0.00" timeLoss="18.20" rerouteNo="1" devices="tripinfo_carIn80064:1 routing_carIn80064:1 emissions_carIn80064:1" vType="default_016" speedFactor="1.01" vaporized="">
        <emissions CO_abs="6056.166698" CO2_abs="447201.112334" HC_abs="38.317035" PMx_abs="8.743598" NOx_abs="184.329372" fuel_abs="192.231047" electricity_abs="0"/>
    </tripinfo>
    <tripinfo id="carIn60260:1" depart="57606.00" departLane="315358254#0_1" departPos="5.10" departSpeed="0.00" departDelay="0.90" arrival="57720.00" arrivalLane="399835085#1_1" arrivalPos="212.23" arrivalSpeed="7.04" duration="114.00" routeLength="430.98" waitingTime="50.00" waitingCount="1" stopTime="0.00" timeLoss="59.97" rerouteNo="1" devices="tripinfo_carIn60260:1 routing_carIn60260:1 emissions_carIn60260:1" vType="default_016" speedFactor="0.86" vaporized="">
        <emissions CO_abs="10160.400098" CO2_abs="236087.066084" HC_abs="51.754387" PMx_abs="4.952691" NOx_abs="102.499582" fuel_abs="101.488028" electricity_abs="0"/>
    </tripinfo>
    <tripinfo id="h7800c1:5" depart="57696.00" departLane="-447569998#1_1" departPos="5.10" departSpeed="0.00" departDelay="0.00" arrival="57721.00" arrivalLane="-447569998#1_2" arrivalPos="180.76" arrivalSpeed="8.00" duration="25.00" routeLength="175.66" waitingTime="0.00" waitingCount="0" stopTime="0.00" timeLoss="3.43" rerouteNo="1" devices="tripinfo_h7800c1:5 routing_h7800c1:5 emissions_h7800c1:5" vType="default_016" speedFactor="1.01" vaporized="">
        <emissions CO_abs="1233.283685" CO2_abs="54688.528393" HC_abs="6.875300" PMx_abs="0.918064" NOx_abs="22.395903" fuel_abs="23.508632" electricity_abs="0"/>
    </tripinfo>
    <tripinfo id="h3688c1:1" depart="57625.00" departLane="201201950#1_1" departPos="5.10" departSpeed="0.00" departDelay="0.00" arrival="57739.00" arrivalLane="32978638#0_1" arrivalPos="49.29" arrivalSpeed="14.27" duration="114.00" routeLength="1089.75" waitingTime="26.00" waitingCount="1" stopTime="0.00" timeLoss="41.17" rerouteNo="1" devices="tripinfo_h3688c1:1 routing_h3688c1:1 emissions_h3688c1:1" vType="default_016" speedFactor="1.10" vaporized="">
        <emissions CO_abs="7246.405915" CO2_abs="319439.924477" HC_abs="40.328727" PMx_abs="6.124772" NOx_abs="132.686012" fuel_abs="137.314887" electricity_abs="0"/>
    </tripinfo>
    <tripinfo id="carIn30817:1" depart="57681.00" departLane="315358244_1" departPos="5.10" departSpeed="0.00" departDelay="0.20" arrival="57740.00" arrivalLane="447569997#1_1" arrivalPos="180.93" arrivalSpeed="8.43" duration="59.00" routeLength="718.04" waitingTime="0.00" waitingCount="0" stopTime="0.00" timeLoss="6.06" rerouteNo="1" devices="tripinfo_carIn30817:1 routing_carIn30817:1 emissions_carIn30817:1" vType="default_016" speedFactor="1.17" vaporized="">
        <emissions CO_abs="1844.728109" CO2_abs="152272.786180" HC_abs="11.847374" PMx_abs="2.405213" NOx_abs="59.227187" fuel_abs="65.455670" electricity_abs="0"/>
    </tripinfo>
    <tripinfo id="h317c2:1" depart="57707.00" departLane="-32978638#0_1" departPos="5.10" departSpeed="0.00" departDelay="0.10" arrival="57743.00" arrivalLane="-266565295#5_1" arrivalPos="172.76" arrivalSpeed="11.69" duration="36.00" routeLength="370.53" waitingTime="0.00" waitingCount="0" stopTime="0.00" timeLoss="5.40" rerouteNo="1" devices="tripinfo_h317c2:1 routing_h317c2:1 emissions_h317c2:1" vType="default_016" speedFactor="0.92" vaporized="">
        <emissions CO_abs="1593.912109" CO2_abs="95900.305507" HC_abs="9.512741" PMx_abs="1.723619" NOx_abs="39.556284" fuel_abs="41.223480" electricity_abs="0"/>
    </tripinfo>
    <tripinfo id="h3568c1:3" depart="57656.00" departLane="266565295#5_1" departPos="5.10" departSpeed="0.00" departDelay="0.80" arrival="57752.00" arrivalLane="-24634415_1" arrivalPos="62.03" arrivalSpeed="12.36" duration="96.00" routeLength="807.40" waitingTime="11.00" waitingCount="1" stopTime="0.00" timeLoss="28.47" rerouteNo="1" devices="tripinfo_h3568c1:3 routing_h3568c1:3 emissions_h3568c1:3" vType="default_016" speedFactor="0.97" vaporized="">
        <emissions CO_abs="5115.085732" CO2_abs="258258.807709" HC_abs="29.348276" PMx_abs="4.684847" NOx_abs="106.569571" fuel_abs="111.015186" electricity_abs="0"/>
    </tripinfo>
    <tripinfo id="h330c1:1" depart="57736.00" departLane="-32978638#0_1" departPos="5.10" departSpeed="0.00" departDelay="0.20" arrival="57772.00" arrivalLane="-266565295#5_1" arrivalPos="172.76" arrivalSpeed="11.56" duration="36.00" routeLength="370.53" waitingTime="0.00" waitingCount="0" stopTime="0.00" timeLoss="5.82" rerouteNo="1" devices="tripinfo_h330c1:1 routing_h330c1:1 emissions_h330c1:1" vType="default_016" speedFactor="0.92" vaporized="">
        <emissions CO_abs="1601.559671" CO2_abs="101901.765140" HC_abs="9.682935" PMx_abs="1.778658" NOx_abs="41.582176" fuel_abs="43.803266" electricity_abs="0"/>
    </tripinfo>
    <tripinfo id="carIn22761:1" depart="57616.00" departLane="-306240162#1_0" departPos="5.10" departSpeed="0.00" departDelay="2.10" arrival="57774.00" arrivalLane="399835085#1_1" arrivalPos="212.23" arrivalSpeed="8.21" duration="158.00" routeLength="1093.26" waitingTime="66.00" waitingCount="1" stopTime="0.00" timeLoss="79.84" rerouteNo="1" devices="tripinfo_carIn22761:1 routing_carIn22761:1 emissions_carIn22761:1" vType="default_016" speedFactor="1.00" vaporized="">
        <emissions CO_abs="14151.316753" CO2_abs="434024.605522" HC_abs="74.714465" PMx_abs="9.094546" NOx_abs="185.130250" fuel_abs="186.572991" electricity_abs="0"/>
    </tripinfo>
    <tripinfo id="h3326c1:2" depart="57656.00" departLane="22716069#0_1" departPos="5.10" departSpeed="0.00" departDelay="0.00" arrival="57775.00" arrivalLane="24634517#13_1" arrivalPos="111.62" arrivalSpeed="11.76" duration="119.00" routeLength="1312.81" waitingTime="0.00" waitingCount="0" stopTime="0.00" timeLoss="14.65" rerouteNo="1" devices="tripinfo_h3326c1:2 routing_h3326c1:2 emissions_h3326c1:2" vType="default_016" speedFactor="0.93" vaporized="">
        <emissions CO_abs="4120.485057" CO2_abs="306382.758472" HC_abs="25.903729" PMx_abs="4.952953" NOx_abs="121.796988" fuel_abs="131.701091" electricity_abs="0"/>
    </tripinfo>
    <tripinfo id="carIn27009:1" depart="57673.00" departLane="-447569998#1_1" departPos="5.10" departSpeed="0.00" departDelay="0.50" arrival="57775.00" arrivalLane="-26677539_1" arrivalPos="152.75" arrivalSpeed="7.71" duration="102.00" routeLength="699.63" waitingTime="2.00" waitingCount="1" stopTime="0.00" timeLoss="17.53" rerouteNo="1" devices="tripinfo_carIn27009:1 routing_carIn27009:1 emissions_carIn27009:1" vType="default_015" speedFactor="0.99" vaporized="">
        <emissions CO_abs="4337.581363" CO2_abs="197901.073499" HC_abs="24.306565" PMx_abs="3.292987" NOx_abs="80.902326" fuel_abs="85.070489" electricity_abs="0"/>
    </tripinfo>
    <tripinfo id="h645c1:1" depart="57622.00" departLane="266565295#5_1" departPos="5.10" departSpeed="0.00" departDelay="0.40" arrival="57777.00" arrivalLane="-315358244_2" arrivalPos="33.95" arrivalSpeed="14.52" duration="155.00" routeLength="1910.83" waitingTime="7.00" waitingCount="1" stopTime="0.00" timeLoss="22.63" rerouteNo="1" devices="tripinfo_h645c1:1 routing_h645c1:1 emissions_h645c1:1" vType="default_016" speedFactor="1.05" vaporized="">
        <emissions CO_abs="4401.418877" CO2_abs="372224.451441" HC_abs="28.599087" PMx_abs="6.008081" NOx_abs="145.912476" fuel_abs="160.003346" electricity_abs="0"/>
    </tripinfo>
    <tripinfo id="carIn121703:1" depart="57647.00" departLane="386687232#0_1" departPos="5.10" departSpeed="0.00" departDelay="0.30" arrival="57777.00" arrivalLane="-315358244_1" arrivalPos="33.95" arrivalSpeed="13.39" duration="130.00" routeLength="1157.39" waitingTime="26.00" waitingCount="2" stopTime="0.00" timeLoss="43.25" rerouteNo="1" devices="tripinfo_carIn121703:1 routing_carIn121703:1 emissions_carIn121703:1" vType="default_016" speedFactor="0.97" vaporized="">
        <emissions CO_abs="6226.133423" CO2_abs="302386.154470" HC_abs="35.402719" PMx_abs="5.325111" NOx_abs="122.884886" fuel_abs="129.984311" electricity_abs="0"/>
    </tripinfo>
    <tripinfo id="carIn12365:1" depart="57713.00" departLane="315358244_1" departPos="5.10" departSpeed="0.00" departDelay="0.50" arrival="57782.00" arrivalLane="447569997#1_1" arrivalPos="180.93" arrivalSpeed="8.34" duration="69.00" routeLength="718.04" waitingTime="0.00" waitingCount="0" stopTime="0.00" timeLoss="7.37" rerouteNo="1" devices="tripinfo_carIn12365:1 routing_carIn12365:1 emissions_carIn12365:1" vType="default_016" speedFactor="1.01" vaporized="">
        <emissions CO_abs="2272.083302" CO2_abs="147337.556337" HC_abs="13.779689" PMx_abs="2.434077" NOx_abs="59.035080" fuel_abs="63.334388" electricity_abs="0"/>
    </tripinfo>
    <tripinfo id="carIn48184:1" depart="57613.00" departLane="-306240162#1_0" departPos="5.10" departSpeed="0.00" departDelay="0.70" arrival="57787.00" arrivalLane="386687235_1" arrivalPos="80.84" arrivalSpeed="15.65" duration="174.00" routeLength="2257.41" waitingTime="21.00" waitingCount="2" stopTime="0.00" timeLoss="45.44" rerouteNo="1" devices="tripinfo_carIn48184:1 routing_carIn48184:1 emissions_carIn48184:1" vType="default_016" speedFactor="1.15" vaporized="">
        <emissions CO_abs="8171.997065" CO2_abs="535321.016917" HC_abs="49.801096" PMx_abs="10.078809" NOx_abs="216.593949" fuel_abs="230.111221" electricity_abs="0"/>
    </tripinfo>
    <tripinfo id="h5979c1:5" depart="57669.00" departLane="399835085#1_1" departPos="5.10" departSpeed="0.00" departDelay="0.00" arrival="57787.00" arrivalLane="-315358254#1_1" arrivalPos="137.16" arrivalSpeed="13.39" duration="118.00" routeLength="659.33" waitingTime="31.00" waitingCount="1" stopTime="0.00" timeLoss="44.19" rerouteNo="1" devices="tripinfo_h5979c1:5 routing_h5979c1:5 emissions_h5979c1:5" vType="default_016" speedFactor="0.99" vaporized="">
        <emissions CO_abs="7896.668490" CO2_abs="240400.117514" HC_abs="41.542002" PMx_abs="4.620925" NOx_abs="101.526721" fuel_abs="103.340664" electricity_abs="0"/>
    </tripinfo>
    <tripinfo id="carIn82278:1" depart="57702.00" departLane="-306240162#1_0" departPos="5.10" departSpeed="0.00" departDelay="0.70" arrival="57793.00" arrivalLane="399835085#1_1" arrivalPos="212.23" arrivalSpeed="7.89" duration="91.00" routeLength="1093.26" waitingTime="0.00" waitingCount="0" stopTime="0.00" timeLoss="17.60" rerouteNo="1" devices="tripinfo_carIn82278:1 routing_carIn82278:1 emissions_carIn82278:1" vType="default_016" speedFactor="1.07" vaporized="">
        <emissions CO_abs="5153.957576" CO2_abs="326824.140507" HC_abs="31.177532" PMx_abs="6.300134" NOx_abs="135.359256" fuel_abs="140.487178" electricity_abs="0"/>
    </tripinfo>
    <tripinfo id="h12244c1:3" depart="57612.00" departLane="315358244_1" departPos="5.10" departSpeed="0.00" departDelay="0.40" arrival="57805.00" arrivalLane="386687235_1" arrivalPos="80.84" arrivalSpeed="11.53" duration="193.00" routeLength="1186.14" waitingTime="71.00" waitingCount="2" stopTime="0.00" timeLoss="93.77" rerouteNo="1" devices="tripinfo_h12244c1:3 routing_h12244c1:3 emissions_h12244c1:3" vType="default_016" speedFactor="0.87" vaporized="">
        <emissions CO_abs="14637.256746" CO2_abs="451102.474723" HC_abs="77.163565" PMx_abs="8.714065" NOx_abs="189.477421" fuel_abs="193.915085" electricity_abs="0"/>
    </tripinfo>
    <tripinfo id="carIn107084:1" depart="57601.00" departLane="124812856#0_1" departPos="5.10" departSpeed="0.00" departDelay="0.70" arrival="57806.00" arrivalLane="-128361102#1_1" arrivalPos="274.68" arrivalSpeed="13.67" duration="205.00" routeLength="2250.49" waitingTime="17.00" waitingCount="2" stopTime="0.00" timeLoss="42.70" rerouteNo="1" devices="tripinfo_carIn107084:1 routing_carIn107084:1 emissions_carIn107084:1" vType="default_016" speedFactor="1.02" vaporized="">
        <emissions CO_abs="7520.547764" CO2_abs="502501.469506" HC_abs="45.913681" PMx_abs="8.470977" NOx_abs="200.826795" fuel_abs="216.004519" electricity_abs="0"/>
    </tripinfo>
    <tripinfo id="h9563c2:5" depart="57631.00" departLane="315358244_1" departPos="5.10" departSpeed="0.00" departDelay="0.70" arrival="57806.00" arrivalLane="386687235_1" arrivalPos="80.84" arrivalSpeed="12.76" duration="175.00" routeLength="1186.14" waitingTime="54.00" waitingCount="2" stopTime="0.00" timeLoss="86.54" rerouteNo="1" devices="tripinfo_h9563c2:5 routing_h9563c2:5 emissions_h9563c2:5" vType="default_016" speedFactor="0.97" vaporized="">
        <emissions CO_abs="12366.268207" CO2_abs="443018.394146" HC_abs="66.718758" PMx_abs="8.697646" NOx_abs="187.241614" fuel_abs="190.438028" electricity_abs="0"/>
    </tripinfo>
    <tripinfo id="carIn107282:1" depart="57749.00" departLane="-447569998#1_1" departPos="5.10" departSpeed="0.00" departDelay="0.00" arrival="57809.00" arrivalLane="315358242#0_1" arrivalPos="165.37" arrivalSpeed="11.90" duration="60.00" routeLength="448.50" waitingTime="2.00" waitingCount="1" stopTime="0.00" timeLoss="11.70" rerouteNo="1" devices="tripinfo_carIn107282:1 routing_carIn107282:1 emissions_carIn107282:1" vType="default_016" speedFactor="0.87" vaporized="">
        <emissions CO_abs="2434.606621" CO2_abs="123072.483806" HC_abs="13.917845" PMx_abs="1.969644" NOx_abs="49.411703" fuel_abs="52.904330" electricity_abs="0"/>
    </tripinfo>
    <tripinfo id="carIn50326:1" depart="57651.00" departLane="128361102#0_1" departPos="5.10" departSpeed="0.00" departDelay="0.30" arrival="57812.00" arrivalLane="18809673#0_1" arrivalPos="473.56" arrivalSpeed="15.48" duration="161.00" routeLength="1591.07" waitingTime="19.00" waitingCount="2" stopTime="0.00" timeLoss="50.95" rerouteNo="1" devices="tripinfo_carIn50326:1 routing_carIn50326:1 emissions_carIn50326:1" vType="default_016" speedFactor="1.18" vaporized="">
        <emissions CO_abs="7436.210134" CO2_abs="428829.658134" HC_abs="43.893758" PMx_abs="7.666899" NOx_abs="174.327016" fuel_abs="184.336261" electricity_abs="0"/>
    </tripinfo>
    <tripinfo id="h7181c1:1" depart="57660.00" departLane="315358254#0_1" departPos="5.10" departSpeed="0.00" departDelay="0.10" arrival="57812.00" arrivalLane="306240162#0_0" arrivalPos="220.43" arrivalSpeed="14.10" duration="152.00" routeLength="932.35" waitingTime="73.00" waitingCount="2" stopTime="0.00" timeLoss="96.58" rerouteNo="1" devices="tripinfo_h7181c1:1 routing_h7181c1:1 emissions_h7181c1:1" vType="default_016" speedFactor="0.92" vaporized="">
        <emissions CO_abs="14928.400137" CO2_abs="458125.611611" HC_abs="78.778176" PMx_abs="9.817788" NOx_abs="197.651517" fuel_abs="196.932784" electricity_abs="0"/>
    </tripinfo>
    <tripinfo id="carIn118591:1" depart="57689.00" departLane="315358244_1" departPos="5.10" departSpeed="0.00" departDelay="0.20" arrival="57816.00" arrivalLane="386687235_1" arrivalPos="80.84" arrivalSpeed="15.40" duration="127.00" routeLength="1186.14" waitingTime="31.00" waitingCount="2" stopTime="0.00" timeLoss="50.35" rerouteNo="1" devices="tripinfo_carIn118591:1 routing_carIn118591:1 emissions_carIn118591:1" vType="default_016" speedFactor="1.12" vaporized="">
        <emissions CO_abs="7883.685082" CO2_abs="366540.907070" HC_abs="44.395804" PMx_abs="6.890809" NOx_abs="151.097002" fuel_abs="157.561667" electricity_abs="0"/>
    </tripinfo>
    <tripinfo id="h3154c1:1" depart="57658.00" departLane="24634507_1" departPos="5.10" departSpeed="0.00" departDelay="0.00" arrival="57817.00" arrivalLane="-266565295#5_1" arrivalPos="172.76" arrivalSpeed="12.19" duration="159.00" routeLength="1206.22" waitingTime="47.00" waitingCount="1" stopTime="0.00" timeLoss="61.68" rerouteNo="1" devices="tripinfo_h3154c1:1 routing_h3154c1:1 emissions_h3154c1:1" vType="default_016" speedFactor="0.92" vaporized="">
        <emissions CO_abs="10777.869173" CO2_abs="376681.884515" HC_abs="57.868402" PMx_abs="7.085204" NOx_abs="156.611046" fuel_abs="161.923056" electricity_abs="0"/>
    </tripinfo>
    <tripinfo id="carIn81860:1" depart="57712.00" departLane="128361102#0_1" departPos="5.10" departSpeed="0.00" departDelay="0.60" arrival="57821.00" arrivalLane="-24634517#17_1" arrivalPos="6.43" arrivalSpeed="6.79" duration="109.00" routeLength="1229.64" waitingTime="1.00" waitingCount="1" stopTime="0.00" timeLoss="18.83" rerouteNo="1" devices="tripinfo_carIn81860:1 routing_carIn81860:1 emissions_carIn81860:1" vType="default_016" speedFactor="1.00" vaporized="">
        <emissions CO_abs="3579.597890" CO2_abs="266585.264028" HC_abs="22.532307" PMx_abs="4.365495" NOx_abs="105.842391" fuel_abs="114.593780" electricity_abs="0"/>
    </tripinfo>
    <tripinfo id="h16072c2:3" depart="57663.00" departLane="315358254#0_1" departPos="5.10" departSpeed="0.00" departDelay="2.50" arrival="57824.00" arrivalLane="386687235_1" arrivalPos="80.84" arrivalSpeed="13.57" duration="161.00" routeLength="1611.92" waitingTime="34.00" waitingCount="1" stopTime="0.00" timeLoss="50.30" rerouteNo="1" devices="tripinfo_h16072c2:3 routing_h16072c2:3 emissions_h16072c2:3" vType="default_016" speedFactor="1.06" vaporized="">
        <emissions CO_abs="8822.214738" CO2_abs="403820.623613" HC_abs="49.625063" PMx_abs="7.437305" NOx_abs="165.304722" fuel_abs="173.587159" electricity_abs="0"/>
    </tripinfo>
    <tripinfo id="h9953c2:3" depart="57682.00" departLane="-54169231#2_1" departPos="5.10" departSpeed="0.00" departDelay="0.00" arrival="57825.00" arrivalLane="386687235_2" arrivalPos="80.84" arrivalSpeed="14.74" duration="143.00" routeLength="1535.60" waitingTime="5.00" waitingCount="1" stopTime="0.00" timeLoss="27.52" rerouteNo="1" devices="tripinfo_h9953c2:3 routing_h9953c2:3 emissions_h9953c2:3" vType="default_016" speedFactor="1.09" vaporized="">
        <emissions CO_abs="5426.541039" CO2_abs="378881.885627" HC_abs="33.484431" PMx_abs="6.460888" NOx_abs="152.440600" fuel_abs="162.865208" electricity_abs="0"/>
    </tripinfo>
    <tripinfo id="carIn129809:1" depart="57729.00" departLane="-447569998#1_1" departPos="5.10" departSpeed="0.00" departDelay="1.00" arrival="57826.00" arrivalLane="-315358244_1" arrivalPos="33.95" arrivalSpeed="14.36" duration="97.00" routeLength="706.49" waitingTime="26.00" waitingCount="1" stopTime="0.00" timeLoss="38.86" rerouteNo="1" devices="tripinfo_carIn129809:1 routing_carIn129809:1 emissions_carIn129809:1" vType="default_015" speedFactor="1.04" vaporized="">
        <emissions CO_abs="5999.100773" CO2_abs="215295.864764" HC_abs="32.357730" PMx_abs="4.120154" NOx_abs="90.133862" fuel_abs="92.548293" electricity_abs="0"/>
    </tripinfo>
    <tripinfo id="h11737c1:1" depart="57665.00" departLane="272042143_1" departPos="5.10" departSpeed="0.00" departDelay="1.50" arrival="57832.00" arrivalLane="-315358254#1_1" arrivalPos="137.16" arrivalSpeed="11.80" duration="167.00" routeLength="1596.88" waitingTime="17.00" waitingCount="1" stopTime="0.00" timeLoss="34.85" rerouteNo="1" devices="tripinfo_h11737c1:1 routing_h11737c1:1 emissions_h11737c1:1" vType="default_016" speedFactor="0.88" vaporized="">
        <emissions CO_abs="6222.276278" CO2_abs="348753.625046" HC_abs="36.425994" PMx_abs="5.707438" NOx_abs="139.303118" fuel_abs="149.915731" electricity_abs="0"/>
    </tripinfo>
    <tripinfo id="carIn77943:1" depart="57608.00" departLane="124812856#0_1" departPos="5.10" departSpeed="0.00" departDelay="2.50" arrival="57833.00" arrivalLane="-128361102#1_1" arrivalPos="274.68" arrivalSpeed="14.98" duration="225.00" routeLength="2250.49" waitingTime="16.00" waitingCount="2" stopTime="0.00" timeLoss="79.89" rerouteNo="1" devices="tripinfo_carIn77943:1 routing_carIn77943:1 emissions_carIn77943:1" vType="default_016" speedFactor="1.14" vaporized="">
        <emissions CO_abs="9988.237768" CO2_abs="623752.765810" HC_abs="60.122688" PMx_abs="11.250358" NOx_abs="255.942193" fuel_abs="268.124666" electricity_abs="0"/>
    </tripinfo>
    <tripinfo id="carIn126288:1" depart="57674.00" departLane="272042143_1" departPos="5.10" departSpeed="0.00" departDelay="0.00" arrival="57833.00" arrivalLane="-315358254#1_1" arrivalPos="137.16" arrivalSpeed="13.51" duration="159.00" routeLength="1596.88" waitingTime="15.00" waitingCount="1" stopTime="0.00" timeLoss="47.15" rerouteNo="1" devices="tripinfo_carIn126288:1 routing_carIn126288:1 emissions_carIn126288:1" vType="default_016" speedFactor="1.04" vaporized="">
        <emissions CO_abs="6633.155296" CO2_abs="388669.196872" HC_abs="39.334988" PMx_abs="6.931891" NOx_abs="158.954292" fuel_abs="167.072762" electricity_abs="0"/>
    </tripinfo>
    <tripinfo id="h19804c1:3" depart="57616.00" departLane="124812856#0_1" departPos="5.10" departSpeed="0.00" departDelay="0.50" arrival="57839.00" arrivalLane="-128361102#1_1" arrivalPos="274.68" arrivalSpeed="13.39" duration="223.00" routeLength="2250.49" waitingTime="11.00" waitingCount="2" stopTime="0.00" timeLoss="53.04" rerouteNo="1" devices="tripinfo_h19804c1:3 routing_h19804c1:3 emissions_h19804c1:3" vType="default_016" speedFactor="0.97" vaporized="">
        <emissions CO_abs="9367.489675" CO2_abs="599005.467314" HC_abs="56.698641" PMx_abs="10.448729" NOx_abs="243.666149" fuel_abs="257.487202" electricity_abs="0"/>
    </tripinfo>
    <tripinfo id="carIn8642:1" depart="57774.00" departLane="-447569998#1_1" departPos="5.10" departSpeed="0.00" departDelay="0.90" arrival="57840.00" arrivalLane="-315358244_1" arrivalPos="33.95" arrivalSpeed="15.58" duration="66.00" routeLength="706.49" waitingTime="3.00" waitingCount="1" stopTime="0.00" timeLoss="13.76" rerouteNo="1" devices="tripinfo_carIn8642:1 routing_carIn8642:1 emissions_carIn8642:1" vType="default_016" speedFactor="1.15" vaporized="">
        <emissions CO_abs="2354.436366" CO2_abs="159813.586215" HC_abs="14.382743" PMx_abs="2.729631" NOx_abs="64.020064" fuel_abs="68.697137" electricity_abs="0"/>
    </tripinfo>
    <tripinfo id="carIn81046:1" depart="57610.00" departLane="124812856#0_1" departPos="5.10" departSpeed="0.00" departDelay="1.50" arrival="57841.00" arrivalLane="-128361102#1_1" arrivalPos="274.68" arrivalSpeed="14.56" duration="231.00" routeLength="2250.49" waitingTime="25.00" waitingCount="2" stopTime="0.00" timeLoss="76.81" rerouteNo="1" devices="tripinfo_carIn81046:1 routing_carIn81046:1 emissions_carIn81046:1" vType="default_016" speedFactor="1.07" vaporized="">
        <emissions CO_abs="11021.113735" CO2_abs="615329.881619" HC_abs="64.538828" PMx_abs="11.071074" NOx_abs="251.964632" fuel_abs="264.505095" electricity_abs="0"/>
    </tripinfo>
    <tripinfo id="carIn86816:1" depart="57617.00" departLane="128361102#0_1" departPos="5.10" departSpeed="0.00" departDelay="0.80" arrival="57852.00" arrivalLane="201956811#0_1" arrivalPos="40.40" arrivalSpeed="11.51" duration="235.00" routeLength="2067.33" waitingTime="43.00" waitingCount="2" stopTime="0.00" timeLoss="69.32" rerouteNo="1" devices="tripinfo_carIn86816:1 routing_carIn86816:1 emissions_carIn86816:1" vType="default_016" speedFactor="0.91" vaporized="">
        <emissions CO_abs="12051.533934" CO2_abs="544252.351313" HC_abs="67.547278" PMx_abs="9.493866" NOx_abs="221.213684" fuel_abs="233.954196" electricity_abs="0"/>
    </tripinfo>
    <tripinfo id="randUni31145:1" depart="57814.00" departLane="10425609#0_1" departPos="5.10" departSpeed="0.00" departDelay="0.30" arrival="57852.00" arrivalLane="201956810_1" arrivalPos="71.65" arrivalSpeed="17.08" duration="38.00" routeLength="255.78" waitingTime="11.00" waitingCount="1" stopTime="0.00" timeLoss="21.94" rerouteNo="1" devices="tripinfo_randUni31145:1 routing_randUni31145:1 emissions_randUni31145:1" vType="random_016" speedFactor="1.29" vaporized="">
        <emissions CO_abs="3758.625464" CO2_abs="156886.950857" HC_abs="20.869596" PMx_abs="3.347772" NOx_abs="68.175247" fuel_abs="67.439229" electricity_abs="0"/>
    </tripinfo>
    <tripinfo id="carIn46110:1" depart="57684.00" departLane="315358244_1" departPos="5.10" departSpeed="0.00" departDelay="1.20" arrival="57853.00" arrivalLane="32978638#0_1" arrivalPos="49.29" arrivalSpeed="12.86" duration="169.00" routeLength="1764.04" waitingTime="9.00" waitingCount="3" stopTime="0.00" timeLoss="42.31" rerouteNo="1" devices="tripinfo_carIn46110:1 routing_carIn46110:1 emissions_carIn46110:1" vType="default_016" speedFactor="1.01" vaporized="">
        <emissions CO_abs="6251.819824" CO2_abs="405578.453225" HC_abs="37.875375" PMx_abs="6.996252" NOx_abs="163.730519" fuel_abs="174.341182" electricity_abs="0"/>
    </tripinfo>
    <tripinfo id="carIn102915:1" depart="57643.00" departLane="128361102#0_1" departPos="5.10" departSpeed="0.00" departDelay="0.40" arrival="57854.00" arrivalLane="201956811#0_1" arrivalPos="40.40" arrivalSpeed="11.79" duration="211.00" routeLength="2067.33" waitingTime="14.00" waitingCount="2" stopTime="0.00" timeLoss="41.82" rerouteNo="1" devices="tripinfo_carIn102915:1 routing_carIn102915:1 emissions_carIn102915:1" vType="default_016" speedFactor="0.90" vaporized="">
        <emissions CO_abs="7799.251738" CO2_abs="473974.523256" HC_abs="46.515201" PMx_abs="7.667139" NOx_abs="188.750603" fuel_abs="203.742939" electricity_abs="0"/>
    </tripinfo>
    <tripinfo id="h6541c1:3" depart="57727.00" departLane="201950247#3_1" departPos="5.10" departSpeed="0.00" departDelay="0.00" arrival="57855.00" arrivalLane="32978638#0_1" arrivalPos="49.29" arrivalSpeed="14.91" duration="128.00" routeLength="1176.17" waitingTime="4.00" waitingCount="1" stopTime="0.00" timeLoss="39.67" rerouteNo="1" devices="tripinfo_h6541c1:3 routing_h6541c1:3 emissions_h6541c1:3" vType="default_016" speedFactor="1.16" vaporized="">
        <emissions CO_abs="6187.994062" CO2_abs="354037.255371" HC_abs="36.462496" PMx_abs="6.400074" NOx_abs="145.857052" fuel_abs="152.185861" electricity_abs="0"/>
    </tripinfo>
    <tripinfo id="randUni33724:1" depart="57646.00" departLane="128361102#0_1" departPos="5.10" departSpeed="0.00" departDelay="1.20" arrival="57856.00" arrivalLane="201956811#0_1" arrivalPos="40.40" arrivalSpeed="14.39" duration="210.00" routeLength="2067.33" waitingTime="13.00" waitingCount="1" stopTime="0.00" timeLoss="76.14" rerouteNo="1" devices="tripinfo_randUni33724:1 routing_randUni33724:1 emissions_randUni33724:1" vType="random_016" speedFactor="1.13" vaporized="">
        <emissions CO_abs="9326.409046" CO2_abs="561282.186135" HC_abs="55.633934" PMx_abs="9.844812" NOx_abs="228.898171" fuel_abs="241.271920" electricity_abs="0"/>
    </tripinfo>
    <tripinfo id="randUni2407:1" depart="57820.00" departLane="10425609#0_1" departPos="5.10" departSpeed="0.00" departDelay="0.80" arrival="57856.00" arrivalLane="201956810_1" arrivalPos="71.65" arrivalSpeed="13.13" duration="36.00" routeLength="255.78" waitingTime="5.00" waitingCount="1" stopTime="0.00" timeLoss="16.37" rerouteNo="1" devices="tripinfo_randUni2407:1 routing_randUni2407:1 emissions_randUni2407:1" vType="random_016" speedFactor="1.03" vaporized="">
        <emissions CO_abs="2495.295489" CO2_abs="110119.746582" HC_abs="13.949327" PMx_abs="2.198564" NOx_abs="47.046145" fuel_abs="47.336024" electricity_abs="0"/>
    </tripinfo>