<?xml version="1.0" encoding="UTF-8"?>

<!-- generated on 2021-10-26 18:19:49 by Eclipse SUMO sumo Version 1.10.0
<configuration xmlns:xsi="http://www.w3.org/2001/XMLSchema-instance" xsi:noNamespaceSchemaLocation="http://sumo.dlr.de/xsd/sumoConfiguration.xsd">

    <input>
        <net-file value="/Users/behradkoohy/sumo-scratchpad/RESCO/environments/ingolstadt21/ingolstadt21.net.xml"/>
        <route-files value="/Users/behradkoohy/sumo-scratchpad/RESCO/environments/ingolstadt21/ingolstadt21.rou.xml"/>
    </input>

    <output>
        <tripinfo-output value="/Users/behradkoohy/sumo-scratchpad/RESCO/logs/IPPO-tr0-ingolstadt21-21-drq_norm-wait_norm/tripinfo_60.xml"/>
        <tripinfo-output.write-unfinished value="true"/>
    </output>

    <time>
        <begin value="57600"/>
        <end value="61200"/>
    </time>

    <processing>
        <time-to-teleport value="-1"/>
    </processing>

    <report>
        <no-warnings value="true"/>
        <no-step-log value="true"/>
    </report>

    <emissions>
        <device.emissions.probability value="1"/>
    </emissions>

    <traci_server>
        <remote-port value="62270"/>
    </traci_server>

    <random_number>
        <random value="true"/>
    </random_number>

</configuration>
-->

<tripinfos xmlns:xsi="http://www.w3.org/2001/XMLSchema-instance" xsi:noNamespaceSchemaLocation="http://sumo.dlr.de/xsd/tripinfo_file.xsd">
    <tripinfo id="h15454c2:3" depart="57612.00" departLane="24608844_1" departPos="5.10" departSpeed="0.00" departDelay="0.50" arrival="57676.00" arrivalLane="32978638#0_1" arrivalPos="49.29" arrivalSpeed="16.06" duration="64.00" routeLength="354.79" waitingTime="25.00" waitingCount="1" stopTime="0.00" timeLoss="35.69" rerouteNo="1" devices="tripinfo_h15454c2:3 routing_h15454c2:3 emissions_h15454c2:3" vType="default_016" speedFactor="1.20" vaporized="">
        <emissions CO_abs="5501.878545" CO2_abs="175721.702886" HC_abs="29.188147" PMx_abs="3.593489" NOx_abs="75.380473" fuel_abs="75.536853" electricity_abs="0"/>
    </tripinfo>
    <tripinfo id="carIn60260:1" depart="57606.00" departLane="315358254#0_1" departPos="5.10" departSpeed="0.00" departDelay="0.90" arrival="57678.00" arrivalLane="399835085#1_1" arrivalPos="212.23" arrivalSpeed="7.17" duration="72.00" routeLength="430.98" waitingTime="10.00" waitingCount="1" stopTime="0.00" timeLoss="20.61" rerouteNo="1" devices="tripinfo_carIn60260:1 routing_carIn60260:1 emissions_carIn60260:1" vType="default_016" speedFactor="0.90" vaporized="">
        <emissions CO_abs="3259.940374" CO2_abs="131806.074792" HC_abs="17.877766" PMx_abs="2.236967" NOx_abs="53.996354" fuel_abs="56.658916" electricity_abs="0"/>
    </tripinfo>
    <tripinfo id="carIn53971:1" depart="57640.00" departLane="272042143_1" departPos="5.10" departSpeed="0.00" departDelay="0.80" arrival="57700.00" arrivalLane="24634414#1_1" arrivalPos="162.19" arrivalSpeed="7.26" duration="60.00" routeLength="493.04" waitingTime="0.00" waitingCount="0" stopTime="0.00" timeLoss="7.90" rerouteNo="1" devices="tripinfo_carIn53971:1 routing_carIn53971:1 emissions_carIn53971:1" vType="default_016" speedFactor="0.87" vaporized="">
        <emissions CO_abs="2543.520553" CO2_abs="130436.642667" HC_abs="14.594887" PMx_abs="2.147731" NOx_abs="52.829652" fuel_abs="56.069779" electricity_abs="0"/>
    </tripinfo>
    <tripinfo id="carIn22761:1" depart="57616.00" departLane="-306240162#1_0" departPos="5.10" departSpeed="0.00" departDelay="2.10" arrival="57704.00" arrivalLane="399835085#1_1" arrivalPos="212.23" arrivalSpeed="6.31" duration="88.00" routeLength="1093.26" waitingTime="0.00" waitingCount="0" stopTime="0.00" timeLoss="13.66" rerouteNo="1" devices="tripinfo_carIn22761:1 routing_carIn22761:1 emissions_carIn22761:1" vType="default_016" speedFactor="1.04" vaporized="">
        <emissions CO_abs="4245.700346" CO2_abs="277474.484949" HC_abs="25.942749" PMx_abs="5.195234" NOx_abs="113.280106" fuel_abs="119.274160" electricity_abs="0"/>
    </tripinfo>
    <tripinfo id="h7800c1:5" depart="57696.00" departLane="-447569998#1_1" departPos="5.10" departSpeed="0.00" departDelay="0.00" arrival="57720.00" arrivalLane="-447569998#1_1" arrivalPos="180.76" arrivalSpeed="8.02" duration="24.00" routeLength="175.66" waitingTime="0.00" waitingCount="0" stopTime="0.00" timeLoss="3.17" rerouteNo="1" devices="tripinfo_h7800c1:5 routing_h7800c1:5 emissions_h7800c1:5" vType="default_016" speedFactor="1.03" vaporized="">
        <emissions CO_abs="960.646497" CO2_abs="42006.829102" HC_abs="5.338536" PMx_abs="0.691331" NOx_abs="17.123441" fuel_abs="18.057257" electricity_abs="0"/>
    </tripinfo>
    <tripinfo id="h3688c1:1" depart="57625.00" departLane="201201950#1_1" departPos="5.10" departSpeed="0.00" departDelay="0.00" arrival="57728.00" arrivalLane="32978638#0_1" arrivalPos="49.29" arrivalSpeed="11.61" duration="103.00" routeLength="1089.75" waitingTime="0.00" waitingCount="0" stopTime="0.00" timeLoss="10.20" rerouteNo="1" devices="tripinfo_h3688c1:1 routing_h3688c1:1 emissions_h3688c1:1" vType="default_016" speedFactor="0.87" vaporized="">
        <emissions CO_abs="3065.324299" CO2_abs="225520.542636" HC_abs="19.181082" PMx_abs="3.493118" NOx_abs="88.888956" fuel_abs="96.942055" electricity_abs="0"/>
    </tripinfo>
    <tripinfo id="h3568c1:3" depart="57656.00" departLane="266565295#5_1" departPos="5.10" departSpeed="0.00" departDelay="0.80" arrival="57742.00" arrivalLane="-24634415_1" arrivalPos="62.03" arrivalSpeed="15.35" duration="86.00" routeLength="807.40" waitingTime="4.00" waitingCount="2" stopTime="0.00" timeLoss="29.77" rerouteNo="1" devices="tripinfo_h3568c1:3 routing_h3568c1:3 emissions_h3568c1:3" vType="default_016" speedFactor="1.14" vaporized="">
        <emissions CO_abs="5162.001973" CO2_abs="294014.713109" HC_abs="30.434177" PMx_abs="5.672065" NOx_abs="123.574515" fuel_abs="126.384128" electricity_abs="0"/>
    </tripinfo>
    <tripinfo id="h317c2:1" depart="57707.00" departLane="-32978638#0_1" departPos="5.10" departSpeed="0.00" departDelay="0.10" arrival="57742.00" arrivalLane="-266565295#5_1" arrivalPos="172.76" arrivalSpeed="13.19" duration="35.00" routeLength="370.53" waitingTime="0.00" waitingCount="0" stopTime="0.00" timeLoss="6.67" rerouteNo="1" devices="tripinfo_h317c2:1 routing_h317c2:1 emissions_h317c2:1" vType="default_016" speedFactor="0.99" vaporized="">
        <emissions CO_abs="1602.564835" CO2_abs="96987.022300" HC_abs="9.579817" PMx_abs="1.752953" NOx_abs="39.945044" fuel_abs="41.690603" electricity_abs="0"/>
    </tripinfo>
    <tripinfo id="h4538c1:1" depart="57701.00" departLane="-10427692#1_1" departPos="5.10" departSpeed="0.00" departDelay="0.00" arrival="57747.00" arrivalLane="-128361102#1_1" arrivalPos="274.68" arrivalSpeed="13.54" duration="46.00" routeLength="440.74" waitingTime="3.00" waitingCount="1" stopTime="0.00" timeLoss="13.47" rerouteNo="1" devices="tripinfo_h4538c1:1 routing_h4538c1:1 emissions_h4538c1:1" vType="default_016" speedFactor="0.99" vaporized="">
        <emissions CO_abs="1867.603093" CO2_abs="109006.757177" HC_abs="11.057035" PMx_abs="1.897537" NOx_abs="44.333834" fuel_abs="46.857554" electricity_abs="0"/>
    </tripinfo>
    <tripinfo id="h12244c1:3" depart="57612.00" departLane="315358244_1" departPos="5.10" departSpeed="0.00" departDelay="0.40" arrival="57754.00" arrivalLane="386687235_1" arrivalPos="80.84" arrivalSpeed="12.91" duration="142.00" routeLength="1186.14" waitingTime="33.00" waitingCount="2" stopTime="0.00" timeLoss="53.87" rerouteNo="1" devices="tripinfo_h12244c1:3 routing_h12244c1:3 emissions_h12244c1:3" vType="default_016" speedFactor="0.98" vaporized="">
        <emissions CO_abs="7679.106969" CO2_abs="324404.938711" HC_abs="42.486064" PMx_abs="5.873536" NOx_abs="132.977931" fuel_abs="139.449939" electricity_abs="0"/>
    </tripinfo>
    <tripinfo id="S5R_frequency1.2" depart="57624.00" departLane="315358250#0_1" departPos="12.10" departSpeed="0.00" departDelay="12.40" arrival="57758.00" arrivalLane="386687235_1" arrivalPos="80.84" arrivalSpeed="13.41" duration="134.00" routeLength="1115.62" waitingTime="19.00" waitingCount="2" stopTime="0.00" timeLoss="52.79" rerouteNo="1" devices="tripinfo_S5R_frequency1.2 routing_S5R_frequency1.2 emissions_S5R_frequency1.2" vType="bus" speedFactor="1.00" vaporized="">
        <emissions CO_abs="2724.716264" CO2_abs="1607160.104719" HC_abs="572.609969" PMx_abs="289.324855" NOx_abs="12751.376846" fuel_abs="685.394103" electricity_abs="0"/>
    </tripinfo>
    <tripinfo id="h3326c1:2" depart="57656.00" departLane="22716069#0_1" departPos="5.10" departSpeed="0.00" departDelay="0.00" arrival="57759.00" arrivalLane="24634517#13_1" arrivalPos="111.62" arrivalSpeed="15.04" duration="103.00" routeLength="1312.81" waitingTime="0.00" waitingCount="0" stopTime="0.00" timeLoss="15.07" rerouteNo="1" devices="tripinfo_h3326c1:2 routing_h3326c1:2 emissions_h3326c1:2" vType="default_016" speedFactor="1.10" vaporized="">
        <emissions CO_abs="3912.056102" CO2_abs="305346.348854" HC_abs="24.916455" PMx_abs="5.336416" NOx_abs="123.040960" fuel_abs="131.254880" electricity_abs="0"/>
    </tripinfo>
    <tripinfo id="carIn27009:1" depart="57673.00" departLane="-447569998#1_1" departPos="5.10" departSpeed="0.00" departDelay="0.50" arrival="57764.00" arrivalLane="-26677539_1" arrivalPos="152.75" arrivalSpeed="8.20" duration="91.00" routeLength="699.63" waitingTime="0.00" waitingCount="0" stopTime="0.00" timeLoss="11.09" rerouteNo="1" devices="tripinfo_carIn27009:1 routing_carIn27009:1 emissions_carIn27009:1" vType="default_015" speedFactor="1.05" vaporized="">
        <emissions CO_abs="3445.659281" CO2_abs="170633.272166" HC_abs="19.588342" PMx_abs="2.630989" NOx_abs="68.277785" fuel_abs="73.349131" electricity_abs="0"/>
    </tripinfo>
    <tripinfo id="carIn80064:1" depart="57603.00" departLane="128361109#1_1" departPos="5.10" departSpeed="0.00" departDelay="0.40" arrival="57770.00" arrivalLane="-315358254#1_1" arrivalPos="137.16" arrivalSpeed="11.06" duration="167.00" routeLength="1587.97" waitingTime="26.00" waitingCount="2" stopTime="0.00" timeLoss="64.43" rerouteNo="1" devices="tripinfo_carIn80064:1 routing_carIn80064:1 emissions_carIn80064:1" vType="default_016" speedFactor="0.87" vaporized="">
        <emissions CO_abs="9206.921740" CO2_abs="497027.562934" HC_abs="53.618809" PMx_abs="9.315001" NOx_abs="204.393372" fuel_abs="213.651632" electricity_abs="0"/>
    </tripinfo>
    <tripinfo id="h330c1:1" depart="57736.00" departLane="-32978638#0_1" departPos="5.10" departSpeed="0.00" departDelay="0.20" arrival="57772.00" arrivalLane="-266565295#5_1" arrivalPos="172.76" arrivalSpeed="12.24" duration="36.00" routeLength="370.53" waitingTime="0.00" waitingCount="0" stopTime="0.00" timeLoss="5.20" rerouteNo="1" devices="tripinfo_h330c1:1 routing_h330c1:1 emissions_h330c1:1" vType="default_016" speedFactor="0.88" vaporized="">
        <emissions CO_abs="1585.155188" CO2_abs="102555.509431" HC_abs="9.616220" PMx_abs="1.749599" NOx_abs="41.611205" fuel_abs="44.084320" electricity_abs="0"/>
    </tripinfo>
    <tripinfo id="carIn30817:1" depart="57681.00" departLane="315358244_1" departPos="5.10" departSpeed="0.00" departDelay="0.20" arrival="57774.00" arrivalLane="447569997#1_1" arrivalPos="180.93" arrivalSpeed="6.76" duration="93.00" routeLength="718.04" waitingTime="12.00" waitingCount="1" stopTime="0.00" timeLoss="24.50" rerouteNo="1" devices="tripinfo_carIn30817:1 routing_carIn30817:1 emissions_carIn30817:1" vType="default_016" speedFactor="0.91" vaporized="">
        <emissions CO_abs="3805.485648" CO2_abs="177867.349849" HC_abs="21.424993" PMx_abs="2.881000" NOx_abs="71.224881" fuel_abs="76.458861" electricity_abs="0"/>
    </tripinfo>
    <tripinfo id="carIn107282:1" depart="57749.00" departLane="-447569998#1_1" departPos="5.10" departSpeed="0.00" departDelay="0.00" arrival="57792.00" arrivalLane="315358242#0_1" arrivalPos="165.37" arrivalSpeed="14.03" duration="43.00" routeLength="448.50" waitingTime="0.00" waitingCount="0" stopTime="0.00" timeLoss="5.07" rerouteNo="1" devices="tripinfo_carIn107282:1 routing_carIn107282:1 emissions_carIn107282:1" vType="default_016" speedFactor="1.09" vaporized="">
        <emissions CO_abs="1876.642309" CO2_abs="116117.556316" HC_abs="11.258272" PMx_abs="1.971115" NOx_abs="46.915982" fuel_abs="49.914175" electricity_abs="0"/>
    </tripinfo>
    <tripinfo id="h3154c1:1" depart="57658.00" departLane="24634507_1" departPos="5.10" departSpeed="0.00" departDelay="0.00" arrival="57798.00" arrivalLane="-266565295#5_1" arrivalPos="172.76" arrivalSpeed="13.23" duration="140.00" routeLength="1206.22" waitingTime="23.00" waitingCount="2" stopTime="0.00" timeLoss="47.10" rerouteNo="1" devices="tripinfo_h3154c1:1 routing_h3154c1:1 emissions_h3154c1:1" vType="default_016" speedFactor="0.97" vaporized="">
        <emissions CO_abs="7360.566974" CO2_abs="360649.901755" HC_abs="41.938180" PMx_abs="6.466401" NOx_abs="147.807956" fuel_abs="155.029396" electricity_abs="0"/>
    </tripinfo>
    <tripinfo id="carIn86816:1" depart="57617.00" departLane="128361102#0_1" departPos="5.10" departSpeed="0.00" departDelay="0.80" arrival="57803.00" arrivalLane="201956811#0_1" arrivalPos="40.40" arrivalSpeed="15.56" duration="186.00" routeLength="2067.33" waitingTime="24.00" waitingCount="2" stopTime="0.00" timeLoss="56.76" rerouteNo="1" devices="tripinfo_carIn86816:1 routing_carIn86816:1 emissions_carIn86816:1" vType="default_016" speedFactor="1.17" vaporized="">
        <emissions CO_abs="9657.006822" CO2_abs="558104.383973" HC_abs="56.824745" PMx_abs="10.194923" NOx_abs="227.212912" fuel_abs="239.905869" electricity_abs="0"/>
    </tripinfo>
    <tripinfo id="h11737c1:1" depart="57665.00" departLane="272042143_1" departPos="5.10" departSpeed="0.00" departDelay="1.50" arrival="57806.00" arrivalLane="-315358254#1_1" arrivalPos="137.16" arrivalSpeed="15.50" duration="141.00" routeLength="1596.88" waitingTime="24.00" waitingCount="1" stopTime="0.00" timeLoss="41.80" rerouteNo="1" devices="tripinfo_h11737c1:1 routing_h11737c1:1 emissions_h11737c1:1" vType="default_016" speedFactor="1.18" vaporized="">
        <emissions CO_abs="7176.877530" CO2_abs="389137.241500" HC_abs="41.696372" PMx_abs="7.183136" NOx_abs="158.424463" fuel_abs="167.274245" electricity_abs="0"/>
    </tripinfo>
    <tripinfo id="carIn107084:1" depart="57601.00" departLane="124812856#0_1" departPos="5.10" departSpeed="0.00" departDelay="0.70" arrival="57807.00" arrivalLane="-128361102#1_1" arrivalPos="274.68" arrivalSpeed="12.84" duration="206.00" routeLength="2250.49" waitingTime="6.00" waitingCount="2" stopTime="0.00" timeLoss="36.08" rerouteNo="1" devices="tripinfo_carIn107084:1 routing_carIn107084:1 emissions_carIn107084:1" vType="default_016" speedFactor="0.97" vaporized="">
        <emissions CO_abs="6670.799219" CO2_abs="482139.173128" HC_abs="41.668931" PMx_abs="8.095794" NOx_abs="193.469933" fuel_abs="207.251112" electricity_abs="0"/>
    </tripinfo>
    <tripinfo id="h9563c2:5" depart="57631.00" departLane="315358244_1" departPos="5.10" departSpeed="0.00" departDelay="0.70" arrival="57807.00" arrivalLane="386687235_1" arrivalPos="80.84" arrivalSpeed="12.19" duration="176.00" routeLength="1186.14" waitingTime="53.00" waitingCount="4" stopTime="0.00" timeLoss="78.27" rerouteNo="1" devices="tripinfo_h9563c2:5 routing_h9563c2:5 emissions_h9563c2:5" vType="default_016" speedFactor="0.88" vaporized="">
        <emissions CO_abs="11483.105419" CO2_abs="396355.483403" HC_abs="61.552106" PMx_abs="7.597129" NOx_abs="166.354003" fuel_abs="170.379922" electricity_abs="0"/>
    </tripinfo>
    <tripinfo id="carIn77943:1" depart="57607.00" departLane="124812856#0_1" departPos="5.10" departSpeed="0.00" departDelay="1.50" arrival="57809.00" arrivalLane="-128361102#1_1" arrivalPos="274.68" arrivalSpeed="13.97" duration="202.00" routeLength="2250.49" waitingTime="3.00" waitingCount="1" stopTime="0.00" timeLoss="47.29" rerouteNo="1" devices="tripinfo_carIn77943:1 routing_carIn77943:1 emissions_carIn77943:1" vType="default_016" speedFactor="1.06" vaporized="">
        <emissions CO_abs="7945.364198" CO2_abs="583684.166374" HC_abs="49.904840" PMx_abs="10.070821" NOx_abs="235.959040" fuel_abs="250.900459" electricity_abs="0"/>
    </tripinfo>
    <tripinfo id="carIn118591:1" depart="57689.00" departLane="315358244_1" departPos="5.10" departSpeed="0.00" departDelay="0.20" arrival="57809.00" arrivalLane="386687235_1" arrivalPos="80.84" arrivalSpeed="13.17" duration="120.00" routeLength="1186.14" waitingTime="12.00" waitingCount="2" stopTime="0.00" timeLoss="34.29" rerouteNo="1" devices="tripinfo_carIn118591:1 routing_carIn118591:1 emissions_carIn118591:1" vType="default_016" speedFactor="1.01" vaporized="">
        <emissions CO_abs="4787.443789" CO2_abs="282595.598124" HC_abs="28.417360" PMx_abs="5.028992" NOx_abs="115.380066" fuel_abs="121.476118" electricity_abs="0"/>
    </tripinfo>
    <tripinfo id="carIn81046:1" depart="57610.00" departLane="124812856#0_1" departPos="5.10" departSpeed="0.00" departDelay="1.50" arrival="57810.00" arrivalLane="-128361102#1_1" arrivalPos="274.68" arrivalSpeed="14.52" duration="200.00" routeLength="2250.49" waitingTime="2.00" waitingCount="1" stopTime="0.00" timeLoss="43.02" rerouteNo="1" devices="tripinfo_carIn81046:1 routing_carIn81046:1 emissions_carIn81046:1" vType="default_016" speedFactor="1.05" vaporized="">
        <emissions CO_abs="7604.449331" CO2_abs="561602.746862" HC_abs="47.848121" PMx_abs="9.741459" NOx_abs="227.279493" fuel_abs="241.408513" electricity_abs="0"/>
    </tripinfo>
    <tripinfo id="h7181c1:1" depart="57660.00" departLane="315358254#0_1" departPos="5.10" departSpeed="0.00" departDelay="0.10" arrival="57810.00" arrivalLane="306240162#0_0" arrivalPos="220.43" arrivalSpeed="17.10" duration="150.00" routeLength="932.35" waitingTime="71.00" waitingCount="3" stopTime="0.00" timeLoss="101.37" rerouteNo="1" devices="tripinfo_h7181c1:1 routing_h7181c1:1 emissions_h7181c1:1" vType="default_016" speedFactor="1.06" vaporized="">
        <emissions CO_abs="15183.521129" CO2_abs="499385.048579" HC_abs="80.884457" PMx_abs="10.821409" NOx_abs="215.687880" fuel_abs="214.667751" electricity_abs="0"/>
    </tripinfo>
    <tripinfo id="carIn12365:1" depart="57713.00" departLane="315358244_1" departPos="5.10" departSpeed="0.00" departDelay="0.50" arrival="57812.00" arrivalLane="447569997#1_1" arrivalPos="180.93" arrivalSpeed="6.76" duration="99.00" routeLength="718.04" waitingTime="17.00" waitingCount="1" stopTime="0.00" timeLoss="34.19" rerouteNo="1" devices="tripinfo_carIn12365:1 routing_carIn12365:1 emissions_carIn12365:1" vType="default_016" speedFactor="0.95" vaporized="">
        <emissions CO_abs="4851.596566" CO2_abs="209886.985642" HC_abs="26.979064" PMx_abs="3.732750" NOx_abs="86.206303" fuel_abs="90.222765" electricity_abs="0"/>
    </tripinfo>
    <tripinfo id="h645c1:1" depart="57622.00" departLane="266565295#5_1" departPos="5.10" departSpeed="0.00" departDelay="0.40" arrival="57813.00" arrivalLane="-315358244_2" arrivalPos="33.95" arrivalSpeed="14.67" duration="191.00" routeLength="1910.83" waitingTime="34.00" waitingCount="3" stopTime="0.00" timeLoss="60.76" rerouteNo="1" devices="tripinfo_h645c1:1 routing_h645c1:1 emissions_h645c1:1" vType="default_016" speedFactor="1.06" vaporized="">
        <emissions CO_abs="9465.195446" CO2_abs="489020.067706" HC_abs="54.427737" PMx_abs="8.812676" NOx_abs="199.046649" fuel_abs="210.210385" electricity_abs="0"/>
    </tripinfo>
    <tripinfo id="carIn121703:1" depart="57647.00" departLane="386687232#0_1" departPos="5.10" departSpeed="0.00" departDelay="0.30" arrival="57813.00" arrivalLane="-315358244_1" arrivalPos="33.95" arrivalSpeed="13.21" duration="166.00" routeLength="1157.39" waitingTime="60.00" waitingCount="3" stopTime="0.00" timeLoss="82.36" rerouteNo="1" devices="tripinfo_carIn121703:1 routing_carIn121703:1 emissions_carIn121703:1" vType="default_016" speedFactor="1.01" vaporized="">
        <emissions CO_abs="12075.157762" CO2_abs="413401.803116" HC_abs="64.675797" PMx_abs="8.113599" NOx_abs="173.939905" fuel_abs="177.707437" electricity_abs="0"/>
    </tripinfo>
    <tripinfo id="h5979c1:5" depart="57669.00" departLane="399835085#1_1" departPos="5.10" departSpeed="0.00" departDelay="0.00" arrival="57813.00" arrivalLane="-315358254#1_1" arrivalPos="137.16" arrivalSpeed="12.62" duration="144.00" routeLength="659.33" waitingTime="50.00" waitingCount="1" stopTime="0.00" timeLoss="64.13" rerouteNo="1" devices="tripinfo_h5979c1:5 routing_h5979c1:5 emissions_h5979c1:5" vType="default_016" speedFactor="0.92" vaporized="">
        <emissions CO_abs="11584.590940" CO2_abs="300677.027144" HC_abs="59.726322" PMx_abs="6.020721" NOx_abs="128.749880" fuel_abs="129.252937" electricity_abs="0"/>
    </tripinfo>
    <tripinfo id="carIn129809:1" depart="57729.00" departLane="-447569998#1_1" departPos="5.10" departSpeed="0.00" departDelay="1.00" arrival="57815.00" arrivalLane="-315358244_1" arrivalPos="33.95" arrivalSpeed="14.15" duration="86.00" routeLength="706.49" waitingTime="18.00" waitingCount="1" stopTime="0.00" timeLoss="30.52" rerouteNo="1" devices="tripinfo_carIn129809:1 routing_carIn129809:1 emissions_carIn129809:1" vType="default_015" speedFactor="1.09" vaporized="">
        <emissions CO_abs="4656.751628" CO2_abs="204675.489839" HC_abs="25.967168" PMx_abs="3.794375" NOx_abs="84.827183" fuel_abs="87.982250" electricity_abs="0"/>
    </tripinfo>
    <tripinfo id="h17600c1:1" depart="57662.00" departLane="272042143_1" departPos="5.10" departSpeed="0.00" departDelay="0.30" arrival="57828.00" arrivalLane="201238729#3_1" arrivalPos="431.02" arrivalSpeed="15.51" duration="166.00" routeLength="2100.26" waitingTime="14.00" waitingCount="1" stopTime="0.00" timeLoss="32.78" rerouteNo="1" devices="tripinfo_h17600c1:1 routing_h17600c1:1 emissions_h17600c1:1" vType="default_016" speedFactor="1.14" vaporized="">
        <emissions CO_abs="5899.712377" CO2_abs="422649.524942" HC_abs="36.543991" PMx_abs="7.191727" NOx_abs="167.222758" fuel_abs="181.679202" electricity_abs="0"/>
    </tripinfo>
    <tripinfo id="50R_frequency3.17" depart="57674.00" departLane="-18809673#6_1" departPos="12.10" departSpeed="0.00" departDelay="0.70" arrival="57836.00" arrivalLane="201956811#0_1" arrivalPos="40.40" arrivalSpeed="12.07" duration="162.00" routeLength="1954.47" waitingTime="0.00" waitingCount="0" stopTime="0.00" timeLoss="17.41" rerouteNo="1" devices="tripinfo_50R_frequency3.17 routing_50R_frequency3.17 emissions_50R_frequency3.17" vType="bus" speedFactor="1.00" vaporized="">
        <emissions CO_abs="2936.795967" CO2_abs="1882553.155360" HC_abs="619.667244" PMx_abs="315.981017" NOx_abs="14488.400516" fuel_abs="802.905413" electricity_abs="0"/>
    </tripinfo>
    <tripinfo id="carIn12152:1" depart="57647.00" departLane="24599188#0.94_1" departPos="5.10" departSpeed="0.00" departDelay="0.50" arrival="57837.00" arrivalLane="-315358254#1_1" arrivalPos="137.16" arrivalSpeed="12.86" duration="190.00" routeLength="2034.31" waitingTime="14.00" waitingCount="1" stopTime="0.00" timeLoss="33.49" rerouteNo="1" devices="tripinfo_carIn12152:1 routing_carIn12152:1 emissions_carIn12152:1" vType="default_016" speedFactor="1.01" vaporized="">
        <emissions CO_abs="6222.772530" CO2_abs="413040.012075" HC_abs="37.840126" PMx_abs="6.489276" NOx_abs="161.624526" fuel_abs="177.549552" electricity_abs="0"/>
    </tripinfo>
    <tripinfo id="carIn73855:1" depart="57743.00" departLane="386687232#0_1" departPos="5.10" departSpeed="0.00" departDelay="0.50" arrival="57838.00" arrivalLane="-315358244_1" arrivalPos="33.95" arrivalSpeed="13.86" duration="95.00" routeLength="1157.39" waitingTime="0.00" waitingCount="0" stopTime="0.00" timeLoss="12.21" rerouteNo="1" devices="tripinfo_carIn73855:1 routing_carIn73855:1 emissions_carIn73855:1" vType="default_016" speedFactor="1.02" vaporized="">
        <emissions CO_abs="2941.101686" CO2_abs="235542.027619" HC_abs="18.888847" PMx_abs="3.740693" NOx_abs="92.308495" fuel_abs="101.249635" electricity_abs="0"/>
    </tripinfo>
    <tripinfo id="h17549c1:1" depart="57680.00" departLane="-447569998#1_1" departPos="5.10" departSpeed="0.00" departDelay="0.00" arrival="57839.00" arrivalLane="-315358254#1_1" arrivalPos="137.16" arrivalSpeed="14.41" duration="159.00" routeLength="1746.60" waitingTime="7.00" waitingCount="2" stopTime="0.00" timeLoss="31.02" rerouteNo="1" devices="tripinfo_h17549c1:1 routing_h17549c1:1 emissions_h17549c1:1" vType="default_016" speedFactor="1.07" vaporized="">
        <emissions CO_abs="5415.615902" CO2_abs="398278.374153" HC_abs="33.881849" PMx_abs="6.662623" NOx_abs="158.696155" fuel_abs="171.202958" electricity_abs="0"/>
    </tripinfo>
    <tripinfo id="carIn77438:1" depart="57613.00" departLane="124812856#0_1" departPos="5.10" departSpeed="0.00" departDelay="0.10" arrival="57840.00" arrivalLane="-128361102#1_1" arrivalPos="274.68" arrivalSpeed="12.21" duration="227.00" routeLength="2250.49" waitingTime="17.00" waitingCount="1" stopTime="0.00" timeLoss="41.25" rerouteNo="1" devices="tripinfo_carIn77438:1 routing_carIn77438:1 emissions_carIn77438:1" vType="default_016" speedFactor="0.89" vaporized="">
        <emissions CO_abs="7645.671716" CO2_abs="472820.275521" HC_abs="45.782147" PMx_abs="7.595479" NOx_abs="188.003482" fuel_abs="203.246733" electricity_abs="0"/>
    </tripinfo>
    <tripinfo id="carIn28951:1" depart="57606.00" departLane="10425609#0_1" departPos="5.10" departSpeed="0.00" departDelay="0.20" arrival="57843.00" arrivalLane="-128361102#1_1" arrivalPos="274.68" arrivalSpeed="11.50" duration="237.00" routeLength="2113.04" waitingTime="30.00" waitingCount="2" stopTime="0.00" timeLoss="57.66" rerouteNo="1" devices="tripinfo_carIn28951:1 routing_carIn28951:1 emissions_carIn28951:1" vType="default_016" speedFactor="0.87" vaporized="">
        <emissions CO_abs="9460.788292" CO2_abs="505562.788204" HC_abs="54.808199" PMx_abs="8.355534" NOx_abs="202.826848" fuel_abs="217.322156" electricity_abs="0"/>
    </tripinfo>
    <tripinfo id="h20540c1:1" depart="57634.00" departLane="10425609#0_1" departPos="5.10" departSpeed="0.00" departDelay="0.50" arrival="57846.00" arrivalLane="-128361102#1_1" arrivalPos="274.68" arrivalSpeed="11.72" duration="212.00" routeLength="2113.04" waitingTime="15.00" waitingCount="1" stopTime="0.00" timeLoss="36.09" rerouteNo="1" devices="tripinfo_h20540c1:1 routing_h20540c1:1 emissions_h20540c1:1" vType="default_016" speedFactor="0.88" vaporized="">
        <emissions CO_abs="7459.844794" CO2_abs="446113.032417" HC_abs="44.355818" PMx_abs="7.426042" NOx_abs="179.274642" fuel_abs="191.766137" electricity_abs="0"/>
    </tripinfo>
    <tripinfo id="randUni15030:1" depart="57735.00" departLane="386687232#0_1" departPos="5.10" departSpeed="0.00" departDelay="0.10" arrival="57850.00" arrivalLane="26677539_1" arrivalPos="151.98" arrivalSpeed="6.72" duration="115.00" routeLength="919.89" waitingTime="6.00" waitingCount="1" stopTime="0.00" timeLoss="21.51" rerouteNo="1" devices="tripinfo_randUni15030:1 routing_randUni15030:1 emissions_randUni15030:1" vType="random_016" speedFactor="0.89" vaporized="">
        <emissions CO_abs="4476.687359" CO2_abs="220051.060054" HC_abs="25.483798" PMx_abs="3.731284" NOx_abs="89.752314" fuel_abs="94.591629" electricity_abs="0"/>
    </tripinfo>
    <tripinfo id="h6541c1:3" depart="57727.00" departLane="201950247#3_1" departPos="5.10" departSpeed="0.00" departDelay="0.00" arrival="57852.00" arrivalLane="32978638#0_1" arrivalPos="49.29" arrivalSpeed="13.25" duration="125.00" routeLength="1176.17" waitingTime="5.00" waitingCount="1" stopTime="0.00" timeLoss="22.67" rerouteNo="1" devices="tripinfo_h6541c1:3 routing_h6541c1:3 emissions_h6541c1:3" vType="default_016" speedFactor="1.00" vaporized="">
        <emissions CO_abs="4532.577629" CO2_abs="288984.224907" HC_abs="27.304336" PMx_abs="4.745468" NOx_abs="115.593122" fuel_abs="124.222595" electricity_abs="0"/>
    </tripinfo>
    <tripinfo id="carIn8642:1" depart="57774.00" departLane="-447569998#1_1" departPos="5.10" departSpeed="0.00" departDelay="0.90" arrival="57853.00" arrivalLane="-315358244_1" arrivalPos="33.95" arrivalSpeed="12.76" duration="79.00" routeLength="706.49" waitingTime="4.00" waitingCount="2" stopTime="0.00" timeLoss="16.64" rerouteNo="1" devices="tripinfo_carIn8642:1 routing_carIn8642:1 emissions_carIn8642:1" vType="default_016" speedFactor="0.97" vaporized="">
        <emissions CO_abs="3483.579456" CO2_abs="187940.541153" HC_abs="20.235462" PMx_abs="3.200695" NOx_abs="76.427812" fuel_abs="80.788252" electricity_abs="0"/>
    </tripinfo>
    <tripinfo id="carIn50326:1" depart="57651.00" departLane="128361102#0_1" departPos="5.10" departSpeed="0.00" departDelay="0.30" arrival="57855.00" arrivalLane="18809673#0_1" arrivalPos="473.56" arrivalSpeed="11.69" duration="204.00" routeLength="1591.07" waitingTime="37.00" waitingCount="2" stopTime="0.00" timeLoss="64.94" rerouteNo="1" devices="tripinfo_carIn50326:1 routing_carIn50326:1 emissions_carIn50326:1" vType="default_016" speedFactor="0.93" vaporized="">
        <emissions CO_abs="10243.051715" CO2_abs="427859.101998" HC_abs="56.578143" PMx_abs="7.509646" NOx_abs="174.830986" fuel_abs="183.921514" electricity_abs="0"/>
    </tripinfo>
    <tripinfo id="carIn46110:1" depart="57684.00" departLane="315358244_1" departPos="5.10" departSpeed="0.00" departDelay="1.20" arrival="57855.00" arrivalLane="32978638#0_1" arrivalPos="49.29" arrivalSpeed="12.45" duration="171.00" routeLength="1764.04" waitingTime="17.00" waitingCount="2" stopTime="0.00" timeLoss="41.21" rerouteNo="1" devices="tripinfo_carIn46110:1 routing_carIn46110:1 emissions_carIn46110:1" vType="default_016" speedFactor="0.99" vaporized="">
        <emissions CO_abs="6182.782893" CO2_abs="382955.907483" HC_abs="37.120323" PMx_abs="6.560332" NOx_abs="154.247501" fuel_abs="164.617032" electricity_abs="0"/>
    </tripinfo>