<?xml version="1.0" encoding="UTF-8"?>

<!-- generated on 2021-10-26 18:45:32 by Eclipse SUMO sumo Version 1.10.0
<configuration xmlns:xsi="http://www.w3.org/2001/XMLSchema-instance" xsi:noNamespaceSchemaLocation="http://sumo.dlr.de/xsd/sumoConfiguration.xsd">

    <input>
        <net-file value="/Users/behradkoohy/sumo-scratchpad/RESCO/environments/ingolstadt21/ingolstadt21.net.xml"/>
        <route-files value="/Users/behradkoohy/sumo-scratchpad/RESCO/environments/ingolstadt21/ingolstadt21.rou.xml"/>
    </input>

    <output>
        <tripinfo-output value="/Users/behradkoohy/sumo-scratchpad/RESCO/logs/IPPO-tr0-ingolstadt21-21-drq_norm-wait_norm/tripinfo_93.xml"/>
        <tripinfo-output.write-unfinished value="true"/>
    </output>

    <time>
        <begin value="57600"/>
        <end value="61200"/>
    </time>

    <processing>
        <time-to-teleport value="-1"/>
    </processing>

    <report>
        <no-warnings value="true"/>
        <no-step-log value="true"/>
    </report>

    <emissions>
        <device.emissions.probability value="1"/>
    </emissions>

    <traci_server>
        <remote-port value="62480"/>
    </traci_server>

    <random_number>
        <random value="true"/>
    </random_number>

</configuration>
-->

<tripinfos xmlns:xsi="http://www.w3.org/2001/XMLSchema-instance" xsi:noNamespaceSchemaLocation="http://sumo.dlr.de/xsd/tripinfo_file.xsd">
    <tripinfo id="h15454c2:3" depart="57612.00" departLane="24608844_1" departPos="5.10" departSpeed="0.00" departDelay="0.50" arrival="57667.00" arrivalLane="32978638#0_1" arrivalPos="49.29" arrivalSpeed="12.71" duration="55.00" routeLength="354.79" waitingTime="9.00" waitingCount="1" stopTime="0.00" timeLoss="21.09" rerouteNo="1" devices="tripinfo_h15454c2:3 routing_h15454c2:3 emissions_h15454c2:3" vType="default_016" speedFactor="1.01" vaporized="">
        <emissions CO_abs="3050.766993" CO2_abs="132185.793137" HC_abs="16.981813" PMx_abs="2.443527" NOx_abs="55.280696" fuel_abs="56.821668" electricity_abs="0"/>
    </tripinfo>
    <tripinfo id="carIn60260:1" depart="57606.00" departLane="315358254#0_1" departPos="5.10" departSpeed="0.00" departDelay="0.90" arrival="57692.00" arrivalLane="399835085#1_1" arrivalPos="212.23" arrivalSpeed="5.90" duration="86.00" routeLength="430.98" waitingTime="32.00" waitingCount="1" stopTime="0.00" timeLoss="45.32" rerouteNo="1" devices="tripinfo_carIn60260:1 routing_carIn60260:1 emissions_carIn60260:1" vType="default_016" speedFactor="1.13" vaporized="">
        <emissions CO_abs="6962.181558" CO2_abs="204035.358985" HC_abs="36.483355" PMx_abs="4.186671" NOx_abs="88.000556" fuel_abs="87.708371" electricity_abs="0"/>
    </tripinfo>
    <tripinfo id="carIn53971:1" depart="57640.00" departLane="272042143_1" departPos="5.10" departSpeed="0.00" departDelay="0.80" arrival="57696.00" arrivalLane="24634414#1_1" arrivalPos="162.19" arrivalSpeed="7.59" duration="56.00" routeLength="493.04" waitingTime="0.00" waitingCount="0" stopTime="0.00" timeLoss="8.13" rerouteNo="1" devices="tripinfo_carIn53971:1 routing_carIn53971:1 emissions_carIn53971:1" vType="default_016" speedFactor="0.96" vaporized="">
        <emissions CO_abs="2202.041264" CO2_abs="123167.076318" HC_abs="12.892181" PMx_abs="2.087887" NOx_abs="50.107806" fuel_abs="52.944622" electricity_abs="0"/>
    </tripinfo>
    <tripinfo id="h12244c1:3" depart="57612.00" departLane="315358244_1" departPos="5.10" departSpeed="0.00" departDelay="0.40" arrival="57715.00" arrivalLane="386687235_1" arrivalPos="80.84" arrivalSpeed="13.26" duration="103.00" routeLength="1186.14" waitingTime="5.00" waitingCount="2" stopTime="0.00" timeLoss="17.04" rerouteNo="1" devices="tripinfo_h12244c1:3 routing_h12244c1:3 emissions_h12244c1:3" vType="default_016" speedFactor="1.00" vaporized="">
        <emissions CO_abs="2956.959730" CO2_abs="225553.213488" HC_abs="18.638778" PMx_abs="3.567542" NOx_abs="88.407942" fuel_abs="96.955979" electricity_abs="0"/>
    </tripinfo>
    <tripinfo id="S5R_frequency1.2" depart="57615.00" departLane="315358250#0_1" departPos="12.10" departSpeed="0.00" departDelay="3.40" arrival="57720.00" arrivalLane="386687235_1" arrivalPos="80.84" arrivalSpeed="13.78" duration="105.00" routeLength="1115.62" waitingTime="1.00" waitingCount="1" stopTime="0.00" timeLoss="23.05" rerouteNo="1" devices="tripinfo_S5R_frequency1.2 routing_S5R_frequency1.2 emissions_S5R_frequency1.2" vType="bus" speedFactor="1.00" vaporized="">
        <emissions CO_abs="2159.083198" CO2_abs="1364443.641795" HC_abs="445.583498" PMx_abs="231.143854" NOx_abs="10566.635743" fuel_abs="581.914501" electricity_abs="0"/>
    </tripinfo>
    <tripinfo id="h7800c1:5" depart="57696.00" departLane="-447569998#1_1" departPos="5.10" departSpeed="0.00" departDelay="0.00" arrival="57722.00" arrivalLane="-447569998#1_1" arrivalPos="180.76" arrivalSpeed="6.98" duration="26.00" routeLength="175.66" waitingTime="0.00" waitingCount="0" stopTime="0.00" timeLoss="4.03" rerouteNo="1" devices="tripinfo_h7800c1:5 routing_h7800c1:5 emissions_h7800c1:5" vType="default_016" speedFactor="0.97" vaporized="">
        <emissions CO_abs="1240.359783" CO2_abs="51906.367502" HC_abs="6.839142" PMx_abs="0.863007" NOx_abs="21.239330" fuel_abs="22.312750" electricity_abs="0"/>
    </tripinfo>
    <tripinfo id="h3688c1:1" depart="57625.00" departLane="201201950#1_1" departPos="5.10" departSpeed="0.00" departDelay="0.00" arrival="57729.00" arrivalLane="32978638#0_1" arrivalPos="49.29" arrivalSpeed="15.31" duration="104.00" routeLength="1089.75" waitingTime="15.00" waitingCount="1" stopTime="0.00" timeLoss="31.53" rerouteNo="1" devices="tripinfo_h3688c1:1 routing_h3688c1:1 emissions_h3688c1:1" vType="default_016" speedFactor="1.11" vaporized="">
        <emissions CO_abs="5139.294599" CO2_abs="309171.796474" HC_abs="30.592600" PMx_abs="5.661501" NOx_abs="126.521535" fuel_abs="132.899854" electricity_abs="0"/>
    </tripinfo>
    <tripinfo id="h9563c2:5" depart="57631.00" departLane="315358244_1" departPos="5.10" departSpeed="0.00" departDelay="0.70" arrival="57733.00" arrivalLane="386687235_1" arrivalPos="80.84" arrivalSpeed="14.75" duration="102.00" routeLength="1186.14" waitingTime="5.00" waitingCount="1" stopTime="0.00" timeLoss="21.64" rerouteNo="1" devices="tripinfo_h9563c2:5 routing_h9563c2:5 emissions_h9563c2:5" vType="default_016" speedFactor="1.08" vaporized="">
        <emissions CO_abs="3864.129332" CO2_abs="282526.280603" HC_abs="24.129470" PMx_abs="4.890385" NOx_abs="113.547165" fuel_abs="121.445819" electricity_abs="0"/>
    </tripinfo>
    <tripinfo id="h317c2:1" depart="57707.00" departLane="-32978638#0_1" departPos="5.10" departSpeed="0.00" departDelay="0.10" arrival="57738.00" arrivalLane="-266565295#5_1" arrivalPos="172.76" arrivalSpeed="14.15" duration="31.00" routeLength="370.53" waitingTime="0.00" waitingCount="0" stopTime="0.00" timeLoss="5.71" rerouteNo="1" devices="tripinfo_h317c2:1 routing_h317c2:1 emissions_h317c2:1" vType="default_016" speedFactor="1.09" vaporized="">
        <emissions CO_abs="1688.500070" CO2_abs="110863.402494" HC_abs="10.231240" PMx_abs="2.064079" NOx_abs="45.800985" fuel_abs="47.655264" electricity_abs="0"/>
    </tripinfo>
    <tripinfo id="h7181c1:1" depart="57660.00" departLane="315358254#0_1" departPos="5.10" departSpeed="0.00" departDelay="0.10" arrival="57739.00" arrivalLane="306240162#0_0" arrivalPos="220.43" arrivalSpeed="18.85" duration="79.00" routeLength="932.35" waitingTime="10.00" waitingCount="2" stopTime="0.00" timeLoss="34.58" rerouteNo="1" devices="tripinfo_h7181c1:1 routing_h7181c1:1 emissions_h7181c1:1" vType="default_016" speedFactor="1.16" vaporized="">
        <emissions CO_abs="6096.172522" CO2_abs="367408.257915" HC_abs="36.643728" PMx_abs="7.653977" NOx_abs="155.481701" fuel_abs="157.931933" electricity_abs="0"/>
    </tripinfo>
    <tripinfo id="h4538c1:1" depart="57701.00" departLane="-10427692#1_1" departPos="5.10" departSpeed="0.00" departDelay="0.00" arrival="57753.00" arrivalLane="-128361102#1_1" arrivalPos="274.68" arrivalSpeed="14.43" duration="52.00" routeLength="440.74" waitingTime="13.00" waitingCount="1" stopTime="0.00" timeLoss="23.94" rerouteNo="1" devices="tripinfo_h4538c1:1 routing_h4538c1:1 emissions_h4538c1:1" vType="default_016" speedFactor="1.13" vaporized="">
        <emissions CO_abs="2845.203792" CO2_abs="129341.582871" HC_abs="15.959466" PMx_abs="2.465647" NOx_abs="53.695986" fuel_abs="55.598898" electricity_abs="0"/>
    </tripinfo>
    <tripinfo id="carIn27009:1" depart="57673.00" departLane="-447569998#1_1" departPos="5.10" departSpeed="0.00" departDelay="0.50" arrival="57758.00" arrivalLane="-26677539_1" arrivalPos="152.75" arrivalSpeed="8.81" duration="85.00" routeLength="699.63" waitingTime="0.00" waitingCount="0" stopTime="0.00" timeLoss="10.42" rerouteNo="1" devices="tripinfo_carIn27009:1 routing_carIn27009:1 emissions_carIn27009:1" vType="default_015" speedFactor="1.13" vaporized="">
        <emissions CO_abs="3557.902621" CO2_abs="193668.528107" HC_abs="20.655390" PMx_abs="3.063761" NOx_abs="77.739437" fuel_abs="83.250768" electricity_abs="0"/>
    </tripinfo>
    <tripinfo id="carIn80064:1" depart="57603.00" departLane="128361109#1_1" departPos="5.10" departSpeed="0.00" departDelay="0.40" arrival="57759.00" arrivalLane="-315358254#1_1" arrivalPos="137.16" arrivalSpeed="12.33" duration="156.00" routeLength="1587.97" waitingTime="28.00" waitingCount="2" stopTime="0.00" timeLoss="56.45" rerouteNo="1" devices="tripinfo_carIn80064:1 routing_carIn80064:1 emissions_carIn80064:1" vType="default_016" speedFactor="0.90" vaporized="">
        <emissions CO_abs="9826.486138" CO2_abs="493078.004760" HC_abs="56.391860" PMx_abs="9.501515" NOx_abs="204.254230" fuel_abs="211.954098" electricity_abs="0"/>
    </tripinfo>
    <tripinfo id="h5979c1:5" depart="57669.00" departLane="399835085#1_1" departPos="5.10" departSpeed="0.00" departDelay="0.00" arrival="57769.00" arrivalLane="-315358254#1_1" arrivalPos="137.16" arrivalSpeed="10.76" duration="100.00" routeLength="659.33" waitingTime="0.00" waitingCount="0" stopTime="0.00" timeLoss="13.14" rerouteNo="1" devices="tripinfo_h5979c1:5 routing_h5979c1:5 emissions_h5979c1:5" vType="default_016" speedFactor="0.84" vaporized="">
        <emissions CO_abs="4115.672116" CO2_abs="172709.241516" HC_abs="22.683801" PMx_abs="2.758527" NOx_abs="69.864036" fuel_abs="74.241893" electricity_abs="0"/>
    </tripinfo>
    <tripinfo id="h3326c1:2" depart="57656.00" departLane="22716069#0_1" departPos="5.10" departSpeed="0.00" departDelay="0.00" arrival="57771.00" arrivalLane="24634517#13_1" arrivalPos="111.62" arrivalSpeed="13.50" duration="115.00" routeLength="1312.81" waitingTime="0.00" waitingCount="0" stopTime="0.00" timeLoss="15.90" rerouteNo="1" devices="tripinfo_h3326c1:2 routing_h3326c1:2 emissions_h3326c1:2" vType="default_016" speedFactor="0.98" vaporized="">
        <emissions CO_abs="4207.120652" CO2_abs="316287.185110" HC_abs="26.556018" PMx_abs="5.225114" NOx_abs="126.251976" fuel_abs="135.958399" electricity_abs="0"/>
    </tripinfo>
    <tripinfo id="carIn30817:1" depart="57681.00" departLane="315358244_1" departPos="5.10" departSpeed="0.00" departDelay="0.20" arrival="57772.00" arrivalLane="447569997#1_1" arrivalPos="180.93" arrivalSpeed="8.02" duration="91.00" routeLength="718.04" waitingTime="12.00" waitingCount="2" stopTime="0.00" timeLoss="27.47" rerouteNo="1" devices="tripinfo_carIn30817:1 routing_carIn30817:1 emissions_carIn30817:1" vType="default_016" speedFactor="0.97" vaporized="">
        <emissions CO_abs="4614.082122" CO2_abs="211105.138056" HC_abs="25.909595" PMx_abs="3.679416" NOx_abs="86.380169" fuel_abs="90.746273" electricity_abs="0"/>
    </tripinfo>
    <tripinfo id="carIn121703:1" depart="57647.00" departLane="386687232#0_1" departPos="5.10" departSpeed="0.00" departDelay="0.30" arrival="57773.00" arrivalLane="-315358244_1" arrivalPos="33.95" arrivalSpeed="13.99" duration="126.00" routeLength="1157.39" waitingTime="24.00" waitingCount="2" stopTime="0.00" timeLoss="43.49" rerouteNo="1" devices="tripinfo_carIn121703:1 routing_carIn121703:1 emissions_carIn121703:1" vType="default_016" speedFactor="1.03" vaporized="">
        <emissions CO_abs="6787.331533" CO2_abs="313669.081955" HC_abs="38.239120" PMx_abs="5.661831" NOx_abs="128.062267" fuel_abs="134.834514" electricity_abs="0"/>
    </tripinfo>
    <tripinfo id="carIn86816:1" depart="57617.00" departLane="128361102#0_1" departPos="5.10" departSpeed="0.00" departDelay="0.80" arrival="57782.00" arrivalLane="201956811#0_1" arrivalPos="40.40" arrivalSpeed="14.90" duration="165.00" routeLength="2067.33" waitingTime="2.00" waitingCount="1" stopTime="0.00" timeLoss="33.08" rerouteNo="1" devices="tripinfo_carIn86816:1 routing_carIn86816:1 emissions_carIn86816:1" vType="default_016" speedFactor="1.15" vaporized="">
        <emissions CO_abs="6563.581599" CO2_abs="512388.435968" HC_abs="41.808910" PMx_abs="8.910392" NOx_abs="205.133728" fuel_abs="220.253284" electricity_abs="0"/>
    </tripinfo>
    <tripinfo id="carIn12365:1" depart="57713.00" departLane="315358244_1" departPos="5.10" departSpeed="0.00" departDelay="0.50" arrival="57785.00" arrivalLane="447569997#1_1" arrivalPos="180.93" arrivalSpeed="7.95" duration="72.00" routeLength="718.04" waitingTime="0.00" waitingCount="0" stopTime="0.00" timeLoss="13.09" rerouteNo="1" devices="tripinfo_carIn12365:1 routing_carIn12365:1 emissions_carIn12365:1" vType="default_016" speedFactor="1.04" vaporized="">
        <emissions CO_abs="2906.662816" CO2_abs="179416.149805" HC_abs="17.389035" PMx_abs="3.086658" NOx_abs="72.775825" fuel_abs="77.123577" electricity_abs="0"/>
    </tripinfo>
    <tripinfo id="h330c1:1" depart="57736.00" departLane="-32978638#0_1" departPos="5.10" departSpeed="0.00" departDelay="0.20" arrival="57787.00" arrivalLane="-266565295#5_1" arrivalPos="172.76" arrivalSpeed="11.50" duration="51.00" routeLength="370.53" waitingTime="11.00" waitingCount="1" stopTime="0.00" timeLoss="20.75" rerouteNo="1" devices="tripinfo_h330c1:1 routing_h330c1:1 emissions_h330c1:1" vType="default_016" speedFactor="0.91" vaporized="">
        <emissions CO_abs="3011.538623" CO2_abs="129331.451598" HC_abs="16.739109" PMx_abs="2.385960" NOx_abs="53.765301" fuel_abs="55.594755" electricity_abs="0"/>
    </tripinfo>
    <tripinfo id="carIn107084:1" depart="57601.00" departLane="124812856#0_1" departPos="5.10" departSpeed="0.00" departDelay="0.70" arrival="57791.00" arrivalLane="-128361102#1_1" arrivalPos="274.68" arrivalSpeed="12.56" duration="190.00" routeLength="2250.49" waitingTime="0.00" waitingCount="0" stopTime="0.00" timeLoss="16.60" rerouteNo="1" devices="tripinfo_carIn107084:1 routing_carIn107084:1 emissions_carIn107084:1" vType="default_016" speedFactor="0.95" vaporized="">
        <emissions CO_abs="4751.792663" CO2_abs="426368.216480" HC_abs="31.502608" PMx_abs="6.350980" NOx_abs="164.883590" fuel_abs="183.277904" electricity_abs="0"/>
    </tripinfo>
    <tripinfo id="h3568c1:3" depart="57656.00" departLane="266565295#5_1" departPos="5.10" departSpeed="0.00" departDelay="0.80" arrival="57791.00" arrivalLane="-24634415_1" arrivalPos="62.03" arrivalSpeed="10.93" duration="135.00" routeLength="807.40" waitingTime="37.00" waitingCount="2" stopTime="0.00" timeLoss="60.30" rerouteNo="1" devices="tripinfo_h3568c1:3 routing_h3568c1:3 emissions_h3568c1:3" vType="default_016" speedFactor="0.86" vaporized="">
        <emissions CO_abs="8855.784630" CO2_abs="318615.948971" HC_abs="47.776483" PMx_abs="6.122609" NOx_abs="134.464093" fuel_abs="136.961894" electricity_abs="0"/>
    </tripinfo>
    <tripinfo id="carIn107282:1" depart="57749.00" departLane="-447569998#1_1" departPos="5.10" departSpeed="0.00" departDelay="0.00" arrival="57795.00" arrivalLane="315358242#0_1" arrivalPos="165.37" arrivalSpeed="12.99" duration="46.00" routeLength="448.50" waitingTime="0.00" waitingCount="0" stopTime="0.00" timeLoss="5.14" rerouteNo="1" devices="tripinfo_carIn107282:1 routing_carIn107282:1 emissions_carIn107282:1" vType="default_016" speedFactor="1.01" vaporized="">
        <emissions CO_abs="1694.676023" CO2_abs="109759.132080" HC_abs="10.218170" PMx_abs="1.680715" NOx_abs="43.053512" fuel_abs="47.181166" electricity_abs="0"/>
    </tripinfo>
    <tripinfo id="h3154c1:1" depart="57658.00" departLane="24634507_1" departPos="5.10" departSpeed="0.00" departDelay="0.00" arrival="57797.00" arrivalLane="-266565295#5_1" arrivalPos="172.76" arrivalSpeed="12.24" duration="139.00" routeLength="1206.22" waitingTime="24.00" waitingCount="2" stopTime="0.00" timeLoss="46.31" rerouteNo="1" devices="tripinfo_h3154c1:1 routing_h3154c1:1 emissions_h3154c1:1" vType="default_016" speedFactor="0.97" vaporized="">
        <emissions CO_abs="6496.506387" CO2_abs="345000.306655" HC_abs="37.666169" PMx_abs="6.148061" NOx_abs="141.099464" fuel_abs="148.301842" electricity_abs="0"/>
    </tripinfo>
    <tripinfo id="h645c1:1" depart="57622.00" departLane="266565295#5_1" departPos="5.10" departSpeed="0.00" departDelay="0.40" arrival="57802.00" arrivalLane="-315358244_1" arrivalPos="33.95" arrivalSpeed="13.34" duration="180.00" routeLength="1910.83" waitingTime="11.00" waitingCount="2" stopTime="0.00" timeLoss="37.94" rerouteNo="1" devices="tripinfo_h645c1:1 routing_h645c1:1 emissions_h645c1:1" vType="default_016" speedFactor="0.97" vaporized="">
        <emissions CO_abs="6049.340874" CO2_abs="440500.530410" HC_abs="37.834449" PMx_abs="7.323291" NOx_abs="176.100838" fuel_abs="189.352521" electricity_abs="0"/>
    </tripinfo>
    <tripinfo id="carIn28951:1" depart="57606.00" departLane="10425609#0_1" departPos="5.10" departSpeed="0.00" departDelay="0.20" arrival="57819.00" arrivalLane="-128361102#1_1" arrivalPos="274.68" arrivalSpeed="11.60" duration="213.00" routeLength="2113.04" waitingTime="10.00" waitingCount="2" stopTime="0.00" timeLoss="41.03" rerouteNo="1" devices="tripinfo_carIn28951:1 routing_carIn28951:1 emissions_carIn28951:1" vType="default_016" speedFactor="0.90" vaporized="">
        <emissions CO_abs="7541.399090" CO2_abs="494583.904586" HC_abs="45.873502" PMx_abs="8.213346" NOx_abs="198.680681" fuel_abs="212.601226" electricity_abs="0"/>
    </tripinfo>
    <tripinfo id="h20540c1:1" depart="57634.00" departLane="10425609#0_1" departPos="5.10" departSpeed="0.00" departDelay="0.50" arrival="57821.00" arrivalLane="-128361102#1_1" arrivalPos="274.68" arrivalSpeed="13.85" duration="187.00" routeLength="2113.04" waitingTime="5.00" waitingCount="3" stopTime="0.00" timeLoss="40.47" rerouteNo="1" devices="tripinfo_h20540c1:1 routing_h20540c1:1 emissions_h20540c1:1" vType="default_016" speedFactor="1.06" vaporized="">
        <emissions CO_abs="7224.699000" CO2_abs="511654.460000" HC_abs="44.850691" PMx_abs="8.881783" NOx_abs="206.553152" fuel_abs="219.938208" electricity_abs="0"/>
    </tripinfo>
    <tripinfo id="h11737c1:1" depart="57665.00" departLane="272042143_1" departPos="5.10" departSpeed="0.00" departDelay="1.50" arrival="57826.00" arrivalLane="-315358254#1_1" arrivalPos="137.16" arrivalSpeed="15.89" duration="161.00" routeLength="1596.88" waitingTime="37.00" waitingCount="2" stopTime="0.00" timeLoss="61.52" rerouteNo="1" devices="tripinfo_h11737c1:1 routing_h11737c1:1 emissions_h11737c1:1" vType="default_016" speedFactor="1.18" vaporized="">
        <emissions CO_abs="9958.068782" CO2_abs="451861.937405" HC_abs="55.864273" PMx_abs="8.643841" NOx_abs="187.020243" fuel_abs="194.237859" electricity_abs="0"/>
    </tripinfo>
    <tripinfo id="carIn126288:1" depart="57674.00" departLane="272042143_1" departPos="5.10" departSpeed="0.00" departDelay="0.00" arrival="57829.00" arrivalLane="-315358254#1_1" arrivalPos="137.16" arrivalSpeed="13.57" duration="155.00" routeLength="1596.88" waitingTime="23.00" waitingCount="1" stopTime="0.00" timeLoss="40.51" rerouteNo="1" devices="tripinfo_carIn126288:1 routing_carIn126288:1 emissions_carIn126288:1" vType="default_016" speedFactor="1.01" vaporized="">
        <emissions CO_abs="7337.980749" CO2_abs="401921.458636" HC_abs="42.736122" PMx_abs="6.947424" NOx_abs="161.678552" fuel_abs="172.770223" electricity_abs="0"/>
    </tripinfo>
    <tripinfo id="carIn22761:1" depart="57616.00" departLane="-306240162#1_0" departPos="5.10" departSpeed="0.00" departDelay="2.10" arrival="57831.00" arrivalLane="399835085#1_1" arrivalPos="212.23" arrivalSpeed="8.85" duration="215.00" routeLength="1093.26" waitingTime="113.00" waitingCount="2" stopTime="0.00" timeLoss="143.07" rerouteNo="1" devices="tripinfo_carIn22761:1 routing_carIn22761:1 emissions_carIn22761:1" vType="default_016" speedFactor="1.08" vaporized="">
        <emissions CO_abs="22724.588583" CO2_abs="626918.288743" HC_abs="118.339815" PMx_abs="13.719794" NOx_abs="272.691579" fuel_abs="269.492586" electricity_abs="0"/>
    </tripinfo>
    <tripinfo id="carIn118591:1" depart="57689.00" departLane="315358244_1" departPos="5.10" departSpeed="0.00" departDelay="0.20" arrival="57832.00" arrivalLane="386687235_1" arrivalPos="80.84" arrivalSpeed="11.85" duration="143.00" routeLength="1186.14" waitingTime="28.00" waitingCount="3" stopTime="0.00" timeLoss="51.21" rerouteNo="1" devices="tripinfo_carIn118591:1 routing_carIn118591:1 emissions_carIn118591:1" vType="default_016" speedFactor="0.95" vaporized="">
        <emissions CO_abs="7574.256560" CO2_abs="332429.171479" HC_abs="42.255606" PMx_abs="5.989962" NOx_abs="136.572647" fuel_abs="142.899020" electricity_abs="0"/>
    </tripinfo>
    <tripinfo id="50R_frequency3.17" depart="57674.00" departLane="-18809673#6_1" departPos="12.10" departSpeed="0.00" departDelay="0.70" arrival="57835.00" arrivalLane="201956811#0_1" arrivalPos="40.40" arrivalSpeed="12.83" duration="161.00" routeLength="1954.47" waitingTime="0.00" waitingCount="0" stopTime="0.00" timeLoss="16.56" rerouteNo="1" devices="tripinfo_50R_frequency3.17 routing_50R_frequency3.17 emissions_50R_frequency3.17" vType="bus" speedFactor="1.00" vaporized="">
        <emissions CO_abs="3155.899669" CO2_abs="2038761.962074" HC_abs="664.609081" PMx_abs="339.889221" NOx_abs="15649.310531" fuel_abs="869.532945" electricity_abs="0"/>
    </tripinfo>
    <tripinfo id="carIn129809:1" depart="57729.00" departLane="-447569998#1_1" departPos="5.10" departSpeed="0.00" departDelay="1.00" arrival="57835.00" arrivalLane="-315358244_1" arrivalPos="33.95" arrivalSpeed="10.41" duration="106.00" routeLength="706.49" waitingTime="16.00" waitingCount="2" stopTime="0.00" timeLoss="30.62" rerouteNo="1" devices="tripinfo_carIn129809:1 routing_carIn129809:1 emissions_carIn129809:1" vType="default_015" speedFactor="0.80" vaporized="">
        <emissions CO_abs="4780.228568" CO2_abs="197444.501198" HC_abs="26.336491" PMx_abs="3.439927" NOx_abs="81.126833" fuel_abs="84.874437" electricity_abs="0"/>
    </tripinfo>
    <tripinfo id="carIn3969:1" depart="57628.00" departLane="124812856#0_1" departPos="5.10" departSpeed="0.00" departDelay="4.30" arrival="57836.00" arrivalLane="-128361102#1_1" arrivalPos="274.68" arrivalSpeed="12.94" duration="208.00" routeLength="2250.49" waitingTime="13.00" waitingCount="3" stopTime="0.00" timeLoss="44.74" rerouteNo="1" devices="tripinfo_carIn3969:1 routing_carIn3969:1 emissions_carIn3969:1" vType="default_016" speedFactor="1.01" vaporized="">
        <emissions CO_abs="7812.706032" CO2_abs="525809.129026" HC_abs="47.894430" PMx_abs="9.155287" NOx_abs="212.753350" fuel_abs="226.022957" electricity_abs="0"/>
    </tripinfo>
    <tripinfo id="carIn82278:1" depart="57702.00" departLane="-306240162#1_0" departPos="5.10" departSpeed="0.00" departDelay="0.70" arrival="57836.00" arrivalLane="399835085#1_1" arrivalPos="212.23" arrivalSpeed="7.82" duration="134.00" routeLength="1093.26" waitingTime="41.00" waitingCount="1" stopTime="0.00" timeLoss="55.91" rerouteNo="1" devices="tripinfo_carIn82278:1 routing_carIn82278:1 emissions_carIn82278:1" vType="default_016" speedFactor="1.00" vaporized="">
        <emissions CO_abs="9929.627773" CO2_abs="369057.717404" HC_abs="53.968879" PMx_abs="7.440894" NOx_abs="154.851677" fuel_abs="158.644567" electricity_abs="0"/>
    </tripinfo>
    <tripinfo id="carIn81860:1" depart="57712.00" departLane="128361102#0_1" departPos="5.10" departSpeed="0.00" departDelay="0.60" arrival="57836.00" arrivalLane="-24634517#17_1" arrivalPos="6.43" arrivalSpeed="7.55" duration="124.00" routeLength="1229.64" waitingTime="11.00" waitingCount="1" stopTime="0.00" timeLoss="34.89" rerouteNo="1" devices="tripinfo_carIn81860:1 routing_carIn81860:1 emissions_carIn81860:1" vType="default_016" speedFactor="1.01" vaporized="">
        <emissions CO_abs="5836.771853" CO2_abs="332654.850066" HC_abs="34.343949" PMx_abs="5.892311" NOx_abs="135.490386" fuel_abs="142.994740" electricity_abs="0"/>
    </tripinfo>
    <tripinfo id="carIn8642:1" depart="57774.00" departLane="-447569998#1_1" departPos="5.10" departSpeed="0.00" departDelay="0.90" arrival="57837.00" arrivalLane="-315358244_1" arrivalPos="33.95" arrivalSpeed="15.04" duration="63.00" routeLength="706.49" waitingTime="0.00" waitingCount="0" stopTime="0.00" timeLoss="6.96" rerouteNo="1" devices="tripinfo_carIn8642:1 routing_carIn8642:1 emissions_carIn8642:1" vType="default_016" speedFactor="1.09" vaporized="">
        <emissions CO_abs="2469.074837" CO2_abs="170976.417593" HC_abs="15.214903" PMx_abs="2.873128" NOx_abs="68.535599" fuel_abs="73.495574" electricity_abs="0"/>
    </tripinfo>
    <tripinfo id="carIn107842:1" depart="57623.00" departLane="124812856#0_1" departPos="5.10" departSpeed="0.00" departDelay="1.90" arrival="57838.00" arrivalLane="-128361102#1_1" arrivalPos="274.68" arrivalSpeed="14.08" duration="215.00" routeLength="2250.49" waitingTime="17.00" waitingCount="2" stopTime="0.00" timeLoss="55.91" rerouteNo="1" devices="tripinfo_carIn107842:1 routing_carIn107842:1 emissions_carIn107842:1" vType="default_016" speedFactor="1.04" vaporized="">
        <emissions CO_abs="9296.547867" CO2_abs="577558.738169" HC_abs="55.869586" PMx_abs="10.142324" NOx_abs="234.314031" fuel_abs="248.268386" electricity_abs="0"/>
    </tripinfo>
    <tripinfo id="carIn81046:1" depart="57611.00" departLane="124812856#0_1" departPos="5.10" departSpeed="0.00" departDelay="2.50" arrival="57839.00" arrivalLane="-128361102#1_1" arrivalPos="274.68" arrivalSpeed="15.79" duration="228.00" routeLength="2232.46" waitingTime="30.00" waitingCount="2" stopTime="0.00" timeLoss="92.50" rerouteNo="1" devices="tripinfo_carIn81046:1 routing_carIn81046:1 emissions_carIn81046:1" vType="default_016" speedFactor="1.20" vaporized="">
        <emissions CO_abs="12971.020407" CO2_abs="688456.336913" HC_abs="75.357118" PMx_abs="13.115084" NOx_abs="286.548653" fuel_abs="295.938624" electricity_abs="0"/>
    </tripinfo>
    <tripinfo id="h3864c1:3" depart="57678.00" departLane="24693977#1_1" departPos="5.10" departSpeed="0.00" departDelay="0.00" arrival="57840.00" arrivalLane="201956820_1" arrivalPos="48.33" arrivalSpeed="14.93" duration="162.00" routeLength="1574.85" waitingTime="13.00" waitingCount="3" stopTime="0.00" timeLoss="46.93" rerouteNo="1" devices="tripinfo_h3864c1:3 routing_h3864c1:3 emissions_h3864c1:3" vType="default_016" speedFactor="1.12" vaporized="">
        <emissions CO_abs="7726.535819" CO2_abs="479407.959259" HC_abs="46.484823" PMx_abs="8.833085" NOx_abs="198.220000" fuel_abs="206.076731" electricity_abs="0"/>
    </tripinfo>
    <tripinfo id="carIn7949:1" depart="57676.00" departLane="128361109#1_1" departPos="5.10" departSpeed="0.00" departDelay="2.10" arrival="57842.00" arrivalLane="386687235_1" arrivalPos="80.84" arrivalSpeed="14.13" duration="166.00" routeLength="2088.57" waitingTime="6.00" waitingCount="1" stopTime="0.00" timeLoss="19.75" rerouteNo="1" devices="tripinfo_carIn7949:1 routing_carIn7949:1 emissions_carIn7949:1" vType="default_016" speedFactor="1.03" vaporized="">
        <emissions CO_abs="3802.125910" CO2_abs="371562.202698" HC_abs="25.905572" PMx_abs="5.653569" NOx_abs="143.064188" fuel_abs="159.718748" electricity_abs="0"/>
    </tripinfo>
    <tripinfo id="carIn12858:1" depart="57661.00" departLane="128361109#1_1" departPos="5.10" departSpeed="0.00" departDelay="0.90" arrival="57843.00" arrivalLane="399835085#1_1" arrivalPos="212.23" arrivalSpeed="6.46" duration="182.00" routeLength="1738.12" waitingTime="21.00" waitingCount="2" stopTime="0.00" timeLoss="54.65" rerouteNo="1" devices="tripinfo_carIn12858:1 routing_carIn12858:1 emissions_carIn12858:1" vType="default_016" speedFactor="0.90" vaporized="">
        <emissions CO_abs="10420.086716" CO2_abs="520575.886838" HC_abs="59.762962" PMx_abs="10.053275" NOx_abs="216.921737" fuel_abs="223.774208" electricity_abs="0"/>
    </tripinfo>
    <tripinfo id="carIn85747:1" depart="57673.00" departLane="128361109#1_1" departPos="5.10" departSpeed="0.00" departDelay="0.70" arrival="57845.00" arrivalLane="386687235_1" arrivalPos="80.84" arrivalSpeed="13.69" duration="172.00" routeLength="2088.57" waitingTime="5.00" waitingCount="1" stopTime="0.00" timeLoss="22.33" rerouteNo="1" devices="tripinfo_carIn85747:1 routing_carIn85747:1 emissions_carIn85747:1" vType="default_016" speedFactor="1.01" vaporized="">
        <emissions CO_abs="4273.309526" CO2_abs="390958.942241" HC_abs="28.548210" PMx_abs="6.063728" NOx_abs="151.873377" fuel_abs="168.056583" electricity_abs="0"/>
    </tripinfo>
    <tripinfo id="carIn102915:1" depart="57643.00" departLane="128361102#0_1" departPos="5.10" departSpeed="0.00" departDelay="0.40" arrival="57847.00" arrivalLane="201956811#0_1" arrivalPos="40.40" arrivalSpeed="11.22" duration="204.00" routeLength="2067.33" waitingTime="9.00" waitingCount="1" stopTime="0.00" timeLoss="30.33" rerouteNo="1" devices="tripinfo_carIn102915:1 routing_carIn102915:1 emissions_carIn102915:1" vType="default_016" speedFactor="0.87" vaporized="">
        <emissions CO_abs="6181.704971" CO2_abs="432313.553503" HC_abs="38.162047" PMx_abs="6.737334" NOx_abs="170.494392" fuel_abs="185.834127" electricity_abs="0"/>
    </tripinfo>