<?xml version="1.0" encoding="UTF-8"?>

<!-- generated on 2021-10-26 18:42:24 by Eclipse SUMO sumo Version 1.10.0
<configuration xmlns:xsi="http://www.w3.org/2001/XMLSchema-instance" xsi:noNamespaceSchemaLocation="http://sumo.dlr.de/xsd/sumoConfiguration.xsd">

    <input>
        <net-file value="/Users/behradkoohy/sumo-scratchpad/RESCO/environments/ingolstadt21/ingolstadt21.net.xml"/>
        <route-files value="/Users/behradkoohy/sumo-scratchpad/RESCO/environments/ingolstadt21/ingolstadt21.rou.xml"/>
    </input>

    <output>
        <tripinfo-output value="/Users/behradkoohy/sumo-scratchpad/RESCO/logs/IPPO-tr0-ingolstadt21-21-drq_norm-wait_norm/tripinfo_89.xml"/>
        <tripinfo-output.write-unfinished value="true"/>
    </output>

    <time>
        <begin value="57600"/>
        <end value="61200"/>
    </time>

    <processing>
        <time-to-teleport value="-1"/>
    </processing>

    <report>
        <no-warnings value="true"/>
        <no-step-log value="true"/>
    </report>

    <emissions>
        <device.emissions.probability value="1"/>
    </emissions>

    <traci_server>
        <remote-port value="62451"/>
    </traci_server>

    <random_number>
        <random value="true"/>
    </random_number>

</configuration>
-->

<tripinfos xmlns:xsi="http://www.w3.org/2001/XMLSchema-instance" xsi:noNamespaceSchemaLocation="http://sumo.dlr.de/xsd/tripinfo_file.xsd">
    <tripinfo id="h15454c2:3" depart="57612.00" departLane="24608844_1" departPos="5.10" departSpeed="0.00" departDelay="0.50" arrival="57658.00" arrivalLane="32978638#0_1" arrivalPos="49.29" arrivalSpeed="13.40" duration="46.00" routeLength="354.79" waitingTime="1.00" waitingCount="1" stopTime="0.00" timeLoss="12.51" rerouteNo="1" devices="tripinfo_h15454c2:3 routing_h15454c2:3 emissions_h15454c2:3" vType="default_016" speedFactor="1.03" vaporized="">
        <emissions CO_abs="2579.083421" CO2_abs="128124.354233" HC_abs="14.750937" PMx_abs="2.367546" NOx_abs="53.543797" fuel_abs="55.075491" electricity_abs="0"/>
    </tripinfo>
    <tripinfo id="carIn60260:1" depart="57606.00" departLane="315358254#0_1" departPos="5.10" departSpeed="0.00" departDelay="0.90" arrival="57668.00" arrivalLane="399835085#1_1" arrivalPos="212.23" arrivalSpeed="7.00" duration="62.00" routeLength="430.98" waitingTime="0.00" waitingCount="0" stopTime="0.00" timeLoss="9.96" rerouteNo="1" devices="tripinfo_carIn60260:1 routing_carIn60260:1 emissions_carIn60260:1" vType="default_016" speedFactor="0.89" vaporized="">
        <emissions CO_abs="2678.407021" CO2_abs="117736.386077" HC_abs="14.911426" PMx_abs="1.995856" NOx_abs="48.296828" fuel_abs="50.610634" electricity_abs="0"/>
    </tripinfo>
    <tripinfo id="carIn53971:1" depart="57640.00" departLane="272042143_1" departPos="5.10" departSpeed="0.00" departDelay="0.80" arrival="57690.00" arrivalLane="24634414#1_1" arrivalPos="162.19" arrivalSpeed="9.45" duration="50.00" routeLength="493.04" waitingTime="0.00" waitingCount="0" stopTime="0.00" timeLoss="10.04" rerouteNo="1" devices="tripinfo_carIn53971:1 routing_carIn53971:1 emissions_carIn53971:1" vType="default_016" speedFactor="1.16" vaporized="">
        <emissions CO_abs="2682.708336" CO2_abs="158891.063639" HC_abs="15.965356" PMx_abs="2.926005" NOx_abs="65.897330" fuel_abs="68.300478" electricity_abs="0"/>
    </tripinfo>
    <tripinfo id="h9563c2:5" depart="57631.00" departLane="315358244_1" departPos="5.10" departSpeed="0.00" departDelay="0.70" arrival="57715.00" arrivalLane="386687235_1" arrivalPos="80.84" arrivalSpeed="15.92" duration="84.00" routeLength="1186.14" waitingTime="0.00" waitingCount="0" stopTime="0.00" timeLoss="9.96" rerouteNo="1" devices="tripinfo_h9563c2:5 routing_h9563c2:5 emissions_h9563c2:5" vType="default_016" speedFactor="1.17" vaporized="">
        <emissions CO_abs="2829.482120" CO2_abs="263121.502836" HC_abs="18.740744" PMx_abs="4.336976" NOx_abs="102.859510" fuel_abs="113.104330" electricity_abs="0"/>
    </tripinfo>
    <tripinfo id="h12244c1:3" depart="57612.00" departLane="315358244_1" departPos="5.10" departSpeed="0.00" departDelay="0.40" arrival="57719.00" arrivalLane="386687235_1" arrivalPos="80.84" arrivalSpeed="14.68" duration="107.00" routeLength="1186.14" waitingTime="10.00" waitingCount="1" stopTime="0.00" timeLoss="25.28" rerouteNo="1" devices="tripinfo_h12244c1:3 routing_h12244c1:3 emissions_h12244c1:3" vType="default_016" speedFactor="1.06" vaporized="">
        <emissions CO_abs="4045.593564" CO2_abs="271495.963887" HC_abs="24.718258" PMx_abs="4.477943" NOx_abs="107.452482" fuel_abs="116.705023" electricity_abs="0"/>
    </tripinfo>
    <tripinfo id="h7181c1:1" depart="57660.00" departLane="315358254#0_1" departPos="5.10" departSpeed="0.00" departDelay="0.10" arrival="57719.00" arrivalLane="306240162#0_0" arrivalPos="220.43" arrivalSpeed="16.76" duration="59.00" routeLength="932.35" waitingTime="0.00" waitingCount="0" stopTime="0.00" timeLoss="8.97" rerouteNo="1" devices="tripinfo_h7181c1:1 routing_h7181c1:1 emissions_h7181c1:1" vType="default_016" speedFactor="1.03" vaporized="">
        <emissions CO_abs="3329.236316" CO2_abs="245447.884838" HC_abs="21.031042" PMx_abs="4.800183" NOx_abs="100.751497" fuel_abs="105.506719" electricity_abs="0"/>
    </tripinfo>
    <tripinfo id="h7800c1:5" depart="57696.00" departLane="-447569998#1_1" departPos="5.10" departSpeed="0.00" departDelay="0.00" arrival="57723.00" arrivalLane="-447569998#1_1" arrivalPos="180.76" arrivalSpeed="6.70" duration="27.00" routeLength="175.66" waitingTime="0.00" waitingCount="0" stopTime="0.00" timeLoss="3.09" rerouteNo="1" devices="tripinfo_h7800c1:5 routing_h7800c1:5 emissions_h7800c1:5" vType="default_016" speedFactor="0.89" vaporized="">
        <emissions CO_abs="1306.127227" CO2_abs="51994.371709" HC_abs="7.127784" PMx_abs="0.810371" NOx_abs="20.956540" fuel_abs="22.350714" electricity_abs="0"/>
    </tripinfo>
    <tripinfo id="S5R_frequency1.2" depart="57612.00" departLane="315358250#0_1" departPos="12.10" departSpeed="0.00" departDelay="0.40" arrival="57726.00" arrivalLane="386687235_1" arrivalPos="80.84" arrivalSpeed="13.62" duration="114.00" routeLength="1115.62" waitingTime="16.00" waitingCount="1" stopTime="0.00" timeLoss="32.23" rerouteNo="1" devices="tripinfo_S5R_frequency1.2 routing_S5R_frequency1.2 emissions_S5R_frequency1.2" vType="bus" speedFactor="1.00" vaporized="">
        <emissions CO_abs="2229.704123" CO2_abs="1313673.462398" HC_abs="480.411531" PMx_abs="237.482748" NOx_abs="10412.604044" fuel_abs="560.244813" electricity_abs="0"/>
    </tripinfo>
    <tripinfo id="h3688c1:1" depart="57625.00" departLane="201201950#1_1" departPos="5.10" departSpeed="0.00" departDelay="0.00" arrival="57732.00" arrivalLane="32978638#0_1" arrivalPos="49.29" arrivalSpeed="13.14" duration="107.00" routeLength="1089.75" waitingTime="10.00" waitingCount="1" stopTime="0.00" timeLoss="24.29" rerouteNo="1" devices="tripinfo_h3688c1:1 routing_h3688c1:1 emissions_h3688c1:1" vType="default_016" speedFactor="0.97" vaporized="">
        <emissions CO_abs="4875.307780" CO2_abs="282055.158341" HC_abs="28.814808" PMx_abs="4.939641" NOx_abs="114.573835" fuel_abs="121.244023" electricity_abs="0"/>
    </tripinfo>
    <tripinfo id="h3568c1:3" depart="57656.00" departLane="266565295#5_1" departPos="5.10" departSpeed="0.00" departDelay="0.80" arrival="57736.00" arrivalLane="-24634415_1" arrivalPos="62.03" arrivalSpeed="15.73" duration="80.00" routeLength="807.40" waitingTime="3.00" waitingCount="1" stopTime="0.00" timeLoss="23.21" rerouteNo="1" devices="tripinfo_h3568c1:3 routing_h3568c1:3 emissions_h3568c1:3" vType="default_016" speedFactor="1.14" vaporized="">
        <emissions CO_abs="4345.321885" CO2_abs="276483.042953" HC_abs="26.276379" PMx_abs="5.174968" NOx_abs="114.406697" fuel_abs="118.847909" electricity_abs="0"/>
    </tripinfo>
    <tripinfo id="h317c2:1" depart="57707.00" departLane="-32978638#0_1" departPos="5.10" departSpeed="0.00" departDelay="0.10" arrival="57742.00" arrivalLane="-266565295#5_1" arrivalPos="172.76" arrivalSpeed="17.10" duration="35.00" routeLength="370.53" waitingTime="2.00" waitingCount="1" stopTime="0.00" timeLoss="12.81" rerouteNo="1" devices="tripinfo_h317c2:1 routing_h317c2:1 emissions_h317c2:1" vType="default_016" speedFactor="1.26" vaporized="">
        <emissions CO_abs="2594.265977" CO2_abs="154602.339168" HC_abs="15.431156" PMx_abs="3.050046" NOx_abs="64.830796" fuel_abs="66.456662" electricity_abs="0"/>
    </tripinfo>
    <tripinfo id="h4538c1:1" depart="57701.00" departLane="-10427692#1_1" departPos="5.10" departSpeed="0.00" departDelay="0.00" arrival="57753.00" arrivalLane="-128361102#1_1" arrivalPos="274.68" arrivalSpeed="13.90" duration="52.00" routeLength="440.74" waitingTime="12.00" waitingCount="1" stopTime="0.00" timeLoss="22.86" rerouteNo="1" devices="tripinfo_h4538c1:1 routing_h4538c1:1 emissions_h4538c1:1" vType="default_016" speedFactor="1.08" vaporized="">
        <emissions CO_abs="2814.831768" CO2_abs="129351.619229" HC_abs="15.854992" PMx_abs="2.384692" NOx_abs="53.237135" fuel_abs="55.603313" electricity_abs="0"/>
    </tripinfo>
    <tripinfo id="h3154c1:1" depart="57658.00" departLane="24634507_1" departPos="5.10" departSpeed="0.00" departDelay="0.00" arrival="57754.00" arrivalLane="-266565295#5_1" arrivalPos="172.76" arrivalSpeed="16.49" duration="96.00" routeLength="1206.22" waitingTime="2.00" waitingCount="1" stopTime="0.00" timeLoss="21.77" rerouteNo="1" devices="tripinfo_h3154c1:1 routing_h3154c1:1 emissions_h3154c1:1" vType="default_016" speedFactor="1.20" vaporized="">
        <emissions CO_abs="4736.417904" CO2_abs="348200.811457" HC_abs="29.741085" PMx_abs="6.370295" NOx_abs="141.676689" fuel_abs="149.675970" electricity_abs="0"/>
    </tripinfo>
    <tripinfo id="carIn80064:1" depart="57603.00" departLane="128361109#1_1" departPos="5.10" departSpeed="0.00" departDelay="0.40" arrival="57757.00" arrivalLane="-315358254#1_1" arrivalPos="137.16" arrivalSpeed="12.40" duration="154.00" routeLength="1587.97" waitingTime="16.00" waitingCount="2" stopTime="0.00" timeLoss="54.47" rerouteNo="1" devices="tripinfo_carIn80064:1 routing_carIn80064:1 emissions_carIn80064:1" vType="default_016" speedFactor="0.90" vaporized="">
        <emissions CO_abs="8267.031062" CO2_abs="470159.462091" HC_abs="48.748976" PMx_abs="8.831587" NOx_abs="193.946847" fuel_abs="202.101692" electricity_abs="0"/>
    </tripinfo>
    <tripinfo id="carIn30817:1" depart="57681.00" departLane="315358244_1" departPos="5.10" departSpeed="0.00" departDelay="0.20" arrival="57761.00" arrivalLane="447569997#1_1" arrivalPos="180.93" arrivalSpeed="8.41" duration="80.00" routeLength="718.04" waitingTime="1.00" waitingCount="1" stopTime="0.00" timeLoss="19.44" rerouteNo="1" devices="tripinfo_carIn30817:1 routing_carIn30817:1 emissions_carIn30817:1" vType="default_016" speedFactor="1.01" vaporized="">
        <emissions CO_abs="3821.727155" CO2_abs="213755.701577" HC_abs="22.404717" PMx_abs="3.756338" NOx_abs="87.532359" fuel_abs="91.884893" electricity_abs="0"/>
    </tripinfo>
    <tripinfo id="carIn121703:1" depart="57647.00" departLane="386687232#0_1" departPos="5.10" departSpeed="0.00" departDelay="0.30" arrival="57771.00" arrivalLane="-315358244_1" arrivalPos="33.95" arrivalSpeed="13.98" duration="124.00" routeLength="1157.39" waitingTime="33.00" waitingCount="1" stopTime="0.00" timeLoss="45.90" rerouteNo="1" devices="tripinfo_carIn121703:1 routing_carIn121703:1 emissions_carIn121703:1" vType="default_016" speedFactor="1.08" vaporized="">
        <emissions CO_abs="7448.709579" CO2_abs="315401.530751" HC_abs="41.183151" PMx_abs="5.800281" NOx_abs="128.909111" fuel_abs="135.579634" electricity_abs="0"/>
    </tripinfo>
    <tripinfo id="h645c1:1" depart="57622.00" departLane="266565295#5_1" departPos="5.10" departSpeed="0.00" departDelay="0.40" arrival="57774.00" arrivalLane="-315358244_1" arrivalPos="33.95" arrivalSpeed="13.94" duration="152.00" routeLength="1910.83" waitingTime="0.00" waitingCount="0" stopTime="0.00" timeLoss="17.65" rerouteNo="1" devices="tripinfo_h645c1:1 routing_h645c1:1 emissions_h645c1:1" vType="default_016" speedFactor="1.03" vaporized="">
        <emissions CO_abs="4187.045087" CO2_abs="373777.982504" HC_abs="27.735676" PMx_abs="5.935618" NOx_abs="146.136866" fuel_abs="160.671084" electricity_abs="0"/>
    </tripinfo>
    <tripinfo id="h3326c1:2" depart="57656.00" departLane="22716069#0_1" departPos="5.10" departSpeed="0.00" departDelay="0.00" arrival="57779.00" arrivalLane="24634517#13_1" arrivalPos="111.62" arrivalSpeed="12.71" duration="123.00" routeLength="1312.81" waitingTime="0.00" waitingCount="0" stopTime="0.00" timeLoss="15.86" rerouteNo="1" devices="tripinfo_h3326c1:2 routing_h3326c1:2 emissions_h3326c1:2" vType="default_016" speedFactor="0.92" vaporized="">
        <emissions CO_abs="4431.381435" CO2_abs="315838.965641" HC_abs="27.521346" PMx_abs="5.049217" NOx_abs="125.368668" fuel_abs="135.766143" electricity_abs="0"/>
    </tripinfo>
    <tripinfo id="h330c1:1" depart="57736.00" departLane="-32978638#0_1" departPos="5.10" departSpeed="0.00" departDelay="0.20" arrival="57779.00" arrivalLane="-266565295#5_1" arrivalPos="172.76" arrivalSpeed="11.40" duration="43.00" routeLength="370.53" waitingTime="2.00" waitingCount="1" stopTime="0.00" timeLoss="10.29" rerouteNo="1" devices="tripinfo_h330c1:1 routing_h330c1:1 emissions_h330c1:1" vType="default_016" speedFactor="0.85" vaporized="">
        <emissions CO_abs="2004.276365" CO2_abs="112748.333866" HC_abs="11.746647" PMx_abs="1.892811" NOx_abs="45.712486" fuel_abs="48.466042" electricity_abs="0"/>
    </tripinfo>
    <tripinfo id="carIn28951:1" depart="57606.00" departLane="10425609#0_1" departPos="5.10" departSpeed="0.00" departDelay="0.20" arrival="57780.00" arrivalLane="-128361102#1_1" arrivalPos="274.68" arrivalSpeed="13.17" duration="174.00" routeLength="2113.04" waitingTime="0.00" waitingCount="0" stopTime="0.00" timeLoss="20.03" rerouteNo="1" devices="tripinfo_carIn28951:1 routing_carIn28951:1 emissions_carIn28951:1" vType="default_016" speedFactor="1.01" vaporized="">
        <emissions CO_abs="5100.304049" CO2_abs="434527.047811" HC_abs="33.290867" PMx_abs="6.954530" NOx_abs="170.916808" fuel_abs="186.784540" electricity_abs="0"/>
    </tripinfo>
    <tripinfo id="h5979c1:5" depart="57669.00" departLane="399835085#1_1" departPos="5.10" departSpeed="0.00" departDelay="0.00" arrival="57792.00" arrivalLane="-315358254#1_1" arrivalPos="137.16" arrivalSpeed="9.99" duration="123.00" routeLength="659.33" waitingTime="5.00" waitingCount="1" stopTime="0.00" timeLoss="22.09" rerouteNo="1" devices="tripinfo_h5979c1:5 routing_h5979c1:5 emissions_h5979c1:5" vType="default_016" speedFactor="0.72" vaporized="">
        <emissions CO_abs="5230.861162" CO2_abs="185076.493884" HC_abs="28.046637" PMx_abs="3.113928" NOx_abs="76.078115" fuel_abs="79.558599" electricity_abs="0"/>
    </tripinfo>
    <tripinfo id="carIn107282:1" depart="57749.00" departLane="-447569998#1_1" departPos="5.10" departSpeed="0.00" departDelay="0.00" arrival="57795.00" arrivalLane="315358242#0_1" arrivalPos="165.37" arrivalSpeed="13.99" duration="46.00" routeLength="448.50" waitingTime="0.00" waitingCount="0" stopTime="0.00" timeLoss="4.84" rerouteNo="1" devices="tripinfo_carIn107282:1 routing_carIn107282:1 emissions_carIn107282:1" vType="default_016" speedFactor="1.01" vaporized="">
        <emissions CO_abs="1859.559445" CO2_abs="111331.442223" HC_abs="11.046482" PMx_abs="1.792109" NOx_abs="44.448152" fuel_abs="47.857012" electricity_abs="0"/>
    </tripinfo>
    <tripinfo id="carIn22761:1" depart="57616.00" departLane="-306240162#1_0" departPos="5.10" departSpeed="0.00" departDelay="2.10" arrival="57796.00" arrivalLane="399835085#1_1" arrivalPos="212.23" arrivalSpeed="9.02" duration="180.00" routeLength="1093.26" waitingTime="82.00" waitingCount="3" stopTime="0.00" timeLoss="116.49" rerouteNo="1" devices="tripinfo_carIn22761:1 routing_carIn22761:1 emissions_carIn22761:1" vType="default_016" speedFactor="1.23" vaporized="">
        <emissions CO_abs="17514.354620" CO2_abs="557738.597071" HC_abs="93.050342" PMx_abs="12.171995" NOx_abs="242.426100" fuel_abs="239.752132" electricity_abs="0"/>
    </tripinfo>
    <tripinfo id="carIn27009:1" depart="57673.00" departLane="-447569998#1_1" departPos="5.10" departSpeed="0.00" departDelay="0.50" arrival="57798.00" arrivalLane="-26677539_1" arrivalPos="152.75" arrivalSpeed="6.45" duration="125.00" routeLength="699.63" waitingTime="8.00" waitingCount="1" stopTime="0.00" timeLoss="23.83" rerouteNo="1" devices="tripinfo_carIn27009:1 routing_carIn27009:1 emissions_carIn27009:1" vType="default_015" speedFactor="0.83" vaporized="">
        <emissions CO_abs="5922.811772" CO2_abs="214655.396527" HC_abs="31.871782" PMx_abs="3.583286" NOx_abs="88.073880" fuel_abs="92.273563" electricity_abs="0"/>
    </tripinfo>
    <tripinfo id="carIn50326:1" depart="57651.00" departLane="128361102#0_1" departPos="5.10" departSpeed="0.00" departDelay="0.30" arrival="57801.00" arrivalLane="18809673#0_1" arrivalPos="473.56" arrivalSpeed="13.46" duration="150.00" routeLength="1591.07" waitingTime="1.00" waitingCount="1" stopTime="0.00" timeLoss="25.13" rerouteNo="1" devices="tripinfo_carIn50326:1 routing_carIn50326:1 emissions_carIn50326:1" vType="default_016" speedFactor="1.04" vaporized="">
        <emissions CO_abs="5193.017973" CO2_abs="345775.608173" HC_abs="31.698447" PMx_abs="5.880980" NOx_abs="139.579687" fuel_abs="148.634410" electricity_abs="0"/>
    </tripinfo>
    <tripinfo id="carIn77943:1" depart="57608.00" departLane="124812856#0_1" departPos="5.10" departSpeed="0.00" departDelay="2.50" arrival="57802.00" arrivalLane="-128361102#1_1" arrivalPos="274.68" arrivalSpeed="15.13" duration="194.00" routeLength="2232.46" waitingTime="16.00" waitingCount="1" stopTime="0.00" timeLoss="54.93" rerouteNo="1" devices="tripinfo_carIn77943:1 routing_carIn77943:1 emissions_carIn77943:1" vType="default_016" speedFactor="1.17" vaporized="">
        <emissions CO_abs="9246.085497" CO2_abs="564812.649021" HC_abs="55.358607" PMx_abs="10.372375" NOx_abs="231.164307" fuel_abs="242.788893" electricity_abs="0"/>
    </tripinfo>
    <tripinfo id="carIn86816:1" depart="57617.00" departLane="128361102#0_1" departPos="5.10" departSpeed="0.00" departDelay="0.80" arrival="57803.00" arrivalLane="201956811#0_1" arrivalPos="40.40" arrivalSpeed="12.08" duration="186.00" routeLength="2067.33" waitingTime="0.00" waitingCount="0" stopTime="0.00" timeLoss="16.94" rerouteNo="1" devices="tripinfo_carIn86816:1 routing_carIn86816:1 emissions_carIn86816:1" vType="default_016" speedFactor="0.90" vaporized="">
        <emissions CO_abs="4969.724330" CO2_abs="399001.626532" HC_abs="31.861689" PMx_abs="6.009390" NOx_abs="155.493082" fuel_abs="171.514419" electricity_abs="0"/>
    </tripinfo>
    <tripinfo id="carIn118591:1" depart="57689.00" departLane="315358244_1" departPos="5.10" departSpeed="0.00" departDelay="0.20" arrival="57803.00" arrivalLane="386687235_1" arrivalPos="80.84" arrivalSpeed="14.10" duration="114.00" routeLength="1186.14" waitingTime="8.00" waitingCount="2" stopTime="0.00" timeLoss="30.86" rerouteNo="1" devices="tripinfo_carIn118591:1 routing_carIn118591:1 emissions_carIn118591:1" vType="default_016" speedFactor="1.04" vaporized="">
        <emissions CO_abs="4370.382506" CO2_abs="297210.229325" HC_abs="26.848472" PMx_abs="5.215718" NOx_abs="120.466406" fuel_abs="127.757922" electricity_abs="0"/>
    </tripinfo>
    <tripinfo id="carIn107084:1" depart="57601.00" departLane="124812856#0_1" departPos="5.10" departSpeed="0.00" departDelay="0.70" arrival="57807.00" arrivalLane="-128361102#1_1" arrivalPos="274.68" arrivalSpeed="14.18" duration="206.00" routeLength="2250.49" waitingTime="8.00" waitingCount="2" stopTime="0.00" timeLoss="48.39" rerouteNo="1" devices="tripinfo_carIn107084:1 routing_carIn107084:1 emissions_carIn107084:1" vType="default_016" speedFactor="1.04" vaporized="">
        <emissions CO_abs="7736.143693" CO2_abs="531967.840895" HC_abs="47.608619" PMx_abs="9.256355" NOx_abs="215.097859" fuel_abs="228.670185" electricity_abs="0"/>
    </tripinfo>
    <tripinfo id="carIn81046:1" depart="57611.00" departLane="124812856#0_1" departPos="5.10" departSpeed="0.00" departDelay="2.50" arrival="57812.00" arrivalLane="-128361102#1_1" arrivalPos="274.68" arrivalSpeed="12.79" duration="201.00" routeLength="2250.49" waitingTime="4.00" waitingCount="2" stopTime="0.00" timeLoss="29.66" rerouteNo="1" devices="tripinfo_carIn81046:1 routing_carIn81046:1 emissions_carIn81046:1" vType="default_016" speedFactor="0.96" vaporized="">
        <emissions CO_abs="6342.683279" CO2_abs="489672.646359" HC_abs="40.303666" PMx_abs="7.880227" NOx_abs="193.754283" fuel_abs="210.489639" electricity_abs="0"/>
    </tripinfo>
    <tripinfo id="carIn129809:1" depart="57729.00" departLane="-447569998#1_1" departPos="5.10" departSpeed="0.00" departDelay="1.00" arrival="57816.00" arrivalLane="-315358244_1" arrivalPos="33.95" arrivalSpeed="14.31" duration="87.00" routeLength="706.49" waitingTime="19.00" waitingCount="1" stopTime="0.00" timeLoss="29.18" rerouteNo="1" devices="tripinfo_carIn129809:1 routing_carIn129809:1 emissions_carIn129809:1" vType="default_015" speedFactor="1.05" vaporized="">
        <emissions CO_abs="4712.468344" CO2_abs="193742.517346" HC_abs="25.948065" PMx_abs="3.489797" NOx_abs="79.408679" fuel_abs="83.283021" electricity_abs="0"/>
    </tripinfo>
    <tripinfo id="h11737c1:1" depart="57665.00" departLane="272042143_1" departPos="5.10" departSpeed="0.00" departDelay="1.50" arrival="57818.00" arrivalLane="-315358254#1_1" arrivalPos="137.16" arrivalSpeed="12.98" duration="153.00" routeLength="1596.88" waitingTime="13.00" waitingCount="1" stopTime="0.00" timeLoss="28.18" rerouteNo="1" devices="tripinfo_h11737c1:1 routing_h11737c1:1 emissions_h11737c1:1" vType="default_016" speedFactor="0.94" vaporized="">
        <emissions CO_abs="5407.595005" CO2_abs="354859.215638" HC_abs="32.850150" PMx_abs="5.550162" NOx_abs="139.187001" fuel_abs="152.539985" electricity_abs="0"/>
    </tripinfo>
    <tripinfo id="carIn126288:1" depart="57674.00" departLane="272042143_1" departPos="5.10" departSpeed="0.00" departDelay="0.00" arrival="57819.00" arrivalLane="-315358254#1_1" arrivalPos="137.16" arrivalSpeed="13.72" duration="145.00" routeLength="1596.88" waitingTime="8.00" waitingCount="2" stopTime="0.00" timeLoss="29.87" rerouteNo="1" devices="tripinfo_carIn126288:1 routing_carIn126288:1 emissions_carIn126288:1" vType="default_016" speedFactor="1.01" vaporized="">
        <emissions CO_abs="5144.140122" CO2_abs="368327.420132" HC_abs="32.035497" PMx_abs="6.183372" NOx_abs="147.163061" fuel_abs="158.328387" electricity_abs="0"/>
    </tripinfo>
    <tripinfo id="h3864c1:3" depart="57678.00" departLane="24693977#1_1" departPos="5.10" departSpeed="0.00" departDelay="0.00" arrival="57819.00" arrivalLane="201956820_1" arrivalPos="48.33" arrivalSpeed="14.18" duration="141.00" routeLength="1574.85" waitingTime="1.00" waitingCount="1" stopTime="0.00" timeLoss="23.35" rerouteNo="1" devices="tripinfo_h3864c1:3 routing_h3864c1:3 emissions_h3864c1:3" vType="default_016" speedFactor="1.10" vaporized="">
        <emissions CO_abs="5586.990154" CO2_abs="386423.868410" HC_abs="34.457761" PMx_abs="6.838403" NOx_abs="157.281765" fuel_abs="166.106834" electricity_abs="0"/>
    </tripinfo>
    <tripinfo id="carIn12365:1" depart="57713.00" departLane="315358244_1" departPos="5.10" departSpeed="0.00" departDelay="0.50" arrival="57821.00" arrivalLane="447569997#1_1" arrivalPos="180.93" arrivalSpeed="4.88" duration="108.00" routeLength="718.04" waitingTime="8.00" waitingCount="2" stopTime="0.00" timeLoss="24.41" rerouteNo="1" devices="tripinfo_carIn12365:1 routing_carIn12365:1 emissions_carIn12365:1" vType="default_016" speedFactor="0.74" vaporized="">
        <emissions CO_abs="4053.418102" CO2_abs="183294.701418" HC_abs="22.656464" PMx_abs="2.927916" NOx_abs="73.831754" fuel_abs="78.791989" electricity_abs="0"/>
    </tripinfo>
    <tripinfo id="carIn102915:1" depart="57643.00" departLane="128361102#0_1" departPos="5.10" departSpeed="0.00" departDelay="0.40" arrival="57823.00" arrivalLane="201956811#0_1" arrivalPos="40.40" arrivalSpeed="13.77" duration="180.00" routeLength="2067.33" waitingTime="10.00" waitingCount="2" stopTime="0.00" timeLoss="36.95" rerouteNo="1" devices="tripinfo_carIn102915:1 routing_carIn102915:1 emissions_carIn102915:1" vType="default_016" speedFactor="1.06" vaporized="">
        <emissions CO_abs="6625.485865" CO2_abs="490349.068403" HC_abs="41.501195" PMx_abs="8.324507" NOx_abs="196.056073" fuel_abs="210.780020" electricity_abs="0"/>
    </tripinfo>
    <tripinfo id="carIn81860:1" depart="57712.00" departLane="128361102#0_1" departPos="5.10" departSpeed="0.00" departDelay="0.60" arrival="57825.00" arrivalLane="-24634517#17_1" arrivalPos="6.43" arrivalSpeed="7.29" duration="113.00" routeLength="1229.64" waitingTime="1.00" waitingCount="1" stopTime="0.00" timeLoss="24.69" rerouteNo="1" devices="tripinfo_carIn81860:1 routing_carIn81860:1 emissions_carIn81860:1" vType="default_016" speedFactor="1.02" vaporized="">
        <emissions CO_abs="4100.686948" CO2_abs="275636.669909" HC_abs="25.122912" PMx_abs="4.729248" NOx_abs="111.139168" fuel_abs="118.484575" electricity_abs="0"/>
    </tripinfo>
    <tripinfo id="randUni15030:1" depart="57735.00" departLane="386687232#0_1" departPos="5.10" departSpeed="0.00" departDelay="0.10" arrival="57831.00" arrivalLane="26677539_1" arrivalPos="151.98" arrivalSpeed="8.05" duration="96.00" routeLength="919.89" waitingTime="0.00" waitingCount="0" stopTime="0.00" timeLoss="9.66" rerouteNo="1" devices="tripinfo_randUni15030:1 routing_randUni15030:1 emissions_randUni15030:1" vType="random_016" speedFactor="0.97" vaporized="">
        <emissions CO_abs="3406.546950" CO2_abs="204386.772371" HC_abs="20.246759" PMx_abs="3.331696" NOx_abs="82.042778" fuel_abs="87.857752" electricity_abs="0"/>
    </tripinfo>
    <tripinfo id="carIn8642:1" depart="57774.00" departLane="-447569998#1_1" departPos="5.10" departSpeed="0.00" departDelay="0.90" arrival="57835.00" arrivalLane="-315358244_1" arrivalPos="33.95" arrivalSpeed="14.57" duration="61.00" routeLength="706.49" waitingTime="0.00" waitingCount="0" stopTime="0.00" timeLoss="6.22" rerouteNo="1" devices="tripinfo_carIn8642:1 routing_carIn8642:1 emissions_carIn8642:1" vType="default_016" speedFactor="1.10" vaporized="">
        <emissions CO_abs="1992.903217" CO2_abs="150650.444421" HC_abs="12.534378" PMx_abs="2.332249" NOx_abs="58.684889" fuel_abs="64.758482" electricity_abs="0"/>
    </tripinfo>
    <tripinfo id="carIn77438:1" depart="57615.00" departLane="124812856#0_1" departPos="5.10" departSpeed="0.00" departDelay="2.10" arrival="57837.00" arrivalLane="-128361102#1_1" arrivalPos="274.68" arrivalSpeed="12.75" duration="222.00" routeLength="2250.49" waitingTime="20.00" waitingCount="3" stopTime="0.00" timeLoss="52.46" rerouteNo="1" devices="tripinfo_carIn77438:1 routing_carIn77438:1 emissions_carIn77438:1" vType="default_016" speedFactor="0.97" vaporized="">
        <emissions CO_abs="8147.732764" CO2_abs="535829.772515" HC_abs="49.624458" PMx_abs="9.016395" NOx_abs="215.003416" fuel_abs="230.331027" electricity_abs="0"/>
    </tripinfo>
    <tripinfo id="h19804c1:3" depart="57618.00" departLane="124812856#0_1" departPos="5.10" departSpeed="0.00" departDelay="2.50" arrival="57839.00" arrivalLane="-128361102#1_1" arrivalPos="274.68" arrivalSpeed="12.91" duration="221.00" routeLength="2250.49" waitingTime="13.00" waitingCount="3" stopTime="0.00" timeLoss="55.32" rerouteNo="1" devices="tripinfo_h19804c1:3 routing_h19804c1:3 emissions_h19804c1:3" vType="default_016" speedFactor="0.99" vaporized="">
        <emissions CO_abs="8385.788491" CO2_abs="558387.437498" HC_abs="51.221677" PMx_abs="9.423573" NOx_abs="224.559109" fuel_abs="240.027464" electricity_abs="0"/>
    </tripinfo>
    <tripinfo id="randUni10474:1" depart="57605.00" departLane="124812856#0_1" departPos="5.10" departSpeed="0.00" departDelay="0.20" arrival="57844.00" arrivalLane="306240162#0_0" arrivalPos="220.43" arrivalSpeed="16.43" duration="239.00" routeLength="3049.32" waitingTime="9.00" waitingCount="1" stopTime="0.00" timeLoss="42.90" rerouteNo="1" devices="tripinfo_randUni10474:1 routing_randUni10474:1 emissions_randUni10474:1" vType="random_016" speedFactor="1.01" vaporized="">
        <emissions CO_abs="9925.706318" CO2_abs="720915.680803" HC_abs="62.251548" PMx_abs="13.197917" NOx_abs="292.641934" fuel_abs="309.889627" electricity_abs="0"/>
    </tripinfo>
    <tripinfo id="h15382c1:3" depart="57627.00" departLane="124812856#0_1" departPos="5.10" departSpeed="0.00" departDelay="4.80" arrival="57844.00" arrivalLane="-128361102#1_1" arrivalPos="274.68" arrivalSpeed="11.92" duration="217.00" routeLength="2250.49" waitingTime="0.00" waitingCount="0" stopTime="0.00" timeLoss="29.85" rerouteNo="1" devices="tripinfo_h15382c1:3 routing_h15382c1:3 emissions_h15382c1:3" vType="default_016" speedFactor="0.87" vaporized="">
        <emissions CO_abs="6800.197483" CO2_abs="489822.787909" HC_abs="42.322400" PMx_abs="7.681195" NOx_abs="193.711329" fuel_abs="210.554752" electricity_abs="0"/>
    </tripinfo>
    <tripinfo id="h17600c1:1" depart="57662.00" departLane="272042143_1" departPos="5.10" departSpeed="0.00" departDelay="0.30" arrival="57850.00" arrivalLane="201238729#3_1" arrivalPos="431.02" arrivalSpeed="15.00" duration="188.00" routeLength="2100.26" waitingTime="30.00" waitingCount="1" stopTime="0.00" timeLoss="47.56" rerouteNo="1" devices="tripinfo_h17600c1:1 routing_h17600c1:1 emissions_h17600c1:1" vType="default_016" speedFactor="1.08" vaporized="">
        <emissions CO_abs="8450.162822" CO2_abs="448471.387288" HC_abs="48.819279" PMx_abs="7.733420" NOx_abs="178.955734" fuel_abs="192.780584" electricity_abs="0"/>
    </tripinfo>