<?xml version="1.0" encoding="UTF-8"?>

<!-- generated on 2021-10-26 15:07:02 by Eclipse SUMO sumo Version 1.10.0
<configuration xmlns:xsi="http://www.w3.org/2001/XMLSchema-instance" xsi:noNamespaceSchemaLocation="http://sumo.dlr.de/xsd/sumoConfiguration.xsd">

    <input>
        <net-file value="/Users/behradkoohy/sumo-scratchpad/RESCO/environments/ingolstadt21/ingolstadt21.net.xml"/>
        <route-files value="/Users/behradkoohy/sumo-scratchpad/RESCO/environments/ingolstadt21/ingolstadt21.rou.xml"/>
    </input>

    <output>
        <tripinfo-output value="/Users/behradkoohy/sumo-scratchpad/RESCO/logs/IPPO-tr0-ingolstadt21-21-drq_norm-wait_norm/tripinfo_5.xml"/>
        <tripinfo-output.write-unfinished value="true"/>
    </output>

    <time>
        <begin value="57600"/>
        <end value="61200"/>
    </time>

    <processing>
        <time-to-teleport value="-1"/>
    </processing>

    <report>
        <no-warnings value="true"/>
        <no-step-log value="true"/>
    </report>

    <emissions>
        <device.emissions.probability value="1"/>
    </emissions>

    <traci_server>
        <remote-port value="60978"/>
    </traci_server>

    <random_number>
        <random value="true"/>
    </random_number>

</configuration>
-->

<tripinfos xmlns:xsi="http://www.w3.org/2001/XMLSchema-instance" xsi:noNamespaceSchemaLocation="http://sumo.dlr.de/xsd/tripinfo_file.xsd">
    <tripinfo id="h15454c2:3" depart="57612.00" departLane="24608844_1" departPos="5.10" departSpeed="0.00" departDelay="0.50" arrival="57668.00" arrivalLane="32978638#0_1" arrivalPos="49.29" arrivalSpeed="13.32" duration="56.00" routeLength="354.79" waitingTime="10.00" waitingCount="1" stopTime="0.00" timeLoss="22.19" rerouteNo="1" devices="tripinfo_h15454c2:3 routing_h15454c2:3 emissions_h15454c2:3" vType="default_016" speedFactor="1.03" vaporized="">
        <emissions CO_abs="3056.071647" CO2_abs="138489.204982" HC_abs="17.159755" PMx_abs="2.571655" NOx_abs="57.998241" fuel_abs="59.531128" electricity_abs="0"/>
    </tripinfo>
    <tripinfo id="carIn53971:1" depart="57640.00" departLane="272042143_1" departPos="5.10" departSpeed="0.00" departDelay="0.80" arrival="57696.00" arrivalLane="24634414#1_1" arrivalPos="162.19" arrivalSpeed="6.68" duration="56.00" routeLength="493.04" waitingTime="0.00" waitingCount="0" stopTime="0.00" timeLoss="7.97" rerouteNo="1" devices="tripinfo_carIn53971:1 routing_carIn53971:1 emissions_carIn53971:1" vType="default_016" speedFactor="0.96" vaporized="">
        <emissions CO_abs="2405.908367" CO2_abs="131979.338947" HC_abs="14.022327" PMx_abs="2.289981" NOx_abs="54.021712" fuel_abs="56.732621" electricity_abs="0"/>
    </tripinfo>
    <tripinfo id="h7800c1:5" depart="57696.00" departLane="-447569998#1_1" departPos="5.10" departSpeed="0.00" departDelay="0.00" arrival="57722.00" arrivalLane="-447569998#1_1" arrivalPos="180.76" arrivalSpeed="7.71" duration="26.00" routeLength="175.66" waitingTime="0.00" waitingCount="0" stopTime="0.00" timeLoss="3.89" rerouteNo="1" devices="tripinfo_h7800c1:5 routing_h7800c1:5 emissions_h7800c1:5" vType="default_016" speedFactor="0.96" vaporized="">
        <emissions CO_abs="1295.950990" CO2_abs="52901.947984" HC_abs="7.111154" PMx_abs="0.863436" NOx_abs="21.534978" fuel_abs="22.740768" electricity_abs="0"/>
    </tripinfo>
    <tripinfo id="h3688c1:1" depart="57625.00" departLane="201201950#1_1" departPos="5.10" departSpeed="0.00" departDelay="0.00" arrival="57735.00" arrivalLane="32978638#0_1" arrivalPos="49.29" arrivalSpeed="12.91" duration="110.00" routeLength="1089.75" waitingTime="15.00" waitingCount="1" stopTime="0.00" timeLoss="31.08" rerouteNo="1" devices="tripinfo_h3688c1:1 routing_h3688c1:1 emissions_h3688c1:1" vType="default_016" speedFactor="1.01" vaporized="">
        <emissions CO_abs="5349.412163" CO2_abs="285927.388960" HC_abs="31.065086" PMx_abs="5.092654" NOx_abs="116.561638" fuel_abs="122.908768" electricity_abs="0"/>
    </tripinfo>
    <tripinfo id="h4538c1:1" depart="57701.00" departLane="-10427692#1_1" departPos="5.10" departSpeed="0.00" departDelay="0.00" arrival="57738.00" arrivalLane="-128361102#1_1" arrivalPos="274.68" arrivalSpeed="14.20" duration="37.00" routeLength="440.74" waitingTime="0.00" waitingCount="0" stopTime="0.00" timeLoss="6.65" rerouteNo="1" devices="tripinfo_h4538c1:1 routing_h4538c1:1 emissions_h4538c1:1" vType="default_016" speedFactor="1.05" vaporized="">
        <emissions CO_abs="1557.799946" CO2_abs="114069.803317" HC_abs="9.757449" PMx_abs="1.921782" NOx_abs="45.600096" fuel_abs="49.033747" electricity_abs="0"/>
    </tripinfo>
    <tripinfo id="h3568c1:3" depart="57656.00" departLane="266565295#5_1" departPos="5.10" departSpeed="0.00" departDelay="0.80" arrival="57742.00" arrivalLane="-24634415_1" arrivalPos="62.03" arrivalSpeed="16.00" duration="86.00" routeLength="807.40" waitingTime="12.00" waitingCount="1" stopTime="0.00" timeLoss="33.03" rerouteNo="1" devices="tripinfo_h3568c1:3 routing_h3568c1:3 emissions_h3568c1:3" vType="default_016" speedFactor="1.21" vaporized="">
        <emissions CO_abs="5366.859429" CO2_abs="290619.347009" HC_abs="31.330258" PMx_abs="5.621536" NOx_abs="121.565038" fuel_abs="124.924889" electricity_abs="0"/>
    </tripinfo>
    <tripinfo id="carIn22761:1" depart="57616.00" departLane="-306240162#1_0" departPos="5.10" departSpeed="0.00" departDelay="2.10" arrival="57743.00" arrivalLane="399835085#1_1" arrivalPos="212.23" arrivalSpeed="8.00" duration="127.00" routeLength="1093.26" waitingTime="23.00" waitingCount="2" stopTime="0.00" timeLoss="49.84" rerouteNo="1" devices="tripinfo_carIn22761:1 routing_carIn22761:1 emissions_carIn22761:1" vType="default_016" speedFactor="1.02" vaporized="">
        <emissions CO_abs="8735.109070" CO2_abs="388075.072067" HC_abs="48.976367" PMx_abs="7.787919" NOx_abs="163.774162" fuel_abs="166.817906" electricity_abs="0"/>
    </tripinfo>
    <tripinfo id="h317c2:1" depart="57707.00" departLane="-32978638#0_1" departPos="5.10" departSpeed="0.00" departDelay="0.10" arrival="57746.00" arrivalLane="-266565295#5_1" arrivalPos="172.76" arrivalSpeed="12.62" duration="39.00" routeLength="370.53" waitingTime="0.00" waitingCount="0" stopTime="0.00" timeLoss="9.44" rerouteNo="1" devices="tripinfo_h317c2:1 routing_h317c2:1 emissions_h317c2:1" vType="default_016" speedFactor="0.93" vaporized="">
        <emissions CO_abs="2052.898681" CO2_abs="118147.556088" HC_abs="12.118729" PMx_abs="2.095105" NOx_abs="48.476257" fuel_abs="50.786758" electricity_abs="0"/>
    </tripinfo>
    <tripinfo id="carIn121703:1" depart="57647.00" departLane="386687232#0_1" departPos="5.10" departSpeed="0.00" departDelay="0.30" arrival="57752.00" arrivalLane="-315358244_1" arrivalPos="33.95" arrivalSpeed="16.32" duration="105.00" routeLength="1157.39" waitingTime="19.00" waitingCount="2" stopTime="0.00" timeLoss="36.36" rerouteNo="1" devices="tripinfo_carIn121703:1 routing_carIn121703:1 emissions_carIn121703:1" vType="default_016" speedFactor="1.22" vaporized="">
        <emissions CO_abs="5471.281388" CO2_abs="305787.926552" HC_abs="31.869820" PMx_abs="5.686961" NOx_abs="124.619575" fuel_abs="131.445549" electricity_abs="0"/>
    </tripinfo>
    <tripinfo id="h12244c1:3" depart="57612.00" departLane="315358244_1" departPos="5.10" departSpeed="0.00" departDelay="0.40" arrival="57758.00" arrivalLane="386687235_1" arrivalPos="80.84" arrivalSpeed="11.72" duration="146.00" routeLength="1186.14" waitingTime="39.00" waitingCount="1" stopTime="0.00" timeLoss="51.82" rerouteNo="1" devices="tripinfo_h12244c1:3 routing_h12244c1:3 emissions_h12244c1:3" vType="default_016" speedFactor="0.92" vaporized="">
        <emissions CO_abs="9049.196287" CO2_abs="348200.055787" HC_abs="49.308680" PMx_abs="6.257290" NOx_abs="142.554007" fuel_abs="149.679361" electricity_abs="0"/>
    </tripinfo>
    <tripinfo id="h5979c1:5" depart="57669.00" departLane="399835085#1_1" departPos="5.10" departSpeed="0.00" departDelay="0.00" arrival="57761.00" arrivalLane="-315358254#1_1" arrivalPos="137.16" arrivalSpeed="11.62" duration="92.00" routeLength="659.33" waitingTime="0.00" waitingCount="0" stopTime="0.00" timeLoss="10.07" rerouteNo="1" devices="tripinfo_h5979c1:5 routing_h5979c1:5 emissions_h5979c1:5" vType="default_016" speedFactor="0.90" vaporized="">
        <emissions CO_abs="3738.875376" CO2_abs="170192.199611" HC_abs="20.900408" PMx_abs="2.602025" NOx_abs="67.924731" fuel_abs="73.159825" electricity_abs="0"/>
    </tripinfo>
    <tripinfo id="carIn60260:1" depart="57606.00" departLane="315358254#0_1" departPos="5.10" departSpeed="0.00" departDelay="0.90" arrival="57765.00" arrivalLane="399835085#1_1" arrivalPos="212.23" arrivalSpeed="7.54" duration="159.00" routeLength="430.98" waitingTime="100.00" waitingCount="1" stopTime="0.00" timeLoss="111.10" rerouteNo="1" devices="tripinfo_carIn60260:1 routing_carIn60260:1 emissions_carIn60260:1" vType="default_016" speedFactor="0.96" vaporized="">
        <emissions CO_abs="18083.330157" CO2_abs="370049.557742" HC_abs="90.986141" PMx_abs="8.286572" NOx_abs="163.708510" fuel_abs="159.076292" electricity_abs="0"/>
    </tripinfo>
    <tripinfo id="h3326c1:2" depart="57656.00" departLane="22716069#0_1" departPos="5.10" departSpeed="0.00" departDelay="0.00" arrival="57767.00" arrivalLane="24634517#13_1" arrivalPos="111.62" arrivalSpeed="13.03" duration="111.00" routeLength="1312.81" waitingTime="0.00" waitingCount="0" stopTime="0.00" timeLoss="15.69" rerouteNo="1" devices="tripinfo_h3326c1:2 routing_h3326c1:2 emissions_h3326c1:2" vType="default_016" speedFactor="1.03" vaporized="">
        <emissions CO_abs="4165.778579" CO2_abs="311042.417022" HC_abs="26.283407" PMx_abs="5.330303" NOx_abs="125.253107" fuel_abs="133.703643" electricity_abs="0"/>
    </tripinfo>
    <tripinfo id="h9563c2:5" depart="57631.00" departLane="315358244_1" departPos="5.10" departSpeed="0.00" departDelay="0.70" arrival="57773.00" arrivalLane="386687235_1" arrivalPos="80.84" arrivalSpeed="14.65" duration="142.00" routeLength="1186.14" waitingTime="33.00" waitingCount="2" stopTime="0.00" timeLoss="62.61" rerouteNo="1" devices="tripinfo_h9563c2:5 routing_h9563c2:5 emissions_h9563c2:5" vType="default_016" speedFactor="1.10" vaporized="">
        <emissions CO_abs="8329.505224" CO2_abs="369247.093811" HC_abs="46.591155" PMx_abs="6.860125" NOx_abs="152.865717" fuel_abs="158.725313" electricity_abs="0"/>
    </tripinfo>
    <tripinfo id="h330c1:1" depart="57736.00" departLane="-32978638#0_1" departPos="5.10" departSpeed="0.00" departDelay="0.20" arrival="57776.00" arrivalLane="-266565295#5_1" arrivalPos="172.76" arrivalSpeed="12.77" duration="40.00" routeLength="370.53" waitingTime="2.00" waitingCount="1" stopTime="0.00" timeLoss="10.53" rerouteNo="1" devices="tripinfo_h330c1:1 routing_h330c1:1 emissions_h330c1:1" vType="default_016" speedFactor="0.92" vaporized="">
        <emissions CO_abs="2005.975800" CO2_abs="118642.884606" HC_abs="11.916096" PMx_abs="2.091399" NOx_abs="48.590530" fuel_abs="50.999652" electricity_abs="0"/>
    </tripinfo>
    <tripinfo id="S5R_frequency1.2" depart="57666.00" departLane="315358250#0_1" departPos="12.10" departSpeed="0.00" departDelay="54.40" arrival="57778.00" arrivalLane="386687235_1" arrivalPos="80.84" arrivalSpeed="13.43" duration="112.00" routeLength="1115.62" waitingTime="10.00" waitingCount="1" stopTime="0.00" timeLoss="30.83" rerouteNo="1" devices="tripinfo_S5R_frequency1.2 routing_S5R_frequency1.2 emissions_S5R_frequency1.2" vType="bus" speedFactor="1.00" vaporized="">
        <emissions CO_abs="2158.175424" CO2_abs="1308179.401028" HC_abs="454.931122" PMx_abs="230.186435" NOx_abs="10273.353481" fuel_abs="557.906327" electricity_abs="0"/>
    </tripinfo>
    <tripinfo id="h645c1:1" depart="57622.00" departLane="266565295#5_1" departPos="5.10" departSpeed="0.00" departDelay="0.40" arrival="57785.00" arrivalLane="-315358244_1" arrivalPos="33.95" arrivalSpeed="12.58" duration="163.00" routeLength="1910.83" waitingTime="6.00" waitingCount="1" stopTime="0.00" timeLoss="22.65" rerouteNo="1" devices="tripinfo_h645c1:1 routing_h645c1:1 emissions_h645c1:1" vType="default_016" speedFactor="0.99" vaporized="">
        <emissions CO_abs="4547.868828" CO2_abs="365347.125189" HC_abs="29.197635" PMx_abs="5.709020" NOx_abs="142.731181" fuel_abs="157.047511" electricity_abs="0"/>
    </tripinfo>
    <tripinfo id="carIn27009:1" depart="57673.00" departLane="-447569998#1_1" departPos="5.10" departSpeed="0.00" departDelay="0.50" arrival="57786.00" arrivalLane="-26677539_1" arrivalPos="152.75" arrivalSpeed="7.25" duration="113.00" routeLength="699.63" waitingTime="11.00" waitingCount="1" stopTime="0.00" timeLoss="25.64" rerouteNo="1" devices="tripinfo_carIn27009:1 routing_carIn27009:1 emissions_carIn27009:1" vType="default_015" speedFactor="0.96" vaporized="">
        <emissions CO_abs="5108.140305" CO2_abs="210805.196367" HC_abs="28.073738" PMx_abs="3.382565" NOx_abs="85.338137" fuel_abs="90.618114" electricity_abs="0"/>
    </tripinfo>
    <tripinfo id="h16072c2:3" depart="57663.00" departLane="315358254#0_1" departPos="5.10" departSpeed="0.00" departDelay="2.50" arrival="57791.00" arrivalLane="386687235_1" arrivalPos="80.84" arrivalSpeed="14.42" duration="128.00" routeLength="1611.92" waitingTime="4.00" waitingCount="1" stopTime="0.00" timeLoss="19.13" rerouteNo="1" devices="tripinfo_h16072c2:3 routing_h16072c2:3 emissions_h16072c2:3" vType="default_016" speedFactor="1.09" vaporized="">
        <emissions CO_abs="3569.561641" CO2_abs="328585.507426" HC_abs="23.755749" PMx_abs="5.173532" NOx_abs="127.414413" fuel_abs="141.244811" electricity_abs="0"/>
    </tripinfo>
    <tripinfo id="carIn80064:1" depart="57603.00" departLane="128361109#1_1" departPos="5.10" departSpeed="0.00" departDelay="0.40" arrival="57797.00" arrivalLane="-315358254#1_1" arrivalPos="137.16" arrivalSpeed="13.76" duration="194.00" routeLength="1587.97" waitingTime="73.00" waitingCount="2" stopTime="0.00" timeLoss="104.16" rerouteNo="1" devices="tripinfo_carIn80064:1 routing_carIn80064:1 emissions_carIn80064:1" vType="default_016" speedFactor="1.00" vaporized="">
        <emissions CO_abs="16804.511162" CO2_abs="616360.883033" HC_abs="91.149198" PMx_abs="12.688014" NOx_abs="260.818394" fuel_abs="264.950986" electricity_abs="0"/>
    </tripinfo>
    <tripinfo id="h3154c1:1" depart="57658.00" departLane="24634507_1" departPos="5.10" departSpeed="0.00" departDelay="0.00" arrival="57799.00" arrivalLane="-266565295#5_1" arrivalPos="172.76" arrivalSpeed="11.61" duration="141.00" routeLength="1206.22" waitingTime="23.00" waitingCount="1" stopTime="0.00" timeLoss="41.57" rerouteNo="1" devices="tripinfo_h3154c1:1 routing_h3154c1:1 emissions_h3154c1:1" vType="default_016" speedFactor="0.90" vaporized="">
        <emissions CO_abs="6872.779917" CO2_abs="316187.732721" HC_abs="38.656625" PMx_abs="5.519790" NOx_abs="128.836649" fuel_abs="135.917404" electricity_abs="0"/>
    </tripinfo>
    <tripinfo id="carIn107282:1" depart="57749.00" departLane="-447569998#1_1" departPos="5.10" departSpeed="0.00" departDelay="0.00" arrival="57799.00" arrivalLane="315358242#0_1" arrivalPos="165.37" arrivalSpeed="12.84" duration="50.00" routeLength="448.50" waitingTime="0.00" waitingCount="0" stopTime="0.00" timeLoss="6.04" rerouteNo="1" devices="tripinfo_carIn107282:1 routing_carIn107282:1 emissions_carIn107282:1" vType="default_016" speedFactor="0.95" vaporized="">
        <emissions CO_abs="1989.927807" CO2_abs="111505.044882" HC_abs="11.631839" PMx_abs="1.758292" NOx_abs="44.369127" fuel_abs="47.931793" electricity_abs="0"/>
    </tripinfo>
    <tripinfo id="carIn77943:1" depart="57608.00" departLane="124812856#0_1" departPos="5.10" departSpeed="0.00" departDelay="2.50" arrival="57806.00" arrivalLane="-128361102#1_1" arrivalPos="274.68" arrivalSpeed="14.96" duration="198.00" routeLength="2232.46" waitingTime="15.00" waitingCount="1" stopTime="0.00" timeLoss="56.02" rerouteNo="1" devices="tripinfo_carIn77943:1 routing_carIn77943:1 emissions_carIn77943:1" vType="default_016" speedFactor="1.15" vaporized="">
        <emissions CO_abs="8456.065945" CO2_abs="561921.672176" HC_abs="51.461905" PMx_abs="9.832704" NOx_abs="226.277535" fuel_abs="241.546320" electricity_abs="0"/>
    </tripinfo>
    <tripinfo id="h11737c1:1" depart="57665.00" departLane="272042143_1" departPos="5.10" departSpeed="0.00" departDelay="1.50" arrival="57808.00" arrivalLane="-315358254#1_1" arrivalPos="137.16" arrivalSpeed="13.03" duration="143.00" routeLength="1596.88" waitingTime="7.00" waitingCount="1" stopTime="0.00" timeLoss="22.85" rerouteNo="1" devices="tripinfo_h11737c1:1 routing_h11737c1:1 emissions_h11737c1:1" vType="default_016" speedFactor="0.97" vaporized="">
        <emissions CO_abs="4576.269667" CO2_abs="324291.211098" HC_abs="28.398353" PMx_abs="5.364430" NOx_abs="129.166511" fuel_abs="139.399232" electricity_abs="0"/>
    </tripinfo>
    <tripinfo id="carIn12858:1" depart="57661.00" departLane="128361109#1_1" departPos="5.10" departSpeed="0.00" departDelay="0.90" arrival="57817.00" arrivalLane="399835085#1_1" arrivalPos="212.23" arrivalSpeed="7.31" duration="156.00" routeLength="1738.12" waitingTime="3.00" waitingCount="1" stopTime="0.00" timeLoss="33.38" rerouteNo="1" devices="tripinfo_carIn12858:1 routing_carIn12858:1 emissions_carIn12858:1" vType="default_016" speedFactor="0.93" vaporized="">
        <emissions CO_abs="7457.485479" CO2_abs="476292.674050" HC_abs="45.265805" PMx_abs="8.912399" NOx_abs="195.906319" fuel_abs="204.737411" electricity_abs="0"/>
    </tripinfo>
    <tripinfo id="h17600c1:1" depart="57662.00" departLane="272042143_1" departPos="5.10" departSpeed="0.00" departDelay="0.30" arrival="57818.00" arrivalLane="201238729#3_1" arrivalPos="431.02" arrivalSpeed="13.72" duration="156.00" routeLength="2100.26" waitingTime="0.00" waitingCount="0" stopTime="0.00" timeLoss="12.98" rerouteNo="1" devices="tripinfo_h17600c1:1 routing_h17600c1:1 emissions_h17600c1:1" vType="default_016" speedFactor="1.06" vaporized="">
        <emissions CO_abs="3440.902124" CO2_abs="344191.472717" HC_abs="23.524776" PMx_abs="5.312735" NOx_abs="132.736782" fuel_abs="147.953059" electricity_abs="0"/>
    </tripinfo>
    <tripinfo id="h7181c1:1" depart="57660.00" departLane="315358254#0_1" departPos="5.10" departSpeed="0.00" departDelay="0.10" arrival="57819.00" arrivalLane="306240162#0_0" arrivalPos="220.43" arrivalSpeed="16.23" duration="159.00" routeLength="932.35" waitingTime="84.00" waitingCount="2" stopTime="0.00" timeLoss="109.34" rerouteNo="1" devices="tripinfo_h7181c1:1 routing_h7181c1:1 emissions_h7181c1:1" vType="default_016" speedFactor="1.03" vaporized="">
        <emissions CO_abs="17502.520019" CO2_abs="532703.526694" HC_abs="92.280429" PMx_abs="11.582101" NOx_abs="230.301363" fuel_abs="228.991249" electricity_abs="0"/>
    </tripinfo>
    <tripinfo id="carIn12152:1" depart="57647.00" departLane="24599188#0.94_1" departPos="5.10" departSpeed="0.00" departDelay="0.50" arrival="57836.00" arrivalLane="-315358254#1_1" arrivalPos="137.16" arrivalSpeed="14.39" duration="189.00" routeLength="2034.31" waitingTime="17.00" waitingCount="2" stopTime="0.00" timeLoss="39.32" rerouteNo="1" devices="tripinfo_carIn12152:1 routing_carIn12152:1 emissions_carIn12152:1" vType="default_016" speedFactor="1.06" vaporized="">
        <emissions CO_abs="6436.808529" CO2_abs="431760.778480" HC_abs="39.246592" PMx_abs="7.078242" NOx_abs="170.857633" fuel_abs="185.596349" electricity_abs="0"/>
    </tripinfo>
    <tripinfo id="carIn28951:1" depart="57606.00" departLane="10425609#0_1" departPos="5.10" departSpeed="0.00" departDelay="0.20" arrival="57837.00" arrivalLane="-128361102#1_1" arrivalPos="274.68" arrivalSpeed="13.20" duration="231.00" routeLength="2113.04" waitingTime="39.00" waitingCount="3" stopTime="0.00" timeLoss="69.54" rerouteNo="1" devices="tripinfo_carIn28951:1 routing_carIn28951:1 emissions_carIn28951:1" vType="default_016" speedFactor="0.96" vaporized="">
        <emissions CO_abs="10672.093566" CO2_abs="535496.987549" HC_abs="61.114982" PMx_abs="9.459460" NOx_abs="218.145878" fuel_abs="230.189416" electricity_abs="0"/>
    </tripinfo>
    <tripinfo id="carIn7949:1" depart="57676.00" departLane="128361109#1_1" departPos="5.10" departSpeed="0.00" departDelay="2.10" arrival="57837.00" arrivalLane="386687235_1" arrivalPos="80.84" arrivalSpeed="13.47" duration="161.00" routeLength="2088.57" waitingTime="0.00" waitingCount="0" stopTime="0.00" timeLoss="10.68" rerouteNo="1" devices="tripinfo_carIn7949:1 routing_carIn7949:1 emissions_carIn7949:1" vType="default_016" speedFactor="1.00" vaporized="">
        <emissions CO_abs="2977.924881" CO2_abs="341836.875352" HC_abs="21.378200" PMx_abs="4.738323" NOx_abs="128.182497" fuel_abs="146.941402" electricity_abs="0"/>
    </tripinfo>
    <tripinfo id="h19804c1:3" depart="57617.00" departLane="124812856#0_1" departPos="5.10" departSpeed="0.00" departDelay="1.50" arrival="57838.00" arrivalLane="-128361102#1_1" arrivalPos="274.68" arrivalSpeed="14.91" duration="221.00" routeLength="2250.49" waitingTime="24.00" waitingCount="2" stopTime="0.00" timeLoss="72.73" rerouteNo="1" devices="tripinfo_h19804c1:3 routing_h19804c1:3 emissions_h19804c1:3" vType="default_016" speedFactor="1.10" vaporized="">
        <emissions CO_abs="10660.913863" CO2_abs="637219.083812" HC_abs="63.550811" PMx_abs="11.570097" NOx_abs="261.354867" fuel_abs="273.913606" electricity_abs="0"/>
    </tripinfo>
    <tripinfo id="randUni31145:1" depart="57814.00" departLane="10425609#0_1" departPos="5.10" departSpeed="0.00" departDelay="0.30" arrival="57838.00" arrivalLane="201956810_1" arrivalPos="71.65" arrivalSpeed="14.96" duration="24.00" routeLength="255.78" waitingTime="0.00" waitingCount="0" stopTime="0.00" timeLoss="5.54" rerouteNo="1" devices="tripinfo_randUni31145:1 routing_randUni31145:1 emissions_randUni31145:1" vType="random_016" speedFactor="1.10" vaporized="">
        <emissions CO_abs="1658.000111" CO2_abs="100989.255774" HC_abs="9.940989" PMx_abs="1.960494" NOx_abs="42.433213" fuel_abs="43.410779" electricity_abs="0"/>
    </tripinfo>
    <tripinfo id="randUni15030:1" depart="57735.00" departLane="386687232#0_1" departPos="5.10" departSpeed="0.00" departDelay="0.10" arrival="57843.00" arrivalLane="26677539_1" arrivalPos="151.98" arrivalSpeed="7.53" duration="108.00" routeLength="919.89" waitingTime="6.00" waitingCount="1" stopTime="0.00" timeLoss="19.18" rerouteNo="1" devices="tripinfo_randUni15030:1 routing_randUni15030:1 emissions_randUni15030:1" vType="random_016" speedFactor="0.94" vaporized="">
        <emissions CO_abs="4182.437920" CO2_abs="225637.306021" HC_abs="24.294753" PMx_abs="3.843195" NOx_abs="91.772794" fuel_abs="96.992608" electricity_abs="0"/>
    </tripinfo>
    <tripinfo id="carIn86816:1" depart="57617.00" departLane="128361102#0_1" departPos="5.10" departSpeed="0.00" departDelay="0.80" arrival="57849.00" arrivalLane="201956811#0_1" arrivalPos="40.40" arrivalSpeed="13.88" duration="232.00" routeLength="2067.33" waitingTime="56.00" waitingCount="4" stopTime="0.00" timeLoss="92.97" rerouteNo="1" devices="tripinfo_carIn86816:1 routing_carIn86816:1 emissions_carIn86816:1" vType="default_016" speedFactor="1.08" vaporized="">
        <emissions CO_abs="13873.437700" CO2_abs="613112.908508" HC_abs="77.529682" PMx_abs="11.723391" NOx_abs="254.905369" fuel_abs="263.553591" electricity_abs="0"/>
    </tripinfo>
    <tripinfo id="carIn102915:1" depart="57643.00" departLane="128361102#0_1" departPos="5.10" departSpeed="0.00" departDelay="0.40" arrival="57852.00" arrivalLane="201956811#0_1" arrivalPos="40.40" arrivalSpeed="16.21" duration="209.00" routeLength="2067.33" waitingTime="28.00" waitingCount="4" stopTime="0.00" timeLoss="81.45" rerouteNo="1" devices="tripinfo_carIn102915:1 routing_carIn102915:1 emissions_carIn102915:1" vType="default_016" speedFactor="1.19" vaporized="">
        <emissions CO_abs="11002.127885" CO2_abs="609322.427200" HC_abs="64.426093" PMx_abs="11.427397" NOx_abs="251.347284" fuel_abs="261.922225" electricity_abs="0"/>
    </tripinfo>
    <tripinfo id="randUni2407:1" depart="57820.00" departLane="10425609#0_1" departPos="5.10" departSpeed="0.00" departDelay="0.80" arrival="57852.00" arrivalLane="201956810_1" arrivalPos="71.65" arrivalSpeed="11.77" duration="32.00" routeLength="255.78" waitingTime="2.00" waitingCount="1" stopTime="0.00" timeLoss="10.60" rerouteNo="1" devices="tripinfo_randUni2407:1 routing_randUni2407:1 emissions_randUni2407:1" vType="random_016" speedFactor="0.92" vaporized="">
        <emissions CO_abs="1929.838135" CO2_abs="97861.451971" HC_abs="11.088283" PMx_abs="1.820185" NOx_abs="40.944025" fuel_abs="42.066641" electricity_abs="0"/>
    </tripinfo>
    <tripinfo id="carIn48184:1" depart="57613.00" departLane="-306240162#1_0" departPos="5.10" departSpeed="0.00" departDelay="0.70" arrival="57853.00" arrivalLane="386687235_2" arrivalPos="80.84" arrivalSpeed="14.99" duration="240.00" routeLength="2257.41" waitingTime="50.00" waitingCount="4" stopTime="0.00" timeLoss="105.66" rerouteNo="1" devices="tripinfo_carIn48184:1 routing_carIn48184:1 emissions_carIn48184:1" vType="default_016" speedFactor="1.11" vaporized="">
        <emissions CO_abs="16978.182501" CO2_abs="781459.953247" HC_abs="95.805868" PMx_abs="15.552591" NOx_abs="327.557758" fuel_abs="335.918098" electricity_abs="0"/>
    </tripinfo>
    <tripinfo id="randUni33724:1" depart="57646.00" departLane="128361102#0_1" departPos="5.10" departSpeed="0.00" departDelay="1.20" arrival="57854.00" arrivalLane="201956811#0_1" arrivalPos="40.40" arrivalSpeed="12.79" duration="208.00" routeLength="2067.33" waitingTime="18.00" waitingCount="3" stopTime="0.00" timeLoss="54.05" rerouteNo="1" devices="tripinfo_randUni33724:1 routing_randUni33724:1 emissions_randUni33724:1" vType="random_016" speedFactor="0.98" vaporized="">
        <emissions CO_abs="8029.100078" CO2_abs="510853.736651" HC_abs="48.466646" PMx_abs="8.623143" NOx_abs="204.971505" fuel_abs="219.595059" electricity_abs="0"/>
    </tripinfo>
    <tripinfo id="carIn30817:1" depart="57681.00" departLane="315358244_1" departPos="5.10" departSpeed="0.00" departDelay="0.20" arrival="57854.00" arrivalLane="447569997#1_1" arrivalPos="180.93" arrivalSpeed="7.37" duration="173.00" routeLength="718.04" waitingTime="90.00" waitingCount="2" stopTime="0.00" timeLoss="110.14" rerouteNo="1" devices="tripinfo_carIn30817:1 routing_carIn30817:1 emissions_carIn30817:1" vType="default_016" speedFactor="0.99" vaporized="">
        <emissions CO_abs="17400.432874" CO2_abs="422776.119906" HC_abs="89.115772" PMx_abs="9.055382" NOx_abs="183.840245" fuel_abs="181.740191" electricity_abs="0"/>
    </tripinfo>
    <tripinfo id="h9953c2:3" depart="57682.00" departLane="-54169231#2_1" departPos="5.10" departSpeed="0.00" departDelay="0.00" arrival="57854.00" arrivalLane="386687235_1" arrivalPos="80.84" arrivalSpeed="12.97" duration="172.00" routeLength="1535.60" waitingTime="7.00" waitingCount="3" stopTime="0.00" timeLoss="38.97" rerouteNo="1" devices="tripinfo_h9953c2:3 routing_h9953c2:3 emissions_h9953c2:3" vType="default_016" speedFactor="0.95" vaporized="">
        <emissions CO_abs="6783.890043" CO2_abs="401297.594757" HC_abs="40.242387" PMx_abs="6.799116" NOx_abs="162.656526" fuel_abs="172.501590" electricity_abs="0"/>
    </tripinfo>
    <tripinfo id="carIn12365:1" depart="57713.00" departLane="315358244_1" departPos="5.10" departSpeed="0.00" departDelay="0.50" arrival="57856.00" arrivalLane="447569997#1_2" arrivalPos="180.93" arrivalSpeed="7.87" duration="143.00" routeLength="718.04" waitingTime="58.00" waitingCount="2" stopTime="0.00" timeLoss="81.76" rerouteNo="1" devices="tripinfo_carIn12365:1 routing_carIn12365:1 emissions_carIn12365:1" vType="default_016" speedFactor="1.01" vaporized="">
        <emissions CO_abs="12283.395968" CO2_abs="347738.668400" HC_abs="64.049043" PMx_abs="7.026739" NOx_abs="148.488305" fuel_abs="149.482499" electricity_abs="0"/>
    </tripinfo>
    <tripinfo id="h3864c1:3" depart="57678.00" departLane="24693977#1_1" departPos="5.10" departSpeed="0.00" departDelay="0.00" arrival="57860.00" arrivalLane="201956820_1" arrivalPos="48.33" arrivalSpeed="14.33" duration="182.00" routeLength="1574.85" waitingTime="24.00" waitingCount="4" stopTime="0.00" timeLoss="65.91" rerouteNo="1" devices="tripinfo_h3864c1:3 routing_h3864c1:3 emissions_h3864c1:3" vType="default_016" speedFactor="1.11" vaporized="">
        <emissions CO_abs="10241.415693" CO2_abs="536574.419691" HC_abs="59.308669" PMx_abs="10.247591" NOx_abs="224.837320" fuel_abs="230.650864" electricity_abs="0"/>
    </tripinfo>
    <tripinfo id="h5938c1:1" depart="57740.00" departLane="-26677542#0_1" departPos="5.10" departSpeed="0.00" departDelay="0.00" arrival="57862.00" arrivalLane="447569997#1_1" arrivalPos="180.93" arrivalSpeed="7.89" duration="122.00" routeLength="1093.64" waitingTime="16.00" waitingCount="1" stopTime="0.00" timeLoss="29.73" rerouteNo="1" devices="tripinfo_h5938c1:1 routing_h5938c1:1 emissions_h5938c1:1" vType="default_016" speedFactor="1.05" vaporized="">
        <emissions CO_abs="5364.197309" CO2_abs="279053.359602" HC_abs="30.755343" PMx_abs="4.718775" NOx_abs="112.364146" fuel_abs="119.954350" electricity_abs="0"/>
    </tripinfo>
    <tripinfo id="carIn129809:1" depart="57729.00" departLane="-447569998#1_1" departPos="5.10" departSpeed="0.00" departDelay="1.00" arrival="57863.00" arrivalLane="-315358244_1" arrivalPos="33.95" arrivalSpeed="13.96" duration="134.00" routeLength="706.49" waitingTime="59.00" waitingCount="2" stopTime="0.00" timeLoss="77.05" rerouteNo="1" devices="tripinfo_carIn129809:1 routing_carIn129809:1 emissions_carIn129809:1" vType="default_015" speedFactor="1.07" vaporized="">
        <emissions CO_abs="11830.406392" CO2_abs="329846.109269" HC_abs="61.592565" PMx_abs="6.796769" NOx_abs="141.390485" fuel_abs="141.791005" electricity_abs="0"/>
    </tripinfo>