<?xml version="1.0" encoding="UTF-8"?>

<!-- generated on 2021-10-26 18:44:42 by Eclipse SUMO sumo Version 1.10.0
<configuration xmlns:xsi="http://www.w3.org/2001/XMLSchema-instance" xsi:noNamespaceSchemaLocation="http://sumo.dlr.de/xsd/sumoConfiguration.xsd">

    <input>
        <net-file value="/Users/behradkoohy/sumo-scratchpad/RESCO/environments/ingolstadt21/ingolstadt21.net.xml"/>
        <route-files value="/Users/behradkoohy/sumo-scratchpad/RESCO/environments/ingolstadt21/ingolstadt21.rou.xml"/>
    </input>

    <output>
        <tripinfo-output value="/Users/behradkoohy/sumo-scratchpad/RESCO/logs/IPPO-tr0-ingolstadt21-21-drq_norm-wait_norm/tripinfo_92.xml"/>
        <tripinfo-output.write-unfinished value="true"/>
    </output>

    <time>
        <begin value="57600"/>
        <end value="61200"/>
    </time>

    <processing>
        <time-to-teleport value="-1"/>
    </processing>

    <report>
        <no-warnings value="true"/>
        <no-step-log value="true"/>
    </report>

    <emissions>
        <device.emissions.probability value="1"/>
    </emissions>

    <traci_server>
        <remote-port value="62476"/>
    </traci_server>

    <random_number>
        <random value="true"/>
    </random_number>

</configuration>
-->

<tripinfos xmlns:xsi="http://www.w3.org/2001/XMLSchema-instance" xsi:noNamespaceSchemaLocation="http://sumo.dlr.de/xsd/tripinfo_file.xsd">
    <tripinfo id="h15454c2:3" depart="57612.00" departLane="24608844_1" departPos="5.10" departSpeed="0.00" departDelay="0.50" arrival="57651.00" arrivalLane="32978638#0_1" arrivalPos="49.29" arrivalSpeed="14.18" duration="39.00" routeLength="354.79" waitingTime="0.00" waitingCount="0" stopTime="0.00" timeLoss="5.63" rerouteNo="1" devices="tripinfo_h15454c2:3 routing_h15454c2:3 emissions_h15454c2:3" vType="default_016" speedFactor="1.02" vaporized="">
        <emissions CO_abs="2214.226006" CO2_abs="123592.256155" HC_abs="12.992617" PMx_abs="2.280696" NOx_abs="51.520225" fuel_abs="53.127106" electricity_abs="0"/>
    </tripinfo>
    <tripinfo id="carIn60260:1" depart="57606.00" departLane="315358254#0_1" departPos="5.10" departSpeed="0.00" departDelay="0.90" arrival="57653.00" arrivalLane="399835085#1_1" arrivalPos="212.23" arrivalSpeed="8.26" duration="47.00" routeLength="430.98" waitingTime="0.00" waitingCount="0" stopTime="0.00" timeLoss="6.22" rerouteNo="1" devices="tripinfo_carIn60260:1 routing_carIn60260:1 emissions_carIn60260:1" vType="default_016" speedFactor="1.14" vaporized="">
        <emissions CO_abs="2001.805378" CO2_abs="118184.323270" HC_abs="11.862822" PMx_abs="1.968302" NOx_abs="47.741132" fuel_abs="50.802706" electricity_abs="0"/>
    </tripinfo>
    <tripinfo id="carIn53971:1" depart="57640.00" departLane="272042143_1" departPos="5.10" departSpeed="0.00" departDelay="0.80" arrival="57700.00" arrivalLane="24634414#1_1" arrivalPos="162.19" arrivalSpeed="6.66" duration="60.00" routeLength="493.04" waitingTime="0.00" waitingCount="0" stopTime="0.00" timeLoss="8.75" rerouteNo="1" devices="tripinfo_carIn53971:1 routing_carIn53971:1 emissions_carIn53971:1" vType="default_016" speedFactor="0.89" vaporized="">
        <emissions CO_abs="2544.374089" CO2_abs="132213.612182" HC_abs="14.656395" PMx_abs="2.256927" NOx_abs="54.058048" fuel_abs="56.833481" electricity_abs="0"/>
    </tripinfo>
    <tripinfo id="h7800c1:5" depart="57696.00" departLane="-447569998#1_1" departPos="5.10" departSpeed="0.00" departDelay="0.00" arrival="57718.00" arrivalLane="-447569998#1_1" arrivalPos="180.76" arrivalSpeed="8.66" duration="22.00" routeLength="175.66" waitingTime="0.00" waitingCount="0" stopTime="0.00" timeLoss="3.38" rerouteNo="1" devices="tripinfo_h7800c1:5 routing_h7800c1:5 emissions_h7800c1:5" vType="default_016" speedFactor="1.16" vaporized="">
        <emissions CO_abs="1042.258752" CO2_abs="50658.741440" HC_abs="5.917834" PMx_abs="0.855829" NOx_abs="20.709937" fuel_abs="21.776285" electricity_abs="0"/>
    </tripinfo>
    <tripinfo id="h12244c1:3" depart="57612.00" departLane="315358244_1" departPos="5.10" departSpeed="0.00" departDelay="0.40" arrival="57722.00" arrivalLane="386687235_1" arrivalPos="80.84" arrivalSpeed="15.79" duration="110.00" routeLength="1186.14" waitingTime="22.00" waitingCount="2" stopTime="0.00" timeLoss="38.83" rerouteNo="1" devices="tripinfo_h12244c1:3 routing_h12244c1:3 emissions_h12244c1:3" vType="default_016" speedFactor="1.21" vaporized="">
        <emissions CO_abs="6422.469791" CO2_abs="347970.759298" HC_abs="37.368194" PMx_abs="6.677433" NOx_abs="143.789744" fuel_abs="149.578021" electricity_abs="0"/>
    </tripinfo>
    <tripinfo id="h4538c1:1" depart="57701.00" departLane="-10427692#1_1" departPos="5.10" departSpeed="0.00" departDelay="0.00" arrival="57736.00" arrivalLane="-128361102#1_1" arrivalPos="274.68" arrivalSpeed="15.06" duration="35.00" routeLength="440.74" waitingTime="0.00" waitingCount="0" stopTime="0.00" timeLoss="6.04" rerouteNo="1" devices="tripinfo_h4538c1:1 routing_h4538c1:1 emissions_h4538c1:1" vType="default_016" speedFactor="1.10" vaporized="">
        <emissions CO_abs="1436.932011" CO2_abs="108206.736028" HC_abs="9.050391" PMx_abs="1.842431" NOx_abs="43.243973" fuel_abs="46.513409" electricity_abs="0"/>
    </tripinfo>
    <tripinfo id="h3568c1:3" depart="57656.00" departLane="266565295#5_1" departPos="5.10" departSpeed="0.00" departDelay="0.80" arrival="57741.00" arrivalLane="-24634415_1" arrivalPos="62.03" arrivalSpeed="13.65" duration="85.00" routeLength="807.40" waitingTime="2.00" waitingCount="1" stopTime="0.00" timeLoss="20.66" rerouteNo="1" devices="tripinfo_h3568c1:3 routing_h3568c1:3 emissions_h3568c1:3" vType="default_016" speedFactor="1.02" vaporized="">
        <emissions CO_abs="4083.352818" CO2_abs="247786.901424" HC_abs="24.396004" PMx_abs="4.384806" NOx_abs="101.451133" fuel_abs="106.513199" electricity_abs="0"/>
    </tripinfo>
    <tripinfo id="h3688c1:1" depart="57625.00" departLane="201201950#1_1" departPos="5.10" departSpeed="0.00" departDelay="0.00" arrival="57744.00" arrivalLane="32978638#0_1" arrivalPos="49.29" arrivalSpeed="11.80" duration="119.00" routeLength="1089.75" waitingTime="16.00" waitingCount="1" stopTime="0.00" timeLoss="29.68" rerouteNo="1" devices="tripinfo_h3688c1:1 routing_h3688c1:1 emissions_h3688c1:1" vType="default_016" speedFactor="0.90" vaporized="">
        <emissions CO_abs="5535.464366" CO2_abs="295815.116140" HC_abs="32.110942" PMx_abs="5.109911" NOx_abs="120.106237" fuel_abs="127.159296" electricity_abs="0"/>
    </tripinfo>
    <tripinfo id="S5R_frequency1.2" depart="57615.00" departLane="315358250#0_1" departPos="12.10" departSpeed="0.00" departDelay="3.40" arrival="57749.00" arrivalLane="386687235_1" arrivalPos="80.84" arrivalSpeed="13.29" duration="134.00" routeLength="1115.62" waitingTime="13.00" waitingCount="2" stopTime="0.00" timeLoss="52.15" rerouteNo="1" devices="tripinfo_S5R_frequency1.2 routing_S5R_frequency1.2 emissions_S5R_frequency1.2" vType="bus" speedFactor="1.00" vaporized="">
        <emissions CO_abs="2674.468383" CO2_abs="1596383.143010" HC_abs="558.767946" PMx_abs="284.277215" NOx_abs="12614.113135" fuel_abs="680.802663" electricity_abs="0"/>
    </tripinfo>
    <tripinfo id="carIn80064:1" depart="57603.00" departLane="128361109#1_1" departPos="5.10" departSpeed="0.00" departDelay="0.40" arrival="57750.00" arrivalLane="-315358254#1_1" arrivalPos="137.16" arrivalSpeed="12.69" duration="147.00" routeLength="1587.97" waitingTime="21.00" waitingCount="2" stopTime="0.00" timeLoss="54.40" rerouteNo="1" devices="tripinfo_carIn80064:1 routing_carIn80064:1 emissions_carIn80064:1" vType="default_016" speedFactor="0.96" vaporized="">
        <emissions CO_abs="9369.386983" CO2_abs="514001.549085" HC_abs="54.955900" PMx_abs="10.142415" NOx_abs="214.033905" fuel_abs="220.947221" electricity_abs="0"/>
    </tripinfo>
    <tripinfo id="h7181c1:1" depart="57660.00" departLane="315358254#0_1" departPos="5.10" departSpeed="0.00" departDelay="0.10" arrival="57750.00" arrivalLane="306240162#0_0" arrivalPos="220.43" arrivalSpeed="18.62" duration="90.00" routeLength="932.35" waitingTime="22.00" waitingCount="2" stopTime="0.00" timeLoss="44.04" rerouteNo="1" devices="tripinfo_h7181c1:1 routing_h7181c1:1 emissions_h7181c1:1" vType="default_016" speedFactor="1.13" vaporized="">
        <emissions CO_abs="7183.240870" CO2_abs="347295.015639" HC_abs="41.062571" PMx_abs="7.255130" NOx_abs="146.677129" fuel_abs="149.287401" electricity_abs="0"/>
    </tripinfo>
    <tripinfo id="h3326c1:2" depart="57656.00" departLane="22716069#0_1" departPos="5.10" departSpeed="0.00" departDelay="0.00" arrival="57753.00" arrivalLane="24634517#13_1" arrivalPos="111.62" arrivalSpeed="16.31" duration="97.00" routeLength="1312.81" waitingTime="0.00" waitingCount="0" stopTime="0.00" timeLoss="15.17" rerouteNo="1" devices="tripinfo_h3326c1:2 routing_h3326c1:2 emissions_h3326c1:2" vType="default_016" speedFactor="1.19" vaporized="">
        <emissions CO_abs="4396.331013" CO2_abs="332800.172904" HC_abs="27.954749" PMx_abs="6.205416" NOx_abs="136.391715" fuel_abs="143.055629" electricity_abs="0"/>
    </tripinfo>
    <tripinfo id="h317c2:1" depart="57707.00" departLane="-32978638#0_1" departPos="5.10" departSpeed="0.00" departDelay="0.10" arrival="57754.00" arrivalLane="-266565295#5_1" arrivalPos="172.76" arrivalSpeed="13.73" duration="47.00" routeLength="370.53" waitingTime="11.00" waitingCount="1" stopTime="0.00" timeLoss="21.45" rerouteNo="1" devices="tripinfo_h317c2:1 routing_h317c2:1 emissions_h317c2:1" vType="default_016" speedFactor="1.08" vaporized="">
        <emissions CO_abs="3245.030439" CO2_abs="138047.589400" HC_abs="18.052001" PMx_abs="2.781472" NOx_abs="58.812825" fuel_abs="59.341174" electricity_abs="0"/>
    </tripinfo>
    <tripinfo id="carIn22761:1" depart="57616.00" departLane="-306240162#1_0" departPos="5.10" departSpeed="0.00" departDelay="2.10" arrival="57760.00" arrivalLane="399835085#1_1" arrivalPos="212.23" arrivalSpeed="8.40" duration="144.00" routeLength="1093.26" waitingTime="46.00" waitingCount="2" stopTime="0.00" timeLoss="74.19" rerouteNo="1" devices="tripinfo_carIn22761:1 routing_carIn22761:1 emissions_carIn22761:1" vType="default_016" speedFactor="1.11" vaporized="">
        <emissions CO_abs="11756.050175" CO2_abs="464334.111240" HC_abs="64.568530" PMx_abs="9.645060" NOx_abs="197.605579" fuel_abs="199.599273" electricity_abs="0"/>
    </tripinfo>
    <tripinfo id="carIn121703:1" depart="57647.00" departLane="386687232#0_1" departPos="5.10" departSpeed="0.00" departDelay="0.30" arrival="57760.00" arrivalLane="-315358244_1" arrivalPos="33.95" arrivalSpeed="12.09" duration="113.00" routeLength="1157.39" waitingTime="4.00" waitingCount="2" stopTime="0.00" timeLoss="21.00" rerouteNo="1" devices="tripinfo_carIn121703:1 routing_carIn121703:1 emissions_carIn121703:1" vType="default_016" speedFactor="0.92" vaporized="">
        <emissions CO_abs="4076.566142" CO2_abs="270929.155005" HC_abs="24.885897" PMx_abs="4.503003" NOx_abs="108.677591" fuel_abs="116.461238" electricity_abs="0"/>
    </tripinfo>
    <tripinfo id="carIn30817:1" depart="57681.00" departLane="315358244_1" departPos="5.10" departSpeed="0.00" departDelay="0.20" arrival="57768.00" arrivalLane="447569997#1_1" arrivalPos="180.93" arrivalSpeed="9.08" duration="87.00" routeLength="718.04" waitingTime="14.00" waitingCount="2" stopTime="0.00" timeLoss="31.00" rerouteNo="1" devices="tripinfo_carIn30817:1 routing_carIn30817:1 emissions_carIn30817:1" vType="default_016" speedFactor="1.09" vaporized="">
        <emissions CO_abs="4179.840481" CO2_abs="206179.512678" HC_abs="23.819839" PMx_abs="3.716334" NOx_abs="84.809021" fuel_abs="88.628492" electricity_abs="0"/>
    </tripinfo>
    <tripinfo id="h5979c1:5" depart="57669.00" departLane="399835085#1_1" departPos="5.10" departSpeed="0.00" departDelay="0.00" arrival="57769.00" arrivalLane="-315358254#1_1" arrivalPos="137.16" arrivalSpeed="12.00" duration="100.00" routeLength="659.33" waitingTime="1.00" waitingCount="1" stopTime="0.00" timeLoss="15.89" rerouteNo="1" devices="tripinfo_h5979c1:5 routing_h5979c1:5 emissions_h5979c1:5" vType="default_016" speedFactor="0.87" vaporized="">
        <emissions CO_abs="3852.389582" CO2_abs="163028.129337" HC_abs="21.292078" PMx_abs="2.742211" NOx_abs="66.809856" fuel_abs="70.080072" electricity_abs="0"/>
    </tripinfo>
    <tripinfo id="h645c1:1" depart="57622.00" departLane="266565295#5_1" departPos="5.10" departSpeed="0.00" departDelay="0.40" arrival="57770.00" arrivalLane="-315358244_1" arrivalPos="33.95" arrivalSpeed="12.95" duration="148.00" routeLength="1910.83" waitingTime="0.00" waitingCount="0" stopTime="0.00" timeLoss="11.33" rerouteNo="1" devices="tripinfo_h645c1:1 routing_h645c1:1 emissions_h645c1:1" vType="default_016" speedFactor="1.02" vaporized="">
        <emissions CO_abs="3240.394891" CO2_abs="305942.711659" HC_abs="21.860993" PMx_abs="4.775123" NOx_abs="118.986741" fuel_abs="131.511598" electricity_abs="0"/>
    </tripinfo>
    <tripinfo id="h330c1:1" depart="57736.00" departLane="-32978638#0_1" departPos="5.10" departSpeed="0.00" departDelay="0.20" arrival="57774.00" arrivalLane="-266565295#5_1" arrivalPos="172.76" arrivalSpeed="14.67" duration="38.00" routeLength="370.53" waitingTime="2.00" waitingCount="1" stopTime="0.00" timeLoss="12.67" rerouteNo="1" devices="tripinfo_h330c1:1 routing_h330c1:1 emissions_h330c1:1" vType="default_016" speedFactor="1.09" vaporized="">
        <emissions CO_abs="2262.905545" CO2_abs="130428.824894" HC_abs="13.375112" PMx_abs="2.449899" NOx_abs="54.198693" fuel_abs="56.065774" electricity_abs="0"/>
    </tripinfo>
    <tripinfo id="carIn86816:1" depart="57617.00" departLane="128361102#0_1" departPos="5.10" departSpeed="0.00" departDelay="0.80" arrival="57775.00" arrivalLane="201956811#0_1" arrivalPos="40.40" arrivalSpeed="13.96" duration="158.00" routeLength="2067.33" waitingTime="0.00" waitingCount="0" stopTime="0.00" timeLoss="18.12" rerouteNo="1" devices="tripinfo_carIn86816:1 routing_carIn86816:1 emissions_carIn86816:1" vType="default_016" speedFactor="1.09" vaporized="">
        <emissions CO_abs="4671.553617" CO2_abs="432348.430986" HC_abs="31.193254" PMx_abs="6.966088" NOx_abs="169.164252" fuel_abs="185.847729" electricity_abs="0"/>
    </tripinfo>
    <tripinfo id="carIn27009:1" depart="57673.00" departLane="-447569998#1_1" departPos="5.10" departSpeed="0.00" departDelay="0.50" arrival="57780.00" arrivalLane="-26677539_1" arrivalPos="152.75" arrivalSpeed="7.69" duration="107.00" routeLength="699.63" waitingTime="1.00" waitingCount="1" stopTime="0.00" timeLoss="16.40" rerouteNo="1" devices="tripinfo_carIn27009:1 routing_carIn27009:1 emissions_carIn27009:1" vType="default_015" speedFactor="0.92" vaporized="">
        <emissions CO_abs="4635.082985" CO2_abs="194698.576566" HC_abs="25.574085" PMx_abs="3.239486" NOx_abs="79.733817" fuel_abs="83.694152" electricity_abs="0"/>
    </tripinfo>
    <tripinfo id="carIn81046:1" depart="57611.00" departLane="124812856#0_1" departPos="5.10" departSpeed="0.00" departDelay="2.50" arrival="57782.00" arrivalLane="-128361102#1_1" arrivalPos="274.68" arrivalSpeed="16.15" duration="171.00" routeLength="2232.46" waitingTime="0.00" waitingCount="0" stopTime="0.00" timeLoss="31.80" rerouteNo="1" devices="tripinfo_carIn81046:1 routing_carIn81046:1 emissions_carIn81046:1" vType="default_016" speedFactor="1.17" vaporized="">
        <emissions CO_abs="6632.074224" CO2_abs="525595.630305" HC_abs="42.209038" PMx_abs="9.250858" NOx_abs="211.338018" fuel_abs="225.930155" electricity_abs="0"/>
    </tripinfo>
    <tripinfo id="carIn12365:1" depart="57713.00" departLane="315358244_1" departPos="5.10" departSpeed="0.00" departDelay="0.50" arrival="57789.00" arrivalLane="447569997#1_1" arrivalPos="180.93" arrivalSpeed="7.45" duration="76.00" routeLength="718.04" waitingTime="0.00" waitingCount="0" stopTime="0.00" timeLoss="9.68" rerouteNo="1" devices="tripinfo_carIn12365:1 routing_carIn12365:1 emissions_carIn12365:1" vType="default_016" speedFactor="0.93" vaporized="">
        <emissions CO_abs="2825.390262" CO2_abs="168356.605124" HC_abs="16.777533" PMx_abs="2.791209" NOx_abs="67.944014" fuel_abs="72.369755" electricity_abs="0"/>
    </tripinfo>
    <tripinfo id="h3154c1:1" depart="57658.00" departLane="24634507_1" departPos="5.10" departSpeed="0.00" departDelay="0.00" arrival="57797.00" arrivalLane="-266565295#5_1" arrivalPos="172.76" arrivalSpeed="15.11" duration="139.00" routeLength="1206.22" waitingTime="37.00" waitingCount="2" stopTime="0.00" timeLoss="59.16" rerouteNo="1" devices="tripinfo_h3154c1:1 routing_h3154c1:1 emissions_h3154c1:1" vType="default_016" speedFactor="1.12" vaporized="">
        <emissions CO_abs="9314.609660" CO2_abs="405001.778367" HC_abs="51.923933" PMx_abs="7.970731" NOx_abs="170.003898" fuel_abs="174.094407" electricity_abs="0"/>
    </tripinfo>
    <tripinfo id="carIn107084:1" depart="57601.00" departLane="124812856#0_1" departPos="5.10" departSpeed="0.00" departDelay="0.70" arrival="57806.00" arrivalLane="-128361102#1_1" arrivalPos="274.68" arrivalSpeed="12.88" duration="205.00" routeLength="2250.49" waitingTime="11.00" waitingCount="2" stopTime="0.00" timeLoss="38.93" rerouteNo="1" devices="tripinfo_carIn107084:1 routing_carIn107084:1 emissions_carIn107084:1" vType="default_016" speedFactor="0.99" vaporized="">
        <emissions CO_abs="7319.875124" CO2_abs="526740.439110" HC_abs="45.593917" PMx_abs="8.813844" NOx_abs="210.626241" fuel_abs="226.423415" electricity_abs="0"/>
    </tripinfo>
    <tripinfo id="carIn77943:1" depart="57608.00" departLane="124812856#0_1" departPos="5.10" departSpeed="0.00" departDelay="2.50" arrival="57810.00" arrivalLane="-128361102#1_1" arrivalPos="274.68" arrivalSpeed="12.97" duration="202.00" routeLength="2250.49" waitingTime="1.00" waitingCount="1" stopTime="0.00" timeLoss="27.57" rerouteNo="1" devices="tripinfo_carIn77943:1 routing_carIn77943:1 emissions_carIn77943:1" vType="default_016" speedFactor="0.94" vaporized="">
        <emissions CO_abs="6575.702634" CO2_abs="500066.666040" HC_abs="41.592497" PMx_abs="8.040020" NOx_abs="198.128194" fuel_abs="214.957653" electricity_abs="0"/>
    </tripinfo>
    <tripinfo id="carIn28951:1" depart="57606.00" departLane="10425609#0_1" departPos="5.10" departSpeed="0.00" departDelay="0.20" arrival="57811.00" arrivalLane="-128361102#1_1" arrivalPos="274.68" arrivalSpeed="14.67" duration="205.00" routeLength="2095.01" waitingTime="23.00" waitingCount="2" stopTime="0.00" timeLoss="73.87" rerouteNo="1" devices="tripinfo_carIn28951:1 routing_carIn28951:1 emissions_carIn28951:1" vType="default_016" speedFactor="1.17" vaporized="">
        <emissions CO_abs="10464.052561" CO2_abs="588085.220508" HC_abs="61.528832" PMx_abs="11.052117" NOx_abs="243.730523" fuel_abs="252.792978" electricity_abs="0"/>
    </tripinfo>
    <tripinfo id="h9563c2:5" depart="57631.00" departLane="315358244_1" departPos="5.10" departSpeed="0.00" departDelay="0.70" arrival="57811.00" arrivalLane="386687235_1" arrivalPos="80.84" arrivalSpeed="13.30" duration="180.00" routeLength="1186.14" waitingTime="67.00" waitingCount="3" stopTime="0.00" timeLoss="97.41" rerouteNo="1" devices="tripinfo_h9563c2:5 routing_h9563c2:5 emissions_h9563c2:5" vType="default_016" speedFactor="1.04" vaporized="">
        <emissions CO_abs="14116.207599" CO2_abs="456917.547656" HC_abs="74.915192" PMx_abs="9.066325" NOx_abs="192.661582" fuel_abs="196.413899" electricity_abs="0"/>
    </tripinfo>
    <tripinfo id="carIn77438:1" depart="57614.00" departLane="124812856#0_1" departPos="5.10" departSpeed="0.00" departDelay="1.10" arrival="57813.00" arrivalLane="-128361102#1_1" arrivalPos="274.68" arrivalSpeed="15.03" duration="199.00" routeLength="2250.49" waitingTime="10.00" waitingCount="1" stopTime="0.00" timeLoss="47.20" rerouteNo="1" devices="tripinfo_carIn77438:1 routing_carIn77438:1 emissions_carIn77438:1" vType="default_016" speedFactor="1.08" vaporized="">
        <emissions CO_abs="8220.240654" CO2_abs="556582.523381" HC_abs="50.462145" PMx_abs="9.845259" NOx_abs="225.779318" fuel_abs="239.250886" electricity_abs="0"/>
    </tripinfo>
    <tripinfo id="carIn50326:1" depart="57651.00" departLane="128361102#0_1" departPos="5.10" departSpeed="0.00" departDelay="0.30" arrival="57814.00" arrivalLane="18809673#0_1" arrivalPos="473.56" arrivalSpeed="12.27" duration="163.00" routeLength="1591.07" waitingTime="0.00" waitingCount="0" stopTime="0.00" timeLoss="19.91" rerouteNo="1" devices="tripinfo_carIn50326:1 routing_carIn50326:1 emissions_carIn50326:1" vType="default_016" speedFactor="0.90" vaporized="">
        <emissions CO_abs="5035.975165" CO2_abs="341985.306186" HC_abs="30.798443" PMx_abs="5.093891" NOx_abs="133.633147" fuel_abs="147.006119" electricity_abs="0"/>
    </tripinfo>
    <tripinfo id="h20540c1:1" depart="57634.00" departLane="10425609#0_1" departPos="5.10" departSpeed="0.00" departDelay="0.50" arrival="57815.00" arrivalLane="-128361102#1_1" arrivalPos="274.68" arrivalSpeed="13.77" duration="181.00" routeLength="2113.04" waitingTime="5.00" waitingCount="1" stopTime="0.00" timeLoss="35.04" rerouteNo="1" devices="tripinfo_h20540c1:1 routing_h20540c1:1 emissions_h20540c1:1" vType="default_016" speedFactor="1.06" vaporized="">
        <emissions CO_abs="6941.563677" CO2_abs="511337.426343" HC_abs="43.615525" PMx_abs="9.007370" NOx_abs="207.363881" fuel_abs="219.801486" electricity_abs="0"/>
    </tripinfo>
    <tripinfo id="h11737c1:1" depart="57665.00" departLane="272042143_1" departPos="5.10" departSpeed="0.00" departDelay="1.50" arrival="57816.00" arrivalLane="-315358254#1_1" arrivalPos="137.16" arrivalSpeed="13.96" duration="151.00" routeLength="1596.88" waitingTime="17.00" waitingCount="1" stopTime="0.00" timeLoss="35.61" rerouteNo="1" devices="tripinfo_h11737c1:1 routing_h11737c1:1 emissions_h11737c1:1" vType="default_016" speedFactor="1.01" vaporized="">
        <emissions CO_abs="5860.500996" CO2_abs="362378.849211" HC_abs="35.088662" PMx_abs="5.955605" NOx_abs="143.745517" fuel_abs="155.772246" electricity_abs="0"/>
    </tripinfo>
    <tripinfo id="h19804c1:3" depart="57617.00" departLane="124812856#0_1" departPos="5.10" departSpeed="0.00" departDelay="1.50" arrival="57817.00" arrivalLane="-128361102#1_1" arrivalPos="274.68" arrivalSpeed="13.77" duration="200.00" routeLength="2250.49" waitingTime="17.00" waitingCount="1" stopTime="0.00" timeLoss="40.71" rerouteNo="1" devices="tripinfo_h19804c1:3 routing_h19804c1:3 emissions_h19804c1:3" vType="default_016" speedFactor="1.03" vaporized="">
        <emissions CO_abs="7423.991104" CO2_abs="504471.832779" HC_abs="45.553061" PMx_abs="8.495680" NOx_abs="201.267979" fuel_abs="216.851437" electricity_abs="0"/>
    </tripinfo>
    <tripinfo id="carIn82278:1" depart="57702.00" departLane="-306240162#1_0" departPos="5.10" departSpeed="0.00" departDelay="0.70" arrival="57817.00" arrivalLane="399835085#1_1" arrivalPos="212.23" arrivalSpeed="8.76" duration="115.00" routeLength="1093.26" waitingTime="16.00" waitingCount="2" stopTime="0.00" timeLoss="44.23" rerouteNo="1" devices="tripinfo_carIn82278:1 routing_carIn82278:1 emissions_carIn82278:1" vType="default_016" speedFactor="1.10" vaporized="">
        <emissions CO_abs="7131.740692" CO2_abs="387290.890934" HC_abs="41.734642" PMx_abs="7.712735" NOx_abs="162.604362" fuel_abs="166.479606" electricity_abs="0"/>
    </tripinfo>
    <tripinfo id="carIn126288:1" depart="57674.00" departLane="272042143_1" departPos="5.10" departSpeed="0.00" departDelay="0.00" arrival="57818.00" arrivalLane="-315358254#1_1" arrivalPos="137.16" arrivalSpeed="13.87" duration="144.00" routeLength="1596.88" waitingTime="16.00" waitingCount="1" stopTime="0.00" timeLoss="36.73" rerouteNo="1" devices="tripinfo_carIn126288:1 routing_carIn126288:1 emissions_carIn126288:1" vType="default_016" speedFactor="1.08" vaporized="">
        <emissions CO_abs="6016.630097" CO2_abs="381258.461566" HC_abs="36.322868" PMx_abs="6.582212" NOx_abs="153.009333" fuel_abs="163.887260" electricity_abs="0"/>
    </tripinfo>
    <tripinfo id="carIn129809:1" depart="57729.00" departLane="-447569998#1_1" departPos="5.10" departSpeed="0.00" departDelay="1.00" arrival="57823.00" arrivalLane="-315358244_1" arrivalPos="33.95" arrivalSpeed="13.39" duration="94.00" routeLength="706.49" waitingTime="20.00" waitingCount="2" stopTime="0.00" timeLoss="36.13" rerouteNo="1" devices="tripinfo_carIn129809:1 routing_carIn129809:1 emissions_carIn129809:1" vType="default_015" speedFactor="1.05" vaporized="">
        <emissions CO_abs="5379.952568" CO2_abs="227629.189960" HC_abs="29.780773" PMx_abs="4.152836" NOx_abs="93.800370" fuel_abs="97.849464" electricity_abs="0"/>
    </tripinfo>
    <tripinfo id="carIn12858:1" depart="57661.00" departLane="128361109#1_1" departPos="5.10" departSpeed="0.00" departDelay="0.90" arrival="57824.00" arrivalLane="399835085#1_1" arrivalPos="212.23" arrivalSpeed="9.52" duration="163.00" routeLength="1738.12" waitingTime="36.00" waitingCount="2" stopTime="0.00" timeLoss="68.91" rerouteNo="1" devices="tripinfo_carIn12858:1 routing_carIn12858:1 emissions_carIn12858:1" vType="default_016" speedFactor="1.23" vaporized="">
        <emissions CO_abs="14204.247013" CO2_abs="649931.170036" HC_abs="80.287170" PMx_abs="13.651761" NOx_abs="274.963044" fuel_abs="279.378388" electricity_abs="0"/>
    </tripinfo>
    <tripinfo id="carIn107282:1" depart="57749.00" departLane="-447569998#1_1" departPos="5.10" departSpeed="0.00" departDelay="0.00" arrival="57831.00" arrivalLane="315358242#0_1" arrivalPos="165.37" arrivalSpeed="11.13" duration="82.00" routeLength="448.50" waitingTime="21.00" waitingCount="1" stopTime="0.00" timeLoss="30.49" rerouteNo="1" devices="tripinfo_carIn107282:1 routing_carIn107282:1 emissions_carIn107282:1" vType="default_016" speedFactor="0.82" vaporized="">
        <emissions CO_abs="5180.241090" CO2_abs="162928.343036" HC_abs="27.339989" PMx_abs="2.936976" NOx_abs="67.599402" fuel_abs="70.038061" electricity_abs="0"/>
    </tripinfo>
    <tripinfo id="carIn102915:1" depart="57643.00" departLane="128361102#0_1" departPos="5.10" departSpeed="0.00" departDelay="0.40" arrival="57832.00" arrivalLane="201956811#0_1" arrivalPos="40.40" arrivalSpeed="14.34" duration="189.00" routeLength="2067.33" waitingTime="11.00" waitingCount="3" stopTime="0.00" timeLoss="47.36" rerouteNo="1" devices="tripinfo_carIn102915:1 routing_carIn102915:1 emissions_carIn102915:1" vType="default_016" speedFactor="1.07" vaporized="">
        <emissions CO_abs="7034.505082" CO2_abs="494898.761121" HC_abs="43.506351" PMx_abs="8.594494" NOx_abs="199.612270" fuel_abs="212.735693" electricity_abs="0"/>
    </tripinfo>
    <tripinfo id="h17600c1:1" depart="57662.00" departLane="272042143_1" departPos="5.10" departSpeed="0.00" departDelay="0.30" arrival="57832.00" arrivalLane="201238729#3_1" arrivalPos="431.02" arrivalSpeed="13.21" duration="170.00" routeLength="2100.26" waitingTime="1.00" waitingCount="1" stopTime="0.00" timeLoss="19.87" rerouteNo="1" devices="tripinfo_h17600c1:1 routing_h17600c1:1 emissions_h17600c1:1" vType="default_016" speedFactor="1.01" vaporized="">
        <emissions CO_abs="4273.249938" CO2_abs="383044.842460" HC_abs="28.309560" PMx_abs="5.825488" NOx_abs="148.076543" fuel_abs="164.654892" electricity_abs="0"/>
    </tripinfo>
    <tripinfo id="50R_frequency3.17" depart="57674.00" departLane="-18809673#6_1" departPos="12.10" departSpeed="0.00" departDelay="0.70" arrival="57835.00" arrivalLane="201956811#0_1" arrivalPos="40.40" arrivalSpeed="12.92" duration="161.00" routeLength="1954.47" waitingTime="0.00" waitingCount="0" stopTime="0.00" timeLoss="16.57" rerouteNo="1" devices="tripinfo_50R_frequency3.17 routing_50R_frequency3.17 emissions_50R_frequency3.17" vType="bus" speedFactor="1.00" vaporized="">
        <emissions CO_abs="3127.223866" CO2_abs="2000850.253607" HC_abs="667.837210" PMx_abs="336.883867" NOx_abs="15399.186090" fuel_abs="853.365881" electricity_abs="0"/>
    </tripinfo>
    <tripinfo id="carIn107842:1" depart="57623.00" departLane="124812856#0_1" departPos="5.10" departSpeed="0.00" departDelay="1.90" arrival="57836.00" arrivalLane="-128361102#1_1" arrivalPos="274.68" arrivalSpeed="13.19" duration="213.00" routeLength="2250.49" waitingTime="13.00" waitingCount="1" stopTime="0.00" timeLoss="41.71" rerouteNo="1" devices="tripinfo_carIn107842:1 routing_carIn107842:1 emissions_carIn107842:1" vType="default_016" speedFactor="0.96" vaporized="">
        <emissions CO_abs="6944.886921" CO2_abs="490152.429843" HC_abs="43.014510" PMx_abs="7.849623" NOx_abs="193.724522" fuel_abs="210.696440" electricity_abs="0"/>
    </tripinfo>
    <tripinfo id="carIn118591:1" depart="57689.00" departLane="315358244_1" departPos="5.10" departSpeed="0.00" departDelay="0.20" arrival="57836.00" arrivalLane="386687235_1" arrivalPos="80.84" arrivalSpeed="9.91" duration="147.00" routeLength="1186.14" waitingTime="10.00" waitingCount="2" stopTime="0.00" timeLoss="33.01" rerouteNo="1" devices="tripinfo_carIn118591:1 routing_carIn118591:1 emissions_carIn118591:1" vType="default_016" speedFactor="0.75" vaporized="">
        <emissions CO_abs="5011.727483" CO2_abs="263870.759472" HC_abs="28.889606" PMx_abs="4.162977" NOx_abs="105.398929" fuel_abs="113.428254" electricity_abs="0"/>
    </tripinfo>
    <tripinfo id="h15382c1:3" depart="57626.00" departLane="124812856#0_1" departPos="5.10" departSpeed="0.00" departDelay="3.80" arrival="57838.00" arrivalLane="-128361102#1_1" arrivalPos="274.68" arrivalSpeed="14.96" duration="212.00" routeLength="2250.49" waitingTime="11.00" waitingCount="1" stopTime="0.00" timeLoss="60.31" rerouteNo="1" devices="tripinfo_h15382c1:3 routing_h15382c1:3 emissions_h15382c1:3" vType="default_016" speedFactor="1.08" vaporized="">
        <emissions CO_abs="8428.574043" CO2_abs="566029.941849" HC_abs="51.677164" PMx_abs="9.789782" NOx_abs="228.818438" fuel_abs="243.312275" electricity_abs="0"/>
    </tripinfo>