<?xml version="1.0" encoding="UTF-8"?>

<!-- generated on 2021-10-26 18:07:10 by Eclipse SUMO sumo Version 1.10.0
<configuration xmlns:xsi="http://www.w3.org/2001/XMLSchema-instance" xsi:noNamespaceSchemaLocation="http://sumo.dlr.de/xsd/sumoConfiguration.xsd">

    <input>
        <net-file value="/Users/behradkoohy/sumo-scratchpad/RESCO/environments/ingolstadt21/ingolstadt21.net.xml"/>
        <route-files value="/Users/behradkoohy/sumo-scratchpad/RESCO/environments/ingolstadt21/ingolstadt21.rou.xml"/>
    </input>

    <output>
        <tripinfo-output value="/Users/behradkoohy/sumo-scratchpad/RESCO/logs/IPPO-tr0-ingolstadt21-21-drq_norm-wait_norm/tripinfo_44.xml"/>
        <tripinfo-output.write-unfinished value="true"/>
    </output>

    <time>
        <begin value="57600"/>
        <end value="61200"/>
    </time>

    <processing>
        <time-to-teleport value="-1"/>
    </processing>

    <report>
        <no-warnings value="true"/>
        <no-step-log value="true"/>
    </report>

    <emissions>
        <device.emissions.probability value="1"/>
    </emissions>

    <traci_server>
        <remote-port value="62059"/>
    </traci_server>

    <random_number>
        <random value="true"/>
    </random_number>

</configuration>
-->

<tripinfos xmlns:xsi="http://www.w3.org/2001/XMLSchema-instance" xsi:noNamespaceSchemaLocation="http://sumo.dlr.de/xsd/tripinfo_file.xsd">
    <tripinfo id="h15454c2:3" depart="57612.00" departLane="24608844_1" departPos="5.10" departSpeed="0.00" departDelay="0.50" arrival="57668.00" arrivalLane="32978638#0_1" arrivalPos="49.29" arrivalSpeed="12.04" duration="56.00" routeLength="354.79" waitingTime="8.00" waitingCount="1" stopTime="0.00" timeLoss="18.87" rerouteNo="1" devices="tripinfo_h15454c2:3 routing_h15454c2:3 emissions_h15454c2:3" vType="default_016" speedFactor="0.92" vaporized="">
        <emissions CO_abs="2855.822303" CO2_abs="126114.204874" HC_abs="15.933124" PMx_abs="2.225603" NOx_abs="52.082275" fuel_abs="54.211834" electricity_abs="0"/>
    </tripinfo>
    <tripinfo id="carIn60260:1" depart="57606.00" departLane="315358254#0_1" departPos="5.10" departSpeed="0.00" departDelay="0.90" arrival="57672.00" arrivalLane="399835085#1_1" arrivalPos="212.23" arrivalSpeed="8.55" duration="66.00" routeLength="430.98" waitingTime="11.00" waitingCount="1" stopTime="0.00" timeLoss="21.56" rerouteNo="1" devices="tripinfo_carIn60260:1 routing_carIn60260:1 emissions_carIn60260:1" vType="default_016" speedFactor="1.05" vaporized="">
        <emissions CO_abs="3396.342087" CO2_abs="144170.783806" HC_abs="18.794377" PMx_abs="2.461002" NOx_abs="58.954728" fuel_abs="61.973935" electricity_abs="0"/>
    </tripinfo>
    <tripinfo id="carIn53971:1" depart="57640.00" departLane="272042143_1" departPos="5.10" departSpeed="0.00" departDelay="0.80" arrival="57709.00" arrivalLane="24634414#1_1" arrivalPos="162.19" arrivalSpeed="6.31" duration="69.00" routeLength="493.04" waitingTime="0.00" waitingCount="0" stopTime="0.00" timeLoss="8.87" rerouteNo="1" devices="tripinfo_carIn53971:1 routing_carIn53971:1 emissions_carIn53971:1" vType="default_016" speedFactor="0.76" vaporized="">
        <emissions CO_abs="3045.433478" CO2_abs="137384.235223" HC_abs="17.016712" PMx_abs="2.211163" NOx_abs="55.517804" fuel_abs="59.056657" electricity_abs="0"/>
    </tripinfo>
    <tripinfo id="h3688c1:1" depart="57625.00" departLane="201201950#1_1" departPos="5.10" departSpeed="0.00" departDelay="0.00" arrival="57710.00" arrivalLane="32978638#0_1" arrivalPos="49.29" arrivalSpeed="14.02" duration="85.00" routeLength="1089.75" waitingTime="0.00" waitingCount="0" stopTime="0.00" timeLoss="11.44" rerouteNo="1" devices="tripinfo_h3688c1:1 routing_h3688c1:1 emissions_h3688c1:1" vType="default_016" speedFactor="1.09" vaporized="">
        <emissions CO_abs="3102.212916" CO2_abs="257777.365756" HC_abs="20.097015" PMx_abs="4.318039" NOx_abs="102.302695" fuel_abs="110.807231" electricity_abs="0"/>
    </tripinfo>
    <tripinfo id="h7800c1:5" depart="57696.00" departLane="-447569998#1_1" departPos="5.10" departSpeed="0.00" departDelay="0.00" arrival="57722.00" arrivalLane="-447569998#1_1" arrivalPos="180.76" arrivalSpeed="7.53" duration="26.00" routeLength="175.66" waitingTime="0.00" waitingCount="0" stopTime="0.00" timeLoss="3.41" rerouteNo="1" devices="tripinfo_h7800c1:5 routing_h7800c1:5 emissions_h7800c1:5" vType="default_016" speedFactor="0.96" vaporized="">
        <emissions CO_abs="1280.246268" CO2_abs="54945.860568" HC_abs="7.088927" PMx_abs="0.899572" NOx_abs="22.385920" fuel_abs="23.619317" electricity_abs="0"/>
    </tripinfo>
    <tripinfo id="S5R_frequency1.2" depart="57612.00" departLane="315358250#0_1" departPos="12.10" departSpeed="0.00" departDelay="0.40" arrival="57730.00" arrivalLane="386687235_1" arrivalPos="80.84" arrivalSpeed="13.81" duration="118.00" routeLength="1115.62" waitingTime="15.00" waitingCount="2" stopTime="0.00" timeLoss="36.04" rerouteNo="1" devices="tripinfo_S5R_frequency1.2 routing_S5R_frequency1.2 emissions_S5R_frequency1.2" vType="bus" speedFactor="1.00" vaporized="">
        <emissions CO_abs="2078.834775" CO2_abs="1244051.061703" HC_abs="438.447349" PMx_abs="221.315353" NOx_abs="9815.612862" fuel_abs="530.550820" electricity_abs="0"/>
    </tripinfo>
    <tripinfo id="h12244c1:3" depart="57612.00" departLane="315358244_1" departPos="5.10" departSpeed="0.00" departDelay="0.40" arrival="57735.00" arrivalLane="386687235_1" arrivalPos="80.84" arrivalSpeed="12.54" duration="123.00" routeLength="1186.14" waitingTime="2.00" waitingCount="1" stopTime="0.00" timeLoss="28.28" rerouteNo="1" devices="tripinfo_h12244c1:3 routing_h12244c1:3 emissions_h12244c1:3" vType="default_016" speedFactor="0.91" vaporized="">
        <emissions CO_abs="4304.250917" CO2_abs="272547.581871" HC_abs="25.912667" PMx_abs="4.313274" NOx_abs="107.910401" fuel_abs="117.157440" electricity_abs="0"/>
    </tripinfo>
    <tripinfo id="h3568c1:3" depart="57656.00" departLane="266565295#5_1" departPos="5.10" departSpeed="0.00" departDelay="0.80" arrival="57746.00" arrivalLane="-24634415_1" arrivalPos="62.03" arrivalSpeed="13.96" duration="90.00" routeLength="807.40" waitingTime="9.00" waitingCount="1" stopTime="0.00" timeLoss="28.49" rerouteNo="1" devices="tripinfo_h3568c1:3 routing_h3568c1:3 emissions_h3568c1:3" vType="default_016" speedFactor="1.05" vaporized="">
        <emissions CO_abs="4622.360203" CO2_abs="264612.297081" HC_abs="27.267108" PMx_abs="4.889779" NOx_abs="109.595754" fuel_abs="113.745645" electricity_abs="0"/>
    </tripinfo>
    <tripinfo id="h4538c1:1" depart="57701.00" departLane="-10427692#1_1" departPos="5.10" departSpeed="0.00" departDelay="0.00" arrival="57746.00" arrivalLane="-128361102#1_1" arrivalPos="274.68" arrivalSpeed="12.60" duration="45.00" routeLength="440.74" waitingTime="3.00" waitingCount="1" stopTime="0.00" timeLoss="13.07" rerouteNo="1" devices="tripinfo_h4538c1:1 routing_h4538c1:1 emissions_h4538c1:1" vType="default_016" speedFactor="0.99" vaporized="">
        <emissions CO_abs="1878.867223" CO2_abs="117618.434213" HC_abs="11.296283" PMx_abs="2.042013" NOx_abs="47.701762" fuel_abs="50.559261" electricity_abs="0"/>
    </tripinfo>
    <tripinfo id="carIn22761:1" depart="57616.00" departLane="-306240162#1_0" departPos="5.10" departSpeed="0.00" departDelay="2.10" arrival="57747.00" arrivalLane="399835085#1_1" arrivalPos="212.23" arrivalSpeed="8.98" duration="131.00" routeLength="1093.26" waitingTime="37.00" waitingCount="2" stopTime="0.00" timeLoss="66.56" rerouteNo="1" devices="tripinfo_carIn22761:1 routing_carIn22761:1 emissions_carIn22761:1" vType="default_016" speedFactor="1.21" vaporized="">
        <emissions CO_abs="10307.597896" CO2_abs="454166.810355" HC_abs="57.819459" PMx_abs="9.458014" NOx_abs="193.073461" fuel_abs="195.227733" electricity_abs="0"/>
    </tripinfo>
    <tripinfo id="carIn30817:1" depart="57681.00" departLane="315358244_1" departPos="5.10" departSpeed="0.00" departDelay="0.20" arrival="57749.00" arrivalLane="447569997#1_1" arrivalPos="180.93" arrivalSpeed="8.54" duration="68.00" routeLength="718.04" waitingTime="0.00" waitingCount="0" stopTime="0.00" timeLoss="13.29" rerouteNo="1" devices="tripinfo_carIn30817:1 routing_carIn30817:1 emissions_carIn30817:1" vType="default_016" speedFactor="1.13" vaporized="">
        <emissions CO_abs="2844.204531" CO2_abs="180598.462989" HC_abs="17.101199" PMx_abs="3.135545" NOx_abs="73.188819" fuel_abs="77.631709" electricity_abs="0"/>
    </tripinfo>
    <tripinfo id="carIn80064:1" depart="57603.00" departLane="128361109#1_1" departPos="5.10" departSpeed="0.00" departDelay="0.40" arrival="57755.00" arrivalLane="-315358254#1_1" arrivalPos="137.16" arrivalSpeed="14.42" duration="152.00" routeLength="1587.97" waitingTime="35.00" waitingCount="2" stopTime="0.00" timeLoss="71.87" rerouteNo="1" devices="tripinfo_carIn80064:1 routing_carIn80064:1 emissions_carIn80064:1" vType="default_016" speedFactor="1.13" vaporized="">
        <emissions CO_abs="12007.823733" CO2_abs="582461.585206" HC_abs="68.679354" PMx_abs="12.178258" NOx_abs="246.334855" fuel_abs="250.375459" electricity_abs="0"/>
    </tripinfo>
    <tripinfo id="h3326c1:2" depart="57656.00" departLane="22716069#0_1" departPos="5.10" departSpeed="0.00" departDelay="0.00" arrival="57762.00" arrivalLane="24634517#13_1" arrivalPos="111.62" arrivalSpeed="14.55" duration="106.00" routeLength="1312.81" waitingTime="0.00" waitingCount="0" stopTime="0.00" timeLoss="15.96" rerouteNo="1" devices="tripinfo_h3326c1:2 routing_h3326c1:2 emissions_h3326c1:2" vType="default_016" speedFactor="1.09" vaporized="">
        <emissions CO_abs="4071.319146" CO2_abs="320443.654815" HC_abs="26.046231" PMx_abs="5.584953" NOx_abs="129.079990" fuel_abs="137.744543" electricity_abs="0"/>
    </tripinfo>
    <tripinfo id="carIn107084:1" depart="57601.00" departLane="124812856#0_1" departPos="5.10" departSpeed="0.00" departDelay="0.70" arrival="57764.00" arrivalLane="-128361102#1_1" arrivalPos="274.68" arrivalSpeed="15.52" duration="163.00" routeLength="2250.49" waitingTime="0.00" waitingCount="0" stopTime="0.00" timeLoss="17.41" rerouteNo="1" devices="tripinfo_carIn107084:1 routing_carIn107084:1 emissions_carIn107084:1" vType="default_016" speedFactor="1.13" vaporized="">
        <emissions CO_abs="4512.111571" CO2_abs="446634.805756" HC_abs="30.686019" PMx_abs="7.101612" NOx_abs="173.058111" fuel_abs="191.988785" electricity_abs="0"/>
    </tripinfo>
    <tripinfo id="h9563c2:5" depart="57631.00" departLane="315358244_1" departPos="5.10" departSpeed="0.00" departDelay="0.70" arrival="57768.00" arrivalLane="386687235_1" arrivalPos="80.84" arrivalSpeed="12.90" duration="137.00" routeLength="1186.14" waitingTime="21.00" waitingCount="3" stopTime="0.00" timeLoss="45.18" rerouteNo="1" devices="tripinfo_h9563c2:5 routing_h9563c2:5 emissions_h9563c2:5" vType="default_016" speedFactor="0.95" vaporized="">
        <emissions CO_abs="6316.970080" CO2_abs="331515.798262" HC_abs="36.494453" PMx_abs="5.678843" NOx_abs="134.011390" fuel_abs="142.505816" electricity_abs="0"/>
    </tripinfo>
    <tripinfo id="h5979c1:5" depart="57669.00" departLane="399835085#1_1" departPos="5.10" departSpeed="0.00" departDelay="0.00" arrival="57768.00" arrivalLane="-315358254#1_1" arrivalPos="137.16" arrivalSpeed="12.03" duration="99.00" routeLength="659.33" waitingTime="4.00" waitingCount="1" stopTime="0.00" timeLoss="18.42" rerouteNo="1" devices="tripinfo_h5979c1:5 routing_h5979c1:5 emissions_h5979c1:5" vType="default_016" speedFactor="0.91" vaporized="">
        <emissions CO_abs="4014.326850" CO2_abs="181989.731691" HC_abs="22.456914" PMx_abs="2.958091" NOx_abs="73.755495" fuel_abs="78.230929" electricity_abs="0"/>
    </tripinfo>
    <tripinfo id="h317c2:1" depart="57707.00" departLane="-32978638#0_1" departPos="5.10" departSpeed="0.00" departDelay="0.10" arrival="57773.00" arrivalLane="-266565295#5_1" arrivalPos="172.76" arrivalSpeed="14.57" duration="66.00" routeLength="370.53" waitingTime="31.00" waitingCount="1" stopTime="0.00" timeLoss="42.03" rerouteNo="1" devices="tripinfo_h317c2:1 routing_h317c2:1 emissions_h317c2:1" vType="default_016" speedFactor="1.13" vaporized="">
        <emissions CO_abs="6507.061523" CO2_abs="200152.901506" HC_abs="34.259994" PMx_abs="4.148633" NOx_abs="85.673941" fuel_abs="86.039164" electricity_abs="0"/>
    </tripinfo>
    <tripinfo id="carIn27009:1" depart="57673.00" departLane="-447569998#1_1" departPos="5.10" departSpeed="0.00" departDelay="0.50" arrival="57774.00" arrivalLane="-26677539_1" arrivalPos="152.75" arrivalSpeed="9.11" duration="101.00" routeLength="699.63" waitingTime="15.00" waitingCount="1" stopTime="0.00" timeLoss="29.23" rerouteNo="1" devices="tripinfo_carIn27009:1 routing_carIn27009:1 emissions_carIn27009:1" vType="default_015" speedFactor="1.17" vaporized="">
        <emissions CO_abs="5555.406955" CO2_abs="226075.792374" HC_abs="30.526589" PMx_abs="3.951246" NOx_abs="93.119433" fuel_abs="97.182057" electricity_abs="0"/>
    </tripinfo>
    <tripinfo id="h330c1:1" depart="57736.00" departLane="-32978638#0_1" departPos="5.10" departSpeed="0.00" departDelay="0.20" arrival="57778.00" arrivalLane="-266565295#5_1" arrivalPos="172.76" arrivalSpeed="12.72" duration="42.00" routeLength="370.53" waitingTime="4.00" waitingCount="1" stopTime="0.00" timeLoss="12.89" rerouteNo="1" devices="tripinfo_h330c1:1 routing_h330c1:1 emissions_h330c1:1" vType="default_016" speedFactor="0.96" vaporized="">
        <emissions CO_abs="2518.720478" CO2_abs="125171.605337" HC_abs="14.422783" PMx_abs="2.374019" NOx_abs="52.425850" fuel_abs="53.806158" electricity_abs="0"/>
    </tripinfo>
    <tripinfo id="h11737c1:1" depart="57665.00" departLane="272042143_1" departPos="5.10" departSpeed="0.00" departDelay="1.50" arrival="57786.00" arrivalLane="-315358254#1_1" arrivalPos="137.16" arrivalSpeed="15.78" duration="121.00" routeLength="1596.88" waitingTime="1.00" waitingCount="1" stopTime="0.00" timeLoss="22.89" rerouteNo="1" devices="tripinfo_h11737c1:1 routing_h11737c1:1 emissions_h11737c1:1" vType="default_016" speedFactor="1.20" vaporized="">
        <emissions CO_abs="4656.517585" CO2_abs="358863.247649" HC_abs="29.618509" PMx_abs="6.398472" NOx_abs="144.559776" fuel_abs="154.259379" electricity_abs="0"/>
    </tripinfo>
    <tripinfo id="carIn118591:1" depart="57689.00" departLane="315358244_1" departPos="5.10" departSpeed="0.00" departDelay="0.20" arrival="57787.00" arrivalLane="386687235_1" arrivalPos="80.84" arrivalSpeed="14.72" duration="98.00" routeLength="1186.14" waitingTime="6.00" waitingCount="1" stopTime="0.00" timeLoss="19.66" rerouteNo="1" devices="tripinfo_carIn118591:1 routing_carIn118591:1 emissions_carIn118591:1" vType="default_016" speedFactor="1.11" vaporized="">
        <emissions CO_abs="3848.738793" CO2_abs="266390.082483" HC_abs="23.683078" PMx_abs="4.643672" NOx_abs="106.888430" fuel_abs="114.509730" electricity_abs="0"/>
    </tripinfo>
    <tripinfo id="h3154c1:1" depart="57658.00" departLane="24634507_1" departPos="5.10" departSpeed="0.00" departDelay="0.00" arrival="57788.00" arrivalLane="-266565295#5_1" arrivalPos="172.76" arrivalSpeed="12.40" duration="130.00" routeLength="1206.22" waitingTime="14.00" waitingCount="2" stopTime="0.00" timeLoss="37.53" rerouteNo="1" devices="tripinfo_h3154c1:1 routing_h3154c1:1 emissions_h3154c1:1" vType="default_016" speedFactor="0.96" vaporized="">
        <emissions CO_abs="5369.031015" CO2_abs="316831.288248" HC_abs="31.902166" PMx_abs="5.699099" NOx_abs="130.250008" fuel_abs="136.192482" electricity_abs="0"/>
    </tripinfo>
    <tripinfo id="carIn121703:1" depart="57647.00" departLane="386687232#0_1" departPos="5.10" departSpeed="0.00" departDelay="0.30" arrival="57793.00" arrivalLane="-315358244_1" arrivalPos="33.95" arrivalSpeed="13.14" duration="146.00" routeLength="1157.39" waitingTime="45.00" waitingCount="2" stopTime="0.00" timeLoss="62.85" rerouteNo="1" devices="tripinfo_carIn121703:1 routing_carIn121703:1 emissions_carIn121703:1" vType="default_016" speedFactor="1.01" vaporized="">
        <emissions CO_abs="10161.070153" CO2_abs="366394.758943" HC_abs="54.807087" PMx_abs="6.931468" NOx_abs="151.993697" fuel_abs="157.500680" electricity_abs="0"/>
    </tripinfo>
    <tripinfo id="carIn129809:1" depart="57729.00" departLane="-447569998#1_1" departPos="5.10" departSpeed="0.00" departDelay="1.00" arrival="57795.00" arrivalLane="-315358244_1" arrivalPos="33.95" arrivalSpeed="14.69" duration="66.00" routeLength="706.49" waitingTime="0.00" waitingCount="0" stopTime="0.00" timeLoss="9.79" rerouteNo="1" devices="tripinfo_carIn129809:1 routing_carIn129809:1 emissions_carIn129809:1" vType="default_015" speedFactor="1.08" vaporized="">
        <emissions CO_abs="2537.456789" CO2_abs="166465.304930" HC_abs="15.374387" PMx_abs="2.731636" NOx_abs="66.180624" fuel_abs="71.556658" electricity_abs="0"/>
    </tripinfo>
    <tripinfo id="carIn107282:1" depart="57749.00" departLane="-447569998#1_1" departPos="5.10" departSpeed="0.00" departDelay="0.00" arrival="57804.00" arrivalLane="315358242#0_1" arrivalPos="165.37" arrivalSpeed="15.33" duration="55.00" routeLength="448.50" waitingTime="9.00" waitingCount="1" stopTime="0.00" timeLoss="17.42" rerouteNo="1" devices="tripinfo_carIn107282:1 routing_carIn107282:1 emissions_carIn107282:1" vType="default_016" speedFactor="1.13" vaporized="">
        <emissions CO_abs="2906.242783" CO2_abs="141138.257630" HC_abs="16.490268" PMx_abs="2.528090" NOx_abs="57.906469" fuel_abs="60.669870" electricity_abs="0"/>
    </tripinfo>
    <tripinfo id="carIn12365:1" depart="57713.00" departLane="315358244_1" departPos="5.10" departSpeed="0.00" departDelay="0.50" arrival="57805.00" arrivalLane="447569997#1_1" arrivalPos="180.93" arrivalSpeed="6.70" duration="92.00" routeLength="718.04" waitingTime="11.00" waitingCount="1" stopTime="0.00" timeLoss="26.12" rerouteNo="1" devices="tripinfo_carIn12365:1 routing_carIn12365:1 emissions_carIn12365:1" vType="default_016" speedFactor="0.93" vaporized="">
        <emissions CO_abs="4677.460865" CO2_abs="210759.965059" HC_abs="26.193248" PMx_abs="3.657465" NOx_abs="86.086691" fuel_abs="90.597988" electricity_abs="0"/>
    </tripinfo>
    <tripinfo id="h7181c1:1" depart="57660.00" departLane="315358254#0_1" departPos="5.10" departSpeed="0.00" departDelay="0.10" arrival="57811.00" arrivalLane="306240162#0_0" arrivalPos="220.43" arrivalSpeed="15.11" duration="151.00" routeLength="932.35" waitingTime="78.00" waitingCount="2" stopTime="0.00" timeLoss="98.16" rerouteNo="1" devices="tripinfo_h7181c1:1 routing_h7181c1:1 emissions_h7181c1:1" vType="default_016" speedFactor="0.98" vaporized="">
        <emissions CO_abs="15790.710149" CO2_abs="460352.175235" HC_abs="82.802339" PMx_abs="9.979386" NOx_abs="198.397431" fuel_abs="197.890516" electricity_abs="0"/>
    </tripinfo>
    <tripinfo id="h645c1:1" depart="57622.00" departLane="266565295#5_1" departPos="5.10" departSpeed="0.00" departDelay="0.40" arrival="57817.00" arrivalLane="-315358244_1" arrivalPos="33.95" arrivalSpeed="13.28" duration="195.00" routeLength="1910.83" waitingTime="20.00" waitingCount="3" stopTime="0.00" timeLoss="52.57" rerouteNo="1" devices="tripinfo_h645c1:1 routing_h645c1:1 emissions_h645c1:1" vType="default_016" speedFactor="0.98" vaporized="">
        <emissions CO_abs="7405.104851" CO2_abs="445105.856259" HC_abs="44.137667" PMx_abs="7.634235" NOx_abs="179.661814" fuel_abs="191.332886" electricity_abs="0"/>
    </tripinfo>
    <tripinfo id="h17549c1:1" depart="57680.00" departLane="-447569998#1_1" departPos="5.10" departSpeed="0.00" departDelay="0.00" arrival="57817.00" arrivalLane="-315358254#1_1" arrivalPos="137.16" arrivalSpeed="16.22" duration="137.00" routeLength="1746.60" waitingTime="9.00" waitingCount="1" stopTime="0.00" timeLoss="25.89" rerouteNo="1" devices="tripinfo_h17549c1:1 routing_h17549c1:1 emissions_h17549c1:1" vType="default_016" speedFactor="1.23" vaporized="">
        <emissions CO_abs="5050.778135" CO2_abs="380203.396314" HC_abs="31.795694" PMx_abs="6.775756" NOx_abs="152.864474" fuel_abs="163.432672" electricity_abs="0"/>
    </tripinfo>
    <tripinfo id="carIn48184:1" depart="57613.00" departLane="-306240162#1_0" departPos="5.10" departSpeed="0.00" departDelay="0.70" arrival="57824.00" arrivalLane="386687235_1" arrivalPos="80.84" arrivalSpeed="13.84" duration="211.00" routeLength="2257.41" waitingTime="42.00" waitingCount="2" stopTime="0.00" timeLoss="73.33" rerouteNo="1" devices="tripinfo_carIn48184:1 routing_carIn48184:1 emissions_carIn48184:1" vType="default_016" speedFactor="1.08" vaporized="">
        <emissions CO_abs="12139.215708" CO2_abs="585078.076037" HC_abs="68.991197" PMx_abs="11.105636" NOx_abs="239.931082" fuel_abs="251.501964" electricity_abs="0"/>
    </tripinfo>
    <tripinfo id="carIn77943:1" depart="57608.00" departLane="124812856#0_1" departPos="5.10" departSpeed="0.00" departDelay="2.50" arrival="57827.00" arrivalLane="-128361102#1_1" arrivalPos="274.68" arrivalSpeed="13.38" duration="219.00" routeLength="2250.49" waitingTime="24.00" waitingCount="1" stopTime="0.00" timeLoss="49.89" rerouteNo="1" devices="tripinfo_carIn77943:1 routing_carIn77943:1 emissions_carIn77943:1" vType="default_016" speedFactor="0.97" vaporized="">
        <emissions CO_abs="9373.229835" CO2_abs="519876.062326" HC_abs="54.844120" PMx_abs="8.988058" NOx_abs="210.115206" fuel_abs="223.474083" electricity_abs="0"/>
    </tripinfo>
    <tripinfo id="carIn82220:1" depart="57619.00" departLane="-306240162#1_0" departPos="5.10" departSpeed="0.00" departDelay="3.50" arrival="57828.00" arrivalLane="386687235_1" arrivalPos="80.84" arrivalSpeed="14.22" duration="209.00" routeLength="2257.41" waitingTime="25.00" waitingCount="3" stopTime="0.00" timeLoss="68.41" rerouteNo="1" devices="tripinfo_carIn82220:1 routing_carIn82220:1 emissions_carIn82220:1" vType="default_016" speedFactor="1.06" vaporized="">
        <emissions CO_abs="10408.982853" CO2_abs="610137.221999" HC_abs="61.895603" PMx_abs="11.555284" NOx_abs="251.727945" fuel_abs="262.271870" electricity_abs="0"/>
    </tripinfo>
    <tripinfo id="carIn81860:1" depart="57712.00" departLane="128361102#0_1" departPos="5.10" departSpeed="0.00" departDelay="0.60" arrival="57828.00" arrivalLane="-24634517#17_1" arrivalPos="6.43" arrivalSpeed="7.00" duration="116.00" routeLength="1229.64" waitingTime="4.00" waitingCount="1" stopTime="0.00" timeLoss="20.51" rerouteNo="1" devices="tripinfo_carIn81860:1 routing_carIn81860:1 emissions_carIn81860:1" vType="default_016" speedFactor="0.94" vaporized="">
        <emissions CO_abs="3716.026290" CO2_abs="254158.699771" HC_abs="22.869784" PMx_abs="4.309033" NOx_abs="102.501163" fuel_abs="109.252090" electricity_abs="0"/>
    </tripinfo>
    <tripinfo id="carIn81046:1" depart="57611.00" departLane="124812856#0_1" departPos="5.10" departSpeed="0.00" departDelay="2.50" arrival="57829.00" arrivalLane="-128361102#1_1" arrivalPos="274.68" arrivalSpeed="13.37" duration="218.00" routeLength="2250.49" waitingTime="19.00" waitingCount="2" stopTime="0.00" timeLoss="48.08" rerouteNo="1" devices="tripinfo_carIn81046:1 routing_carIn81046:1 emissions_carIn81046:1" vType="default_016" speedFactor="0.96" vaporized="">
        <emissions CO_abs="7825.052052" CO2_abs="496152.630652" HC_abs="47.213545" PMx_abs="8.302431" NOx_abs="198.571260" fuel_abs="213.275800" electricity_abs="0"/>
    </tripinfo>
    <tripinfo id="carIn77438:1" depart="57614.00" departLane="124812856#0_1" departPos="5.10" departSpeed="0.00" departDelay="1.10" arrival="57831.00" arrivalLane="-128361102#1_1" arrivalPos="274.68" arrivalSpeed="13.50" duration="217.00" routeLength="2250.49" waitingTime="17.00" waitingCount="2" stopTime="0.00" timeLoss="54.52" rerouteNo="1" devices="tripinfo_carIn77438:1 routing_carIn77438:1 emissions_carIn77438:1" vType="default_016" speedFactor="1.01" vaporized="">
        <emissions CO_abs="7805.334701" CO2_abs="517461.272938" HC_abs="47.690785" PMx_abs="8.941106" NOx_abs="209.143069" fuel_abs="222.434760" electricity_abs="0"/>
    </tripinfo>
    <tripinfo id="h19804c1:3" depart="57617.00" departLane="124812856#0_1" departPos="5.10" departSpeed="0.00" departDelay="1.50" arrival="57833.00" arrivalLane="-128361102#1_1" arrivalPos="274.68" arrivalSpeed="12.98" duration="216.00" routeLength="2250.49" waitingTime="13.00" waitingCount="2" stopTime="0.00" timeLoss="44.65" rerouteNo="1" devices="tripinfo_h19804c1:3 routing_h19804c1:3 emissions_h19804c1:3" vType="default_016" speedFactor="0.96" vaporized="">
        <emissions CO_abs="6698.179083" CO2_abs="482068.840471" HC_abs="41.723393" PMx_abs="7.753901" NOx_abs="190.833369" fuel_abs="207.221465" electricity_abs="0"/>
    </tripinfo>
    <tripinfo id="carIn86816:1" depart="57617.00" departLane="128361102#0_1" departPos="5.10" departSpeed="0.00" departDelay="0.80" arrival="57835.00" arrivalLane="201956811#0_1" arrivalPos="40.40" arrivalSpeed="14.67" duration="218.00" routeLength="2067.33" waitingTime="45.00" waitingCount="2" stopTime="0.00" timeLoss="75.15" rerouteNo="1" devices="tripinfo_carIn86816:1 routing_carIn86816:1 emissions_carIn86816:1" vType="default_016" speedFactor="1.06" vaporized="">
        <emissions CO_abs="12452.719929" CO2_abs="599843.124476" HC_abs="70.635914" PMx_abs="10.969046" NOx_abs="245.694864" fuel_abs="257.849266" electricity_abs="0"/>
    </tripinfo>
    <tripinfo id="carIn107842:1" depart="57624.00" departLane="124812856#0_1" departPos="5.10" departSpeed="0.00" departDelay="2.90" arrival="57835.00" arrivalLane="-128361102#1_1" arrivalPos="274.68" arrivalSpeed="13.74" duration="211.00" routeLength="2250.49" waitingTime="11.00" waitingCount="2" stopTime="0.00" timeLoss="55.34" rerouteNo="1" devices="tripinfo_carIn107842:1 routing_carIn107842:1 emissions_carIn107842:1" vType="default_016" speedFactor="1.06" vaporized="">
        <emissions CO_abs="7808.674856" CO2_abs="534803.447416" HC_abs="48.091371" PMx_abs="9.394299" NOx_abs="217.307409" fuel_abs="229.888946" electricity_abs="0"/>
    </tripinfo>
    <tripinfo id="h15382c1:3" depart="57627.00" departLane="124812856#0_1" departPos="5.10" departSpeed="0.00" departDelay="4.80" arrival="57836.00" arrivalLane="-128361102#1_1" arrivalPos="274.68" arrivalSpeed="15.60" duration="209.00" routeLength="2232.46" waitingTime="11.00" waitingCount="3" stopTime="0.00" timeLoss="67.11" rerouteNo="1" devices="tripinfo_h15382c1:3 routing_h15382c1:3 emissions_h15382c1:3" vType="default_016" speedFactor="1.15" vaporized="">
        <emissions CO_abs="9305.381627" CO2_abs="622409.156413" HC_abs="57.001009" PMx_abs="11.454698" NOx_abs="255.880877" fuel_abs="267.546282" electricity_abs="0"/>
    </tripinfo>
    <tripinfo id="carIn102915:1" depart="57643.00" departLane="128361102#0_1" departPos="5.10" departSpeed="0.00" departDelay="0.40" arrival="57837.00" arrivalLane="201956811#0_1" arrivalPos="40.40" arrivalSpeed="14.23" duration="194.00" routeLength="2067.33" waitingTime="17.00" waitingCount="2" stopTime="0.00" timeLoss="47.10" rerouteNo="1" devices="tripinfo_carIn102915:1 routing_carIn102915:1 emissions_carIn102915:1" vType="default_016" speedFactor="1.04" vaporized="">
        <emissions CO_abs="8418.901259" CO2_abs="517377.359361" HC_abs="50.435893" PMx_abs="9.004583" NOx_abs="208.763641" fuel_abs="222.399186" electricity_abs="0"/>
    </tripinfo>
    <tripinfo id="carIn3969:1" depart="57630.00" departLane="124812856#0_1" departPos="5.10" departSpeed="0.00" departDelay="6.30" arrival="57838.00" arrivalLane="-128361102#1_1" arrivalPos="274.68" arrivalSpeed="16.23" duration="208.00" routeLength="2232.46" waitingTime="8.00" waitingCount="3" stopTime="0.00" timeLoss="71.62" rerouteNo="1" devices="tripinfo_carIn3969:1 routing_carIn3969:1 emissions_carIn3969:1" vType="default_016" speedFactor="1.20" vaporized="">
        <emissions CO_abs="10162.820395" CO2_abs="651747.562929" HC_abs="61.581312" PMx_abs="12.326331" NOx_abs="270.467520" fuel_abs="280.157372" electricity_abs="0"/>
    </tripinfo>
    <tripinfo id="carIn56649:1" depart="57633.00" departLane="124812856#0_1" departPos="5.10" departSpeed="0.00" departDelay="9.10" arrival="57841.00" arrivalLane="-128361102#1_1" arrivalPos="274.68" arrivalSpeed="13.14" duration="208.00" routeLength="2250.49" waitingTime="3.00" waitingCount="1" stopTime="0.00" timeLoss="37.06" rerouteNo="1" devices="tripinfo_carIn56649:1 routing_carIn56649:1 emissions_carIn56649:1" vType="default_016" speedFactor="0.96" vaporized="">
        <emissions CO_abs="7081.296694" CO2_abs="522427.342227" HC_abs="44.441673" PMx_abs="8.534559" NOx_abs="207.952257" fuel_abs="224.569534" electricity_abs="0"/>
    </tripinfo>
    <tripinfo id="carIn50326:1" depart="57651.00" departLane="128361102#0_1" departPos="5.10" departSpeed="0.00" departDelay="0.30" arrival="57841.00" arrivalLane="18809673#0_1" arrivalPos="473.56" arrivalSpeed="10.58" duration="190.00" routeLength="1591.07" waitingTime="4.00" waitingCount="2" stopTime="0.00" timeLoss="30.06" rerouteNo="1" devices="tripinfo_carIn50326:1 routing_carIn50326:1 emissions_carIn50326:1" vType="default_016" speedFactor="0.81" vaporized="">
        <emissions CO_abs="6497.000893" CO2_abs="366768.839863" HC_abs="38.006273" PMx_abs="5.632433" NOx_abs="145.353647" fuel_abs="157.660172" electricity_abs="0"/>
    </tripinfo>
    <tripinfo id="carIn46110:1" depart="57684.00" departLane="315358244_1" departPos="5.10" departSpeed="0.00" departDelay="1.20" arrival="57842.00" arrivalLane="32978638#0_1" arrivalPos="49.29" arrivalSpeed="12.20" duration="158.00" routeLength="1764.04" waitingTime="4.00" waitingCount="1" stopTime="0.00" timeLoss="23.15" rerouteNo="1" devices="tripinfo_carIn46110:1 routing_carIn46110:1 emissions_carIn46110:1" vType="default_016" speedFactor="0.95" vaporized="">
        <emissions CO_abs="4533.090329" CO2_abs="361833.372337" HC_abs="29.052653" PMx_abs="5.681283" NOx_abs="142.156281" fuel_abs="155.537015" electricity_abs="0"/>
    </tripinfo>