<?xml version="1.0" encoding="UTF-8"?>

<!-- generated on 2021-10-26 18:11:46 by Eclipse SUMO sumo Version 1.10.0
<configuration xmlns:xsi="http://www.w3.org/2001/XMLSchema-instance" xsi:noNamespaceSchemaLocation="http://sumo.dlr.de/xsd/sumoConfiguration.xsd">

    <input>
        <net-file value="/Users/behradkoohy/sumo-scratchpad/RESCO/environments/ingolstadt21/ingolstadt21.net.xml"/>
        <route-files value="/Users/behradkoohy/sumo-scratchpad/RESCO/environments/ingolstadt21/ingolstadt21.rou.xml"/>
    </input>

    <output>
        <tripinfo-output value="/Users/behradkoohy/sumo-scratchpad/RESCO/logs/IPPO-tr0-ingolstadt21-21-drq_norm-wait_norm/tripinfo_50.xml"/>
        <tripinfo-output.write-unfinished value="true"/>
    </output>

    <time>
        <begin value="57600"/>
        <end value="61200"/>
    </time>

    <processing>
        <time-to-teleport value="-1"/>
    </processing>

    <report>
        <no-warnings value="true"/>
        <no-step-log value="true"/>
    </report>

    <emissions>
        <device.emissions.probability value="1"/>
    </emissions>

    <traci_server>
        <remote-port value="62131"/>
    </traci_server>

    <random_number>
        <random value="true"/>
    </random_number>

</configuration>
-->

<tripinfos xmlns:xsi="http://www.w3.org/2001/XMLSchema-instance" xsi:noNamespaceSchemaLocation="http://sumo.dlr.de/xsd/tripinfo_file.xsd">
    <tripinfo id="carIn53971:1" depart="57640.00" departLane="272042143_1" departPos="5.10" departSpeed="0.00" departDelay="0.80" arrival="57691.00" arrivalLane="24634414#1_1" arrivalPos="162.19" arrivalSpeed="8.87" duration="51.00" routeLength="493.04" waitingTime="0.00" waitingCount="0" stopTime="0.00" timeLoss="8.62" rerouteNo="1" devices="tripinfo_carIn53971:1 routing_carIn53971:1 emissions_carIn53971:1" vType="default_016" speedFactor="1.08" vaporized="">
        <emissions CO_abs="2521.165892" CO2_abs="150659.129555" HC_abs="15.029242" PMx_abs="2.744387" NOx_abs="62.366236" fuel_abs="64.761939" electricity_abs="0"/>
    </tripinfo>
    <tripinfo id="carIn60260:1" depart="57606.00" departLane="315358254#0_1" departPos="5.10" departSpeed="0.00" departDelay="0.90" arrival="57698.00" arrivalLane="399835085#1_1" arrivalPos="212.23" arrivalSpeed="4.72" duration="92.00" routeLength="430.98" waitingTime="31.00" waitingCount="1" stopTime="0.00" timeLoss="43.63" rerouteNo="1" devices="tripinfo_carIn60260:1 routing_carIn60260:1 emissions_carIn60260:1" vType="default_016" speedFactor="0.95" vaporized="">
        <emissions CO_abs="7375.848531" CO2_abs="205793.007028" HC_abs="38.378922" PMx_abs="4.127307" NOx_abs="88.143224" fuel_abs="88.464377" electricity_abs="0"/>
    </tripinfo>
    <tripinfo id="h15454c2:3" depart="57612.00" departLane="24608844_1" departPos="5.10" departSpeed="0.00" departDelay="0.50" arrival="57710.00" arrivalLane="32978638#0_1" arrivalPos="49.29" arrivalSpeed="12.04" duration="98.00" routeLength="354.79" waitingTime="46.00" waitingCount="1" stopTime="0.00" timeLoss="58.86" rerouteNo="1" devices="tripinfo_h15454c2:3 routing_h15454c2:3 emissions_h15454c2:3" vType="default_016" speedFactor="0.88" vaporized="">
        <emissions CO_abs="9700.223208" CO2_abs="237477.948801" HC_abs="49.703869" PMx_abs="4.956292" NOx_abs="102.833307" fuel_abs="102.085539" electricity_abs="0"/>
    </tripinfo>
    <tripinfo id="h7800c1:5" depart="57696.00" departLane="-447569998#1_1" departPos="5.10" departSpeed="0.00" departDelay="0.00" arrival="57720.00" arrivalLane="-447569998#1_2" arrivalPos="180.76" arrivalSpeed="7.91" duration="24.00" routeLength="175.66" waitingTime="0.00" waitingCount="0" stopTime="0.00" timeLoss="3.44" rerouteNo="1" devices="tripinfo_h7800c1:5 routing_h7800c1:5 emissions_h7800c1:5" vType="default_016" speedFactor="1.06" vaporized="">
        <emissions CO_abs="1179.506470" CO2_abs="53243.693944" HC_abs="6.594237" PMx_abs="0.873807" NOx_abs="21.655229" fuel_abs="22.887564" electricity_abs="0"/>
    </tripinfo>
    <tripinfo id="h317c2:1" depart="57707.00" departLane="-32978638#0_1" departPos="5.10" departSpeed="0.00" departDelay="0.10" arrival="57741.00" arrivalLane="-266565295#5_1" arrivalPos="172.76" arrivalSpeed="12.58" duration="34.00" routeLength="370.53" waitingTime="0.00" waitingCount="0" stopTime="0.00" timeLoss="6.27" rerouteNo="1" devices="tripinfo_h317c2:1 routing_h317c2:1 emissions_h317c2:1" vType="default_016" speedFactor="1.00" vaporized="">
        <emissions CO_abs="1631.290018" CO2_abs="106941.032235" HC_abs="9.923250" PMx_abs="1.859156" NOx_abs="43.414479" fuel_abs="45.969419" electricity_abs="0"/>
    </tripinfo>
    <tripinfo id="h3688c1:1" depart="57625.00" departLane="201201950#1_1" departPos="5.10" departSpeed="0.00" departDelay="0.00" arrival="57743.00" arrivalLane="32978638#0_1" arrivalPos="49.29" arrivalSpeed="12.01" duration="118.00" routeLength="1089.75" waitingTime="17.00" waitingCount="1" stopTime="0.00" timeLoss="32.24" rerouteNo="1" devices="tripinfo_h3688c1:1 routing_h3688c1:1 emissions_h3688c1:1" vType="default_016" speedFactor="0.94" vaporized="">
        <emissions CO_abs="5720.460318" CO2_abs="288642.993944" HC_abs="32.798235" PMx_abs="5.095351" NOx_abs="117.834181" fuel_abs="124.076395" electricity_abs="0"/>
    </tripinfo>
    <tripinfo id="carIn80064:1" depart="57603.00" departLane="128361109#1_1" departPos="5.10" departSpeed="0.00" departDelay="0.40" arrival="57747.00" arrivalLane="-315358254#1_1" arrivalPos="137.16" arrivalSpeed="13.62" duration="144.00" routeLength="1587.97" waitingTime="22.00" waitingCount="2" stopTime="0.00" timeLoss="54.56" rerouteNo="1" devices="tripinfo_carIn80064:1 routing_carIn80064:1 emissions_carIn80064:1" vType="default_016" speedFactor="1.00" vaporized="">
        <emissions CO_abs="9308.650818" CO2_abs="509155.146624" HC_abs="54.432798" PMx_abs="9.813707" NOx_abs="209.236322" fuel_abs="218.864454" electricity_abs="0"/>
    </tripinfo>
    <tripinfo id="h3568c1:3" depart="57656.00" departLane="266565295#5_1" departPos="5.10" departSpeed="0.00" departDelay="0.80" arrival="57749.00" arrivalLane="-24634415_1" arrivalPos="62.03" arrivalSpeed="13.44" duration="93.00" routeLength="807.40" waitingTime="10.00" waitingCount="2" stopTime="0.00" timeLoss="31.08" rerouteNo="1" devices="tripinfo_h3568c1:3 routing_h3568c1:3 emissions_h3568c1:3" vType="default_016" speedFactor="1.04" vaporized="">
        <emissions CO_abs="4954.997342" CO2_abs="261722.871644" HC_abs="28.691430" PMx_abs="4.852367" NOx_abs="108.623851" fuel_abs="112.503892" electricity_abs="0"/>
    </tripinfo>
    <tripinfo id="carIn30817:1" depart="57681.00" departLane="315358244_1" departPos="5.10" departSpeed="0.00" departDelay="0.20" arrival="57762.00" arrivalLane="447569997#1_1" arrivalPos="180.93" arrivalSpeed="7.71" duration="81.00" routeLength="718.04" waitingTime="1.00" waitingCount="1" stopTime="0.00" timeLoss="16.05" rerouteNo="1" devices="tripinfo_carIn30817:1 routing_carIn30817:1 emissions_carIn30817:1" vType="default_016" speedFactor="0.95" vaporized="">
        <emissions CO_abs="3497.355260" CO2_abs="192017.785830" HC_abs="20.383182" PMx_abs="3.212566" NOx_abs="77.757673" fuel_abs="82.540930" electricity_abs="0"/>
    </tripinfo>
    <tripinfo id="h12244c1:3" depart="57612.00" departLane="315358244_1" departPos="5.10" departSpeed="0.00" departDelay="0.40" arrival="57767.00" arrivalLane="386687235_1" arrivalPos="80.84" arrivalSpeed="12.86" duration="155.00" routeLength="1186.14" waitingTime="45.00" waitingCount="3" stopTime="0.00" timeLoss="65.09" rerouteNo="1" devices="tripinfo_h12244c1:3 routing_h12244c1:3 emissions_h12244c1:3" vType="default_016" speedFactor="0.96" vaporized="">
        <emissions CO_abs="10453.193672" CO2_abs="389149.298991" HC_abs="56.696097" PMx_abs="7.348542" NOx_abs="162.006190" fuel_abs="167.281753" electricity_abs="0"/>
    </tripinfo>
    <tripinfo id="h330c1:1" depart="57736.00" departLane="-32978638#0_1" departPos="5.10" departSpeed="0.00" departDelay="0.20" arrival="57770.00" arrivalLane="-266565295#5_1" arrivalPos="172.76" arrivalSpeed="13.57" duration="34.00" routeLength="370.53" waitingTime="0.00" waitingCount="0" stopTime="0.00" timeLoss="6.25" rerouteNo="1" devices="tripinfo_h330c1:1 routing_h330c1:1 emissions_h330c1:1" vType="default_016" speedFactor="1.01" vaporized="">
        <emissions CO_abs="1653.607014" CO2_abs="106509.543202" HC_abs="10.028449" PMx_abs="1.929016" NOx_abs="43.762569" fuel_abs="45.783844" electricity_abs="0"/>
    </tripinfo>
    <tripinfo id="h3326c1:2" depart="57656.00" departLane="22716069#0_1" departPos="5.10" departSpeed="0.00" departDelay="0.00" arrival="57771.00" arrivalLane="24634517#13_1" arrivalPos="111.62" arrivalSpeed="13.08" duration="115.00" routeLength="1312.81" waitingTime="1.00" waitingCount="1" stopTime="0.00" timeLoss="20.15" rerouteNo="1" devices="tripinfo_h3326c1:2 routing_h3326c1:2 emissions_h3326c1:2" vType="default_016" speedFactor="1.02" vaporized="">
        <emissions CO_abs="4317.104321" CO2_abs="315481.238120" HC_abs="27.007938" PMx_abs="5.390509" NOx_abs="126.901566" fuel_abs="135.611794" electricity_abs="0"/>
    </tripinfo>
    <tripinfo id="S5R_frequency1.2" depart="57624.00" departLane="315358250#0_1" departPos="12.10" departSpeed="0.00" departDelay="12.40" arrival="57772.00" arrivalLane="386687235_1" arrivalPos="80.84" arrivalSpeed="13.48" duration="148.00" routeLength="1115.62" waitingTime="39.00" waitingCount="1" stopTime="0.00" timeLoss="66.77" rerouteNo="1" devices="tripinfo_S5R_frequency1.2 routing_S5R_frequency1.2 emissions_S5R_frequency1.2" vType="bus" speedFactor="1.00" vaporized="">
        <emissions CO_abs="3044.168982" CO2_abs="1643861.104441" HC_abs="652.496306" PMx_abs="320.051882" NOx_abs="13475.858325" fuel_abs="700.994818" electricity_abs="0"/>
    </tripinfo>
    <tripinfo id="carIn107084:1" depart="57601.00" departLane="124812856#0_1" departPos="5.10" departSpeed="0.00" departDelay="0.70" arrival="57773.00" arrivalLane="-128361102#1_1" arrivalPos="274.68" arrivalSpeed="14.21" duration="172.00" routeLength="2250.49" waitingTime="0.00" waitingCount="0" stopTime="0.00" timeLoss="19.63" rerouteNo="1" devices="tripinfo_carIn107084:1 routing_carIn107084:1 emissions_carIn107084:1" vType="default_016" speedFactor="1.08" vaporized="">
        <emissions CO_abs="5685.240287" CO2_abs="495041.293586" HC_abs="37.326025" PMx_abs="8.281823" NOx_abs="196.255943" fuel_abs="212.796422" electricity_abs="0"/>
    </tripinfo>
    <tripinfo id="h7181c1:1" depart="57660.00" departLane="315358254#0_1" departPos="5.10" departSpeed="0.00" departDelay="0.10" arrival="57773.00" arrivalLane="306240162#0_0" arrivalPos="220.43" arrivalSpeed="14.37" duration="113.00" routeLength="932.35" waitingTime="36.00" waitingCount="2" stopTime="0.00" timeLoss="53.59" rerouteNo="1" devices="tripinfo_h7181c1:1 routing_h7181c1:1 emissions_h7181c1:1" vType="default_016" speedFactor="0.87" vaporized="">
        <emissions CO_abs="8598.181551" CO2_abs="330154.875375" HC_abs="46.918833" PMx_abs="6.615513" NOx_abs="138.924190" fuel_abs="141.921381" electricity_abs="0"/>
    </tripinfo>
    <tripinfo id="carIn22761:1" depart="57616.00" departLane="-306240162#1_0" departPos="5.10" departSpeed="0.00" departDelay="2.10" arrival="57790.00" arrivalLane="399835085#1_1" arrivalPos="212.23" arrivalSpeed="9.22" duration="174.00" routeLength="1093.26" waitingTime="75.00" waitingCount="1" stopTime="0.00" timeLoss="104.32" rerouteNo="1" devices="tripinfo_carIn22761:1 routing_carIn22761:1 emissions_carIn22761:1" vType="default_016" speedFactor="1.12" vaporized="">
        <emissions CO_abs="18105.080216" CO2_abs="563674.522613" HC_abs="95.839177" PMx_abs="12.118671" NOx_abs="243.488181" fuel_abs="242.304437" electricity_abs="0"/>
    </tripinfo>
    <tripinfo id="carIn121703:1" depart="57647.00" departLane="386687232#0_1" departPos="5.10" departSpeed="0.00" departDelay="0.30" arrival="57793.00" arrivalLane="-315358244_1" arrivalPos="33.95" arrivalSpeed="14.77" duration="146.00" routeLength="1157.39" waitingTime="52.00" waitingCount="2" stopTime="0.00" timeLoss="71.24" rerouteNo="1" devices="tripinfo_carIn121703:1 routing_carIn121703:1 emissions_carIn121703:1" vType="default_016" speedFactor="1.13" vaporized="">
        <emissions CO_abs="11478.492558" CO2_abs="421897.100862" HC_abs="62.196201" PMx_abs="8.430132" NOx_abs="177.649347" fuel_abs="181.358407" electricity_abs="0"/>
    </tripinfo>
    <tripinfo id="h4538c1:1" depart="57701.00" departLane="-10427692#1_1" departPos="5.10" departSpeed="0.00" departDelay="0.00" arrival="57796.00" arrivalLane="-128361102#1_1" arrivalPos="274.68" arrivalSpeed="13.44" duration="95.00" routeLength="440.74" waitingTime="53.00" waitingCount="1" stopTime="0.00" timeLoss="63.07" rerouteNo="1" devices="tripinfo_h4538c1:1 routing_h4538c1:1 emissions_h4538c1:1" vType="default_016" speedFactor="1.01" vaporized="">
        <emissions CO_abs="9524.582484" CO2_abs="238976.602245" HC_abs="48.964956" PMx_abs="5.108440" NOx_abs="103.514182" fuel_abs="102.729459" electricity_abs="0"/>
    </tripinfo>
    <tripinfo id="carIn107282:1" depart="57749.00" departLane="-447569998#1_1" departPos="5.10" departSpeed="0.00" departDelay="0.00" arrival="57797.00" arrivalLane="315358242#0_1" arrivalPos="165.37" arrivalSpeed="12.10" duration="48.00" routeLength="448.50" waitingTime="0.00" waitingCount="0" stopTime="0.00" timeLoss="4.81" rerouteNo="1" devices="tripinfo_carIn107282:1 routing_carIn107282:1 emissions_carIn107282:1" vType="default_016" speedFactor="0.96" vaporized="">
        <emissions CO_abs="1883.394485" CO2_abs="108739.892509" HC_abs="11.096459" PMx_abs="1.778296" NOx_abs="43.716463" fuel_abs="46.743009" electricity_abs="0"/>
    </tripinfo>
    <tripinfo id="carIn27009:1" depart="57673.00" departLane="-447569998#1_1" departPos="5.10" departSpeed="0.00" departDelay="0.50" arrival="57804.00" arrivalLane="-26677539_1" arrivalPos="152.75" arrivalSpeed="5.45" duration="131.00" routeLength="699.63" waitingTime="0.00" waitingCount="0" stopTime="0.00" timeLoss="16.60" rerouteNo="1" devices="tripinfo_carIn27009:1 routing_carIn27009:1 emissions_carIn27009:1" vType="default_015" speedFactor="0.73" vaporized="">
        <emissions CO_abs="5524.761086" CO2_abs="192173.378761" HC_abs="29.532680" PMx_abs="3.189798" NOx_abs="78.919088" fuel_abs="82.609453" electricity_abs="0"/>
    </tripinfo>
    <tripinfo id="h9563c2:5" depart="57631.00" departLane="315358244_1" departPos="5.10" departSpeed="0.00" departDelay="0.70" arrival="57808.00" arrivalLane="386687235_1" arrivalPos="80.84" arrivalSpeed="13.24" duration="177.00" routeLength="1186.14" waitingTime="69.00" waitingCount="2" stopTime="0.00" timeLoss="87.71" rerouteNo="1" devices="tripinfo_h9563c2:5 routing_h9563c2:5 emissions_h9563c2:5" vType="default_016" speedFactor="0.98" vaporized="">
        <emissions CO_abs="13952.482982" CO2_abs="448806.647814" HC_abs="74.023727" PMx_abs="8.780211" NOx_abs="188.536373" fuel_abs="192.927557" electricity_abs="0"/>
    </tripinfo>
    <tripinfo id="carIn81860:1" depart="57712.00" departLane="128361102#0_1" departPos="5.10" departSpeed="0.00" departDelay="0.60" arrival="57813.00" arrivalLane="-24634517#17_1" arrivalPos="6.43" arrivalSpeed="7.16" duration="101.00" routeLength="1229.64" waitingTime="0.00" waitingCount="0" stopTime="0.00" timeLoss="12.76" rerouteNo="1" devices="tripinfo_carIn81860:1 routing_carIn81860:1 emissions_carIn81860:1" vType="default_016" speedFactor="1.03" vaporized="">
        <emissions CO_abs="2966.182350" CO2_abs="247380.963687" HC_abs="19.244193" PMx_abs="3.948683" NOx_abs="97.151107" fuel_abs="106.338546" electricity_abs="0"/>
    </tripinfo>
    <tripinfo id="carIn12365:1" depart="57713.00" departLane="315358244_1" departPos="5.10" departSpeed="0.00" departDelay="0.50" arrival="57813.00" arrivalLane="447569997#1_1" arrivalPos="180.93" arrivalSpeed="7.16" duration="100.00" routeLength="718.04" waitingTime="17.00" waitingCount="2" stopTime="0.00" timeLoss="34.25" rerouteNo="1" devices="tripinfo_carIn12365:1 routing_carIn12365:1 emissions_carIn12365:1" vType="default_016" speedFactor="0.94" vaporized="">
        <emissions CO_abs="5122.485065" CO2_abs="217192.039678" HC_abs="28.374520" PMx_abs="3.847097" NOx_abs="89.239175" fuel_abs="93.363038" electricity_abs="0"/>
    </tripinfo>
    <tripinfo id="carIn129809:1" depart="57729.00" departLane="-447569998#1_1" departPos="5.10" departSpeed="0.00" departDelay="1.00" arrival="57818.00" arrivalLane="-315358244_1" arrivalPos="33.95" arrivalSpeed="12.95" duration="89.00" routeLength="706.49" waitingTime="16.00" waitingCount="1" stopTime="0.00" timeLoss="27.44" rerouteNo="1" devices="tripinfo_carIn129809:1 routing_carIn129809:1 emissions_carIn129809:1" vType="default_015" speedFactor="0.98" vaporized="">
        <emissions CO_abs="3969.614636" CO2_abs="173992.571673" HC_abs="22.132216" PMx_abs="3.108555" NOx_abs="71.505996" fuel_abs="74.793003" electricity_abs="0"/>
    </tripinfo>
    <tripinfo id="carIn82278:1" depart="57702.00" departLane="-306240162#1_0" departPos="5.10" departSpeed="0.00" departDelay="0.70" arrival="57822.00" arrivalLane="399835085#1_1" arrivalPos="212.23" arrivalSpeed="7.95" duration="120.00" routeLength="1093.26" waitingTime="10.00" waitingCount="1" stopTime="0.00" timeLoss="40.28" rerouteNo="1" devices="tripinfo_carIn82278:1 routing_carIn82278:1 emissions_carIn82278:1" vType="default_016" speedFactor="0.97" vaporized="">
        <emissions CO_abs="6431.985936" CO2_abs="338745.273984" HC_abs="37.239793" PMx_abs="6.301818" NOx_abs="139.972541" fuel_abs="145.612716" electricity_abs="0"/>
    </tripinfo>
    <tripinfo id="carIn77943:1" depart="57608.00" departLane="124812856#0_1" departPos="5.10" departSpeed="0.00" departDelay="2.50" arrival="57829.00" arrivalLane="-128361102#1_1" arrivalPos="274.68" arrivalSpeed="11.58" duration="221.00" routeLength="2250.49" waitingTime="12.00" waitingCount="2" stopTime="0.00" timeLoss="43.64" rerouteNo="1" devices="tripinfo_carIn77943:1 routing_carIn77943:1 emissions_carIn77943:1" vType="default_016" speedFactor="0.92" vaporized="">
        <emissions CO_abs="7242.356438" CO2_abs="495651.595424" HC_abs="44.532238" PMx_abs="8.125491" NOx_abs="198.013461" fuel_abs="213.060117" electricity_abs="0"/>
    </tripinfo>
    <tripinfo id="h5979c1:5" depart="57669.00" departLane="399835085#1_1" departPos="5.10" departSpeed="0.00" departDelay="0.00" arrival="57830.00" arrivalLane="-315358254#1_1" arrivalPos="137.16" arrivalSpeed="10.22" duration="161.00" routeLength="659.33" waitingTime="53.00" waitingCount="1" stopTime="0.00" timeLoss="68.77" rerouteNo="1" devices="tripinfo_h5979c1:5 routing_h5979c1:5 emissions_h5979c1:5" vType="default_016" speedFactor="0.79" vaporized="">
        <emissions CO_abs="13052.269813" CO2_abs="319041.451141" HC_abs="66.790623" PMx_abs="6.305158" NOx_abs="136.440449" fuel_abs="137.148047" electricity_abs="0"/>
    </tripinfo>
    <tripinfo id="h3864c1:3" depart="57678.00" departLane="24693977#1_1" departPos="5.10" departSpeed="0.00" departDelay="0.00" arrival="57830.00" arrivalLane="201956820_1" arrivalPos="48.33" arrivalSpeed="14.34" duration="152.00" routeLength="1574.85" waitingTime="5.00" waitingCount="1" stopTime="0.00" timeLoss="34.03" rerouteNo="1" devices="tripinfo_h3864c1:3 routing_h3864c1:3 emissions_h3864c1:3" vType="default_016" speedFactor="1.09" vaporized="">
        <emissions CO_abs="6937.956646" CO2_abs="436960.501037" HC_abs="41.881927" PMx_abs="8.093785" NOx_abs="181.070668" fuel_abs="187.830234" electricity_abs="0"/>
    </tripinfo>
    <tripinfo id="carIn81046:1" depart="57611.00" departLane="124812856#0_1" departPos="5.10" departSpeed="0.00" departDelay="2.50" arrival="57831.00" arrivalLane="-128361102#1_1" arrivalPos="274.68" arrivalSpeed="14.24" duration="220.00" routeLength="2250.49" waitingTime="9.00" waitingCount="2" stopTime="0.00" timeLoss="70.56" rerouteNo="1" devices="tripinfo_carIn81046:1 routing_carIn81046:1 emissions_carIn81046:1" vType="default_016" speedFactor="1.10" vaporized="">
        <emissions CO_abs="9381.945881" CO2_abs="601577.407927" HC_abs="56.869101" PMx_abs="10.619631" NOx_abs="245.429787" fuel_abs="258.592569" electricity_abs="0"/>
    </tripinfo>
    <tripinfo id="h17600c1:1" depart="57662.00" departLane="272042143_1" departPos="5.10" departSpeed="0.00" departDelay="0.30" arrival="57832.00" arrivalLane="201238729#3_1" arrivalPos="431.02" arrivalSpeed="12.95" duration="170.00" routeLength="2100.26" waitingTime="0.00" waitingCount="0" stopTime="0.00" timeLoss="17.29" rerouteNo="1" devices="tripinfo_h17600c1:1 routing_h17600c1:1 emissions_h17600c1:1" vType="default_016" speedFactor="0.99" vaporized="">
        <emissions CO_abs="4107.844710" CO2_abs="381820.583217" HC_abs="27.537244" PMx_abs="5.784354" NOx_abs="147.547003" fuel_abs="164.128531" electricity_abs="0"/>
    </tripinfo>
    <tripinfo id="carIn77438:1" depart="57614.00" departLane="124812856#0_1" departPos="5.10" departSpeed="0.00" departDelay="1.10" arrival="57833.00" arrivalLane="-128361102#1_1" arrivalPos="274.68" arrivalSpeed="15.58" duration="219.00" routeLength="2250.49" waitingTime="19.00" waitingCount="3" stopTime="0.00" timeLoss="72.49" rerouteNo="1" devices="tripinfo_carIn77438:1 routing_carIn77438:1 emissions_carIn77438:1" vType="default_016" speedFactor="1.13" vaporized="">
        <emissions CO_abs="10034.750624" CO2_abs="595401.676916" HC_abs="59.642270" PMx_abs="11.002224" NOx_abs="245.334650" fuel_abs="255.937827" electricity_abs="0"/>
    </tripinfo>
    <tripinfo id="randUni14624:1" depart="57606.00" departLane="315358244_1" departPos="5.10" departSpeed="0.00" departDelay="0.80" arrival="57835.00" arrivalLane="-25149001#4_1" arrivalPos="105.67" arrivalSpeed="9.25" duration="229.00" routeLength="2803.98" waitingTime="11.00" waitingCount="2" stopTime="0.00" timeLoss="40.74" rerouteNo="1" devices="tripinfo_randUni14624:1 routing_randUni14624:1 emissions_randUni14624:1" vType="random_016" speedFactor="1.12" vaporized="">
        <emissions CO_abs="7556.625240" CO2_abs="610232.321774" HC_abs="48.414168" PMx_abs="10.326740" NOx_abs="242.587766" fuel_abs="262.312246" electricity_abs="0"/>
    </tripinfo>
    <tripinfo id="carIn28951:1" depart="57606.00" departLane="10425609#0_1" departPos="5.10" departSpeed="0.00" departDelay="0.20" arrival="57836.00" arrivalLane="-128361102#1_1" arrivalPos="274.68" arrivalSpeed="11.48" duration="230.00" routeLength="2113.04" waitingTime="23.00" waitingCount="2" stopTime="0.00" timeLoss="59.63" rerouteNo="1" devices="tripinfo_carIn28951:1 routing_carIn28951:1 emissions_carIn28951:1" vType="default_016" speedFactor="0.91" vaporized="">
        <emissions CO_abs="9292.230417" CO2_abs="507254.511116" HC_abs="54.103106" PMx_abs="8.456522" NOx_abs="203.780567" fuel_abs="218.049101" electricity_abs="0"/>
    </tripinfo>
    <tripinfo id="carIn118591:1" depart="57689.00" departLane="315358244_1" departPos="5.10" departSpeed="0.00" departDelay="0.20" arrival="57837.00" arrivalLane="386687235_1" arrivalPos="80.84" arrivalSpeed="9.46" duration="148.00" routeLength="1186.14" waitingTime="19.00" waitingCount="2" stopTime="0.00" timeLoss="35.43" rerouteNo="1" devices="tripinfo_carIn118591:1 routing_carIn118591:1 emissions_carIn118591:1" vType="default_016" speedFactor="0.77" vaporized="">
        <emissions CO_abs="6143.634745" CO2_abs="296912.359209" HC_abs="34.790294" PMx_abs="4.670694" NOx_abs="118.199456" fuel_abs="127.632097" electricity_abs="0"/>
    </tripinfo>
    <tripinfo id="h20540c1:1" depart="57634.00" departLane="10425609#0_1" departPos="5.10" departSpeed="0.00" departDelay="0.50" arrival="57838.00" arrivalLane="-128361102#1_1" arrivalPos="274.68" arrivalSpeed="13.63" duration="204.00" routeLength="2113.04" waitingTime="7.00" waitingCount="2" stopTime="0.00" timeLoss="46.56" rerouteNo="1" devices="tripinfo_h20540c1:1 routing_h20540c1:1 emissions_h20540c1:1" vType="default_016" speedFactor="0.99" vaporized="">
        <emissions CO_abs="7642.298444" CO2_abs="509733.120554" HC_abs="46.764731" PMx_abs="8.845388" NOx_abs="207.150760" fuel_abs="219.112564" electricity_abs="0"/>
    </tripinfo>
    <tripinfo id="h19804c1:3" depart="57617.00" departLane="124812856#0_1" departPos="5.10" departSpeed="0.00" departDelay="1.50" arrival="57839.00" arrivalLane="-128361102#1_1" arrivalPos="274.68" arrivalSpeed="13.22" duration="222.00" routeLength="2250.49" waitingTime="18.00" waitingCount="1" stopTime="0.00" timeLoss="64.77" rerouteNo="1" devices="tripinfo_h19804c1:3 routing_h19804c1:3 emissions_h19804c1:3" vType="default_016" speedFactor="1.04" vaporized="">
        <emissions CO_abs="10168.149550" CO2_abs="592020.009087" HC_abs="60.212579" PMx_abs="10.625903" NOx_abs="242.600722" fuel_abs="254.484785" electricity_abs="0"/>
    </tripinfo>
    <tripinfo id="carIn107842:1" depart="57623.00" departLane="124812856#0_1" departPos="5.10" departSpeed="0.00" departDelay="1.90" arrival="57841.00" arrivalLane="-128361102#1_1" arrivalPos="274.68" arrivalSpeed="13.27" duration="218.00" routeLength="2250.49" waitingTime="14.00" waitingCount="1" stopTime="0.00" timeLoss="52.53" rerouteNo="1" devices="tripinfo_carIn107842:1 routing_carIn107842:1 emissions_carIn107842:1" vType="default_016" speedFactor="0.99" vaporized="">
        <emissions CO_abs="9213.756480" CO2_abs="586632.479110" HC_abs="55.713346" PMx_abs="10.205411" NOx_abs="238.025353" fuel_abs="252.168697" electricity_abs="0"/>
    </tripinfo>
    <tripinfo id="carIn50326:1" depart="57651.00" departLane="128361102#0_1" departPos="5.10" departSpeed="0.00" departDelay="0.30" arrival="57841.00" arrivalLane="18809673#0_1" arrivalPos="473.56" arrivalSpeed="13.76" duration="190.00" routeLength="1591.07" waitingTime="33.00" waitingCount="3" stopTime="0.00" timeLoss="63.79" rerouteNo="1" devices="tripinfo_carIn50326:1 routing_carIn50326:1 emissions_carIn50326:1" vType="default_016" speedFactor="1.03" vaporized="">
        <emissions CO_abs="9438.943133" CO2_abs="436940.644959" HC_abs="53.115596" PMx_abs="7.694829" NOx_abs="178.021862" fuel_abs="187.824495" electricity_abs="0"/>
    </tripinfo>
    <tripinfo id="carIn3969:1" depart="57629.00" departLane="124812856#0_1" departPos="5.10" departSpeed="0.00" departDelay="5.30" arrival="57843.00" arrivalLane="-128361102#1_1" arrivalPos="274.68" arrivalSpeed="14.26" duration="214.00" routeLength="2250.49" waitingTime="15.00" waitingCount="1" stopTime="0.00" timeLoss="65.85" rerouteNo="1" devices="tripinfo_carIn3969:1 routing_carIn3969:1 emissions_carIn3969:1" vType="default_016" speedFactor="1.11" vaporized="">
        <emissions CO_abs="10492.017099" CO2_abs="634680.203004" HC_abs="62.723101" PMx_abs="11.485524" NOx_abs="260.554467" fuel_abs="272.822150" electricity_abs="0"/>
    </tripinfo>
    <tripinfo id="carIn85747:1" depart="57673.00" departLane="128361109#1_1" departPos="5.10" departSpeed="0.00" departDelay="0.70" arrival="57843.00" arrivalLane="386687235_1" arrivalPos="80.84" arrivalSpeed="15.70" duration="170.00" routeLength="2088.57" waitingTime="25.00" waitingCount="1" stopTime="0.00" timeLoss="40.76" rerouteNo="1" devices="tripinfo_carIn85747:1 routing_carIn85747:1 emissions_carIn85747:1" vType="default_016" speedFactor="1.17" vaporized="">
        <emissions CO_abs="6965.818551" CO2_abs="422725.495417" HC_abs="41.328950" PMx_abs="7.346256" NOx_abs="167.723033" fuel_abs="181.712575" electricity_abs="0"/>
    </tripinfo>
    <tripinfo id="randUni31145:1" depart="57814.00" departLane="10425609#0_1" departPos="5.10" departSpeed="0.00" departDelay="0.30" arrival="57843.00" arrivalLane="201956810_1" arrivalPos="71.65" arrivalSpeed="14.56" duration="29.00" routeLength="255.78" waitingTime="0.00" waitingCount="0" stopTime="0.00" timeLoss="10.34" rerouteNo="1" devices="tripinfo_randUni31145:1 routing_randUni31145:1 emissions_randUni31145:1" vType="random_016" speedFactor="1.08" vaporized="">
        <emissions CO_abs="2198.486096" CO2_abs="117137.016414" HC_abs="12.762656" PMx_abs="2.293690" NOx_abs="49.579954" fuel_abs="50.352159" electricity_abs="0"/>
    </tripinfo>
    <tripinfo id="h19413c1:1" depart="57685.00" departLane="128361109#1_1" departPos="5.10" departSpeed="0.00" departDelay="5.90" arrival="57848.00" arrivalLane="386687235_1" arrivalPos="80.84" arrivalSpeed="15.56" duration="163.00" routeLength="2088.57" waitingTime="5.00" waitingCount="1" stopTime="0.00" timeLoss="33.87" rerouteNo="1" devices="tripinfo_h19413c1:1 routing_h19413c1:1 emissions_h19413c1:1" vType="default_016" speedFactor="1.17" vaporized="">
        <emissions CO_abs="5109.715153" CO2_abs="412272.031219" HC_abs="32.478163" PMx_abs="6.957011" NOx_abs="163.345314" fuel_abs="177.217785" electricity_abs="0"/>
    </tripinfo>
    <tripinfo id="randUni2407:1" depart="57820.00" departLane="10425609#0_1" departPos="5.10" departSpeed="0.00" departDelay="0.80" arrival="57848.00" arrivalLane="201956810_1" arrivalPos="71.65" arrivalSpeed="12.04" duration="28.00" routeLength="255.78" waitingTime="0.00" waitingCount="0" stopTime="0.00" timeLoss="6.06" rerouteNo="1" devices="tripinfo_randUni2407:1 routing_randUni2407:1 emissions_randUni2407:1" vType="random_016" speedFactor="0.90" vaporized="">
        <emissions CO_abs="1566.272895" CO2_abs="88887.049842" HC_abs="9.226017" PMx_abs="1.641768" NOx_abs="37.066632" fuel_abs="38.208775" electricity_abs="0"/>
    </tripinfo>
    <tripinfo id="carIn46110:1" depart="57684.00" departLane="315358244_1" departPos="5.10" departSpeed="0.00" departDelay="1.20" arrival="57851.00" arrivalLane="32978638#0_1" arrivalPos="49.29" arrivalSpeed="13.02" duration="167.00" routeLength="1764.04" waitingTime="17.00" waitingCount="2" stopTime="0.00" timeLoss="40.25" rerouteNo="1" devices="tripinfo_carIn46110:1 routing_carIn46110:1 emissions_carIn46110:1" vType="default_016" speedFactor="1.01" vaporized="">
        <emissions CO_abs="6260.017046" CO2_abs="417858.108044" HC_abs="38.206167" PMx_abs="6.884351" NOx_abs="165.770636" fuel_abs="179.620127" electricity_abs="0"/>