<?xml version="1.0" encoding="UTF-8"?>

<!-- generated on Thu Nov  4 13:23:32 2021 by Eclipse SUMO sumo Version 1.9.0
<configuration xmlns:xsi="http://www.w3.org/2001/XMLSchema-instance" xsi:noNamespaceSchemaLocation="http://sumo.dlr.de/xsd/sumoConfiguration.xsd">

    <input>
        <net-file value="/mainfs/home/bk2g18/RESCO/environments/ingolstadt21/ingolstadt21.net.xml"/>
        <route-files value="/mainfs/home/bk2g18/RESCO/environments/ingolstadt21/ingolstadt21.rou.xml"/>
    </input>

    <output>
        <tripinfo-output value="/mainfs/home/bk2g18/RESCO/logs/MPLight-tr0-ingolstadt21-21-mplight-pressure/tripinfo_20.xml"/>
        <tripinfo-output.write-unfinished value="true"/>
    </output>

    <time>
        <begin value="57600"/>
        <end value="61200"/>
    </time>

    <processing>
        <time-to-teleport value="-1"/>
    </processing>

    <report>
        <xml-validation value="never"/>
        <xml-validation.routes value="never"/>
        <no-warnings value="true"/>
        <no-step-log value="true"/>
    </report>

    <emissions>
        <device.emissions.probability value="1"/>
    </emissions>

    <traci_server>
        <remote-port value="34933"/>
    </traci_server>

    <random_number>
        <random value="true"/>
    </random_number>

</configuration>
-->

<tripinfos xmlns:xsi="http://www.w3.org/2001/XMLSchema-instance" xsi:noNamespaceSchemaLocation="http://sumo.dlr.de/xsd/tripinfo_file.xsd">
    <tripinfo id="carIn60260:1" depart="57606.00" departLane="315358254#0_1" departPos="5.10" departSpeed="0.00" departDelay="0.90" arrival="57663.00" arrivalLane="399835085#1_1" arrivalPos="212.23" arrivalSpeed="7.37" duration="57.00" routeLength="430.98" waitingTime="0.00" waitingCount="0" stopTime="0.00" timeLoss="7.90" rerouteNo="1" devices="tripinfo_carIn60260:1 routing_carIn60260:1 emissions_carIn60260:1" vType="default_016" speedFactor="0.94" vaporized="">
        <emissions CO_abs="2168.447492" CO2_abs="105950.640135" HC_abs="12.319392" PMx_abs="1.757631" NOx_abs="43.088592" fuel_abs="45.544231" electricity_abs="0"/>
    </tripinfo>
    <tripinfo id="h15454c2:3" depart="57612.00" departLane="24608844_1" departPos="5.10" departSpeed="0.00" departDelay="0.50" arrival="57677.00" arrivalLane="32978638#0_1" arrivalPos="49.29" arrivalSpeed="12.21" duration="65.00" routeLength="354.79" waitingTime="19.00" waitingCount="1" stopTime="0.00" timeLoss="29.39" rerouteNo="1" devices="tripinfo_h15454c2:3 routing_h15454c2:3 emissions_h15454c2:3" vType="default_016" speedFactor="0.95" vaporized="">
        <emissions CO_abs="4861.234732" CO2_abs="153876.977847" HC_abs="25.727224" PMx_abs="3.022020" NOx_abs="65.486538" fuel_abs="66.146738" electricity_abs="0"/>
    </tripinfo>
    <tripinfo id="carIn53971:1" depart="57640.00" departLane="272042143_1" departPos="5.10" departSpeed="0.00" departDelay="0.80" arrival="57704.00" arrivalLane="24634414#1_1" arrivalPos="162.19" arrivalSpeed="6.60" duration="64.00" routeLength="493.04" waitingTime="0.00" waitingCount="0" stopTime="0.00" timeLoss="8.77" rerouteNo="1" devices="tripinfo_carIn53971:1 routing_carIn53971:1 emissions_carIn53971:1" vType="default_016" speedFactor="0.83" vaporized="">
        <emissions CO_abs="2570.562623" CO2_abs="123145.245177" HC_abs="14.545220" PMx_abs="2.040919" NOx_abs="50.078408" fuel_abs="52.935596" electricity_abs="0"/>
    </tripinfo>
    <tripinfo id="h3688c1:1" depart="57625.00" departLane="201201950#1_1" departPos="5.10" departSpeed="0.00" departDelay="0.00" arrival="57720.00" arrivalLane="32978638#0_1" arrivalPos="49.29" arrivalSpeed="14.71" duration="95.00" routeLength="1089.75" waitingTime="6.00" waitingCount="1" stopTime="0.00" timeLoss="21.98" rerouteNo="1" devices="tripinfo_h3688c1:1 routing_h3688c1:1 emissions_h3688c1:1" vType="default_016" speedFactor="1.10" vaporized="">
        <emissions CO_abs="3862.940166" CO2_abs="280924.755937" HC_abs="24.133317" PMx_abs="4.963803" NOx_abs="113.675951" fuel_abs="120.757249" electricity_abs="0"/>
    </tripinfo>
    <tripinfo id="carIn22761:1" depart="57616.00" departLane="-306240162#1_0" departPos="5.10" departSpeed="0.00" departDelay="2.10" arrival="57722.00" arrivalLane="399835085#1_1" arrivalPos="212.23" arrivalSpeed="6.75" duration="106.00" routeLength="1093.26" waitingTime="0.00" waitingCount="0" stopTime="0.00" timeLoss="15.20" rerouteNo="1" devices="tripinfo_carIn22761:1 routing_carIn22761:1 emissions_carIn22761:1" vType="default_016" speedFactor="0.86" vaporized="">
        <emissions CO_abs="4242.234363" CO2_abs="264425.826628" HC_abs="25.503035" PMx_abs="4.520560" NOx_abs="106.179990" fuel_abs="113.665831" electricity_abs="0"/>
    </tripinfo>
    <tripinfo id="h7800c1:5" depart="57696.00" departLane="-447569998#1_1" departPos="5.10" departSpeed="0.00" departDelay="0.00" arrival="57723.00" arrivalLane="-447569998#1_1" arrivalPos="180.76" arrivalSpeed="6.72" duration="27.00" routeLength="175.66" waitingTime="0.00" waitingCount="0" stopTime="0.00" timeLoss="3.65" rerouteNo="1" devices="tripinfo_h7800c1:5 routing_h7800c1:5 emissions_h7800c1:5" vType="default_016" speedFactor="0.92" vaporized="">
        <emissions CO_abs="1259.547941" CO2_abs="51230.189060" HC_abs="6.917252" PMx_abs="0.891034" NOx_abs="21.232385" fuel_abs="22.022053" electricity_abs="0"/>
    </tripinfo>
    <tripinfo id="h7181c1:1" depart="57660.00" departLane="315358254#0_1" departPos="5.10" departSpeed="0.00" departDelay="0.10" arrival="57741.00" arrivalLane="306240162#0_0" arrivalPos="220.43" arrivalSpeed="15.52" duration="81.00" routeLength="932.35" waitingTime="8.00" waitingCount="2" stopTime="0.00" timeLoss="27.87" rerouteNo="1" devices="tripinfo_h7181c1:1 routing_h7181c1:1 emissions_h7181c1:1" vType="default_016" speedFactor="0.97" vaporized="">
        <emissions CO_abs="4617.368747" CO2_abs="296281.390926" HC_abs="28.042072" PMx_abs="5.741509" NOx_abs="122.722510" fuel_abs="127.358136" electricity_abs="0"/>
    </tripinfo>
    <tripinfo id="h317c2:1" depart="57707.00" departLane="-32978638#0_1" departPos="5.10" departSpeed="0.00" departDelay="0.10" arrival="57744.00" arrivalLane="-266565295#5_1" arrivalPos="172.76" arrivalSpeed="14.41" duration="37.00" routeLength="370.53" waitingTime="1.00" waitingCount="1" stopTime="0.00" timeLoss="11.55" rerouteNo="1" devices="tripinfo_h317c2:1 routing_h317c2:1 emissions_h317c2:1" vType="default_016" speedFactor="1.10" vaporized="">
        <emissions CO_abs="2251.613746" CO2_abs="134581.349189" HC_abs="13.391409" PMx_abs="2.565918" NOx_abs="56.134994" fuel_abs="57.850633" electricity_abs="0"/>
    </tripinfo>
    <tripinfo id="h4538c1:1" depart="57701.00" departLane="-10427692#1_1" departPos="5.10" departSpeed="0.00" departDelay="0.00" arrival="57751.00" arrivalLane="-128361102#1_1" arrivalPos="274.68" arrivalSpeed="11.51" duration="50.00" routeLength="440.74" waitingTime="4.00" waitingCount="1" stopTime="0.00" timeLoss="13.41" rerouteNo="1" devices="tripinfo_h4538c1:1 routing_h4538c1:1 emissions_h4538c1:1" vType="default_016" speedFactor="0.87" vaporized="">
        <emissions CO_abs="2165.828732" CO2_abs="121661.133346" HC_abs="12.687174" PMx_abs="2.018434" NOx_abs="49.005531" fuel_abs="52.297358" electricity_abs="0"/>
    </tripinfo>
    <tripinfo id="carIn30817:1" depart="57681.00" departLane="315358244_1" departPos="5.10" departSpeed="0.00" departDelay="0.20" arrival="57754.00" arrivalLane="447569997#1_1" arrivalPos="180.93" arrivalSpeed="7.45" duration="73.00" routeLength="718.04" waitingTime="0.00" waitingCount="0" stopTime="0.00" timeLoss="7.40" rerouteNo="1" devices="tripinfo_carIn30817:1 routing_carIn30817:1 emissions_carIn30817:1" vType="default_016" speedFactor="0.94" vaporized="">
        <emissions CO_abs="2388.096929" CO2_abs="148585.215004" HC_abs="14.296233" PMx_abs="2.269817" NOx_abs="58.484168" fuel_abs="63.871056" electricity_abs="0"/>
    </tripinfo>
    <tripinfo id="h3326c1:2" depart="57656.00" departLane="22716069#0_1" departPos="5.10" departSpeed="0.00" departDelay="0.00" arrival="57761.00" arrivalLane="24634517#13_1" arrivalPos="111.62" arrivalSpeed="14.55" duration="105.00" routeLength="1312.81" waitingTime="0.00" waitingCount="0" stopTime="0.00" timeLoss="15.54" rerouteNo="1" devices="tripinfo_h3326c1:2 routing_h3326c1:2 emissions_h3326c1:2" vType="default_016" speedFactor="1.09" vaporized="">
        <emissions CO_abs="4251.778671" CO2_abs="320013.897289" HC_abs="26.799383" PMx_abs="5.617162" NOx_abs="129.396424" fuel_abs="137.559872" electricity_abs="0"/>
    </tripinfo>
    <tripinfo id="h3568c1:3" depart="57656.00" departLane="266565295#5_1" departPos="5.10" departSpeed="0.00" departDelay="0.80" arrival="57770.00" arrivalLane="-24634415_1" arrivalPos="62.03" arrivalSpeed="11.91" duration="114.00" routeLength="807.40" waitingTime="24.00" waitingCount="1" stopTime="0.00" timeLoss="41.33" rerouteNo="1" devices="tripinfo_h3568c1:3 routing_h3568c1:3 emissions_h3568c1:3" vType="default_016" speedFactor="0.90" vaporized="">
        <emissions CO_abs="7092.781672" CO2_abs="283555.800806" HC_abs="38.908416" PMx_abs="5.192683" NOx_abs="117.678276" fuel_abs="121.890509" electricity_abs="0"/>
    </tripinfo>
    <tripinfo id="h330c1:1" depart="57736.00" departLane="-32978638#0_1" departPos="5.10" departSpeed="0.00" departDelay="0.20" arrival="57771.00" arrivalLane="-266565295#5_1" arrivalPos="172.76" arrivalSpeed="13.01" duration="35.00" routeLength="370.53" waitingTime="0.00" waitingCount="0" stopTime="0.00" timeLoss="6.10" rerouteNo="1" devices="tripinfo_h330c1:1 routing_h330c1:1 emissions_h330c1:1" vType="default_016" speedFactor="0.96" vaporized="">
        <emissions CO_abs="1593.478043" CO2_abs="105182.047606" HC_abs="9.702340" PMx_abs="1.775056" NOx_abs="42.374102" fuel_abs="45.213377" electricity_abs="0"/>
    </tripinfo>
    <tripinfo id="carIn86816:1" depart="57617.00" departLane="128361102#0_1" departPos="5.10" departSpeed="0.00" departDelay="0.80" arrival="57773.00" arrivalLane="201956811#0_1" arrivalPos="40.40" arrivalSpeed="15.60" duration="156.00" routeLength="2067.33" waitingTime="4.00" waitingCount="1" stopTime="0.00" timeLoss="25.60" rerouteNo="1" devices="tripinfo_carIn86816:1 routing_carIn86816:1 emissions_carIn86816:1" vType="default_016" speedFactor="1.16" vaporized="">
        <emissions CO_abs="5438.452628" CO2_abs="440261.415424" HC_abs="35.027210" PMx_abs="7.825493" NOx_abs="177.227754" fuel_abs="189.248624" electricity_abs="0"/>
    </tripinfo>
    <tripinfo id="h12244c1:3" depart="57612.00" departLane="315358244_1" departPos="5.10" departSpeed="0.00" departDelay="0.40" arrival="57776.00" arrivalLane="386687235_1" arrivalPos="80.84" arrivalSpeed="10.68" duration="164.00" routeLength="1186.14" waitingTime="40.00" waitingCount="4" stopTime="0.00" timeLoss="63.92" rerouteNo="1" devices="tripinfo_h12244c1:3 routing_h12244c1:3 emissions_h12244c1:3" vType="default_016" speedFactor="0.86" vaporized="">
        <emissions CO_abs="9445.498676" CO2_abs="357692.134407" HC_abs="51.341292" PMx_abs="6.566038" NOx_abs="148.320991" fuel_abs="153.759497" electricity_abs="0"/>
    </tripinfo>
    <tripinfo id="carIn28951:1" depart="57606.00" departLane="10425609#0_1" departPos="5.10" departSpeed="0.00" departDelay="0.20" arrival="57778.00" arrivalLane="-128361102#1_1" arrivalPos="274.68" arrivalSpeed="14.04" duration="172.00" routeLength="2113.04" waitingTime="0.00" waitingCount="0" stopTime="0.00" timeLoss="20.39" rerouteNo="1" devices="tripinfo_carIn28951:1 routing_carIn28951:1 emissions_carIn28951:1" vType="default_016" speedFactor="1.02" vaporized="">
        <emissions CO_abs="5600.547652" CO2_abs="463477.070824" HC_abs="36.269213" PMx_abs="7.688665" NOx_abs="184.226838" fuel_abs="199.228615" electricity_abs="0"/>
    </tripinfo>
    <tripinfo id="S5R_frequency1.2" depart="57624.00" departLane="315358250#0_1" departPos="12.10" departSpeed="0.00" departDelay="12.40" arrival="57780.00" arrivalLane="386687235_1" arrivalPos="80.84" arrivalSpeed="13.40" duration="156.00" routeLength="1115.62" waitingTime="34.00" waitingCount="3" stopTime="0.00" timeLoss="74.69" rerouteNo="1" devices="tripinfo_S5R_frequency1.2 routing_S5R_frequency1.2 emissions_S5R_frequency1.2" vType="bus" speedFactor="1.00" vaporized="">
        <emissions CO_abs="3037.256823" CO2_abs="1685948.258954" HC_abs="641.377479" PMx_abs="319.917674" NOx_abs="13685.127849" fuel_abs="718.952798" electricity_abs="0"/>
    </tripinfo>
    <tripinfo id="carIn121703:1" depart="57647.00" departLane="386687232#0_1" departPos="5.10" departSpeed="0.00" departDelay="0.30" arrival="57782.00" arrivalLane="-315358244_1" arrivalPos="33.95" arrivalSpeed="15.36" duration="135.00" routeLength="1157.39" waitingTime="40.00" waitingCount="2" stopTime="0.00" timeLoss="61.45" rerouteNo="1" devices="tripinfo_carIn121703:1 routing_carIn121703:1 emissions_carIn121703:1" vType="default_016" speedFactor="1.15" vaporized="">
        <emissions CO_abs="9352.910478" CO2_abs="375997.489670" HC_abs="51.341705" PMx_abs="7.242586" NOx_abs="155.931836" fuel_abs="161.627528" electricity_abs="0"/>
    </tripinfo>
    <tripinfo id="h3154c1:1" depart="57658.00" departLane="24634507_1" departPos="5.10" departSpeed="0.00" departDelay="0.00" arrival="57784.00" arrivalLane="-266565295#5_1" arrivalPos="172.76" arrivalSpeed="17.15" duration="126.00" routeLength="1206.22" waitingTime="29.00" waitingCount="2" stopTime="0.00" timeLoss="54.22" rerouteNo="1" devices="tripinfo_h3154c1:1 routing_h3154c1:1 emissions_h3154c1:1" vType="default_016" speedFactor="1.25" vaporized="">
        <emissions CO_abs="8312.964121" CO2_abs="412893.318513" HC_abs="47.582915" PMx_abs="8.083835" NOx_abs="172.180403" fuel_abs="177.485812" electricity_abs="0"/>
    </tripinfo>
    <tripinfo id="carIn80064:1" depart="57603.00" departLane="128361109#1_1" departPos="5.10" departSpeed="0.00" departDelay="0.40" arrival="57790.00" arrivalLane="-315358254#1_1" arrivalPos="137.16" arrivalSpeed="12.89" duration="187.00" routeLength="1587.97" waitingTime="60.00" waitingCount="3" stopTime="0.00" timeLoss="91.86" rerouteNo="1" devices="tripinfo_carIn80064:1 routing_carIn80064:1 emissions_carIn80064:1" vType="default_016" speedFactor="0.93" vaporized="">
        <emissions CO_abs="14389.453285" CO2_abs="576251.080792" HC_abs="79.158092" PMx_abs="11.688855" NOx_abs="242.682255" fuel_abs="247.708379" electricity_abs="0"/>
    </tripinfo>
    <tripinfo id="carIn27009:1" depart="57673.00" departLane="-447569998#1_1" departPos="5.10" departSpeed="0.00" departDelay="0.50" arrival="57791.00" arrivalLane="-26677539_1" arrivalPos="152.75" arrivalSpeed="6.35" duration="118.00" routeLength="699.63" waitingTime="0.00" waitingCount="0" stopTime="0.00" timeLoss="14.49" rerouteNo="1" devices="tripinfo_carIn27009:1 routing_carIn27009:1 emissions_carIn27009:1" vType="default_015" speedFactor="0.81" vaporized="">
        <emissions CO_abs="4986.781307" CO2_abs="189131.420628" HC_abs="27.017754" PMx_abs="3.081157" NOx_abs="77.197225" fuel_abs="81.301522" electricity_abs="0"/>
    </tripinfo>
    <tripinfo id="carIn107282:1" depart="57749.00" departLane="-447569998#1_1" departPos="5.10" departSpeed="0.00" departDelay="0.00" arrival="57802.00" arrivalLane="315358242#0_1" arrivalPos="165.37" arrivalSpeed="12.16" duration="53.00" routeLength="448.50" waitingTime="0.00" waitingCount="0" stopTime="0.00" timeLoss="5.67" rerouteNo="1" devices="tripinfo_carIn107282:1 routing_carIn107282:1 emissions_carIn107282:1" vType="default_016" speedFactor="0.88" vaporized="">
        <emissions CO_abs="2316.548126" CO2_abs="121326.603951" HC_abs="13.334533" PMx_abs="1.899283" NOx_abs="48.432154" fuel_abs="52.153834" electricity_abs="0"/>
    </tripinfo>
    <tripinfo id="h9563c2:5" depart="57631.00" departLane="315358244_1" departPos="5.10" departSpeed="0.00" departDelay="0.70" arrival="57808.00" arrivalLane="386687235_1" arrivalPos="80.84" arrivalSpeed="11.40" duration="177.00" routeLength="1186.14" waitingTime="58.00" waitingCount="3" stopTime="0.00" timeLoss="81.69" rerouteNo="1" devices="tripinfo_h9563c2:5 routing_h9563c2:5 emissions_h9563c2:5" vType="default_016" speedFactor="0.91" vaporized="">
        <emissions CO_abs="10916.166324" CO2_abs="385914.061842" HC_abs="58.723690" PMx_abs="7.330435" NOx_abs="161.413570" fuel_abs="165.891394" electricity_abs="0"/>
    </tripinfo>
    <tripinfo id="carIn118591:1" depart="57689.00" departLane="315358244_1" departPos="5.10" departSpeed="0.00" departDelay="0.20" arrival="57810.00" arrivalLane="386687235_1" arrivalPos="80.84" arrivalSpeed="12.22" duration="121.00" routeLength="1186.14" waitingTime="16.00" waitingCount="1" stopTime="0.00" timeLoss="31.76" rerouteNo="1" devices="tripinfo_carIn118591:1 routing_carIn118591:1 emissions_carIn118591:1" vType="default_016" speedFactor="0.97" vaporized="">
        <emissions CO_abs="5041.765461" CO2_abs="274896.056708" HC_abs="29.357108" PMx_abs="4.636613" NOx_abs="110.218169" fuel_abs="118.167166" electricity_abs="0"/>
    </tripinfo>
    <tripinfo id="carIn129809:1" depart="57729.00" departLane="-447569998#1_1" departPos="5.10" departSpeed="0.00" departDelay="1.00" arrival="57814.00" arrivalLane="-315358244_1" arrivalPos="33.95" arrivalSpeed="13.72" duration="85.00" routeLength="706.49" waitingTime="7.00" waitingCount="2" stopTime="0.00" timeLoss="24.71" rerouteNo="1" devices="tripinfo_carIn129809:1 routing_carIn129809:1 emissions_carIn129809:1" vType="default_015" speedFactor="1.01" vaporized="">
        <emissions CO_abs="3567.174929" CO2_abs="198299.525762" HC_abs="20.863887" PMx_abs="3.373181" NOx_abs="80.338159" fuel_abs="85.241115" electricity_abs="0"/>
    </tripinfo>
    <tripinfo id="h11737c1:1" depart="57665.00" departLane="272042143_1" departPos="5.10" departSpeed="0.00" departDelay="1.50" arrival="57816.00" arrivalLane="-315358254#1_1" arrivalPos="137.16" arrivalSpeed="14.82" duration="151.00" routeLength="1596.88" waitingTime="26.00" waitingCount="1" stopTime="0.00" timeLoss="43.18" rerouteNo="1" devices="tripinfo_h11737c1:1 routing_h11737c1:1 emissions_h11737c1:1" vType="default_016" speedFactor="1.08" vaporized="">
        <emissions CO_abs="7713.790272" CO2_abs="395110.186083" HC_abs="44.451023" PMx_abs="7.356793" NOx_abs="162.507030" fuel_abs="169.841946" electricity_abs="0"/>
    </tripinfo>
    <tripinfo id="carIn126288:1" depart="57674.00" departLane="272042143_1" departPos="5.10" departSpeed="0.00" departDelay="0.00" arrival="57818.00" arrivalLane="-315358254#1_1" arrivalPos="137.16" arrivalSpeed="13.50" duration="144.00" routeLength="1596.88" waitingTime="16.00" waitingCount="1" stopTime="0.00" timeLoss="33.60" rerouteNo="1" devices="tripinfo_carIn126288:1 routing_carIn126288:1 emissions_carIn126288:1" vType="default_016" speedFactor="1.05" vaporized="">
        <emissions CO_abs="5949.944007" CO2_abs="374861.136979" HC_abs="35.861944" PMx_abs="6.432012" NOx_abs="150.168546" fuel_abs="161.137406" electricity_abs="0"/>
    </tripinfo>
    <tripinfo id="carIn81860:1" depart="57712.00" departLane="128361102#0_1" departPos="5.10" departSpeed="0.00" departDelay="0.60" arrival="57819.00" arrivalLane="-24634517#17_1" arrivalPos="6.43" arrivalSpeed="6.42" duration="107.00" routeLength="1229.64" waitingTime="0.00" waitingCount="0" stopTime="0.00" timeLoss="15.91" rerouteNo="1" devices="tripinfo_carIn81860:1 routing_carIn81860:1 emissions_carIn81860:1" vType="default_016" speedFactor="0.99" vaporized="">
        <emissions CO_abs="3285.195630" CO2_abs="272947.318328" HC_abs="21.285975" PMx_abs="4.266292" NOx_abs="106.883348" fuel_abs="117.328557" electricity_abs="0"/>
    </tripinfo>
    <tripinfo id="carIn12365:1" depart="57713.00" departLane="315358244_1" departPos="5.10" departSpeed="0.00" departDelay="0.50" arrival="57819.00" arrivalLane="447569997#1_1" arrivalPos="180.93" arrivalSpeed="7.62" duration="106.00" routeLength="718.04" waitingTime="29.00" waitingCount="2" stopTime="0.00" timeLoss="48.01" rerouteNo="1" devices="tripinfo_carIn12365:1 routing_carIn12365:1 emissions_carIn12365:1" vType="default_016" speedFactor="1.06" vaporized="">
        <emissions CO_abs="7005.627786" CO2_abs="255814.875930" HC_abs="37.817709" PMx_abs="4.733158" NOx_abs="105.962205" fuel_abs="109.966167" electricity_abs="0"/>
    </tripinfo>
    <tripinfo id="carIn12152:1" depart="57647.00" departLane="24599188#0.94_1" departPos="5.10" departSpeed="0.00" departDelay="0.50" arrival="57821.00" arrivalLane="-315358254#1_1" arrivalPos="137.16" arrivalSpeed="14.40" duration="174.00" routeLength="2034.31" waitingTime="5.00" waitingCount="2" stopTime="0.00" timeLoss="28.09" rerouteNo="1" devices="tripinfo_carIn12152:1 routing_carIn12152:1 emissions_carIn12152:1" vType="default_016" speedFactor="1.09" vaporized="">
        <emissions CO_abs="5183.179328" CO2_abs="409965.677754" HC_abs="32.976523" PMx_abs="6.636048" NOx_abs="161.181756" fuel_abs="176.226896" electricity_abs="0"/>
    </tripinfo>
    <tripinfo id="h3864c1:3" depart="57678.00" departLane="24693977#1_1" departPos="5.10" departSpeed="0.00" departDelay="0.00" arrival="57821.00" arrivalLane="201956820_2" arrivalPos="48.33" arrivalSpeed="15.98" duration="143.00" routeLength="1574.85" waitingTime="9.00" waitingCount="1" stopTime="0.00" timeLoss="33.67" rerouteNo="1" devices="tripinfo_h3864c1:3 routing_h3864c1:3 emissions_h3864c1:3" vType="default_016" speedFactor="1.19" vaporized="">
        <emissions CO_abs="6424.890452" CO2_abs="427110.637901" HC_abs="39.237946" PMx_abs="7.649782" NOx_abs="173.820792" fuel_abs="183.596445" electricity_abs="0"/>
    </tripinfo>
    <tripinfo id="h15382c1:3" depart="57626.00" departLane="124812856#0_1" departPos="5.10" departSpeed="0.00" departDelay="3.80" arrival="57823.00" arrivalLane="-128361102#1_1" arrivalPos="274.68" arrivalSpeed="15.48" duration="197.00" routeLength="2232.46" waitingTime="10.00" waitingCount="3" stopTime="0.00" timeLoss="58.92" rerouteNo="1" devices="tripinfo_h15382c1:3 routing_h15382c1:3 emissions_h15382c1:3" vType="default_016" speedFactor="1.18" vaporized="">
        <emissions CO_abs="8299.467176" CO2_abs="561473.260216" HC_abs="50.890540" PMx_abs="10.251307" NOx_abs="228.937379" fuel_abs="241.352791" electricity_abs="0"/>
    </tripinfo>
    <tripinfo id="h17600c1:1" depart="57662.00" departLane="272042143_1" departPos="5.10" departSpeed="0.00" departDelay="0.30" arrival="57825.00" arrivalLane="201238729#3_1" arrivalPos="431.02" arrivalSpeed="14.05" duration="163.00" routeLength="2100.26" waitingTime="0.00" waitingCount="0" stopTime="0.00" timeLoss="12.92" rerouteNo="1" devices="tripinfo_h17600c1:1 routing_h17600c1:1 emissions_h17600c1:1" vType="default_016" speedFactor="1.01" vaporized="">
        <emissions CO_abs="3662.229248" CO2_abs="375855.288082" HC_abs="25.306667" PMx_abs="5.587174" NOx_abs="143.886414" fuel_abs="161.564197" electricity_abs="0"/>
    </tripinfo>
    <tripinfo id="h5979c1:5" depart="57669.00" departLane="399835085#1_1" departPos="5.10" departSpeed="0.00" departDelay="0.00" arrival="57825.00" arrivalLane="-315358254#1_1" arrivalPos="137.16" arrivalSpeed="12.41" duration="156.00" routeLength="659.33" waitingTime="62.00" waitingCount="2" stopTime="0.00" timeLoss="81.49" rerouteNo="1" devices="tripinfo_h5979c1:5 routing_h5979c1:5 emissions_h5979c1:5" vType="default_016" speedFactor="0.98" vaporized="">
        <emissions CO_abs="13444.757976" CO2_abs="340629.880734" HC_abs="69.120337" PMx_abs="6.841858" NOx_abs="145.825116" fuel_abs="146.427850" electricity_abs="0"/>
    </tripinfo>
    <tripinfo id="randUni15030:1" depart="57735.00" departLane="386687232#0_1" departPos="5.10" departSpeed="0.00" departDelay="0.10" arrival="57827.00" arrivalLane="26677539_1" arrivalPos="151.98" arrivalSpeed="8.46" duration="92.00" routeLength="919.89" waitingTime="0.00" waitingCount="0" stopTime="0.00" timeLoss="11.93" rerouteNo="1" devices="tripinfo_randUni15030:1 routing_randUni15030:1 emissions_randUni15030:1" vType="random_016" speedFactor="1.04" vaporized="">
        <emissions CO_abs="3658.594225" CO2_abs="222578.653240" HC_abs="21.816126" PMx_abs="3.743884" NOx_abs="89.917164" fuel_abs="95.677512" electricity_abs="0"/>
    </tripinfo>
    <tripinfo id="carIn102915:1" depart="57643.00" departLane="128361102#0_1" departPos="5.10" departSpeed="0.00" departDelay="0.40" arrival="57831.00" arrivalLane="201956811#0_1" arrivalPos="40.40" arrivalSpeed="12.91" duration="188.00" routeLength="2067.33" waitingTime="2.00" waitingCount="1" stopTime="0.00" timeLoss="26.48" rerouteNo="1" devices="tripinfo_carIn102915:1 routing_carIn102915:1 emissions_carIn102915:1" vType="default_016" speedFactor="0.94" vaporized="">
        <emissions CO_abs="5749.579287" CO2_abs="437350.509194" HC_abs="36.372922" PMx_abs="7.020253" NOx_abs="173.336791" fuel_abs="187.998615" electricity_abs="0"/>
    </tripinfo>
    <tripinfo id="randUni33724:1" depart="57646.00" departLane="128361102#0_1" departPos="5.10" departSpeed="0.00" departDelay="1.20" arrival="57833.00" arrivalLane="201956811#0_1" arrivalPos="40.40" arrivalSpeed="14.09" duration="187.00" routeLength="2067.33" waitingTime="1.00" waitingCount="1" stopTime="0.00" timeLoss="45.98" rerouteNo="1" devices="tripinfo_randUni33724:1 routing_randUni33724:1 emissions_randUni33724:1" vType="random_016" speedFactor="1.08" vaporized="">
        <emissions CO_abs="7059.942210" CO2_abs="507047.488579" HC_abs="44.044853" PMx_abs="8.746950" NOx_abs="205.158606" fuel_abs="217.957796" electricity_abs="0"/>
    </tripinfo>
    <tripinfo id="carIn50326:1" depart="57651.00" departLane="128361102#0_1" departPos="5.10" departSpeed="0.00" departDelay="0.30" arrival="57834.00" arrivalLane="18809673#0_1" arrivalPos="473.56" arrivalSpeed="12.79" duration="183.00" routeLength="1591.07" waitingTime="24.00" waitingCount="1" stopTime="0.00" timeLoss="47.86" rerouteNo="1" devices="tripinfo_carIn50326:1 routing_carIn50326:1 emissions_carIn50326:1" vType="default_016" speedFactor="0.96" vaporized="">
        <emissions CO_abs="8991.800522" CO2_abs="413167.085736" HC_abs="50.540707" PMx_abs="7.137410" NOx_abs="167.855475" fuel_abs="177.605363" electricity_abs="0"/>
    </tripinfo>
    <tripinfo id="carIn46110:1" depart="57684.00" departLane="315358244_1" departPos="5.10" departSpeed="0.00" departDelay="1.20" arrival="57834.00" arrivalLane="32978638#0_1" arrivalPos="49.29" arrivalSpeed="15.04" duration="150.00" routeLength="1764.04" waitingTime="8.00" waitingCount="1" stopTime="0.00" timeLoss="31.92" rerouteNo="1" devices="tripinfo_carIn46110:1 routing_carIn46110:1 emissions_carIn46110:1" vType="default_016" speedFactor="1.09" vaporized="">
        <emissions CO_abs="4877.354381" CO2_abs="386260.177131" HC_abs="31.287795" PMx_abs="6.590686" NOx_abs="154.731310" fuel_abs="166.036347" electricity_abs="0"/>
    </tripinfo>
    <tripinfo id="50R_frequency3.17" depart="57674.00" departLane="-18809673#6_1" departPos="12.10" departSpeed="0.00" departDelay="0.70" arrival="57836.00" arrivalLane="201956811#0_1" arrivalPos="40.40" arrivalSpeed="12.93" duration="162.00" routeLength="1954.47" waitingTime="0.00" waitingCount="0" stopTime="0.00" timeLoss="17.14" rerouteNo="1" devices="tripinfo_50R_frequency3.17 routing_50R_frequency3.17 emissions_50R_frequency3.17" vType="bus" speedFactor="1.00" vaporized="">
        <emissions CO_abs="3103.841306" CO2_abs="1995481.780462" HC_abs="654.905112" PMx_abs="334.108227" NOx_abs="15341.605889" fuel_abs="851.071527" electricity_abs="0"/>
    </tripinfo>
    <tripinfo id="h17549c1:1" depart="57680.00" departLane="-447569998#1_1" departPos="5.10" departSpeed="0.00" departDelay="0.00" arrival="57837.00" arrivalLane="-315358254#1_1" arrivalPos="137.16" arrivalSpeed="13.13" duration="157.00" routeLength="1746.60" waitingTime="2.00" waitingCount="1" stopTime="0.00" timeLoss="19.41" rerouteNo="1" devices="tripinfo_h17549c1:1 routing_h17549c1:1 emissions_h17549c1:1" vType="default_016" speedFactor="1.00" vaporized="">
        <emissions CO_abs="4648.931070" CO2_abs="354578.816449" HC_abs="29.386176" PMx_abs="5.603115" NOx_abs="139.525737" fuel_abs="152.418704" electricity_abs="0"/>
    </tripinfo>
    <tripinfo id="carIn100288:1" depart="57664.00" departLane="128361102#0_1" departPos="5.10" departSpeed="0.00" departDelay="0.60" arrival="57838.00" arrivalLane="201956811#0_1" arrivalPos="40.40" arrivalSpeed="13.85" duration="174.00" routeLength="2067.33" waitingTime="3.00" waitingCount="1" stopTime="0.00" timeLoss="28.27" rerouteNo="1" devices="tripinfo_carIn100288:1 routing_carIn100288:1 emissions_carIn100288:1" vType="default_016" speedFactor="1.04" vaporized="">
        <emissions CO_abs="5739.744843" CO2_abs="434727.906649" HC_abs="36.352432" PMx_abs="7.463411" NOx_abs="174.756609" fuel_abs="186.870615" electricity_abs="0"/>
    </tripinfo>
    <tripinfo id="carIn48184:1" depart="57613.00" departLane="-306240162#1_0" departPos="5.10" departSpeed="0.00" departDelay="0.70" arrival="57844.00" arrivalLane="386687235_1" arrivalPos="80.84" arrivalSpeed="13.76" duration="231.00" routeLength="2257.41" waitingTime="35.00" waitingCount="2" stopTime="0.00" timeLoss="81.69" rerouteNo="1" devices="tripinfo_carIn48184:1 routing_carIn48184:1 emissions_carIn48184:1" vType="default_016" speedFactor="0.99" vaporized="">
        <emissions CO_abs="12893.154387" CO2_abs="682240.166627" HC_abs="74.850053" PMx_abs="12.816952" NOx_abs="281.983348" fuel_abs="293.266949" electricity_abs="0"/>
    </tripinfo>
    <tripinfo id="h16072c2:3" depart="57663.00" departLane="315358254#0_1" departPos="5.10" departSpeed="0.00" departDelay="2.50" arrival="57845.00" arrivalLane="386687235_2" arrivalPos="80.84" arrivalSpeed="11.58" duration="182.00" routeLength="1611.92" waitingTime="25.00" waitingCount="1" stopTime="0.00" timeLoss="43.58" rerouteNo="1" devices="tripinfo_h16072c2:3 routing_h16072c2:3 emissions_h16072c2:3" vType="default_016" speedFactor="0.85" vaporized="">