<?xml version="1.0" encoding="UTF-8"?>

<!-- generated on Thu Nov  4 14:04:57 2021 by Eclipse SUMO sumo Version 1.9.0
<configuration xmlns:xsi="http://www.w3.org/2001/XMLSchema-instance" xsi:noNamespaceSchemaLocation="http://sumo.dlr.de/xsd/sumoConfiguration.xsd">

    <input>
        <net-file value="/mainfs/home/bk2g18/RESCO/environments/ingolstadt21/ingolstadt21.net.xml"/>
        <route-files value="/mainfs/home/bk2g18/RESCO/environments/ingolstadt21/ingolstadt21.rou.xml"/>
    </input>

    <output>
        <tripinfo-output value="/mainfs/home/bk2g18/RESCO/logs/MPLight-tr0-ingolstadt21-21-mplight-pressure/tripinfo_95.xml"/>
        <tripinfo-output.write-unfinished value="true"/>
    </output>

    <time>
        <begin value="57600"/>
        <end value="61200"/>
    </time>

    <processing>
        <time-to-teleport value="-1"/>
    </processing>

    <report>
        <xml-validation value="never"/>
        <xml-validation.routes value="never"/>
        <no-warnings value="true"/>
        <no-step-log value="true"/>
    </report>

    <emissions>
        <device.emissions.probability value="1"/>
    </emissions>

    <traci_server>
        <remote-port value="59297"/>
    </traci_server>

    <random_number>
        <random value="true"/>
    </random_number>

</configuration>
-->

<tripinfos xmlns:xsi="http://www.w3.org/2001/XMLSchema-instance" xsi:noNamespaceSchemaLocation="http://sumo.dlr.de/xsd/tripinfo_file.xsd">
    <tripinfo id="h15454c2:3" depart="57612.00" departLane="24608844_1" departPos="5.10" departSpeed="0.00" departDelay="0.50" arrival="57655.00" arrivalLane="32978638#0_1" arrivalPos="49.29" arrivalSpeed="12.56" duration="43.00" routeLength="354.79" waitingTime="0.00" waitingCount="0" stopTime="0.00" timeLoss="6.52" rerouteNo="1" devices="tripinfo_h15454c2:3 routing_h15454c2:3 emissions_h15454c2:3" vType="default_016" speedFactor="0.95" vaporized="">
        <emissions CO_abs="2081.793578" CO2_abs="110639.896168" HC_abs="12.046496" PMx_abs="1.866986" NOx_abs="45.082020" fuel_abs="47.559775" electricity_abs="0"/>
    </tripinfo>
    <tripinfo id="carIn60260:1" depart="57606.00" departLane="315358254#0_1" departPos="5.10" departSpeed="0.00" departDelay="0.90" arrival="57659.00" arrivalLane="399835085#1_1" arrivalPos="212.23" arrivalSpeed="7.59" duration="53.00" routeLength="430.98" waitingTime="0.00" waitingCount="0" stopTime="0.00" timeLoss="7.13" rerouteNo="1" devices="tripinfo_carIn60260:1 routing_carIn60260:1 emissions_carIn60260:1" vType="default_016" speedFactor="1.01" vaporized="">
        <emissions CO_abs="2186.622446" CO2_abs="112439.002368" HC_abs="12.547907" PMx_abs="1.822503" NOx_abs="45.401544" fuel_abs="48.333309" electricity_abs="0"/>
    </tripinfo>
    <tripinfo id="carIn53971:1" depart="57640.00" departLane="272042143_1" departPos="5.10" departSpeed="0.00" departDelay="0.80" arrival="57700.00" arrivalLane="24634414#1_1" arrivalPos="162.19" arrivalSpeed="7.05" duration="60.00" routeLength="493.04" waitingTime="0.00" waitingCount="0" stopTime="0.00" timeLoss="8.33" rerouteNo="1" devices="tripinfo_carIn53971:1 routing_carIn53971:1 emissions_carIn53971:1" vType="default_016" speedFactor="0.89" vaporized="">
        <emissions CO_abs="2626.680100" CO2_abs="135080.627901" HC_abs="15.088643" PMx_abs="2.265228" NOx_abs="54.997236" fuel_abs="58.065982" electricity_abs="0"/>
    </tripinfo>
    <tripinfo id="h7800c1:5" depart="57696.00" departLane="-447569998#1_1" departPos="5.10" departSpeed="0.00" departDelay="0.00" arrival="57722.00" arrivalLane="-447569998#1_1" arrivalPos="180.76" arrivalSpeed="7.82" duration="26.00" routeLength="175.66" waitingTime="0.00" waitingCount="0" stopTime="0.00" timeLoss="3.17" rerouteNo="1" devices="tripinfo_h7800c1:5 routing_h7800c1:5 emissions_h7800c1:5" vType="default_016" speedFactor="0.94" vaporized="">
        <emissions CO_abs="1239.832135" CO2_abs="52608.009866" HC_abs="6.853736" PMx_abs="0.876774" NOx_abs="21.542645" fuel_abs="22.614343" electricity_abs="0"/>
    </tripinfo>
    <tripinfo id="h3568c1:3" depart="57656.00" departLane="266565295#5_1" departPos="5.10" departSpeed="0.00" departDelay="0.80" arrival="57726.00" arrivalLane="-24634415_1" arrivalPos="62.03" arrivalSpeed="15.53" duration="70.00" routeLength="807.40" waitingTime="0.00" waitingCount="0" stopTime="0.00" timeLoss="13.03" rerouteNo="1" devices="tripinfo_h3568c1:3 routing_h3568c1:3 emissions_h3568c1:3" vType="default_016" speedFactor="1.12" vaporized="">
        <emissions CO_abs="3421.437586" CO2_abs="236457.234429" HC_abs="21.016610" PMx_abs="4.163755" NOx_abs="95.858979" fuel_abs="101.642738" electricity_abs="0"/>
    </tripinfo>
    <tripinfo id="h3688c1:1" depart="57625.00" departLane="201201950#1_1" departPos="5.10" departSpeed="0.00" departDelay="0.00" arrival="57731.00" arrivalLane="32978638#0_1" arrivalPos="49.29" arrivalSpeed="12.83" duration="106.00" routeLength="1089.75" waitingTime="11.00" waitingCount="1" stopTime="0.00" timeLoss="25.18" rerouteNo="1" devices="tripinfo_h3688c1:1 routing_h3688c1:1 emissions_h3688c1:1" vType="default_016" speedFactor="0.99" vaporized="">
        <emissions CO_abs="4450.632156" CO2_abs="275673.089872" HC_abs="26.694941" PMx_abs="4.655532" NOx_abs="110.604334" fuel_abs="118.500650" electricity_abs="0"/>
    </tripinfo>
    <tripinfo id="h4538c1:1" depart="57701.00" departLane="-10427692#1_1" departPos="5.10" departSpeed="0.00" departDelay="0.00" arrival="57745.00" arrivalLane="-128361102#1_1" arrivalPos="274.68" arrivalSpeed="10.65" duration="44.00" routeLength="440.74" waitingTime="0.00" waitingCount="0" stopTime="0.00" timeLoss="7.21" rerouteNo="1" devices="tripinfo_h4538c1:1 routing_h4538c1:1 emissions_h4538c1:1" vType="default_016" speedFactor="0.86" vaporized="">
        <emissions CO_abs="1668.382486" CO2_abs="107002.713806" HC_abs="10.071381" PMx_abs="1.682803" NOx_abs="42.483364" fuel_abs="45.996218" electricity_abs="0"/>
    </tripinfo>
    <tripinfo id="h12244c1:3" depart="57612.00" departLane="315358244_1" departPos="5.10" departSpeed="0.00" departDelay="0.40" arrival="57746.00" arrivalLane="386687235_1" arrivalPos="80.84" arrivalSpeed="15.42" duration="134.00" routeLength="1186.14" waitingTime="36.00" waitingCount="2" stopTime="0.00" timeLoss="58.23" rerouteNo="1" devices="tripinfo_h12244c1:3 routing_h12244c1:3 emissions_h12244c1:3" vType="default_016" speedFactor="1.14" vaporized="">
        <emissions CO_abs="8953.748664" CO2_abs="394046.849574" HC_abs="49.905385" PMx_abs="7.376855" NOx_abs="162.142755" fuel_abs="169.385871" electricity_abs="0"/>
    </tripinfo>
    <tripinfo id="carIn22761:1" depart="57616.00" departLane="-306240162#1_0" departPos="5.10" departSpeed="0.00" departDelay="2.10" arrival="57752.00" arrivalLane="399835085#1_1" arrivalPos="212.23" arrivalSpeed="8.58" duration="136.00" routeLength="1093.26" waitingTime="35.00" waitingCount="1" stopTime="0.00" timeLoss="62.50" rerouteNo="1" devices="tripinfo_carIn22761:1 routing_carIn22761:1 emissions_carIn22761:1" vType="default_016" speedFactor="1.06" vaporized="">
        <emissions CO_abs="10607.304607" CO2_abs="410395.447467" HC_abs="57.992519" PMx_abs="8.387695" NOx_abs="174.515729" fuel_abs="176.413441" electricity_abs="0"/>
    </tripinfo>
    <tripinfo id="carIn30817:1" depart="57681.00" departLane="315358244_1" departPos="5.10" departSpeed="0.00" departDelay="0.20" arrival="57752.00" arrivalLane="447569997#1_1" arrivalPos="180.93" arrivalSpeed="8.07" duration="71.00" routeLength="718.04" waitingTime="1.00" waitingCount="1" stopTime="0.00" timeLoss="11.87" rerouteNo="1" devices="tripinfo_carIn30817:1 routing_carIn30817:1 emissions_carIn30817:1" vType="default_016" speedFactor="1.04" vaporized="">
        <emissions CO_abs="2504.885686" CO2_abs="158774.085942" HC_abs="15.080023" PMx_abs="2.591868" NOx_abs="63.345376" fuel_abs="68.250584" electricity_abs="0"/>
    </tripinfo>
    <tripinfo id="S5R_frequency1.2" depart="57624.00" departLane="315358250#0_1" departPos="12.10" departSpeed="0.00" departDelay="12.40" arrival="57755.00" arrivalLane="386687235_1" arrivalPos="80.84" arrivalSpeed="13.43" duration="131.00" routeLength="1115.62" waitingTime="20.00" waitingCount="2" stopTime="0.00" timeLoss="49.00" rerouteNo="1" devices="tripinfo_S5R_frequency1.2 routing_S5R_frequency1.2 emissions_S5R_frequency1.2" vType="bus" speedFactor="1.00" vaporized="">
        <emissions CO_abs="2734.947097" CO2_abs="1585681.163740" HC_abs="578.183788" PMx_abs="289.903469" NOx_abs="12658.153441" fuel_abs="676.226078" electricity_abs="0"/>
    </tripinfo>
    <tripinfo id="carIn107084:1" depart="57601.00" departLane="124812856#0_1" departPos="5.10" departSpeed="0.00" departDelay="0.70" arrival="57760.00" arrivalLane="-128361102#1_1" arrivalPos="274.68" arrivalSpeed="15.70" duration="159.00" routeLength="2232.46" waitingTime="0.00" waitingCount="0" stopTime="0.00" timeLoss="18.19" rerouteNo="1" devices="tripinfo_carIn107084:1 routing_carIn107084:1 emissions_carIn107084:1" vType="default_016" speedFactor="1.16" vaporized="">
        <emissions CO_abs="5258.958616" CO2_abs="472331.421591" HC_abs="34.776947" PMx_abs="8.086860" NOx_abs="187.363520" fuel_abs="203.034112" electricity_abs="0"/>
    </tripinfo>
    <tripinfo id="h9563c2:5" depart="57631.00" departLane="315358244_1" departPos="5.10" departSpeed="0.00" departDelay="0.70" arrival="57760.00" arrivalLane="386687235_1" arrivalPos="80.84" arrivalSpeed="13.78" duration="129.00" routeLength="1186.14" waitingTime="18.00" waitingCount="3" stopTime="0.00" timeLoss="46.72" rerouteNo="1" devices="tripinfo_h9563c2:5 routing_h9563c2:5 emissions_h9563c2:5" vType="default_016" speedFactor="1.04" vaporized="">
        <emissions CO_abs="6148.891735" CO2_abs="334512.445832" HC_abs="35.709705" PMx_abs="5.752490" NOx_abs="134.510629" fuel_abs="143.793800" electricity_abs="0"/>
    </tripinfo>
    <tripinfo id="h7181c1:1" depart="57660.00" departLane="315358254#0_1" departPos="5.10" departSpeed="0.00" departDelay="0.10" arrival="57763.00" arrivalLane="306240162#0_0" arrivalPos="220.43" arrivalSpeed="13.91" duration="103.00" routeLength="932.35" waitingTime="26.00" waitingCount="2" stopTime="0.00" timeLoss="44.55" rerouteNo="1" devices="tripinfo_h7181c1:1 routing_h7181c1:1 emissions_h7181c1:1" vType="default_016" speedFactor="0.89" vaporized="">
        <emissions CO_abs="7049.183997" CO2_abs="316497.738968" HC_abs="39.610370" PMx_abs="6.158485" NOx_abs="131.315490" fuel_abs="136.050023" electricity_abs="0"/>
    </tripinfo>
    <tripinfo id="carIn27009:1" depart="57673.00" departLane="-447569998#1_1" departPos="5.10" departSpeed="0.00" departDelay="0.50" arrival="57768.00" arrivalLane="-26677539_1" arrivalPos="152.75" arrivalSpeed="8.84" duration="95.00" routeLength="699.63" waitingTime="5.00" waitingCount="1" stopTime="0.00" timeLoss="19.97" rerouteNo="1" devices="tripinfo_carIn27009:1 routing_carIn27009:1 emissions_carIn27009:1" vType="default_015" speedFactor="1.12" vaporized="">
        <emissions CO_abs="4115.527957" CO2_abs="207806.090528" HC_abs="23.529342" PMx_abs="3.398551" NOx_abs="84.310885" fuel_abs="89.328038" electricity_abs="0"/>
    </tripinfo>
    <tripinfo id="h317c2:1" depart="57707.00" departLane="-32978638#0_1" departPos="5.10" departSpeed="0.00" departDelay="0.10" arrival="57768.00" arrivalLane="-266565295#5_1" arrivalPos="172.76" arrivalSpeed="12.08" duration="61.00" routeLength="370.53" waitingTime="20.00" waitingCount="1" stopTime="0.00" timeLoss="29.43" rerouteNo="1" devices="tripinfo_h317c2:1 routing_h317c2:1 emissions_h317c2:1" vType="default_016" speedFactor="0.87" vaporized="">
        <emissions CO_abs="4487.684369" CO2_abs="151433.435759" HC_abs="23.983893" PMx_abs="2.981318" NOx_abs="64.216256" fuel_abs="65.096102" electricity_abs="0"/>
    </tripinfo>
    <tripinfo id="h330c1:1" depart="57736.00" departLane="-32978638#0_1" departPos="5.10" departSpeed="0.00" departDelay="0.20" arrival="57770.00" arrivalLane="-266565295#5_1" arrivalPos="172.76" arrivalSpeed="13.27" duration="34.00" routeLength="370.53" waitingTime="0.00" waitingCount="0" stopTime="0.00" timeLoss="5.63" rerouteNo="1" devices="tripinfo_h330c1:1 routing_h330c1:1 emissions_h330c1:1" vType="default_016" speedFactor="1.00" vaporized="">
        <emissions CO_abs="1779.526243" CO2_abs="115294.899795" HC_abs="10.788952" PMx_abs="2.034274" NOx_abs="47.048079" fuel_abs="49.560358" electricity_abs="0"/>
    </tripinfo>
    <tripinfo id="carIn121703:1" depart="57647.00" departLane="386687232#0_1" departPos="5.10" departSpeed="0.00" departDelay="0.30" arrival="57773.00" arrivalLane="-315358244_1" arrivalPos="33.95" arrivalSpeed="11.96" duration="126.00" routeLength="1157.39" waitingTime="14.00" waitingCount="2" stopTime="0.00" timeLoss="32.65" rerouteNo="1" devices="tripinfo_carIn121703:1 routing_carIn121703:1 emissions_carIn121703:1" vType="default_016" speedFactor="0.91" vaporized="">
        <emissions CO_abs="4992.951152" CO2_abs="288638.157755" HC_abs="29.468910" PMx_abs="4.907188" NOx_abs="116.780224" fuel_abs="124.073964" electricity_abs="0"/>
    </tripinfo>
    <tripinfo id="h5979c1:5" depart="57669.00" departLane="399835085#1_1" departPos="5.10" departSpeed="0.00" departDelay="0.00" arrival="57779.00" arrivalLane="-315358254#1_1" arrivalPos="137.16" arrivalSpeed="11.48" duration="110.00" routeLength="659.33" waitingTime="9.00" waitingCount="1" stopTime="0.00" timeLoss="26.27" rerouteNo="1" devices="tripinfo_h5979c1:5 routing_h5979c1:5 emissions_h5979c1:5" vType="default_016" speedFactor="0.87" vaporized="">
        <emissions CO_abs="4430.151705" CO2_abs="181028.583190" HC_abs="24.355669" PMx_abs="3.166256" NOx_abs="74.973875" fuel_abs="77.817780" electricity_abs="0"/>
    </tripinfo>
    <tripinfo id="h19804c1:3" depart="57617.00" departLane="124812856#0_1" departPos="5.10" departSpeed="0.00" departDelay="1.50" arrival="57780.00" arrivalLane="-128361102#1_1" arrivalPos="274.68" arrivalSpeed="16.35" duration="163.00" routeLength="2232.46" waitingTime="0.00" waitingCount="0" stopTime="0.00" timeLoss="32.04" rerouteNo="1" devices="tripinfo_h19804c1:3 routing_h19804c1:3 emissions_h19804c1:3" vType="default_016" speedFactor="1.25" vaporized="">
        <emissions CO_abs="7230.163016" CO2_abs="575277.229903" HC_abs="46.386132" PMx_abs="10.423778" NOx_abs="232.417763" fuel_abs="247.285714" electricity_abs="0"/>
    </tripinfo>
    <tripinfo id="h3154c1:1" depart="57658.00" departLane="24634507_1" departPos="5.10" departSpeed="0.00" departDelay="0.00" arrival="57786.00" arrivalLane="-266565295#5_1" arrivalPos="172.76" arrivalSpeed="13.99" duration="128.00" routeLength="1206.22" waitingTime="22.00" waitingCount="2" stopTime="0.00" timeLoss="43.94" rerouteNo="1" devices="tripinfo_h3154c1:1 routing_h3154c1:1 emissions_h3154c1:1" vType="default_016" speedFactor="1.06" vaporized="">
        <emissions CO_abs="6588.556138" CO2_abs="357225.598554" HC_abs="38.345784" PMx_abs="6.515159" NOx_abs="146.491952" fuel_abs="153.556707" electricity_abs="0"/>
    </tripinfo>
    <tripinfo id="carIn129809:1" depart="57729.00" departLane="-447569998#1_1" departPos="5.10" departSpeed="0.00" departDelay="1.00" arrival="57795.00" arrivalLane="-315358244_1" arrivalPos="33.95" arrivalSpeed="13.61" duration="66.00" routeLength="706.49" waitingTime="0.00" waitingCount="0" stopTime="0.00" timeLoss="6.58" rerouteNo="1" devices="tripinfo_carIn129809:1 routing_carIn129809:1 emissions_carIn129809:1" vType="default_015" speedFactor="1.02" vaporized="">
        <emissions CO_abs="2310.125227" CO2_abs="170132.481980" HC_abs="14.429531" PMx_abs="2.596309" NOx_abs="66.337493" fuel_abs="73.133095" electricity_abs="0"/>
    </tripinfo>
    <tripinfo id="carIn86816:1" depart="57617.00" departLane="128361102#0_1" departPos="5.10" departSpeed="0.00" departDelay="0.80" arrival="57797.00" arrivalLane="201956811#0_1" arrivalPos="40.40" arrivalSpeed="14.69" duration="180.00" routeLength="2067.33" waitingTime="15.00" waitingCount="3" stopTime="0.00" timeLoss="44.88" rerouteNo="1" devices="tripinfo_carIn86816:1 routing_carIn86816:1 emissions_carIn86816:1" vType="default_016" speedFactor="1.12" vaporized="">
        <emissions CO_abs="6641.218765" CO2_abs="486004.973090" HC_abs="41.611059" PMx_abs="8.482977" NOx_abs="195.369140" fuel_abs="208.912453" electricity_abs="0"/>
    </tripinfo>
    <tripinfo id="carIn80064:1" depart="57603.00" departLane="128361109#1_1" departPos="5.10" departSpeed="0.00" departDelay="0.40" arrival="57798.00" arrivalLane="-315358254#1_1" arrivalPos="137.16" arrivalSpeed="12.21" duration="195.00" routeLength="1587.97" waitingTime="69.00" waitingCount="3" stopTime="0.00" timeLoss="100.77" rerouteNo="1" devices="tripinfo_carIn80064:1 routing_carIn80064:1 emissions_carIn80064:1" vType="default_016" speedFactor="0.95" vaporized="">
        <emissions CO_abs="15108.816829" CO2_abs="595406.339571" HC_abs="82.926482" PMx_abs="12.147364" NOx_abs="251.337116" fuel_abs="255.942587" electricity_abs="0"/>
    </tripinfo>
    <tripinfo id="carIn12365:1" depart="57713.00" departLane="315358244_1" departPos="5.10" departSpeed="0.00" departDelay="0.50" arrival="57798.00" arrivalLane="447569997#1_1" arrivalPos="180.93" arrivalSpeed="9.17" duration="85.00" routeLength="718.04" waitingTime="14.00" waitingCount="2" stopTime="0.00" timeLoss="29.62" rerouteNo="1" devices="tripinfo_carIn12365:1 routing_carIn12365:1 emissions_carIn12365:1" vType="default_016" speedFactor="1.11" vaporized="">
        <emissions CO_abs="4070.826299" CO2_abs="212601.849207" HC_abs="23.475297" PMx_abs="3.783798" NOx_abs="86.980492" fuel_abs="91.389089" electricity_abs="0"/>
    </tripinfo>
    <tripinfo id="carIn77943:1" depart="57608.00" departLane="124812856#0_1" departPos="5.10" departSpeed="0.00" departDelay="2.50" arrival="57804.00" arrivalLane="-128361102#1_1" arrivalPos="274.68" arrivalSpeed="13.75" duration="196.00" routeLength="2250.49" waitingTime="10.00" waitingCount="1" stopTime="0.00" timeLoss="40.42" rerouteNo="1" devices="tripinfo_carIn77943:1 routing_carIn77943:1 emissions_carIn77943:1" vType="default_016" speedFactor="1.05" vaporized="">
        <emissions CO_abs="8063.955835" CO2_abs="549878.156678" HC_abs="49.577931" PMx_abs="9.765314" NOx_abs="223.412697" fuel_abs="236.368844" electricity_abs="0"/>
    </tripinfo>
    <tripinfo id="carIn107282:1" depart="57749.00" departLane="-447569998#1_1" departPos="5.10" departSpeed="0.00" departDelay="0.00" arrival="57805.00" arrivalLane="315358242#0_1" arrivalPos="165.37" arrivalSpeed="14.50" duration="56.00" routeLength="448.50" waitingTime="7.00" waitingCount="1" stopTime="0.00" timeLoss="16.62" rerouteNo="1" devices="tripinfo_carIn107282:1 routing_carIn107282:1 emissions_carIn107282:1" vType="default_016" speedFactor="1.07" vaporized="">
        <emissions CO_abs="2466.782283" CO2_abs="129739.262997" HC_abs="14.264700" PMx_abs="2.274348" NOx_abs="52.991260" fuel_abs="55.769784" electricity_abs="0"/>
    </tripinfo>
    <tripinfo id="h3326c1:2" depart="57656.00" departLane="22716069#0_1" departPos="5.10" departSpeed="0.00" departDelay="0.00" arrival="57809.00" arrivalLane="24634517#13_1" arrivalPos="111.62" arrivalSpeed="10.65" duration="153.00" routeLength="1312.81" waitingTime="19.00" waitingCount="1" stopTime="0.00" timeLoss="37.97" rerouteNo="1" devices="tripinfo_h3326c1:2 routing_h3326c1:2 emissions_h3326c1:2" vType="default_016" speedFactor="0.85" vaporized="">
        <emissions CO_abs="7184.874533" CO2_abs="345727.644995" HC_abs="40.757386" PMx_abs="5.975962" NOx_abs="140.933359" fuel_abs="148.615281" electricity_abs="0"/>
    </tripinfo>
    <tripinfo id="carIn12858:1" depart="57661.00" departLane="128361109#1_1" departPos="5.10" departSpeed="0.00" departDelay="0.90" arrival="57813.00" arrivalLane="399835085#1_1" arrivalPos="212.23" arrivalSpeed="7.36" duration="152.00" routeLength="1738.12" waitingTime="11.00" waitingCount="2" stopTime="0.00" timeLoss="40.37" rerouteNo="1" devices="tripinfo_carIn12858:1 routing_carIn12858:1 emissions_carIn12858:1" vType="default_016" speedFactor="1.03" vaporized="">
        <emissions CO_abs="8253.246255" CO2_abs="513482.690772" HC_abs="49.866801" PMx_abs="9.936365" NOx_abs="211.805511" fuel_abs="220.723616" electricity_abs="0"/>
    </tripinfo>
    <tripinfo id="carIn48184:1" depart="57613.00" departLane="-306240162#1_0" departPos="5.10" departSpeed="0.00" departDelay="0.70" arrival="57814.00" arrivalLane="386687235_1" arrivalPos="80.84" arrivalSpeed="13.50" duration="201.00" routeLength="2257.41" waitingTime="15.00" waitingCount="2" stopTime="0.00" timeLoss="48.14" rerouteNo="1" devices="tripinfo_carIn48184:1 routing_carIn48184:1 emissions_carIn48184:1" vType="default_016" speedFactor="0.97" vaporized="">
        <emissions CO_abs="8671.252635" CO2_abs="573793.592654" HC_abs="52.924514" PMx_abs="10.215150" NOx_abs="232.426752" fuel_abs="246.649329" electricity_abs="0"/>
    </tripinfo>
    <tripinfo id="carIn82278:1" depart="57702.00" departLane="-306240162#1_0" departPos="5.10" departSpeed="0.00" departDelay="0.70" arrival="57817.00" arrivalLane="399835085#1_1" arrivalPos="212.23" arrivalSpeed="7.39" duration="115.00" routeLength="1093.26" waitingTime="14.00" waitingCount="1" stopTime="0.00" timeLoss="37.50" rerouteNo="1" devices="tripinfo_carIn82278:1 routing_carIn82278:1 emissions_carIn82278:1" vType="default_016" speedFactor="1.01" vaporized="">
        <emissions CO_abs="7063.949378" CO2_abs="351458.262583" HC_abs="40.510744" PMx_abs="6.806627" NOx_abs="146.526688" fuel_abs="151.077488" electricity_abs="0"/>
    </tripinfo>
    <tripinfo id="carIn462:1" depart="57622.00" departLane="-306240162#1_0" departPos="5.10" departSpeed="0.00" departDelay="4.80" arrival="57818.00" arrivalLane="386687235_1" arrivalPos="80.84" arrivalSpeed="12.48" duration="196.00" routeLength="2257.41" waitingTime="2.00" waitingCount="1" stopTime="0.00" timeLoss="43.97" rerouteNo="1" devices="tripinfo_carIn462:1 routing_carIn462:1 emissions_carIn462:1" vType="default_016" speedFactor="0.98" vaporized="">
        <emissions CO_abs="7081.407630" CO2_abs="507249.926183" HC_abs="44.193832" PMx_abs="8.827110" NOx_abs="204.938419" fuel_abs="218.044801" electricity_abs="0"/>
    </tripinfo>
    <tripinfo id="carIn81046:1" depart="57611.00" departLane="124812856#0_1" departPos="5.10" departSpeed="0.00" departDelay="2.50" arrival="57828.00" arrivalLane="-128361102#1_1" arrivalPos="274.68" arrivalSpeed="11.54" duration="217.00" routeLength="2250.49" waitingTime="5.00" waitingCount="2" stopTime="0.00" timeLoss="37.61" rerouteNo="1" devices="tripinfo_carIn81046:1 routing_carIn81046:1 emissions_carIn81046:1" vType="default_016" speedFactor="0.92" vaporized="">
        <emissions CO_abs="7155.199077" CO2_abs="504492.739060" HC_abs="44.358227" PMx_abs="8.342159" NOx_abs="202.253588" fuel_abs="216.860239" electricity_abs="0"/>
    </tripinfo>
    <tripinfo id="h11737c1:1" depart="57665.00" departLane="272042143_1" departPos="5.10" departSpeed="0.00" departDelay="1.50" arrival="57828.00" arrivalLane="-315358254#1_1" arrivalPos="137.16" arrivalSpeed="11.26" duration="163.00" routeLength="1596.88" waitingTime="13.00" waitingCount="2" stopTime="0.00" timeLoss="33.36" rerouteNo="1" devices="tripinfo_h11737c1:1 routing_h11737c1:1 emissions_h11737c1:1" vType="default_016" speedFactor="0.90" vaporized="">
        <emissions CO_abs="5682.620705" CO2_abs="359243.915718" HC_abs="34.244879" PMx_abs="5.938597" NOx_abs="143.939464" fuel_abs="154.424383" electricity_abs="0"/>
    </tripinfo>
    <tripinfo id="carIn77438:1" depart="57614.00" departLane="124812856#0_1" departPos="5.10" departSpeed="0.00" departDelay="1.10" arrival="57830.00" arrivalLane="-128361102#1_1" arrivalPos="274.68" arrivalSpeed="14.12" duration="216.00" routeLength="2250.49" waitingTime="13.00" waitingCount="3" stopTime="0.00" timeLoss="56.28" rerouteNo="1" devices="tripinfo_carIn77438:1 routing_carIn77438:1 emissions_carIn77438:1" vType="default_016" speedFactor="1.03" vaporized="">
        <emissions CO_abs="9416.759787" CO2_abs="574051.064928" HC_abs="56.356568" PMx_abs="10.065247" NOx_abs="232.976076" fuel_abs="246.760746" electricity_abs="0"/>
    </tripinfo>
    <tripinfo id="carIn126288:1" depart="57674.00" departLane="272042143_1" departPos="5.10" departSpeed="0.00" departDelay="0.00" arrival="57830.00" arrivalLane="-315358254#1_1" arrivalPos="137.16" arrivalSpeed="12.88" duration="156.00" routeLength="1596.88" waitingTime="9.00" waitingCount="2" stopTime="0.00" timeLoss="38.28" rerouteNo="1" devices="tripinfo_carIn126288:1 routing_carIn126288:1 emissions_carIn126288:1" vType="default_016" speedFactor="0.99" vaporized="">
        <emissions CO_abs="5353.442930" CO2_abs="367908.634747" HC_abs="32.970826" PMx_abs="6.207436" NOx_abs="147.957507" fuel_abs="158.148427" electricity_abs="0"/>
    </tripinfo>
    <tripinfo id="carIn107842:1" depart="57623.00" departLane="124812856#0_1" departPos="5.10" departSpeed="0.00" departDelay="1.90" arrival="57832.00" arrivalLane="-128361102#1_1" arrivalPos="274.68" arrivalSpeed="12.44" duration="209.00" routeLength="2250.49" waitingTime="10.00" waitingCount="1" stopTime="0.00" timeLoss="33.11" rerouteNo="1" devices="tripinfo_carIn107842:1 routing_carIn107842:1 emissions_carIn107842:1" vType="default_016" speedFactor="0.93" vaporized="">
        <emissions CO_abs="6837.885655" CO2_abs="481933.066953" HC_abs="42.340822" PMx_abs="7.649036" NOx_abs="190.084749" fuel_abs="207.163384" electricity_abs="0"/>
    </tripinfo>
    <tripinfo id="carIn12152:1" depart="57647.00" departLane="24599188#0.94_1" departPos="5.10" departSpeed="0.00" departDelay="0.50" arrival="57832.00" arrivalLane="-315358254#1_1" arrivalPos="137.16" arrivalSpeed="14.33" duration="185.00" routeLength="2034.31" waitingTime="3.00" waitingCount="1" stopTime="0.00" timeLoss="32.05" rerouteNo="1" devices="tripinfo_carIn12152:1 routing_carIn12152:1 emissions_carIn12152:1" vType="default_016" speedFactor="1.04" vaporized="">
        <emissions CO_abs="6453.810141" CO2_abs="467183.028379" HC_abs="40.280420" PMx_abs="7.839094" NOx_abs="187.260388" fuel_abs="200.822110" electricity_abs="0"/>
    </tripinfo>
    <tripinfo id="carIn81860:1" depart="57712.00" departLane="128361102#0_1" departPos="5.10" departSpeed="0.00" departDelay="0.60" arrival="57832.00" arrivalLane="-24634517#17_1" arrivalPos="6.43" arrivalSpeed="7.04" duration="120.00" routeLength="1229.64" waitingTime="5.00" waitingCount="1" stopTime="0.00" timeLoss="22.27" rerouteNo="1" devices="tripinfo_carIn81860:1 routing_carIn81860:1 emissions_carIn81860:1" vType="default_016" speedFactor="0.92" vaporized="">
        <emissions CO_abs="3781.706487" CO2_abs="261387.215599" HC_abs="23.302709" PMx_abs="4.223209" NOx_abs="104.006558" fuel_abs="112.359615" electricity_abs="0"/>
    </tripinfo>
    <tripinfo id="h16072c2:3" depart="57663.00" departLane="315358254#0_1" departPos="5.10" departSpeed="0.00" departDelay="2.50" arrival="57833.00" arrivalLane="386687235_2" arrivalPos="80.84" arrivalSpeed="12.44" duration="170.00" routeLength="1611.92" waitingTime="9.00" waitingCount="3" stopTime="0.00" timeLoss="49.51" rerouteNo="1" devices="tripinfo_h16072c2:3 routing_h16072c2:3 emissions_h16072c2:3" vType="default_016" speedFactor="0.97" vaporized="">
        <emissions CO_abs="6602.327534" CO2_abs="418732.962292" HC_abs="39.860223" PMx_abs="7.332943" NOx_abs="170.792600" fuel_abs="179.995620" electricity_abs="0"/>
    </tripinfo>
    <tripinfo id="carIn82220:1" depart="57619.00" departLane="-306240162#1_0" departPos="5.10" departSpeed="0.00" departDelay="3.50" arrival="57835.00" arrivalLane="386687235_1" arrivalPos="80.84" arrivalSpeed="11.62" duration="216.00" routeLength="2257.41" waitingTime="11.00" waitingCount="2" stopTime="0.00" timeLoss="41.35" rerouteNo="1" devices="tripinfo_carIn82220:1 routing_carIn82220:1 emissions_carIn82220:1" vType="default_016" speedFactor="0.85" vaporized="">
        <emissions CO_abs="7566.381801" CO2_abs="507714.160432" HC_abs="46.271798" PMx_abs="8.308405" NOx_abs="202.132454" fuel_abs="218.245523" electricity_abs="0"/>
    </tripinfo>
    <tripinfo id="carIn31257:1" depart="57630.00" departLane="-306240162#1_0" departPos="5.10" departSpeed="0.00" departDelay="1.60" arrival="57836.00" arrivalLane="386687235_2" arrivalPos="80.84" arrivalSpeed="14.92" duration="206.00" routeLength="2257.41" waitingTime="16.00" waitingCount="2" stopTime="0.00" timeLoss="69.55" rerouteNo="1" devices="tripinfo_carIn31257:1 routing_carIn31257:1 emissions_carIn31257:1" vType="default_016" speedFactor="1.09" vaporized="">
        <emissions CO_abs="9763.088968" CO2_abs="587374.796802" HC_abs="58.271051" PMx_abs="10.956725" NOx_abs="241.368965" fuel_abs="252.487279" electricity_abs="0"/>
    </tripinfo>
    <tripinfo id="carIn50326:1" depart="57651.00" departLane="128361102#0_1" departPos="5.10" departSpeed="0.00" departDelay="0.30" arrival="57836.00" arrivalLane="18809673#0_1" arrivalPos="473.56" arrivalSpeed="10.22" duration="185.00" routeLength="1591.07" waitingTime="3.00" waitingCount="1" stopTime="0.00" timeLoss="26.86" rerouteNo="1" devices="tripinfo_carIn50326:1 routing_carIn50326:1 emissions_carIn50326:1" vType="default_016" speedFactor="0.82" vaporized="">
        <emissions CO_abs="6186.531987" CO2_abs="344649.628269" HC_abs="36.111057" PMx_abs="5.452388" NOx_abs="137.743561" fuel_abs="148.151765" electricity_abs="0"/>
    </tripinfo>
    <tripinfo id="carIn767:1" depart="57620.00" departLane="124812856#0_1" departPos="5.10" departSpeed="0.00" departDelay="1.50" arrival="57837.00" arrivalLane="306240162#0_0" arrivalPos="220.43" arrivalSpeed="18.89" duration="217.00" routeLength="3031.29" waitingTime="8.00" waitingCount="1" stopTime="0.00" timeLoss="45.39" rerouteNo="1" devices="tripinfo_carIn767:1 routing_carIn767:1 emissions_carIn767:1" vType="default_016" speedFactor="1.14" vaporized="">