<?xml version="1.0" encoding="UTF-8"?>

<!-- generated on Thu Nov  4 14:02:49 2021 by Eclipse SUMO sumo Version 1.9.0
<configuration xmlns:xsi="http://www.w3.org/2001/XMLSchema-instance" xsi:noNamespaceSchemaLocation="http://sumo.dlr.de/xsd/sumoConfiguration.xsd">

    <input>
        <net-file value="/mainfs/home/bk2g18/RESCO/environments/ingolstadt21/ingolstadt21.net.xml"/>
        <route-files value="/mainfs/home/bk2g18/RESCO/environments/ingolstadt21/ingolstadt21.rou.xml"/>
    </input>

    <output>
        <tripinfo-output value="/mainfs/home/bk2g18/RESCO/logs/MPLight-tr0-ingolstadt21-21-mplight-pressure/tripinfo_91.xml"/>
        <tripinfo-output.write-unfinished value="true"/>
    </output>

    <time>
        <begin value="57600"/>
        <end value="61200"/>
    </time>

    <processing>
        <time-to-teleport value="-1"/>
    </processing>

    <report>
        <xml-validation value="never"/>
        <xml-validation.routes value="never"/>
        <no-warnings value="true"/>
        <no-step-log value="true"/>
    </report>

    <emissions>
        <device.emissions.probability value="1"/>
    </emissions>

    <traci_server>
        <remote-port value="53095"/>
    </traci_server>

    <random_number>
        <random value="true"/>
    </random_number>

</configuration>
-->

<tripinfos xmlns:xsi="http://www.w3.org/2001/XMLSchema-instance" xsi:noNamespaceSchemaLocation="http://sumo.dlr.de/xsd/tripinfo_file.xsd">
    <tripinfo id="h15454c2:3" depart="57612.00" departLane="24608844_1" departPos="5.10" departSpeed="0.00" departDelay="0.50" arrival="57656.00" arrivalLane="32978638#0_1" arrivalPos="49.29" arrivalSpeed="12.10" duration="44.00" routeLength="354.79" waitingTime="0.00" waitingCount="0" stopTime="0.00" timeLoss="5.91" rerouteNo="1" devices="tripinfo_h15454c2:3 routing_h15454c2:3 emissions_h15454c2:3" vType="default_016" speedFactor="0.90" vaporized="">
        <emissions CO_abs="2174.353761" CO2_abs="111959.717771" HC_abs="12.508094" PMx_abs="1.954862" NOx_abs="46.115366" fuel_abs="48.127065" electricity_abs="0"/>
    </tripinfo>
    <tripinfo id="carIn60260:1" depart="57606.00" departLane="315358254#0_1" departPos="5.10" departSpeed="0.00" departDelay="0.90" arrival="57660.00" arrivalLane="399835085#1_1" arrivalPos="212.23" arrivalSpeed="7.60" duration="54.00" routeLength="430.98" waitingTime="0.00" waitingCount="0" stopTime="0.00" timeLoss="6.14" rerouteNo="1" devices="tripinfo_carIn60260:1 routing_carIn60260:1 emissions_carIn60260:1" vType="default_016" speedFactor="0.97" vaporized="">
        <emissions CO_abs="2064.787796" CO2_abs="105296.458373" HC_abs="11.843368" PMx_abs="1.787532" NOx_abs="43.055136" fuel_abs="45.262886" electricity_abs="0"/>
    </tripinfo>
    <tripinfo id="carIn53971:1" depart="57640.00" departLane="272042143_1" departPos="5.10" departSpeed="0.00" departDelay="0.80" arrival="57696.00" arrivalLane="24634414#1_1" arrivalPos="162.19" arrivalSpeed="7.06" duration="56.00" routeLength="493.04" waitingTime="0.00" waitingCount="0" stopTime="0.00" timeLoss="8.02" rerouteNo="1" devices="tripinfo_carIn53971:1 routing_carIn53971:1 emissions_carIn53971:1" vType="default_016" speedFactor="0.95" vaporized="">
        <emissions CO_abs="2469.381527" CO2_abs="135321.531025" HC_abs="14.387047" PMx_abs="2.301803" NOx_abs="55.148060" fuel_abs="58.169364" electricity_abs="0"/>
    </tripinfo>
    <tripinfo id="h7800c1:5" depart="57696.00" departLane="-447569998#1_1" departPos="5.10" departSpeed="0.00" departDelay="0.00" arrival="57720.00" arrivalLane="-447569998#1_1" arrivalPos="180.76" arrivalSpeed="8.48" duration="24.00" routeLength="175.66" waitingTime="0.00" waitingCount="0" stopTime="0.00" timeLoss="2.67" rerouteNo="1" devices="tripinfo_h7800c1:5 routing_h7800c1:5 emissions_h7800c1:5" vType="default_016" speedFactor="1.02" vaporized="">
        <emissions CO_abs="1234.243434" CO2_abs="57960.225727" HC_abs="6.938982" PMx_abs="0.875819" NOx_abs="23.076160" fuel_abs="24.915107" electricity_abs="0"/>
    </tripinfo>
    <tripinfo id="carIn22761:1" depart="57616.00" departLane="-306240162#1_0" departPos="5.10" departSpeed="0.00" departDelay="2.10" arrival="57726.00" arrivalLane="399835085#1_1" arrivalPos="212.23" arrivalSpeed="6.70" duration="110.00" routeLength="1093.26" waitingTime="12.00" waitingCount="1" stopTime="0.00" timeLoss="28.21" rerouteNo="1" devices="tripinfo_carIn22761:1 routing_carIn22761:1 emissions_carIn22761:1" vType="default_016" speedFactor="0.95" vaporized="">
        <emissions CO_abs="5544.118137" CO2_abs="296405.363221" HC_abs="32.168141" PMx_abs="5.487517" NOx_abs="120.767662" fuel_abs="127.412642" electricity_abs="0"/>
    </tripinfo>
    <tripinfo id="h3568c1:3" depart="57656.00" departLane="266565295#5_1" departPos="5.10" departSpeed="0.00" departDelay="0.80" arrival="57728.00" arrivalLane="-24634415_1" arrivalPos="62.03" arrivalSpeed="14.45" duration="72.00" routeLength="807.40" waitingTime="0.00" waitingCount="0" stopTime="0.00" timeLoss="12.03" rerouteNo="1" devices="tripinfo_h3568c1:3 routing_h3568c1:3 emissions_h3568c1:3" vType="default_016" speedFactor="1.08" vaporized="">
        <emissions CO_abs="3171.782710" CO2_abs="208482.720587" HC_abs="19.294892" PMx_abs="3.729292" NOx_abs="85.204908" fuel_abs="89.617726" electricity_abs="0"/>
    </tripinfo>
    <tripinfo id="S5R_frequency1.2" depart="57615.00" departLane="315358250#0_1" departPos="12.10" departSpeed="0.00" departDelay="3.40" arrival="57730.00" arrivalLane="386687235_1" arrivalPos="80.84" arrivalSpeed="13.41" duration="115.00" routeLength="1115.62" waitingTime="15.00" waitingCount="1" stopTime="0.00" timeLoss="33.23" rerouteNo="1" devices="tripinfo_S5R_frequency1.2 routing_S5R_frequency1.2 emissions_S5R_frequency1.2" vType="bus" speedFactor="1.00" vaporized="">
        <emissions CO_abs="2119.183603" CO2_abs="1248421.421040" HC_abs="451.426543" PMx_abs="225.375132" NOx_abs="9902.215805" fuel_abs="532.411128" electricity_abs="0"/>
    </tripinfo>
    <tripinfo id="h3688c1:1" depart="57625.00" departLane="201201950#1_1" departPos="5.10" departSpeed="0.00" departDelay="0.00" arrival="57731.00" arrivalLane="32978638#0_1" arrivalPos="49.29" arrivalSpeed="13.70" duration="106.00" routeLength="1089.75" waitingTime="12.00" waitingCount="1" stopTime="0.00" timeLoss="27.37" rerouteNo="1" devices="tripinfo_h3688c1:1 routing_h3688c1:1 emissions_h3688c1:1" vType="default_016" speedFactor="1.02" vaporized="">
        <emissions CO_abs="5050.087014" CO2_abs="285298.003092" HC_abs="29.589881" PMx_abs="5.059611" NOx_abs="116.078039" fuel_abs="122.637997" electricity_abs="0"/>
    </tripinfo>
    <tripinfo id="h12244c1:3" depart="57612.00" departLane="315358244_1" departPos="5.10" departSpeed="0.00" departDelay="0.40" arrival="57736.00" arrivalLane="386687235_1" arrivalPos="80.84" arrivalSpeed="12.48" duration="124.00" routeLength="1186.14" waitingTime="11.00" waitingCount="1" stopTime="0.00" timeLoss="28.31" rerouteNo="1" devices="tripinfo_h12244c1:3 routing_h12244c1:3 emissions_h12244c1:3" vType="default_016" speedFactor="0.90" vaporized="">
        <emissions CO_abs="4959.428660" CO2_abs="280342.021240" HC_abs="29.067526" PMx_abs="4.457707" NOx_abs="110.922937" fuel_abs="120.508406" electricity_abs="0"/>
    </tripinfo>
    <tripinfo id="carIn80064:1" depart="57603.00" departLane="128361109#1_1" departPos="5.10" departSpeed="0.00" departDelay="0.40" arrival="57740.00" arrivalLane="-315358254#1_1" arrivalPos="137.16" arrivalSpeed="12.58" duration="137.00" routeLength="1587.97" waitingTime="18.00" waitingCount="1" stopTime="0.00" timeLoss="44.78" rerouteNo="1" devices="tripinfo_carIn80064:1 routing_carIn80064:1 emissions_carIn80064:1" vType="default_016" speedFactor="0.98" vaporized="">
        <emissions CO_abs="8762.660519" CO2_abs="490924.883795" HC_abs="51.640377" PMx_abs="9.807131" NOx_abs="205.359185" fuel_abs="211.027188" electricity_abs="0"/>
    </tripinfo>
    <tripinfo id="h7181c1:1" depart="57660.00" departLane="315358254#0_1" departPos="5.10" departSpeed="0.00" departDelay="0.10" arrival="57742.00" arrivalLane="306240162#0_0" arrivalPos="220.43" arrivalSpeed="13.36" duration="82.00" routeLength="932.35" waitingTime="10.00" waitingCount="1" stopTime="0.00" timeLoss="23.58" rerouteNo="1" devices="tripinfo_h7181c1:1 routing_h7181c1:1 emissions_h7181c1:1" vType="default_016" speedFactor="0.87" vaporized="">
        <emissions CO_abs="4438.677793" CO2_abs="269109.680034" HC_abs="26.510696" PMx_abs="5.092113" NOx_abs="110.669960" fuel_abs="115.678621" electricity_abs="0"/>
    </tripinfo>
    <tripinfo id="h4538c1:1" depart="57701.00" departLane="-10427692#1_1" departPos="5.10" departSpeed="0.00" departDelay="0.00" arrival="57742.00" arrivalLane="-128361102#1_1" arrivalPos="274.68" arrivalSpeed="13.03" duration="41.00" routeLength="440.74" waitingTime="0.00" waitingCount="0" stopTime="0.00" timeLoss="6.75" rerouteNo="1" devices="tripinfo_h4538c1:1 routing_h4538c1:1 emissions_h4538c1:1" vType="default_016" speedFactor="0.94" vaporized="">
        <emissions CO_abs="1563.084649" CO2_abs="107187.951015" HC_abs="9.610348" PMx_abs="1.736604" NOx_abs="42.663237" fuel_abs="46.075697" electricity_abs="0"/>
    </tripinfo>
    <tripinfo id="h9563c2:5" depart="57631.00" departLane="315358244_1" departPos="5.10" departSpeed="0.00" departDelay="0.70" arrival="57745.00" arrivalLane="386687235_1" arrivalPos="80.84" arrivalSpeed="11.44" duration="114.00" routeLength="1186.14" waitingTime="2.00" waitingCount="1" stopTime="0.00" timeLoss="16.47" rerouteNo="1" devices="tripinfo_h9563c2:5 routing_h9563c2:5 emissions_h9563c2:5" vType="default_016" speedFactor="0.89" vaporized="">
        <emissions CO_abs="3260.231040" CO2_abs="237320.849412" HC_abs="20.340257" PMx_abs="3.654654" NOx_abs="93.169702" fuel_abs="102.014611" electricity_abs="0"/>
    </tripinfo>
    <tripinfo id="carIn30817:1" depart="57681.00" departLane="315358244_1" departPos="5.10" departSpeed="0.00" departDelay="0.20" arrival="57754.00" arrivalLane="447569997#1_1" arrivalPos="180.93" arrivalSpeed="8.02" duration="73.00" routeLength="718.04" waitingTime="0.00" waitingCount="0" stopTime="0.00" timeLoss="10.73" rerouteNo="1" devices="tripinfo_carIn30817:1 routing_carIn30817:1 emissions_carIn30817:1" vType="default_016" speedFactor="0.99" vaporized="">
        <emissions CO_abs="2505.437693" CO2_abs="154216.692797" HC_abs="14.945624" PMx_abs="2.387899" NOx_abs="60.739934" fuel_abs="66.291799" electricity_abs="0"/>
    </tripinfo>
    <tripinfo id="h317c2:1" depart="57707.00" departLane="-32978638#0_1" departPos="5.10" departSpeed="0.00" departDelay="0.10" arrival="57754.00" arrivalLane="-266565295#5_1" arrivalPos="172.76" arrivalSpeed="14.48" duration="47.00" routeLength="370.53" waitingTime="10.00" waitingCount="1" stopTime="0.00" timeLoss="20.68" rerouteNo="1" devices="tripinfo_h317c2:1 routing_h317c2:1 emissions_h317c2:1" vType="default_016" speedFactor="1.06" vaporized="">
        <emissions CO_abs="2666.468434" CO2_abs="136573.957854" HC_abs="15.354205" PMx_abs="2.619774" NOx_abs="57.169497" fuel_abs="58.707467" electricity_abs="0"/>
    </tripinfo>
    <tripinfo id="carIn121703:1" depart="57647.00" departLane="386687232#0_1" departPos="5.10" departSpeed="0.00" departDelay="0.30" arrival="57763.00" arrivalLane="-315358244_1" arrivalPos="33.95" arrivalSpeed="14.21" duration="116.00" routeLength="1157.39" waitingTime="21.00" waitingCount="2" stopTime="0.00" timeLoss="38.75" rerouteNo="1" devices="tripinfo_carIn121703:1 routing_carIn121703:1 emissions_carIn121703:1" vType="default_016" speedFactor="1.09" vaporized="">
        <emissions CO_abs="5973.965523" CO2_abs="314650.843980" HC_abs="34.525863" PMx_abs="5.741865" NOx_abs="128.432294" fuel_abs="135.255758" electricity_abs="0"/>
    </tripinfo>
    <tripinfo id="h5979c1:5" depart="57669.00" departLane="399835085#1_1" departPos="5.10" departSpeed="0.00" departDelay="0.00" arrival="57768.00" arrivalLane="-315358254#1_1" arrivalPos="137.16" arrivalSpeed="12.88" duration="99.00" routeLength="659.33" waitingTime="9.00" waitingCount="1" stopTime="0.00" timeLoss="22.85" rerouteNo="1" devices="tripinfo_h5979c1:5 routing_h5979c1:5 emissions_h5979c1:5" vType="default_016" speedFactor="0.96" vaporized="">
        <emissions CO_abs="4474.576676" CO2_abs="190550.234839" HC_abs="24.768316" PMx_abs="3.234033" NOx_abs="78.039014" fuel_abs="81.910816" electricity_abs="0"/>
    </tripinfo>
    <tripinfo id="h3326c1:2" depart="57656.00" departLane="22716069#0_1" departPos="5.10" departSpeed="0.00" departDelay="0.00" arrival="57769.00" arrivalLane="24634517#13_1" arrivalPos="111.62" arrivalSpeed="13.70" duration="113.00" routeLength="1312.81" waitingTime="0.00" waitingCount="0" stopTime="0.00" timeLoss="14.54" rerouteNo="1" devices="tripinfo_h3326c1:2 routing_h3326c1:2 emissions_h3326c1:2" vType="default_016" speedFactor="0.99" vaporized="">
        <emissions CO_abs="3911.654047" CO2_abs="301678.712228" HC_abs="24.803544" PMx_abs="5.022741" NOx_abs="120.504058" fuel_abs="129.678695" electricity_abs="0"/>
    </tripinfo>
    <tripinfo id="carIn12365:1" depart="57713.00" departLane="315358244_1" departPos="5.10" departSpeed="0.00" departDelay="0.50" arrival="57774.00" arrivalLane="447569997#1_1" arrivalPos="180.93" arrivalSpeed="8.68" duration="61.00" routeLength="718.04" waitingTime="0.00" waitingCount="0" stopTime="0.00" timeLoss="7.47" rerouteNo="1" devices="tripinfo_carIn12365:1 routing_carIn12365:1 emissions_carIn12365:1" vType="default_016" speedFactor="1.16" vaporized="">
        <emissions CO_abs="2079.093562" CO2_abs="165981.151163" HC_abs="13.154609" PMx_abs="2.673248" NOx_abs="65.038750" fuel_abs="71.348270" electricity_abs="0"/>
    </tripinfo>
    <tripinfo id="h330c1:1" depart="57736.00" departLane="-32978638#0_1" departPos="5.10" departSpeed="0.00" departDelay="0.20" arrival="57774.00" arrivalLane="-266565295#5_1" arrivalPos="172.76" arrivalSpeed="13.82" duration="38.00" routeLength="370.53" waitingTime="3.00" waitingCount="1" stopTime="0.00" timeLoss="12.26" rerouteNo="1" devices="tripinfo_h330c1:1 routing_h330c1:1 emissions_h330c1:1" vType="default_016" speedFactor="1.05" vaporized="">
        <emissions CO_abs="2118.585953" CO2_abs="126184.252940" HC_abs="12.585572" PMx_abs="2.320132" NOx_abs="52.079465" fuel_abs="54.241229" electricity_abs="0"/>
    </tripinfo>
    <tripinfo id="h3154c1:1" depart="57658.00" departLane="24634507_1" departPos="5.10" departSpeed="0.00" departDelay="0.00" arrival="57786.00" arrivalLane="-266565295#5_1" arrivalPos="172.76" arrivalSpeed="13.01" duration="128.00" routeLength="1206.22" waitingTime="20.00" waitingCount="2" stopTime="0.00" timeLoss="39.63" rerouteNo="1" devices="tripinfo_h3154c1:1 routing_h3154c1:1 emissions_h3154c1:1" vType="default_016" speedFactor="1.00" vaporized="">
        <emissions CO_abs="6330.415546" CO2_abs="347185.856418" HC_abs="36.932923" PMx_abs="6.224577" NOx_abs="141.933258" fuel_abs="149.241111" electricity_abs="0"/>
    </tripinfo>
    <tripinfo id="carIn27009:1" depart="57673.00" departLane="-447569998#1_1" departPos="5.10" departSpeed="0.00" departDelay="0.50" arrival="57787.00" arrivalLane="-26677539_1" arrivalPos="152.75" arrivalSpeed="6.86" duration="114.00" routeLength="699.63" waitingTime="11.00" waitingCount="1" stopTime="0.00" timeLoss="24.40" rerouteNo="1" devices="tripinfo_carIn27009:1 routing_carIn27009:1 emissions_carIn27009:1" vType="default_015" speedFactor="0.94" vaporized="">
        <emissions CO_abs="5168.698419" CO2_abs="195059.346390" HC_abs="28.016787" PMx_abs="3.340090" NOx_abs="80.333001" fuel_abs="83.849555" electricity_abs="0"/>
    </tripinfo>
    <tripinfo id="carIn86816:1" depart="57617.00" departLane="128361102#0_1" departPos="5.10" departSpeed="0.00" departDelay="0.80" arrival="57796.00" arrivalLane="201956811#0_1" arrivalPos="40.40" arrivalSpeed="12.26" duration="179.00" routeLength="2067.33" waitingTime="1.00" waitingCount="1" stopTime="0.00" timeLoss="23.75" rerouteNo="1" devices="tripinfo_carIn86816:1 routing_carIn86816:1 emissions_carIn86816:1" vType="default_016" speedFactor="0.97" vaporized="">
        <emissions CO_abs="5691.400942" CO2_abs="464074.446372" HC_abs="36.700396" PMx_abs="7.357246" NOx_abs="182.547917" fuel_abs="199.485979" electricity_abs="0"/>
    </tripinfo>
    <tripinfo id="carIn107084:1" depart="57601.00" departLane="124812856#0_1" departPos="5.10" departSpeed="0.00" departDelay="0.70" arrival="57798.00" arrivalLane="-128361102#1_1" arrivalPos="274.68" arrivalSpeed="11.72" duration="197.00" routeLength="2250.49" waitingTime="0.00" waitingCount="0" stopTime="0.00" timeLoss="19.74" rerouteNo="1" devices="tripinfo_carIn107084:1 routing_carIn107084:1 emissions_carIn107084:1" vType="default_016" speedFactor="0.93" vaporized="">
        <emissions CO_abs="5661.732022" CO2_abs="471319.041276" HC_abs="36.730185" PMx_abs="7.266699" NOx_abs="184.408290" fuel_abs="202.600308" electricity_abs="0"/>
    </tripinfo>
    <tripinfo id="carIn77943:1" depart="57608.00" departLane="124812856#0_1" departPos="5.10" departSpeed="0.00" departDelay="2.50" arrival="57799.00" arrivalLane="-128361102#1_1" arrivalPos="274.68" arrivalSpeed="13.81" duration="191.00" routeLength="2232.46" waitingTime="0.00" waitingCount="0" stopTime="0.00" timeLoss="57.00" rerouteNo="1" devices="tripinfo_carIn77943:1 routing_carIn77943:1 emissions_carIn77943:1" vType="default_016" speedFactor="1.21" vaporized="">
        <emissions CO_abs="7634.754412" CO2_abs="559937.538161" HC_abs="47.877325" PMx_abs="9.855316" NOx_abs="227.546884" fuel_abs="240.692519" electricity_abs="0"/>
    </tripinfo>
    <tripinfo id="carIn102915:1" depart="57643.00" departLane="128361102#0_1" departPos="5.10" departSpeed="0.00" departDelay="0.40" arrival="57799.00" arrivalLane="201956811#0_1" arrivalPos="40.40" arrivalSpeed="15.45" duration="156.00" routeLength="2067.33" waitingTime="0.00" waitingCount="0" stopTime="0.00" timeLoss="27.67" rerouteNo="1" devices="tripinfo_carIn102915:1 routing_carIn102915:1 emissions_carIn102915:1" vType="default_016" speedFactor="1.18" vaporized="">
        <emissions CO_abs="5902.496325" CO2_abs="459071.987398" HC_abs="37.588682" PMx_abs="8.256748" NOx_abs="185.964712" fuel_abs="197.334440" electricity_abs="0"/>
    </tripinfo>
    <tripinfo id="carIn82278:1" depart="57702.00" departLane="-306240162#1_0" departPos="5.10" departSpeed="0.00" departDelay="0.70" arrival="57801.00" arrivalLane="399835085#1_1" arrivalPos="212.23" arrivalSpeed="7.67" duration="99.00" routeLength="1093.26" waitingTime="1.00" waitingCount="1" stopTime="0.00" timeLoss="24.99" rerouteNo="1" devices="tripinfo_carIn82278:1 routing_carIn82278:1 emissions_carIn82278:1" vType="default_016" speedFactor="1.06" vaporized="">
        <emissions CO_abs="6092.366012" CO2_abs="368175.690391" HC_abs="36.541163" PMx_abs="7.201034" NOx_abs="153.531720" fuel_abs="158.262441" electricity_abs="0"/>
    </tripinfo>
    <tripinfo id="carIn82220:1" depart="57619.00" departLane="-306240162#1_0" departPos="5.10" departSpeed="0.00" departDelay="3.50" arrival="57803.00" arrivalLane="386687235_2" arrivalPos="80.84" arrivalSpeed="14.32" duration="184.00" routeLength="2257.41" waitingTime="11.00" waitingCount="4" stopTime="0.00" timeLoss="51.67" rerouteNo="1" devices="tripinfo_carIn82220:1 routing_carIn82220:1 emissions_carIn82220:1" vType="default_016" speedFactor="1.12" vaporized="">
        <emissions CO_abs="8770.107479" CO2_abs="577341.886741" HC_abs="53.462660" PMx_abs="10.808953" NOx_abs="235.731968" fuel_abs="248.173957" electricity_abs="0"/>
    </tripinfo>
    <tripinfo id="carIn48184:1" depart="57613.00" departLane="-306240162#1_0" departPos="5.10" departSpeed="0.00" departDelay="0.70" arrival="57804.00" arrivalLane="386687235_1" arrivalPos="80.84" arrivalSpeed="12.97" duration="191.00" routeLength="2257.41" waitingTime="19.00" waitingCount="2" stopTime="0.00" timeLoss="45.51" rerouteNo="1" devices="tripinfo_carIn48184:1 routing_carIn48184:1 emissions_carIn48184:1" vType="default_016" speedFactor="1.02" vaporized="">
        <emissions CO_abs="8377.726768" CO2_abs="544308.130058" HC_abs="51.063383" PMx_abs="10.022490" NOx_abs="221.243109" fuel_abs="233.974573" electricity_abs="0"/>
    </tripinfo>
    <tripinfo id="carIn462:1" depart="57622.00" departLane="-306240162#1_0" departPos="5.10" departSpeed="0.00" departDelay="4.80" arrival="57807.00" arrivalLane="386687235_1" arrivalPos="80.84" arrivalSpeed="12.22" duration="185.00" routeLength="2257.41" waitingTime="0.00" waitingCount="0" stopTime="0.00" timeLoss="17.31" rerouteNo="1" devices="tripinfo_carIn462:1 routing_carIn462:1 emissions_carIn462:1" vType="default_016" speedFactor="0.89" vaporized="">
        <emissions CO_abs="5814.062552" CO2_abs="469550.055217" HC_abs="37.463300" PMx_abs="7.749413" NOx_abs="186.067291" fuel_abs="201.839358" electricity_abs="0"/>
    </tripinfo>
    <tripinfo id="carIn50326:1" depart="57651.00" departLane="128361102#0_1" departPos="5.10" departSpeed="0.00" departDelay="0.30" arrival="57808.00" arrivalLane="18809673#0_1" arrivalPos="473.56" arrivalSpeed="12.62" duration="157.00" routeLength="1591.07" waitingTime="7.00" waitingCount="1" stopTime="0.00" timeLoss="24.30" rerouteNo="1" devices="tripinfo_carIn50326:1 routing_carIn50326:1 emissions_carIn50326:1" vType="default_016" speedFactor="0.98" vaporized="">
        <emissions CO_abs="5298.122643" CO2_abs="356796.435277" HC_abs="32.378669" PMx_abs="5.708576" NOx_abs="141.479169" fuel_abs="153.372324" electricity_abs="0"/>
    </tripinfo>
    <tripinfo id="h16072c2:3" depart="57663.00" departLane="315358254#0_1" departPos="5.10" departSpeed="0.00" departDelay="2.50" arrival="57808.00" arrivalLane="386687235_2" arrivalPos="80.84" arrivalSpeed="11.59" duration="145.00" routeLength="1611.92" waitingTime="0.00" waitingCount="0" stopTime="0.00" timeLoss="16.68" rerouteNo="1" devices="tripinfo_h16072c2:3 routing_h16072c2:3 emissions_h16072c2:3" vType="default_016" speedFactor="0.92" vaporized="">
        <emissions CO_abs="4338.379567" CO2_abs="331931.539875" HC_abs="27.467371" PMx_abs="5.212501" NOx_abs="130.901146" fuel_abs="142.683573" electricity_abs="0"/>
    </tripinfo>
    <tripinfo id="carIn129809:1" depart="57729.00" departLane="-447569998#1_1" departPos="5.10" departSpeed="0.00" departDelay="1.00" arrival="57812.00" arrivalLane="-315358244_1" arrivalPos="33.95" arrivalSpeed="12.66" duration="83.00" routeLength="706.49" waitingTime="7.00" waitingCount="1" stopTime="0.00" timeLoss="20.77" rerouteNo="1" devices="tripinfo_carIn129809:1 routing_carIn129809:1 emissions_carIn129809:1" vType="default_015" speedFactor="0.97" vaporized="">
        <emissions CO_abs="3698.824357" CO2_abs="193517.061100" HC_abs="21.349044" PMx_abs="3.314309" NOx_abs="78.581975" fuel_abs="83.185471" electricity_abs="0"/>
    </tripinfo>
    <tripinfo id="h11737c1:1" depart="57665.00" departLane="272042143_1" departPos="5.10" departSpeed="0.00" departDelay="1.50" arrival="57816.00" arrivalLane="-315358254#1_1" arrivalPos="137.16" arrivalSpeed="14.50" duration="151.00" routeLength="1596.88" waitingTime="25.00" waitingCount="2" stopTime="0.00" timeLoss="47.49" rerouteNo="1" devices="tripinfo_h11737c1:1 routing_h11737c1:1 emissions_h11737c1:1" vType="default_016" speedFactor="1.13" vaporized="">
        <emissions CO_abs="7454.458802" CO2_abs="413931.974894" HC_abs="43.629553" PMx_abs="7.634498" NOx_abs="169.434195" fuel_abs="177.932267" electricity_abs="0"/>
    </tripinfo>
    <tripinfo id="carIn118591:1" depart="57689.00" departLane="315358244_1" departPos="5.10" departSpeed="0.00" departDelay="0.20" arrival="57816.00" arrivalLane="386687235_1" arrivalPos="80.84" arrivalSpeed="14.13" duration="127.00" routeLength="1186.14" waitingTime="29.00" waitingCount="1" stopTime="0.00" timeLoss="42.48" rerouteNo="1" devices="tripinfo_carIn118591:1 routing_carIn118591:1 emissions_carIn118591:1" vType="default_016" speedFactor="1.03" vaporized="">
        <emissions CO_abs="6289.382028" CO2_abs="297447.219370" HC_abs="35.467628" PMx_abs="4.985920" NOx_abs="118.284795" fuel_abs="127.861865" electricity_abs="0"/>
    </tripinfo>
    <tripinfo id="randUni33724:1" depart="57646.00" departLane="128361102#0_1" departPos="5.10" departSpeed="0.00" departDelay="1.20" arrival="57817.00" arrivalLane="201956811#0_1" arrivalPos="40.40" arrivalSpeed="12.87" duration="171.00" routeLength="2067.33" waitingTime="0.00" waitingCount="0" stopTime="0.00" timeLoss="18.17" rerouteNo="1" devices="tripinfo_randUni33724:1 routing_randUni33724:1 emissions_randUni33724:1" vType="random_016" speedFactor="0.99" vaporized="">
        <emissions CO_abs="4759.424194" CO2_abs="400710.187847" HC_abs="31.030279" PMx_abs="6.446259" NOx_abs="158.100671" fuel_abs="172.248105" electricity_abs="0"/>
    </tripinfo>
    <tripinfo id="carIn126288:1" depart="57674.00" departLane="272042143_1" departPos="5.10" departSpeed="0.00" departDelay="0.00" arrival="57819.00" arrivalLane="-315358254#1_1" arrivalPos="137.16" arrivalSpeed="13.31" duration="145.00" routeLength="1596.88" waitingTime="9.00" waitingCount="1" stopTime="0.00" timeLoss="25.43" rerouteNo="1" devices="tripinfo_carIn126288:1 routing_carIn126288:1 emissions_carIn126288:1" vType="default_016" speedFactor="0.97" vaporized="">
        <emissions CO_abs="4353.750118" CO2_abs="338325.270016" HC_abs="27.696524" PMx_abs="5.374865" NOx_abs="133.106651" fuel_abs="145.431891" electricity_abs="0"/>
    </tripinfo>
    <tripinfo id="carIn12152:1" depart="57647.00" departLane="24599188#0.94_1" departPos="5.10" departSpeed="0.00" departDelay="0.50" arrival="57821.00" arrivalLane="-315358254#1_1" arrivalPos="137.16" arrivalSpeed="15.11" duration="174.00" routeLength="2034.31" waitingTime="9.00" waitingCount="1" stopTime="0.00" timeLoss="33.43" rerouteNo="1" devices="tripinfo_carIn12152:1 routing_carIn12152:1 emissions_carIn12152:1" vType="default_016" speedFactor="1.13" vaporized="">
        <emissions CO_abs="5706.853243" CO2_abs="445391.804100" HC_abs="36.410484" PMx_abs="7.515712" NOx_abs="177.476410" fuel_abs="191.454681" electricity_abs="0"/>
    </tripinfo>
    <tripinfo id="h645c1:1" depart="57622.00" departLane="266565295#5_1" departPos="5.10" departSpeed="0.00" departDelay="0.40" arrival="57823.00" arrivalLane="-315358244_1" arrivalPos="33.95" arrivalSpeed="10.71" duration="201.00" routeLength="1910.83" waitingTime="16.00" waitingCount="2" stopTime="0.00" timeLoss="36.96" rerouteNo="1" devices="tripinfo_h645c1:1 routing_h645c1:1 emissions_h645c1:1" vType="default_016" speedFactor="0.84" vaporized="">
        <emissions CO_abs="6078.410299" CO2_abs="396192.162448" HC_abs="36.852730" PMx_abs="6.251840" NOx_abs="157.052811" fuel_abs="170.307204" electricity_abs="0"/>
    </tripinfo>
    <tripinfo id="carIn107282:1" depart="57749.00" departLane="-447569998#1_1" departPos="5.10" departSpeed="0.00" departDelay="0.00" arrival="57828.00" arrivalLane="315358242#0_1" arrivalPos="165.37" arrivalSpeed="11.49" duration="79.00" routeLength="448.50" waitingTime="25.00" waitingCount="1" stopTime="0.00" timeLoss="32.46" rerouteNo="1" devices="tripinfo_carIn107282:1 routing_carIn107282:1 emissions_carIn107282:1" vType="default_016" speedFactor="0.91" vaporized="">
        <emissions CO_abs="5420.784428" CO2_abs="164823.034768" HC_abs="28.504846" PMx_abs="3.124779" NOx_abs="69.260123" fuel_abs="70.852465" electricity_abs="0"/>
    </tripinfo>
    <tripinfo id="carIn81046:1" depart="57611.00" departLane="124812856#0_1" departPos="5.10" departSpeed="0.00" departDelay="2.50" arrival="57829.00" arrivalLane="-128361102#1_1" arrivalPos="274.68" arrivalSpeed="11.92" duration="218.00" routeLength="2250.49" waitingTime="15.00" waitingCount="1" stopTime="0.00" timeLoss="41.18" rerouteNo="1" devices="tripinfo_carIn81046:1 routing_carIn81046:1 emissions_carIn81046:1" vType="default_016" speedFactor="0.93" vaporized="">
        <emissions CO_abs="7867.955886" CO2_abs="500916.439946" HC_abs="47.500053" PMx_abs="8.253051" NOx_abs="199.999066" fuel_abs="215.323702" electricity_abs="0"/>
    </tripinfo>
    <tripinfo id="h3864c1:3" depart="57678.00" departLane="24693977#1_1" departPos="5.10" departSpeed="0.00" departDelay="0.00" arrival="57829.00" arrivalLane="201956820_2" arrivalPos="48.33" arrivalSpeed="13.17" duration="151.00" routeLength="1574.85" waitingTime="0.00" waitingCount="0" stopTime="0.00" timeLoss="18.25" rerouteNo="1" devices="tripinfo_h3864c1:3 routing_h3864c1:3 emissions_h3864c1:3" vType="default_016" speedFactor="0.97" vaporized="">
        <emissions CO_abs="5344.663115" CO2_abs="378425.600811" HC_abs="33.121538" PMx_abs="6.016231" NOx_abs="149.866291" fuel_abs="162.669649" electricity_abs="0"/>
    </tripinfo>
    <tripinfo id="h19804c1:3" depart="57617.00" departLane="124812856#0_1" departPos="5.10" departSpeed="0.00" departDelay="1.50" arrival="57831.00" arrivalLane="-128361102#1_1" arrivalPos="274.68" arrivalSpeed="13.43" duration="214.00" routeLength="2250.49" waitingTime="15.00" waitingCount="1" stopTime="0.00" timeLoss="54.40" rerouteNo="1" devices="tripinfo_h19804c1:3 routing_h19804c1:3 emissions_h19804c1:3" vType="default_016" speedFactor="1.03" vaporized="">
        <emissions CO_abs="8719.155105" CO2_abs="550374.128200" HC_abs="52.651107" PMx_abs="9.752801" NOx_abs="224.594689" fuel_abs="236.582533" electricity_abs="0"/>
    </tripinfo>
    <tripinfo id="carIn107842:1" depart="57623.00" departLane="124812856#0_1" departPos="5.10" departSpeed="0.00" departDelay="1.90" arrival="57833.00" arrivalLane="-128361102#1_1" arrivalPos="274.68" arrivalSpeed="13.16" duration="210.00" routeLength="2250.49" waitingTime="12.00" waitingCount="1" stopTime="0.00" timeLoss="41.39" rerouteNo="1" devices="tripinfo_carIn107842:1 routing_carIn107842:1 emissions_carIn107842:1" vType="default_016" speedFactor="0.98" vaporized="">
        <emissions CO_abs="7872.237239" CO2_abs="529636.619918" HC_abs="48.227049" PMx_abs="8.818644" NOx_abs="211.658117" fuel_abs="227.668864" electricity_abs="0"/>