<?xml version="1.0" encoding="UTF-8"?>

<!-- generated on Thu Nov  4 13:37:23 2021 by Eclipse SUMO sumo Version 1.9.0
<configuration xmlns:xsi="http://www.w3.org/2001/XMLSchema-instance" xsi:noNamespaceSchemaLocation="http://sumo.dlr.de/xsd/sumoConfiguration.xsd">

    <input>
        <net-file value="/mainfs/home/bk2g18/RESCO/environments/ingolstadt21/ingolstadt21.net.xml"/>
        <route-files value="/mainfs/home/bk2g18/RESCO/environments/ingolstadt21/ingolstadt21.rou.xml"/>
    </input>

    <output>
        <tripinfo-output value="/mainfs/home/bk2g18/RESCO/logs/MPLight-tr0-ingolstadt21-21-mplight-pressure/tripinfo_44.xml"/>
        <tripinfo-output.write-unfinished value="true"/>
    </output>

    <time>
        <begin value="57600"/>
        <end value="61200"/>
    </time>

    <processing>
        <time-to-teleport value="-1"/>
    </processing>

    <report>
        <xml-validation value="never"/>
        <xml-validation.routes value="never"/>
        <no-warnings value="true"/>
        <no-step-log value="true"/>
    </report>

    <emissions>
        <device.emissions.probability value="1"/>
    </emissions>

    <traci_server>
        <remote-port value="46912"/>
    </traci_server>

    <random_number>
        <random value="true"/>
    </random_number>

</configuration>
-->

<tripinfos xmlns:xsi="http://www.w3.org/2001/XMLSchema-instance" xsi:noNamespaceSchemaLocation="http://sumo.dlr.de/xsd/tripinfo_file.xsd">
    <tripinfo id="h15454c2:3" depart="57612.00" departLane="24608844_1" departPos="5.10" departSpeed="0.00" departDelay="0.50" arrival="57656.00" arrivalLane="32978638#0_1" arrivalPos="49.29" arrivalSpeed="15.83" duration="44.00" routeLength="354.79" waitingTime="3.00" waitingCount="1" stopTime="0.00" timeLoss="14.80" rerouteNo="1" devices="tripinfo_h15454c2:3 routing_h15454c2:3 emissions_h15454c2:3" vType="default_016" speedFactor="1.20" vaporized="">
        <emissions CO_abs="2346.697957" CO2_abs="126138.307873" HC_abs="13.648230" PMx_abs="2.338608" NOx_abs="52.554816" fuel_abs="54.221613" electricity_abs="0"/>
    </tripinfo>
    <tripinfo id="carIn60260:1" depart="57606.00" departLane="315358254#0_1" departPos="5.10" departSpeed="0.00" departDelay="0.90" arrival="57662.00" arrivalLane="399835085#1_1" arrivalPos="212.23" arrivalSpeed="7.21" duration="56.00" routeLength="430.98" waitingTime="0.00" waitingCount="0" stopTime="0.00" timeLoss="7.42" rerouteNo="1" devices="tripinfo_carIn60260:1 routing_carIn60260:1 emissions_carIn60260:1" vType="default_016" speedFactor="0.96" vaporized="">
        <emissions CO_abs="2175.221725" CO2_abs="107605.123879" HC_abs="12.370547" PMx_abs="1.685115" NOx_abs="43.077142" fuel_abs="46.255565" electricity_abs="0"/>
    </tripinfo>
    <tripinfo id="carIn53971:1" depart="57640.00" departLane="272042143_1" departPos="5.10" departSpeed="0.00" departDelay="0.80" arrival="57695.00" arrivalLane="24634414#1_1" arrivalPos="162.19" arrivalSpeed="7.39" duration="55.00" routeLength="493.04" waitingTime="0.00" waitingCount="0" stopTime="0.00" timeLoss="9.68" rerouteNo="1" devices="tripinfo_carIn53971:1 routing_carIn53971:1 emissions_carIn53971:1" vType="default_016" speedFactor="1.01" vaporized="">
        <emissions CO_abs="2373.787085" CO2_abs="138345.643840" HC_abs="14.029358" PMx_abs="2.376551" NOx_abs="56.374150" fuel_abs="59.469161" electricity_abs="0"/>
    </tripinfo>
    <tripinfo id="S5R_frequency1.2" depart="57615.00" departLane="315358250#0_1" departPos="12.10" departSpeed="0.00" departDelay="3.40" arrival="57708.00" arrivalLane="386687235_1" arrivalPos="80.84" arrivalSpeed="13.86" duration="93.00" routeLength="1115.62" waitingTime="0.00" waitingCount="0" stopTime="0.00" timeLoss="11.92" rerouteNo="1" devices="tripinfo_S5R_frequency1.2 routing_S5R_frequency1.2 emissions_S5R_frequency1.2" vType="bus" speedFactor="1.00" vaporized="">
        <emissions CO_abs="1957.366322" CO2_abs="1241267.523454" HC_abs="416.821506" PMx_abs="210.489981" NOx_abs="9584.849325" fuel_abs="529.397086" electricity_abs="0"/>
    </tripinfo>
    <tripinfo id="h7800c1:5" depart="57696.00" departLane="-447569998#1_1" departPos="5.10" departSpeed="0.00" departDelay="0.00" arrival="57722.00" arrivalLane="-447569998#1_1" arrivalPos="180.76" arrivalSpeed="7.79" duration="26.00" routeLength="175.66" waitingTime="0.00" waitingCount="0" stopTime="0.00" timeLoss="3.57" rerouteNo="1" devices="tripinfo_h7800c1:5 routing_h7800c1:5 emissions_h7800c1:5" vType="default_016" speedFactor="0.94" vaporized="">
        <emissions CO_abs="1152.223301" CO2_abs="47597.808208" HC_abs="6.344470" PMx_abs="0.823006" NOx_abs="19.688572" fuel_abs="20.460613" electricity_abs="0"/>
    </tripinfo>
    <tripinfo id="h3688c1:1" depart="57625.00" departLane="201201950#1_1" departPos="5.10" departSpeed="0.00" departDelay="0.00" arrival="57725.00" arrivalLane="32978638#0_1" arrivalPos="49.29" arrivalSpeed="11.72" duration="100.00" routeLength="1089.75" waitingTime="0.00" waitingCount="0" stopTime="0.00" timeLoss="10.18" rerouteNo="1" devices="tripinfo_h3688c1:1 routing_h3688c1:1 emissions_h3688c1:1" vType="default_016" speedFactor="0.89" vaporized="">
        <emissions CO_abs="2867.155407" CO2_abs="229230.594357" HC_abs="18.350810" PMx_abs="3.413157" NOx_abs="89.127532" fuel_abs="98.536887" electricity_abs="0"/>
    </tripinfo>
    <tripinfo id="h4538c1:1" depart="57701.00" departLane="-10427692#1_1" departPos="5.10" departSpeed="0.00" departDelay="0.00" arrival="57740.00" arrivalLane="-128361102#1_1" arrivalPos="274.68" arrivalSpeed="13.66" duration="39.00" routeLength="440.74" waitingTime="0.00" waitingCount="0" stopTime="0.00" timeLoss="6.92" rerouteNo="1" devices="tripinfo_h4538c1:1 routing_h4538c1:1 emissions_h4538c1:1" vType="default_016" speedFactor="1.00" vaporized="">
        <emissions CO_abs="1765.530841" CO2_abs="118566.855892" HC_abs="10.794700" PMx_abs="2.029676" NOx_abs="47.829729" fuel_abs="50.966888" electricity_abs="0"/>
    </tripinfo>
    <tripinfo id="carIn22761:1" depart="57616.00" departLane="-306240162#1_0" departPos="5.10" departSpeed="0.00" departDelay="2.10" arrival="57745.00" arrivalLane="399835085#1_1" arrivalPos="212.23" arrivalSpeed="7.71" duration="129.00" routeLength="1093.26" waitingTime="24.00" waitingCount="2" stopTime="0.00" timeLoss="49.33" rerouteNo="1" devices="tripinfo_carIn22761:1 routing_carIn22761:1 emissions_carIn22761:1" vType="default_016" speedFactor="0.98" vaporized="">
        <emissions CO_abs="7880.734848" CO2_abs="374592.230120" HC_abs="44.686105" PMx_abs="7.266470" NOx_abs="156.145653" fuel_abs="161.022108" electricity_abs="0"/>
    </tripinfo>
    <tripinfo id="h7181c1:1" depart="57660.00" departLane="315358254#0_1" departPos="5.10" departSpeed="0.00" departDelay="0.10" arrival="57745.00" arrivalLane="306240162#0_0" arrivalPos="220.43" arrivalSpeed="18.90" duration="85.00" routeLength="932.35" waitingTime="16.00" waitingCount="2" stopTime="0.00" timeLoss="41.63" rerouteNo="1" devices="tripinfo_h7181c1:1 routing_h7181c1:1 emissions_h7181c1:1" vType="default_016" speedFactor="1.18" vaporized="">
        <emissions CO_abs="6596.905291" CO2_abs="389171.459675" HC_abs="39.456004" PMx_abs="8.147660" NOx_abs="164.793238" fuel_abs="167.287009" electricity_abs="0"/>
    </tripinfo>
    <tripinfo id="carIn80064:1" depart="57603.00" departLane="128361109#1_1" departPos="5.10" departSpeed="0.00" departDelay="0.40" arrival="57749.00" arrivalLane="-315358254#1_1" arrivalPos="137.16" arrivalSpeed="14.39" duration="146.00" routeLength="1587.97" waitingTime="35.00" waitingCount="1" stopTime="0.00" timeLoss="61.32" rerouteNo="1" devices="tripinfo_carIn80064:1 routing_carIn80064:1 emissions_carIn80064:1" vType="default_016" speedFactor="1.05" vaporized="">
        <emissions CO_abs="11715.350507" CO2_abs="556385.210692" HC_abs="66.650973" PMx_abs="11.393890" NOx_abs="233.186770" fuel_abs="239.166965" electricity_abs="0"/>
    </tripinfo>
    <tripinfo id="h317c2:1" depart="57707.00" departLane="-32978638#0_1" departPos="5.10" departSpeed="0.00" departDelay="0.10" arrival="57755.00" arrivalLane="-266565295#5_1" arrivalPos="172.76" arrivalSpeed="14.18" duration="48.00" routeLength="370.53" waitingTime="12.00" waitingCount="1" stopTime="0.00" timeLoss="20.88" rerouteNo="1" devices="tripinfo_h317c2:1 routing_h317c2:1 emissions_h317c2:1" vType="default_016" speedFactor="1.03" vaporized="">
        <emissions CO_abs="3269.294157" CO2_abs="139358.153034" HC_abs="18.194884" PMx_abs="2.814690" NOx_abs="59.429396" fuel_abs="59.904516" electricity_abs="0"/>
    </tripinfo>
    <tripinfo id="h9563c2:5" depart="57631.00" departLane="315358244_1" departPos="5.10" departSpeed="0.00" departDelay="0.70" arrival="57757.00" arrivalLane="386687235_1" arrivalPos="80.84" arrivalSpeed="13.97" duration="126.00" routeLength="1186.14" waitingTime="16.00" waitingCount="4" stopTime="0.00" timeLoss="41.84" rerouteNo="1" devices="tripinfo_h9563c2:5 routing_h9563c2:5 emissions_h9563c2:5" vType="default_016" speedFactor="1.02" vaporized="">
        <emissions CO_abs="4547.317058" CO2_abs="276793.304187" HC_abs="27.148658" PMx_abs="4.807628" NOx_abs="112.084656" fuel_abs="118.982024" electricity_abs="0"/>
    </tripinfo>
    <tripinfo id="h12244c1:3" depart="57612.00" departLane="315358244_1" departPos="5.10" departSpeed="0.00" departDelay="0.40" arrival="57759.00" arrivalLane="386687235_1" arrivalPos="80.84" arrivalSpeed="13.80" duration="147.00" routeLength="1186.14" waitingTime="26.00" waitingCount="5" stopTime="0.00" timeLoss="60.42" rerouteNo="1" devices="tripinfo_h12244c1:3 routing_h12244c1:3 emissions_h12244c1:3" vType="default_016" speedFactor="0.99" vaporized="">
        <emissions CO_abs="6755.632609" CO2_abs="355814.984764" HC_abs="39.075155" PMx_abs="6.264738" NOx_abs="144.977243" fuel_abs="152.950808" electricity_abs="0"/>
    </tripinfo>
    <tripinfo id="carIn121703:1" depart="57647.00" departLane="386687232#0_1" departPos="5.10" departSpeed="0.00" departDelay="0.30" arrival="57765.00" arrivalLane="-315358244_1" arrivalPos="33.95" arrivalSpeed="13.54" duration="118.00" routeLength="1157.39" waitingTime="17.00" waitingCount="2" stopTime="0.00" timeLoss="35.69" rerouteNo="1" devices="tripinfo_carIn121703:1 routing_carIn121703:1 emissions_carIn121703:1" vType="default_016" speedFactor="1.02" vaporized="">
        <emissions CO_abs="4676.475414" CO2_abs="282866.384371" HC_abs="27.883766" PMx_abs="4.876761" NOx_abs="113.916126" fuel_abs="121.592714" electricity_abs="0"/>
    </tripinfo>
    <tripinfo id="h5979c1:5" depart="57669.00" departLane="399835085#1_1" departPos="5.10" departSpeed="0.00" departDelay="0.00" arrival="57767.00" arrivalLane="-315358254#1_1" arrivalPos="137.16" arrivalSpeed="13.87" duration="98.00" routeLength="659.33" waitingTime="7.00" waitingCount="1" stopTime="0.00" timeLoss="25.04" rerouteNo="1" devices="tripinfo_h5979c1:5 routing_h5979c1:5 emissions_h5979c1:5" vType="default_016" speedFactor="1.00" vaporized="">
        <emissions CO_abs="4541.017394" CO2_abs="204811.250597" HC_abs="25.366312" PMx_abs="3.364818" NOx_abs="82.950890" fuel_abs="88.041081" electricity_abs="0"/>
    </tripinfo>
    <tripinfo id="h3568c1:3" depart="57656.00" departLane="266565295#5_1" departPos="5.10" departSpeed="0.00" departDelay="0.80" arrival="57778.00" arrivalLane="-24634415_1" arrivalPos="62.03" arrivalSpeed="11.67" duration="122.00" routeLength="807.40" waitingTime="30.00" waitingCount="2" stopTime="0.00" timeLoss="50.39" rerouteNo="1" devices="tripinfo_h3568c1:3 routing_h3568c1:3 emissions_h3568c1:3" vType="default_016" speedFactor="0.91" vaporized="">
        <emissions CO_abs="8050.679482" CO2_abs="318251.064815" HC_abs="44.113814" PMx_abs="6.030409" NOx_abs="133.493140" fuel_abs="136.804520" electricity_abs="0"/>
    </tripinfo>
    <tripinfo id="h3326c1:2" depart="57656.00" departLane="22716069#0_1" departPos="5.10" departSpeed="0.00" departDelay="0.00" arrival="57779.00" arrivalLane="24634517#13_1" arrivalPos="111.62" arrivalSpeed="11.81" duration="123.00" routeLength="1312.81" waitingTime="0.00" waitingCount="0" stopTime="0.00" timeLoss="15.12" rerouteNo="1" devices="tripinfo_h3326c1:2 routing_h3326c1:2 emissions_h3326c1:2" vType="default_016" speedFactor="0.91" vaporized="">
        <emissions CO_abs="4145.582013" CO2_abs="300100.421651" HC_abs="25.860909" PMx_abs="4.824919" NOx_abs="119.324049" fuel_abs="129.000692" electricity_abs="0"/>
    </tripinfo>
    <tripinfo id="h330c1:1" depart="57736.00" departLane="-32978638#0_1" departPos="5.10" departSpeed="0.00" departDelay="0.20" arrival="57791.00" arrivalLane="-266565295#5_1" arrivalPos="172.76" arrivalSpeed="9.60" duration="55.00" routeLength="370.53" waitingTime="11.00" waitingCount="1" stopTime="0.00" timeLoss="18.77" rerouteNo="1" devices="tripinfo_h330c1:1 routing_h330c1:1 emissions_h330c1:1" vType="default_016" speedFactor="0.76" vaporized="">
        <emissions CO_abs="3086.960851" CO2_abs="120777.214703" HC_abs="16.863834" PMx_abs="2.191251" NOx_abs="50.171940" fuel_abs="51.917879" electricity_abs="0"/>
    </tripinfo>
    <tripinfo id="carIn107282:1" depart="57749.00" departLane="-447569998#1_1" departPos="5.10" departSpeed="0.00" departDelay="0.00" arrival="57794.00" arrivalLane="315358242#0_1" arrivalPos="165.37" arrivalSpeed="12.95" duration="45.00" routeLength="448.50" waitingTime="0.00" waitingCount="0" stopTime="0.00" timeLoss="4.21" rerouteNo="1" devices="tripinfo_carIn107282:1 routing_carIn107282:1 emissions_carIn107282:1" vType="default_016" speedFactor="1.02" vaporized="">
        <emissions CO_abs="1920.441723" CO2_abs="113214.668566" HC_abs="11.383193" PMx_abs="1.917291" NOx_abs="45.915244" fuel_abs="48.666406" electricity_abs="0"/>
    </tripinfo>
    <tripinfo id="h3154c1:1" depart="57658.00" departLane="24634507_1" departPos="5.10" departSpeed="0.00" departDelay="0.00" arrival="57799.00" arrivalLane="-266565295#5_1" arrivalPos="172.76" arrivalSpeed="12.23" duration="141.00" routeLength="1206.22" waitingTime="24.00" waitingCount="1" stopTime="0.00" timeLoss="41.63" rerouteNo="1" devices="tripinfo_h3154c1:1 routing_h3154c1:1 emissions_h3154c1:1" vType="default_016" speedFactor="0.90" vaporized="">
        <emissions CO_abs="7515.249771" CO2_abs="357093.384188" HC_abs="42.522119" PMx_abs="6.113412" NOx_abs="144.504326" fuel_abs="153.501226" electricity_abs="0"/>
    </tripinfo>
    <tripinfo id="carIn27009:1" depart="57673.00" departLane="-447569998#1_1" departPos="5.10" departSpeed="0.00" departDelay="0.50" arrival="57802.00" arrivalLane="-26677539_1" arrivalPos="152.75" arrivalSpeed="6.18" duration="129.00" routeLength="699.63" waitingTime="5.00" waitingCount="1" stopTime="0.00" timeLoss="23.52" rerouteNo="1" devices="tripinfo_carIn27009:1 routing_carIn27009:1 emissions_carIn27009:1" vType="default_015" speedFactor="0.80" vaporized="">
        <emissions CO_abs="5330.305778" CO2_abs="194390.021364" HC_abs="28.697510" PMx_abs="3.178734" NOx_abs="79.444407" fuel_abs="83.562180" electricity_abs="0"/>
    </tripinfo>
    <tripinfo id="carIn129809:1" depart="57729.00" departLane="-447569998#1_1" departPos="5.10" departSpeed="0.00" departDelay="1.00" arrival="57803.00" arrivalLane="-315358244_1" arrivalPos="33.95" arrivalSpeed="14.28" duration="74.00" routeLength="706.49" waitingTime="1.00" waitingCount="1" stopTime="0.00" timeLoss="17.99" rerouteNo="1" devices="tripinfo_carIn129809:1 routing_carIn129809:1 emissions_carIn129809:1" vType="default_015" speedFactor="1.07" vaporized="">
        <emissions CO_abs="3592.208140" CO2_abs="207186.213600" HC_abs="21.210469" PMx_abs="3.702709" NOx_abs="85.164746" fuel_abs="89.060752" electricity_abs="0"/>
    </tripinfo>
    <tripinfo id="carIn86816:1" depart="57617.00" departLane="128361102#0_1" departPos="5.10" departSpeed="0.00" departDelay="0.80" arrival="57812.00" arrivalLane="201956811#0_1" arrivalPos="40.40" arrivalSpeed="12.11" duration="195.00" routeLength="2067.33" waitingTime="5.00" waitingCount="1" stopTime="0.00" timeLoss="30.35" rerouteNo="1" devices="tripinfo_carIn86816:1 routing_carIn86816:1 emissions_carIn86816:1" vType="default_016" speedFactor="0.92" vaporized="">
        <emissions CO_abs="5962.075270" CO2_abs="456837.928411" HC_abs="37.754612" PMx_abs="7.117074" NOx_abs="179.646115" fuel_abs="196.375733" electricity_abs="0"/>
    </tripinfo>
    <tripinfo id="carIn48184:1" depart="57613.00" departLane="-306240162#1_0" departPos="5.10" departSpeed="0.00" departDelay="0.70" arrival="57813.00" arrivalLane="386687235_1" arrivalPos="80.84" arrivalSpeed="14.90" duration="200.00" routeLength="2257.41" waitingTime="24.00" waitingCount="4" stopTime="0.00" timeLoss="68.47" rerouteNo="1" devices="tripinfo_carIn48184:1 routing_carIn48184:1 emissions_carIn48184:1" vType="default_016" speedFactor="1.14" vaporized="">
        <emissions CO_abs="10380.358772" CO2_abs="643182.654868" HC_abs="62.341138" PMx_abs="12.308706" NOx_abs="264.482799" fuel_abs="276.476110" electricity_abs="0"/>
    </tripinfo>
    <tripinfo id="carIn82220:1" depart="57619.00" departLane="-306240162#1_0" departPos="5.10" departSpeed="0.00" departDelay="3.50" arrival="57813.00" arrivalLane="386687235_2" arrivalPos="80.84" arrivalSpeed="12.63" duration="194.00" routeLength="2257.41" waitingTime="8.00" waitingCount="1" stopTime="0.00" timeLoss="39.72" rerouteNo="1" devices="tripinfo_carIn82220:1 routing_carIn82220:1 emissions_carIn82220:1" vType="default_016" speedFactor="0.96" vaporized="">
        <emissions CO_abs="7664.410676" CO2_abs="542130.607912" HC_abs="47.635840" PMx_abs="9.438318" NOx_abs="218.582483" fuel_abs="233.038615" electricity_abs="0"/>
    </tripinfo>
    <tripinfo id="carIn102915:1" depart="57643.00" departLane="128361102#0_1" departPos="5.10" departSpeed="0.00" departDelay="0.40" arrival="57814.00" arrivalLane="201956811#0_1" arrivalPos="40.40" arrivalSpeed="14.11" duration="171.00" routeLength="2067.33" waitingTime="3.00" waitingCount="1" stopTime="0.00" timeLoss="27.75" rerouteNo="1" devices="tripinfo_carIn102915:1 routing_carIn102915:1 emissions_carIn102915:1" vType="default_016" speedFactor="1.06" vaporized="">
        <emissions CO_abs="5554.188631" CO2_abs="448066.462474" HC_abs="35.653848" PMx_abs="7.413142" NOx_abs="177.474280" fuel_abs="192.604459" electricity_abs="0"/>
    </tripinfo>
    <tripinfo id="h16072c2:3" depart="57663.00" departLane="315358254#0_1" departPos="5.10" departSpeed="0.00" departDelay="2.50" arrival="57815.00" arrivalLane="386687235_1" arrivalPos="80.84" arrivalSpeed="12.59" duration="152.00" routeLength="1611.92" waitingTime="6.00" waitingCount="2" stopTime="0.00" timeLoss="26.10" rerouteNo="1" devices="tripinfo_h16072c2:3 routing_h16072c2:3 emissions_h16072c2:3" vType="default_016" speedFactor="0.93" vaporized="">
        <emissions CO_abs="4844.657422" CO2_abs="345491.431931" HC_abs="30.108300" PMx_abs="5.572909" NOx_abs="137.060035" fuel_abs="148.512478" electricity_abs="0"/>
    </tripinfo>
    <tripinfo id="h19804c1:3" depart="57617.00" departLane="124812856#0_1" departPos="5.10" departSpeed="0.00" departDelay="1.50" arrival="57817.00" arrivalLane="-128361102#1_1" arrivalPos="274.68" arrivalSpeed="15.04" duration="200.00" routeLength="2232.46" waitingTime="22.00" waitingCount="2" stopTime="0.00" timeLoss="57.19" rerouteNo="1" devices="tripinfo_h19804c1:3 routing_h19804c1:3 emissions_h19804c1:3" vType="default_016" speedFactor="1.15" vaporized="">
        <emissions CO_abs="9278.719639" CO2_abs="577805.627759" HC_abs="55.606406" PMx_abs="10.477641" NOx_abs="234.989306" fuel_abs="248.374100" electricity_abs="0"/>
    </tripinfo>
    <tripinfo id="randUni33724:1" depart="57646.00" departLane="128361102#0_1" departPos="5.10" departSpeed="0.00" departDelay="1.20" arrival="57817.00" arrivalLane="201956811#0_1" arrivalPos="40.40" arrivalSpeed="14.86" duration="171.00" routeLength="2067.33" waitingTime="1.00" waitingCount="1" stopTime="0.00" timeLoss="48.85" rerouteNo="1" devices="tripinfo_randUni33724:1 routing_randUni33724:1 emissions_randUni33724:1" vType="random_016" speedFactor="1.23" vaporized="">
        <emissions CO_abs="7479.027173" CO2_abs="529399.059710" HC_abs="46.517088" PMx_abs="9.584996" NOx_abs="216.040480" fuel_abs="227.565273" electricity_abs="0"/>
    </tripinfo>
    <tripinfo id="carIn85747:1" depart="57673.00" departLane="128361109#1_1" departPos="5.10" departSpeed="0.00" departDelay="0.70" arrival="57817.00" arrivalLane="386687235_1" arrivalPos="80.84" arrivalSpeed="15.19" duration="144.00" routeLength="2088.57" waitingTime="0.00" waitingCount="0" stopTime="0.00" timeLoss="10.74" rerouteNo="1" devices="tripinfo_carIn85747:1 routing_carIn85747:1 emissions_carIn85747:1" vType="default_016" speedFactor="1.13" vaporized="">
        <emissions CO_abs="3176.012414" CO2_abs="355783.318988" HC_abs="22.384536" PMx_abs="5.507308" NOx_abs="136.039371" fuel_abs="152.935632" electricity_abs="0"/>
    </tripinfo>
    <tripinfo id="carIn12365:1" depart="57713.00" departLane="315358244_1" departPos="5.10" departSpeed="0.00" departDelay="0.50" arrival="57819.00" arrivalLane="447569997#1_2" arrivalPos="180.93" arrivalSpeed="9.06" duration="106.00" routeLength="718.04" waitingTime="33.00" waitingCount="2" stopTime="0.00" timeLoss="53.68" rerouteNo="1" devices="tripinfo_carIn12365:1 routing_carIn12365:1 emissions_carIn12365:1" vType="default_016" speedFactor="1.17" vaporized="">
        <emissions CO_abs="7218.489360" CO2_abs="260135.787236" HC_abs="38.963273" PMx_abs="5.073769" NOx_abs="109.303775" fuel_abs="111.823282" electricity_abs="0"/>
    </tripinfo>
    <tripinfo id="carIn81860:1" depart="57712.00" departLane="128361102#0_1" departPos="5.10" departSpeed="0.00" departDelay="0.60" arrival="57822.00" arrivalLane="-24634517#17_1" arrivalPos="6.43" arrivalSpeed="7.65" duration="110.00" routeLength="1229.64" waitingTime="3.00" waitingCount="1" stopTime="0.00" timeLoss="20.66" rerouteNo="1" devices="tripinfo_carIn81860:1 routing_carIn81860:1 emissions_carIn81860:1" vType="default_016" speedFactor="1.01" vaporized="">
        <emissions CO_abs="3689.616881" CO2_abs="269873.656603" HC_abs="23.101324" PMx_abs="4.497130" NOx_abs="107.739447" fuel_abs="116.007245" electricity_abs="0"/>
    </tripinfo>
    <tripinfo id="carIn30817:1" depart="57681.00" departLane="315358244_1" departPos="5.10" departSpeed="0.00" departDelay="0.20" arrival="57823.00" arrivalLane="447569997#1_1" arrivalPos="180.93" arrivalSpeed="6.82" duration="142.00" routeLength="718.04" waitingTime="59.00" waitingCount="2" stopTime="0.00" timeLoss="76.06" rerouteNo="1" devices="tripinfo_carIn30817:1 routing_carIn30817:1 emissions_carIn30817:1" vType="default_016" speedFactor="0.94" vaporized="">
        <emissions CO_abs="11464.379389" CO2_abs="320828.429424" HC_abs="59.704645" PMx_abs="6.527782" NOx_abs="137.334854" fuel_abs="137.914630" electricity_abs="0"/>
    </tripinfo>
    <tripinfo id="randUni14624:1" depart="57606.00" departLane="315358244_1" departPos="5.10" departSpeed="0.00" departDelay="0.80" arrival="57826.00" arrivalLane="-25149001#4_1" arrivalPos="105.67" arrivalSpeed="8.69" duration="220.00" routeLength="2803.98" waitingTime="8.00" waitingCount="2" stopTime="0.00" timeLoss="34.68" rerouteNo="1" devices="tripinfo_randUni14624:1 routing_randUni14624:1 emissions_randUni14624:1" vType="random_016" speedFactor="1.13" vaporized="">
        <emissions CO_abs="6273.047164" CO2_abs="560118.594715" HC_abs="41.218749" PMx_abs="9.067472" NOx_abs="218.658173" fuel_abs="240.770713" electricity_abs="0"/>
    </tripinfo>
    <tripinfo id="carIn50326:1" depart="57651.00" departLane="128361102#0_1" departPos="5.10" departSpeed="0.00" departDelay="0.30" arrival="57830.00" arrivalLane="18809673#0_1" arrivalPos="473.56" arrivalSpeed="14.20" duration="179.00" routeLength="1591.07" waitingTime="34.00" waitingCount="2" stopTime="0.00" timeLoss="56.59" rerouteNo="1" devices="tripinfo_carIn50326:1 routing_carIn50326:1 emissions_carIn50326:1" vType="default_016" speedFactor="1.06" vaporized="">
        <emissions CO_abs="9282.627901" CO2_abs="441679.689606" HC_abs="52.517988" PMx_abs="7.968173" NOx_abs="180.974719" fuel_abs="189.861135" electricity_abs="0"/>
    </tripinfo>
    <tripinfo id="carIn100288:1" depart="57664.00" departLane="128361102#0_1" departPos="5.10" departSpeed="0.00" departDelay="0.60" arrival="57830.00" arrivalLane="201956811#0_1" arrivalPos="40.40" arrivalSpeed="14.07" duration="166.00" routeLength="2067.33" waitingTime="0.00" waitingCount="0" stopTime="0.00" timeLoss="22.67" rerouteNo="1" devices="tripinfo_carIn100288:1 routing_carIn100288:1 emissions_carIn100288:1" vType="default_016" speedFactor="1.05" vaporized="">
        <emissions CO_abs="5378.587161" CO2_abs="450550.305733" HC_abs="35.040156" PMx_abs="7.493024" NOx_abs="178.678617" fuel_abs="193.671945" electricity_abs="0"/>
    </tripinfo>
    <tripinfo id="carIn12858:1" depart="57661.00" departLane="128361109#1_1" departPos="5.10" departSpeed="0.00" departDelay="0.90" arrival="57833.00" arrivalLane="399835085#1_1" arrivalPos="212.23" arrivalSpeed="8.52" duration="172.00" routeLength="1738.12" waitingTime="32.00" waitingCount="1" stopTime="0.00" timeLoss="59.82" rerouteNo="1" devices="tripinfo_carIn12858:1 routing_carIn12858:1 emissions_carIn12858:1" vType="default_016" speedFactor="1.03" vaporized="">
        <emissions CO_abs="12173.789883" CO2_abs="575247.252999" HC_abs="69.151608" PMx_abs="11.450939" NOx_abs="239.818094" fuel_abs="247.275450" electricity_abs="0"/>
    </tripinfo>
    <tripinfo id="50R_frequency3.17" depart="57674.00" departLane="-18809673#6_1" departPos="12.10" departSpeed="0.00" departDelay="0.70" arrival="57835.00" arrivalLane="201956811#0_1" arrivalPos="40.40" arrivalSpeed="12.55" duration="161.00" routeLength="1954.47" waitingTime="0.00" waitingCount="0" stopTime="0.00" timeLoss="16.67" rerouteNo="1" devices="tripinfo_50R_frequency3.17 routing_50R_frequency3.17 emissions_50R_frequency3.17" vType="bus" speedFactor="1.00" vaporized="">
        <emissions CO_abs="3083.364472" CO2_abs="1964426.744957" HC_abs="659.033192" PMx_abs="331.974009" NOx_abs="15140.923329" fuel_abs="837.828567" electricity_abs="0"/>
    </tripinfo>
    <tripinfo id="carIn82278:1" depart="57702.00" departLane="-306240162#1_0" departPos="5.10" departSpeed="0.00" departDelay="0.70" arrival="57835.00" arrivalLane="399835085#1_1" arrivalPos="212.23" arrivalSpeed="9.35" duration="133.00" routeLength="1093.26" waitingTime="18.00" waitingCount="3" stopTime="0.00" timeLoss="64.93" rerouteNo="1" devices="tripinfo_carIn82278:1 routing_carIn82278:1 emissions_carIn82278:1" vType="default_016" speedFactor="1.15" vaporized="">
        <emissions CO_abs="8175.218621" CO2_abs="416100.289579" HC_abs="47.048205" PMx_abs="8.204454" NOx_abs="175.159334" fuel_abs="178.863967" electricity_abs="0"/>
    </tripinfo>
    <tripinfo id="h17600c1:1" depart="57662.00" departLane="272042143_1" departPos="5.10" departSpeed="0.00" departDelay="0.30" arrival="57838.00" arrivalLane="201238729#3_1" arrivalPos="431.02" arrivalSpeed="14.71" duration="176.00" routeLength="2100.26" waitingTime="18.00" waitingCount="1" stopTime="0.00" timeLoss="34.11" rerouteNo="1" devices="tripinfo_h17600c1:1 routing_h17600c1:1 emissions_h17600c1:1" vType="default_016" speedFactor="1.07" vaporized="">
        <emissions CO_abs="5827.155150" CO2_abs="416342.705382" HC_abs="36.130119" PMx_abs="6.779373" NOx_abs="163.107242" fuel_abs="178.968633" electricity_abs="0"/>
    </tripinfo>
    <tripinfo id="randUni15030:1" depart="57735.00" departLane="386687232#0_1" departPos="5.10" departSpeed="0.00" departDelay="0.10" arrival="57844.00" arrivalLane="26677539_1" arrivalPos="151.98" arrivalSpeed="7.24" duration="109.00" routeLength="919.89" waitingTime="5.00" waitingCount="1" stopTime="0.00" timeLoss="25.02" rerouteNo="1" devices="tripinfo_randUni15030:1 routing_randUni15030:1 emissions_randUni15030:1" vType="random_016" speedFactor="0.99" vaporized="">
        <emissions CO_abs="4558.248224" CO2_abs="242818.656006" HC_abs="26.377840" PMx_abs="4.088814" NOx_abs="98.309901" fuel_abs="104.378328" electricity_abs="0"/>
    </tripinfo>
    <tripinfo id="carIn28951:1" depart="57606.00" departLane="10425609#0_1" departPos="5.10" departSpeed="0.00" departDelay="0.20" arrival="57845.00" arrivalLane="-128361102#1_1" arrivalPos="274.68" arrivalSpeed="14.29" duration="239.00" routeLength="2113.04" waitingTime="53.00" waitingCount="4" stopTime="0.00" timeLoss="91.90" rerouteNo="1" devices="tripinfo_carIn28951:1 routing_carIn28951:1 emissions_carIn28951:1" vType="default_016" speedFactor="1.05" vaporized="">
        <emissions CO_abs="12911.043488" CO2_abs="616592.287210" HC_abs="73.182970" PMx_abs="11.330845" NOx_abs="253.220373" fuel_abs="265.049071" electricity_abs="0"/>
    </tripinfo>
    <tripinfo id="carIn126288:1" depart="57674.00" departLane="272042143_1" departPos="5.10" departSpeed="0.00" departDelay="0.00" arrival="57846.00" arrivalLane="-315358254#1_1" arrivalPos="137.16" arrivalSpeed="15.11" duration="172.00" routeLength="1596.88" waitingTime="45.00" waitingCount="2" stopTime="0.00" timeLoss="66.56" rerouteNo="1" devices="tripinfo_carIn126288:1 routing_carIn126288:1 emissions_carIn126288:1" vType="default_016" speedFactor="1.11" vaporized="">
        <emissions CO_abs="9962.709281" CO2_abs="447379.488625" HC_abs="55.703141" PMx_abs="8.298177" NOx_abs="183.454650" fuel_abs="192.311513" electricity_abs="0"/>
    </tripinfo>
    <tripinfo id="h20540c1:1" depart="57634.00" departLane="10425609#0_1" departPos="5.10" departSpeed="0.00" departDelay="0.50" arrival="57847.00" arrivalLane="-128361102#1_1" arrivalPos="274.68" arrivalSpeed="15.01" duration="213.00" routeLength="2113.04" waitingTime="33.00" waitingCount="3" stopTime="0.00" timeLoss="76.48" rerouteNo="1" devices="tripinfo_h20540c1:1 routing_h20540c1:1 emissions_h20540c1:1" vType="default_016" speedFactor="1.14" vaporized="">