<?xml version="1.0" encoding="UTF-8"?>

<!-- generated on Thu Nov  4 13:58:33 2021 by Eclipse SUMO sumo Version 1.9.0
<configuration xmlns:xsi="http://www.w3.org/2001/XMLSchema-instance" xsi:noNamespaceSchemaLocation="http://sumo.dlr.de/xsd/sumoConfiguration.xsd">

    <input>
        <net-file value="/mainfs/home/bk2g18/RESCO/environments/ingolstadt21/ingolstadt21.net.xml"/>
        <route-files value="/mainfs/home/bk2g18/RESCO/environments/ingolstadt21/ingolstadt21.rou.xml"/>
    </input>

    <output>
        <tripinfo-output value="/mainfs/home/bk2g18/RESCO/logs/MPLight-tr0-ingolstadt21-21-mplight-pressure/tripinfo_83.xml"/>
        <tripinfo-output.write-unfinished value="true"/>
    </output>

    <time>
        <begin value="57600"/>
        <end value="61200"/>
    </time>

    <processing>
        <time-to-teleport value="-1"/>
    </processing>

    <report>
        <xml-validation value="never"/>
        <xml-validation.routes value="never"/>
        <no-warnings value="true"/>
        <no-step-log value="true"/>
    </report>

    <emissions>
        <device.emissions.probability value="1"/>
    </emissions>

    <traci_server>
        <remote-port value="45013"/>
    </traci_server>

    <random_number>
        <random value="true"/>
    </random_number>

</configuration>
-->

<tripinfos xmlns:xsi="http://www.w3.org/2001/XMLSchema-instance" xsi:noNamespaceSchemaLocation="http://sumo.dlr.de/xsd/tripinfo_file.xsd">
    <tripinfo id="carIn60260:1" depart="57606.00" departLane="315358254#0_1" departPos="5.10" departSpeed="0.00" departDelay="0.90" arrival="57654.00" arrivalLane="399835085#1_1" arrivalPos="212.23" arrivalSpeed="8.80" duration="48.00" routeLength="430.98" waitingTime="0.00" waitingCount="0" stopTime="0.00" timeLoss="6.90" rerouteNo="1" devices="tripinfo_carIn60260:1 routing_carIn60260:1 emissions_carIn60260:1" vType="default_016" speedFactor="1.14" vaporized="">
        <emissions CO_abs="1994.678309" CO2_abs="113486.417842" HC_abs="11.717813" PMx_abs="1.902094" NOx_abs="46.058029" fuel_abs="48.783293" electricity_abs="0"/>
    </tripinfo>
    <tripinfo id="h15454c2:3" depart="57612.00" departLane="24608844_1" departPos="5.10" departSpeed="0.00" departDelay="0.50" arrival="57655.00" arrivalLane="32978638#0_1" arrivalPos="49.29" arrivalSpeed="12.66" duration="43.00" routeLength="354.79" waitingTime="0.00" waitingCount="0" stopTime="0.00" timeLoss="6.96" rerouteNo="1" devices="tripinfo_h15454c2:3 routing_h15454c2:3 emissions_h15454c2:3" vType="default_016" speedFactor="0.96" vaporized="">
        <emissions CO_abs="2119.287830" CO2_abs="111491.072581" HC_abs="12.238718" PMx_abs="1.894825" NOx_abs="45.529157" fuel_abs="47.925659" electricity_abs="0"/>
    </tripinfo>
    <tripinfo id="carIn53971:1" depart="57640.00" departLane="272042143_1" departPos="5.10" departSpeed="0.00" departDelay="0.80" arrival="57695.00" arrivalLane="24634414#1_1" arrivalPos="162.19" arrivalSpeed="7.36" duration="55.00" routeLength="493.04" waitingTime="0.00" waitingCount="0" stopTime="0.00" timeLoss="9.05" rerouteNo="1" devices="tripinfo_carIn53971:1 routing_carIn53971:1 emissions_carIn53971:1" vType="default_016" speedFactor="0.99" vaporized="">
        <emissions CO_abs="2406.798099" CO2_abs="134595.274156" HC_abs="14.094513" PMx_abs="2.305610" NOx_abs="54.944875" fuel_abs="57.857110" electricity_abs="0"/>
    </tripinfo>
    <tripinfo id="h12244c1:3" depart="57612.00" departLane="315358244_1" departPos="5.10" departSpeed="0.00" departDelay="0.40" arrival="57716.00" arrivalLane="386687235_1" arrivalPos="80.84" arrivalSpeed="14.95" duration="104.00" routeLength="1186.14" waitingTime="14.00" waitingCount="1" stopTime="0.00" timeLoss="27.10" rerouteNo="1" devices="tripinfo_h12244c1:3 routing_h12244c1:3 emissions_h12244c1:3" vType="default_016" speedFactor="1.12" vaporized="">
        <emissions CO_abs="4224.501046" CO2_abs="268331.056881" HC_abs="25.398851" PMx_abs="4.622394" NOx_abs="107.059403" fuel_abs="115.344476" electricity_abs="0"/>
    </tripinfo>
    <tripinfo id="carIn22761:1" depart="57616.00" departLane="-306240162#1_0" departPos="5.10" departSpeed="0.00" departDelay="2.10" arrival="57720.00" arrivalLane="399835085#1_1" arrivalPos="212.23" arrivalSpeed="7.97" duration="104.00" routeLength="1093.26" waitingTime="11.00" waitingCount="1" stopTime="0.00" timeLoss="32.68" rerouteNo="1" devices="tripinfo_carIn22761:1 routing_carIn22761:1 emissions_carIn22761:1" vType="default_016" speedFactor="1.09" vaporized="">
        <emissions CO_abs="5702.119237" CO2_abs="312172.212833" HC_abs="33.286800" PMx_abs="5.991619" NOx_abs="128.864845" fuel_abs="134.189696" electricity_abs="0"/>
    </tripinfo>
    <tripinfo id="h7800c1:5" depart="57696.00" departLane="-447569998#1_1" departPos="5.10" departSpeed="0.00" departDelay="0.00" arrival="57725.00" arrivalLane="-447569998#1_2" arrivalPos="180.76" arrivalSpeed="6.27" duration="29.00" routeLength="175.66" waitingTime="0.00" waitingCount="0" stopTime="0.00" timeLoss="6.16" rerouteNo="1" devices="tripinfo_h7800c1:5 routing_h7800c1:5 emissions_h7800c1:5" vType="default_016" speedFactor="0.95" vaporized="">
        <emissions CO_abs="1380.688878" CO2_abs="51471.930354" HC_abs="7.470664" PMx_abs="0.895113" NOx_abs="21.347111" fuel_abs="22.126066" electricity_abs="0"/>
    </tripinfo>
    <tripinfo id="h7181c1:1" depart="57660.00" departLane="315358254#0_1" departPos="5.10" departSpeed="0.00" departDelay="0.10" arrival="57731.00" arrivalLane="306240162#0_0" arrivalPos="220.43" arrivalSpeed="15.37" duration="71.00" routeLength="932.35" waitingTime="6.00" waitingCount="1" stopTime="0.00" timeLoss="18.62" rerouteNo="1" devices="tripinfo_h7181c1:1 routing_h7181c1:1 emissions_h7181c1:1" vType="default_016" speedFactor="0.98" vaporized="">
        <emissions CO_abs="3264.109541" CO2_abs="232064.446762" HC_abs="20.357690" PMx_abs="4.355522" NOx_abs="94.110278" fuel_abs="99.754169" electricity_abs="0"/>
    </tripinfo>
    <tripinfo id="h3688c1:1" depart="57625.00" departLane="201201950#1_1" departPos="5.10" departSpeed="0.00" departDelay="0.00" arrival="57733.00" arrivalLane="32978638#0_1" arrivalPos="49.29" arrivalSpeed="12.39" duration="108.00" routeLength="1089.75" waitingTime="7.00" waitingCount="1" stopTime="0.00" timeLoss="22.45" rerouteNo="1" devices="tripinfo_h3688c1:1 routing_h3688c1:1 emissions_h3688c1:1" vType="default_016" speedFactor="0.93" vaporized="">
        <emissions CO_abs="4031.854969" CO2_abs="254683.837310" HC_abs="24.321070" PMx_abs="4.371214" NOx_abs="103.228924" fuel_abs="109.477990" electricity_abs="0"/>
    </tripinfo>
    <tripinfo id="h4538c1:1" depart="57701.00" departLane="-10427692#1_1" departPos="5.10" departSpeed="0.00" departDelay="0.00" arrival="57739.00" arrivalLane="-128361102#1_1" arrivalPos="274.68" arrivalSpeed="13.70" duration="38.00" routeLength="440.74" waitingTime="0.00" waitingCount="0" stopTime="0.00" timeLoss="6.74" rerouteNo="1" devices="tripinfo_h4538c1:1 routing_h4538c1:1 emissions_h4538c1:1" vType="default_016" speedFactor="1.01" vaporized="">
        <emissions CO_abs="1466.885457" CO2_abs="103147.834241" HC_abs="9.086166" PMx_abs="1.703681" NOx_abs="41.133354" fuel_abs="44.338949" electricity_abs="0"/>
    </tripinfo>
    <tripinfo id="carIn80064:1" depart="57603.00" departLane="128361109#1_1" departPos="5.10" departSpeed="0.00" departDelay="0.40" arrival="57741.00" arrivalLane="-315358254#1_1" arrivalPos="137.16" arrivalSpeed="13.64" duration="138.00" routeLength="1587.97" waitingTime="19.00" waitingCount="1" stopTime="0.00" timeLoss="49.97" rerouteNo="1" devices="tripinfo_carIn80064:1 routing_carIn80064:1 emissions_carIn80064:1" vType="default_016" speedFactor="1.01" vaporized="">
        <emissions CO_abs="8623.600260" CO2_abs="489994.581589" HC_abs="50.972836" PMx_abs="9.642512" NOx_abs="202.971875" fuel_abs="210.627520" electricity_abs="0"/>
    </tripinfo>
    <tripinfo id="S5R_frequency1.2" depart="57615.00" departLane="315358250#0_1" departPos="12.10" departSpeed="0.00" departDelay="3.40" arrival="57742.00" arrivalLane="386687235_1" arrivalPos="80.84" arrivalSpeed="13.20" duration="127.00" routeLength="1115.62" waitingTime="20.00" waitingCount="2" stopTime="0.00" timeLoss="46.08" rerouteNo="1" devices="tripinfo_S5R_frequency1.2 routing_S5R_frequency1.2 emissions_S5R_frequency1.2" vType="bus" speedFactor="1.00" vaporized="">
        <emissions CO_abs="2415.890523" CO2_abs="1363902.285836" HC_abs="524.424444" PMx_abs="255.990531" NOx_abs="10981.458087" fuel_abs="581.645420" electricity_abs="0"/>
    </tripinfo>
    <tripinfo id="h5979c1:5" depart="57669.00" departLane="399835085#1_1" departPos="5.10" departSpeed="0.00" departDelay="0.00" arrival="57746.00" arrivalLane="-315358254#1_1" arrivalPos="137.16" arrivalSpeed="16.57" duration="77.00" routeLength="659.33" waitingTime="0.00" waitingCount="0" stopTime="0.00" timeLoss="16.96" rerouteNo="1" devices="tripinfo_h5979c1:5 routing_h5979c1:5 emissions_h5979c1:5" vType="default_016" speedFactor="1.23" vaporized="">
        <emissions CO_abs="3529.625385" CO2_abs="194866.669054" HC_abs="20.563928" PMx_abs="3.346562" NOx_abs="79.540734" fuel_abs="83.765388" electricity_abs="0"/>
    </tripinfo>
    <tripinfo id="h317c2:1" depart="57707.00" departLane="-32978638#0_1" departPos="5.10" departSpeed="0.00" departDelay="0.10" arrival="57753.00" arrivalLane="-266565295#5_1" arrivalPos="172.76" arrivalSpeed="15.48" duration="46.00" routeLength="370.53" waitingTime="11.00" waitingCount="1" stopTime="0.00" timeLoss="21.61" rerouteNo="1" devices="tripinfo_h317c2:1 routing_h317c2:1 emissions_h317c2:1" vType="default_016" speedFactor="1.12" vaporized="">
        <emissions CO_abs="3361.376359" CO2_abs="145061.924308" HC_abs="18.745757" PMx_abs="2.891091" NOx_abs="61.453010" fuel_abs="62.356380" electricity_abs="0"/>
    </tripinfo>
    <tripinfo id="carIn121703:1" depart="57647.00" departLane="386687232#0_1" departPos="5.10" departSpeed="0.00" departDelay="0.30" arrival="57759.00" arrivalLane="-315358244_1" arrivalPos="33.95" arrivalSpeed="12.71" duration="112.00" routeLength="1157.39" waitingTime="13.00" waitingCount="1" stopTime="0.00" timeLoss="26.27" rerouteNo="1" devices="tripinfo_carIn121703:1 routing_carIn121703:1 emissions_carIn121703:1" vType="default_016" speedFactor="0.99" vaporized="">
        <emissions CO_abs="4171.779573" CO2_abs="245283.720187" HC_abs="24.706997" PMx_abs="4.039315" NOx_abs="97.422282" fuel_abs="105.437871" electricity_abs="0"/>
    </tripinfo>
    <tripinfo id="h3568c1:3" depart="57656.00" departLane="266565295#5_1" departPos="5.10" departSpeed="0.00" departDelay="0.80" arrival="57764.00" arrivalLane="-24634415_1" arrivalPos="62.03" arrivalSpeed="10.59" duration="108.00" routeLength="807.40" waitingTime="8.00" waitingCount="1" stopTime="0.00" timeLoss="26.00" rerouteNo="1" devices="tripinfo_h3568c1:3 routing_h3568c1:3 emissions_h3568c1:3" vType="default_016" speedFactor="0.79" vaporized="">
        <emissions CO_abs="5067.741435" CO2_abs="229233.448536" HC_abs="28.378322" PMx_abs="3.907742" NOx_abs="93.715065" fuel_abs="98.539096" electricity_abs="0"/>
    </tripinfo>
    <tripinfo id="h3326c1:2" depart="57656.00" departLane="22716069#0_1" departPos="5.10" departSpeed="0.00" departDelay="0.00" arrival="57766.00" arrivalLane="24634517#13_1" arrivalPos="111.62" arrivalSpeed="13.51" duration="110.00" routeLength="1312.81" waitingTime="0.00" waitingCount="0" stopTime="0.00" timeLoss="15.53" rerouteNo="1" devices="tripinfo_h3326c1:2 routing_h3326c1:2 emissions_h3326c1:2" vType="default_016" speedFactor="1.04" vaporized="">
        <emissions CO_abs="4121.508960" CO2_abs="316578.685266" HC_abs="26.205805" PMx_abs="5.366640" NOx_abs="126.859868" fuel_abs="136.083457" electricity_abs="0"/>
    </tripinfo>
    <tripinfo id="carIn12365:1" depart="57713.00" departLane="315358244_1" departPos="5.10" departSpeed="0.00" departDelay="0.50" arrival="57773.00" arrivalLane="447569997#1_2" arrivalPos="180.93" arrivalSpeed="8.66" duration="60.00" routeLength="718.04" waitingTime="0.00" waitingCount="0" stopTime="0.00" timeLoss="7.47" rerouteNo="1" devices="tripinfo_carIn12365:1 routing_carIn12365:1 emissions_carIn12365:1" vType="default_016" speedFactor="1.17" vaporized="">
        <emissions CO_abs="2028.572720" CO2_abs="148751.128055" HC_abs="12.631235" PMx_abs="2.446155" NOx_abs="58.883712" fuel_abs="63.941866" electricity_abs="0"/>
    </tripinfo>
    <tripinfo id="carIn30817:1" depart="57681.00" departLane="315358244_1" departPos="5.10" departSpeed="0.00" departDelay="0.20" arrival="57775.00" arrivalLane="447569997#1_1" arrivalPos="180.93" arrivalSpeed="6.43" duration="94.00" routeLength="718.04" waitingTime="11.00" waitingCount="1" stopTime="0.00" timeLoss="23.19" rerouteNo="1" devices="tripinfo_carIn30817:1 routing_carIn30817:1 emissions_carIn30817:1" vType="default_016" speedFactor="0.87" vaporized="">
        <emissions CO_abs="3886.562128" CO2_abs="175427.386755" HC_abs="21.732948" PMx_abs="2.849382" NOx_abs="70.462721" fuel_abs="75.410092" electricity_abs="0"/>
    </tripinfo>
    <tripinfo id="h9563c2:5" depart="57631.00" departLane="315358244_1" departPos="5.10" departSpeed="0.00" departDelay="0.70" arrival="57777.00" arrivalLane="386687235_1" arrivalPos="80.84" arrivalSpeed="13.12" duration="146.00" routeLength="1186.14" waitingTime="41.00" waitingCount="2" stopTime="0.00" timeLoss="62.49" rerouteNo="1" devices="tripinfo_h9563c2:5 routing_h9563c2:5 emissions_h9563c2:5" vType="default_016" speedFactor="1.03" vaporized="">
        <emissions CO_abs="8532.863793" CO2_abs="335637.145708" HC_abs="46.673158" PMx_abs="6.226894" NOx_abs="138.216946" fuel_abs="144.278572" electricity_abs="0"/>
    </tripinfo>
    <tripinfo id="h330c1:1" depart="57736.00" departLane="-32978638#0_1" departPos="5.10" departSpeed="0.00" departDelay="0.20" arrival="57779.00" arrivalLane="-266565295#5_1" arrivalPos="172.76" arrivalSpeed="11.22" duration="43.00" routeLength="370.53" waitingTime="2.00" waitingCount="1" stopTime="0.00" timeLoss="9.67" rerouteNo="1" devices="tripinfo_h330c1:1 routing_h330c1:1 emissions_h330c1:1" vType="default_016" speedFactor="0.81" vaporized="">
        <emissions CO_abs="2042.143062" CO2_abs="109982.830922" HC_abs="11.870746" PMx_abs="1.952631" NOx_abs="45.403235" fuel_abs="47.277161" electricity_abs="0"/>
    </tripinfo>
    <tripinfo id="carIn107084:1" depart="57601.00" departLane="124812856#0_1" departPos="5.10" departSpeed="0.00" departDelay="0.70" arrival="57787.00" arrivalLane="-128361102#1_1" arrivalPos="274.68" arrivalSpeed="13.07" duration="186.00" routeLength="2250.49" waitingTime="0.00" waitingCount="0" stopTime="0.00" timeLoss="17.02" rerouteNo="1" devices="tripinfo_carIn107084:1 routing_carIn107084:1 emissions_carIn107084:1" vType="default_016" speedFactor="0.97" vaporized="">
        <emissions CO_abs="4754.599587" CO2_abs="437415.876100" HC_abs="31.759405" PMx_abs="6.626802" NOx_abs="169.486270" fuel_abs="188.026592" electricity_abs="0"/>
    </tripinfo>
    <tripinfo id="h3154c1:1" depart="57658.00" departLane="24634507_1" departPos="5.10" departSpeed="0.00" departDelay="0.00" arrival="57787.00" arrivalLane="-266565295#5_1" arrivalPos="172.76" arrivalSpeed="12.34" duration="129.00" routeLength="1206.22" waitingTime="16.00" waitingCount="2" stopTime="0.00" timeLoss="37.45" rerouteNo="1" devices="tripinfo_h3154c1:1 routing_h3154c1:1 emissions_h3154c1:1" vType="default_016" speedFactor="0.97" vaporized="">
        <emissions CO_abs="5239.652792" CO2_abs="317333.793648" HC_abs="31.287766" PMx_abs="5.470733" NOx_abs="128.446277" fuel_abs="136.408782" electricity_abs="0"/>
    </tripinfo>
    <tripinfo id="carIn129809:1" depart="57729.00" departLane="-447569998#1_1" departPos="5.10" departSpeed="0.00" departDelay="1.00" arrival="57794.00" arrivalLane="-315358244_1" arrivalPos="33.95" arrivalSpeed="13.89" duration="65.00" routeLength="706.49" waitingTime="0.00" waitingCount="0" stopTime="0.00" timeLoss="9.14" rerouteNo="1" devices="tripinfo_carIn129809:1 routing_carIn129809:1 emissions_carIn129809:1" vType="default_015" speedFactor="1.09" vaporized="">
        <emissions CO_abs="2287.769574" CO2_abs="147785.340912" HC_abs="13.770127" PMx_abs="2.414257" NOx_abs="58.819862" fuel_abs="63.526928" electricity_abs="0"/>
    </tripinfo>
    <tripinfo id="carIn77943:1" depart="57608.00" departLane="124812856#0_1" departPos="5.10" departSpeed="0.00" departDelay="2.50" arrival="57802.00" arrivalLane="-128361102#1_1" arrivalPos="274.68" arrivalSpeed="15.04" duration="194.00" routeLength="2250.49" waitingTime="0.00" waitingCount="0" stopTime="0.00" timeLoss="42.38" rerouteNo="1" devices="tripinfo_carIn77943:1 routing_carIn77943:1 emissions_carIn77943:1" vType="default_016" speedFactor="1.08" vaporized="">
        <emissions CO_abs="6633.546567" CO2_abs="511478.872285" HC_abs="42.196970" PMx_abs="8.585876" NOx_abs="204.878628" fuel_abs="219.862660" electricity_abs="0"/>
    </tripinfo>
    <tripinfo id="carIn27009:1" depart="57673.00" departLane="-447569998#1_1" departPos="5.10" departSpeed="0.00" departDelay="0.50" arrival="57803.00" arrivalLane="-26677539_1" arrivalPos="152.75" arrivalSpeed="6.94" duration="130.00" routeLength="699.63" waitingTime="19.00" waitingCount="1" stopTime="0.00" timeLoss="36.60" rerouteNo="1" devices="tripinfo_carIn27009:1 routing_carIn27009:1 emissions_carIn27009:1" vType="default_015" speedFactor="0.89" vaporized="">
        <emissions CO_abs="7122.719993" CO2_abs="235435.037343" HC_abs="37.844212" PMx_abs="4.185906" NOx_abs="97.993329" fuel_abs="101.206245" electricity_abs="0"/>
    </tripinfo>
    <tripinfo id="carIn81046:1" depart="57611.00" departLane="124812856#0_1" departPos="5.10" departSpeed="0.00" departDelay="2.50" arrival="57804.00" arrivalLane="-128361102#1_1" arrivalPos="274.68" arrivalSpeed="14.37" duration="193.00" routeLength="2250.49" waitingTime="0.00" waitingCount="0" stopTime="0.00" timeLoss="46.62" rerouteNo="1" devices="tripinfo_carIn81046:1 routing_carIn81046:1 emissions_carIn81046:1" vType="default_016" speedFactor="1.13" vaporized="">
        <emissions CO_abs="7110.244634" CO2_abs="539044.754248" HC_abs="45.059799" PMx_abs="9.321983" NOx_abs="217.809081" fuel_abs="231.711712" electricity_abs="0"/>
    </tripinfo>
    <tripinfo id="carIn118591:1" depart="57689.00" departLane="315358244_1" departPos="5.10" departSpeed="0.00" departDelay="0.20" arrival="57805.00" arrivalLane="386687235_1" arrivalPos="80.84" arrivalSpeed="11.93" duration="116.00" routeLength="1186.14" waitingTime="4.00" waitingCount="1" stopTime="0.00" timeLoss="18.93" rerouteNo="1" devices="tripinfo_carIn118591:1 routing_carIn118591:1 emissions_carIn118591:1" vType="default_016" speedFactor="0.89" vaporized="">
        <emissions CO_abs="3619.710794" CO2_abs="259881.113471" HC_abs="22.496115" PMx_abs="3.999202" NOx_abs="102.094777" fuel_abs="111.712391" electricity_abs="0"/>
    </tripinfo>
    <tripinfo id="carIn86816:1" depart="57617.00" departLane="128361102#0_1" departPos="5.10" departSpeed="0.00" departDelay="0.80" arrival="57807.00" arrivalLane="201956811#0_1" arrivalPos="40.40" arrivalSpeed="11.96" duration="190.00" routeLength="2067.33" waitingTime="2.00" waitingCount="1" stopTime="0.00" timeLoss="28.46" rerouteNo="1" devices="tripinfo_carIn86816:1 routing_carIn86816:1 emissions_carIn86816:1" vType="default_016" speedFactor="0.94" vaporized="">
        <emissions CO_abs="5880.409542" CO2_abs="451732.421619" HC_abs="37.278234" PMx_abs="7.101285" NOx_abs="177.966946" fuel_abs="194.180985" electricity_abs="0"/>
    </tripinfo>
    <tripinfo id="carIn77438:1" depart="57614.00" departLane="124812856#0_1" departPos="5.10" departSpeed="0.00" departDelay="1.10" arrival="57812.00" arrivalLane="-128361102#1_1" arrivalPos="274.68" arrivalSpeed="12.04" duration="198.00" routeLength="2250.49" waitingTime="0.00" waitingCount="0" stopTime="0.00" timeLoss="22.28" rerouteNo="1" devices="tripinfo_carIn77438:1 routing_carIn77438:1 emissions_carIn77438:1" vType="default_016" speedFactor="0.94" vaporized="">
        <emissions CO_abs="6070.004049" CO2_abs="466555.556272" HC_abs="38.532690" PMx_abs="7.595373" NOx_abs="185.754409" fuel_abs="200.552405" electricity_abs="0"/>
    </tripinfo>
    <tripinfo id="h645c1:1" depart="57622.00" departLane="266565295#5_1" departPos="5.10" departSpeed="0.00" departDelay="0.40" arrival="57813.00" arrivalLane="-315358244_1" arrivalPos="33.95" arrivalSpeed="12.56" duration="191.00" routeLength="1910.83" waitingTime="21.00" waitingCount="3" stopTime="0.00" timeLoss="49.41" rerouteNo="1" devices="tripinfo_h645c1:1 routing_h645c1:1 emissions_h645c1:1" vType="default_016" speedFactor="0.97" vaporized="">
        <emissions CO_abs="6774.098854" CO2_abs="442297.069947" HC_abs="41.133167" PMx_abs="7.192174" NOx_abs="175.384749" fuel_abs="190.125664" electricity_abs="0"/>
    </tripinfo>
    <tripinfo id="h3864c1:3" depart="57678.00" departLane="24693977#1_1" departPos="5.10" departSpeed="0.00" departDelay="0.00" arrival="57815.00" arrivalLane="201956820_2" arrivalPos="48.33" arrivalSpeed="14.62" duration="137.00" routeLength="1574.85" waitingTime="0.00" waitingCount="0" stopTime="0.00" timeLoss="18.77" rerouteNo="1" devices="tripinfo_h3864c1:3 routing_h3864c1:3 emissions_h3864c1:3" vType="default_016" speedFactor="1.09" vaporized="">
        <emissions CO_abs="5241.105123" CO2_abs="383801.683956" HC_abs="32.800465" PMx_abs="6.372387" NOx_abs="153.103488" fuel_abs="164.980098" electricity_abs="0"/>
    </tripinfo>
    <tripinfo id="carIn102915:1" depart="57643.00" departLane="128361102#0_1" departPos="5.10" departSpeed="0.00" departDelay="0.40" arrival="57816.00" arrivalLane="201956811#0_1" arrivalPos="40.40" arrivalSpeed="12.69" duration="173.00" routeLength="2067.33" waitingTime="0.00" waitingCount="0" stopTime="0.00" timeLoss="17.69" rerouteNo="1" devices="tripinfo_carIn102915:1 routing_carIn102915:1 emissions_carIn102915:1" vType="default_016" speedFactor="0.98" vaporized="">
        <emissions CO_abs="4941.887012" CO2_abs="431106.722168" HC_abs="32.522485" PMx_abs="6.724417" NOx_abs="168.631329" fuel_abs="185.314447" electricity_abs="0"/>
    </tripinfo>
    <tripinfo id="h11737c1:1" depart="57665.00" departLane="272042143_1" departPos="5.10" departSpeed="0.00" departDelay="1.50" arrival="57817.00" arrivalLane="-315358254#1_1" arrivalPos="137.16" arrivalSpeed="13.25" duration="152.00" routeLength="1596.88" waitingTime="14.00" waitingCount="1" stopTime="0.00" timeLoss="33.11" rerouteNo="1" devices="tripinfo_h11737c1:1 routing_h11737c1:1 emissions_h11737c1:1" vType="default_016" speedFactor="0.98" vaporized="">
        <emissions CO_abs="5446.926788" CO2_abs="362282.728921" HC_abs="33.234473" PMx_abs="5.894695" NOx_abs="143.578246" fuel_abs="155.730645" electricity_abs="0"/>
    </tripinfo>
    <tripinfo id="carIn82278:1" depart="57702.00" departLane="-306240162#1_0" departPos="5.10" departSpeed="0.00" departDelay="0.70" arrival="57818.00" arrivalLane="399835085#1_1" arrivalPos="212.23" arrivalSpeed="9.61" duration="116.00" routeLength="1093.26" waitingTime="22.00" waitingCount="2" stopTime="0.00" timeLoss="49.50" rerouteNo="1" devices="tripinfo_carIn82278:1 routing_carIn82278:1 emissions_carIn82278:1" vType="default_016" speedFactor="1.17" vaporized="">
        <emissions CO_abs="7522.254344" CO2_abs="364881.506336" HC_abs="42.900627" PMx_abs="7.221732" NOx_abs="152.954088" fuel_abs="156.847523" electricity_abs="0"/>
    </tripinfo>
    <tripinfo id="carIn126288:1" depart="57674.00" departLane="272042143_1" departPos="5.10" departSpeed="0.00" departDelay="0.00" arrival="57820.00" arrivalLane="-315358254#1_1" arrivalPos="137.16" arrivalSpeed="12.73" duration="146.00" routeLength="1596.88" waitingTime="4.00" waitingCount="1" stopTime="0.00" timeLoss="22.61" rerouteNo="1" devices="tripinfo_carIn126288:1 routing_carIn126288:1 emissions_carIn126288:1" vType="default_016" speedFactor="0.95" vaporized="">
        <emissions CO_abs="4412.607909" CO2_abs="332744.464546" HC_abs="27.853971" PMx_abs="5.370305" NOx_abs="131.915652" fuel_abs="143.032874" electricity_abs="0"/>
    </tripinfo>
    <tripinfo id="h19804c1:3" depart="57617.00" departLane="124812856#0_1" departPos="5.10" departSpeed="0.00" departDelay="1.50" arrival="57823.00" arrivalLane="-128361102#1_1" arrivalPos="274.68" arrivalSpeed="15.73" duration="206.00" routeLength="2232.46" waitingTime="14.00" waitingCount="2" stopTime="0.00" timeLoss="63.67" rerouteNo="1" devices="tripinfo_h19804c1:3 routing_h19804c1:3 emissions_h19804c1:3" vType="default_016" speedFactor="1.15" vaporized="">
        <emissions CO_abs="8568.325249" CO2_abs="595194.698015" HC_abs="52.941536" PMx_abs="10.616808" NOx_abs="242.242634" fuel_abs="255.848244" electricity_abs="0"/>
    </tripinfo>
    <tripinfo id="carIn50326:1" depart="57651.00" departLane="128361102#0_1" departPos="5.10" departSpeed="0.00" departDelay="0.30" arrival="57823.00" arrivalLane="18809673#0_1" arrivalPos="473.56" arrivalSpeed="13.44" duration="172.00" routeLength="1591.07" waitingTime="18.00" waitingCount="2" stopTime="0.00" timeLoss="43.01" rerouteNo="1" devices="tripinfo_carIn50326:1 routing_carIn50326:1 emissions_carIn50326:1" vType="default_016" speedFactor="1.01" vaporized="">
        <emissions CO_abs="6887.788639" CO2_abs="389310.426130" HC_abs="40.419496" PMx_abs="6.548683" NOx_abs="156.626068" fuel_abs="167.349214" electricity_abs="0"/>
    </tripinfo>
    <tripinfo id="carIn81860:1" depart="57712.00" departLane="128361102#0_1" departPos="5.10" departSpeed="0.00" departDelay="0.60" arrival="57825.00" arrivalLane="-24634517#17_1" arrivalPos="6.43" arrivalSpeed="7.77" duration="113.00" routeLength="1229.64" waitingTime="7.00" waitingCount="1" stopTime="0.00" timeLoss="24.73" rerouteNo="1" devices="tripinfo_carIn81860:1 routing_carIn81860:1 emissions_carIn81860:1" vType="default_016" speedFactor="1.03" vaporized="">
        <emissions CO_abs="3669.481982" CO2_abs="264846.620077" HC_abs="22.920802" PMx_abs="4.498887" NOx_abs="106.281914" fuel_abs="113.846249" electricity_abs="0"/>
    </tripinfo>
    <tripinfo id="carIn12858:1" depart="57661.00" departLane="128361109#1_1" departPos="5.10" departSpeed="0.00" departDelay="0.90" arrival="57826.00" arrivalLane="399835085#1_1" arrivalPos="212.23" arrivalSpeed="7.27" duration="165.00" routeLength="1738.12" waitingTime="17.00" waitingCount="2" stopTime="0.00" timeLoss="52.39" rerouteNo="1" devices="tripinfo_carIn12858:1 routing_carIn12858:1 emissions_carIn12858:1" vType="default_016" speedFactor="1.02" vaporized="">
        <emissions CO_abs="9202.839436" CO2_abs="510617.934180" HC_abs="54.026134" PMx_abs="9.769601" NOx_abs="211.485123" fuel_abs="219.493037" electricity_abs="0"/>
    </tripinfo>
    <tripinfo id="randUni15030:1" depart="57735.00" departLane="386687232#0_1" departPos="5.10" departSpeed="0.00" departDelay="0.10" arrival="57828.00" arrivalLane="26677539_1" arrivalPos="151.98" arrivalSpeed="8.59" duration="93.00" routeLength="919.89" waitingTime="0.00" waitingCount="0" stopTime="0.00" timeLoss="12.40" rerouteNo="1" devices="tripinfo_randUni15030:1 routing_randUni15030:1 emissions_randUni15030:1" vType="random_016" speedFactor="1.04" vaporized="">
        <emissions CO_abs="3796.457556" CO2_abs="232685.069024" HC_abs="22.687903" PMx_abs="3.881859" NOx_abs="93.783417" fuel_abs="100.021878" electricity_abs="0"/>
    </tripinfo>
    <tripinfo id="carIn107842:1" depart="57623.00" departLane="124812856#0_1" departPos="5.10" departSpeed="0.00" departDelay="1.90" arrival="57829.00" arrivalLane="-128361102#1_1" arrivalPos="274.68" arrivalSpeed="13.17" duration="206.00" routeLength="2250.49" waitingTime="7.00" waitingCount="1" stopTime="0.00" timeLoss="39.32" rerouteNo="1" devices="tripinfo_carIn107842:1 routing_carIn107842:1 emissions_carIn107842:1" vType="default_016" speedFactor="0.99" vaporized="">
        <emissions CO_abs="6615.976230" CO2_abs="491847.333676" HC_abs="41.595813" PMx_abs="7.932985" NOx_abs="194.747057" fuel_abs="211.424627" electricity_abs="0"/>
    </tripinfo>
    <tripinfo id="h15382c1:3" depart="57626.00" departLane="124812856#0_1" departPos="5.10" departSpeed="0.00" departDelay="3.80" arrival="57833.00" arrivalLane="-128361102#1_1" arrivalPos="274.68" arrivalSpeed="11.82" duration="207.00" routeLength="2250.49" waitingTime="0.00" waitingCount="0" stopTime="0.00" timeLoss="24.43" rerouteNo="1" devices="tripinfo_h15382c1:3 routing_h15382c1:3 emissions_h15382c1:3" vType="default_016" speedFactor="0.90" vaporized="">
        <emissions CO_abs="5844.298441" CO2_abs="438164.601795" HC_abs="36.773077" PMx_abs="6.802289" NOx_abs="172.363586" fuel_abs="188.348964" electricity_abs="0"/>
    </tripinfo>
    <tripinfo id="h8343c1:5" depart="57679.00" departLane="315358254#0_1" departPos="5.10" departSpeed="0.00" departDelay="0.60" arrival="57833.00" arrivalLane="-24634510#5_1" arrivalPos="236.88" arrivalSpeed="14.74" duration="154.00" routeLength="2056.84" waitingTime="9.00" waitingCount="1" stopTime="0.00" timeLoss="38.66" rerouteNo="1" devices="tripinfo_h8343c1:5 routing_h8343c1:5 emissions_h8343c1:5" vType="default_016" speedFactor="1.09" vaporized="">
        <emissions CO_abs="8125.223003" CO2_abs="574413.055029" HC_abs="50.629694" PMx_abs="10.901861" NOx_abs="234.295597" fuel_abs="246.914386" electricity_abs="0"/>
    </tripinfo>
    <tripinfo id="carIn462:1" depart="57622.00" departLane="-306240162#1_0" departPos="5.10" departSpeed="0.00" departDelay="4.80" arrival="57834.00" arrivalLane="386687235_2" arrivalPos="80.84" arrivalSpeed="13.92" duration="212.00" routeLength="2257.41" waitingTime="15.00" waitingCount="3" stopTime="0.00" timeLoss="63.82" rerouteNo="1" devices="tripinfo_carIn462:1 routing_carIn462:1 emissions_carIn462:1" vType="default_016" speedFactor="1.01" vaporized="">
        <emissions CO_abs="9548.392793" CO2_abs="583092.126421" HC_abs="57.194115" PMx_abs="10.506373" NOx_abs="237.512075" fuel_abs="250.646769" electricity_abs="0"/>
    </tripinfo>