<?xml version="1.0" encoding="UTF-8"?>

<!-- generated on Thu Nov  4 13:47:48 2021 by Eclipse SUMO sumo Version 1.9.0
<configuration xmlns:xsi="http://www.w3.org/2001/XMLSchema-instance" xsi:noNamespaceSchemaLocation="http://sumo.dlr.de/xsd/sumoConfiguration.xsd">

    <input>
        <net-file value="/mainfs/home/bk2g18/RESCO/environments/ingolstadt21/ingolstadt21.net.xml"/>
        <route-files value="/mainfs/home/bk2g18/RESCO/environments/ingolstadt21/ingolstadt21.rou.xml"/>
    </input>

    <output>
        <tripinfo-output value="/mainfs/home/bk2g18/RESCO/logs/MPLight-tr0-ingolstadt21-21-mplight-pressure/tripinfo_63.xml"/>
        <tripinfo-output.write-unfinished value="true"/>
    </output>

    <time>
        <begin value="57600"/>
        <end value="61200"/>
    </time>

    <processing>
        <time-to-teleport value="-1"/>
    </processing>

    <report>
        <xml-validation value="never"/>
        <xml-validation.routes value="never"/>
        <no-warnings value="true"/>
        <no-step-log value="true"/>
    </report>

    <emissions>
        <device.emissions.probability value="1"/>
    </emissions>

    <traci_server>
        <remote-port value="45276"/>
    </traci_server>

    <random_number>
        <random value="true"/>
    </random_number>

</configuration>
-->

<tripinfos xmlns:xsi="http://www.w3.org/2001/XMLSchema-instance" xsi:noNamespaceSchemaLocation="http://sumo.dlr.de/xsd/tripinfo_file.xsd">
    <tripinfo id="h15454c2:3" depart="57612.00" departLane="24608844_1" departPos="5.10" departSpeed="0.00" departDelay="0.50" arrival="57648.00" arrivalLane="32978638#0_1" arrivalPos="49.29" arrivalSpeed="14.75" duration="36.00" routeLength="354.79" waitingTime="0.00" waitingCount="0" stopTime="0.00" timeLoss="6.55" rerouteNo="1" devices="tripinfo_h15454c2:3 routing_h15454c2:3 emissions_h15454c2:3" vType="default_016" speedFactor="1.15" vaporized="">
        <emissions CO_abs="2215.093112" CO2_abs="128428.909520" HC_abs="13.131508" PMx_abs="2.456116" NOx_abs="53.973556" fuel_abs="55.205988" electricity_abs="0"/>
    </tripinfo>
    <tripinfo id="carIn60260:1" depart="57606.00" departLane="315358254#0_1" departPos="5.10" departSpeed="0.00" departDelay="0.90" arrival="57657.00" arrivalLane="399835085#1_1" arrivalPos="212.23" arrivalSpeed="8.46" duration="51.00" routeLength="430.98" waitingTime="0.00" waitingCount="0" stopTime="0.00" timeLoss="6.97" rerouteNo="1" devices="tripinfo_carIn60260:1 routing_carIn60260:1 emissions_carIn60260:1" vType="default_016" speedFactor="1.05" vaporized="">
        <emissions CO_abs="2170.390014" CO2_abs="115613.492373" HC_abs="12.545611" PMx_abs="1.847928" NOx_abs="46.442355" fuel_abs="49.697883" electricity_abs="0"/>
    </tripinfo>
    <tripinfo id="carIn53971:1" depart="57640.00" departLane="272042143_1" departPos="5.10" departSpeed="0.00" departDelay="0.80" arrival="57696.00" arrivalLane="24634414#1_1" arrivalPos="162.19" arrivalSpeed="7.01" duration="56.00" routeLength="493.04" waitingTime="0.00" waitingCount="0" stopTime="0.00" timeLoss="7.46" rerouteNo="1" devices="tripinfo_carIn53971:1 routing_carIn53971:1 emissions_carIn53971:1" vType="default_016" speedFactor="0.94" vaporized="">
        <emissions CO_abs="2458.614934" CO2_abs="136215.036804" HC_abs="14.364713" PMx_abs="2.317898" NOx_abs="55.492741" fuel_abs="58.553426" electricity_abs="0"/>
    </tripinfo>
    <tripinfo id="h7181c1:1" depart="57660.00" departLane="315358254#0_1" departPos="5.10" departSpeed="0.00" departDelay="0.10" arrival="57720.00" arrivalLane="306240162#0_0" arrivalPos="220.43" arrivalSpeed="16.86" duration="60.00" routeLength="932.35" waitingTime="0.00" waitingCount="0" stopTime="0.00" timeLoss="12.10" rerouteNo="1" devices="tripinfo_h7181c1:1 routing_h7181c1:1 emissions_h7181c1:1" vType="default_016" speedFactor="1.08" vaporized="">
        <emissions CO_abs="3672.855826" CO2_abs="260968.147649" HC_abs="23.015099" PMx_abs="5.102113" NOx_abs="106.594172" fuel_abs="112.178343" electricity_abs="0"/>
    </tripinfo>
    <tripinfo id="h12244c1:3" depart="57612.00" departLane="315358244_1" departPos="5.10" departSpeed="0.00" departDelay="0.40" arrival="57723.00" arrivalLane="386687235_1" arrivalPos="80.84" arrivalSpeed="14.76" duration="111.00" routeLength="1186.14" waitingTime="13.00" waitingCount="2" stopTime="0.00" timeLoss="34.84" rerouteNo="1" devices="tripinfo_h12244c1:3 routing_h12244c1:3 emissions_h12244c1:3" vType="default_016" speedFactor="1.14" vaporized="">
        <emissions CO_abs="5189.978766" CO2_abs="307987.683848" HC_abs="30.857199" PMx_abs="5.664444" NOx_abs="125.989935" fuel_abs="132.390909" electricity_abs="0"/>
    </tripinfo>
    <tripinfo id="S5R_frequency1.2" depart="57634.00" departLane="315358250#0_1" departPos="12.10" departSpeed="0.00" departDelay="22.40" arrival="57726.00" arrivalLane="386687235_1" arrivalPos="80.84" arrivalSpeed="13.70" duration="92.00" routeLength="1115.62" waitingTime="0.00" waitingCount="0" stopTime="0.00" timeLoss="10.58" rerouteNo="1" devices="tripinfo_S5R_frequency1.2 routing_S5R_frequency1.2 emissions_S5R_frequency1.2" vType="bus" speedFactor="1.00" vaporized="">
        <emissions CO_abs="1780.318735" CO2_abs="1135950.046030" HC_abs="378.374890" PMx_abs="191.586965" NOx_abs="8753.412145" fuel_abs="484.481407" electricity_abs="0"/>
    </tripinfo>
    <tripinfo id="h7800c1:5" depart="57696.00" departLane="-447569998#1_1" departPos="5.10" departSpeed="0.00" departDelay="0.00" arrival="57729.00" arrivalLane="-447569998#1_1" arrivalPos="180.76" arrivalSpeed="5.72" duration="33.00" routeLength="175.66" waitingTime="0.00" waitingCount="0" stopTime="0.00" timeLoss="4.19" rerouteNo="1" devices="tripinfo_h7800c1:5 routing_h7800c1:5 emissions_h7800c1:5" vType="default_016" speedFactor="0.74" vaporized="">
        <emissions CO_abs="1779.528624" CO2_abs="58275.482094" HC_abs="9.419359" PMx_abs="0.929199" NOx_abs="23.691502" fuel_abs="25.050993" electricity_abs="0"/>
    </tripinfo>
    <tripinfo id="carIn80064:1" depart="57603.00" departLane="128361109#1_1" departPos="5.10" departSpeed="0.00" departDelay="0.40" arrival="57730.00" arrivalLane="-315358254#1_1" arrivalPos="137.16" arrivalSpeed="12.41" duration="127.00" routeLength="1587.97" waitingTime="4.00" waitingCount="1" stopTime="0.00" timeLoss="29.08" rerouteNo="1" devices="tripinfo_carIn80064:1 routing_carIn80064:1 emissions_carIn80064:1" vType="default_016" speedFactor="0.91" vaporized="">
        <emissions CO_abs="6343.631323" CO2_abs="439881.992686" HC_abs="39.375850" PMx_abs="8.320484" NOx_abs="181.204634" fuel_abs="189.085481" electricity_abs="0"/>
    </tripinfo>
    <tripinfo id="h3688c1:1" depart="57625.00" departLane="201201950#1_1" departPos="5.10" departSpeed="0.00" departDelay="0.00" arrival="57731.00" arrivalLane="32978638#0_1" arrivalPos="49.29" arrivalSpeed="13.00" duration="106.00" routeLength="1089.75" waitingTime="10.00" waitingCount="1" stopTime="0.00" timeLoss="24.99" rerouteNo="1" devices="tripinfo_h3688c1:1 routing_h3688c1:1 emissions_h3688c1:1" vType="default_016" speedFactor="0.98" vaporized="">
        <emissions CO_abs="4086.175008" CO2_abs="274332.758584" HC_abs="25.015847" PMx_abs="4.590925" NOx_abs="109.836085" fuel_abs="117.924265" electricity_abs="0"/>
    </tripinfo>
    <tripinfo id="carIn22761:1" depart="57616.00" departLane="-306240162#1_0" departPos="5.10" departSpeed="0.00" departDelay="2.10" arrival="57735.00" arrivalLane="399835085#1_1" arrivalPos="212.23" arrivalSpeed="6.75" duration="119.00" routeLength="1093.26" waitingTime="14.00" waitingCount="1" stopTime="0.00" timeLoss="38.21" rerouteNo="1" devices="tripinfo_carIn22761:1 routing_carIn22761:1 emissions_carIn22761:1" vType="default_016" speedFactor="0.97" vaporized="">
        <emissions CO_abs="7036.381013" CO2_abs="356609.659006" HC_abs="40.470887" PMx_abs="6.829205" NOx_abs="148.166375" fuel_abs="153.291863" electricity_abs="0"/>
    </tripinfo>
    <tripinfo id="h9563c2:5" depart="57631.00" departLane="315358244_1" departPos="5.10" departSpeed="0.00" departDelay="0.70" arrival="57747.00" arrivalLane="386687235_1" arrivalPos="80.84" arrivalSpeed="11.09" duration="116.00" routeLength="1186.14" waitingTime="0.00" waitingCount="0" stopTime="0.00" timeLoss="9.23" rerouteNo="1" devices="tripinfo_h9563c2:5 routing_h9563c2:5 emissions_h9563c2:5" vType="default_016" speedFactor="0.81" vaporized="">
        <emissions CO_abs="2948.461107" CO2_abs="228047.625191" HC_abs="18.617107" PMx_abs="3.037140" NOx_abs="86.650448" fuel_abs="98.028975" electricity_abs="0"/>
    </tripinfo>
    <tripinfo id="h317c2:1" depart="57707.00" departLane="-32978638#0_1" departPos="5.10" departSpeed="0.00" departDelay="0.10" arrival="57753.00" arrivalLane="-266565295#5_1" arrivalPos="172.76" arrivalSpeed="14.94" duration="46.00" routeLength="370.53" waitingTime="12.00" waitingCount="1" stopTime="0.00" timeLoss="21.66" rerouteNo="1" devices="tripinfo_h317c2:1 routing_h317c2:1 emissions_h317c2:1" vType="default_016" speedFactor="1.15" vaporized="">
        <emissions CO_abs="3274.269648" CO2_abs="156454.695487" HC_abs="18.542475" PMx_abs="3.033096" NOx_abs="65.350951" fuel_abs="67.253536" electricity_abs="0"/>
    </tripinfo>
    <tripinfo id="h3568c1:3" depart="57656.00" departLane="266565295#5_1" departPos="5.10" departSpeed="0.00" departDelay="0.80" arrival="57756.00" arrivalLane="-24634415_1" arrivalPos="62.03" arrivalSpeed="14.09" duration="100.00" routeLength="807.40" waitingTime="13.00" waitingCount="1" stopTime="0.00" timeLoss="36.03" rerouteNo="1" devices="tripinfo_h3568c1:3 routing_h3568c1:3 emissions_h3568c1:3" vType="default_016" speedFactor="1.02" vaporized="">
        <emissions CO_abs="6401.058732" CO2_abs="310650.911184" HC_abs="36.471854" PMx_abs="5.871842" NOx_abs="129.824427" fuel_abs="133.536307" electricity_abs="0"/>
    </tripinfo>
    <tripinfo id="h5979c1:5" depart="57669.00" departLane="399835085#1_1" departPos="5.10" departSpeed="0.00" departDelay="0.00" arrival="57757.00" arrivalLane="-315358254#1_1" arrivalPos="137.16" arrivalSpeed="13.55" duration="88.00" routeLength="659.33" waitingTime="4.00" waitingCount="1" stopTime="0.00" timeLoss="18.07" rerouteNo="1" devices="tripinfo_h5979c1:5 routing_h5979c1:5 emissions_h5979c1:5" vType="default_016" speedFactor="1.05" vaporized="">
        <emissions CO_abs="3580.485892" CO2_abs="180499.260567" HC_abs="20.473935" PMx_abs="2.989992" NOx_abs="73.273598" fuel_abs="77.589824" electricity_abs="0"/>
    </tripinfo>
    <tripinfo id="carIn30817:1" depart="57681.00" departLane="315358244_1" departPos="5.10" departSpeed="0.00" departDelay="0.20" arrival="57761.00" arrivalLane="447569997#1_1" arrivalPos="180.93" arrivalSpeed="7.05" duration="80.00" routeLength="718.04" waitingTime="6.00" waitingCount="1" stopTime="0.00" timeLoss="16.81" rerouteNo="1" devices="tripinfo_carIn30817:1 routing_carIn30817:1 emissions_carIn30817:1" vType="default_016" speedFactor="0.97" vaporized="">
        <emissions CO_abs="2637.031688" CO2_abs="163351.821648" HC_abs="15.786266" PMx_abs="2.644505" NOx_abs="65.219220" fuel_abs="70.218435" electricity_abs="0"/>
    </tripinfo>
    <tripinfo id="h4538c1:1" depart="57701.00" departLane="-10427692#1_1" departPos="5.10" departSpeed="0.00" departDelay="0.00" arrival="57764.00" arrivalLane="-128361102#1_1" arrivalPos="274.68" arrivalSpeed="14.47" duration="63.00" routeLength="440.74" waitingTime="23.00" waitingCount="1" stopTime="0.00" timeLoss="33.26" rerouteNo="1" devices="tripinfo_h4538c1:1 routing_h4538c1:1 emissions_h4538c1:1" vType="default_016" speedFactor="1.08" vaporized="">
        <emissions CO_abs="4674.449570" CO2_abs="156504.026072" HC_abs="24.945439" PMx_abs="3.122273" NOx_abs="66.118039" fuel_abs="67.275795" electricity_abs="0"/>
    </tripinfo>
    <tripinfo id="h3154c1:1" depart="57658.00" departLane="24634507_1" departPos="5.10" departSpeed="0.00" departDelay="0.00" arrival="57766.00" arrivalLane="-266565295#5_1" arrivalPos="172.76" arrivalSpeed="13.81" duration="108.00" routeLength="1206.22" waitingTime="4.00" waitingCount="1" stopTime="0.00" timeLoss="23.05" rerouteNo="1" devices="tripinfo_h3154c1:1 routing_h3154c1:1 emissions_h3154c1:1" vType="default_016" speedFactor="1.05" vaporized="">
        <emissions CO_abs="3866.758258" CO2_abs="296288.901787" HC_abs="24.432203" PMx_abs="4.947908" NOx_abs="118.064240" fuel_abs="127.361876" electricity_abs="0"/>
    </tripinfo>
    <tripinfo id="h330c1:1" depart="57736.00" departLane="-32978638#0_1" departPos="5.10" departSpeed="0.00" departDelay="0.20" arrival="57773.00" arrivalLane="-266565295#5_1" arrivalPos="172.76" arrivalSpeed="14.65" duration="37.00" routeLength="370.53" waitingTime="3.00" waitingCount="1" stopTime="0.00" timeLoss="12.34" rerouteNo="1" devices="tripinfo_h330c1:1 routing_h330c1:1 emissions_h330c1:1" vType="default_016" speedFactor="1.12" vaporized="">
        <emissions CO_abs="2085.464066" CO2_abs="131162.789478" HC_abs="12.480299" PMx_abs="2.344628" NOx_abs="53.435346" fuel_abs="56.381307" electricity_abs="0"/>
    </tripinfo>
    <tripinfo id="carIn121703:1" depart="57647.00" departLane="386687232#0_1" departPos="5.10" departSpeed="0.00" departDelay="0.30" arrival="57778.00" arrivalLane="-315358244_1" arrivalPos="33.95" arrivalSpeed="17.01" duration="131.00" routeLength="1157.39" waitingTime="46.00" waitingCount="2" stopTime="0.00" timeLoss="65.95" rerouteNo="1" devices="tripinfo_carIn121703:1 routing_carIn121703:1 emissions_carIn121703:1" vType="default_016" speedFactor="1.31" vaporized="">
        <emissions CO_abs="10183.790026" CO2_abs="403554.774767" HC_abs="55.813480" PMx_abs="8.085649" NOx_abs="168.565863" fuel_abs="173.473122" electricity_abs="0"/>
    </tripinfo>
    <tripinfo id="h3326c1:2" depart="57656.00" departLane="22716069#0_1" departPos="5.10" departSpeed="0.00" departDelay="0.00" arrival="57782.00" arrivalLane="24634517#13_1" arrivalPos="111.62" arrivalSpeed="11.20" duration="126.00" routeLength="1312.81" waitingTime="0.00" waitingCount="0" stopTime="0.00" timeLoss="15.30" rerouteNo="1" devices="tripinfo_h3326c1:2 routing_h3326c1:2 emissions_h3326c1:2" vType="default_016" speedFactor="0.89" vaporized="">
        <emissions CO_abs="4184.605436" CO2_abs="295651.158505" HC_abs="25.920376" PMx_abs="4.704190" NOx_abs="117.377190" fuel_abs="127.088285" electricity_abs="0"/>
    </tripinfo>
    <tripinfo id="carIn12365:1" depart="57713.00" departLane="315358244_1" departPos="5.10" departSpeed="0.00" departDelay="0.50" arrival="57783.00" arrivalLane="447569997#1_1" arrivalPos="180.93" arrivalSpeed="7.86" duration="70.00" routeLength="718.04" waitingTime="0.00" waitingCount="0" stopTime="0.00" timeLoss="7.69" rerouteNo="1" devices="tripinfo_carIn12365:1 routing_carIn12365:1 emissions_carIn12365:1" vType="default_016" speedFactor="0.99" vaporized="">
        <emissions CO_abs="2097.256770" CO2_abs="138216.821478" HC_abs="12.732603" PMx_abs="2.195890" NOx_abs="54.791545" fuel_abs="59.413860" electricity_abs="0"/>
    </tripinfo>
    <tripinfo id="h645c1:1" depart="57622.00" departLane="266565295#5_1" departPos="5.10" departSpeed="0.00" departDelay="0.40" arrival="57784.00" arrivalLane="-315358244_1" arrivalPos="33.95" arrivalSpeed="13.81" duration="162.00" routeLength="1910.83" waitingTime="12.00" waitingCount="1" stopTime="0.00" timeLoss="29.98" rerouteNo="1" devices="tripinfo_h645c1:1 routing_h645c1:1 emissions_h645c1:1" vType="default_016" speedFactor="1.05" vaporized="">
        <emissions CO_abs="4877.023582" CO2_abs="379461.176139" HC_abs="30.952039" PMx_abs="6.048533" NOx_abs="148.222390" fuel_abs="163.114566" electricity_abs="0"/>
    </tripinfo>
    <tripinfo id="carIn118591:1" depart="57689.00" departLane="315358244_1" departPos="5.10" departSpeed="0.00" departDelay="0.20" arrival="57784.00" arrivalLane="386687235_1" arrivalPos="80.84" arrivalSpeed="14.28" duration="95.00" routeLength="1186.14" waitingTime="2.00" waitingCount="1" stopTime="0.00" timeLoss="16.63" rerouteNo="1" devices="tripinfo_carIn118591:1 routing_carIn118591:1 emissions_carIn118591:1" vType="default_016" speedFactor="1.10" vaporized="">
        <emissions CO_abs="3440.560830" CO2_abs="266497.304445" HC_abs="21.834909" PMx_abs="4.525805" NOx_abs="106.131849" fuel_abs="114.555659" electricity_abs="0"/>
    </tripinfo>
    <tripinfo id="carIn86816:1" depart="57617.00" departLane="128361102#0_1" departPos="5.10" departSpeed="0.00" departDelay="0.80" arrival="57789.00" arrivalLane="201956811#0_1" arrivalPos="40.40" arrivalSpeed="12.41" duration="172.00" routeLength="2067.33" waitingTime="0.00" waitingCount="0" stopTime="0.00" timeLoss="16.30" rerouteNo="1" devices="tripinfo_carIn86816:1 routing_carIn86816:1 emissions_carIn86816:1" vType="default_016" speedFactor="0.98" vaporized="">
        <emissions CO_abs="4935.307387" CO2_abs="423919.554370" HC_abs="32.332625" PMx_abs="6.614264" NOx_abs="165.788162" fuel_abs="182.225058" electricity_abs="0"/>
    </tripinfo>
    <tripinfo id="carIn27009:1" depart="57673.00" departLane="-447569998#1_1" departPos="5.10" departSpeed="0.00" departDelay="0.50" arrival="57804.00" arrivalLane="-26677539_1" arrivalPos="152.75" arrivalSpeed="6.63" duration="131.00" routeLength="699.63" waitingTime="19.00" waitingCount="1" stopTime="0.00" timeLoss="33.85" rerouteNo="1" devices="tripinfo_carIn27009:1 routing_carIn27009:1 emissions_carIn27009:1" vType="default_015" speedFactor="0.86" vaporized="">
        <emissions CO_abs="7265.312742" CO2_abs="229568.010398" HC_abs="38.354947" PMx_abs="4.111841" NOx_abs="95.731176" fuel_abs="98.684421" electricity_abs="0"/>
    </tripinfo>
    <tripinfo id="h11737c1:1" depart="57665.00" departLane="272042143_1" departPos="5.10" departSpeed="0.00" departDelay="1.50" arrival="57807.00" arrivalLane="-315358254#1_1" arrivalPos="137.16" arrivalSpeed="14.90" duration="142.00" routeLength="1596.88" waitingTime="9.00" waitingCount="2" stopTime="0.00" timeLoss="33.52" rerouteNo="1" devices="tripinfo_h11737c1:1 routing_h11737c1:1 emissions_h11737c1:1" vType="default_016" speedFactor="1.08" vaporized="">
        <emissions CO_abs="4909.309196" CO2_abs="358964.680541" HC_abs="30.669622" PMx_abs="6.187942" NOx_abs="143.992844" fuel_abs="154.303432" electricity_abs="0"/>
    </tripinfo>
    <tripinfo id="carIn107084:1" depart="57601.00" departLane="124812856#0_1" departPos="5.10" departSpeed="0.00" departDelay="0.70" arrival="57808.00" arrivalLane="-128361102#1_1" arrivalPos="274.68" arrivalSpeed="12.26" duration="207.00" routeLength="2250.49" waitingTime="13.00" waitingCount="1" stopTime="0.00" timeLoss="34.98" rerouteNo="1" devices="tripinfo_carIn107084:1 routing_carIn107084:1 emissions_carIn107084:1" vType="default_016" speedFactor="0.95" vaporized="">
        <emissions CO_abs="6817.535138" CO2_abs="480625.633121" HC_abs="42.231315" PMx_abs="7.701242" NOx_abs="189.728873" fuel_abs="206.601290" electricity_abs="0"/>
    </tripinfo>
    <tripinfo id="carIn126288:1" depart="57674.00" departLane="272042143_1" departPos="5.10" departSpeed="0.00" departDelay="0.00" arrival="57810.00" arrivalLane="-315358254#1_1" arrivalPos="137.16" arrivalSpeed="12.85" duration="136.00" routeLength="1596.88" waitingTime="0.00" waitingCount="0" stopTime="0.00" timeLoss="12.95" rerouteNo="1" devices="tripinfo_carIn126288:1 routing_carIn126288:1 emissions_carIn126288:1" vType="default_016" speedFactor="0.94" vaporized="">
        <emissions CO_abs="3642.372625" CO2_abs="309626.652050" HC_abs="23.776139" PMx_abs="4.756962" NOx_abs="120.796842" fuel_abs="133.095508" electricity_abs="0"/>
    </tripinfo>
    <tripinfo id="carIn77943:1" depart="57608.00" departLane="124812856#0_1" departPos="5.10" departSpeed="0.00" departDelay="2.50" arrival="57811.00" arrivalLane="-128361102#1_1" arrivalPos="274.68" arrivalSpeed="13.31" duration="203.00" routeLength="2250.49" waitingTime="7.00" waitingCount="1" stopTime="0.00" timeLoss="37.93" rerouteNo="1" devices="tripinfo_carIn77943:1 routing_carIn77943:1 emissions_carIn77943:1" vType="default_016" speedFactor="1.00" vaporized="">
        <emissions CO_abs="6769.297810" CO2_abs="512227.182802" HC_abs="42.794435" PMx_abs="8.502606" NOx_abs="204.363798" fuel_abs="220.184597" electricity_abs="0"/>
    </tripinfo>
    <tripinfo id="carIn81046:1" depart="57611.00" departLane="124812856#0_1" departPos="5.10" departSpeed="0.00" departDelay="2.50" arrival="57813.00" arrivalLane="-128361102#1_1" arrivalPos="274.68" arrivalSpeed="14.22" duration="202.00" routeLength="2250.49" waitingTime="6.00" waitingCount="1" stopTime="0.00" timeLoss="44.12" rerouteNo="1" devices="tripinfo_carIn81046:1 routing_carIn81046:1 emissions_carIn81046:1" vType="default_016" speedFactor="1.04" vaporized="">
        <emissions CO_abs="7104.953319" CO2_abs="531328.534278" HC_abs="44.806805" PMx_abs="9.026666" NOx_abs="213.386361" fuel_abs="228.395201" electricity_abs="0"/>
    </tripinfo>
    <tripinfo id="carIn129809:1" depart="57729.00" departLane="-447569998#1_1" departPos="5.10" departSpeed="0.00" departDelay="1.00" arrival="57823.00" arrivalLane="-315358244_1" arrivalPos="33.95" arrivalSpeed="12.71" duration="94.00" routeLength="706.49" waitingTime="19.00" waitingCount="2" stopTime="0.00" timeLoss="32.29" rerouteNo="1" devices="tripinfo_carIn129809:1 routing_carIn129809:1 emissions_carIn129809:1" vType="default_015" speedFactor="0.98" vaporized="">
        <emissions CO_abs="5390.393974" CO2_abs="222417.011727" HC_abs="29.733806" PMx_abs="4.040511" NOx_abs="91.848571" fuel_abs="95.609055" electricity_abs="0"/>
    </tripinfo>
    <tripinfo id="carIn48184:1" depart="57613.00" departLane="-306240162#1_0" departPos="5.10" departSpeed="0.00" departDelay="0.70" arrival="57824.00" arrivalLane="386687235_1" arrivalPos="80.84" arrivalSpeed="14.11" duration="211.00" routeLength="2257.41" waitingTime="30.00" waitingCount="4" stopTime="0.00" timeLoss="69.31" rerouteNo="1" devices="tripinfo_carIn48184:1 routing_carIn48184:1 emissions_carIn48184:1" vType="default_016" speedFactor="1.05" vaporized="">
        <emissions CO_abs="10519.724484" CO2_abs="627677.558297" HC_abs="62.611298" PMx_abs="11.513583" NOx_abs="255.284528" fuel_abs="269.812221" electricity_abs="0"/>
    </tripinfo>
    <tripinfo id="carIn82220:1" depart="57619.00" departLane="-306240162#1_0" departPos="5.10" departSpeed="0.00" departDelay="3.50" arrival="57824.00" arrivalLane="386687235_2" arrivalPos="80.84" arrivalSpeed="11.91" duration="205.00" routeLength="2257.41" waitingTime="8.00" waitingCount="2" stopTime="0.00" timeLoss="40.12" rerouteNo="1" devices="tripinfo_carIn82220:1 routing_carIn82220:1 emissions_carIn82220:1" vType="default_016" speedFactor="0.90" vaporized="">
        <emissions CO_abs="7070.123287" CO2_abs="536415.069026" HC_abs="44.723682" PMx_abs="8.902526" NOx_abs="213.090633" fuel_abs="230.582015" electricity_abs="0"/>
    </tripinfo>
    <tripinfo id="carIn77438:1" depart="57613.00" departLane="124812856#0_1" departPos="5.10" departSpeed="0.00" departDelay="0.10" arrival="57825.00" arrivalLane="-128361102#1_1" arrivalPos="274.68" arrivalSpeed="11.60" duration="212.00" routeLength="2250.49" waitingTime="4.00" waitingCount="1" stopTime="0.00" timeLoss="26.28" rerouteNo="1" devices="tripinfo_carIn77438:1 routing_carIn77438:1 emissions_carIn77438:1" vType="default_016" speedFactor="0.89" vaporized="">
        <emissions CO_abs="5806.340789" CO2_abs="438210.374139" HC_abs="36.572973" PMx_abs="6.647440" NOx_abs="171.342848" fuel_abs="188.368848" electricity_abs="0"/>
    </tripinfo>
    <tripinfo id="h19804c1:3" depart="57616.00" departLane="124812856#0_1" departPos="5.10" departSpeed="0.00" departDelay="0.50" arrival="57826.00" arrivalLane="-128361102#1_1" arrivalPos="274.68" arrivalSpeed="13.14" duration="210.00" routeLength="2250.49" waitingTime="2.00" waitingCount="1" stopTime="0.00" timeLoss="37.45" rerouteNo="1" devices="tripinfo_h19804c1:3 routing_h19804c1:3 emissions_h19804c1:3" vType="default_016" speedFactor="0.95" vaporized="">
        <emissions CO_abs="7117.183490" CO2_abs="514209.830419" HC_abs="44.406801" PMx_abs="8.428695" NOx_abs="205.420872" fuel_abs="221.037197" electricity_abs="0"/>
    </tripinfo>
    <tripinfo id="h17600c1:1" depart="57662.00" departLane="272042143_1" departPos="5.10" departSpeed="0.00" departDelay="0.30" arrival="57826.00" arrivalLane="201238729#3_1" arrivalPos="431.02" arrivalSpeed="14.23" duration="164.00" routeLength="2100.26" waitingTime="10.00" waitingCount="1" stopTime="0.00" timeLoss="28.07" rerouteNo="1" devices="tripinfo_h17600c1:1 routing_h17600c1:1 emissions_h17600c1:1" vType="default_016" speedFactor="1.12" vaporized="">
        <emissions CO_abs="5287.049968" CO2_abs="435977.121671" HC_abs="34.048813" PMx_abs="7.142012" NOx_abs="170.607818" fuel_abs="187.407926" electricity_abs="0"/>
    </tripinfo>
    <tripinfo id="carIn3969:1" depart="57628.00" departLane="124812856#0_1" departPos="5.10" departSpeed="0.00" departDelay="4.30" arrival="57828.00" arrivalLane="-128361102#1_1" arrivalPos="274.68" arrivalSpeed="14.34" duration="200.00" routeLength="2250.49" waitingTime="0.00" waitingCount="0" stopTime="0.00" timeLoss="53.95" rerouteNo="1" devices="tripinfo_carIn3969:1 routing_carIn3969:1 emissions_carIn3969:1" vType="default_016" speedFactor="1.13" vaporized="">
        <emissions CO_abs="7835.212964" CO2_abs="561890.194325" HC_abs="48.887365" PMx_abs="9.891260" NOx_abs="229.151271" fuel_abs="241.531956" electricity_abs="0"/>
    </tripinfo>
    <tripinfo id="carIn56649:1" depart="57631.00" departLane="124812856#0_1" departPos="5.10" departSpeed="0.00" departDelay="7.10" arrival="57830.00" arrivalLane="-128361102#1_1" arrivalPos="274.68" arrivalSpeed="13.12" duration="199.00" routeLength="2250.49" waitingTime="0.00" waitingCount="0" stopTime="0.00" timeLoss="34.89" rerouteNo="1" devices="tripinfo_carIn56649:1 routing_carIn56649:1 emissions_carIn56649:1" vType="default_016" speedFactor="1.00" vaporized="">
        <emissions CO_abs="7275.438499" CO2_abs="543712.571361" HC_abs="45.882895" PMx_abs="9.338003" NOx_abs="219.732237" fuel_abs="233.718339" electricity_abs="0"/>
    </tripinfo>
    <tripinfo id="carIn107842:1" depart="57622.00" departLane="124812856#0_1" departPos="5.10" departSpeed="0.00" departDelay="0.90" arrival="57831.00" arrivalLane="-128361102#1_1" arrivalPos="274.68" arrivalSpeed="14.60" duration="209.00" routeLength="2232.46" waitingTime="18.00" waitingCount="1" stopTime="0.00" timeLoss="67.34" rerouteNo="1" devices="tripinfo_carIn107842:1 routing_carIn107842:1 emissions_carIn107842:1" vType="default_016" speedFactor="1.15" vaporized="">
        <emissions CO_abs="10943.483044" CO2_abs="656062.898551" HC_abs="65.294176" PMx_abs="12.282858" NOx_abs="271.644583" fuel_abs="282.013144" electricity_abs="0"/>
    </tripinfo>
    <tripinfo id="carIn107282:1" depart="57749.00" departLane="-447569998#1_1" departPos="5.10" departSpeed="0.00" departDelay="0.00" arrival="57836.00" arrivalLane="315358242#0_1" arrivalPos="165.37" arrivalSpeed="13.88" duration="87.00" routeLength="448.50" waitingTime="37.00" waitingCount="1" stopTime="0.00" timeLoss="45.19" rerouteNo="1" devices="tripinfo_carIn107282:1 routing_carIn107282:1 emissions_carIn107282:1" vType="default_016" speedFactor="1.01" vaporized="">
        <emissions CO_abs="7479.804994" CO2_abs="203464.148198" HC_abs="38.809357" PMx_abs="4.130964" NOx_abs="86.986234" fuel_abs="87.463403" electricity_abs="0"/>
    </tripinfo>
    <tripinfo id="randUni31145:1" depart="57814.00" departLane="10425609#0_1" departPos="5.10" departSpeed="0.00" departDelay="0.30" arrival="57839.00" arrivalLane="201956810_1" arrivalPos="71.65" arrivalSpeed="13.67" duration="25.00" routeLength="255.78" waitingTime="0.00" waitingCount="0" stopTime="0.00" timeLoss="6.31" rerouteNo="1" devices="tripinfo_randUni31145:1 routing_randUni31145:1 emissions_randUni31145:1" vType="random_016" speedFactor="1.05" vaporized="">
        <emissions CO_abs="1717.836680" CO2_abs="95818.213807" HC_abs="10.104887" PMx_abs="1.901985" NOx_abs="40.755957" fuel_abs="41.188017" electricity_abs="0"/>
    </tripinfo>
    <tripinfo id="carIn50326:1" depart="57651.00" departLane="128361102#0_1" departPos="5.10" departSpeed="0.00" departDelay="0.30" arrival="57847.00" arrivalLane="18809673#0_1" arrivalPos="473.56" arrivalSpeed="11.79" duration="196.00" routeLength="1591.07" waitingTime="26.00" waitingCount="2" stopTime="0.00" timeLoss="48.94" rerouteNo="1" devices="tripinfo_carIn50326:1 routing_carIn50326:1 emissions_carIn50326:1" vType="default_016" speedFactor="0.89" vaporized="">
        <emissions CO_abs="8332.528553" CO2_abs="397302.474351" HC_abs="47.092495" PMx_abs="6.390161" NOx_abs="158.600482" fuel_abs="170.786179" electricity_abs="0"/>
    </tripinfo>
    <tripinfo id="randUni2407:1" depart="57820.00" departLane="10425609#0_1" departPos="5.10" departSpeed="0.00" departDelay="0.80" arrival="57848.00" arrivalLane="201956810_1" arrivalPos="71.65" arrivalSpeed="13.02" duration="28.00" routeLength="255.78" waitingTime="0.00" waitingCount="0" stopTime="0.00" timeLoss="6.83" rerouteNo="1" devices="tripinfo_randUni2407:1 routing_randUni2407:1 emissions_randUni2407:1" vType="random_016" speedFactor="0.95" vaporized="">
        <emissions CO_abs="1572.841743" CO2_abs="90040.154175" HC_abs="9.265932" PMx_abs="1.562488" NOx_abs="36.776927" fuel_abs="38.704600" electricity_abs="0"/>
    </tripinfo>
    <tripinfo id="carIn82278:1" depart="57702.00" departLane="-306240162#1_0" departPos="5.10" departSpeed="0.00" departDelay="0.70" arrival="57852.00" arrivalLane="399835085#1_1" arrivalPos="212.23" arrivalSpeed="4.62" duration="150.00" routeLength="1093.26" waitingTime="31.00" waitingCount="3" stopTime="0.00" timeLoss="67.53" rerouteNo="1" devices="tripinfo_carIn82278:1 routing_carIn82278:1 emissions_carIn82278:1" vType="default_016" speedFactor="0.94" vaporized="">
        <emissions CO_abs="9181.585976" CO2_abs="387094.575644" HC_abs="50.851119" PMx_abs="7.555468" NOx_abs="162.320915" fuel_abs="166.397107" electricity_abs="0"/>