<?xml version="1.0" encoding="UTF-8"?>

<!-- generated on Thu Nov  4 13:51:03 2021 by Eclipse SUMO sumo Version 1.9.0
<configuration xmlns:xsi="http://www.w3.org/2001/XMLSchema-instance" xsi:noNamespaceSchemaLocation="http://sumo.dlr.de/xsd/sumoConfiguration.xsd">

    <input>
        <net-file value="/mainfs/home/bk2g18/RESCO/environments/ingolstadt21/ingolstadt21.net.xml"/>
        <route-files value="/mainfs/home/bk2g18/RESCO/environments/ingolstadt21/ingolstadt21.rou.xml"/>
    </input>

    <output>
        <tripinfo-output value="/mainfs/home/bk2g18/RESCO/logs/MPLight-tr0-ingolstadt21-21-mplight-pressure/tripinfo_69.xml"/>
        <tripinfo-output.write-unfinished value="true"/>
    </output>

    <time>
        <begin value="57600"/>
        <end value="61200"/>
    </time>

    <processing>
        <time-to-teleport value="-1"/>
    </processing>

    <report>
        <xml-validation value="never"/>
        <xml-validation.routes value="never"/>
        <no-warnings value="true"/>
        <no-step-log value="true"/>
    </report>

    <emissions>
        <device.emissions.probability value="1"/>
    </emissions>

    <traci_server>
        <remote-port value="41787"/>
    </traci_server>

    <random_number>
        <random value="true"/>
    </random_number>

</configuration>
-->

<tripinfos xmlns:xsi="http://www.w3.org/2001/XMLSchema-instance" xsi:noNamespaceSchemaLocation="http://sumo.dlr.de/xsd/tripinfo_file.xsd">
    <tripinfo id="h15454c2:3" depart="57612.00" departLane="24608844_1" departPos="5.10" departSpeed="0.00" departDelay="0.50" arrival="57650.00" arrivalLane="32978638#0_1" arrivalPos="49.29" arrivalSpeed="15.18" duration="38.00" routeLength="354.79" waitingTime="0.00" waitingCount="0" stopTime="0.00" timeLoss="6.52" rerouteNo="1" devices="tripinfo_h15454c2:3 routing_h15454c2:3 emissions_h15454c2:3" vType="default_016" speedFactor="1.10" vaporized="">
        <emissions CO_abs="2146.708478" CO2_abs="124341.199800" HC_abs="12.707286" PMx_abs="2.317806" NOx_abs="51.829522" fuel_abs="53.448956" electricity_abs="0"/>
    </tripinfo>
    <tripinfo id="carIn60260:1" depart="57606.00" departLane="315358254#0_1" departPos="5.10" departSpeed="0.00" departDelay="0.90" arrival="57694.00" arrivalLane="399835085#1_1" arrivalPos="212.23" arrivalSpeed="7.10" duration="88.00" routeLength="430.98" waitingTime="30.00" waitingCount="1" stopTime="0.00" timeLoss="45.39" rerouteNo="1" devices="tripinfo_carIn60260:1 routing_carIn60260:1 emissions_carIn60260:1" vType="default_016" speedFactor="1.09" vaporized="">
        <emissions CO_abs="7233.690766" CO2_abs="210059.151067" HC_abs="37.874486" PMx_abs="4.389995" NOx_abs="91.093930" fuel_abs="90.297746" electricity_abs="0"/>
    </tripinfo>
    <tripinfo id="carIn53971:1" depart="57640.00" departLane="272042143_1" departPos="5.10" departSpeed="0.00" departDelay="0.80" arrival="57700.00" arrivalLane="24634414#1_1" arrivalPos="162.19" arrivalSpeed="6.99" duration="60.00" routeLength="493.04" waitingTime="0.00" waitingCount="0" stopTime="0.00" timeLoss="8.72" rerouteNo="1" devices="tripinfo_carIn53971:1 routing_carIn53971:1 emissions_carIn53971:1" vType="default_016" speedFactor="0.90" vaporized="">
        <emissions CO_abs="2533.814125" CO2_abs="130225.982835" HC_abs="14.566084" PMx_abs="2.249386" NOx_abs="53.436337" fuel_abs="55.979058" electricity_abs="0"/>
    </tripinfo>
    <tripinfo id="h12244c1:3" depart="57612.00" departLane="315358244_1" departPos="5.10" departSpeed="0.00" departDelay="0.40" arrival="57715.00" arrivalLane="386687235_1" arrivalPos="80.84" arrivalSpeed="15.33" duration="103.00" routeLength="1186.14" waitingTime="12.00" waitingCount="1" stopTime="0.00" timeLoss="25.78" rerouteNo="1" devices="tripinfo_h12244c1:3 routing_h12244c1:3 emissions_h12244c1:3" vType="default_016" speedFactor="1.12" vaporized="">
        <emissions CO_abs="4415.363852" CO2_abs="274270.573968" HC_abs="26.260181" PMx_abs="4.687936" NOx_abs="109.071685" fuel_abs="117.897756" electricity_abs="0"/>
    </tripinfo>
    <tripinfo id="S5R_frequency1.2" depart="57615.00" departLane="315358250#0_1" departPos="12.10" departSpeed="0.00" departDelay="3.40" arrival="57723.00" arrivalLane="386687235_1" arrivalPos="80.84" arrivalSpeed="13.57" duration="108.00" routeLength="1115.62" waitingTime="7.00" waitingCount="1" stopTime="0.00" timeLoss="26.22" rerouteNo="1" devices="tripinfo_S5R_frequency1.2 routing_S5R_frequency1.2 emissions_S5R_frequency1.2" vType="bus" speedFactor="1.00" vaporized="">
        <emissions CO_abs="2039.632759" CO2_abs="1237431.373049" HC_abs="437.271665" PMx_abs="218.043482" NOx_abs="9705.478642" fuel_abs="527.742236" electricity_abs="0"/>
    </tripinfo>
    <tripinfo id="h3688c1:1" depart="57625.00" departLane="201201950#1_1" departPos="5.10" departSpeed="0.00" departDelay="0.00" arrival="57724.00" arrivalLane="32978638#0_1" arrivalPos="49.29" arrivalSpeed="15.06" duration="99.00" routeLength="1089.75" waitingTime="7.00" waitingCount="2" stopTime="0.00" timeLoss="28.29" rerouteNo="1" devices="tripinfo_h3688c1:1 routing_h3688c1:1 emissions_h3688c1:1" vType="default_016" speedFactor="1.13" vaporized="">
        <emissions CO_abs="4900.601997" CO2_abs="305528.764917" HC_abs="29.251401" PMx_abs="5.578718" NOx_abs="124.886276" fuel_abs="131.333713" electricity_abs="0"/>
    </tripinfo>
    <tripinfo id="h7800c1:5" depart="57696.00" departLane="-447569998#1_1" departPos="5.10" departSpeed="0.00" departDelay="0.00" arrival="57725.00" arrivalLane="-447569998#1_2" arrivalPos="180.76" arrivalSpeed="4.41" duration="29.00" routeLength="175.66" waitingTime="0.00" waitingCount="0" stopTime="0.00" timeLoss="8.02" rerouteNo="1" devices="tripinfo_h7800c1:5 routing_h7800c1:5 emissions_h7800c1:5" vType="default_016" speedFactor="1.02" vaporized="">
        <emissions CO_abs="1390.571750" CO2_abs="55558.819602" HC_abs="7.616072" PMx_abs="0.981030" NOx_abs="23.104552" fuel_abs="23.882779" electricity_abs="0"/>
    </tripinfo>
    <tripinfo id="h7181c1:1" depart="57660.00" departLane="315358254#0_1" departPos="5.10" departSpeed="0.00" departDelay="0.10" arrival="57731.00" arrivalLane="306240162#0_0" arrivalPos="220.43" arrivalSpeed="17.17" duration="71.00" routeLength="932.35" waitingTime="9.00" waitingCount="1" stopTime="0.00" timeLoss="21.04" rerouteNo="1" devices="tripinfo_h7181c1:1 routing_h7181c1:1 emissions_h7181c1:1" vType="default_016" speedFactor="1.04" vaporized="">
        <emissions CO_abs="4227.080360" CO2_abs="265133.198034" HC_abs="25.549257" PMx_abs="5.218568" NOx_abs="109.072713" fuel_abs="113.969008" electricity_abs="0"/>
    </tripinfo>
    <tripinfo id="h9563c2:5" depart="57631.00" departLane="315358244_1" departPos="5.10" departSpeed="0.00" departDelay="0.70" arrival="57737.00" arrivalLane="386687235_1" arrivalPos="80.84" arrivalSpeed="13.58" duration="106.00" routeLength="1186.14" waitingTime="7.00" waitingCount="1" stopTime="0.00" timeLoss="21.53" rerouteNo="1" devices="tripinfo_h9563c2:5 routing_h9563c2:5 emissions_h9563c2:5" vType="default_016" speedFactor="1.02" vaporized="">
        <emissions CO_abs="3651.781879" CO2_abs="264444.926743" HC_abs="22.790100" PMx_abs="4.387366" NOx_abs="105.118663" fuel_abs="113.673757" electricity_abs="0"/>
    </tripinfo>
    <tripinfo id="h317c2:1" depart="57707.00" departLane="-32978638#0_1" departPos="5.10" departSpeed="0.00" departDelay="0.10" arrival="57737.00" arrivalLane="-266565295#5_1" arrivalPos="172.76" arrivalSpeed="16.30" duration="30.00" routeLength="370.53" waitingTime="0.00" waitingCount="0" stopTime="0.00" timeLoss="6.54" rerouteNo="1" devices="tripinfo_h317c2:1 routing_h317c2:1 emissions_h317c2:1" vType="default_016" speedFactor="1.18" vaporized="">
        <emissions CO_abs="1909.833362" CO2_abs="124828.060318" HC_abs="11.613228" PMx_abs="2.350486" NOx_abs="51.580503" fuel_abs="53.658044" electricity_abs="0"/>
    </tripinfo>
    <tripinfo id="h3568c1:3" depart="57656.00" departLane="266565295#5_1" departPos="5.10" departSpeed="0.00" departDelay="0.80" arrival="57748.00" arrivalLane="-24634415_1" arrivalPos="62.03" arrivalSpeed="12.49" duration="92.00" routeLength="807.40" waitingTime="0.00" waitingCount="0" stopTime="0.00" timeLoss="21.49" rerouteNo="1" devices="tripinfo_h3568c1:3 routing_h3568c1:3 emissions_h3568c1:3" vType="default_016" speedFactor="0.92" vaporized="">
        <emissions CO_abs="4457.664994" CO2_abs="247131.373157" HC_abs="26.084674" PMx_abs="4.390513" NOx_abs="101.829715" fuel_abs="106.231666" electricity_abs="0"/>
    </tripinfo>
    <tripinfo id="h5979c1:5" depart="57669.00" departLane="399835085#1_1" departPos="5.10" departSpeed="0.00" departDelay="0.00" arrival="57748.00" arrivalLane="-315358254#1_1" arrivalPos="137.16" arrivalSpeed="13.48" duration="79.00" routeLength="659.33" waitingTime="0.00" waitingCount="0" stopTime="0.00" timeLoss="9.49" rerouteNo="1" devices="tripinfo_h5979c1:5 routing_h5979c1:5 emissions_h5979c1:5" vType="default_016" speedFactor="1.06" vaporized="">
        <emissions CO_abs="3278.312051" CO2_abs="176789.439840" HC_abs="18.987123" PMx_abs="2.755335" NOx_abs="70.564299" fuel_abs="75.995190" electricity_abs="0"/>
    </tripinfo>
    <tripinfo id="carIn22761:1" depart="57616.00" departLane="-306240162#1_0" departPos="5.10" departSpeed="0.00" departDelay="2.10" arrival="57754.00" arrivalLane="399835085#1_1" arrivalPos="212.23" arrivalSpeed="7.51" duration="138.00" routeLength="1093.26" waitingTime="45.00" waitingCount="1" stopTime="0.00" timeLoss="60.16" rerouteNo="1" devices="tripinfo_carIn22761:1 routing_carIn22761:1 emissions_carIn22761:1" vType="default_016" speedFactor="1.00" vaporized="">
        <emissions CO_abs="10891.893082" CO2_abs="377848.977741" HC_abs="58.486508" PMx_abs="7.739905" NOx_abs="159.810828" fuel_abs="162.423983" electricity_abs="0"/>
    </tripinfo>
    <tripinfo id="carIn121703:1" depart="57647.00" departLane="386687232#0_1" departPos="5.10" departSpeed="0.00" departDelay="0.30" arrival="57754.00" arrivalLane="-315358244_1" arrivalPos="33.95" arrivalSpeed="11.92" duration="107.00" routeLength="1157.39" waitingTime="3.00" waitingCount="1" stopTime="0.00" timeLoss="17.02" rerouteNo="1" devices="tripinfo_carIn121703:1 routing_carIn121703:1 emissions_carIn121703:1" vType="default_016" speedFactor="0.94" vaporized="">
        <emissions CO_abs="3376.071234" CO2_abs="247442.946024" HC_abs="21.143726" PMx_abs="4.010669" NOx_abs="98.284120" fuel_abs="106.365380" electricity_abs="0"/>
    </tripinfo>
    <tripinfo id="h4538c1:1" depart="57701.00" departLane="-10427692#1_1" departPos="5.10" departSpeed="0.00" departDelay="0.00" arrival="57756.00" arrivalLane="-128361102#1_1" arrivalPos="274.68" arrivalSpeed="12.99" duration="55.00" routeLength="440.74" waitingTime="12.00" waitingCount="1" stopTime="0.00" timeLoss="23.23" rerouteNo="1" devices="tripinfo_h4538c1:1 routing_h4538c1:1 emissions_h4538c1:1" vType="default_016" speedFactor="1.01" vaporized="">
        <emissions CO_abs="2905.311678" CO2_abs="131568.454658" HC_abs="16.287383" PMx_abs="2.412570" NOx_abs="54.222248" fuel_abs="56.556280" electricity_abs="0"/>
    </tripinfo>
    <tripinfo id="carIn30817:1" depart="57681.00" departLane="315358244_1" departPos="5.10" departSpeed="0.00" departDelay="0.20" arrival="57771.00" arrivalLane="447569997#1_1" arrivalPos="180.93" arrivalSpeed="9.01" duration="90.00" routeLength="718.04" waitingTime="13.00" waitingCount="1" stopTime="0.00" timeLoss="35.08" rerouteNo="1" devices="tripinfo_carIn30817:1 routing_carIn30817:1 emissions_carIn30817:1" vType="default_016" speedFactor="1.13" vaporized="">
        <emissions CO_abs="5204.097534" CO2_abs="239166.489448" HC_abs="29.336376" PMx_abs="4.573310" NOx_abs="100.379516" fuel_abs="102.808182" electricity_abs="0"/>
    </tripinfo>
    <tripinfo id="h3326c1:2" depart="57656.00" departLane="22716069#0_1" departPos="5.10" departSpeed="0.00" departDelay="0.00" arrival="57775.00" arrivalLane="24634517#13_1" arrivalPos="111.62" arrivalSpeed="11.94" duration="119.00" routeLength="1312.81" waitingTime="0.00" waitingCount="0" stopTime="0.00" timeLoss="15.39" rerouteNo="1" devices="tripinfo_h3326c1:2 routing_h3326c1:2 emissions_h3326c1:2" vType="default_016" speedFactor="0.94" vaporized="">
        <emissions CO_abs="3726.637302" CO2_abs="287795.067310" HC_abs="23.669741" PMx_abs="4.573482" NOx_abs="113.714731" fuel_abs="123.711039" electricity_abs="0"/>
    </tripinfo>
    <tripinfo id="carIn12365:1" depart="57713.00" departLane="315358244_1" departPos="5.10" departSpeed="0.00" departDelay="0.50" arrival="57782.00" arrivalLane="447569997#1_1" arrivalPos="180.93" arrivalSpeed="8.29" duration="69.00" routeLength="718.04" waitingTime="0.00" waitingCount="0" stopTime="0.00" timeLoss="6.71" rerouteNo="1" devices="tripinfo_carIn12365:1 routing_carIn12365:1 emissions_carIn12365:1" vType="default_016" speedFactor="1.00" vaporized="">
        <emissions CO_abs="2350.522815" CO2_abs="155295.081286" HC_abs="14.280322" PMx_abs="2.437116" NOx_abs="61.359038" fuel_abs="66.755161" electricity_abs="0"/>
    </tripinfo>
    <tripinfo id="h645c1:1" depart="57622.00" departLane="266565295#5_1" departPos="5.10" departSpeed="0.00" departDelay="0.40" arrival="57786.00" arrivalLane="-315358244_1" arrivalPos="33.95" arrivalSpeed="13.07" duration="164.00" routeLength="1910.83" waitingTime="7.00" waitingCount="2" stopTime="0.00" timeLoss="27.18" rerouteNo="1" devices="tripinfo_h645c1:1 routing_h645c1:1 emissions_h645c1:1" vType="default_016" speedFactor="1.02" vaporized="">
        <emissions CO_abs="4629.267717" CO2_abs="383613.850796" HC_abs="29.977146" PMx_abs="6.148597" NOx_abs="150.656196" fuel_abs="164.899267" electricity_abs="0"/>
    </tripinfo>
    <tripinfo id="carIn107282:1" depart="57749.00" departLane="-447569998#1_1" departPos="5.10" departSpeed="0.00" departDelay="0.00" arrival="57789.00" arrivalLane="315358242#0_1" arrivalPos="165.37" arrivalSpeed="16.16" duration="40.00" routeLength="448.50" waitingTime="0.00" waitingCount="0" stopTime="0.00" timeLoss="4.21" rerouteNo="1" devices="tripinfo_carIn107282:1 routing_carIn107282:1 emissions_carIn107282:1" vType="default_016" speedFactor="1.18" vaporized="">
        <emissions CO_abs="1688.071284" CO2_abs="114556.170423" HC_abs="10.360865" PMx_abs="2.001667" NOx_abs="46.380503" fuel_abs="49.242797" electricity_abs="0"/>
    </tripinfo>
    <tripinfo id="carIn27009:1" depart="57673.00" departLane="-447569998#1_1" departPos="5.10" departSpeed="0.00" departDelay="0.50" arrival="57798.00" arrivalLane="-26677539_1" arrivalPos="152.75" arrivalSpeed="7.52" duration="125.00" routeLength="699.63" waitingTime="20.00" waitingCount="1" stopTime="0.00" timeLoss="36.05" rerouteNo="1" devices="tripinfo_carIn27009:1 routing_carIn27009:1 emissions_carIn27009:1" vType="default_015" speedFactor="0.94" vaporized="">
        <emissions CO_abs="6840.040570" CO2_abs="223899.701364" HC_abs="36.299389" PMx_abs="4.020811" NOx_abs="93.332607" fuel_abs="96.247569" electricity_abs="0"/>
    </tripinfo>
    <tripinfo id="carIn50326:1" depart="57651.00" departLane="128361102#0_1" departPos="5.10" departSpeed="0.00" departDelay="0.30" arrival="57800.00" arrivalLane="18809673#0_1" arrivalPos="473.56" arrivalSpeed="14.44" duration="149.00" routeLength="1591.07" waitingTime="4.00" waitingCount="2" stopTime="0.00" timeLoss="27.93" rerouteNo="1" devices="tripinfo_carIn50326:1 routing_carIn50326:1 emissions_carIn50326:1" vType="default_016" speedFactor="1.08" vaporized="">
        <emissions CO_abs="5397.730103" CO2_abs="358634.848414" HC_abs="32.829421" PMx_abs="6.002649" NOx_abs="143.546540" fuel_abs="154.162261" electricity_abs="0"/>
    </tripinfo>
    <tripinfo id="carIn48184:1" depart="57613.00" departLane="-306240162#1_0" departPos="5.10" departSpeed="0.00" departDelay="0.70" arrival="57802.00" arrivalLane="386687235_1" arrivalPos="80.84" arrivalSpeed="12.00" duration="189.00" routeLength="2257.41" waitingTime="5.00" waitingCount="1" stopTime="0.00" timeLoss="32.31" rerouteNo="1" devices="tripinfo_carIn48184:1 routing_carIn48184:1 emissions_carIn48184:1" vType="default_016" speedFactor="0.95" vaporized="">
        <emissions CO_abs="6730.265822" CO2_abs="511410.854373" HC_abs="42.592841" PMx_abs="8.749310" NOx_abs="204.174800" fuel_abs="219.833417" electricity_abs="0"/>
    </tripinfo>
    <tripinfo id="carIn82220:1" depart="57619.00" departLane="-306240162#1_0" departPos="5.10" departSpeed="0.00" departDelay="3.50" arrival="57803.00" arrivalLane="386687235_2" arrivalPos="80.84" arrivalSpeed="13.84" duration="184.00" routeLength="2257.41" waitingTime="3.00" waitingCount="1" stopTime="0.00" timeLoss="41.67" rerouteNo="1" devices="tripinfo_carIn82220:1 routing_carIn82220:1 emissions_carIn82220:1" vType="default_016" speedFactor="1.05" vaporized="">
        <emissions CO_abs="7584.230275" CO2_abs="536715.008616" HC_abs="47.253496" PMx_abs="9.821936" NOx_abs="218.370578" fuel_abs="230.710065" electricity_abs="0"/>
    </tripinfo>
    <tripinfo id="carIn129809:1" depart="57729.00" departLane="-447569998#1_1" departPos="5.10" departSpeed="0.00" departDelay="1.00" arrival="57803.00" arrivalLane="-315358244_1" arrivalPos="33.95" arrivalSpeed="15.04" duration="74.00" routeLength="706.49" waitingTime="10.00" waitingCount="1" stopTime="0.00" timeLoss="20.55" rerouteNo="1" devices="tripinfo_carIn129809:1 routing_carIn129809:1 emissions_carIn129809:1" vType="default_015" speedFactor="1.13" vaporized="">
        <emissions CO_abs="3159.042035" CO2_abs="171505.865884" HC_abs="18.349699" PMx_abs="3.017139" NOx_abs="69.595434" fuel_abs="73.723537" electricity_abs="0"/>
    </tripinfo>
    <tripinfo id="carIn462:1" depart="57622.00" departLane="-306240162#1_0" departPos="5.10" departSpeed="0.00" departDelay="4.80" arrival="57804.00" arrivalLane="386687235_1" arrivalPos="80.84" arrivalSpeed="12.39" duration="182.00" routeLength="2257.41" waitingTime="0.00" waitingCount="0" stopTime="0.00" timeLoss="30.08" rerouteNo="1" devices="tripinfo_carIn462:1 routing_carIn462:1 emissions_carIn462:1" vType="default_016" speedFactor="0.98" vaporized="">
        <emissions CO_abs="6623.654581" CO2_abs="511778.446988" HC_abs="42.200203" PMx_abs="8.816485" NOx_abs="204.351834" fuel_abs="219.991290" electricity_abs="0"/>
    </tripinfo>
    <tripinfo id="h16072c2:3" depart="57663.00" departLane="315358254#0_1" departPos="5.10" departSpeed="0.00" departDelay="2.50" arrival="57805.00" arrivalLane="386687235_2" arrivalPos="80.84" arrivalSpeed="16.28" duration="142.00" routeLength="1611.92" waitingTime="6.00" waitingCount="3" stopTime="0.00" timeLoss="48.11" rerouteNo="1" devices="tripinfo_h16072c2:3 routing_h16072c2:3 emissions_h16072c2:3" vType="default_016" speedFactor="1.26" vaporized="">
        <emissions CO_abs="6269.262010" CO2_abs="411875.508642" HC_abs="38.212911" PMx_abs="7.653561" NOx_abs="169.470419" fuel_abs="177.047152" electricity_abs="0"/>
    </tripinfo>
    <tripinfo id="h330c1:1" depart="57736.00" departLane="-32978638#0_1" departPos="5.10" departSpeed="0.00" departDelay="0.20" arrival="57805.00" arrivalLane="-266565295#5_1" arrivalPos="172.76" arrivalSpeed="13.42" duration="69.00" routeLength="370.53" waitingTime="31.00" waitingCount="1" stopTime="0.00" timeLoss="41.24" rerouteNo="1" devices="tripinfo_h330c1:1 routing_h330c1:1 emissions_h330c1:1" vType="default_016" speedFactor="0.98" vaporized="">
        <emissions CO_abs="6357.038066" CO2_abs="186186.581523" HC_abs="33.329664" PMx_abs="3.885223" NOx_abs="80.212079" fuel_abs="80.035702" electricity_abs="0"/>
    </tripinfo>
    <tripinfo id="carIn80064:1" depart="57603.00" departLane="128361109#1_1" departPos="5.10" departSpeed="0.00" departDelay="0.40" arrival="57815.00" arrivalLane="-315358254#1_1" arrivalPos="137.16" arrivalSpeed="11.39" duration="212.00" routeLength="1587.97" waitingTime="78.00" waitingCount="3" stopTime="0.00" timeLoss="113.76" rerouteNo="1" devices="tripinfo_carIn80064:1 routing_carIn80064:1 emissions_carIn80064:1" vType="default_016" speedFactor="0.90" vaporized="">
        <emissions CO_abs="17069.042102" CO2_abs="602591.909883" HC_abs="92.001341" PMx_abs="12.511857" NOx_abs="256.837943" fuel_abs="259.032470" electricity_abs="0"/>
    </tripinfo>
    <tripinfo id="carIn12858:1" depart="57661.00" departLane="128361109#1_1" departPos="5.10" departSpeed="0.00" departDelay="0.90" arrival="57819.00" arrivalLane="399835085#1_1" arrivalPos="212.23" arrivalSpeed="6.32" duration="158.00" routeLength="1738.12" waitingTime="1.00" waitingCount="1" stopTime="0.00" timeLoss="27.54" rerouteNo="1" devices="tripinfo_carIn12858:1 routing_carIn12858:1 emissions_carIn12858:1" vType="default_016" speedFactor="0.88" vaporized="">
        <emissions CO_abs="7034.360995" CO2_abs="437154.564865" HC_abs="42.321754" PMx_abs="8.000424" NOx_abs="179.115952" fuel_abs="187.914028" electricity_abs="0"/>
    </tripinfo>
    <tripinfo id="carIn82278:1" depart="57702.00" departLane="-306240162#1_0" departPos="5.10" departSpeed="0.00" departDelay="0.70" arrival="57823.00" arrivalLane="399835085#1_1" arrivalPos="212.23" arrivalSpeed="6.91" duration="121.00" routeLength="1093.26" waitingTime="5.00" waitingCount="2" stopTime="0.00" timeLoss="31.86" rerouteNo="1" devices="tripinfo_carIn82278:1 routing_carIn82278:1 emissions_carIn82278:1" vType="default_016" speedFactor="0.88" vaporized="">
        <emissions CO_abs="5583.732523" CO2_abs="313754.422820" HC_abs="32.787070" PMx_abs="5.687841" NOx_abs="128.638179" fuel_abs="134.870088" electricity_abs="0"/>
    </tripinfo>
    <tripinfo id="h11737c1:1" depart="57665.00" departLane="272042143_1" departPos="5.10" departSpeed="0.00" departDelay="1.50" arrival="57826.00" arrivalLane="-315358254#1_1" arrivalPos="137.16" arrivalSpeed="14.63" duration="161.00" routeLength="1596.88" waitingTime="24.00" waitingCount="2" stopTime="0.00" timeLoss="50.71" rerouteNo="1" devices="tripinfo_h11737c1:1 routing_h11737c1:1 emissions_h11737c1:1" vType="default_016" speedFactor="1.06" vaporized="">
        <emissions CO_abs="7536.702229" CO2_abs="397253.287614" HC_abs="43.605748" PMx_abs="7.184926" NOx_abs="162.358357" fuel_abs="170.763270" electricity_abs="0"/>
    </tripinfo>
    <tripinfo id="carIn118591:1" depart="57689.00" departLane="315358244_1" departPos="5.10" departSpeed="0.00" departDelay="0.20" arrival="57827.00" arrivalLane="386687235_1" arrivalPos="80.84" arrivalSpeed="14.50" duration="138.00" routeLength="1186.14" waitingTime="36.00" waitingCount="2" stopTime="0.00" timeLoss="57.27" rerouteNo="1" devices="tripinfo_carIn118591:1 routing_carIn118591:1 emissions_carIn118591:1" vType="default_016" speedFactor="1.07" vaporized="">
        <emissions CO_abs="7833.288855" CO2_abs="342756.263390" HC_abs="43.601761" PMx_abs="6.240092" NOx_abs="140.160969" fuel_abs="147.338269" electricity_abs="0"/>
    </tripinfo>
    <tripinfo id="randUni15030:1" depart="57735.00" departLane="386687232#0_1" departPos="5.10" departSpeed="0.00" departDelay="0.10" arrival="57827.00" arrivalLane="26677539_1" arrivalPos="151.98" arrivalSpeed="9.17" duration="92.00" routeLength="919.89" waitingTime="4.00" waitingCount="1" stopTime="0.00" timeLoss="21.79" rerouteNo="1" devices="tripinfo_randUni15030:1 routing_randUni15030:1 emissions_randUni15030:1" vType="random_016" speedFactor="1.18" vaporized="">
        <emissions CO_abs="3873.545854" CO2_abs="236325.377809" HC_abs="23.186285" PMx_abs="4.142172" NOx_abs="96.126529" fuel_abs="101.586456" electricity_abs="0"/>
    </tripinfo>
    <tripinfo id="carIn126288:1" depart="57674.00" departLane="272042143_1" departPos="5.10" departSpeed="0.00" departDelay="0.00" arrival="57828.00" arrivalLane="-315358254#1_1" arrivalPos="137.16" arrivalSpeed="14.30" duration="154.00" routeLength="1596.88" waitingTime="22.00" waitingCount="2" stopTime="0.00" timeLoss="48.35" rerouteNo="1" devices="tripinfo_carIn126288:1 routing_carIn126288:1 emissions_carIn126288:1" vType="default_016" speedFactor="1.11" vaporized="">
        <emissions CO_abs="6575.482768" CO2_abs="392891.676420" HC_abs="39.118419" PMx_abs="6.944545" NOx_abs="158.825875" fuel_abs="168.887954" electricity_abs="0"/>
    </tripinfo>
    <tripinfo id="carIn81860:1" depart="57712.00" departLane="128361102#0_1" departPos="5.10" departSpeed="0.00" departDelay="0.60" arrival="57832.00" arrivalLane="-24634517#17_1" arrivalPos="6.43" arrivalSpeed="6.76" duration="120.00" routeLength="1229.64" waitingTime="6.00" waitingCount="1" stopTime="0.00" timeLoss="26.09" rerouteNo="1" devices="tripinfo_carIn81860:1 routing_carIn81860:1 emissions_carIn81860:1" vType="default_016" speedFactor="0.96" vaporized="">
        <emissions CO_abs="4390.417567" CO2_abs="279573.169801" HC_abs="26.524072" PMx_abs="4.704479" NOx_abs="112.400771" fuel_abs="120.177024" electricity_abs="0"/>
    </tripinfo>
    <tripinfo id="carIn107084:1" depart="57601.00" departLane="124812856#0_1" departPos="5.10" departSpeed="0.00" departDelay="0.70" arrival="57835.00" arrivalLane="-128361102#1_1" arrivalPos="274.68" arrivalSpeed="13.31" duration="234.00" routeLength="2250.49" waitingTime="39.00" waitingCount="2" stopTime="0.00" timeLoss="74.02" rerouteNo="1" devices="tripinfo_carIn107084:1 routing_carIn107084:1 emissions_carIn107084:1" vType="default_016" speedFactor="1.02" vaporized="">
        <emissions CO_abs="12521.584315" CO2_abs="621740.921427" HC_abs="71.557214" PMx_abs="11.314949" NOx_abs="254.783471" fuel_abs="267.262002" electricity_abs="0"/>
    </tripinfo>
    <tripinfo id="50R_frequency3.17" depart="57674.00" departLane="-18809673#6_1" departPos="12.10" departSpeed="0.00" departDelay="0.70" arrival="57835.00" arrivalLane="201956811#0_1" arrivalPos="40.40" arrivalSpeed="13.50" duration="161.00" routeLength="1954.47" waitingTime="0.00" waitingCount="0" stopTime="0.00" timeLoss="16.68" rerouteNo="1" devices="tripinfo_50R_frequency3.17 routing_50R_frequency3.17 emissions_50R_frequency3.17" vType="bus" speedFactor="1.00" vaporized="">
        <emissions CO_abs="2856.587636" CO2_abs="1821400.159276" HC_abs="607.550958" PMx_abs="307.402641" NOx_abs="14038.299773" fuel_abs="776.825067" electricity_abs="0"/>
    </tripinfo>
    <tripinfo id="carIn8642:1" depart="57774.00" departLane="-447569998#1_1" departPos="5.10" departSpeed="0.00" departDelay="0.90" arrival="57838.00" arrivalLane="-315358244_1" arrivalPos="33.95" arrivalSpeed="14.09" duration="64.00" routeLength="706.49" waitingTime="0.00" waitingCount="0" stopTime="0.00" timeLoss="6.16" rerouteNo="1" devices="tripinfo_carIn8642:1 routing_carIn8642:1 emissions_carIn8642:1" vType="default_016" speedFactor="1.05" vaporized="">
        <emissions CO_abs="1984.821609" CO2_abs="146062.279955" HC_abs="12.374645" PMx_abs="2.335097" NOx_abs="57.584026" fuel_abs="62.786122" electricity_abs="0"/>
    </tripinfo>
    <tripinfo id="carIn31257:1" depart="57630.00" departLane="-306240162#1_0" departPos="5.10" departSpeed="0.00" departDelay="1.60" arrival="57843.00" arrivalLane="386687235_1" arrivalPos="80.84" arrivalSpeed="13.28" duration="213.00" routeLength="2257.41" waitingTime="25.00" waitingCount="2" stopTime="0.00" timeLoss="65.89" rerouteNo="1" devices="tripinfo_carIn31257:1 routing_carIn31257:1 emissions_carIn31257:1" vType="default_016" speedFactor="1.01" vaporized="">
        <emissions CO_abs="9866.162380" CO2_abs="557642.592190" HC_abs="58.026912" PMx_abs="9.969877" NOx_abs="226.747374" fuel_abs="239.707826" electricity_abs="0"/>
    </tripinfo>
    <tripinfo id="h9953c2:3" depart="57682.00" departLane="-54169231#2_1" departPos="5.10" departSpeed="0.00" departDelay="0.00" arrival="57843.00" arrivalLane="386687235_2" arrivalPos="80.84" arrivalSpeed="13.97" duration="161.00" routeLength="1535.60" waitingTime="7.00" waitingCount="2" stopTime="0.00" timeLoss="39.91" rerouteNo="1" devices="tripinfo_h9953c2:3 routing_h9953c2:3 emissions_h9953c2:3" vType="default_016" speedFactor="1.03" vaporized="">
        <emissions CO_abs="6599.563248" CO2_abs="396918.000577" HC_abs="39.343787" PMx_abs="7.065549" NOx_abs="162.794521" fuel_abs="170.618389" electricity_abs="0"/>
    </tripinfo>
    <tripinfo id="h8343c1:5" depart="57679.00" departLane="315358254#0_1" departPos="5.10" departSpeed="0.00" departDelay="0.60" arrival="57844.00" arrivalLane="-24634510#5_1" arrivalPos="236.88" arrivalSpeed="13.39" duration="165.00" routeLength="2056.84" waitingTime="13.00" waitingCount="2" stopTime="0.00" timeLoss="46.42" rerouteNo="1" devices="tripinfo_h8343c1:5 routing_h8343c1:5 emissions_h8343c1:5" vType="default_016" speedFactor="1.06" vaporized="">
        <emissions CO_abs="8917.940286" CO2_abs="589174.960236" HC_abs="54.635291" PMx_abs="11.310168" NOx_abs="241.842636" fuel_abs="253.260107" electricity_abs="0"/>
    </tripinfo>
    <tripinfo id="carIn85747:1" depart="57673.00" departLane="128361109#1_1" departPos="5.10" departSpeed="0.00" departDelay="0.70" arrival="57845.00" arrivalLane="386687235_1" arrivalPos="80.84" arrivalSpeed="13.57" duration="172.00" routeLength="2088.57" waitingTime="5.00" waitingCount="1" stopTime="0.00" timeLoss="22.09" rerouteNo="1" devices="tripinfo_carIn85747:1 routing_carIn85747:1 emissions_carIn85747:1" vType="default_016" speedFactor="1.01" vaporized="">
        <emissions CO_abs="4345.780346" CO2_abs="403262.911341" HC_abs="29.140888" PMx_abs="6.191402" NOx_abs="156.245427" fuel_abs="173.345576" electricity_abs="0"/>
    </tripinfo>
    <tripinfo id="carIn126378:1" depart="57746.00" departLane="386687232#0_1" departPos="5.10" departSpeed="0.00" departDelay="1.80" arrival="57851.00" arrivalLane="-315358244_2" arrivalPos="33.95" arrivalSpeed="15.61" duration="105.00" routeLength="1157.39" waitingTime="12.00" waitingCount="1" stopTime="0.00" timeLoss="30.97" rerouteNo="1" devices="tripinfo_carIn126378:1 routing_carIn126378:1 emissions_carIn126378:1" vType="default_016" speedFactor="1.14" vaporized="">
        <emissions CO_abs="4454.339378" CO2_abs="284974.198581" HC_abs="26.786871" PMx_abs="4.984942" NOx_abs="114.387042" fuel_abs="122.498503" electricity_abs="0"/>