<?xml version="1.0" encoding="UTF-8"?>

<!-- generated on Thu Nov  4 13:24:46 2021 by Eclipse SUMO sumo Version 1.9.0
<configuration xmlns:xsi="http://www.w3.org/2001/XMLSchema-instance" xsi:noNamespaceSchemaLocation="http://sumo.dlr.de/xsd/sumoConfiguration.xsd">

    <input>
        <net-file value="/mainfs/home/bk2g18/RESCO/environments/ingolstadt21/ingolstadt21.net.xml"/>
        <route-files value="/mainfs/home/bk2g18/RESCO/environments/ingolstadt21/ingolstadt21.rou.xml"/>
    </input>

    <output>
        <tripinfo-output value="/mainfs/home/bk2g18/RESCO/logs/MPLight-tr0-ingolstadt21-21-mplight-pressure/tripinfo_22.xml"/>
        <tripinfo-output.write-unfinished value="true"/>
    </output>

    <time>
        <begin value="57600"/>
        <end value="61200"/>
    </time>

    <processing>
        <time-to-teleport value="-1"/>
    </processing>

    <report>
        <xml-validation value="never"/>
        <xml-validation.routes value="never"/>
        <no-warnings value="true"/>
        <no-step-log value="true"/>
    </report>

    <emissions>
        <device.emissions.probability value="1"/>
    </emissions>

    <traci_server>
        <remote-port value="46026"/>
    </traci_server>

    <random_number>
        <random value="true"/>
    </random_number>

</configuration>
-->

<tripinfos xmlns:xsi="http://www.w3.org/2001/XMLSchema-instance" xsi:noNamespaceSchemaLocation="http://sumo.dlr.de/xsd/tripinfo_file.xsd">
    <tripinfo id="carIn60260:1" depart="57606.00" departLane="315358254#0_1" departPos="5.10" departSpeed="0.00" departDelay="0.90" arrival="57657.00" arrivalLane="399835085#1_1" arrivalPos="212.23" arrivalSpeed="8.37" duration="51.00" routeLength="430.98" waitingTime="0.00" waitingCount="0" stopTime="0.00" timeLoss="7.15" rerouteNo="1" devices="tripinfo_carIn60260:1 routing_carIn60260:1 emissions_carIn60260:1" vType="default_016" speedFactor="1.05" vaporized="">
        <emissions CO_abs="2193.042146" CO2_abs="115301.587578" HC_abs="12.649341" PMx_abs="1.885833" NOx_abs="46.570157" fuel_abs="49.563769" electricity_abs="0"/>
    </tripinfo>
    <tripinfo id="h15454c2:3" depart="57612.00" departLane="24608844_1" departPos="5.10" departSpeed="0.00" departDelay="0.50" arrival="57678.00" arrivalLane="32978638#0_1" arrivalPos="49.29" arrivalSpeed="11.99" duration="66.00" routeLength="354.79" waitingTime="14.00" waitingCount="2" stopTime="0.00" timeLoss="29.45" rerouteNo="1" devices="tripinfo_h15454c2:3 routing_h15454c2:3 emissions_h15454c2:3" vType="default_016" speedFactor="0.94" vaporized="">
        <emissions CO_abs="3833.330841" CO2_abs="148147.494885" HC_abs="20.904144" PMx_abs="2.739488" NOx_abs="62.075401" fuel_abs="63.683341" electricity_abs="0"/>
    </tripinfo>
    <tripinfo id="carIn53971:1" depart="57640.00" departLane="272042143_1" departPos="5.10" departSpeed="0.00" departDelay="0.80" arrival="57697.00" arrivalLane="24634414#1_1" arrivalPos="162.19" arrivalSpeed="7.80" duration="57.00" routeLength="493.04" waitingTime="0.00" waitingCount="0" stopTime="0.00" timeLoss="9.02" rerouteNo="1" devices="tripinfo_carIn53971:1 routing_carIn53971:1 emissions_carIn53971:1" vType="default_016" speedFactor="0.95" vaporized="">
        <emissions CO_abs="2566.937424" CO2_abs="141318.815005" HC_abs="14.985370" PMx_abs="2.452917" NOx_abs="57.892530" fuel_abs="60.747276" electricity_abs="0"/>
    </tripinfo>
    <tripinfo id="carIn22761:1" depart="57616.00" departLane="-306240162#1_0" departPos="5.10" departSpeed="0.00" departDelay="2.10" arrival="57720.00" arrivalLane="399835085#1_1" arrivalPos="212.23" arrivalSpeed="8.47" duration="104.00" routeLength="1093.26" waitingTime="6.00" waitingCount="1" stopTime="0.00" timeLoss="33.05" rerouteNo="1" devices="tripinfo_carIn22761:1 routing_carIn22761:1 emissions_carIn22761:1" vType="default_016" speedFactor="1.11" vaporized="">
        <emissions CO_abs="5849.595683" CO2_abs="346078.609609" HC_abs="34.917316" PMx_abs="6.824060" NOx_abs="144.635687" fuel_abs="148.763908" electricity_abs="0"/>
    </tripinfo>
    <tripinfo id="h3688c1:1" depart="57625.00" departLane="201201950#1_1" departPos="5.10" departSpeed="0.00" departDelay="0.00" arrival="57721.00" arrivalLane="32978638#0_1" arrivalPos="49.29" arrivalSpeed="12.75" duration="96.00" routeLength="1089.75" waitingTime="1.00" waitingCount="1" stopTime="0.00" timeLoss="14.59" rerouteNo="1" devices="tripinfo_h3688c1:1 routing_h3688c1:1 emissions_h3688c1:1" vType="default_016" speedFactor="0.99" vaporized="">
        <emissions CO_abs="3224.184650" CO2_abs="243653.441012" HC_abs="20.338273" PMx_abs="3.968196" NOx_abs="96.657933" fuel_abs="104.736334" electricity_abs="0"/>
    </tripinfo>
    <tripinfo id="h12244c1:3" depart="57612.00" departLane="315358244_1" departPos="5.10" departSpeed="0.00" departDelay="0.40" arrival="57722.00" arrivalLane="386687235_1" arrivalPos="80.84" arrivalSpeed="13.59" duration="110.00" routeLength="1186.14" waitingTime="11.00" waitingCount="2" stopTime="0.00" timeLoss="29.59" rerouteNo="1" devices="tripinfo_h12244c1:3 routing_h12244c1:3 emissions_h12244c1:3" vType="default_016" speedFactor="1.07" vaporized="">
        <emissions CO_abs="4286.513886" CO2_abs="279479.336038" HC_abs="26.019155" PMx_abs="4.812508" NOx_abs="112.163527" fuel_abs="120.136515" electricity_abs="0"/>
    </tripinfo>
    <tripinfo id="h7800c1:5" depart="57696.00" departLane="-447569998#1_1" departPos="5.10" departSpeed="0.00" departDelay="0.00" arrival="57725.00" arrivalLane="-447569998#1_2" arrivalPos="180.76" arrivalSpeed="4.47" duration="29.00" routeLength="175.66" waitingTime="2.00" waitingCount="1" stopTime="0.00" timeLoss="8.73" rerouteNo="1" devices="tripinfo_h7800c1:5 routing_h7800c1:5 emissions_h7800c1:5" vType="default_016" speedFactor="1.06" vaporized="">
        <emissions CO_abs="1313.576819" CO2_abs="54193.026251" HC_abs="7.230908" PMx_abs="0.931974" NOx_abs="22.342282" fuel_abs="23.295677" electricity_abs="0"/>
    </tripinfo>
    <tripinfo id="h7181c1:1" depart="57660.00" departLane="315358254#0_1" departPos="5.10" departSpeed="0.00" departDelay="0.10" arrival="57730.00" arrivalLane="306240162#0_0" arrivalPos="220.43" arrivalSpeed="17.31" duration="70.00" routeLength="932.35" waitingTime="8.00" waitingCount="1" stopTime="0.00" timeLoss="20.94" rerouteNo="1" devices="tripinfo_h7181c1:1 routing_h7181c1:1 emissions_h7181c1:1" vType="default_016" speedFactor="1.04" vaporized="">
        <emissions CO_abs="4139.315705" CO2_abs="262423.399289" HC_abs="25.101946" PMx_abs="5.134273" NOx_abs="107.844726" fuel_abs="112.804190" electricity_abs="0"/>
    </tripinfo>
    <tripinfo id="h4538c1:1" depart="57701.00" departLane="-10427692#1_1" departPos="5.10" departSpeed="0.00" departDelay="0.00" arrival="57740.00" arrivalLane="-128361102#1_1" arrivalPos="274.68" arrivalSpeed="13.23" duration="39.00" routeLength="440.74" waitingTime="0.00" waitingCount="0" stopTime="0.00" timeLoss="6.21" rerouteNo="1" devices="tripinfo_h4538c1:1 routing_h4538c1:1 emissions_h4538c1:1" vType="default_016" speedFactor="0.98" vaporized="">
        <emissions CO_abs="1517.938130" CO2_abs="105359.565921" HC_abs="9.389366" PMx_abs="1.832110" NOx_abs="42.736357" fuel_abs="45.289544" electricity_abs="0"/>
    </tripinfo>
    <tripinfo id="h317c2:1" depart="57707.00" departLane="-32978638#0_1" departPos="5.10" departSpeed="0.00" departDelay="0.10" arrival="57740.00" arrivalLane="-266565295#5_1" arrivalPos="172.76" arrivalSpeed="13.26" duration="33.00" routeLength="370.53" waitingTime="0.00" waitingCount="0" stopTime="0.00" timeLoss="5.93" rerouteNo="1" devices="tripinfo_h317c2:1 routing_h317c2:1 emissions_h317c2:1" vType="default_016" speedFactor="1.04" vaporized="">
        <emissions CO_abs="1611.267490" CO2_abs="106287.394241" HC_abs="9.813219" PMx_abs="1.914454" NOx_abs="43.507631" fuel_abs="45.688341" electricity_abs="0"/>
    </tripinfo>
    <tripinfo id="h3568c1:3" depart="57656.00" departLane="266565295#5_1" departPos="5.10" departSpeed="0.00" departDelay="0.80" arrival="57748.00" arrivalLane="-24634415_1" arrivalPos="62.03" arrivalSpeed="12.06" duration="92.00" routeLength="807.40" waitingTime="1.00" waitingCount="1" stopTime="0.00" timeLoss="20.68" rerouteNo="1" devices="tripinfo_h3568c1:3 routing_h3568c1:3 emissions_h3568c1:3" vType="default_016" speedFactor="0.91" vaporized="">
        <emissions CO_abs="4631.464501" CO2_abs="254573.649342" HC_abs="27.061795" PMx_abs="4.591276" NOx_abs="105.375875" fuel_abs="109.430721" electricity_abs="0"/>
    </tripinfo>
    <tripinfo id="carIn80064:1" depart="57603.00" departLane="128361109#1_1" departPos="5.10" departSpeed="0.00" departDelay="0.40" arrival="57751.00" arrivalLane="-315358254#1_1" arrivalPos="137.16" arrivalSpeed="12.73" duration="148.00" routeLength="1587.97" waitingTime="22.00" waitingCount="1" stopTime="0.00" timeLoss="51.74" rerouteNo="1" devices="tripinfo_carIn80064:1 routing_carIn80064:1 emissions_carIn80064:1" vType="default_016" speedFactor="0.93" vaporized="">
        <emissions CO_abs="9534.113813" CO2_abs="509762.491822" HC_abs="55.570342" PMx_abs="9.921603" NOx_abs="211.408656" fuel_abs="219.125446" electricity_abs="0"/>
    </tripinfo>
    <tripinfo id="carIn121703:1" depart="57647.00" departLane="386687232#0_1" departPos="5.10" departSpeed="0.00" departDelay="0.30" arrival="57764.00" arrivalLane="-315358244_1" arrivalPos="33.95" arrivalSpeed="11.26" duration="117.00" routeLength="1157.39" waitingTime="0.00" waitingCount="0" stopTime="0.00" timeLoss="16.16" rerouteNo="1" devices="tripinfo_carIn121703:1 routing_carIn121703:1 emissions_carIn121703:1" vType="default_016" speedFactor="0.84" vaporized="">
        <emissions CO_abs="3526.850804" CO2_abs="247976.479364" HC_abs="21.759616" PMx_abs="3.647441" NOx_abs="96.555756" fuel_abs="106.595366" electricity_abs="0"/>
    </tripinfo>
    <tripinfo id="h3326c1:2" depart="57656.00" departLane="22716069#0_1" departPos="5.10" departSpeed="0.00" departDelay="0.00" arrival="57767.00" arrivalLane="24634517#13_1" arrivalPos="111.62" arrivalSpeed="13.09" duration="111.00" routeLength="1312.81" waitingTime="0.00" waitingCount="0" stopTime="0.00" timeLoss="14.98" rerouteNo="1" devices="tripinfo_h3326c1:2 routing_h3326c1:2 emissions_h3326c1:2" vType="default_016" speedFactor="1.01" vaporized="">
        <emissions CO_abs="4092.842551" CO2_abs="313470.441282" HC_abs="25.937195" PMx_abs="5.320104" NOx_abs="125.822611" fuel_abs="134.747329" electricity_abs="0"/>
    </tripinfo>
    <tripinfo id="carIn30817:1" depart="57681.00" departLane="315358244_1" departPos="5.10" departSpeed="0.00" departDelay="0.20" arrival="57781.00" arrivalLane="447569997#1_1" arrivalPos="180.93" arrivalSpeed="7.31" duration="100.00" routeLength="718.04" waitingTime="21.00" waitingCount="2" stopTime="0.00" timeLoss="38.66" rerouteNo="1" devices="tripinfo_carIn30817:1 routing_carIn30817:1 emissions_carIn30817:1" vType="default_016" speedFactor="1.01" vaporized="">
        <emissions CO_abs="6023.446570" CO2_abs="238772.089073" HC_abs="33.023711" PMx_abs="4.548038" NOx_abs="100.288937" fuel_abs="102.639360" electricity_abs="0"/>
    </tripinfo>
    <tripinfo id="h330c1:1" depart="57736.00" departLane="-32978638#0_1" departPos="5.10" departSpeed="0.00" departDelay="0.20" arrival="57787.00" arrivalLane="-266565295#5_1" arrivalPos="172.76" arrivalSpeed="11.66" duration="51.00" routeLength="370.53" waitingTime="11.00" waitingCount="1" stopTime="0.00" timeLoss="19.90" rerouteNo="1" devices="tripinfo_h330c1:1 routing_h330c1:1 emissions_h330c1:1" vType="default_016" speedFactor="0.87" vaporized="">
        <emissions CO_abs="3239.669728" CO2_abs="131461.299061" HC_abs="17.816471" PMx_abs="2.390446" NOx_abs="54.365493" fuel_abs="56.510509" electricity_abs="0"/>
    </tripinfo>
    <tripinfo id="h11737c1:1" depart="57665.00" departLane="272042143_1" departPos="5.10" departSpeed="0.00" departDelay="1.50" arrival="57788.00" arrivalLane="-315358254#1_1" arrivalPos="137.16" arrivalSpeed="14.32" duration="123.00" routeLength="1596.88" waitingTime="0.00" waitingCount="0" stopTime="0.00" timeLoss="12.69" rerouteNo="1" devices="tripinfo_h11737c1:1 routing_h11737c1:1 emissions_h11737c1:1" vType="default_016" speedFactor="1.06" vaporized="">
        <emissions CO_abs="3704.875645" CO2_abs="333525.912332" HC_abs="24.481250" PMx_abs="5.432976" NOx_abs="131.176120" fuel_abs="143.368196" electricity_abs="0"/>
    </tripinfo>
    <tripinfo id="carIn107084:1" depart="57601.00" departLane="124812856#0_1" departPos="5.10" departSpeed="0.00" departDelay="0.70" arrival="57791.00" arrivalLane="-128361102#1_1" arrivalPos="274.68" arrivalSpeed="15.82" duration="190.00" routeLength="2232.46" waitingTime="16.00" waitingCount="3" stopTime="0.00" timeLoss="56.40" rerouteNo="1" devices="tripinfo_carIn107084:1 routing_carIn107084:1 emissions_carIn107084:1" vType="default_016" speedFactor="1.22" vaporized="">
        <emissions CO_abs="7927.559275" CO2_abs="550253.252846" HC_abs="48.968624" PMx_abs="10.053657" NOx_abs="223.581535" fuel_abs="236.529702" electricity_abs="0"/>
    </tripinfo>
    <tripinfo id="h16072c2:3" depart="57663.00" departLane="315358254#0_1" departPos="5.10" departSpeed="0.00" departDelay="2.50" arrival="57791.00" arrivalLane="386687235_1" arrivalPos="80.84" arrivalSpeed="15.64" duration="128.00" routeLength="1611.92" waitingTime="8.00" waitingCount="1" stopTime="0.00" timeLoss="26.01" rerouteNo="1" devices="tripinfo_h16072c2:3 routing_h16072c2:3 emissions_h16072c2:3" vType="default_016" speedFactor="1.15" vaporized="">
        <emissions CO_abs="4444.605809" CO2_abs="343410.174920" HC_abs="28.081788" PMx_abs="5.839813" NOx_abs="136.126935" fuel_abs="147.617221" electricity_abs="0"/>
    </tripinfo>
    <tripinfo id="h5979c1:5" depart="57669.00" departLane="399835085#1_1" departPos="5.10" departSpeed="0.00" departDelay="0.00" arrival="57791.00" arrivalLane="-315358254#1_1" arrivalPos="137.16" arrivalSpeed="13.63" duration="122.00" routeLength="659.33" waitingTime="38.00" waitingCount="1" stopTime="0.00" timeLoss="53.19" rerouteNo="1" devices="tripinfo_h5979c1:5 routing_h5979c1:5 emissions_h5979c1:5" vType="default_016" speedFactor="1.06" vaporized="">
        <emissions CO_abs="8970.903080" CO2_abs="283549.906738" HC_abs="47.428657" PMx_abs="5.446075" NOx_abs="119.730217" fuel_abs="121.889149" electricity_abs="0"/>
    </tripinfo>
    <tripinfo id="carIn27009:1" depart="57673.00" departLane="-447569998#1_1" departPos="5.10" departSpeed="0.00" departDelay="0.50" arrival="57797.00" arrivalLane="-26677539_1" arrivalPos="152.75" arrivalSpeed="7.64" duration="124.00" routeLength="699.63" waitingTime="20.00" waitingCount="1" stopTime="0.00" timeLoss="37.39" rerouteNo="1" devices="tripinfo_carIn27009:1 routing_carIn27009:1 emissions_carIn27009:1" vType="default_015" speedFactor="0.97" vaporized="">
        <emissions CO_abs="7485.188922" CO2_abs="246160.272665" HC_abs="39.741199" PMx_abs="4.369877" NOx_abs="102.251825" fuel_abs="105.816752" electricity_abs="0"/>
    </tripinfo>
    <tripinfo id="h9563c2:5" depart="57631.00" departLane="315358244_1" departPos="5.10" departSpeed="0.00" departDelay="0.70" arrival="57807.00" arrivalLane="386687235_1" arrivalPos="80.84" arrivalSpeed="12.05" duration="176.00" routeLength="1186.14" waitingTime="67.00" waitingCount="2" stopTime="0.00" timeLoss="85.88" rerouteNo="1" devices="tripinfo_h9563c2:5 routing_h9563c2:5 emissions_h9563c2:5" vType="default_016" speedFactor="0.96" vaporized="">
        <emissions CO_abs="12870.314816" CO2_abs="424493.396133" HC_abs="68.515065" PMx_abs="8.111466" NOx_abs="177.004957" fuel_abs="182.476097" electricity_abs="0"/>
    </tripinfo>
    <tripinfo id="carIn107282:1" depart="57749.00" departLane="-447569998#1_1" departPos="5.10" departSpeed="0.00" departDelay="0.00" arrival="57807.00" arrivalLane="315358242#0_1" arrivalPos="165.37" arrivalSpeed="12.18" duration="58.00" routeLength="448.50" waitingTime="5.00" waitingCount="1" stopTime="0.00" timeLoss="14.04" rerouteNo="1" devices="tripinfo_carIn107282:1 routing_carIn107282:1 emissions_carIn107282:1" vType="default_016" speedFactor="0.96" vaporized="">
        <emissions CO_abs="2299.132076" CO2_abs="123949.875914" HC_abs="13.344053" PMx_abs="2.063504" NOx_abs="50.092616" fuel_abs="53.281255" electricity_abs="0"/>
    </tripinfo>
    <tripinfo id="S5R_frequency1.2" depart="57612.00" departLane="315358250#0_1" departPos="12.10" departSpeed="0.00" departDelay="0.40" arrival="57812.00" arrivalLane="386687235_1" arrivalPos="80.84" arrivalSpeed="13.43" duration="200.00" routeLength="1115.62" waitingTime="86.00" waitingCount="3" stopTime="0.00" timeLoss="118.50" rerouteNo="1" devices="tripinfo_S5R_frequency1.2 routing_S5R_frequency1.2 emissions_S5R_frequency1.2" vType="bus" speedFactor="1.00" vaporized="">
        <emissions CO_abs="3757.252368" CO2_abs="1799266.074770" HC_abs="826.818207" PMx_abs="390.327654" NOx_abs="15463.512158" fuel_abs="767.182600" electricity_abs="0"/>
    </tripinfo>
    <tripinfo id="carIn50326:1" depart="57651.00" departLane="128361102#0_1" departPos="5.10" departSpeed="0.00" departDelay="0.30" arrival="57812.00" arrivalLane="18809673#0_1" arrivalPos="473.56" arrivalSpeed="13.34" duration="161.00" routeLength="1591.07" waitingTime="9.00" waitingCount="1" stopTime="0.00" timeLoss="30.64" rerouteNo="1" devices="tripinfo_carIn50326:1 routing_carIn50326:1 emissions_carIn50326:1" vType="default_016" speedFactor="1.00" vaporized="">
        <emissions CO_abs="5519.976866" CO2_abs="352845.939030" HC_abs="33.351442" PMx_abs="5.837672" NOx_abs="141.270495" fuel_abs="151.674105" electricity_abs="0"/>
    </tripinfo>
    <tripinfo id="h645c1:1" depart="57622.00" departLane="266565295#5_1" departPos="5.10" departSpeed="0.00" departDelay="0.40" arrival="57813.00" arrivalLane="-315358244_1" arrivalPos="33.95" arrivalSpeed="13.47" duration="191.00" routeLength="1910.83" waitingTime="35.00" waitingCount="3" stopTime="0.00" timeLoss="60.15" rerouteNo="1" devices="tripinfo_h645c1:1 routing_h645c1:1 emissions_h645c1:1" vType="default_016" speedFactor="1.06" vaporized="">
        <emissions CO_abs="8554.767343" CO2_abs="455634.631433" HC_abs="49.538662" PMx_abs="8.083896" NOx_abs="184.534108" fuel_abs="195.859294" electricity_abs="0"/>
    </tripinfo>
    <tripinfo id="carIn126288:1" depart="57674.00" departLane="272042143_1" departPos="5.10" departSpeed="0.00" departDelay="0.00" arrival="57816.00" arrivalLane="-315358254#1_1" arrivalPos="137.16" arrivalSpeed="13.34" duration="142.00" routeLength="1596.88" waitingTime="11.00" waitingCount="2" stopTime="0.00" timeLoss="30.77" rerouteNo="1" devices="tripinfo_carIn126288:1 routing_carIn126288:1 emissions_carIn126288:1" vType="default_016" speedFactor="1.04" vaporized="">
        <emissions CO_abs="4608.064115" CO2_abs="346503.822590" HC_abs="28.962101" PMx_abs="5.735374" NOx_abs="137.402431" fuel_abs="148.947303" electricity_abs="0"/>
    </tripinfo>
    <tripinfo id="carIn12365:1" depart="57713.00" departLane="315358244_1" departPos="5.10" departSpeed="0.00" departDelay="0.50" arrival="57816.00" arrivalLane="447569997#1_1" arrivalPos="180.93" arrivalSpeed="9.93" duration="103.00" routeLength="718.04" waitingTime="38.00" waitingCount="1" stopTime="0.00" timeLoss="51.39" rerouteNo="1" devices="tripinfo_carIn12365:1 routing_carIn12365:1 emissions_carIn12365:1" vType="default_016" speedFactor="1.20" vaporized="">
        <emissions CO_abs="8268.781554" CO2_abs="273350.421499" HC_abs="44.029639" PMx_abs="5.515601" NOx_abs="115.856475" fuel_abs="117.504107" electricity_abs="0"/>
    </tripinfo>
    <tripinfo id="h3154c1:1" depart="57658.00" departLane="24634507_1" departPos="5.10" departSpeed="0.00" departDelay="0.00" arrival="57817.00" arrivalLane="-266565295#5_1" arrivalPos="172.76" arrivalSpeed="12.09" duration="159.00" routeLength="1206.22" waitingTime="44.00" waitingCount="2" stopTime="0.00" timeLoss="66.46" rerouteNo="1" devices="tripinfo_h3154c1:1 routing_h3154c1:1 emissions_h3154c1:1" vType="default_016" speedFactor="0.96" vaporized="">
        <emissions CO_abs="10508.587122" CO2_abs="394518.798853" HC_abs="57.103119" PMx_abs="7.541806" NOx_abs="164.982879" fuel_abs="169.589684" electricity_abs="0"/>
    </tripinfo>
    <tripinfo id="carIn118591:1" depart="57689.00" departLane="315358244_1" departPos="5.10" departSpeed="0.00" departDelay="0.20" arrival="57826.00" arrivalLane="386687235_1" arrivalPos="80.84" arrivalSpeed="14.59" duration="137.00" routeLength="1186.14" waitingTime="25.00" waitingCount="2" stopTime="0.00" timeLoss="54.92" rerouteNo="1" devices="tripinfo_carIn118591:1 routing_carIn118591:1 emissions_carIn118591:1" vType="default_016" speedFactor="1.06" vaporized="">
        <emissions CO_abs="7529.098630" CO2_abs="359471.011021" HC_abs="42.653144" PMx_abs="6.607430" NOx_abs="148.154566" fuel_abs="154.522566" electricity_abs="0"/>
    </tripinfo>
    <tripinfo id="h2831c1:1" depart="57600.00" departLane="201089423#0_1" departPos="5.10" departSpeed="0.00" departDelay="0.00" arrival="57832.00" arrivalLane="-315358244_2" arrivalPos="33.95" arrivalSpeed="14.14" duration="232.00" routeLength="2672.18" waitingTime="16.00" waitingCount="3" stopTime="0.00" timeLoss="50.05" rerouteNo="1" devices="tripinfo_h2831c1:1 routing_h2831c1:1 emissions_h2831c1:1" vType="default_016" speedFactor="1.07" vaporized="">
        <emissions CO_abs="7634.840546" CO2_abs="587043.906153" HC_abs="48.185166" PMx_abs="9.787442" NOx_abs="232.771953" fuel_abs="252.345057" electricity_abs="0"/>
    </tripinfo>
    <tripinfo id="randUni15030:1" depart="57735.00" departLane="386687232#0_1" departPos="5.10" departSpeed="0.00" departDelay="0.10" arrival="57833.00" arrivalLane="26677539_1" arrivalPos="151.98" arrivalSpeed="8.06" duration="98.00" routeLength="919.89" waitingTime="2.00" waitingCount="1" stopTime="0.00" timeLoss="15.58" rerouteNo="1" devices="tripinfo_randUni15030:1 routing_randUni15030:1 emissions_randUni15030:1" vType="random_016" speedFactor="1.01" vaporized="">
        <emissions CO_abs="3970.103541" CO2_abs="235858.003054" HC_abs="23.569615" PMx_abs="3.957781" NOx_abs="95.339981" fuel_abs="101.385853" electricity_abs="0"/>
    </tripinfo>
    <tripinfo id="carIn129809:1" depart="57729.00" departLane="-447569998#1_1" departPos="5.10" departSpeed="0.00" departDelay="1.00" arrival="57834.00" arrivalLane="-315358244_1" arrivalPos="33.95" arrivalSpeed="11.83" duration="105.00" routeLength="706.49" waitingTime="25.00" waitingCount="1" stopTime="0.00" timeLoss="35.88" rerouteNo="1" devices="tripinfo_carIn129809:1 routing_carIn129809:1 emissions_carIn129809:1" vType="default_015" speedFactor="0.87" vaporized="">
        <emissions CO_abs="6014.176634" CO2_abs="209361.823005" HC_abs="32.225705" PMx_abs="3.737830" NOx_abs="86.201679" fuel_abs="89.997987" electricity_abs="0"/>
    </tripinfo>
    <tripinfo id="randUni31145:1" depart="57814.00" departLane="10425609#0_1" departPos="5.10" departSpeed="0.00" departDelay="0.30" arrival="57843.00" arrivalLane="201956810_1" arrivalPos="71.65" arrivalSpeed="13.48" duration="29.00" routeLength="255.78" waitingTime="0.00" waitingCount="0" stopTime="0.00" timeLoss="10.54" rerouteNo="1" devices="tripinfo_randUni31145:1 routing_randUni31145:1 emissions_randUni31145:1" vType="random_016" speedFactor="1.05" vaporized="">
        <emissions CO_abs="2035.953300" CO2_abs="109338.194024" HC_abs="11.863300" PMx_abs="2.122594" NOx_abs="46.243729" fuel_abs="46.999792" electricity_abs="0"/>
    </tripinfo>
    <tripinfo id="randUni2407:1" depart="57820.00" departLane="10425609#0_1" departPos="5.10" departSpeed="0.00" departDelay="0.80" arrival="57846.00" arrivalLane="201956810_1" arrivalPos="71.65" arrivalSpeed="12.75" duration="26.00" routeLength="255.78" waitingTime="0.00" waitingCount="0" stopTime="0.00" timeLoss="6.13" rerouteNo="1" devices="tripinfo_randUni2407:1 routing_randUni2407:1 emissions_randUni2407:1" vType="random_016" speedFactor="1.00" vaporized="">
        <emissions CO_abs="1553.775681" CO2_abs="92091.757298" HC_abs="9.242810" PMx_abs="1.671091" NOx_abs="38.087261" fuel_abs="39.586342" electricity_abs="0"/>
    </tripinfo>
    <tripinfo id="carIn86816:1" depart="57617.00" departLane="128361102#0_1" departPos="5.10" departSpeed="0.00" departDelay="0.80" arrival="57847.00" arrivalLane="201956811#0_1" arrivalPos="40.40" arrivalSpeed="11.16" duration="230.00" routeLength="2067.33" waitingTime="19.00" waitingCount="2" stopTime="0.00" timeLoss="47.87" rerouteNo="1" devices="tripinfo_carIn86816:1 routing_carIn86816:1 emissions_carIn86816:1" vType="default_016" speedFactor="0.83" vaporized="">
        <emissions CO_abs="8127.912211" CO2_abs="470505.209606" HC_abs="47.904162" PMx_abs="7.591741" NOx_abs="188.008867" fuel_abs="202.251898" electricity_abs="0"/>
    </tripinfo>
    <tripinfo id="carIn81860:1" depart="57712.00" departLane="128361102#0_1" departPos="5.10" departSpeed="0.00" departDelay="0.60" arrival="57847.00" arrivalLane="-24634517#17_1" arrivalPos="6.43" arrivalSpeed="6.03" duration="135.00" routeLength="1229.64" waitingTime="9.00" waitingCount="1" stopTime="0.00" timeLoss="30.82" rerouteNo="1" devices="tripinfo_carIn81860:1 routing_carIn81860:1 emissions_carIn81860:1" vType="default_016" speedFactor="0.86" vaporized="">
        <emissions CO_abs="4367.039656" CO2_abs="278851.922730" HC_abs="26.339510" PMx_abs="4.409239" NOx_abs="110.745286" fuel_abs="119.867363" electricity_abs="0"/>
    </tripinfo>
    <tripinfo id="carIn8642:1" depart="57774.00" departLane="-447569998#1_1" departPos="5.10" departSpeed="0.00" departDelay="0.90" arrival="57847.00" arrivalLane="-315358244_1" arrivalPos="33.95" arrivalSpeed="12.24" duration="73.00" routeLength="706.49" waitingTime="1.00" waitingCount="1" stopTime="0.00" timeLoss="10.37" rerouteNo="1" devices="tripinfo_carIn8642:1 routing_carIn8642:1 emissions_carIn8642:1" vType="default_016" speedFactor="0.96" vaporized="">
        <emissions CO_abs="2596.537534" CO2_abs="159603.959367" HC_abs="15.511761" PMx_abs="2.522829" NOx_abs="63.269967" fuel_abs="68.607496" electricity_abs="0"/>
    </tripinfo>
    <tripinfo id="h17600c1:1" depart="57662.00" departLane="272042143_1" departPos="5.10" departSpeed="0.00" departDelay="0.30" arrival="57850.00" arrivalLane="201238729#3_1" arrivalPos="431.02" arrivalSpeed="14.49" duration="188.00" routeLength="2100.26" waitingTime="27.00" waitingCount="1" stopTime="0.00" timeLoss="43.11" rerouteNo="1" devices="tripinfo_h17600c1:1 routing_h17600c1:1 emissions_h17600c1:1" vType="default_016" speedFactor="1.04" vaporized="">
        <emissions CO_abs="8214.174390" CO2_abs="474318.299834" HC_abs="48.419971" PMx_abs="8.141221" NOx_abs="189.541109" fuel_abs="203.890576" electricity_abs="0"/>
    </tripinfo>
    <tripinfo id="carIn12858:1" depart="57661.00" departLane="128361109#1_1" departPos="5.10" departSpeed="0.00" departDelay="0.90" arrival="57861.00" arrivalLane="399835085#1_1" arrivalPos="212.23" arrivalSpeed="7.93" duration="200.00" routeLength="1738.12" waitingTime="58.00" waitingCount="3" stopTime="0.00" timeLoss="92.83" rerouteNo="1" devices="tripinfo_carIn12858:1 routing_carIn12858:1 emissions_carIn12858:1" vType="default_016" speedFactor="1.08" vaporized="">
        <emissions CO_abs="15032.721995" CO2_abs="626667.942303" HC_abs="83.391677" PMx_abs="12.831195" NOx_abs="264.094136" fuel_abs="269.380030" electricity_abs="0"/>
    </tripinfo>
    <tripinfo id="h8343c1:5" depart="57679.00" departLane="315358254#0_1" departPos="5.10" departSpeed="0.00" departDelay="0.60" arrival="57867.00" arrivalLane="-24634510#5_1" arrivalPos="236.88" arrivalSpeed="13.12" duration="188.00" routeLength="2056.84" waitingTime="35.00" waitingCount="3" stopTime="0.00" timeLoss="65.79" rerouteNo="1" devices="tripinfo_h8343c1:5 routing_h8343c1:5 emissions_h8343c1:5" vType="default_016" speedFactor="1.02" vaporized="">
        <emissions CO_abs="10901.821832" CO2_abs="612539.166410" HC_abs="64.266409" PMx_abs="11.988883" NOx_abs="253.837979" fuel_abs="263.304299" electricity_abs="0"/>
    </tripinfo>
    <tripinfo id="carIn28951:1" depart="57606.00" departLane="10425609#0_1" departPos="5.10" departSpeed="0.00" departDelay="0.20" arrival="57871.00" arrivalLane="-128361102#1_1" arrivalPos="274.68" arrivalSpeed="11.01" duration="265.00" routeLength="2113.04" waitingTime="55.00" waitingCount="4" stopTime="0.00" timeLoss="87.22" rerouteNo="1" devices="tripinfo_carIn28951:1 routing_carIn28951:1 emissions_carIn28951:1" vType="default_016" speedFactor="0.87" vaporized="">
        <emissions CO_abs="13358.273604" CO2_abs="584961.722271" HC_abs="74.409381" PMx_abs="10.137662" NOx_abs="238.038780" fuel_abs="251.454041" electricity_abs="0"/>
    </tripinfo>
    <tripinfo id="carIn77943:1" depart="57608.00" departLane="124812856#0_1" departPos="5.10" departSpeed="0.00" departDelay="2.50" arrival="57872.00" arrivalLane="-128361102#1_1" arrivalPos="274.68" arrivalSpeed="14.13" duration="264.00" routeLength="2250.49" waitingTime="49.00" waitingCount="3" stopTime="0.00" timeLoss="107.86" rerouteNo="1" devices="tripinfo_carIn77943:1 routing_carIn77943:1 emissions_carIn77943:1" vType="default_016" speedFactor="1.05" vaporized="">
        <emissions CO_abs="15047.787623" CO2_abs="701024.753800" HC_abs="85.042115" PMx_abs="13.279880" NOx_abs="292.770710" fuel_abs="301.342801" electricity_abs="0"/>
    </tripinfo>
    <tripinfo id="randUni33724:1" depart="57646.00" departLane="128361102#0_1" departPos="5.10" departSpeed="0.00" departDelay="1.20" arrival="57872.00" arrivalLane="201956811#0_1" arrivalPos="40.40" arrivalSpeed="14.06" duration="226.00" routeLength="2067.33" waitingTime="39.00" waitingCount="3" stopTime="0.00" timeLoss="79.79" rerouteNo="1" devices="tripinfo_randUni33724:1 routing_randUni33724:1 emissions_randUni33724:1" vType="random_016" speedFactor="1.04" vaporized="">
        <emissions CO_abs="11370.824901" CO2_abs="564207.366874" HC_abs="64.968227" PMx_abs="10.286243" NOx_abs="231.881962" fuel_abs="242.530508" electricity_abs="0"/>