<?xml version="1.0" encoding="UTF-8"?>

<!-- generated on Thu Nov  4 13:26:32 2021 by Eclipse SUMO sumo Version 1.9.0
<configuration xmlns:xsi="http://www.w3.org/2001/XMLSchema-instance" xsi:noNamespaceSchemaLocation="http://sumo.dlr.de/xsd/sumoConfiguration.xsd">

    <input>
        <net-file value="/mainfs/home/bk2g18/RESCO/environments/ingolstadt21/ingolstadt21.net.xml"/>
        <route-files value="/mainfs/home/bk2g18/RESCO/environments/ingolstadt21/ingolstadt21.rou.xml"/>
    </input>

    <output>
        <tripinfo-output value="/mainfs/home/bk2g18/RESCO/logs/MPLight-tr0-ingolstadt21-21-mplight-pressure/tripinfo_25.xml"/>
        <tripinfo-output.write-unfinished value="true"/>
    </output>

    <time>
        <begin value="57600"/>
        <end value="61200"/>
    </time>

    <processing>
        <time-to-teleport value="-1"/>
    </processing>

    <report>
        <xml-validation value="never"/>
        <xml-validation.routes value="never"/>
        <no-warnings value="true"/>
        <no-step-log value="true"/>
    </report>

    <emissions>
        <device.emissions.probability value="1"/>
    </emissions>

    <traci_server>
        <remote-port value="43165"/>
    </traci_server>

    <random_number>
        <random value="true"/>
    </random_number>

</configuration>
-->

<tripinfos xmlns:xsi="http://www.w3.org/2001/XMLSchema-instance" xsi:noNamespaceSchemaLocation="http://sumo.dlr.de/xsd/tripinfo_file.xsd">
    <tripinfo id="h15454c2:3" depart="57612.00" departLane="24608844_1" departPos="5.10" departSpeed="0.00" departDelay="0.50" arrival="57648.00" arrivalLane="32978638#0_1" arrivalPos="49.29" arrivalSpeed="15.16" duration="36.00" routeLength="354.79" waitingTime="0.00" waitingCount="0" stopTime="0.00" timeLoss="5.35" rerouteNo="1" devices="tripinfo_h15454c2:3 routing_h15454c2:3 emissions_h15454c2:3" vType="default_016" speedFactor="1.12" vaporized="">
        <emissions CO_abs="1841.078982" CO2_abs="109288.544367" HC_abs="10.907789" PMx_abs="1.925930" NOx_abs="44.680604" fuel_abs="46.978605" electricity_abs="0"/>
    </tripinfo>
    <tripinfo id="carIn60260:1" depart="57606.00" departLane="315358254#0_1" departPos="5.10" departSpeed="0.00" departDelay="0.90" arrival="57679.00" arrivalLane="399835085#1_1" arrivalPos="212.23" arrivalSpeed="8.88" duration="73.00" routeLength="430.98" waitingTime="21.00" waitingCount="1" stopTime="0.00" timeLoss="31.60" rerouteNo="1" devices="tripinfo_carIn60260:1 routing_carIn60260:1 emissions_carIn60260:1" vType="default_016" speedFactor="1.11" vaporized="">
        <emissions CO_abs="5061.119394" CO2_abs="168951.293964" HC_abs="26.991387" PMx_abs="3.279077" NOx_abs="71.569684" fuel_abs="72.626531" electricity_abs="0"/>
    </tripinfo>
    <tripinfo id="carIn53971:1" depart="57640.00" departLane="272042143_1" departPos="5.10" departSpeed="0.00" departDelay="0.80" arrival="57704.00" arrivalLane="24634414#1_1" arrivalPos="162.19" arrivalSpeed="5.80" duration="64.00" routeLength="493.04" waitingTime="0.00" waitingCount="0" stopTime="0.00" timeLoss="8.98" rerouteNo="1" devices="tripinfo_carIn53971:1 routing_carIn53971:1 emissions_carIn53971:1" vType="default_016" speedFactor="0.84" vaporized="">
        <emissions CO_abs="2636.252428" CO2_abs="126552.172413" HC_abs="14.922852" PMx_abs="2.093806" NOx_abs="51.410187" fuel_abs="54.400112" electricity_abs="0"/>
    </tripinfo>
    <tripinfo id="h12244c1:3" depart="57612.00" departLane="315358244_1" departPos="5.10" departSpeed="0.00" departDelay="0.40" arrival="57726.00" arrivalLane="386687235_1" arrivalPos="80.84" arrivalSpeed="11.66" duration="114.00" routeLength="1186.14" waitingTime="3.00" waitingCount="1" stopTime="0.00" timeLoss="16.89" rerouteNo="1" devices="tripinfo_h12244c1:3 routing_h12244c1:3 emissions_h12244c1:3" vType="default_016" speedFactor="0.89" vaporized="">
        <emissions CO_abs="3481.136946" CO2_abs="248387.656874" HC_abs="21.619506" PMx_abs="3.938795" NOx_abs="98.428791" fuel_abs="106.771649" electricity_abs="0"/>
    </tripinfo>
    <tripinfo id="carIn80064:1" depart="57603.00" departLane="128361109#1_1" departPos="5.10" departSpeed="0.00" departDelay="0.40" arrival="57729.00" arrivalLane="-315358254#1_1" arrivalPos="137.16" arrivalSpeed="12.30" duration="126.00" routeLength="1587.97" waitingTime="9.00" waitingCount="1" stopTime="0.00" timeLoss="33.20" rerouteNo="1" devices="tripinfo_carIn80064:1 routing_carIn80064:1 emissions_carIn80064:1" vType="default_016" speedFactor="0.97" vaporized="">
        <emissions CO_abs="6485.842692" CO2_abs="444085.040891" HC_abs="40.134043" PMx_abs="8.458549" NOx_abs="182.139509" fuel_abs="190.892282" electricity_abs="0"/>
    </tripinfo>
    <tripinfo id="h7800c1:5" depart="57696.00" departLane="-447569998#1_1" departPos="5.10" departSpeed="0.00" departDelay="0.00" arrival="57730.00" arrivalLane="-447569998#1_2" arrivalPos="180.76" arrivalSpeed="5.08" duration="34.00" routeLength="175.66" waitingTime="0.00" waitingCount="0" stopTime="0.00" timeLoss="5.32" rerouteNo="1" devices="tripinfo_h7800c1:5 routing_h7800c1:5 emissions_h7800c1:5" vType="default_016" speedFactor="0.76" vaporized="">
        <emissions CO_abs="1770.675479" CO2_abs="58010.962123" HC_abs="9.379585" PMx_abs="0.958017" NOx_abs="23.789793" fuel_abs="24.937233" electricity_abs="0"/>
    </tripinfo>
    <tripinfo id="S5R_frequency1.2" depart="57616.00" departLane="315358250#0_1" departPos="12.10" departSpeed="0.00" departDelay="4.40" arrival="57731.00" arrivalLane="386687235_1" arrivalPos="80.84" arrivalSpeed="13.53" duration="115.00" routeLength="1115.62" waitingTime="3.00" waitingCount="1" stopTime="0.00" timeLoss="33.21" rerouteNo="1" devices="tripinfo_S5R_frequency1.2 routing_S5R_frequency1.2 emissions_S5R_frequency1.2" vType="bus" speedFactor="1.00" vaporized="">
        <emissions CO_abs="2356.348242" CO2_abs="1456246.321057" HC_abs="486.633416" PMx_abs="251.414793" NOx_abs="11368.189257" fuel_abs="621.054088" electricity_abs="0"/>
    </tripinfo>
    <tripinfo id="h3688c1:1" depart="57625.00" departLane="201201950#1_1" departPos="5.10" departSpeed="0.00" departDelay="0.00" arrival="57734.00" arrivalLane="32978638#0_1" arrivalPos="49.29" arrivalSpeed="12.23" duration="109.00" routeLength="1089.75" waitingTime="6.00" waitingCount="1" stopTime="0.00" timeLoss="23.52" rerouteNo="1" devices="tripinfo_h3688c1:1 routing_h3688c1:1 emissions_h3688c1:1" vType="default_016" speedFactor="0.93" vaporized="">
        <emissions CO_abs="3712.307693" CO2_abs="258693.167125" HC_abs="22.926521" PMx_abs="4.185373" NOx_abs="102.939363" fuel_abs="111.201523" electricity_abs="0"/>
    </tripinfo>
    <tripinfo id="h7181c1:1" depart="57660.00" departLane="315358254#0_1" departPos="5.10" departSpeed="0.00" departDelay="0.10" arrival="57740.00" arrivalLane="306240162#0_0" arrivalPos="220.43" arrivalSpeed="17.68" duration="80.00" routeLength="932.35" waitingTime="12.00" waitingCount="2" stopTime="0.00" timeLoss="33.30" rerouteNo="1" devices="tripinfo_h7181c1:1 routing_h7181c1:1 emissions_h7181c1:1" vType="default_016" speedFactor="1.10" vaporized="">
        <emissions CO_abs="6043.238209" CO2_abs="364236.128871" HC_abs="36.268891" PMx_abs="7.378243" NOx_abs="152.143565" fuel_abs="156.568763" electricity_abs="0"/>
    </tripinfo>
    <tripinfo id="h317c2:1" depart="57707.00" departLane="-32978638#0_1" departPos="5.10" departSpeed="0.00" departDelay="0.10" arrival="57745.00" arrivalLane="-266565295#5_1" arrivalPos="172.76" arrivalSpeed="13.15" duration="38.00" routeLength="370.53" waitingTime="1.00" waitingCount="1" stopTime="0.00" timeLoss="10.49" rerouteNo="1" devices="tripinfo_h317c2:1 routing_h317c2:1 emissions_h317c2:1" vType="default_016" speedFactor="1.00" vaporized="">
        <emissions CO_abs="2015.586005" CO2_abs="121833.202130" HC_abs="12.022566" PMx_abs="2.128771" NOx_abs="49.595144" fuel_abs="52.371044" electricity_abs="0"/>
    </tripinfo>
    <tripinfo id="h9563c2:5" depart="57631.00" departLane="315358244_1" departPos="5.10" departSpeed="0.00" departDelay="0.70" arrival="57757.00" arrivalLane="386687235_1" arrivalPos="80.84" arrivalSpeed="13.61" duration="126.00" routeLength="1186.14" waitingTime="14.00" waitingCount="4" stopTime="0.00" timeLoss="38.59" rerouteNo="1" devices="tripinfo_h9563c2:5 routing_h9563c2:5 emissions_h9563c2:5" vType="default_016" speedFactor="1.00" vaporized="">
        <emissions CO_abs="5593.148182" CO2_abs="333934.598316" HC_abs="33.246439" PMx_abs="5.741184" NOx_abs="134.768877" fuel_abs="143.544903" electricity_abs="0"/>
    </tripinfo>
    <tripinfo id="carIn30817:1" depart="57681.00" departLane="315358244_1" departPos="5.10" departSpeed="0.00" departDelay="0.20" arrival="57758.00" arrivalLane="447569997#1_1" arrivalPos="180.93" arrivalSpeed="8.29" duration="77.00" routeLength="718.04" waitingTime="8.00" waitingCount="1" stopTime="0.00" timeLoss="22.74" rerouteNo="1" devices="tripinfo_carIn30817:1 routing_carIn30817:1 emissions_carIn30817:1" vType="default_016" speedFactor="1.13" vaporized="">
        <emissions CO_abs="3008.394736" CO2_abs="178453.664152" HC_abs="17.762547" PMx_abs="3.034494" NOx_abs="71.808143" fuel_abs="76.710024" electricity_abs="0"/>
    </tripinfo>
    <tripinfo id="h330c1:1" depart="57736.00" departLane="-32978638#0_1" departPos="5.10" departSpeed="0.00" departDelay="0.20" arrival="57765.00" arrivalLane="-266565295#5_1" arrivalPos="172.76" arrivalSpeed="16.01" duration="29.00" routeLength="370.53" waitingTime="0.00" waitingCount="0" stopTime="0.00" timeLoss="6.26" rerouteNo="1" devices="tripinfo_h330c1:1 routing_h330c1:1 emissions_h330c1:1" vType="default_016" speedFactor="1.21" vaporized="">
        <emissions CO_abs="2027.807573" CO2_abs="123845.214232" HC_abs="12.158626" PMx_abs="2.504872" NOx_abs="52.466464" fuel_abs="53.235395" electricity_abs="0"/>
    </tripinfo>
    <tripinfo id="h5979c1:5" depart="57669.00" departLane="399835085#1_1" departPos="5.10" departSpeed="0.00" departDelay="0.00" arrival="57769.00" arrivalLane="-315358254#1_1" arrivalPos="137.16" arrivalSpeed="11.48" duration="100.00" routeLength="659.33" waitingTime="3.00" waitingCount="1" stopTime="0.00" timeLoss="17.53" rerouteNo="1" devices="tripinfo_h5979c1:5 routing_h5979c1:5 emissions_h5979c1:5" vType="default_016" speedFactor="0.89" vaporized="">
        <emissions CO_abs="4173.794749" CO2_abs="183198.184481" HC_abs="23.188631" PMx_abs="2.884218" NOx_abs="73.644609" fuel_abs="78.750656" electricity_abs="0"/>
    </tripinfo>
    <tripinfo id="carIn27009:1" depart="57673.00" departLane="-447569998#1_1" departPos="5.10" departSpeed="0.00" departDelay="0.50" arrival="57773.00" arrivalLane="-26677539_1" arrivalPos="152.75" arrivalSpeed="7.78" duration="100.00" routeLength="699.63" waitingTime="4.00" waitingCount="1" stopTime="0.00" timeLoss="17.53" rerouteNo="1" devices="tripinfo_carIn27009:1 routing_carIn27009:1 emissions_carIn27009:1" vType="default_015" speedFactor="1.02" vaporized="">
        <emissions CO_abs="4049.874872" CO2_abs="189604.333417" HC_abs="22.795415" PMx_abs="3.080078" NOx_abs="76.953887" fuel_abs="81.504053" electricity_abs="0"/>
    </tripinfo>
    <tripinfo id="carIn121703:1" depart="57647.00" departLane="386687232#0_1" departPos="5.10" departSpeed="0.00" departDelay="0.30" arrival="57774.00" arrivalLane="-315358244_1" arrivalPos="33.95" arrivalSpeed="12.16" duration="127.00" routeLength="1157.39" waitingTime="11.00" waitingCount="2" stopTime="0.00" timeLoss="32.91" rerouteNo="1" devices="tripinfo_carIn121703:1 routing_carIn121703:1 emissions_carIn121703:1" vType="default_016" speedFactor="0.89" vaporized="">
        <emissions CO_abs="4633.364825" CO2_abs="282057.581050" HC_abs="27.673727" PMx_abs="4.737274" NOx_abs="113.783313" fuel_abs="121.245112" electricity_abs="0"/>
    </tripinfo>
    <tripinfo id="h3326c1:2" depart="57656.00" departLane="22716069#0_1" departPos="5.10" departSpeed="0.00" departDelay="0.00" arrival="57776.00" arrivalLane="24634517#13_1" arrivalPos="111.62" arrivalSpeed="12.75" duration="120.00" routeLength="1312.81" waitingTime="0.00" waitingCount="0" stopTime="0.00" timeLoss="15.10" rerouteNo="1" devices="tripinfo_h3326c1:2 routing_h3326c1:2 emissions_h3326c1:2" vType="default_016" speedFactor="0.93" vaporized="">
        <emissions CO_abs="3884.095530" CO2_abs="294274.159917" HC_abs="24.533035" PMx_abs="4.674628" NOx_abs="116.391383" fuel_abs="126.496182" electricity_abs="0"/>
    </tripinfo>
    <tripinfo id="carIn12365:1" depart="57713.00" departLane="315358244_1" departPos="5.10" departSpeed="0.00" departDelay="0.50" arrival="57792.00" arrivalLane="447569997#1_1" arrivalPos="180.93" arrivalSpeed="7.77" duration="79.00" routeLength="718.04" waitingTime="8.00" waitingCount="1" stopTime="0.00" timeLoss="20.07" rerouteNo="1" devices="tripinfo_carIn12365:1 routing_carIn12365:1 emissions_carIn12365:1" vType="default_016" speedFactor="1.05" vaporized="">
        <emissions CO_abs="2894.838146" CO2_abs="172183.791566" HC_abs="17.142335" PMx_abs="2.901714" NOx_abs="69.391179" fuel_abs="74.014872" electricity_abs="0"/>
    </tripinfo>
    <tripinfo id="carIn129809:1" depart="57729.00" departLane="-447569998#1_1" departPos="5.10" departSpeed="0.00" departDelay="1.00" arrival="57793.00" arrivalLane="-315358244_1" arrivalPos="33.95" arrivalSpeed="13.56" duration="64.00" routeLength="706.49" waitingTime="0.00" waitingCount="0" stopTime="0.00" timeLoss="6.77" rerouteNo="1" devices="tripinfo_carIn129809:1 routing_carIn129809:1 emissions_carIn129809:1" vType="default_015" speedFactor="1.06" vaporized="">
        <emissions CO_abs="2101.594166" CO2_abs="153072.973189" HC_abs="12.994465" PMx_abs="2.366514" NOx_abs="59.752787" fuel_abs="65.799867" electricity_abs="0"/>
    </tripinfo>
    <tripinfo id="h3568c1:3" depart="57656.00" departLane="266565295#5_1" departPos="5.10" departSpeed="0.00" departDelay="0.80" arrival="57795.00" arrivalLane="-24634415_1" arrivalPos="62.03" arrivalSpeed="9.99" duration="139.00" routeLength="807.40" waitingTime="39.00" waitingCount="1" stopTime="0.00" timeLoss="58.26" rerouteNo="1" devices="tripinfo_h3568c1:3 routing_h3568c1:3 emissions_h3568c1:3" vType="default_016" speedFactor="0.80" vaporized="">
        <emissions CO_abs="9689.566933" CO2_abs="304613.763433" HC_abs="51.218285" PMx_abs="5.907289" NOx_abs="128.922123" fuel_abs="130.943804" electricity_abs="0"/>
    </tripinfo>
    <tripinfo id="h11737c1:1" depart="57665.00" departLane="272042143_1" departPos="5.10" departSpeed="0.00" departDelay="1.50" arrival="57796.00" arrivalLane="-315358254#1_1" arrivalPos="137.16" arrivalSpeed="12.62" duration="131.00" routeLength="1596.88" waitingTime="0.00" waitingCount="0" stopTime="0.00" timeLoss="12.78" rerouteNo="1" devices="tripinfo_h11737c1:1 routing_h11737c1:1 emissions_h11737c1:1" vType="default_016" speedFactor="0.98" vaporized="">
        <emissions CO_abs="3308.803185" CO2_abs="305952.756270" HC_abs="22.181014" PMx_abs="4.637659" NOx_abs="118.483405" fuel_abs="131.516153" electricity_abs="0"/>
    </tripinfo>
    <tripinfo id="h3154c1:1" depart="57658.00" departLane="24634507_1" departPos="5.10" departSpeed="0.00" departDelay="0.00" arrival="57797.00" arrivalLane="-266565295#5_1" arrivalPos="172.76" arrivalSpeed="12.85" duration="139.00" routeLength="1206.22" waitingTime="27.00" waitingCount="2" stopTime="0.00" timeLoss="47.17" rerouteNo="1" devices="tripinfo_h3154c1:1 routing_h3154c1:1 emissions_h3154c1:1" vType="default_016" speedFactor="0.97" vaporized="">
        <emissions CO_abs="6855.913788" CO2_abs="347554.839390" HC_abs="39.345909" PMx_abs="6.202329" NOx_abs="142.082755" fuel_abs="149.400197" electricity_abs="0"/>
    </tripinfo>
    <tripinfo id="carIn12152:1" depart="57647.00" departLane="24599188#0.94_1" departPos="5.10" departSpeed="0.00" departDelay="0.50" arrival="57801.00" arrivalLane="-315358254#1_1" arrivalPos="137.16" arrivalSpeed="14.71" duration="154.00" routeLength="2034.31" waitingTime="0.00" waitingCount="0" stopTime="0.00" timeLoss="15.60" rerouteNo="1" devices="tripinfo_carIn12152:1 routing_carIn12152:1 emissions_carIn12152:1" vType="default_016" speedFactor="1.14" vaporized="">
        <emissions CO_abs="4822.621478" CO2_abs="423225.074949" HC_abs="31.540378" PMx_abs="7.002996" NOx_abs="166.591752" fuel_abs="181.925918" electricity_abs="0"/>
    </tripinfo>
    <tripinfo id="h4538c1:1" depart="57701.00" departLane="-10427692#1_1" departPos="5.10" departSpeed="0.00" departDelay="0.00" arrival="57808.00" arrivalLane="-128361102#1_1" arrivalPos="274.68" arrivalSpeed="12.69" duration="107.00" routeLength="440.74" waitingTime="63.00" waitingCount="1" stopTime="0.00" timeLoss="73.00" rerouteNo="1" devices="tripinfo_h4538c1:1 routing_h4538c1:1 emissions_h4538c1:1" vType="default_016" speedFactor="0.95" vaporized="">
        <emissions CO_abs="11115.340985" CO2_abs="257828.828513" HC_abs="56.654420" PMx_abs="5.595481" NOx_abs="112.431386" fuel_abs="110.834083" electricity_abs="0"/>
    </tripinfo>
    <tripinfo id="carIn118591:1" depart="57689.00" departLane="315358244_1" departPos="5.10" departSpeed="0.00" departDelay="0.20" arrival="57817.00" arrivalLane="386687235_1" arrivalPos="80.84" arrivalSpeed="14.49" duration="128.00" routeLength="1186.14" waitingTime="23.00" waitingCount="4" stopTime="0.00" timeLoss="49.20" rerouteNo="1" devices="tripinfo_carIn118591:1 routing_carIn118591:1 emissions_carIn118591:1" vType="default_016" speedFactor="1.10" vaporized="">
        <emissions CO_abs="6119.380271" CO2_abs="310278.557923" HC_abs="35.132148" PMx_abs="5.682747" NOx_abs="127.207339" fuel_abs="133.376417" electricity_abs="0"/>
    </tripinfo>
    <tripinfo id="carIn81860:1" depart="57712.00" departLane="128361102#0_1" departPos="5.10" departSpeed="0.00" departDelay="0.60" arrival="57826.00" arrivalLane="-24634517#17_1" arrivalPos="6.43" arrivalSpeed="6.80" duration="114.00" routeLength="1229.64" waitingTime="0.00" waitingCount="0" stopTime="0.00" timeLoss="12.43" rerouteNo="1" devices="tripinfo_carIn81860:1 routing_carIn81860:1 emissions_carIn81860:1" vType="default_016" speedFactor="0.89" vaporized="">
        <emissions CO_abs="3238.119594" CO2_abs="248746.616001" HC_abs="20.491885" PMx_abs="3.736089" NOx_abs="97.009907" fuel_abs="106.926079" electricity_abs="0"/>
    </tripinfo>
    <tripinfo id="carIn107282:1" depart="57749.00" departLane="-447569998#1_1" departPos="5.10" departSpeed="0.00" departDelay="0.00" arrival="57826.00" arrivalLane="315358242#0_1" arrivalPos="165.37" arrivalSpeed="12.66" duration="77.00" routeLength="448.50" waitingTime="25.00" waitingCount="1" stopTime="0.00" timeLoss="34.89" rerouteNo="1" devices="tripinfo_carIn107282:1 routing_carIn107282:1 emissions_carIn107282:1" vType="default_016" speedFactor="0.98" vaporized="">
        <emissions CO_abs="5549.592787" CO2_abs="170145.708646" HC_abs="29.235952" PMx_abs="3.314193" NOx_abs="71.890994" fuel_abs="73.140366" electricity_abs="0"/>
    </tripinfo>
    <tripinfo id="carIn22761:1" depart="57616.00" departLane="-306240162#1_0" departPos="5.10" departSpeed="0.00" departDelay="2.10" arrival="57828.00" arrivalLane="399835085#1_1" arrivalPos="212.23" arrivalSpeed="6.00" duration="212.00" routeLength="1093.26" waitingTime="83.00" waitingCount="2" stopTime="0.00" timeLoss="109.82" rerouteNo="1" devices="tripinfo_carIn22761:1 routing_carIn22761:1 emissions_carIn22761:1" vType="default_016" speedFactor="0.76" vaporized="">
        <emissions CO_abs="18163.530818" CO2_abs="496597.179834" HC_abs="94.254250" PMx_abs="10.059796" NOx_abs="211.846069" fuel_abs="213.472866" electricity_abs="0"/>
    </tripinfo>
    <tripinfo id="carIn12858:1" depart="57661.00" departLane="128361109#1_1" departPos="5.10" departSpeed="0.00" departDelay="0.90" arrival="57831.00" arrivalLane="399835085#1_1" arrivalPos="212.23" arrivalSpeed="7.96" duration="170.00" routeLength="1738.12" waitingTime="9.00" waitingCount="2" stopTime="0.00" timeLoss="58.56" rerouteNo="1" devices="tripinfo_carIn12858:1 routing_carIn12858:1 emissions_carIn12858:1" vType="default_016" speedFactor="1.04" vaporized="">
        <emissions CO_abs="9541.609524" CO2_abs="537833.296705" HC_abs="56.256202" PMx_abs="10.388573" NOx_abs="222.547485" fuel_abs="231.191578" electricity_abs="0"/>
    </tripinfo>
    <tripinfo id="carIn48184:1" depart="57613.00" departLane="-306240162#1_0" departPos="5.10" departSpeed="0.00" departDelay="0.70" arrival="57835.00" arrivalLane="386687235_1" arrivalPos="80.84" arrivalSpeed="11.17" duration="222.00" routeLength="2257.41" waitingTime="15.00" waitingCount="2" stopTime="0.00" timeLoss="48.72" rerouteNo="1" devices="tripinfo_carIn48184:1 routing_carIn48184:1 emissions_carIn48184:1" vType="default_016" speedFactor="0.86" vaporized="">
        <emissions CO_abs="7810.328783" CO2_abs="531486.796695" HC_abs="47.916694" PMx_abs="8.840643" NOx_abs="212.143915" fuel_abs="228.464121" electricity_abs="0"/>
    </tripinfo>
    <tripinfo id="carIn50326:1" depart="57651.00" departLane="128361102#0_1" departPos="5.10" departSpeed="0.00" departDelay="0.30" arrival="57837.00" arrivalLane="18809673#0_1" arrivalPos="473.56" arrivalSpeed="12.14" duration="186.00" routeLength="1591.07" waitingTime="18.00" waitingCount="2" stopTime="0.00" timeLoss="41.82" rerouteNo="1" devices="tripinfo_carIn50326:1 routing_carIn50326:1 emissions_carIn50326:1" vType="default_016" speedFactor="0.90" vaporized="">
        <emissions CO_abs="6816.959634" CO2_abs="366968.222334" HC_abs="39.511586" PMx_abs="5.865631" NOx_abs="146.318613" fuel_abs="157.745861" electricity_abs="0"/>
    </tripinfo>
    <tripinfo id="h17600c1:1" depart="57662.00" departLane="272042143_1" departPos="5.10" departSpeed="0.00" departDelay="0.30" arrival="57837.00" arrivalLane="201238729#3_1" arrivalPos="431.02" arrivalSpeed="15.87" duration="175.00" routeLength="2100.26" waitingTime="21.00" waitingCount="1" stopTime="0.00" timeLoss="47.78" rerouteNo="1" devices="tripinfo_h17600c1:1 routing_h17600c1:1 emissions_h17600c1:1" vType="default_016" speedFactor="1.20" vaporized="">
        <emissions CO_abs="7821.056281" CO2_abs="483483.655556" HC_abs="46.710163" PMx_abs="8.678164" NOx_abs="194.517335" fuel_abs="207.829419" electricity_abs="0"/>
    </tripinfo>
    <tripinfo id="carIn107842:1" depart="57623.00" departLane="124812856#0_1" departPos="5.10" departSpeed="0.00" departDelay="1.90" arrival="57843.00" arrivalLane="-128361102#1_1" arrivalPos="274.68" arrivalSpeed="15.78" duration="220.00" routeLength="2232.46" waitingTime="29.00" waitingCount="2" stopTime="0.00" timeLoss="79.13" rerouteNo="1" devices="tripinfo_carIn107842:1 routing_carIn107842:1 emissions_carIn107842:1" vType="default_016" speedFactor="1.16" vaporized="">
        <emissions CO_abs="12664.525441" CO2_abs="660245.238206" HC_abs="73.032738" PMx_abs="12.408135" NOx_abs="272.524398" fuel_abs="283.812381" electricity_abs="0"/>
    </tripinfo>
    <tripinfo id="h645c1:1" depart="57622.00" departLane="266565295#5_1" departPos="5.10" departSpeed="0.00" departDelay="0.40" arrival="57844.00" arrivalLane="-315358244_1" arrivalPos="33.95" arrivalSpeed="12.84" duration="222.00" routeLength="1910.83" waitingTime="45.00" waitingCount="4" stopTime="0.00" timeLoss="74.91" rerouteNo="1" devices="tripinfo_h645c1:1 routing_h645c1:1 emissions_h645c1:1" vType="default_016" speedFactor="0.95" vaporized="">
        <emissions CO_abs="11131.689212" CO2_abs="510394.590179" HC_abs="62.596417" PMx_abs="9.014405" NOx_abs="207.903793" fuel_abs="219.399693" electricity_abs="0"/>
    </tripinfo>
    <tripinfo id="carIn8642:1" depart="57774.00" departLane="-447569998#1_1" departPos="5.10" departSpeed="0.00" departDelay="0.90" arrival="57845.00" arrivalLane="-315358244_1" arrivalPos="33.95" arrivalSpeed="14.14" duration="71.00" routeLength="706.49" waitingTime="6.00" waitingCount="1" stopTime="0.00" timeLoss="14.73" rerouteNo="1" devices="tripinfo_carIn8642:1 routing_carIn8642:1 emissions_carIn8642:1" vType="default_016" speedFactor="1.07" vaporized="">
        <emissions CO_abs="2460.892701" CO2_abs="157341.661858" HC_abs="14.815601" PMx_abs="2.553308" NOx_abs="62.531286" fuel_abs="67.634857" electricity_abs="0"/>
    </tripinfo>
    <tripinfo id="carIn126288:1" depart="57674.00" departLane="272042143_1" departPos="5.10" departSpeed="0.00" departDelay="0.00" arrival="57847.00" arrivalLane="-315358254#1_1" arrivalPos="137.16" arrivalSpeed="12.42" duration="173.00" routeLength="1596.88" waitingTime="35.00" waitingCount="2" stopTime="0.00" timeLoss="53.42" rerouteNo="1" devices="tripinfo_carIn126288:1 routing_carIn126288:1 emissions_carIn126288:1" vType="default_016" speedFactor="0.98" vaporized="">
        <emissions CO_abs="8165.386746" CO2_abs="409159.939057" HC_abs="46.732049" PMx_abs="7.071016" NOx_abs="165.160173" fuel_abs="175.882315" electricity_abs="0"/>
    </tripinfo>
    <tripinfo id="h17549c1:1" depart="57680.00" departLane="-447569998#1_1" departPos="5.10" departSpeed="0.00" departDelay="0.00" arrival="57848.00" arrivalLane="-315358254#1_1" arrivalPos="137.16" arrivalSpeed="15.19" duration="168.00" routeLength="1743.98" waitingTime="21.00" waitingCount="2" stopTime="0.00" timeLoss="46.82" rerouteNo="1" devices="tripinfo_h17549c1:1 routing_h17549c1:1 emissions_h17549c1:1" vType="default_016" speedFactor="1.13" vaporized="">
        <emissions CO_abs="7671.366728" CO2_abs="433286.938345" HC_abs="45.050140" PMx_abs="7.655199" NOx_abs="175.322880" fuel_abs="186.252561" electricity_abs="0"/>
    </tripinfo>
    <tripinfo id="carIn107084:1" depart="57601.00" departLane="124812856#0_1" departPos="5.10" departSpeed="0.00" departDelay="0.70" arrival="57851.00" arrivalLane="-128361102#1_1" arrivalPos="274.68" arrivalSpeed="12.89" duration="250.00" routeLength="2250.49" waitingTime="24.00" waitingCount="3" stopTime="0.00" timeLoss="72.28" rerouteNo="1" devices="tripinfo_carIn107084:1 routing_carIn107084:1 emissions_carIn107084:1" vType="default_016" speedFactor="0.93" vaporized="">
        <emissions CO_abs="10436.003860" CO2_abs="578787.004437" HC_abs="61.079210" PMx_abs="10.224946" NOx_abs="236.907161" fuel_abs="248.797062" electricity_abs="0"/>
    </tripinfo>
    <tripinfo id="randUni31145:1" depart="57814.00" departLane="10425609#0_1" departPos="5.10" departSpeed="0.00" departDelay="0.30" arrival="57852.00" arrivalLane="201956810_1" arrivalPos="71.65" arrivalSpeed="12.75" duration="38.00" routeLength="255.78" waitingTime="2.00" waitingCount="1" stopTime="0.00" timeLoss="17.61" rerouteNo="1" devices="tripinfo_randUni31145:1 routing_randUni31145:1 emissions_randUni31145:1" vType="random_016" speedFactor="0.99" vaporized="">
        <emissions CO_abs="2509.078272" CO2_abs="123124.035728" HC_abs="14.326918" PMx_abs="2.356809" NOx_abs="51.937047" fuel_abs="52.925961" electricity_abs="0"/>
    </tripinfo>
    <tripinfo id="carIn77943:1" depart="57608.00" departLane="124812856#0_1" departPos="5.10" departSpeed="0.00" departDelay="2.50" arrival="57853.00" arrivalLane="-128361102#1_1" arrivalPos="274.68" arrivalSpeed="12.02" duration="245.00" routeLength="2250.49" waitingTime="21.00" waitingCount="2" stopTime="0.00" timeLoss="64.61" rerouteNo="1" devices="tripinfo_carIn77943:1 routing_carIn77943:1 emissions_carIn77943:1" vType="default_016" speedFactor="0.91" vaporized="">
        <emissions CO_abs="9544.714533" CO2_abs="551121.425556" HC_abs="56.324009" PMx_abs="9.404226" NOx_abs="223.269074" fuel_abs="236.904940" electricity_abs="0"/>
    </tripinfo>
    <tripinfo id="carIn81046:1" depart="57611.00" departLane="124812856#0_1" departPos="5.10" departSpeed="0.00" departDelay="2.50" arrival="57855.00" arrivalLane="-128361102#1_1" arrivalPos="274.68" arrivalSpeed="13.15" duration="244.00" routeLength="2250.49" waitingTime="17.00" waitingCount="2" stopTime="0.00" timeLoss="77.06" rerouteNo="1" devices="tripinfo_carIn81046:1 routing_carIn81046:1 emissions_carIn81046:1" vType="default_016" speedFactor="0.99" vaporized="">
        <emissions CO_abs="10955.421600" CO2_abs="621332.715886" HC_abs="64.472131" PMx_abs="11.095580" NOx_abs="255.121895" fuel_abs="267.085341" electricity_abs="0"/>
    </tripinfo>
    <tripinfo id="randUni2407:1" depart="57820.00" departLane="10425609#0_1" departPos="5.10" departSpeed="0.00" departDelay="0.80" arrival="57856.00" arrivalLane="201956810_1" arrivalPos="71.65" arrivalSpeed="11.30" duration="36.00" routeLength="255.78" waitingTime="0.00" waitingCount="0" stopTime="0.00" timeLoss="11.19" rerouteNo="1" devices="tripinfo_randUni2407:1 routing_randUni2407:1 emissions_randUni2407:1" vType="random_016" speedFactor="0.82" vaporized="">
        <emissions CO_abs="1935.179663" CO2_abs="92325.714791" HC_abs="10.961758" PMx_abs="1.634281" NOx_abs="38.171052" fuel_abs="39.687270" electricity_abs="0"/>
    </tripinfo>
    <tripinfo id="carIn77438:1" depart="57614.00" departLane="124812856#0_1" departPos="5.10" departSpeed="0.00" departDelay="1.10" arrival="57857.00" arrivalLane="-128361102#1_1" arrivalPos="274.68" arrivalSpeed="14.37" duration="243.00" routeLength="2250.49" waitingTime="18.00" waitingCount="2" stopTime="0.00" timeLoss="88.43" rerouteNo="1" devices="tripinfo_carIn77438:1 routing_carIn77438:1 emissions_carIn77438:1" vType="default_016" speedFactor="1.07" vaporized="">
        <emissions CO_abs="11604.183531" CO2_abs="647707.386263" HC_abs="68.114636" PMx_abs="11.964689" NOx_abs="268.656510" fuel_abs="278.422260" electricity_abs="0"/>
    </tripinfo>
    <tripinfo id="randUni15030:1" depart="57735.00" departLane="386687232#0_1" departPos="5.10" departSpeed="0.00" departDelay="0.10" arrival="57857.00" arrivalLane="26677539_1" arrivalPos="151.98" arrivalSpeed="7.21" duration="122.00" routeLength="919.89" waitingTime="16.00" waitingCount="1" stopTime="0.00" timeLoss="30.51" rerouteNo="1" devices="tripinfo_randUni15030:1 routing_randUni15030:1 emissions_randUni15030:1" vType="random_016" speedFactor="0.92" vaporized="">