<?xml version="1.0" encoding="UTF-8"?>

<!-- generated on Thu Nov  4 14:01:14 2021 by Eclipse SUMO sumo Version 1.9.0
<configuration xmlns:xsi="http://www.w3.org/2001/XMLSchema-instance" xsi:noNamespaceSchemaLocation="http://sumo.dlr.de/xsd/sumoConfiguration.xsd">

    <input>
        <net-file value="/mainfs/home/bk2g18/RESCO/environments/ingolstadt21/ingolstadt21.net.xml"/>
        <route-files value="/mainfs/home/bk2g18/RESCO/environments/ingolstadt21/ingolstadt21.rou.xml"/>
    </input>

    <output>
        <tripinfo-output value="/mainfs/home/bk2g18/RESCO/logs/MPLight-tr0-ingolstadt21-21-mplight-pressure/tripinfo_88.xml"/>
        <tripinfo-output.write-unfinished value="true"/>
    </output>

    <time>
        <begin value="57600"/>
        <end value="61200"/>
    </time>

    <processing>
        <time-to-teleport value="-1"/>
    </processing>

    <report>
        <xml-validation value="never"/>
        <xml-validation.routes value="never"/>
        <no-warnings value="true"/>
        <no-step-log value="true"/>
    </report>

    <emissions>
        <device.emissions.probability value="1"/>
    </emissions>

    <traci_server>
        <remote-port value="49922"/>
    </traci_server>

    <random_number>
        <random value="true"/>
    </random_number>

</configuration>
-->

<tripinfos xmlns:xsi="http://www.w3.org/2001/XMLSchema-instance" xsi:noNamespaceSchemaLocation="http://sumo.dlr.de/xsd/tripinfo_file.xsd">
    <tripinfo id="h15454c2:3" depart="57612.00" departLane="24608844_1" departPos="5.10" departSpeed="0.00" departDelay="0.50" arrival="57652.00" arrivalLane="32978638#0_1" arrivalPos="49.29" arrivalSpeed="13.41" duration="40.00" routeLength="354.79" waitingTime="0.00" waitingCount="0" stopTime="0.00" timeLoss="6.76" rerouteNo="1" devices="tripinfo_h15454c2:3 routing_h15454c2:3 emissions_h15454c2:3" vType="default_016" speedFactor="1.03" vaporized="">
        <emissions CO_abs="2016.562508" CO2_abs="106606.754370" HC_abs="11.683371" PMx_abs="1.946624" NOx_abs="44.438586" fuel_abs="45.825864" electricity_abs="0"/>
    </tripinfo>
    <tripinfo id="carIn60260:1" depart="57606.00" departLane="315358254#0_1" departPos="5.10" departSpeed="0.00" departDelay="0.90" arrival="57657.00" arrivalLane="399835085#1_1" arrivalPos="212.23" arrivalSpeed="7.61" duration="51.00" routeLength="430.98" waitingTime="0.00" waitingCount="0" stopTime="0.00" timeLoss="7.03" rerouteNo="1" devices="tripinfo_carIn60260:1 routing_carIn60260:1 emissions_carIn60260:1" vType="default_016" speedFactor="1.05" vaporized="">
        <emissions CO_abs="2144.385590" CO2_abs="114297.377537" HC_abs="12.415289" PMx_abs="1.922652" NOx_abs="46.539999" fuel_abs="49.131987" electricity_abs="0"/>
    </tripinfo>
    <tripinfo id="carIn53971:1" depart="57640.00" departLane="272042143_1" departPos="5.10" departSpeed="0.00" departDelay="0.80" arrival="57691.00" arrivalLane="24634414#1_1" arrivalPos="162.19" arrivalSpeed="8.37" duration="51.00" routeLength="493.04" waitingTime="0.00" waitingCount="0" stopTime="0.00" timeLoss="8.47" rerouteNo="1" devices="tripinfo_carIn53971:1 routing_carIn53971:1 emissions_carIn53971:1" vType="default_016" speedFactor="1.06" vaporized="">
        <emissions CO_abs="2306.852094" CO2_abs="133625.711574" HC_abs="13.624213" PMx_abs="2.370318" NOx_abs="54.930300" fuel_abs="57.440152" electricity_abs="0"/>
    </tripinfo>
    <tripinfo id="carIn22761:1" depart="57616.00" departLane="-306240162#1_0" departPos="5.10" departSpeed="0.00" departDelay="2.10" arrival="57724.00" arrivalLane="399835085#1_1" arrivalPos="212.23" arrivalSpeed="7.55" duration="108.00" routeLength="1093.26" waitingTime="13.00" waitingCount="1" stopTime="0.00" timeLoss="29.79" rerouteNo="1" devices="tripinfo_carIn22761:1 routing_carIn22761:1 emissions_carIn22761:1" vType="default_016" speedFactor="0.99" vaporized="">
        <emissions CO_abs="5838.159361" CO2_abs="308609.419016" HC_abs="33.806992" PMx_abs="5.745657" NOx_abs="126.162864" fuel_abs="132.658657" electricity_abs="0"/>
    </tripinfo>
    <tripinfo id="h7800c1:5" depart="57696.00" departLane="-447569998#1_1" departPos="5.10" departSpeed="0.00" departDelay="0.00" arrival="57725.00" arrivalLane="-447569998#1_2" arrivalPos="180.76" arrivalSpeed="3.46" duration="29.00" routeLength="175.66" waitingTime="0.00" waitingCount="0" stopTime="0.00" timeLoss="5.91" rerouteNo="1" devices="tripinfo_h7800c1:5 routing_h7800c1:5 emissions_h7800c1:5" vType="default_016" speedFactor="0.92" vaporized="">
        <emissions CO_abs="1540.190175" CO2_abs="58495.083912" HC_abs="8.344194" PMx_abs="0.937854" NOx_abs="23.735956" fuel_abs="25.145183" electricity_abs="0"/>
    </tripinfo>
    <tripinfo id="h3568c1:3" depart="57656.00" departLane="266565295#5_1" departPos="5.10" departSpeed="0.00" departDelay="0.80" arrival="57728.00" arrivalLane="-24634415_1" arrivalPos="62.03" arrivalSpeed="14.72" duration="72.00" routeLength="807.40" waitingTime="0.00" waitingCount="0" stopTime="0.00" timeLoss="12.05" rerouteNo="1" devices="tripinfo_h3568c1:3 routing_h3568c1:3 emissions_h3568c1:3" vType="default_016" speedFactor="1.07" vaporized="">
        <emissions CO_abs="3237.975754" CO2_abs="214288.608114" HC_abs="19.777622" PMx_abs="3.833333" NOx_abs="87.587784" fuel_abs="92.113415" electricity_abs="0"/>
    </tripinfo>
    <tripinfo id="S5R_frequency1.2" depart="57615.00" departLane="315358250#0_1" departPos="12.10" departSpeed="0.00" departDelay="3.40" arrival="57730.00" arrivalLane="386687235_1" arrivalPos="80.84" arrivalSpeed="13.54" duration="115.00" routeLength="1115.62" waitingTime="15.00" waitingCount="1" stopTime="0.00" timeLoss="33.17" rerouteNo="1" devices="tripinfo_S5R_frequency1.2 routing_S5R_frequency1.2 emissions_S5R_frequency1.2" vType="bus" speedFactor="1.00" vaporized="">
        <emissions CO_abs="2161.137586" CO2_abs="1259720.521220" HC_abs="465.249633" PMx_abs="229.796194" NOx_abs="10025.456966" fuel_abs="537.229360" electricity_abs="0"/>
    </tripinfo>
    <tripinfo id="h7181c1:1" depart="57660.00" departLane="315358254#0_1" departPos="5.10" departSpeed="0.00" departDelay="0.10" arrival="57730.00" arrivalLane="306240162#0_0" arrivalPos="220.43" arrivalSpeed="16.22" duration="70.00" routeLength="932.35" waitingTime="7.00" waitingCount="1" stopTime="0.00" timeLoss="18.89" rerouteNo="1" devices="tripinfo_h7181c1:1 routing_h7181c1:1 emissions_h7181c1:1" vType="default_016" speedFactor="1.01" vaporized="">
        <emissions CO_abs="3766.420654" CO2_abs="257995.473044" HC_abs="23.276855" PMx_abs="4.971960" NOx_abs="105.392521" fuel_abs="110.900689" electricity_abs="0"/>
    </tripinfo>
    <tripinfo id="h3688c1:1" depart="57625.00" departLane="201201950#1_1" departPos="5.10" departSpeed="0.00" departDelay="0.00" arrival="57732.00" arrivalLane="32978638#0_1" arrivalPos="49.29" arrivalSpeed="13.56" duration="107.00" routeLength="1089.75" waitingTime="11.00" waitingCount="1" stopTime="0.00" timeLoss="25.68" rerouteNo="1" devices="tripinfo_h3688c1:1 routing_h3688c1:1 emissions_h3688c1:1" vType="default_016" speedFactor="0.99" vaporized="">
        <emissions CO_abs="4669.000424" CO2_abs="275667.032511" HC_abs="27.716246" PMx_abs="4.857460" NOx_abs="112.132974" fuel_abs="118.497901" electricity_abs="0"/>
    </tripinfo>
    <tripinfo id="h4538c1:1" depart="57701.00" departLane="-10427692#1_1" departPos="5.10" departSpeed="0.00" departDelay="0.00" arrival="57741.00" arrivalLane="-128361102#1_1" arrivalPos="274.68" arrivalSpeed="12.78" duration="40.00" routeLength="440.74" waitingTime="0.00" waitingCount="0" stopTime="0.00" timeLoss="6.49" rerouteNo="1" devices="tripinfo_h4538c1:1 routing_h4538c1:1 emissions_h4538c1:1" vType="default_016" speedFactor="0.95" vaporized="">
        <emissions CO_abs="1468.023653" CO2_abs="99372.377053" HC_abs="9.006611" PMx_abs="1.658521" NOx_abs="39.870096" fuel_abs="42.716045" electricity_abs="0"/>
    </tripinfo>
    <tripinfo id="carIn30817:1" depart="57681.00" departLane="315358244_1" departPos="5.10" departSpeed="0.00" departDelay="0.20" arrival="57745.00" arrivalLane="447569997#1_1" arrivalPos="180.93" arrivalSpeed="8.50" duration="64.00" routeLength="718.04" waitingTime="0.00" waitingCount="0" stopTime="0.00" timeLoss="5.81" rerouteNo="1" devices="tripinfo_carIn30817:1 routing_carIn30817:1 emissions_carIn30817:1" vType="default_016" speedFactor="1.07" vaporized="">
        <emissions CO_abs="1954.608443" CO2_abs="148680.300252" HC_abs="12.289847" PMx_abs="2.346389" NOx_abs="58.326422" fuel_abs="63.911500" electricity_abs="0"/>
    </tripinfo>
    <tripinfo id="h12244c1:3" depart="57612.00" departLane="315358244_1" departPos="5.10" departSpeed="0.00" departDelay="0.40" arrival="57748.00" arrivalLane="386687235_1" arrivalPos="80.84" arrivalSpeed="11.64" duration="136.00" routeLength="1186.14" waitingTime="23.00" waitingCount="2" stopTime="0.00" timeLoss="42.48" rerouteNo="1" devices="tripinfo_h12244c1:3 routing_h12244c1:3 emissions_h12244c1:3" vType="default_016" speedFactor="0.93" vaporized="">
        <emissions CO_abs="6462.357542" CO2_abs="298766.742385" HC_abs="36.373552" PMx_abs="5.133135" NOx_abs="120.785955" fuel_abs="128.428908" electricity_abs="0"/>
    </tripinfo>
    <tripinfo id="h9563c2:5" depart="57631.00" departLane="315358244_1" departPos="5.10" departSpeed="0.00" departDelay="0.70" arrival="57750.00" arrivalLane="386687235_1" arrivalPos="80.84" arrivalSpeed="11.39" duration="119.00" routeLength="1186.14" waitingTime="9.00" waitingCount="1" stopTime="0.00" timeLoss="23.28" rerouteNo="1" devices="tripinfo_h9563c2:5 routing_h9563c2:5 emissions_h9563c2:5" vType="default_016" speedFactor="0.91" vaporized="">
        <emissions CO_abs="3777.341090" CO2_abs="257804.685478" HC_abs="23.152634" PMx_abs="3.906221" NOx_abs="100.601391" fuel_abs="110.820101" electricity_abs="0"/>
    </tripinfo>
    <tripinfo id="h317c2:1" depart="57707.00" departLane="-32978638#0_1" departPos="5.10" departSpeed="0.00" departDelay="0.10" arrival="57757.00" arrivalLane="-266565295#5_1" arrivalPos="172.76" arrivalSpeed="12.21" duration="50.00" routeLength="370.53" waitingTime="12.00" waitingCount="1" stopTime="0.00" timeLoss="19.47" rerouteNo="1" devices="tripinfo_h317c2:1 routing_h317c2:1 emissions_h317c2:1" vType="default_016" speedFactor="0.89" vaporized="">
        <emissions CO_abs="3437.439195" CO2_abs="143354.952280" HC_abs="19.019612" PMx_abs="2.725396" NOx_abs="60.082866" fuel_abs="61.622899" electricity_abs="0"/>
    </tripinfo>
    <tripinfo id="carIn107084:1" depart="57601.00" departLane="124812856#0_1" departPos="5.10" departSpeed="0.00" departDelay="0.70" arrival="57760.00" arrivalLane="-128361102#1_1" arrivalPos="274.68" arrivalSpeed="15.26" duration="159.00" routeLength="2232.46" waitingTime="0.00" waitingCount="0" stopTime="0.00" timeLoss="17.25" rerouteNo="1" devices="tripinfo_carIn107084:1 routing_carIn107084:1 emissions_carIn107084:1" vType="default_016" speedFactor="1.15" vaporized="">
        <emissions CO_abs="5249.744630" CO2_abs="462828.704683" HC_abs="34.602940" PMx_abs="7.996735" NOx_abs="184.220297" fuel_abs="198.949290" electricity_abs="0"/>
    </tripinfo>
    <tripinfo id="carIn80064:1" depart="57603.00" departLane="128361109#1_1" departPos="5.10" departSpeed="0.00" departDelay="0.40" arrival="57770.00" arrivalLane="-315358254#1_1" arrivalPos="137.16" arrivalSpeed="11.96" duration="167.00" routeLength="1587.97" waitingTime="41.00" waitingCount="2" stopTime="0.00" timeLoss="72.29" rerouteNo="1" devices="tripinfo_carIn80064:1 routing_carIn80064:1 emissions_carIn80064:1" vType="default_016" speedFactor="0.95" vaporized="">
        <emissions CO_abs="12235.696319" CO2_abs="542483.844551" HC_abs="68.694849" PMx_abs="11.158719" NOx_abs="229.477255" fuel_abs="233.191785" electricity_abs="0"/>
    </tripinfo>
    <tripinfo id="h3154c1:1" depart="57658.00" departLane="24634507_1" departPos="5.10" departSpeed="0.00" departDelay="0.00" arrival="57775.00" arrivalLane="-266565295#5_1" arrivalPos="172.76" arrivalSpeed="15.25" duration="117.00" routeLength="1206.22" waitingTime="18.00" waitingCount="2" stopTime="0.00" timeLoss="40.00" rerouteNo="1" devices="tripinfo_h3154c1:1 routing_h3154c1:1 emissions_h3154c1:1" vType="default_016" speedFactor="1.16" vaporized="">
        <emissions CO_abs="6336.944827" CO2_abs="360339.261590" HC_abs="37.279521" PMx_abs="6.768942" NOx_abs="148.697021" fuel_abs="154.894606" electricity_abs="0"/>
    </tripinfo>
    <tripinfo id="h5979c1:5" depart="57669.00" departLane="399835085#1_1" departPos="5.10" departSpeed="0.00" departDelay="0.00" arrival="57777.00" arrivalLane="-315358254#1_1" arrivalPos="137.16" arrivalSpeed="15.24" duration="108.00" routeLength="659.33" waitingTime="11.00" waitingCount="1" stopTime="0.00" timeLoss="41.74" rerouteNo="1" devices="tripinfo_h5979c1:5 routing_h5979c1:5 emissions_h5979c1:5" vType="default_016" speedFactor="1.11" vaporized="">
        <emissions CO_abs="5976.480135" CO2_abs="240516.889556" HC_abs="32.779009" PMx_abs="4.398701" NOx_abs="100.410912" fuel_abs="103.389522" electricity_abs="0"/>
    </tripinfo>
    <tripinfo id="carIn121703:1" depart="57647.00" departLane="386687232#0_1" departPos="5.10" departSpeed="0.00" departDelay="0.30" arrival="57780.00" arrivalLane="-315358244_1" arrivalPos="33.95" arrivalSpeed="11.36" duration="133.00" routeLength="1157.39" waitingTime="22.00" waitingCount="2" stopTime="0.00" timeLoss="39.63" rerouteNo="1" devices="tripinfo_carIn121703:1 routing_carIn121703:1 emissions_carIn121703:1" vType="default_016" speedFactor="0.91" vaporized="">
        <emissions CO_abs="5667.028890" CO2_abs="286211.329246" HC_abs="32.468073" PMx_abs="4.888250" NOx_abs="115.680087" fuel_abs="123.031374" electricity_abs="0"/>
    </tripinfo>
    <tripinfo id="carIn48184:1" depart="57613.00" departLane="-306240162#1_0" departPos="5.10" departSpeed="0.00" departDelay="0.70" arrival="57783.00" arrivalLane="386687235_1" arrivalPos="80.84" arrivalSpeed="13.91" duration="170.00" routeLength="2257.41" waitingTime="8.00" waitingCount="1" stopTime="0.00" timeLoss="31.34" rerouteNo="1" devices="tripinfo_carIn48184:1 routing_carIn48184:1 emissions_carIn48184:1" vType="default_016" speedFactor="1.08" vaporized="">
        <emissions CO_abs="6881.400035" CO2_abs="523497.166726" HC_abs="43.533963" PMx_abs="9.386705" NOx_abs="210.233875" fuel_abs="225.028271" electricity_abs="0"/>
    </tripinfo>
    <tripinfo id="h330c1:1" depart="57736.00" departLane="-32978638#0_1" departPos="5.10" departSpeed="0.00" departDelay="0.20" arrival="57783.00" arrivalLane="-266565295#5_1" arrivalPos="172.76" arrivalSpeed="15.17" duration="47.00" routeLength="370.53" waitingTime="12.00" waitingCount="1" stopTime="0.00" timeLoss="22.07" rerouteNo="1" devices="tripinfo_h330c1:1 routing_h330c1:1 emissions_h330c1:1" vType="default_016" speedFactor="1.10" vaporized="">
        <emissions CO_abs="3253.483779" CO2_abs="146723.633380" HC_abs="18.254611" PMx_abs="2.861142" NOx_abs="61.563890" fuel_abs="63.070667" electricity_abs="0"/>
    </tripinfo>
    <tripinfo id="h3326c1:2" depart="57656.00" departLane="22716069#0_1" departPos="5.10" departSpeed="0.00" departDelay="0.00" arrival="57785.00" arrivalLane="24634517#13_1" arrivalPos="111.62" arrivalSpeed="10.77" duration="129.00" routeLength="1312.81" waitingTime="0.00" waitingCount="0" stopTime="0.00" timeLoss="14.55" rerouteNo="1" devices="tripinfo_h3326c1:2 routing_h3326c1:2 emissions_h3326c1:2" vType="default_016" speedFactor="0.85" vaporized="">
        <emissions CO_abs="4376.237485" CO2_abs="298445.933345" HC_abs="26.852144" PMx_abs="4.768788" NOx_abs="118.945232" fuel_abs="128.289709" electricity_abs="0"/>
    </tripinfo>
    <tripinfo id="carIn77943:1" depart="57608.00" departLane="124812856#0_1" departPos="5.10" departSpeed="0.00" departDelay="2.50" arrival="57789.00" arrivalLane="-128361102#1_1" arrivalPos="274.68" arrivalSpeed="14.08" duration="181.00" routeLength="2250.49" waitingTime="0.00" waitingCount="0" stopTime="0.00" timeLoss="19.87" rerouteNo="1" devices="tripinfo_carIn77943:1 routing_carIn77943:1 emissions_carIn77943:1" vType="default_016" speedFactor="1.02" vaporized="">
        <emissions CO_abs="5310.552912" CO2_abs="438746.984352" HC_abs="34.410485" PMx_abs="7.281593" NOx_abs="174.400412" fuel_abs="188.598239" electricity_abs="0"/>
    </tripinfo>
    <tripinfo id="carIn27009:1" depart="57673.00" departLane="-447569998#1_1" departPos="5.10" departSpeed="0.00" departDelay="0.50" arrival="57793.00" arrivalLane="-26677539_1" arrivalPos="152.75" arrivalSpeed="8.02" duration="120.00" routeLength="699.63" waitingTime="23.00" waitingCount="1" stopTime="0.00" timeLoss="37.71" rerouteNo="1" devices="tripinfo_carIn27009:1 routing_carIn27009:1 emissions_carIn27009:1" vType="default_015" speedFactor="1.02" vaporized="">
        <emissions CO_abs="7312.776060" CO2_abs="250532.234417" HC_abs="39.068049" PMx_abs="4.447722" NOx_abs="103.932621" fuel_abs="107.695877" electricity_abs="0"/>
    </tripinfo>
    <tripinfo id="carIn118591:1" depart="57689.00" departLane="315358244_1" departPos="5.10" departSpeed="0.00" departDelay="0.20" arrival="57796.00" arrivalLane="386687235_1" arrivalPos="80.84" arrivalSpeed="11.19" duration="107.00" routeLength="1186.14" waitingTime="0.00" waitingCount="0" stopTime="0.00" timeLoss="9.74" rerouteNo="1" devices="tripinfo_carIn118591:1 routing_carIn118591:1 emissions_carIn118591:1" vType="default_016" speedFactor="0.89" vaporized="">
        <emissions CO_abs="2759.372715" CO2_abs="215935.042385" HC_abs="17.565130" PMx_abs="3.290833" NOx_abs="84.484418" fuel_abs="92.821602" electricity_abs="0"/>
    </tripinfo>
    <tripinfo id="h11737c1:1" depart="57665.00" departLane="272042143_1" departPos="5.10" departSpeed="0.00" departDelay="1.50" arrival="57799.00" arrivalLane="-315358254#1_1" arrivalPos="137.16" arrivalSpeed="14.30" duration="134.00" routeLength="1596.88" waitingTime="3.00" waitingCount="1" stopTime="0.00" timeLoss="22.24" rerouteNo="1" devices="tripinfo_h11737c1:1 routing_h11737c1:1 emissions_h11737c1:1" vType="default_016" speedFactor="1.04" vaporized="">
        <emissions CO_abs="4450.427707" CO2_abs="347142.543475" HC_abs="28.312553" PMx_abs="5.737423" NOx_abs="137.691558" fuel_abs="149.221733" electricity_abs="0"/>
    </tripinfo>
    <tripinfo id="carIn12365:1" depart="57713.00" departLane="315358244_1" departPos="5.10" departSpeed="0.00" departDelay="0.50" arrival="57801.00" arrivalLane="447569997#1_1" arrivalPos="180.93" arrivalSpeed="7.80" duration="88.00" routeLength="718.04" waitingTime="11.00" waitingCount="2" stopTime="0.00" timeLoss="30.89" rerouteNo="1" devices="tripinfo_carIn12365:1 routing_carIn12365:1 emissions_carIn12365:1" vType="default_016" speedFactor="1.08" vaporized="">
        <emissions CO_abs="3937.390992" CO2_abs="208604.230478" HC_abs="22.798439" PMx_abs="3.660466" NOx_abs="85.120002" fuel_abs="89.670697" electricity_abs="0"/>
    </tripinfo>
    <tripinfo id="carIn81046:1" depart="57611.00" departLane="124812856#0_1" departPos="5.10" departSpeed="0.00" departDelay="2.50" arrival="57802.00" arrivalLane="-128361102#1_1" arrivalPos="274.68" arrivalSpeed="15.44" duration="191.00" routeLength="2232.46" waitingTime="12.00" waitingCount="2" stopTime="0.00" timeLoss="54.26" rerouteNo="1" devices="tripinfo_carIn81046:1 routing_carIn81046:1 emissions_carIn81046:1" vType="default_016" speedFactor="1.19" vaporized="">
        <emissions CO_abs="8659.824019" CO2_abs="569231.647996" HC_abs="52.755736" PMx_abs="10.697735" NOx_abs="235.053821" fuel_abs="244.687425" electricity_abs="0"/>
    </tripinfo>
    <tripinfo id="carIn126288:1" depart="57674.00" departLane="272042143_1" departPos="5.10" departSpeed="0.00" departDelay="0.00" arrival="57803.00" arrivalLane="-315358254#1_1" arrivalPos="137.16" arrivalSpeed="13.86" duration="129.00" routeLength="1596.88" waitingTime="0.00" waitingCount="0" stopTime="0.00" timeLoss="14.57" rerouteNo="1" devices="tripinfo_carIn126288:1 routing_carIn126288:1 emissions_carIn126288:1" vType="default_016" speedFactor="1.02" vaporized="">
        <emissions CO_abs="4017.743889" CO2_abs="338390.849824" HC_abs="26.190227" PMx_abs="5.541234" NOx_abs="133.893001" fuel_abs="145.459568" electricity_abs="0"/>
    </tripinfo>
    <tripinfo id="carIn82220:1" depart="57619.00" departLane="-306240162#1_0" departPos="5.10" departSpeed="0.00" departDelay="3.50" arrival="57804.00" arrivalLane="386687235_1" arrivalPos="80.84" arrivalSpeed="14.47" duration="185.00" routeLength="2257.41" waitingTime="17.00" waitingCount="3" stopTime="0.00" timeLoss="50.32" rerouteNo="1" devices="tripinfo_carIn82220:1 routing_carIn82220:1 emissions_carIn82220:1" vType="default_016" speedFactor="1.10" vaporized="">
        <emissions CO_abs="8599.745848" CO2_abs="579370.994736" HC_abs="52.804525" PMx_abs="10.781223" NOx_abs="235.802016" fuel_abs="249.046158" electricity_abs="0"/>
    </tripinfo>
    <tripinfo id="carIn86816:1" depart="57617.00" departLane="128361102#0_1" departPos="5.10" departSpeed="0.00" departDelay="0.80" arrival="57807.00" arrivalLane="201956811#0_1" arrivalPos="40.40" arrivalSpeed="12.40" duration="190.00" routeLength="2067.33" waitingTime="3.00" waitingCount="2" stopTime="0.00" timeLoss="33.28" rerouteNo="1" devices="tripinfo_carIn86816:1 routing_carIn86816:1 emissions_carIn86816:1" vType="default_016" speedFactor="0.96" vaporized="">
        <emissions CO_abs="6708.564747" CO2_abs="463051.167950" HC_abs="41.377096" PMx_abs="7.785592" NOx_abs="186.011797" fuel_abs="199.046218" electricity_abs="0"/>
    </tripinfo>
    <tripinfo id="carIn102915:1" depart="57643.00" departLane="128361102#0_1" departPos="5.10" departSpeed="0.00" departDelay="0.40" arrival="57809.00" arrivalLane="201956811#0_1" arrivalPos="40.40" arrivalSpeed="14.21" duration="166.00" routeLength="2067.33" waitingTime="1.00" waitingCount="1" stopTime="0.00" timeLoss="22.05" rerouteNo="1" devices="tripinfo_carIn102915:1 routing_carIn102915:1 emissions_carIn102915:1" vType="default_016" speedFactor="1.05" vaporized="">
        <emissions CO_abs="5430.288058" CO2_abs="438482.639563" HC_abs="34.953437" PMx_abs="7.359588" NOx_abs="174.528771" fuel_abs="188.484617" electricity_abs="0"/>
    </tripinfo>
    <tripinfo id="carIn77438:1" depart="57614.00" departLane="124812856#0_1" departPos="5.10" departSpeed="0.00" departDelay="1.10" arrival="57811.00" arrivalLane="-128361102#1_1" arrivalPos="274.68" arrivalSpeed="12.56" duration="197.00" routeLength="2250.49" waitingTime="0.00" waitingCount="0" stopTime="0.00" timeLoss="18.65" rerouteNo="1" devices="tripinfo_carIn77438:1 routing_carIn77438:1 emissions_carIn77438:1" vType="default_016" speedFactor="0.92" vaporized="">
        <emissions CO_abs="5264.630544" CO2_abs="433264.481062" HC_abs="34.050074" PMx_abs="6.765567" NOx_abs="170.238721" fuel_abs="186.242150" electricity_abs="0"/>
    </tripinfo>
    <tripinfo id="randUni33724:1" depart="57646.00" departLane="128361102#0_1" departPos="5.10" departSpeed="0.00" departDelay="1.20" arrival="57811.00" arrivalLane="201956811#0_1" arrivalPos="40.40" arrivalSpeed="15.02" duration="165.00" routeLength="2067.33" waitingTime="0.00" waitingCount="0" stopTime="0.00" timeLoss="27.78" rerouteNo="1" devices="tripinfo_randUni33724:1 routing_randUni33724:1 emissions_randUni33724:1" vType="random_016" speedFactor="1.11" vaporized="">
        <emissions CO_abs="6144.165551" CO2_abs="475011.215436" HC_abs="39.074344" PMx_abs="8.272847" NOx_abs="191.260018" fuel_abs="204.186397" electricity_abs="0"/>
    </tripinfo>
    <tripinfo id="h19804c1:3" depart="57617.00" departLane="124812856#0_1" departPos="5.10" departSpeed="0.00" departDelay="1.50" arrival="57813.00" arrivalLane="-128361102#1_1" arrivalPos="274.68" arrivalSpeed="11.84" duration="196.00" routeLength="2250.49" waitingTime="0.00" waitingCount="0" stopTime="0.00" timeLoss="20.43" rerouteNo="1" devices="tripinfo_h19804c1:3 routing_h19804c1:3 emissions_h19804c1:3" vType="default_016" speedFactor="0.94" vaporized="">
        <emissions CO_abs="5353.945320" CO2_abs="434375.694740" HC_abs="34.500830" PMx_abs="6.888358" NOx_abs="171.343998" fuel_abs="186.719719" electricity_abs="0"/>
    </tripinfo>
    <tripinfo id="carIn129809:1" depart="57729.00" departLane="-447569998#1_1" departPos="5.10" departSpeed="0.00" departDelay="1.00" arrival="57813.00" arrivalLane="-315358244_1" arrivalPos="33.95" arrivalSpeed="13.73" duration="84.00" routeLength="706.49" waitingTime="10.00" waitingCount="1" stopTime="0.00" timeLoss="25.16" rerouteNo="1" devices="tripinfo_carIn129809:1 routing_carIn129809:1 emissions_carIn129809:1" vType="default_015" speedFactor="1.02" vaporized="">
        <emissions CO_abs="4348.411499" CO2_abs="213553.801406" HC_abs="24.799494" PMx_abs="3.839263" NOx_abs="87.956513" fuel_abs="91.798431" electricity_abs="0"/>
    </tripinfo>
    <tripinfo id="h645c1:1" depart="57622.00" departLane="266565295#5_1" departPos="5.10" departSpeed="0.00" departDelay="0.40" arrival="57817.00" arrivalLane="-315358244_1" arrivalPos="33.95" arrivalSpeed="13.49" duration="195.00" routeLength="1910.83" waitingTime="30.00" waitingCount="2" stopTime="0.00" timeLoss="52.05" rerouteNo="1" devices="tripinfo_h645c1:1 routing_h645c1:1 emissions_h645c1:1" vType="default_016" speedFactor="0.97" vaporized="">
        <emissions CO_abs="8205.019775" CO2_abs="437759.042916" HC_abs="47.564502" PMx_abs="7.453707" NOx_abs="175.800906" fuel_abs="188.175716" electricity_abs="0"/>
    </tripinfo>
    <tripinfo id="carIn116184:1" depart="57627.00" departLane="-306240162#1_0" departPos="5.10" departSpeed="0.00" departDelay="0.10" arrival="57823.00" arrivalLane="386687235_2" arrivalPos="80.84" arrivalSpeed="14.51" duration="196.00" routeLength="2257.41" waitingTime="17.00" waitingCount="3" stopTime="0.00" timeLoss="59.01" rerouteNo="1" devices="tripinfo_carIn116184:1 routing_carIn116184:1 emissions_carIn116184:1" vType="default_016" speedFactor="1.08" vaporized="">
        <emissions CO_abs="8802.412175" CO2_abs="589812.575839" HC_abs="53.969578" PMx_abs="10.807465" NOx_abs="240.742375" fuel_abs="253.534659" electricity_abs="0"/>
    </tripinfo>
    <tripinfo id="h16072c2:3" depart="57663.00" departLane="315358254#0_1" departPos="5.10" departSpeed="0.00" departDelay="2.50" arrival="57824.00" arrivalLane="386687235_1" arrivalPos="80.84" arrivalSpeed="13.48" duration="161.00" routeLength="1611.92" waitingTime="11.00" waitingCount="2" stopTime="0.00" timeLoss="45.21" rerouteNo="1" devices="tripinfo_h16072c2:3 routing_h16072c2:3 emissions_h16072c2:3" vType="default_016" speedFactor="1.02" vaporized="">
        <emissions CO_abs="6218.060866" CO2_abs="396303.517364" HC_abs="37.618559" PMx_abs="6.960279" NOx_abs="161.437350" fuel_abs="170.354132" electricity_abs="0"/>
    </tripinfo>
    <tripinfo id="carIn50326:1" depart="57651.00" departLane="128361102#0_1" departPos="5.10" departSpeed="0.00" departDelay="0.30" arrival="57825.00" arrivalLane="18809673#0_1" arrivalPos="473.56" arrivalSpeed="11.76" duration="174.00" routeLength="1591.07" waitingTime="15.00" waitingCount="2" stopTime="0.00" timeLoss="35.43" rerouteNo="1" devices="tripinfo_carIn50326:1 routing_carIn50326:1 emissions_carIn50326:1" vType="default_016" speedFactor="0.94" vaporized="">
        <emissions CO_abs="6112.172300" CO2_abs="366867.991244" HC_abs="36.356852" PMx_abs="6.027032" NOx_abs="147.075446" fuel_abs="157.701952" electricity_abs="0"/>
    </tripinfo>
    <tripinfo id="carIn107282:1" depart="57749.00" departLane="-447569998#1_1" departPos="5.10" departSpeed="0.00" departDelay="0.00" arrival="57825.00" arrivalLane="315358242#0_1" arrivalPos="165.37" arrivalSpeed="13.17" duration="76.00" routeLength="448.50" waitingTime="27.00" waitingCount="1" stopTime="0.00" timeLoss="35.35" rerouteNo="1" devices="tripinfo_carIn107282:1 routing_carIn107282:1 emissions_carIn107282:1" vType="default_016" speedFactor="1.02" vaporized="">
        <emissions CO_abs="5520.171394" CO2_abs="182559.393457" HC_abs="29.340170" PMx_abs="3.454201" NOx_abs="76.212211" fuel_abs="78.476427" electricity_abs="0"/>
    </tripinfo>
    <tripinfo id="carIn462:1" depart="57622.00" departLane="-306240162#1_0" departPos="5.10" departSpeed="0.00" departDelay="4.80" arrival="57827.00" arrivalLane="386687235_2" arrivalPos="80.84" arrivalSpeed="11.16" duration="205.00" routeLength="2257.41" waitingTime="6.00" waitingCount="1" stopTime="0.00" timeLoss="28.94" rerouteNo="1" devices="tripinfo_carIn462:1 routing_carIn462:1 emissions_carIn462:1" vType="default_016" speedFactor="0.85" vaporized="">
        <emissions CO_abs="6458.440150" CO2_abs="472897.121939" HC_abs="40.376711" PMx_abs="7.623595" NOx_abs="186.738411" fuel_abs="203.278849" electricity_abs="0"/>
    </tripinfo>
    <tripinfo id="carIn12152:1" depart="57647.00" departLane="24599188#0.94_1" departPos="5.10" departSpeed="0.00" departDelay="0.50" arrival="57827.00" arrivalLane="-315358254#1_1" arrivalPos="137.16" arrivalSpeed="13.40" duration="180.00" routeLength="2034.31" waitingTime="1.00" waitingCount="1" stopTime="0.00" timeLoss="19.17" rerouteNo="1" devices="tripinfo_carIn12152:1 routing_carIn12152:1 emissions_carIn12152:1" vType="default_016" speedFactor="0.98" vaporized="">
        <emissions CO_abs="4891.588230" CO2_abs="384238.515141" HC_abs="31.220684" PMx_abs="6.069236" NOx_abs="151.068120" fuel_abs="165.168074" electricity_abs="0"/>
    </tripinfo>
    <tripinfo id="carIn107842:1" depart="57623.00" departLane="124812856#0_1" departPos="5.10" departSpeed="0.00" departDelay="1.90" arrival="57828.00" arrivalLane="-128361102#1_1" arrivalPos="274.68" arrivalSpeed="11.87" duration="205.00" routeLength="2250.49" waitingTime="0.00" waitingCount="0" stopTime="0.00" timeLoss="23.19" rerouteNo="1" devices="tripinfo_carIn107842:1 routing_carIn107842:1 emissions_carIn107842:1" vType="default_016" speedFactor="0.90" vaporized="">