<?xml version="1.0" encoding="UTF-8"?>

<!-- generated on Thu Nov  4 13:33:31 2021 by Eclipse SUMO sumo Version 1.9.0
<configuration xmlns:xsi="http://www.w3.org/2001/XMLSchema-instance" xsi:noNamespaceSchemaLocation="http://sumo.dlr.de/xsd/sumoConfiguration.xsd">

    <input>
        <net-file value="/mainfs/home/bk2g18/RESCO/environments/ingolstadt21/ingolstadt21.net.xml"/>
        <route-files value="/mainfs/home/bk2g18/RESCO/environments/ingolstadt21/ingolstadt21.rou.xml"/>
    </input>

    <output>
        <tripinfo-output value="/mainfs/home/bk2g18/RESCO/logs/MPLight-tr0-ingolstadt21-21-mplight-pressure/tripinfo_37.xml"/>
        <tripinfo-output.write-unfinished value="true"/>
    </output>

    <time>
        <begin value="57600"/>
        <end value="61200"/>
    </time>

    <processing>
        <time-to-teleport value="-1"/>
    </processing>

    <report>
        <xml-validation value="never"/>
        <xml-validation.routes value="never"/>
        <no-warnings value="true"/>
        <no-step-log value="true"/>
    </report>

    <emissions>
        <device.emissions.probability value="1"/>
    </emissions>

    <traci_server>
        <remote-port value="53636"/>
    </traci_server>

    <random_number>
        <random value="true"/>
    </random_number>

</configuration>
-->

<tripinfos xmlns:xsi="http://www.w3.org/2001/XMLSchema-instance" xsi:noNamespaceSchemaLocation="http://sumo.dlr.de/xsd/tripinfo_file.xsd">
    <tripinfo id="h15454c2:3" depart="57612.00" departLane="24608844_1" departPos="5.10" departSpeed="0.00" departDelay="0.50" arrival="57651.00" arrivalLane="32978638#0_1" arrivalPos="49.29" arrivalSpeed="13.64" duration="39.00" routeLength="354.79" waitingTime="0.00" waitingCount="0" stopTime="0.00" timeLoss="5.44" rerouteNo="1" devices="tripinfo_h15454c2:3 routing_h15454c2:3 emissions_h15454c2:3" vType="default_016" speedFactor="1.01" vaporized="">
        <emissions CO_abs="1852.834440" CO2_abs="100059.892429" HC_abs="10.769441" PMx_abs="1.734373" NOx_abs="40.987509" fuel_abs="43.011757" electricity_abs="0"/>
    </tripinfo>
    <tripinfo id="carIn60260:1" depart="57606.00" departLane="315358254#0_1" departPos="5.10" departSpeed="0.00" departDelay="0.90" arrival="57680.00" arrivalLane="399835085#1_1" arrivalPos="212.23" arrivalSpeed="8.85" duration="74.00" routeLength="430.98" waitingTime="21.00" waitingCount="1" stopTime="0.00" timeLoss="31.18" rerouteNo="1" devices="tripinfo_carIn60260:1 routing_carIn60260:1 emissions_carIn60260:1" vType="default_016" speedFactor="1.07" vaporized="">
        <emissions CO_abs="4968.975282" CO2_abs="162263.785224" HC_abs="26.404561" PMx_abs="3.114182" NOx_abs="68.575503" fuel_abs="69.751933" electricity_abs="0"/>
    </tripinfo>
    <tripinfo id="carIn53971:1" depart="57640.00" departLane="272042143_1" departPos="5.10" departSpeed="0.00" departDelay="0.80" arrival="57690.00" arrivalLane="24634414#1_1" arrivalPos="162.19" arrivalSpeed="8.87" duration="50.00" routeLength="493.04" waitingTime="0.00" waitingCount="0" stopTime="0.00" timeLoss="9.03" rerouteNo="1" devices="tripinfo_carIn53971:1 routing_carIn53971:1 emissions_carIn53971:1" vType="default_016" speedFactor="1.11" vaporized="">
        <emissions CO_abs="2544.402771" CO2_abs="151779.698012" HC_abs="15.122511" PMx_abs="2.701581" NOx_abs="62.364687" fuel_abs="65.243725" electricity_abs="0"/>
    </tripinfo>
    <tripinfo id="h7181c1:1" depart="57660.00" departLane="315358254#0_1" departPos="5.10" departSpeed="0.00" departDelay="0.10" arrival="57716.00" arrivalLane="306240162#0_0" arrivalPos="220.43" arrivalSpeed="17.41" duration="56.00" routeLength="932.35" waitingTime="0.00" waitingCount="0" stopTime="0.00" timeLoss="9.61" rerouteNo="1" devices="tripinfo_h7181c1:1 routing_h7181c1:1 emissions_h7181c1:1" vType="default_016" speedFactor="1.11" vaporized="">
        <emissions CO_abs="3831.178383" CO2_abs="267374.500004" HC_abs="23.906864" PMx_abs="5.484262" NOx_abs="111.255495" fuel_abs="114.931764" electricity_abs="0"/>
    </tripinfo>
    <tripinfo id="h3688c1:1" depart="57625.00" departLane="201201950#1_1" departPos="5.10" departSpeed="0.00" departDelay="0.00" arrival="57725.00" arrivalLane="32978638#0_1" arrivalPos="49.29" arrivalSpeed="12.11" duration="100.00" routeLength="1089.75" waitingTime="1.00" waitingCount="1" stopTime="0.00" timeLoss="14.72" rerouteNo="1" devices="tripinfo_h3688c1:1 routing_h3688c1:1 emissions_h3688c1:1" vType="default_016" speedFactor="0.94" vaporized="">
        <emissions CO_abs="3622.580672" CO2_abs="263590.224151" HC_abs="22.640220" PMx_abs="4.298080" NOx_abs="105.006617" fuel_abs="113.306387" electricity_abs="0"/>
    </tripinfo>
    <tripinfo id="carIn80064:1" depart="57603.00" departLane="128361109#1_1" departPos="5.10" departSpeed="0.00" departDelay="0.40" arrival="57726.00" arrivalLane="-315358254#1_1" arrivalPos="137.16" arrivalSpeed="14.99" duration="123.00" routeLength="1587.97" waitingTime="12.00" waitingCount="2" stopTime="0.00" timeLoss="44.27" rerouteNo="1" devices="tripinfo_carIn80064:1 routing_carIn80064:1 emissions_carIn80064:1" vType="default_016" speedFactor="1.14" vaporized="">
        <emissions CO_abs="8500.018775" CO2_abs="524139.893726" HC_abs="51.313562" PMx_abs="10.641209" NOx_abs="218.162661" fuel_abs="225.304104" electricity_abs="0"/>
    </tripinfo>
    <tripinfo id="carIn121703:1" depart="57647.00" departLane="386687232#0_1" departPos="5.10" departSpeed="0.00" departDelay="0.30" arrival="57743.00" arrivalLane="-315358244_1" arrivalPos="33.95" arrivalSpeed="14.11" duration="96.00" routeLength="1157.39" waitingTime="3.00" waitingCount="1" stopTime="0.00" timeLoss="16.31" rerouteNo="1" devices="tripinfo_carIn121703:1 routing_carIn121703:1 emissions_carIn121703:1" vType="default_016" speedFactor="1.06" vaporized="">
        <emissions CO_abs="3069.504827" CO2_abs="238934.194139" HC_abs="19.498513" PMx_abs="3.989620" NOx_abs="94.870028" fuel_abs="102.707547" electricity_abs="0"/>
    </tripinfo>
    <tripinfo id="h7800c1:5" depart="57696.00" departLane="-447569998#1_1" departPos="5.10" departSpeed="0.00" departDelay="0.00" arrival="57745.00" arrivalLane="-447569998#1_2" arrivalPos="180.76" arrivalSpeed="4.68" duration="49.00" routeLength="175.66" waitingTime="18.00" waitingCount="1" stopTime="0.00" timeLoss="24.37" rerouteNo="1" devices="tripinfo_h7800c1:5 routing_h7800c1:5 emissions_h7800c1:5" vType="default_016" speedFactor="0.87" vaporized="">
        <emissions CO_abs="3497.099403" CO2_abs="89369.919443" HC_abs="17.999378" PMx_abs="1.819308" NOx_abs="38.606096" fuel_abs="38.417701" electricity_abs="0"/>
    </tripinfo>
    <tripinfo id="h3568c1:3" depart="57656.00" departLane="266565295#5_1" departPos="5.10" departSpeed="0.00" departDelay="0.80" arrival="57746.00" arrivalLane="-24634415_1" arrivalPos="62.03" arrivalSpeed="13.17" duration="90.00" routeLength="807.40" waitingTime="6.00" waitingCount="1" stopTime="0.00" timeLoss="25.71" rerouteNo="1" devices="tripinfo_h3568c1:3 routing_h3568c1:3 emissions_h3568c1:3" vType="default_016" speedFactor="1.00" vaporized="">
        <emissions CO_abs="4157.739907" CO2_abs="241054.262998" HC_abs="24.576937" PMx_abs="4.304471" NOx_abs="99.010689" fuel_abs="103.619213" electricity_abs="0"/>
    </tripinfo>
    <tripinfo id="h12244c1:3" depart="57612.00" departLane="315358244_1" departPos="5.10" departSpeed="0.00" departDelay="0.40" arrival="57747.00" arrivalLane="386687235_1" arrivalPos="80.84" arrivalSpeed="12.37" duration="135.00" routeLength="1186.14" waitingTime="23.00" waitingCount="2" stopTime="0.00" timeLoss="44.23" rerouteNo="1" devices="tripinfo_h12244c1:3 routing_h12244c1:3 emissions_h12244c1:3" vType="default_016" speedFactor="0.96" vaporized="">
        <emissions CO_abs="7266.011942" CO2_abs="336135.339943" HC_abs="40.969210" PMx_abs="6.154620" NOx_abs="138.736530" fuel_abs="144.491678" electricity_abs="0"/>
    </tripinfo>
    <tripinfo id="h317c2:1" depart="57707.00" departLane="-32978638#0_1" departPos="5.10" departSpeed="0.00" departDelay="0.10" arrival="57748.00" arrivalLane="-266565295#5_1" arrivalPos="172.76" arrivalSpeed="12.10" duration="41.00" routeLength="370.53" waitingTime="0.00" waitingCount="0" stopTime="0.00" timeLoss="9.08" rerouteNo="1" devices="tripinfo_h317c2:1 routing_h317c2:1 emissions_h317c2:1" vType="default_016" speedFactor="0.87" vaporized="">
        <emissions CO_abs="2097.232724" CO2_abs="115988.336427" HC_abs="12.266153" PMx_abs="2.059744" NOx_abs="47.733225" fuel_abs="49.858651" electricity_abs="0"/>
    </tripinfo>
    <tripinfo id="S5R_frequency1.2" depart="57624.00" departLane="315358250#0_1" departPos="12.10" departSpeed="0.00" departDelay="12.40" arrival="57754.00" arrivalLane="386687235_1" arrivalPos="80.84" arrivalSpeed="13.64" duration="130.00" routeLength="1115.62" waitingTime="17.00" waitingCount="2" stopTime="0.00" timeLoss="48.46" rerouteNo="1" devices="tripinfo_S5R_frequency1.2 routing_S5R_frequency1.2 emissions_S5R_frequency1.2" vType="bus" speedFactor="1.00" vaporized="">
        <emissions CO_abs="2727.285363" CO2_abs="1602205.972375" HC_abs="568.022654" PMx_abs="289.096781" NOx_abs="12737.581229" fuel_abs="683.273186" electricity_abs="0"/>
    </tripinfo>
    <tripinfo id="h3326c1:2" depart="57656.00" departLane="22716069#0_1" departPos="5.10" departSpeed="0.00" departDelay="0.00" arrival="57754.00" arrivalLane="24634517#13_1" arrivalPos="111.62" arrivalSpeed="16.45" duration="98.00" routeLength="1312.81" waitingTime="0.00" waitingCount="0" stopTime="0.00" timeLoss="16.50" rerouteNo="1" devices="tripinfo_h3326c1:2 routing_h3326c1:2 emissions_h3326c1:2" vType="default_016" speedFactor="1.19" vaporized="">
        <emissions CO_abs="4198.917027" CO2_abs="322686.775141" HC_abs="26.645674" PMx_abs="5.793529" NOx_abs="130.580152" fuel_abs="138.708625" electricity_abs="0"/>
    </tripinfo>
    <tripinfo id="h4538c1:1" depart="57701.00" departLane="-10427692#1_1" departPos="5.10" departSpeed="0.00" departDelay="0.00" arrival="57754.00" arrivalLane="-128361102#1_1" arrivalPos="274.68" arrivalSpeed="13.87" duration="53.00" routeLength="440.74" waitingTime="12.00" waitingCount="1" stopTime="0.00" timeLoss="23.46" rerouteNo="1" devices="tripinfo_h4538c1:1 routing_h4538c1:1 emissions_h4538c1:1" vType="default_016" speedFactor="1.09" vaporized="">
        <emissions CO_abs="3035.374990" CO2_abs="141678.785219" HC_abs="17.083153" PMx_abs="2.558703" NOx_abs="57.802578" fuel_abs="60.902336" electricity_abs="0"/>
    </tripinfo>
    <tripinfo id="h5979c1:5" depart="57669.00" departLane="399835085#1_1" departPos="5.10" departSpeed="0.00" departDelay="0.00" arrival="57760.00" arrivalLane="-315358254#1_1" arrivalPos="137.16" arrivalSpeed="12.32" duration="91.00" routeLength="659.33" waitingTime="0.00" waitingCount="0" stopTime="0.00" timeLoss="11.59" rerouteNo="1" devices="tripinfo_h5979c1:5 routing_h5979c1:5 emissions_h5979c1:5" vType="default_016" speedFactor="0.93" vaporized="">
        <emissions CO_abs="3722.764942" CO2_abs="171423.572328" HC_abs="20.871688" PMx_abs="2.696545" NOx_abs="68.860666" fuel_abs="73.689002" electricity_abs="0"/>
    </tripinfo>
    <tripinfo id="h3154c1:1" depart="57658.00" departLane="24634507_1" departPos="5.10" departSpeed="0.00" departDelay="0.00" arrival="57776.00" arrivalLane="-266565295#5_1" arrivalPos="172.76" arrivalSpeed="14.01" duration="118.00" routeLength="1206.22" waitingTime="12.00" waitingCount="1" stopTime="0.00" timeLoss="32.56" rerouteNo="1" devices="tripinfo_h3154c1:1 routing_h3154c1:1 emissions_h3154c1:1" vType="default_016" speedFactor="1.04" vaporized="">
        <emissions CO_abs="5383.262545" CO2_abs="332720.639642" HC_abs="32.276546" PMx_abs="5.908544" NOx_abs="135.449993" fuel_abs="143.022621" electricity_abs="0"/>
    </tripinfo>
    <tripinfo id="carIn107282:1" depart="57749.00" departLane="-447569998#1_1" departPos="5.10" departSpeed="0.00" departDelay="0.00" arrival="57786.00" arrivalLane="315358242#0_1" arrivalPos="165.37" arrivalSpeed="16.92" duration="37.00" routeLength="448.50" waitingTime="0.00" waitingCount="0" stopTime="0.00" timeLoss="4.18" rerouteNo="1" devices="tripinfo_carIn107282:1 routing_carIn107282:1 emissions_carIn107282:1" vType="default_016" speedFactor="1.30" vaporized="">
        <emissions CO_abs="1636.077841" CO2_abs="120486.394070" HC_abs="10.291433" PMx_abs="2.085110" NOx_abs="48.323502" fuel_abs="51.791896" electricity_abs="0"/>
    </tripinfo>
    <tripinfo id="h330c1:1" depart="57736.00" departLane="-32978638#0_1" departPos="5.10" departSpeed="0.00" departDelay="0.20" arrival="57787.00" arrivalLane="-266565295#5_1" arrivalPos="172.76" arrivalSpeed="11.94" duration="51.00" routeLength="370.53" waitingTime="12.00" waitingCount="1" stopTime="0.00" timeLoss="20.26" rerouteNo="1" devices="tripinfo_h330c1:1 routing_h330c1:1 emissions_h330c1:1" vType="default_016" speedFactor="0.89" vaporized="">
        <emissions CO_abs="2796.549866" CO2_abs="117697.761613" HC_abs="15.503220" PMx_abs="2.265511" NOx_abs="49.616544" fuel_abs="50.593762" electricity_abs="0"/>
    </tripinfo>
    <tripinfo id="carIn129809:1" depart="57729.00" departLane="-447569998#1_1" departPos="5.10" departSpeed="0.00" departDelay="1.00" arrival="57791.00" arrivalLane="-315358244_2" arrivalPos="33.95" arrivalSpeed="15.57" duration="62.00" routeLength="706.49" waitingTime="0.00" waitingCount="0" stopTime="0.00" timeLoss="8.91" rerouteNo="1" devices="tripinfo_carIn129809:1 routing_carIn129809:1 emissions_carIn129809:1" vType="default_015" speedFactor="1.15" vaporized="">
        <emissions CO_abs="2706.918937" CO2_abs="179072.427029" HC_abs="16.509562" PMx_abs="3.179646" NOx_abs="72.936380" fuel_abs="76.975545" electricity_abs="0"/>
    </tripinfo>
    <tripinfo id="h645c1:1" depart="57622.00" departLane="266565295#5_1" departPos="5.10" departSpeed="0.00" departDelay="0.40" arrival="57793.00" arrivalLane="-315358244_1" arrivalPos="33.95" arrivalSpeed="12.57" duration="171.00" routeLength="1910.83" waitingTime="14.00" waitingCount="1" stopTime="0.00" timeLoss="30.85" rerouteNo="1" devices="tripinfo_h645c1:1 routing_h645c1:1 emissions_h645c1:1" vType="default_016" speedFactor="0.99" vaporized="">
        <emissions CO_abs="5527.219871" CO2_abs="373794.185791" HC_abs="33.837492" PMx_abs="6.095063" NOx_abs="147.799639" fuel_abs="160.678890" electricity_abs="0"/>
    </tripinfo>
    <tripinfo id="h11737c1:1" depart="57665.00" departLane="272042143_1" departPos="5.10" departSpeed="0.00" departDelay="1.50" arrival="57798.00" arrivalLane="-315358254#1_1" arrivalPos="137.16" arrivalSpeed="12.09" duration="133.00" routeLength="1596.88" waitingTime="0.00" waitingCount="0" stopTime="0.00" timeLoss="11.89" rerouteNo="1" devices="tripinfo_h11737c1:1 routing_h11737c1:1 emissions_h11737c1:1" vType="default_016" speedFactor="0.96" vaporized="">
        <emissions CO_abs="3494.009391" CO2_abs="311804.855122" HC_abs="23.130612" PMx_abs="4.730307" NOx_abs="120.983706" fuel_abs="134.031794" electricity_abs="0"/>
    </tripinfo>
    <tripinfo id="carIn86816:1" depart="57617.00" departLane="128361102#0_1" departPos="5.10" departSpeed="0.00" departDelay="0.80" arrival="57799.00" arrivalLane="201956811#0_1" arrivalPos="40.40" arrivalSpeed="13.76" duration="182.00" routeLength="2067.33" waitingTime="11.00" waitingCount="1" stopTime="0.00" timeLoss="35.03" rerouteNo="1" devices="tripinfo_carIn86816:1 routing_carIn86816:1 emissions_carIn86816:1" vType="default_016" speedFactor="1.03" vaporized="">
        <emissions CO_abs="6775.758681" CO2_abs="471201.273638" HC_abs="41.899338" PMx_abs="8.148895" NOx_abs="189.901637" fuel_abs="202.549299" electricity_abs="0"/>
    </tripinfo>
    <tripinfo id="carIn22761:1" depart="57616.00" departLane="-306240162#1_0" departPos="5.10" departSpeed="0.00" departDelay="2.10" arrival="57800.00" arrivalLane="399835085#1_1" arrivalPos="212.23" arrivalSpeed="8.65" duration="184.00" routeLength="1093.26" waitingTime="95.00" waitingCount="2" stopTime="0.00" timeLoss="115.23" rerouteNo="1" devices="tripinfo_carIn22761:1 routing_carIn22761:1 emissions_carIn22761:1" vType="default_016" speedFactor="1.14" vaporized="">
        <emissions CO_abs="19546.482006" CO2_abs="551880.375032" HC_abs="102.095746" PMx_abs="11.908714" NOx_abs="236.866526" fuel_abs="237.236214" electricity_abs="0"/>
    </tripinfo>
    <tripinfo id="carIn126288:1" depart="57674.00" departLane="272042143_1" departPos="5.10" departSpeed="0.00" departDelay="0.00" arrival="57800.00" arrivalLane="-315358254#1_1" arrivalPos="137.16" arrivalSpeed="14.03" duration="126.00" routeLength="1596.88" waitingTime="0.00" waitingCount="0" stopTime="0.00" timeLoss="17.10" rerouteNo="1" devices="tripinfo_carIn126288:1 routing_carIn126288:1 emissions_carIn126288:1" vType="default_016" speedFactor="1.07" vaporized="">
        <emissions CO_abs="3942.918451" CO2_abs="349849.804396" HC_abs="26.014124" PMx_abs="5.656854" NOx_abs="137.468770" fuel_abs="150.385237" electricity_abs="0"/>
    </tripinfo>
    <tripinfo id="carIn81860:1" depart="57712.00" departLane="128361102#0_1" departPos="5.10" departSpeed="0.00" departDelay="0.60" arrival="57801.00" arrivalLane="-24634517#17_1" arrivalPos="6.43" arrivalSpeed="7.89" duration="89.00" routeLength="1229.64" waitingTime="0.00" waitingCount="0" stopTime="0.00" timeLoss="15.40" rerouteNo="1" devices="tripinfo_carIn81860:1 routing_carIn81860:1 emissions_carIn81860:1" vType="default_016" speedFactor="1.23" vaporized="">
        <emissions CO_abs="3412.265961" CO2_abs="274534.943901" HC_abs="21.696238" PMx_abs="4.779130" NOx_abs="109.087760" fuel_abs="118.010460" electricity_abs="0"/>
    </tripinfo>
    <tripinfo id="carIn12365:1" depart="57713.00" departLane="315358244_1" departPos="5.10" departSpeed="0.00" departDelay="0.50" arrival="57804.00" arrivalLane="447569997#1_2" arrivalPos="180.93" arrivalSpeed="7.49" duration="91.00" routeLength="718.04" waitingTime="10.00" waitingCount="2" stopTime="0.00" timeLoss="28.16" rerouteNo="1" devices="tripinfo_carIn12365:1 routing_carIn12365:1 emissions_carIn12365:1" vType="default_016" speedFactor="0.98" vaporized="">
        <emissions CO_abs="3952.427462" CO2_abs="194051.917044" HC_abs="22.525333" PMx_abs="3.427912" NOx_abs="79.715795" fuel_abs="83.415408" electricity_abs="0"/>
    </tripinfo>
    <tripinfo id="carIn30817:1" depart="57681.00" departLane="315358244_1" departPos="5.10" departSpeed="0.00" departDelay="0.20" arrival="57807.00" arrivalLane="447569997#1_1" arrivalPos="180.93" arrivalSpeed="6.71" duration="126.00" routeLength="718.04" waitingTime="35.00" waitingCount="2" stopTime="0.00" timeLoss="51.76" rerouteNo="1" devices="tripinfo_carIn30817:1 routing_carIn30817:1 emissions_carIn30817:1" vType="default_016" speedFactor="0.83" vaporized="">
        <emissions CO_abs="7767.997962" CO2_abs="248189.505827" HC_abs="41.135042" PMx_abs="4.701622" NOx_abs="104.400333" fuel_abs="106.688858" electricity_abs="0"/>
    </tripinfo>
    <tripinfo id="carIn27009:1" depart="57673.00" departLane="-447569998#1_1" departPos="5.10" departSpeed="0.00" departDelay="0.50" arrival="57817.00" arrivalLane="-26677539_1" arrivalPos="152.75" arrivalSpeed="7.11" duration="144.00" routeLength="699.63" waitingTime="41.00" waitingCount="1" stopTime="0.00" timeLoss="56.03" rerouteNo="1" devices="tripinfo_carIn27009:1 routing_carIn27009:1 emissions_carIn27009:1" vType="default_015" speedFactor="0.96" vaporized="">
        <emissions CO_abs="10698.135136" CO2_abs="294191.474303" HC_abs="55.493702" PMx_abs="5.576395" NOx_abs="124.237372" fuel_abs="126.464878" electricity_abs="0"/>
    </tripinfo>
    <tripinfo id="carIn107084:1" depart="57601.00" departLane="124812856#0_1" departPos="5.10" departSpeed="0.00" departDelay="0.70" arrival="57818.00" arrivalLane="-128361102#1_1" arrivalPos="274.68" arrivalSpeed="11.20" duration="217.00" routeLength="2250.49" waitingTime="7.00" waitingCount="1" stopTime="0.00" timeLoss="30.98" rerouteNo="1" devices="tripinfo_carIn107084:1 routing_carIn107084:1 emissions_carIn107084:1" vType="default_016" speedFactor="0.88" vaporized="">
        <emissions CO_abs="6111.181401" CO2_abs="456897.202403" HC_abs="38.403306" PMx_abs="7.003816" NOx_abs="179.267176" fuel_abs="196.401479" electricity_abs="0"/>
    </tripinfo>
    <tripinfo id="randUni15030:1" depart="57735.00" departLane="386687232#0_1" departPos="5.10" departSpeed="0.00" departDelay="0.10" arrival="57819.00" arrivalLane="26677539_1" arrivalPos="151.98" arrivalSpeed="8.65" duration="84.00" routeLength="919.89" waitingTime="0.00" waitingCount="0" stopTime="0.00" timeLoss="12.83" rerouteNo="1" devices="tripinfo_randUni15030:1 routing_randUni15030:1 emissions_randUni15030:1" vType="random_016" speedFactor="1.17" vaporized="">
        <emissions CO_abs="3353.205038" CO2_abs="222219.906625" HC_abs="20.455861" PMx_abs="3.813608" NOx_abs="89.702658" fuel_abs="95.522989" electricity_abs="0"/>
    </tripinfo>
    <tripinfo id="h17600c1:1" depart="57662.00" departLane="272042143_1" departPos="5.10" departSpeed="0.00" departDelay="0.30" arrival="57831.00" arrivalLane="201238729#3_1" arrivalPos="431.02" arrivalSpeed="14.02" duration="169.00" routeLength="2100.26" waitingTime="3.00" waitingCount="1" stopTime="0.00" timeLoss="20.02" rerouteNo="1" devices="tripinfo_h17600c1:1 routing_h17600c1:1 emissions_h17600c1:1" vType="default_016" speedFactor="1.02" vaporized="">
        <emissions CO_abs="4379.348010" CO2_abs="398632.670355" HC_abs="29.181498" PMx_abs="6.285868" NOx_abs="155.533024" fuel_abs="171.355043" electricity_abs="0"/>
    </tripinfo>
    <tripinfo id="carIn50326:1" depart="57651.00" departLane="128361102#0_1" departPos="5.10" departSpeed="0.00" departDelay="0.30" arrival="57832.00" arrivalLane="18809673#0_1" arrivalPos="473.56" arrivalSpeed="13.51" duration="181.00" routeLength="1591.07" waitingTime="23.00" waitingCount="2" stopTime="0.00" timeLoss="51.83" rerouteNo="1" devices="tripinfo_carIn50326:1 routing_carIn50326:1 emissions_carIn50326:1" vType="default_016" speedFactor="1.01" vaporized="">
        <emissions CO_abs="7396.311490" CO2_abs="401664.920023" HC_abs="43.030366" PMx_abs="6.769378" NOx_abs="161.717070" fuel_abs="172.660152" electricity_abs="0"/>
    </tripinfo>
    <tripinfo id="carIn118591:1" depart="57689.00" departLane="315358244_1" departPos="5.10" departSpeed="0.00" departDelay="0.20" arrival="57840.00" arrivalLane="386687235_1" arrivalPos="80.84" arrivalSpeed="12.19" duration="151.00" routeLength="1186.14" waitingTime="30.00" waitingCount="3" stopTime="0.00" timeLoss="58.66" rerouteNo="1" devices="tripinfo_carIn118591:1 routing_carIn118591:1 emissions_carIn118591:1" vType="default_016" speedFactor="0.94" vaporized="">
        <emissions CO_abs="7851.431254" CO2_abs="335068.337801" HC_abs="43.567955" PMx_abs="6.047011" NOx_abs="137.878492" fuel_abs="144.033653" electricity_abs="0"/>
    </tripinfo>
    <tripinfo id="carIn85747:1" depart="57673.00" departLane="128361109#1_1" departPos="5.10" departSpeed="0.00" departDelay="0.70" arrival="57843.00" arrivalLane="386687235_1" arrivalPos="80.84" arrivalSpeed="15.65" duration="170.00" routeLength="2088.57" waitingTime="19.00" waitingCount="2" stopTime="0.00" timeLoss="39.48" rerouteNo="1" devices="tripinfo_carIn85747:1 routing_carIn85747:1 emissions_carIn85747:1" vType="default_016" speedFactor="1.15" vaporized="">
        <emissions CO_abs="6016.293193" CO2_abs="440157.562801" HC_abs="37.303455" PMx_abs="7.340246" NOx_abs="172.725040" fuel_abs="189.205306" electricity_abs="0"/>
    </tripinfo>
    <tripinfo id="carIn12152:1" depart="57647.00" departLane="24599188#0.94_1" departPos="5.10" departSpeed="0.00" departDelay="0.50" arrival="57845.00" arrivalLane="-315358254#1_1" arrivalPos="137.16" arrivalSpeed="17.00" duration="198.00" routeLength="2034.31" waitingTime="42.00" waitingCount="3" stopTime="0.00" timeLoss="73.97" rerouteNo="1" devices="tripinfo_carIn12152:1 routing_carIn12152:1 emissions_carIn12152:1" vType="default_016" speedFactor="1.28" vaporized="">
        <emissions CO_abs="11494.006864" CO2_abs="561800.562098" HC_abs="65.247791" PMx_abs="10.621653" NOx_abs="230.470155" fuel_abs="241.495721" electricity_abs="0"/>
    </tripinfo>
    <tripinfo id="carIn8642:1" depart="57774.00" departLane="-447569998#1_1" departPos="5.10" departSpeed="0.00" departDelay="0.90" arrival="57847.00" arrivalLane="-315358244_1" arrivalPos="33.95" arrivalSpeed="12.61" duration="73.00" routeLength="706.49" waitingTime="0.00" waitingCount="0" stopTime="0.00" timeLoss="7.19" rerouteNo="1" devices="tripinfo_carIn8642:1 routing_carIn8642:1 emissions_carIn8642:1" vType="default_016" speedFactor="0.92" vaporized="">
        <emissions CO_abs="2480.975519" CO2_abs="152344.656585" HC_abs="14.805879" PMx_abs="2.335962" NOx_abs="60.056538" fuel_abs="65.487106" electricity_abs="0"/>
    </tripinfo>
    <tripinfo id="carIn3969:1" depart="57628.00" departLane="124812856#0_1" departPos="5.10" departSpeed="0.00" departDelay="4.30" arrival="57852.00" arrivalLane="-128361102#1_1" arrivalPos="274.68" arrivalSpeed="10.37" duration="224.00" routeLength="2232.46" waitingTime="4.00" waitingCount="1" stopTime="0.00" timeLoss="27.33" rerouteNo="1" devices="tripinfo_carIn3969:1 routing_carIn3969:1 emissions_carIn3969:1" vType="default_016" speedFactor="0.83" vaporized="">
        <emissions CO_abs="6482.769443" CO2_abs="455614.485784" HC_abs="40.030571" PMx_abs="6.916552" NOx_abs="178.997808" fuel_abs="195.850457" electricity_abs="0"/>
    </tripinfo>
    <tripinfo id="carIn48184:1" depart="57613.00" departLane="-306240162#1_0" departPos="5.10" departSpeed="0.00" departDelay="0.70" arrival="57854.00" arrivalLane="386687235_1" arrivalPos="80.84" arrivalSpeed="13.83" duration="241.00" routeLength="2257.41" waitingTime="70.00" waitingCount="2" stopTime="0.00" timeLoss="99.47" rerouteNo="1" devices="tripinfo_carIn48184:1 routing_carIn48184:1 emissions_carIn48184:1" vType="default_016" speedFactor="1.06" vaporized="">
        <emissions CO_abs="16986.846622" CO2_abs="694286.018099" HC_abs="93.737680" PMx_abs="13.814700" NOx_abs="289.976961" fuel_abs="298.447280" electricity_abs="0"/>
    </tripinfo>
    <tripinfo id="h6541c1:3" depart="57727.00" departLane="201950247#3_1" departPos="5.10" departSpeed="0.00" departDelay="0.00" arrival="57856.00" arrivalLane="32978638#0_1" arrivalPos="49.29" arrivalSpeed="11.74" duration="129.00" routeLength="1176.17" waitingTime="2.00" waitingCount="1" stopTime="0.00" timeLoss="18.80" rerouteNo="1" devices="tripinfo_h6541c1:3 routing_h6541c1:3 emissions_h6541c1:3" vType="default_016" speedFactor="0.93" vaporized="">
        <emissions CO_abs="4780.126553" CO2_abs="281819.977721" HC_abs="28.322453" PMx_abs="4.721269" NOx_abs="114.078925" fuel_abs="121.143075" electricity_abs="0"/>
    </tripinfo>
    <tripinfo id="randUni31145:1" depart="57814.00" departLane="10425609#0_1" departPos="5.10" departSpeed="0.00" departDelay="0.30" arrival="57857.00" arrivalLane="201956810_1" arrivalPos="71.65" arrivalSpeed="10.51" duration="43.00" routeLength="255.78" waitingTime="9.00" waitingCount="1" stopTime="0.00" timeLoss="18.85" rerouteNo="1" devices="tripinfo_randUni31145:1 routing_randUni31145:1 emissions_randUni31145:1" vType="random_016" speedFactor="0.82" vaporized="">
        <emissions CO_abs="2856.559575" CO2_abs="111006.703396" HC_abs="15.616156" PMx_abs="2.175300" NOx_abs="47.286021" fuel_abs="47.717636" electricity_abs="0"/>
    </tripinfo>
    <tripinfo id="randUni2407:1" depart="57820.00" departLane="10425609#0_1" departPos="5.10" departSpeed="0.00" departDelay="0.80" arrival="57860.00" arrivalLane="201956810_1" arrivalPos="71.65" arrivalSpeed="12.27" duration="40.00" routeLength="255.78" waitingTime="6.00" waitingCount="1" stopTime="0.00" timeLoss="19.04" rerouteNo="1" devices="tripinfo_randUni2407:1 routing_randUni2407:1 emissions_randUni2407:1" vType="random_016" speedFactor="0.97" vaporized="">
        <emissions CO_abs="2362.935963" CO2_abs="107468.565944" HC_abs="13.290214" PMx_abs="2.066305" NOx_abs="45.505401" fuel_abs="46.196441" electricity_abs="0"/>
    </tripinfo>
    <tripinfo id="h19804c1:3" depart="57617.00" departLane="124812856#0_1" departPos="5.10" departSpeed="0.00" departDelay="1.50" arrival="57868.00" arrivalLane="-128361102#1_1" arrivalPos="274.68" arrivalSpeed="12.69" duration="251.00" routeLength="2250.49" waitingTime="33.00" waitingCount="4" stopTime="0.00" timeLoss="76.94" rerouteNo="1" devices="tripinfo_h19804c1:3 routing_h19804c1:3 emissions_h19804c1:3" vType="default_016" speedFactor="0.94" vaporized="">
        <emissions CO_abs="11225.397761" CO2_abs="590190.966695" HC_abs="64.919962" PMx_abs="10.383281" NOx_abs="240.824512" fuel_abs="253.699777" electricity_abs="0"/>
    </tripinfo>
    <tripinfo id="carIn12775:1" depart="57676.00" departLane="10425609#0_1" departPos="5.10" departSpeed="0.00" departDelay="0.60" arrival="57871.00" arrivalLane="18809673#0_1" arrivalPos="473.56" arrivalSpeed="13.67" duration="195.00" routeLength="1959.45" waitingTime="14.00" waitingCount="2" stopTime="0.00" timeLoss="55.13" rerouteNo="1" devices="tripinfo_carIn12775:1 routing_carIn12775:1 emissions_carIn12775:1" vType="default_016" speedFactor="1.04" vaporized="">
        <emissions CO_abs="7325.746078" CO2_abs="435907.055534" HC_abs="43.538900" PMx_abs="7.570253" NOx_abs="176.457662" fuel_abs="187.378618" electricity_abs="0"/>
    </tripinfo>
    <tripinfo id="carIn56649:1" depart="57631.00" departLane="124812856#0_1" departPos="5.10" departSpeed="0.00" departDelay="7.10" arrival="57872.00" arrivalLane="-128361102#1_1" arrivalPos="274.68" arrivalSpeed="11.01" duration="241.00" routeLength="2250.49" waitingTime="16.00" waitingCount="3" stopTime="0.00" timeLoss="53.98" rerouteNo="1" devices="tripinfo_carIn56649:1 routing_carIn56649:1 emissions_carIn56649:1" vType="default_016" speedFactor="0.88" vaporized="">