<?xml version="1.0" encoding="UTF-8"?>

<!-- generated on Thu Nov  4 13:25:57 2021 by Eclipse SUMO sumo Version 1.9.0
<configuration xmlns:xsi="http://www.w3.org/2001/XMLSchema-instance" xsi:noNamespaceSchemaLocation="http://sumo.dlr.de/xsd/sumoConfiguration.xsd">

    <input>
        <net-file value="/mainfs/home/bk2g18/RESCO/environments/ingolstadt21/ingolstadt21.net.xml"/>
        <route-files value="/mainfs/home/bk2g18/RESCO/environments/ingolstadt21/ingolstadt21.rou.xml"/>
    </input>

    <output>
        <tripinfo-output value="/mainfs/home/bk2g18/RESCO/logs/MPLight-tr0-ingolstadt21-21-mplight-pressure/tripinfo_24.xml"/>
        <tripinfo-output.write-unfinished value="true"/>
    </output>

    <time>
        <begin value="57600"/>
        <end value="61200"/>
    </time>

    <processing>
        <time-to-teleport value="-1"/>
    </processing>

    <report>
        <xml-validation value="never"/>
        <xml-validation.routes value="never"/>
        <no-warnings value="true"/>
        <no-step-log value="true"/>
    </report>

    <emissions>
        <device.emissions.probability value="1"/>
    </emissions>

    <traci_server>
        <remote-port value="44379"/>
    </traci_server>

    <random_number>
        <random value="true"/>
    </random_number>

</configuration>
-->

<tripinfos xmlns:xsi="http://www.w3.org/2001/XMLSchema-instance" xsi:noNamespaceSchemaLocation="http://sumo.dlr.de/xsd/tripinfo_file.xsd">
    <tripinfo id="h15454c2:3" depart="57612.00" departLane="24608844_1" departPos="5.10" departSpeed="0.00" departDelay="0.50" arrival="57650.00" arrivalLane="32978638#0_1" arrivalPos="49.29" arrivalSpeed="14.74" duration="38.00" routeLength="354.79" waitingTime="0.00" waitingCount="0" stopTime="0.00" timeLoss="8.02" rerouteNo="1" devices="tripinfo_h15454c2:3 routing_h15454c2:3 emissions_h15454c2:3" vType="default_016" speedFactor="1.15" vaporized="">
        <emissions CO_abs="2289.867119" CO2_abs="131511.345106" HC_abs="13.519911" PMx_abs="2.392678" NOx_abs="54.537166" fuel_abs="56.531191" electricity_abs="0"/>
    </tripinfo>
    <tripinfo id="carIn60260:1" depart="57606.00" departLane="315358254#0_1" departPos="5.10" departSpeed="0.00" departDelay="0.90" arrival="57660.00" arrivalLane="399835085#1_1" arrivalPos="212.23" arrivalSpeed="8.86" duration="54.00" routeLength="430.98" waitingTime="0.00" waitingCount="0" stopTime="0.00" timeLoss="11.95" rerouteNo="1" devices="tripinfo_carIn60260:1 routing_carIn60260:1 emissions_carIn60260:1" vType="default_016" speedFactor="1.11" vaporized="">
        <emissions CO_abs="2547.724141" CO2_abs="130618.945235" HC_abs="14.639572" PMx_abs="2.261779" NOx_abs="53.625788" fuel_abs="56.147975" electricity_abs="0"/>
    </tripinfo>
    <tripinfo id="carIn53971:1" depart="57640.00" departLane="272042143_1" departPos="5.10" departSpeed="0.00" departDelay="0.80" arrival="57698.00" arrivalLane="24634414#1_1" arrivalPos="162.19" arrivalSpeed="6.61" duration="58.00" routeLength="493.04" waitingTime="0.00" waitingCount="0" stopTime="0.00" timeLoss="9.79" rerouteNo="1" devices="tripinfo_carIn53971:1 routing_carIn53971:1 emissions_carIn53971:1" vType="default_016" speedFactor="0.94" vaporized="">
        <emissions CO_abs="2544.256712" CO2_abs="140579.172779" HC_abs="14.855495" PMx_abs="2.393222" NOx_abs="57.325514" fuel_abs="60.429393" electricity_abs="0"/>
    </tripinfo>
    <tripinfo id="h7800c1:5" depart="57696.00" departLane="-447569998#1_1" departPos="5.10" departSpeed="0.00" departDelay="0.00" arrival="57729.00" arrivalLane="-447569998#1_1" arrivalPos="180.76" arrivalSpeed="5.89" duration="33.00" routeLength="175.66" waitingTime="0.00" waitingCount="0" stopTime="0.00" timeLoss="4.52" rerouteNo="1" devices="tripinfo_h7800c1:5 routing_h7800c1:5 emissions_h7800c1:5" vType="default_016" speedFactor="0.76" vaporized="">
        <emissions CO_abs="1725.145332" CO2_abs="58363.066207" HC_abs="9.179503" PMx_abs="0.951261" NOx_abs="23.856247" fuel_abs="25.088563" electricity_abs="0"/>
    </tripinfo>
    <tripinfo id="h12244c1:3" depart="57612.00" departLane="315358244_1" departPos="5.10" departSpeed="0.00" departDelay="0.40" arrival="57738.00" arrivalLane="386687235_1" arrivalPos="80.84" arrivalSpeed="15.29" duration="126.00" routeLength="1186.14" waitingTime="22.00" waitingCount="3" stopTime="0.00" timeLoss="49.44" rerouteNo="1" devices="tripinfo_h12244c1:3 routing_h12244c1:3 emissions_h12244c1:3" vType="default_016" speedFactor="1.13" vaporized="">
        <emissions CO_abs="6455.381337" CO2_abs="349475.301719" HC_abs="37.488939" PMx_abs="6.412697" NOx_abs="142.859594" fuel_abs="150.225177" electricity_abs="0"/>
    </tripinfo>
    <tripinfo id="h3568c1:3" depart="57656.00" departLane="266565295#5_1" departPos="5.10" departSpeed="0.00" departDelay="0.80" arrival="57739.00" arrivalLane="-24634415_1" arrivalPos="62.03" arrivalSpeed="12.21" duration="83.00" routeLength="807.40" waitingTime="0.00" waitingCount="0" stopTime="0.00" timeLoss="11.90" rerouteNo="1" devices="tripinfo_h3568c1:3 routing_h3568c1:3 emissions_h3568c1:3" vType="default_016" speedFactor="0.91" vaporized="">
        <emissions CO_abs="3382.788748" CO2_abs="212318.863580" HC_abs="20.348487" PMx_abs="3.529234" NOx_abs="85.480553" fuel_abs="91.267226" electricity_abs="0"/>
    </tripinfo>
    <tripinfo id="S5R_frequency1.2" depart="57615.00" departLane="315358250#0_1" departPos="12.10" departSpeed="0.00" departDelay="3.40" arrival="57744.00" arrivalLane="386687235_1" arrivalPos="80.84" arrivalSpeed="13.67" duration="129.00" routeLength="1115.62" waitingTime="16.00" waitingCount="3" stopTime="0.00" timeLoss="47.05" rerouteNo="1" devices="tripinfo_S5R_frequency1.2 routing_S5R_frequency1.2 emissions_S5R_frequency1.2" vType="bus" speedFactor="1.00" vaporized="">
        <emissions CO_abs="2600.742151" CO2_abs="1542601.046394" HC_abs="551.616606" PMx_abs="276.712673" NOx_abs="12207.523576" fuel_abs="657.871045" electricity_abs="0"/>
    </tripinfo>
    <tripinfo id="h4538c1:1" depart="57701.00" departLane="-10427692#1_1" departPos="5.10" departSpeed="0.00" departDelay="0.00" arrival="57749.00" arrivalLane="-128361102#1_1" arrivalPos="274.68" arrivalSpeed="11.96" duration="48.00" routeLength="440.74" waitingTime="3.00" waitingCount="1" stopTime="0.00" timeLoss="13.09" rerouteNo="1" devices="tripinfo_h4538c1:1 routing_h4538c1:1 emissions_h4538c1:1" vType="default_016" speedFactor="0.90" vaporized="">
        <emissions CO_abs="2006.364100" CO2_abs="120655.581711" HC_abs="11.946644" PMx_abs="2.024010" NOx_abs="48.723374" fuel_abs="51.864958" electricity_abs="0"/>
    </tripinfo>
    <tripinfo id="h7181c1:1" depart="57660.00" departLane="315358254#0_1" departPos="5.10" departSpeed="0.00" departDelay="0.10" arrival="57753.00" arrivalLane="306240162#0_0" arrivalPos="220.43" arrivalSpeed="14.76" duration="93.00" routeLength="932.35" waitingTime="17.00" waitingCount="2" stopTime="0.00" timeLoss="34.73" rerouteNo="1" devices="tripinfo_h7181c1:1 routing_h7181c1:1 emissions_h7181c1:1" vType="default_016" speedFactor="0.89" vaporized="">
        <emissions CO_abs="4921.932541" CO2_abs="285684.085267" HC_abs="29.196770" PMx_abs="5.363942" NOx_abs="117.246945" fuel_abs="122.803503" electricity_abs="0"/>
    </tripinfo>
    <tripinfo id="carIn80064:1" depart="57603.00" departLane="128361109#1_1" departPos="5.10" departSpeed="0.00" departDelay="0.40" arrival="57759.00" arrivalLane="-315358254#1_1" arrivalPos="137.16" arrivalSpeed="11.64" duration="156.00" routeLength="1587.97" waitingTime="20.00" waitingCount="3" stopTime="0.00" timeLoss="49.71" rerouteNo="1" devices="tripinfo_carIn80064:1 routing_carIn80064:1 emissions_carIn80064:1" vType="default_016" speedFactor="0.84" vaporized="">
        <emissions CO_abs="8098.439432" CO2_abs="462376.527564" HC_abs="47.725687" PMx_abs="8.483967" NOx_abs="189.183980" fuel_abs="198.756437" electricity_abs="0"/>
    </tripinfo>
    <tripinfo id="h3326c1:2" depart="57656.00" departLane="22716069#0_1" departPos="5.10" departSpeed="0.00" departDelay="0.00" arrival="57760.00" arrivalLane="24634517#13_1" arrivalPos="111.62" arrivalSpeed="14.93" duration="104.00" routeLength="1312.81" waitingTime="0.00" waitingCount="0" stopTime="0.00" timeLoss="15.23" rerouteNo="1" devices="tripinfo_h3326c1:2 routing_h3326c1:2 emissions_h3326c1:2" vType="default_016" speedFactor="1.10" vaporized="">
        <emissions CO_abs="4297.215195" CO2_abs="334781.617774" HC_abs="27.323285" PMx_abs="5.905325" NOx_abs="135.244138" fuel_abs="143.907716" electricity_abs="0"/>
    </tripinfo>
    <tripinfo id="h3688c1:1" depart="57625.00" departLane="201201950#1_1" departPos="5.10" departSpeed="0.00" departDelay="0.00" arrival="57766.00" arrivalLane="32978638#0_1" arrivalPos="49.29" arrivalSpeed="11.43" duration="141.00" routeLength="1089.75" waitingTime="29.00" waitingCount="2" stopTime="0.00" timeLoss="47.30" rerouteNo="1" devices="tripinfo_h3688c1:1 routing_h3688c1:1 emissions_h3688c1:1" vType="default_016" speedFactor="0.86" vaporized="">
        <emissions CO_abs="8077.868444" CO2_abs="330217.168028" HC_abs="44.470384" PMx_abs="5.933052" NOx_abs="135.984084" fuel_abs="141.948616" electricity_abs="0"/>
    </tripinfo>
    <tripinfo id="carIn27009:1" depart="57673.00" departLane="-447569998#1_1" departPos="5.10" departSpeed="0.00" departDelay="0.50" arrival="57766.00" arrivalLane="-26677539_1" arrivalPos="152.75" arrivalSpeed="8.56" duration="93.00" routeLength="699.63" waitingTime="0.00" waitingCount="0" stopTime="0.00" timeLoss="11.89" rerouteNo="1" devices="tripinfo_carIn27009:1 routing_carIn27009:1 emissions_carIn27009:1" vType="default_015" speedFactor="1.03" vaporized="">
        <emissions CO_abs="3698.511279" CO2_abs="178546.078766" HC_abs="20.910949" PMx_abs="2.719173" NOx_abs="71.236659" fuel_abs="76.750693" electricity_abs="0"/>
    </tripinfo>
    <tripinfo id="h5979c1:5" depart="57669.00" departLane="399835085#1_1" departPos="5.10" departSpeed="0.00" departDelay="0.00" arrival="57768.00" arrivalLane="-315358254#1_1" arrivalPos="137.16" arrivalSpeed="12.54" duration="99.00" routeLength="659.33" waitingTime="9.00" waitingCount="1" stopTime="0.00" timeLoss="24.29" rerouteNo="1" devices="tripinfo_h5979c1:5 routing_h5979c1:5 emissions_h5979c1:5" vType="default_016" speedFactor="0.97" vaporized="">
        <emissions CO_abs="4734.601947" CO2_abs="196173.754363" HC_abs="26.078781" PMx_abs="3.321444" NOx_abs="80.141350" fuel_abs="84.328306" electricity_abs="0"/>
    </tripinfo>
    <tripinfo id="carIn30817:1" depart="57681.00" departLane="315358244_1" departPos="5.10" departSpeed="0.00" departDelay="0.20" arrival="57771.00" arrivalLane="447569997#1_1" arrivalPos="180.93" arrivalSpeed="7.38" duration="90.00" routeLength="718.04" waitingTime="11.00" waitingCount="2" stopTime="0.00" timeLoss="29.55" rerouteNo="1" devices="tripinfo_carIn30817:1 routing_carIn30817:1 emissions_carIn30817:1" vType="default_016" speedFactor="1.03" vaporized="">
        <emissions CO_abs="4320.764607" CO2_abs="208611.765061" HC_abs="24.547520" PMx_abs="3.800666" NOx_abs="86.296873" fuel_abs="89.674020" electricity_abs="0"/>
    </tripinfo>
    <tripinfo id="carIn22761:1" depart="57616.00" departLane="-306240162#1_0" departPos="5.10" departSpeed="0.00" departDelay="2.10" arrival="57773.00" arrivalLane="399835085#1_1" arrivalPos="212.23" arrivalSpeed="7.64" duration="157.00" routeLength="1093.26" waitingTime="56.00" waitingCount="1" stopTime="0.00" timeLoss="81.35" rerouteNo="1" devices="tripinfo_carIn22761:1 routing_carIn22761:1 emissions_carIn22761:1" vType="default_016" speedFactor="1.04" vaporized="">
        <emissions CO_abs="14067.464343" CO2_abs="469807.771662" HC_abs="75.143639" PMx_abs="9.838369" NOx_abs="201.118641" fuel_abs="201.953852" electricity_abs="0"/>
    </tripinfo>
    <tripinfo id="h317c2:1" depart="57707.00" departLane="-32978638#0_1" departPos="5.10" departSpeed="0.00" departDelay="0.10" arrival="57776.00" arrivalLane="-266565295#5_1" arrivalPos="172.76" arrivalSpeed="12.02" duration="69.00" routeLength="370.53" waitingTime="32.00" waitingCount="1" stopTime="0.00" timeLoss="39.83" rerouteNo="1" devices="tripinfo_h317c2:1 routing_h317c2:1 emissions_h317c2:1" vType="default_016" speedFactor="0.95" vaporized="">
        <emissions CO_abs="6581.592977" CO2_abs="188831.534249" HC_abs="34.408983" PMx_abs="3.933232" NOx_abs="81.302606" fuel_abs="81.172809" electricity_abs="0"/>
    </tripinfo>
    <tripinfo id="h9563c2:5" depart="57631.00" departLane="315358244_1" departPos="5.10" departSpeed="0.00" departDelay="0.70" arrival="57777.00" arrivalLane="386687235_1" arrivalPos="80.84" arrivalSpeed="13.49" duration="146.00" routeLength="1186.14" waitingTime="36.00" waitingCount="3" stopTime="0.00" timeLoss="59.98" rerouteNo="1" devices="tripinfo_h9563c2:5 routing_h9563c2:5 emissions_h9563c2:5" vType="default_016" speedFactor="1.01" vaporized="">
        <emissions CO_abs="9195.784747" CO2_abs="354870.203685" HC_abs="50.172518" PMx_abs="6.686780" NOx_abs="147.383921" fuel_abs="152.546121" electricity_abs="0"/>
    </tripinfo>
    <tripinfo id="h330c1:1" depart="57736.00" departLane="-32978638#0_1" departPos="5.10" departSpeed="0.00" departDelay="0.20" arrival="57779.00" arrivalLane="-266565295#5_1" arrivalPos="172.76" arrivalSpeed="11.82" duration="43.00" routeLength="370.53" waitingTime="3.00" waitingCount="1" stopTime="0.00" timeLoss="13.03" rerouteNo="1" devices="tripinfo_h330c1:1 routing_h330c1:1 emissions_h330c1:1" vType="default_016" speedFactor="0.93" vaporized="">
        <emissions CO_abs="2074.030530" CO2_abs="116708.438357" HC_abs="12.179426" PMx_abs="2.070755" NOx_abs="47.932399" fuel_abs="50.168174" electricity_abs="0"/>
    </tripinfo>
    <tripinfo id="carIn121703:1" depart="57647.00" departLane="386687232#0_1" departPos="5.10" departSpeed="0.00" departDelay="0.30" arrival="57784.00" arrivalLane="-315358244_1" arrivalPos="33.95" arrivalSpeed="11.86" duration="137.00" routeLength="1157.39" waitingTime="18.00" waitingCount="2" stopTime="0.00" timeLoss="38.32" rerouteNo="1" devices="tripinfo_carIn121703:1 routing_carIn121703:1 emissions_carIn121703:1" vType="default_016" speedFactor="0.86" vaporized="">
        <emissions CO_abs="5888.167395" CO2_abs="294668.762585" HC_abs="33.643846" PMx_abs="4.927761" NOx_abs="118.830106" fuel_abs="126.667067" electricity_abs="0"/>
    </tripinfo>
    <tripinfo id="h3154c1:1" depart="57658.00" departLane="24634507_1" departPos="5.10" departSpeed="0.00" departDelay="0.00" arrival="57786.00" arrivalLane="-266565295#5_1" arrivalPos="172.76" arrivalSpeed="14.75" duration="128.00" routeLength="1206.22" waitingTime="28.00" waitingCount="1" stopTime="0.00" timeLoss="45.47" rerouteNo="1" devices="tripinfo_h3154c1:1 routing_h3154c1:1 emissions_h3154c1:1" vType="default_016" speedFactor="1.08" vaporized="">
        <emissions CO_abs="8288.743679" CO2_abs="370537.968269" HC_abs="46.369441" PMx_abs="7.101895" NOx_abs="154.384079" fuel_abs="159.279840" electricity_abs="0"/>
    </tripinfo>
    <tripinfo id="carIn107282:1" depart="57749.00" departLane="-447569998#1_1" departPos="5.10" departSpeed="0.00" departDelay="0.00" arrival="57794.00" arrivalLane="315358242#0_1" arrivalPos="165.37" arrivalSpeed="14.14" duration="45.00" routeLength="448.50" waitingTime="0.00" waitingCount="0" stopTime="0.00" timeLoss="4.67" rerouteNo="1" devices="tripinfo_carIn107282:1 routing_carIn107282:1 emissions_carIn107282:1" vType="default_016" speedFactor="1.04" vaporized="">
        <emissions CO_abs="1613.222960" CO2_abs="98973.726698" HC_abs="9.621652" PMx_abs="1.542769" NOx_abs="39.125156" fuel_abs="42.544963" electricity_abs="0"/>
    </tripinfo>
    <tripinfo id="h645c1:1" depart="57622.00" departLane="266565295#5_1" departPos="5.10" departSpeed="0.00" departDelay="0.40" arrival="57798.00" arrivalLane="-315358244_1" arrivalPos="33.95" arrivalSpeed="12.86" duration="176.00" routeLength="1910.83" waitingTime="10.00" waitingCount="1" stopTime="0.00" timeLoss="29.60" rerouteNo="1" devices="tripinfo_h645c1:1 routing_h645c1:1 emissions_h645c1:1" vType="default_016" speedFactor="0.95" vaporized="">
        <emissions CO_abs="5184.988660" CO2_abs="392617.102320" HC_abs="32.671876" PMx_abs="5.796636" NOx_abs="151.368440" fuel_abs="168.770496" electricity_abs="0"/>
    </tripinfo>
    <tripinfo id="carIn118591:1" depart="57689.00" departLane="315358244_1" departPos="5.10" departSpeed="0.00" departDelay="0.20" arrival="57806.00" arrivalLane="386687235_1" arrivalPos="80.84" arrivalSpeed="14.91" duration="117.00" routeLength="1186.14" waitingTime="10.00" waitingCount="2" stopTime="0.00" timeLoss="38.30" rerouteNo="1" devices="tripinfo_carIn118591:1 routing_carIn118591:1 emissions_carIn118591:1" vType="default_016" speedFactor="1.11" vaporized="">
        <emissions CO_abs="5030.348666" CO2_abs="332980.227614" HC_abs="30.575961" PMx_abs="5.919158" NOx_abs="135.358981" fuel_abs="143.133895" electricity_abs="0"/>
    </tripinfo>
    <tripinfo id="carIn81860:1" depart="57712.00" departLane="128361102#0_1" departPos="5.10" departSpeed="0.00" departDelay="0.60" arrival="57810.00" arrivalLane="-24634517#17_1" arrivalPos="6.43" arrivalSpeed="8.29" duration="98.00" routeLength="1229.64" waitingTime="0.00" waitingCount="0" stopTime="0.00" timeLoss="13.46" rerouteNo="1" devices="tripinfo_carIn81860:1 routing_carIn81860:1 emissions_carIn81860:1" vType="default_016" speedFactor="1.07" vaporized="">
        <emissions CO_abs="3330.488717" CO2_abs="263195.604078" HC_abs="21.334103" PMx_abs="4.386310" NOx_abs="104.494268" fuel_abs="113.136466" electricity_abs="0"/>
    </tripinfo>
    <tripinfo id="h11737c1:1" depart="57665.00" departLane="272042143_1" departPos="5.10" departSpeed="0.00" departDelay="1.50" arrival="57818.00" arrivalLane="-315358254#1_1" arrivalPos="137.16" arrivalSpeed="11.92" duration="153.00" routeLength="1596.88" waitingTime="7.00" waitingCount="2" stopTime="0.00" timeLoss="28.37" rerouteNo="1" devices="tripinfo_h11737c1:1 routing_h11737c1:1 emissions_h11737c1:1" vType="default_016" speedFactor="0.94" vaporized="">
        <emissions CO_abs="4494.675688" CO2_abs="326183.061312" HC_abs="28.058860" PMx_abs="5.219602" NOx_abs="129.153723" fuel_abs="140.212602" electricity_abs="0"/>
    </tripinfo>
    <tripinfo id="carIn126288:1" depart="57674.00" departLane="272042143_1" departPos="5.10" departSpeed="0.00" departDelay="0.00" arrival="57819.00" arrivalLane="-315358254#1_1" arrivalPos="137.16" arrivalSpeed="13.84" duration="145.00" routeLength="1596.88" waitingTime="5.00" waitingCount="1" stopTime="0.00" timeLoss="30.67" rerouteNo="1" devices="tripinfo_carIn126288:1 routing_carIn126288:1 emissions_carIn126288:1" vType="default_016" speedFactor="1.02" vaporized="">
        <emissions CO_abs="4918.450675" CO2_abs="359729.119316" HC_abs="30.846201" PMx_abs="6.142244" NOx_abs="144.847914" fuel_abs="154.632050" electricity_abs="0"/>
    </tripinfo>
    <tripinfo id="carIn129809:1" depart="57729.00" departLane="-447569998#1_1" departPos="5.10" departSpeed="0.00" departDelay="1.00" arrival="57823.00" arrivalLane="-315358244_1" arrivalPos="33.95" arrivalSpeed="13.37" duration="94.00" routeLength="706.49" waitingTime="18.00" waitingCount="2" stopTime="0.00" timeLoss="33.44" rerouteNo="1" devices="tripinfo_carIn129809:1 routing_carIn129809:1 emissions_carIn129809:1" vType="default_015" speedFactor="1.00" vaporized="">
        <emissions CO_abs="4621.376748" CO2_abs="211353.701721" HC_abs="25.982407" PMx_abs="3.804403" NOx_abs="87.061905" fuel_abs="90.852961" electricity_abs="0"/>
    </tripinfo>
    <tripinfo id="carIn126378:1" depart="57746.00" departLane="386687232#0_1" departPos="5.10" departSpeed="0.00" departDelay="1.80" arrival="57834.00" arrivalLane="-315358244_1" arrivalPos="33.95" arrivalSpeed="16.40" duration="88.00" routeLength="1157.39" waitingTime="0.00" waitingCount="0" stopTime="0.00" timeLoss="16.51" rerouteNo="1" devices="tripinfo_carIn126378:1 routing_carIn126378:1 emissions_carIn126378:1" vType="default_016" speedFactor="1.19" vaporized="">
        <emissions CO_abs="3074.883765" CO2_abs="245320.311489" HC_abs="19.672120" PMx_abs="4.241371" NOx_abs="98.035201" fuel_abs="105.452403" electricity_abs="0"/>
    </tripinfo>
    <tripinfo id="carIn82278:1" depart="57702.00" departLane="-306240162#1_0" departPos="5.10" departSpeed="0.00" departDelay="0.70" arrival="57835.00" arrivalLane="399835085#1_1" arrivalPos="212.23" arrivalSpeed="6.82" duration="133.00" routeLength="1093.26" waitingTime="20.00" waitingCount="3" stopTime="0.00" timeLoss="52.30" rerouteNo="1" devices="tripinfo_carIn82278:1 routing_carIn82278:1 emissions_carIn82278:1" vType="default_016" speedFactor="0.96" vaporized="">
        <emissions CO_abs="7493.865810" CO2_abs="361453.480442" HC_abs="42.626175" PMx_abs="6.899273" NOx_abs="150.501077" fuel_abs="155.374315" electricity_abs="0"/>
    </tripinfo>
    <tripinfo id="carIn12858:1" depart="57661.00" departLane="128361109#1_1" departPos="5.10" departSpeed="0.00" departDelay="0.90" arrival="57838.00" arrivalLane="399835085#1_1" arrivalPos="212.23" arrivalSpeed="7.74" duration="177.00" routeLength="1738.12" waitingTime="26.00" waitingCount="2" stopTime="0.00" timeLoss="60.52" rerouteNo="1" devices="tripinfo_carIn12858:1 routing_carIn12858:1 emissions_carIn12858:1" vType="default_016" speedFactor="0.99" vaporized="">
        <emissions CO_abs="11573.167492" CO2_abs="568639.825227" HC_abs="66.232102" PMx_abs="11.238184" NOx_abs="237.596892" fuel_abs="244.434803" electricity_abs="0"/>
    </tripinfo>
    <tripinfo id="carIn50326:1" depart="57651.00" departLane="128361102#0_1" departPos="5.10" departSpeed="0.00" departDelay="0.30" arrival="57843.00" arrivalLane="18809673#0_1" arrivalPos="473.56" arrivalSpeed="12.28" duration="192.00" routeLength="1591.07" waitingTime="28.00" waitingCount="1" stopTime="0.00" timeLoss="56.35" rerouteNo="1" devices="tripinfo_carIn50326:1 routing_carIn50326:1 emissions_carIn50326:1" vType="default_016" speedFactor="0.96" vaporized="">
        <emissions CO_abs="9266.969696" CO2_abs="417194.309889" HC_abs="51.884161" PMx_abs="7.227781" NOx_abs="169.646064" fuel_abs="179.336645" electricity_abs="0"/>
    </tripinfo>
    <tripinfo id="carIn48184:1" depart="57613.00" departLane="-306240162#1_0" departPos="5.10" departSpeed="0.00" departDelay="0.70" arrival="57844.00" arrivalLane="386687235_1" arrivalPos="80.84" arrivalSpeed="13.59" duration="231.00" routeLength="2257.41" waitingTime="42.00" waitingCount="5" stopTime="0.00" timeLoss="84.16" rerouteNo="1" devices="tripinfo_carIn48184:1 routing_carIn48184:1 emissions_carIn48184:1" vType="default_016" speedFactor="1.01" vaporized="">
        <emissions CO_abs="11852.442432" CO2_abs="645381.781349" HC_abs="68.967995" PMx_abs="11.736019" NOx_abs="262.468050" fuel_abs="277.423486" electricity_abs="0"/>
    </tripinfo>
    <tripinfo id="carIn82220:1" depart="57619.00" departLane="-306240162#1_0" departPos="5.10" departSpeed="0.00" departDelay="3.50" arrival="57844.00" arrivalLane="386687235_2" arrivalPos="80.84" arrivalSpeed="13.18" duration="225.00" routeLength="2257.41" waitingTime="27.00" waitingCount="4" stopTime="0.00" timeLoss="73.57" rerouteNo="1" devices="tripinfo_carIn82220:1 routing_carIn82220:1 emissions_carIn82220:1" vType="default_016" speedFactor="0.98" vaporized="">
        <emissions CO_abs="10454.335204" CO2_abs="604682.345460" HC_abs="61.755185" PMx_abs="10.992067" NOx_abs="247.012967" fuel_abs="259.927798" electricity_abs="0"/>
    </tripinfo>
    <tripinfo id="randUni31145:1" depart="57814.00" departLane="10425609#0_1" departPos="5.10" departSpeed="0.00" departDelay="0.30" arrival="57844.00" arrivalLane="201956810_1" arrivalPos="71.65" arrivalSpeed="14.00" duration="30.00" routeLength="255.78" waitingTime="0.00" waitingCount="0" stopTime="0.00" timeLoss="11.01" rerouteNo="1" devices="tripinfo_randUni31145:1 routing_randUni31145:1 emissions_randUni31145:1" vType="random_016" speedFactor="1.05" vaporized="">
        <emissions CO_abs="2179.305509" CO2_abs="113149.839091" HC_abs="12.613469" PMx_abs="2.243124" NOx_abs="48.138638" fuel_abs="48.638248" electricity_abs="0"/>
    </tripinfo>
    <tripinfo id="h9953c2:3" depart="57682.00" departLane="-54169231#2_1" departPos="5.10" departSpeed="0.00" departDelay="0.00" arrival="57845.00" arrivalLane="386687235_2" arrivalPos="80.84" arrivalSpeed="14.88" duration="163.00" routeLength="1535.60" waitingTime="17.00" waitingCount="2" stopTime="0.00" timeLoss="48.54" rerouteNo="1" devices="tripinfo_h9953c2:3 routing_h9953c2:3 emissions_h9953c2:3" vType="default_016" speedFactor="1.09" vaporized="">
        <emissions CO_abs="8274.065643" CO2_abs="454273.276074" HC_abs="48.334705" PMx_abs="8.280341" NOx_abs="186.941517" fuel_abs="195.273401" electricity_abs="0"/>
    </tripinfo>
    <tripinfo id="h16072c2:3" depart="57663.00" departLane="315358254#0_1" departPos="5.10" departSpeed="0.00" departDelay="2.50" arrival="57846.00" arrivalLane="386687235_1" arrivalPos="80.84" arrivalSpeed="13.28" duration="183.00" routeLength="1611.92" waitingTime="33.00" waitingCount="5" stopTime="0.00" timeLoss="70.09" rerouteNo="1" devices="tripinfo_h16072c2:3 routing_h16072c2:3 emissions_h16072c2:3" vType="default_016" speedFactor="1.04" vaporized="">
        <emissions CO_abs="9587.319099" CO2_abs="475022.105143" HC_abs="54.820595" PMx_abs="8.678987" NOx_abs="195.147354" fuel_abs="204.193294" electricity_abs="0"/>
    </tripinfo>
    <tripinfo id="50R_frequency3.17" depart="57674.00" departLane="-18809673#6_1" departPos="12.10" departSpeed="0.00" departDelay="0.70" arrival="57846.00" arrivalLane="201956811#0_1" arrivalPos="40.40" arrivalSpeed="11.66" duration="172.00" routeLength="1954.47" waitingTime="1.00" waitingCount="1" stopTime="0.00" timeLoss="26.71" rerouteNo="1" devices="tripinfo_50R_frequency3.17 routing_50R_frequency3.17 emissions_50R_frequency3.17" vType="bus" speedFactor="1.00" vaporized="">
        <emissions CO_abs="3313.200746" CO2_abs="2061806.416422" HC_abs="713.130248" PMx_abs="355.741634" NOx_abs="16019.390235" fuel_abs="879.347303" electricity_abs="0"/>
    </tripinfo>
    <tripinfo id="randUni15030:1" depart="57735.00" departLane="386687232#0_1" departPos="5.10" departSpeed="0.00" departDelay="0.10" arrival="57846.00" arrivalLane="26677539_1" arrivalPos="151.98" arrivalSpeed="7.27" duration="111.00" routeLength="919.89" waitingTime="6.00" waitingCount="1" stopTime="0.00" timeLoss="20.54" rerouteNo="1" devices="tripinfo_randUni15030:1 routing_randUni15030:1 emissions_randUni15030:1" vType="random_016" speedFactor="0.92" vaporized="">
        <emissions CO_abs="4226.575275" CO2_abs="231440.248317" HC_abs="24.594412" PMx_abs="3.751166" NOx_abs="92.996030" fuel_abs="99.487292" electricity_abs="0"/>
    </tripinfo>
    <tripinfo id="carIn462:1" depart="57622.00" departLane="-306240162#1_0" departPos="5.10" departSpeed="0.00" departDelay="4.80" arrival="57847.00" arrivalLane="386687235_1" arrivalPos="80.84" arrivalSpeed="15.02" duration="225.00" routeLength="2257.41" waitingTime="40.00" waitingCount="4" stopTime="0.00" timeLoss="94.47" rerouteNo="1" devices="tripinfo_carIn462:1 routing_carIn462:1 emissions_carIn462:1" vType="default_016" speedFactor="1.14" vaporized="">
        <emissions CO_abs="13151.637061" CO2_abs="683151.059301" HC_abs="76.015550" PMx_abs="13.348387" NOx_abs="284.581233" fuel_abs="293.658013" electricity_abs="0"/>
    </tripinfo>
    <tripinfo id="randUni2407:1" depart="57820.00" departLane="10425609#0_1" departPos="5.10" departSpeed="0.00" departDelay="0.80" arrival="57848.00" arrivalLane="201956810_1" arrivalPos="71.65" arrivalSpeed="11.97" duration="28.00" routeLength="255.78" waitingTime="0.00" waitingCount="0" stopTime="0.00" timeLoss="5.86" rerouteNo="1" devices="tripinfo_randUni2407:1 routing_randUni2407:1 emissions_randUni2407:1" vType="random_016" speedFactor="0.88" vaporized="">
        <emissions CO_abs="1544.401438" CO2_abs="87683.921140" HC_abs="9.082934" PMx_abs="1.539045" NOx_abs="36.020756" fuel_abs="37.691726" electricity_abs="0"/>
    </tripinfo>
    <tripinfo id="carIn12365:1" depart="57713.00" departLane="315358244_1" departPos="5.10" departSpeed="0.00" departDelay="0.50" arrival="57850.00" arrivalLane="447569997#1_1" arrivalPos="180.93" arrivalSpeed="8.06" duration="137.00" routeLength="718.04" waitingTime="63.00" waitingCount="2" stopTime="0.00" timeLoss="77.91" rerouteNo="1" devices="tripinfo_carIn12365:1 routing_carIn12365:1 emissions_carIn12365:1" vType="default_016" speedFactor="1.04" vaporized="">
        <emissions CO_abs="11256.742723" CO2_abs="312705.399673" HC_abs="58.552411" PMx_abs="6.388155" NOx_abs="133.635695" fuel_abs="134.422847" electricity_abs="0"/>
    </tripinfo>
    <tripinfo id="h8343c1:5" depart="57679.00" departLane="315358254#0_1" departPos="5.10" departSpeed="0.00" departDelay="0.60" arrival="57860.00" arrivalLane="-24634510#5_1" arrivalPos="236.88" arrivalSpeed="13.57" duration="181.00" routeLength="2056.84" waitingTime="27.00" waitingCount="2" stopTime="0.00" timeLoss="54.10" rerouteNo="1" devices="tripinfo_h8343c1:5 routing_h8343c1:5 emissions_h8343c1:5" vType="default_016" speedFactor="0.99" vaporized="">
        <emissions CO_abs="10224.424602" CO2_abs="583789.922015" HC_abs="60.429153" PMx_abs="11.124107" NOx_abs="239.905747" fuel_abs="250.946556" electricity_abs="0"/>
    </tripinfo>
    <tripinfo id="carIn28951:1" depart="57606.00" departLane="10425609#0_1" departPos="5.10" departSpeed="0.00" departDelay="0.20" arrival="57861.00" arrivalLane="-128361102#1_1" arrivalPos="274.68" arrivalSpeed="11.75" duration="255.00" routeLength="2113.04" waitingTime="43.00" waitingCount="3" stopTime="0.00" timeLoss="77.13" rerouteNo="1" devices="tripinfo_carIn28951:1 routing_carIn28951:1 emissions_carIn28951:1" vType="default_016" speedFactor="0.87" vaporized="">
        <emissions CO_abs="11327.947875" CO2_abs="557017.960059" HC_abs="64.497855" PMx_abs="9.332085" NOx_abs="224.472524" fuel_abs="239.441333" electricity_abs="0"/>