<?xml version="1.0" encoding="UTF-8"?>

<!-- generated on Thu Nov  4 13:55:51 2021 by Eclipse SUMO sumo Version 1.9.0
<configuration xmlns:xsi="http://www.w3.org/2001/XMLSchema-instance" xsi:noNamespaceSchemaLocation="http://sumo.dlr.de/xsd/sumoConfiguration.xsd">

    <input>
        <net-file value="/mainfs/home/bk2g18/RESCO/environments/ingolstadt21/ingolstadt21.net.xml"/>
        <route-files value="/mainfs/home/bk2g18/RESCO/environments/ingolstadt21/ingolstadt21.rou.xml"/>
    </input>

    <output>
        <tripinfo-output value="/mainfs/home/bk2g18/RESCO/logs/MPLight-tr0-ingolstadt21-21-mplight-pressure/tripinfo_78.xml"/>
        <tripinfo-output.write-unfinished value="true"/>
    </output>

    <time>
        <begin value="57600"/>
        <end value="61200"/>
    </time>

    <processing>
        <time-to-teleport value="-1"/>
    </processing>

    <report>
        <xml-validation value="never"/>
        <xml-validation.routes value="never"/>
        <no-warnings value="true"/>
        <no-step-log value="true"/>
    </report>

    <emissions>
        <device.emissions.probability value="1"/>
    </emissions>

    <traci_server>
        <remote-port value="41961"/>
    </traci_server>

    <random_number>
        <random value="true"/>
    </random_number>

</configuration>
-->

<tripinfos xmlns:xsi="http://www.w3.org/2001/XMLSchema-instance" xsi:noNamespaceSchemaLocation="http://sumo.dlr.de/xsd/tripinfo_file.xsd">
    <tripinfo id="h15454c2:3" depart="57612.00" departLane="24608844_1" departPos="5.10" departSpeed="0.00" departDelay="0.50" arrival="57651.00" arrivalLane="32978638#0_1" arrivalPos="49.29" arrivalSpeed="13.67" duration="39.00" routeLength="354.79" waitingTime="0.00" waitingCount="0" stopTime="0.00" timeLoss="6.54" rerouteNo="1" devices="tripinfo_h15454c2:3 routing_h15454c2:3 emissions_h15454c2:3" vType="default_016" speedFactor="1.05" vaporized="">
        <emissions CO_abs="2082.156695" CO2_abs="117700.941023" HC_abs="12.203558" PMx_abs="2.085983" NOx_abs="48.450422" fuel_abs="50.594787" electricity_abs="0"/>
    </tripinfo>
    <tripinfo id="carIn60260:1" depart="57606.00" departLane="315358254#0_1" departPos="5.10" departSpeed="0.00" departDelay="0.90" arrival="57660.00" arrivalLane="399835085#1_1" arrivalPos="212.23" arrivalSpeed="6.96" duration="54.00" routeLength="430.98" waitingTime="0.00" waitingCount="0" stopTime="0.00" timeLoss="7.19" rerouteNo="1" devices="tripinfo_carIn60260:1 routing_carIn60260:1 emissions_carIn60260:1" vType="default_016" speedFactor="0.99" vaporized="">
        <emissions CO_abs="2172.529511" CO2_abs="109631.724534" HC_abs="12.428218" PMx_abs="1.833455" NOx_abs="44.664402" fuel_abs="47.126510" electricity_abs="0"/>
    </tripinfo>
    <tripinfo id="carIn53971:1" depart="57640.00" departLane="272042143_1" departPos="5.10" departSpeed="0.00" departDelay="0.80" arrival="57702.00" arrivalLane="24634414#1_1" arrivalPos="162.19" arrivalSpeed="6.63" duration="62.00" routeLength="493.04" waitingTime="0.00" waitingCount="0" stopTime="0.00" timeLoss="8.95" rerouteNo="1" devices="tripinfo_carIn53971:1 routing_carIn53971:1 emissions_carIn53971:1" vType="default_016" speedFactor="0.87" vaporized="">
        <emissions CO_abs="2602.408465" CO2_abs="128739.275781" HC_abs="14.835344" PMx_abs="2.200712" NOx_abs="52.749921" fuel_abs="55.340092" electricity_abs="0"/>
    </tripinfo>
    <tripinfo id="carIn22761:1" depart="57616.00" departLane="-306240162#1_0" departPos="5.10" departSpeed="0.00" departDelay="2.10" arrival="57712.00" arrivalLane="399835085#1_1" arrivalPos="212.23" arrivalSpeed="7.45" duration="96.00" routeLength="1093.26" waitingTime="6.00" waitingCount="1" stopTime="0.00" timeLoss="20.98" rerouteNo="1" devices="tripinfo_carIn22761:1 routing_carIn22761:1 emissions_carIn22761:1" vType="default_016" speedFactor="1.04" vaporized="">
        <emissions CO_abs="4484.809513" CO2_abs="270451.753015" HC_abs="26.868203" PMx_abs="5.146309" NOx_abs="111.266111" fuel_abs="116.255532" electricity_abs="0"/>
    </tripinfo>
    <tripinfo id="h12244c1:3" depart="57612.00" departLane="315358244_1" departPos="5.10" departSpeed="0.00" departDelay="0.40" arrival="57717.00" arrivalLane="386687235_1" arrivalPos="80.84" arrivalSpeed="14.55" duration="105.00" routeLength="1186.14" waitingTime="10.00" waitingCount="1" stopTime="0.00" timeLoss="25.57" rerouteNo="1" devices="tripinfo_h12244c1:3 routing_h12244c1:3 emissions_h12244c1:3" vType="default_016" speedFactor="1.09" vaporized="">
        <emissions CO_abs="3849.400037" CO2_abs="256949.355305" HC_abs="23.391612" PMx_abs="4.305472" NOx_abs="101.892771" fuel_abs="110.451948" electricity_abs="0"/>
    </tripinfo>
    <tripinfo id="h7800c1:5" depart="57696.00" departLane="-447569998#1_1" departPos="5.10" departSpeed="0.00" departDelay="0.00" arrival="57725.00" arrivalLane="-447569998#1_2" arrivalPos="180.76" arrivalSpeed="6.91" duration="29.00" routeLength="175.66" waitingTime="0.00" waitingCount="0" stopTime="0.00" timeLoss="3.86" rerouteNo="1" devices="tripinfo_h7800c1:5 routing_h7800c1:5 emissions_h7800c1:5" vType="default_016" speedFactor="0.87" vaporized="">
        <emissions CO_abs="1469.412252" CO2_abs="57288.741662" HC_abs="7.997165" PMx_abs="0.928094" NOx_abs="23.330597" fuel_abs="24.626564" electricity_abs="0"/>
    </tripinfo>
    <tripinfo id="S5R_frequency1.2" depart="57615.00" departLane="315358250#0_1" departPos="12.10" departSpeed="0.00" departDelay="3.40" arrival="57727.00" arrivalLane="386687235_1" arrivalPos="80.84" arrivalSpeed="13.88" duration="112.00" routeLength="1115.62" waitingTime="7.00" waitingCount="1" stopTime="0.00" timeLoss="30.26" rerouteNo="1" devices="tripinfo_S5R_frequency1.2 routing_S5R_frequency1.2 emissions_S5R_frequency1.2" vType="bus" speedFactor="1.00" vaporized="">
        <emissions CO_abs="2091.000982" CO2_abs="1262744.819979" HC_abs="444.821400" PMx_abs="223.157418" NOx_abs="9925.102923" fuel_abs="538.531935" electricity_abs="0"/>
    </tripinfo>
    <tripinfo id="h3688c1:1" depart="57625.00" departLane="201201950#1_1" departPos="5.10" departSpeed="0.00" departDelay="0.00" arrival="57730.00" arrivalLane="32978638#0_1" arrivalPos="49.29" arrivalSpeed="13.91" duration="105.00" routeLength="1089.75" waitingTime="13.00" waitingCount="1" stopTime="0.00" timeLoss="25.82" rerouteNo="1" devices="tripinfo_h3688c1:1 routing_h3688c1:1 emissions_h3688c1:1" vType="default_016" speedFactor="1.01" vaporized="">
        <emissions CO_abs="5043.332602" CO2_abs="293480.141611" HC_abs="29.831079" PMx_abs="5.127222" NOx_abs="118.745079" fuel_abs="126.155188" electricity_abs="0"/>
    </tripinfo>
    <tripinfo id="h9563c2:5" depart="57631.00" departLane="315358244_1" departPos="5.10" departSpeed="0.00" departDelay="0.70" arrival="57731.00" arrivalLane="386687235_1" arrivalPos="80.84" arrivalSpeed="12.92" duration="100.00" routeLength="1186.14" waitingTime="0.00" waitingCount="0" stopTime="0.00" timeLoss="9.31" rerouteNo="1" devices="tripinfo_h9563c2:5 routing_h9563c2:5 emissions_h9563c2:5" vType="default_016" speedFactor="0.96" vaporized="">
        <emissions CO_abs="2487.977375" CO2_abs="224413.857868" HC_abs="16.523434" PMx_abs="3.298259" NOx_abs="86.376624" fuel_abs="96.466224" electricity_abs="0"/>
    </tripinfo>
    <tripinfo id="h7181c1:1" depart="57660.00" departLane="315358254#0_1" departPos="5.10" departSpeed="0.00" departDelay="0.10" arrival="57736.00" arrivalLane="306240162#0_0" arrivalPos="220.43" arrivalSpeed="15.07" duration="76.00" routeLength="932.35" waitingTime="5.00" waitingCount="1" stopTime="0.00" timeLoss="20.67" rerouteNo="1" devices="tripinfo_h7181c1:1 routing_h7181c1:1 emissions_h7181c1:1" vType="default_016" speedFactor="0.94" vaporized="">
        <emissions CO_abs="3837.447367" CO2_abs="259364.080460" HC_abs="23.527818" PMx_abs="4.845913" NOx_abs="105.608936" fuel_abs="111.489189" electricity_abs="0"/>
    </tripinfo>
    <tripinfo id="h317c2:1" depart="57707.00" departLane="-32978638#0_1" departPos="5.10" departSpeed="0.00" departDelay="0.10" arrival="57737.00" arrivalLane="-266565295#5_1" arrivalPos="172.76" arrivalSpeed="15.89" duration="30.00" routeLength="370.53" waitingTime="0.00" waitingCount="0" stopTime="0.00" timeLoss="6.40" rerouteNo="1" devices="tripinfo_h317c2:1 routing_h317c2:1 emissions_h317c2:1" vType="default_016" speedFactor="1.18" vaporized="">
        <emissions CO_abs="1866.819250" CO2_abs="126676.905382" HC_abs="11.479975" PMx_abs="2.378473" NOx_abs="52.249595" fuel_abs="54.452739" electricity_abs="0"/>
    </tripinfo>
    <tripinfo id="h3568c1:3" depart="57656.00" departLane="266565295#5_1" departPos="5.10" departSpeed="0.00" departDelay="0.80" arrival="57738.00" arrivalLane="-24634415_1" arrivalPos="62.03" arrivalSpeed="13.65" duration="82.00" routeLength="807.40" waitingTime="2.00" waitingCount="1" stopTime="0.00" timeLoss="21.11" rerouteNo="1" devices="tripinfo_h3568c1:3 routing_h3568c1:3 emissions_h3568c1:3" vType="default_016" speedFactor="1.06" vaporized="">
        <emissions CO_abs="4407.926746" CO2_abs="261757.800867" HC_abs="26.225903" PMx_abs="4.838770" NOx_abs="108.465210" fuel_abs="112.518470" electricity_abs="0"/>
    </tripinfo>
    <tripinfo id="carIn121703:1" depart="57647.00" departLane="386687232#0_1" departPos="5.10" departSpeed="0.00" departDelay="0.30" arrival="57741.00" arrivalLane="-315358244_1" arrivalPos="33.95" arrivalSpeed="13.34" duration="94.00" routeLength="1157.39" waitingTime="0.00" waitingCount="0" stopTime="0.00" timeLoss="8.70" rerouteNo="1" devices="tripinfo_carIn121703:1 routing_carIn121703:1 emissions_carIn121703:1" vType="default_016" speedFactor="0.99" vaporized="">
        <emissions CO_abs="2641.389712" CO2_abs="239688.663982" HC_abs="17.598127" PMx_abs="3.664957" NOx_abs="92.957737" fuel_abs="103.032020" electricity_abs="0"/>
    </tripinfo>
    <tripinfo id="carIn30817:1" depart="57681.00" departLane="315358244_1" departPos="5.10" departSpeed="0.00" departDelay="0.20" arrival="57745.00" arrivalLane="447569997#1_1" arrivalPos="180.93" arrivalSpeed="8.44" duration="64.00" routeLength="718.04" waitingTime="0.00" waitingCount="0" stopTime="0.00" timeLoss="7.26" rerouteNo="1" devices="tripinfo_carIn30817:1 routing_carIn30817:1 emissions_carIn30817:1" vType="default_016" speedFactor="1.09" vaporized="">
        <emissions CO_abs="2006.282988" CO2_abs="146378.936258" HC_abs="12.477925" PMx_abs="2.277876" NOx_abs="57.253901" fuel_abs="62.922357" electricity_abs="0"/>
    </tripinfo>
    <tripinfo id="h4538c1:1" depart="57701.00" departLane="-10427692#1_1" departPos="5.10" departSpeed="0.00" departDelay="0.00" arrival="57745.00" arrivalLane="-128361102#1_1" arrivalPos="274.68" arrivalSpeed="11.04" duration="44.00" routeLength="440.74" waitingTime="0.00" waitingCount="0" stopTime="0.00" timeLoss="6.72" rerouteNo="1" devices="tripinfo_h4538c1:1 routing_h4538c1:1 emissions_h4538c1:1" vType="default_016" speedFactor="0.86" vaporized="">
        <emissions CO_abs="1652.127714" CO2_abs="109806.323757" HC_abs="10.066606" PMx_abs="1.736571" NOx_abs="43.612197" fuel_abs="47.201318" electricity_abs="0"/>
    </tripinfo>
    <tripinfo id="h5979c1:5" depart="57669.00" departLane="399835085#1_1" departPos="5.10" departSpeed="0.00" departDelay="0.00" arrival="57756.00" arrivalLane="-315358254#1_1" arrivalPos="137.16" arrivalSpeed="14.50" duration="87.00" routeLength="659.33" waitingTime="6.00" waitingCount="1" stopTime="0.00" timeLoss="21.04" rerouteNo="1" devices="tripinfo_h5979c1:5 routing_h5979c1:5 emissions_h5979c1:5" vType="default_016" speedFactor="1.11" vaporized="">
        <emissions CO_abs="3992.786331" CO2_abs="197724.479274" HC_abs="22.790876" PMx_abs="3.498248" NOx_abs="81.659080" fuel_abs="84.994021" electricity_abs="0"/>
    </tripinfo>
    <tripinfo id="h3326c1:2" depart="57656.00" departLane="22716069#0_1" departPos="5.10" departSpeed="0.00" departDelay="0.00" arrival="57759.00" arrivalLane="24634517#13_1" arrivalPos="111.62" arrivalSpeed="14.99" duration="103.00" routeLength="1312.81" waitingTime="0.00" waitingCount="0" stopTime="0.00" timeLoss="15.25" rerouteNo="1" devices="tripinfo_h3326c1:2 routing_h3326c1:2 emissions_h3326c1:2" vType="default_016" speedFactor="1.11" vaporized="">
        <emissions CO_abs="4448.007718" CO2_abs="335377.419929" HC_abs="28.073009" PMx_abs="6.033006" NOx_abs="136.360279" fuel_abs="144.163762" electricity_abs="0"/>
    </tripinfo>
    <tripinfo id="carIn107084:1" depart="57601.00" departLane="124812856#0_1" departPos="5.10" departSpeed="0.00" departDelay="0.70" arrival="57762.00" arrivalLane="-128361102#1_1" arrivalPos="274.68" arrivalSpeed="16.50" duration="161.00" routeLength="2232.46" waitingTime="0.00" waitingCount="0" stopTime="0.00" timeLoss="23.83" rerouteNo="1" devices="tripinfo_carIn107084:1 routing_carIn107084:1 emissions_carIn107084:1" vType="default_016" speedFactor="1.19" vaporized="">
        <emissions CO_abs="6130.520663" CO2_abs="509182.546427" HC_abs="39.496665" PMx_abs="8.946636" NOx_abs="203.602391" fuel_abs="218.874766" electricity_abs="0"/>
    </tripinfo>
    <tripinfo id="carIn80064:1" depart="57603.00" departLane="128361109#1_1" departPos="5.10" departSpeed="0.00" departDelay="0.40" arrival="57769.00" arrivalLane="-315358254#1_1" arrivalPos="137.16" arrivalSpeed="13.93" duration="166.00" routeLength="1587.97" waitingTime="44.00" waitingCount="3" stopTime="0.00" timeLoss="78.51" rerouteNo="1" devices="tripinfo_carIn80064:1 routing_carIn80064:1 emissions_carIn80064:1" vType="default_016" speedFactor="1.03" vaporized="">
        <emissions CO_abs="11622.236476" CO2_abs="547928.398881" HC_abs="66.024100" PMx_abs="11.136199" NOx_abs="230.558397" fuel_abs="235.531789" electricity_abs="0"/>
    </tripinfo>
    <tripinfo id="carIn48184:1" depart="57613.00" departLane="-306240162#1_0" departPos="5.10" departSpeed="0.00" departDelay="0.70" arrival="57773.00" arrivalLane="386687235_1" arrivalPos="80.84" arrivalSpeed="15.22" duration="160.00" routeLength="2257.41" waitingTime="10.00" waitingCount="1" stopTime="0.00" timeLoss="32.93" rerouteNo="1" devices="tripinfo_carIn48184:1 routing_carIn48184:1 emissions_carIn48184:1" vType="default_016" speedFactor="1.17" vaporized="">
        <emissions CO_abs="7782.267314" CO2_abs="541739.026535" HC_abs="48.250215" PMx_abs="10.397891" NOx_abs="221.148885" fuel_abs="232.869259" electricity_abs="0"/>
    </tripinfo>
    <tripinfo id="h330c1:1" depart="57736.00" departLane="-32978638#0_1" departPos="5.10" departSpeed="0.00" departDelay="0.20" arrival="57774.00" arrivalLane="-266565295#5_1" arrivalPos="172.76" arrivalSpeed="13.71" duration="38.00" routeLength="370.53" waitingTime="1.00" waitingCount="1" stopTime="0.00" timeLoss="11.45" rerouteNo="1" devices="tripinfo_h330c1:1 routing_h330c1:1 emissions_h330c1:1" vType="default_016" speedFactor="1.02" vaporized="">
        <emissions CO_abs="2176.122157" CO2_abs="125956.422579" HC_abs="12.896597" PMx_abs="2.401578" NOx_abs="52.710294" fuel_abs="54.143206" electricity_abs="0"/>
    </tripinfo>
    <tripinfo id="carIn12365:1" depart="57713.00" departLane="315358244_1" departPos="5.10" departSpeed="0.00" departDelay="0.50" arrival="57779.00" arrivalLane="447569997#1_1" arrivalPos="180.93" arrivalSpeed="7.95" duration="66.00" routeLength="718.04" waitingTime="0.00" waitingCount="0" stopTime="0.00" timeLoss="7.35" rerouteNo="1" devices="tripinfo_carIn12365:1 routing_carIn12365:1 emissions_carIn12365:1" vType="default_016" speedFactor="1.06" vaporized="">
        <emissions CO_abs="2206.976408" CO2_abs="156196.738122" HC_abs="13.588623" PMx_abs="2.385455" NOx_abs="60.959887" fuel_abs="67.142737" electricity_abs="0"/>
    </tripinfo>
    <tripinfo id="h3154c1:1" depart="57658.00" departLane="24634507_1" departPos="5.10" departSpeed="0.00" departDelay="0.00" arrival="57787.00" arrivalLane="-266565295#5_1" arrivalPos="172.76" arrivalSpeed="12.21" duration="129.00" routeLength="1206.22" waitingTime="16.00" waitingCount="2" stopTime="0.00" timeLoss="37.77" rerouteNo="1" devices="tripinfo_h3154c1:1 routing_h3154c1:1 emissions_h3154c1:1" vType="default_016" speedFactor="0.97" vaporized="">
        <emissions CO_abs="5902.133593" CO2_abs="330170.588079" HC_abs="34.628560" PMx_abs="5.886387" NOx_abs="135.087524" fuel_abs="141.926863" electricity_abs="0"/>
    </tripinfo>
    <tripinfo id="carIn86816:1" depart="57617.00" departLane="128361102#0_1" departPos="5.10" departSpeed="0.00" departDelay="0.80" arrival="57792.00" arrivalLane="201956811#0_1" arrivalPos="40.40" arrivalSpeed="14.95" duration="175.00" routeLength="2067.33" waitingTime="14.00" waitingCount="2" stopTime="0.00" timeLoss="40.94" rerouteNo="1" devices="tripinfo_carIn86816:1 routing_carIn86816:1 emissions_carIn86816:1" vType="default_016" speedFactor="1.13" vaporized="">
        <emissions CO_abs="6847.762902" CO2_abs="503019.967402" HC_abs="42.818336" PMx_abs="8.791559" NOx_abs="201.862626" fuel_abs="216.226438" electricity_abs="0"/>
    </tripinfo>
    <tripinfo id="h645c1:1" depart="57622.00" departLane="266565295#5_1" departPos="5.10" departSpeed="0.00" departDelay="0.40" arrival="57793.00" arrivalLane="-315358244_1" arrivalPos="33.95" arrivalSpeed="12.32" duration="171.00" routeLength="1910.83" waitingTime="6.00" waitingCount="1" stopTime="0.00" timeLoss="20.68" rerouteNo="1" devices="tripinfo_h645c1:1 routing_h645c1:1 emissions_h645c1:1" vType="default_016" speedFactor="0.92" vaporized="">
        <emissions CO_abs="4184.860327" CO2_abs="344553.804201" HC_abs="27.049773" PMx_abs="5.260663" NOx_abs="134.421143" fuel_abs="148.109368" electricity_abs="0"/>
    </tripinfo>
    <tripinfo id="h16072c2:3" depart="57663.00" departLane="315358254#0_1" departPos="5.10" departSpeed="0.00" departDelay="2.50" arrival="57793.00" arrivalLane="386687235_1" arrivalPos="80.84" arrivalSpeed="15.95" duration="130.00" routeLength="1611.92" waitingTime="8.00" waitingCount="2" stopTime="0.00" timeLoss="29.85" rerouteNo="1" devices="tripinfo_h16072c2:3 routing_h16072c2:3 emissions_h16072c2:3" vType="default_016" speedFactor="1.18" vaporized="">
        <emissions CO_abs="4881.802092" CO2_abs="372249.666876" HC_abs="30.881865" PMx_abs="6.594181" NOx_abs="149.587659" fuel_abs="160.013712" electricity_abs="0"/>
    </tripinfo>
    <tripinfo id="carIn107282:1" depart="57749.00" departLane="-447569998#1_1" departPos="5.10" departSpeed="0.00" departDelay="0.00" arrival="57793.00" arrivalLane="315358242#0_1" arrivalPos="165.37" arrivalSpeed="15.35" duration="44.00" routeLength="448.50" waitingTime="0.00" waitingCount="0" stopTime="0.00" timeLoss="7.89" rerouteNo="1" devices="tripinfo_carIn107282:1 routing_carIn107282:1 emissions_carIn107282:1" vType="default_016" speedFactor="1.16" vaporized="">
        <emissions CO_abs="2079.899481" CO2_abs="126368.576672" HC_abs="12.422250" PMx_abs="2.208349" NOx_abs="51.323306" fuel_abs="54.320616" electricity_abs="0"/>
    </tripinfo>
    <tripinfo id="carIn82220:1" depart="57619.00" departLane="-306240162#1_0" departPos="5.10" departSpeed="0.00" departDelay="3.50" arrival="57794.00" arrivalLane="386687235_2" arrivalPos="80.84" arrivalSpeed="14.32" duration="175.00" routeLength="2257.41" waitingTime="13.00" waitingCount="1" stopTime="0.00" timeLoss="39.88" rerouteNo="1" devices="tripinfo_carIn82220:1 routing_carIn82220:1 emissions_carIn82220:1" vType="default_016" speedFactor="1.10" vaporized="">
        <emissions CO_abs="8509.201221" CO2_abs="561594.679751" HC_abs="51.946496" PMx_abs="10.305487" NOx_abs="226.961052" fuel_abs="241.405339" electricity_abs="0"/>
    </tripinfo>
    <tripinfo id="carIn12858:1" depart="57661.00" departLane="128361109#1_1" departPos="5.10" departSpeed="0.00" departDelay="0.90" arrival="57800.00" arrivalLane="399835085#1_1" arrivalPos="212.23" arrivalSpeed="9.23" duration="139.00" routeLength="1738.12" waitingTime="9.00" waitingCount="1" stopTime="0.00" timeLoss="37.47" rerouteNo="1" devices="tripinfo_carIn12858:1 routing_carIn12858:1 emissions_carIn12858:1" vType="default_016" speedFactor="1.13" vaporized="">
        <emissions CO_abs="8615.191348" CO2_abs="514419.059364" HC_abs="51.532273" PMx_abs="10.468481" NOx_abs="215.261045" fuel_abs="221.125639" electricity_abs="0"/>
    </tripinfo>
    <tripinfo id="carIn27009:1" depart="57673.00" departLane="-447569998#1_1" departPos="5.10" departSpeed="0.00" departDelay="0.50" arrival="57800.00" arrivalLane="-26677539_1" arrivalPos="152.75" arrivalSpeed="7.03" duration="127.00" routeLength="699.63" waitingTime="20.00" waitingCount="1" stopTime="0.00" timeLoss="33.79" rerouteNo="1" devices="tripinfo_carIn27009:1 routing_carIn27009:1 emissions_carIn27009:1" vType="default_015" speedFactor="0.90" vaporized="">
        <emissions CO_abs="6408.767166" CO2_abs="210882.798629" HC_abs="34.011968" PMx_abs="3.663865" NOx_abs="87.195402" fuel_abs="90.652155" electricity_abs="0"/>
    </tripinfo>
    <tripinfo id="carIn50326:1" depart="57651.00" departLane="128361102#0_1" departPos="5.10" departSpeed="0.00" departDelay="0.30" arrival="57804.00" arrivalLane="18809673#0_1" arrivalPos="473.56" arrivalSpeed="14.76" duration="153.00" routeLength="1591.07" waitingTime="8.00" waitingCount="1" stopTime="0.00" timeLoss="32.24" rerouteNo="1" devices="tripinfo_carIn50326:1 routing_carIn50326:1 emissions_carIn50326:1" vType="default_016" speedFactor="1.08" vaporized="">
        <emissions CO_abs="5279.516065" CO2_abs="362831.601880" HC_abs="32.438319" PMx_abs="6.096828" NOx_abs="145.251123" fuel_abs="155.966100" electricity_abs="0"/>
    </tripinfo>
    <tripinfo id="carIn129809:1" depart="57729.00" departLane="-447569998#1_1" departPos="5.10" departSpeed="0.00" departDelay="1.00" arrival="57810.00" arrivalLane="-315358244_1" arrivalPos="33.95" arrivalSpeed="16.73" duration="81.00" routeLength="706.49" waitingTime="13.00" waitingCount="1" stopTime="0.00" timeLoss="31.09" rerouteNo="1" devices="tripinfo_carIn129809:1 routing_carIn129809:1 emissions_carIn129809:1" vType="default_015" speedFactor="1.21" vaporized="">
        <emissions CO_abs="4182.218631" CO2_abs="194238.810764" HC_abs="23.619356" PMx_abs="3.613292" NOx_abs="79.970081" fuel_abs="83.495766" electricity_abs="0"/>
    </tripinfo>
    <tripinfo id="h11737c1:1" depart="57665.00" departLane="272042143_1" departPos="5.10" departSpeed="0.00" departDelay="1.50" arrival="57818.00" arrivalLane="-315358254#1_1" arrivalPos="137.16" arrivalSpeed="12.43" duration="153.00" routeLength="1596.88" waitingTime="8.00" waitingCount="1" stopTime="0.00" timeLoss="26.85" rerouteNo="1" devices="tripinfo_h11737c1:1 routing_h11737c1:1 emissions_h11737c1:1" vType="default_016" speedFactor="0.92" vaporized="">
        <emissions CO_abs="5213.049680" CO2_abs="359275.364490" HC_abs="32.089468" PMx_abs="5.741152" NOx_abs="142.284933" fuel_abs="154.437842" electricity_abs="0"/>
    </tripinfo>
    <tripinfo id="carIn118591:1" depart="57689.00" departLane="315358244_1" departPos="5.10" departSpeed="0.00" departDelay="0.20" arrival="57819.00" arrivalLane="386687235_1" arrivalPos="80.84" arrivalSpeed="12.63" duration="130.00" routeLength="1186.14" waitingTime="19.00" waitingCount="2" stopTime="0.00" timeLoss="41.35" rerouteNo="1" devices="tripinfo_carIn118591:1 routing_carIn118591:1 emissions_carIn118591:1" vType="default_016" speedFactor="0.98" vaporized="">
        <emissions CO_abs="5534.780217" CO2_abs="306791.432676" HC_abs="32.376081" PMx_abs="5.314290" NOx_abs="124.192478" fuel_abs="131.877432" electricity_abs="0"/>
    </tripinfo>
    <tripinfo id="carIn126288:1" depart="57674.00" departLane="272042143_1" departPos="5.10" departSpeed="0.00" departDelay="0.00" arrival="57820.00" arrivalLane="-315358254#1_1" arrivalPos="137.16" arrivalSpeed="15.36" duration="146.00" routeLength="1596.88" waitingTime="6.00" waitingCount="1" stopTime="0.00" timeLoss="47.62" rerouteNo="1" devices="tripinfo_carIn126288:1 routing_carIn126288:1 emissions_carIn126288:1" vType="default_016" speedFactor="1.19" vaporized="">
        <emissions CO_abs="5826.649258" CO2_abs="416220.904203" HC_abs="36.266015" PMx_abs="7.282231" NOx_abs="168.386534" fuel_abs="178.915304" electricity_abs="0"/>
    </tripinfo>
    <tripinfo id="carIn77943:1" depart="57608.00" departLane="124812856#0_1" departPos="5.10" departSpeed="0.00" departDelay="2.50" arrival="57823.00" arrivalLane="-128361102#1_1" arrivalPos="274.68" arrivalSpeed="15.17" duration="215.00" routeLength="2250.49" waitingTime="10.00" waitingCount="2" stopTime="0.00" timeLoss="69.22" rerouteNo="1" devices="tripinfo_carIn77943:1 routing_carIn77943:1 emissions_carIn77943:1" vType="default_016" speedFactor="1.13" vaporized="">
        <emissions CO_abs="9003.020652" CO2_abs="612257.848140" HC_abs="55.295555" PMx_abs="10.671732" NOx_abs="248.197803" fuel_abs="263.183433" electricity_abs="0"/>
    </tripinfo>
    <tripinfo id="carIn462:1" depart="57622.00" departLane="-306240162#1_0" departPos="5.10" departSpeed="0.00" departDelay="4.80" arrival="57824.00" arrivalLane="386687235_1" arrivalPos="80.84" arrivalSpeed="11.91" duration="202.00" routeLength="2257.41" waitingTime="13.00" waitingCount="2" stopTime="0.00" timeLoss="40.96" rerouteNo="1" devices="tripinfo_carIn462:1 routing_carIn462:1 emissions_carIn462:1" vType="default_016" speedFactor="0.92" vaporized="">
        <emissions CO_abs="7255.206973" CO2_abs="504250.883634" HC_abs="44.762132" PMx_abs="8.462847" NOx_abs="200.391413" fuel_abs="216.756421" electricity_abs="0"/>
    </tripinfo>
    <tripinfo id="carIn116184:1" depart="57627.00" departLane="-306240162#1_0" departPos="5.10" departSpeed="0.00" departDelay="0.10" arrival="57824.00" arrivalLane="386687235_2" arrivalPos="80.84" arrivalSpeed="11.25" duration="197.00" routeLength="2257.41" waitingTime="2.00" waitingCount="1" stopTime="0.00" timeLoss="31.66" rerouteNo="1" devices="tripinfo_carIn116184:1 routing_carIn116184:1 emissions_carIn116184:1" vType="default_016" speedFactor="0.90" vaporized="">
        <emissions CO_abs="6935.323653" CO2_abs="507380.234893" HC_abs="43.403509" PMx_abs="8.413592" NOx_abs="201.485341" fuel_abs="218.101397" electricity_abs="0"/>
    </tripinfo>
    <tripinfo id="randUni15030:1" depart="57735.00" departLane="386687232#0_1" departPos="5.10" departSpeed="0.00" departDelay="0.10" arrival="57824.00" arrivalLane="26677539_1" arrivalPos="151.98" arrivalSpeed="8.46" duration="89.00" routeLength="919.89" waitingTime="0.00" waitingCount="0" stopTime="0.00" timeLoss="10.76" rerouteNo="1" devices="tripinfo_randUni15030:1 routing_randUni15030:1 emissions_randUni15030:1" vType="random_016" speedFactor="1.07" vaporized="">
        <emissions CO_abs="3278.253018" CO2_abs="211643.194096" HC_abs="19.836938" PMx_abs="3.597902" NOx_abs="85.547732" fuel_abs="90.976592" electricity_abs="0"/>
    </tripinfo>
    <tripinfo id="carIn31257:1" depart="57630.00" departLane="-306240162#1_0" departPos="5.10" departSpeed="0.00" departDelay="1.60" arrival="57826.00" arrivalLane="386687235_1" arrivalPos="80.84" arrivalSpeed="13.31" duration="196.00" routeLength="2257.41" waitingTime="10.00" waitingCount="2" stopTime="0.00" timeLoss="45.78" rerouteNo="1" devices="tripinfo_carIn31257:1 routing_carIn31257:1 emissions_carIn31257:1" vType="default_016" speedFactor="0.99" vaporized="">
        <emissions CO_abs="7372.377006" CO2_abs="527760.131353" HC_abs="45.966486" PMx_abs="9.246794" NOx_abs="212.013386" fuel_abs="226.861314" electricity_abs="0"/>
    </tripinfo>
    <tripinfo id="h5216c1:1" depart="57664.00" departLane="224892339#0_1" departPos="5.10" departSpeed="0.00" departDelay="0.00" arrival="57826.00" arrivalLane="386687235_2" arrivalPos="80.84" arrivalSpeed="12.72" duration="162.00" routeLength="1823.78" waitingTime="8.00" waitingCount="1" stopTime="0.00" timeLoss="32.86" rerouteNo="1" devices="tripinfo_h5216c1:1 routing_h5216c1:1 emissions_h5216c1:1" vType="default_016" speedFactor="1.00" vaporized="">
        <emissions CO_abs="5908.191521" CO2_abs="432149.760915" HC_abs="37.084552" PMx_abs="7.496974" NOx_abs="174.269779" fuel_abs="185.762436" electricity_abs="0"/>
    </tripinfo>
    <tripinfo id="carIn81046:1" depart="57611.00" departLane="124812856#0_1" departPos="5.10" departSpeed="0.00" departDelay="2.50" arrival="57830.00" arrivalLane="-128361102#1_1" arrivalPos="274.68" arrivalSpeed="11.76" duration="219.00" routeLength="2250.49" waitingTime="9.00" waitingCount="2" stopTime="0.00" timeLoss="43.55" rerouteNo="1" devices="tripinfo_carIn81046:1 routing_carIn81046:1 emissions_carIn81046:1" vType="default_016" speedFactor="0.93" vaporized="">
        <emissions CO_abs="7770.773830" CO2_abs="530672.796641" HC_abs="47.820155" PMx_abs="9.059210" NOx_abs="214.558466" fuel_abs="228.113723" electricity_abs="0"/>
    </tripinfo>
    <tripinfo id="carIn81860:1" depart="57712.00" departLane="128361102#0_1" departPos="5.10" departSpeed="0.00" departDelay="0.60" arrival="57831.00" arrivalLane="-24634517#17_1" arrivalPos="6.43" arrivalSpeed="8.21" duration="119.00" routeLength="1229.64" waitingTime="7.00" waitingCount="1" stopTime="0.00" timeLoss="27.35" rerouteNo="1" devices="tripinfo_carIn81860:1 routing_carIn81860:1 emissions_carIn81860:1" vType="default_016" speedFactor="0.98" vaporized="">
        <emissions CO_abs="4408.210485" CO2_abs="292333.936043" HC_abs="26.881939" PMx_abs="4.833693" NOx_abs="116.699630" fuel_abs="125.662354" electricity_abs="0"/>
    </tripinfo>
    <tripinfo id="carIn77438:1" depart="57614.00" departLane="124812856#0_1" departPos="5.10" departSpeed="0.00" departDelay="1.10" arrival="57832.00" arrivalLane="-128361102#1_1" arrivalPos="274.68" arrivalSpeed="13.27" duration="218.00" routeLength="2250.49" waitingTime="5.00" waitingCount="1" stopTime="0.00" timeLoss="48.65" rerouteNo="1" devices="tripinfo_carIn77438:1 routing_carIn77438:1 emissions_carIn77438:1" vType="default_016" speedFactor="0.97" vaporized="">
        <emissions CO_abs="8126.193971" CO2_abs="557312.825154" HC_abs="50.086655" PMx_abs="9.633118" NOx_abs="226.115208" fuel_abs="239.564928" electricity_abs="0"/>
    </tripinfo>