<?xml version="1.0" encoding="UTF-8"?>

<!-- generated on Thu Nov  4 13:40:49 2021 by Eclipse SUMO sumo Version 1.9.0
<configuration xmlns:xsi="http://www.w3.org/2001/XMLSchema-instance" xsi:noNamespaceSchemaLocation="http://sumo.dlr.de/xsd/sumoConfiguration.xsd">

    <input>
        <net-file value="/mainfs/home/bk2g18/RESCO/environments/ingolstadt21/ingolstadt21.net.xml"/>
        <route-files value="/mainfs/home/bk2g18/RESCO/environments/ingolstadt21/ingolstadt21.rou.xml"/>
    </input>

    <output>
        <tripinfo-output value="/mainfs/home/bk2g18/RESCO/logs/MPLight-tr0-ingolstadt21-21-mplight-pressure/tripinfo_50.xml"/>
        <tripinfo-output.write-unfinished value="true"/>
    </output>

    <time>
        <begin value="57600"/>
        <end value="61200"/>
    </time>

    <processing>
        <time-to-teleport value="-1"/>
    </processing>

    <report>
        <xml-validation value="never"/>
        <xml-validation.routes value="never"/>
        <no-warnings value="true"/>
        <no-step-log value="true"/>
    </report>

    <emissions>
        <device.emissions.probability value="1"/>
    </emissions>

    <traci_server>
        <remote-port value="45549"/>
    </traci_server>

    <random_number>
        <random value="true"/>
    </random_number>

</configuration>
-->

<tripinfos xmlns:xsi="http://www.w3.org/2001/XMLSchema-instance" xsi:noNamespaceSchemaLocation="http://sumo.dlr.de/xsd/tripinfo_file.xsd">
    <tripinfo id="h15454c2:3" depart="57612.00" departLane="24608844_1" departPos="5.10" departSpeed="0.00" departDelay="0.50" arrival="57653.00" arrivalLane="32978638#0_1" arrivalPos="49.29" arrivalSpeed="12.13" duration="41.00" routeLength="354.79" waitingTime="0.00" waitingCount="0" stopTime="0.00" timeLoss="5.25" rerouteNo="1" devices="tripinfo_h15454c2:3 routing_h15454c2:3 emissions_h15454c2:3" vType="default_016" speedFactor="0.96" vaporized="">
        <emissions CO_abs="1830.693333" CO2_abs="98636.921309" HC_abs="10.618941" PMx_abs="1.625717" NOx_abs="39.873444" fuel_abs="42.400209" electricity_abs="0"/>
    </tripinfo>
    <tripinfo id="carIn60260:1" depart="57606.00" departLane="315358254#0_1" departPos="5.10" departSpeed="0.00" departDelay="0.90" arrival="57658.00" arrivalLane="399835085#1_1" arrivalPos="212.23" arrivalSpeed="8.07" duration="52.00" routeLength="430.98" waitingTime="0.00" waitingCount="0" stopTime="0.00" timeLoss="6.56" rerouteNo="1" devices="tripinfo_carIn60260:1 routing_carIn60260:1 emissions_carIn60260:1" vType="default_016" speedFactor="1.02" vaporized="">
        <emissions CO_abs="2225.270324" CO2_abs="118891.859705" HC_abs="12.884228" PMx_abs="1.967123" NOx_abs="48.182743" fuel_abs="51.107023" electricity_abs="0"/>
    </tripinfo>
    <tripinfo id="carIn53971:1" depart="57640.00" departLane="272042143_1" departPos="5.10" departSpeed="0.00" departDelay="0.80" arrival="57691.00" arrivalLane="24634414#1_1" arrivalPos="162.19" arrivalSpeed="8.76" duration="51.00" routeLength="493.04" waitingTime="0.00" waitingCount="0" stopTime="0.00" timeLoss="8.35" rerouteNo="1" devices="tripinfo_carIn53971:1 routing_carIn53971:1 emissions_carIn53971:1" vType="default_016" speedFactor="1.07" vaporized="">
        <emissions CO_abs="2464.253788" CO2_abs="144188.406235" HC_abs="14.622812" PMx_abs="2.666685" NOx_abs="60.015182" fuel_abs="61.980427" electricity_abs="0"/>
    </tripinfo>
    <tripinfo id="h7800c1:5" depart="57696.00" departLane="-447569998#1_1" departPos="5.10" departSpeed="0.00" departDelay="0.00" arrival="57725.00" arrivalLane="-447569998#1_2" arrivalPos="180.76" arrivalSpeed="4.01" duration="29.00" routeLength="175.66" waitingTime="1.00" waitingCount="1" stopTime="0.00" timeLoss="7.69" rerouteNo="1" devices="tripinfo_h7800c1:5 routing_h7800c1:5 emissions_h7800c1:5" vType="default_016" speedFactor="1.00" vaporized="">
        <emissions CO_abs="1444.353399" CO2_abs="57014.561473" HC_abs="7.891140" PMx_abs="0.990379" NOx_abs="23.590144" fuel_abs="24.508592" electricity_abs="0"/>
    </tripinfo>
    <tripinfo id="h3688c1:1" depart="57625.00" departLane="201201950#1_1" departPos="5.10" departSpeed="0.00" departDelay="0.00" arrival="57731.00" arrivalLane="32978638#0_1" arrivalPos="49.29" arrivalSpeed="12.20" duration="106.00" routeLength="1089.75" waitingTime="10.00" waitingCount="1" stopTime="0.00" timeLoss="23.64" rerouteNo="1" devices="tripinfo_h3688c1:1 routing_h3688c1:1 emissions_h3688c1:1" vType="default_016" speedFactor="0.97" vaporized="">
        <emissions CO_abs="3884.404590" CO2_abs="258924.199828" HC_abs="23.744361" PMx_abs="4.360240" NOx_abs="103.899878" fuel_abs="111.300742" electricity_abs="0"/>
    </tripinfo>
    <tripinfo id="carIn22761:1" depart="57616.00" departLane="-306240162#1_0" departPos="5.10" departSpeed="0.00" departDelay="2.10" arrival="57733.00" arrivalLane="399835085#1_1" arrivalPos="212.23" arrivalSpeed="8.32" duration="117.00" routeLength="1093.26" waitingTime="20.00" waitingCount="1" stopTime="0.00" timeLoss="41.73" rerouteNo="1" devices="tripinfo_carIn22761:1 routing_carIn22761:1 emissions_carIn22761:1" vType="default_016" speedFactor="1.04" vaporized="">
        <emissions CO_abs="7975.927617" CO2_abs="364725.127760" HC_abs="45.007964" PMx_abs="7.363925" NOx_abs="154.573824" fuel_abs="156.780402" electricity_abs="0"/>
    </tripinfo>
    <tripinfo id="h3568c1:3" depart="57656.00" departLane="266565295#5_1" departPos="5.10" departSpeed="0.00" departDelay="0.80" arrival="57735.00" arrivalLane="-24634415_1" arrivalPos="62.03" arrivalSpeed="13.15" duration="79.00" routeLength="807.40" waitingTime="0.00" waitingCount="0" stopTime="0.00" timeLoss="11.99" rerouteNo="1" devices="tripinfo_h3568c1:3 routing_h3568c1:3 emissions_h3568c1:3" vType="default_016" speedFactor="0.96" vaporized="">
        <emissions CO_abs="3378.058949" CO2_abs="206903.404349" HC_abs="20.236242" PMx_abs="3.636394" NOx_abs="84.582849" fuel_abs="88.939108" electricity_abs="0"/>
    </tripinfo>
    <tripinfo id="h7181c1:1" depart="57660.00" departLane="315358254#0_1" departPos="5.10" departSpeed="0.00" departDelay="0.10" arrival="57749.00" arrivalLane="306240162#0_0" arrivalPos="220.43" arrivalSpeed="19.21" duration="89.00" routeLength="932.35" waitingTime="30.00" waitingCount="1" stopTime="0.00" timeLoss="46.91" rerouteNo="1" devices="tripinfo_h7181c1:1 routing_h7181c1:1 emissions_h7181c1:1" vType="default_016" speedFactor="1.21" vaporized="">
        <emissions CO_abs="9233.266523" CO2_abs="380388.604989" HC_abs="51.230617" PMx_abs="8.269875" NOx_abs="162.481270" fuel_abs="163.513636" electricity_abs="0"/>
    </tripinfo>
    <tripinfo id="h4538c1:1" depart="57701.00" departLane="-10427692#1_1" departPos="5.10" departSpeed="0.00" departDelay="0.00" arrival="57753.00" arrivalLane="-128361102#1_1" arrivalPos="274.68" arrivalSpeed="14.52" duration="52.00" routeLength="440.74" waitingTime="13.00" waitingCount="1" stopTime="0.00" timeLoss="23.42" rerouteNo="1" devices="tripinfo_h4538c1:1 routing_h4538c1:1 emissions_h4538c1:1" vType="default_016" speedFactor="1.11" vaporized="">
        <emissions CO_abs="3040.177953" CO2_abs="132065.828830" HC_abs="16.950799" PMx_abs="2.537968" NOx_abs="55.159300" fuel_abs="56.770016" electricity_abs="0"/>
    </tripinfo>
    <tripinfo id="carIn121703:1" depart="57647.00" departLane="386687232#0_1" departPos="5.10" departSpeed="0.00" departDelay="0.30" arrival="57764.00" arrivalLane="-315358244_1" arrivalPos="33.95" arrivalSpeed="13.90" duration="117.00" routeLength="1157.39" waitingTime="16.00" waitingCount="2" stopTime="0.00" timeLoss="35.89" rerouteNo="1" devices="tripinfo_carIn121703:1 routing_carIn121703:1 emissions_carIn121703:1" vType="default_016" speedFactor="1.05" vaporized="">
        <emissions CO_abs="5295.725551" CO2_abs="298817.654893" HC_abs="31.111346" PMx_abs="5.319285" NOx_abs="121.334252" fuel_abs="128.449574" electricity_abs="0"/>
    </tripinfo>
    <tripinfo id="carIn30817:1" depart="57681.00" departLane="315358244_1" departPos="5.10" departSpeed="0.00" departDelay="0.20" arrival="57764.00" arrivalLane="447569997#1_1" arrivalPos="180.93" arrivalSpeed="6.52" duration="83.00" routeLength="718.04" waitingTime="4.00" waitingCount="1" stopTime="0.00" timeLoss="14.31" rerouteNo="1" devices="tripinfo_carIn30817:1 routing_carIn30817:1 emissions_carIn30817:1" vType="default_016" speedFactor="0.89" vaporized="">
        <emissions CO_abs="2777.557138" CO2_abs="149690.400865" HC_abs="16.100305" PMx_abs="2.396668" NOx_abs="59.936476" fuel_abs="64.346251" electricity_abs="0"/>
    </tripinfo>
    <tripinfo id="h317c2:1" depart="57707.00" departLane="-32978638#0_1" departPos="5.10" departSpeed="0.00" departDelay="0.10" arrival="57766.00" arrivalLane="-266565295#5_1" arrivalPos="172.76" arrivalSpeed="12.67" duration="59.00" routeLength="370.53" waitingTime="22.00" waitingCount="1" stopTime="0.00" timeLoss="29.56" rerouteNo="1" devices="tripinfo_h317c2:1 routing_h317c2:1 emissions_h317c2:1" vType="default_016" speedFactor="0.93" vaporized="">
        <emissions CO_abs="4970.932368" CO2_abs="163983.934885" HC_abs="26.474093" PMx_abs="3.206054" NOx_abs="69.175834" fuel_abs="70.491289" electricity_abs="0"/>
    </tripinfo>
    <tripinfo id="carIn80064:1" depart="57603.00" departLane="128361109#1_1" departPos="5.10" departSpeed="0.00" departDelay="0.40" arrival="57767.00" arrivalLane="-315358254#1_1" arrivalPos="137.16" arrivalSpeed="13.50" duration="164.00" routeLength="1587.97" waitingTime="38.00" waitingCount="3" stopTime="0.00" timeLoss="79.46" rerouteNo="1" devices="tripinfo_carIn80064:1 routing_carIn80064:1 emissions_carIn80064:1" vType="default_016" speedFactor="1.06" vaporized="">
        <emissions CO_abs="11792.744278" CO2_abs="574095.791673" HC_abs="67.426917" PMx_abs="11.674833" NOx_abs="240.965986" fuel_abs="246.779794" electricity_abs="0"/>
    </tripinfo>
    <tripinfo id="h3326c1:2" depart="57656.00" departLane="22716069#0_1" departPos="5.10" departSpeed="0.00" departDelay="0.00" arrival="57772.00" arrivalLane="24634517#13_1" arrivalPos="111.62" arrivalSpeed="13.09" duration="116.00" routeLength="1312.81" waitingTime="0.00" waitingCount="0" stopTime="0.00" timeLoss="14.62" rerouteNo="1" devices="tripinfo_h3326c1:2 routing_h3326c1:2 emissions_h3326c1:2" vType="default_016" speedFactor="0.95" vaporized="">
        <emissions CO_abs="4093.946203" CO2_abs="306219.673403" HC_abs="25.793964" PMx_abs="5.053134" NOx_abs="122.331813" fuel_abs="131.630815" electricity_abs="0"/>
    </tripinfo>
    <tripinfo id="h330c1:1" depart="57736.00" departLane="-32978638#0_1" departPos="5.10" departSpeed="0.00" departDelay="0.20" arrival="57773.00" arrivalLane="-266565295#5_1" arrivalPos="172.76" arrivalSpeed="11.90" duration="37.00" routeLength="370.53" waitingTime="0.00" waitingCount="0" stopTime="0.00" timeLoss="5.62" rerouteNo="1" devices="tripinfo_h330c1:1 routing_h330c1:1 emissions_h330c1:1" vType="default_016" speedFactor="0.89" vaporized="">
        <emissions CO_abs="1577.379229" CO2_abs="99070.206114" HC_abs="9.501503" PMx_abs="1.711683" NOx_abs="40.372914" fuel_abs="42.586137" electricity_abs="0"/>
    </tripinfo>
    <tripinfo id="carIn86816:1" depart="57617.00" departLane="128361102#0_1" departPos="5.10" departSpeed="0.00" departDelay="0.80" arrival="57784.00" arrivalLane="201956811#0_1" arrivalPos="40.40" arrivalSpeed="14.78" duration="167.00" routeLength="2067.33" waitingTime="8.00" waitingCount="1" stopTime="0.00" timeLoss="30.64" rerouteNo="1" devices="tripinfo_carIn86816:1 routing_carIn86816:1 emissions_carIn86816:1" vType="default_016" speedFactor="1.11" vaporized="">
        <emissions CO_abs="6582.864268" CO2_abs="491595.255274" HC_abs="41.543826" PMx_abs="8.629563" NOx_abs="197.687773" fuel_abs="211.315317" electricity_abs="0"/>
    </tripinfo>
    <tripinfo id="h9563c2:5" depart="57631.00" departLane="315358244_1" departPos="5.10" departSpeed="0.00" departDelay="0.70" arrival="57784.00" arrivalLane="386687235_1" arrivalPos="80.84" arrivalSpeed="13.15" duration="153.00" routeLength="1186.14" waitingTime="44.00" waitingCount="3" stopTime="0.00" timeLoss="66.00" rerouteNo="1" devices="tripinfo_h9563c2:5 routing_h9563c2:5 emissions_h9563c2:5" vType="default_016" speedFactor="1.00" vaporized="">
        <emissions CO_abs="9834.345573" CO2_abs="381811.015711" HC_abs="53.716814" PMx_abs="7.141526" NOx_abs="158.064145" fuel_abs="164.127071" electricity_abs="0"/>
    </tripinfo>
    <tripinfo id="carIn27009:1" depart="57673.00" departLane="-447569998#1_1" departPos="5.10" departSpeed="0.00" departDelay="0.50" arrival="57785.00" arrivalLane="-26677539_1" arrivalPos="152.75" arrivalSpeed="9.62" duration="112.00" routeLength="699.63" waitingTime="25.00" waitingCount="1" stopTime="0.00" timeLoss="39.57" rerouteNo="1" devices="tripinfo_carIn27009:1 routing_carIn27009:1 emissions_carIn27009:1" vType="default_015" speedFactor="1.17" vaporized="">
        <emissions CO_abs="7203.442031" CO2_abs="251712.102985" HC_abs="38.638388" PMx_abs="4.633533" NOx_abs="105.168757" fuel_abs="108.202723" electricity_abs="0"/>
    </tripinfo>
    <tripinfo id="h12244c1:3" depart="57612.00" departLane="315358244_1" departPos="5.10" departSpeed="0.00" departDelay="0.40" arrival="57787.00" arrivalLane="386687235_1" arrivalPos="80.84" arrivalSpeed="11.89" duration="175.00" routeLength="1186.14" waitingTime="50.00" waitingCount="3" stopTime="0.00" timeLoss="73.76" rerouteNo="1" devices="tripinfo_h12244c1:3 routing_h12244c1:3 emissions_h12244c1:3" vType="default_016" speedFactor="0.86" vaporized="">
        <emissions CO_abs="9816.345584" CO2_abs="358156.729217" HC_abs="53.059009" PMx_abs="6.724001" NOx_abs="149.453815" fuel_abs="153.959291" electricity_abs="0"/>
    </tripinfo>
    <tripinfo id="carIn12365:1" depart="57713.00" departLane="315358244_1" departPos="5.10" departSpeed="0.00" departDelay="0.50" arrival="57788.00" arrivalLane="447569997#1_1" arrivalPos="180.93" arrivalSpeed="8.27" duration="75.00" routeLength="718.04" waitingTime="7.00" waitingCount="1" stopTime="0.00" timeLoss="20.13" rerouteNo="1" devices="tripinfo_carIn12365:1 routing_carIn12365:1 emissions_carIn12365:1" vType="default_016" speedFactor="1.12" vaporized="">
        <emissions CO_abs="3106.148320" CO2_abs="193286.060667" HC_abs="18.639374" PMx_abs="3.397376" NOx_abs="78.717947" fuel_abs="83.085563" electricity_abs="0"/>
    </tripinfo>
    <tripinfo id="carIn107282:1" depart="57749.00" departLane="-447569998#1_1" departPos="5.10" departSpeed="0.00" departDelay="0.00" arrival="57793.00" arrivalLane="315358242#0_1" arrivalPos="165.37" arrivalSpeed="14.69" duration="44.00" routeLength="448.50" waitingTime="0.00" waitingCount="0" stopTime="0.00" timeLoss="4.79" rerouteNo="1" devices="tripinfo_carIn107282:1 routing_carIn107282:1 emissions_carIn107282:1" vType="default_016" speedFactor="1.07" vaporized="">
        <emissions CO_abs="1945.669667" CO2_abs="120496.665348" HC_abs="11.677256" PMx_abs="2.114376" NOx_abs="49.181738" fuel_abs="51.796461" electricity_abs="0"/>
    </tripinfo>
    <tripinfo id="carIn28951:1" depart="57606.00" departLane="10425609#0_1" departPos="5.10" departSpeed="0.00" departDelay="0.20" arrival="57795.00" arrivalLane="-128361102#1_1" arrivalPos="274.68" arrivalSpeed="12.51" duration="189.00" routeLength="2113.04" waitingTime="9.00" waitingCount="1" stopTime="0.00" timeLoss="29.75" rerouteNo="1" devices="tripinfo_carIn28951:1 routing_carIn28951:1 emissions_carIn28951:1" vType="default_016" speedFactor="0.97" vaporized="">
        <emissions CO_abs="6037.633490" CO2_abs="456245.788245" HC_abs="38.135276" PMx_abs="7.334225" NOx_abs="180.265142" fuel_abs="196.120985" electricity_abs="0"/>
    </tripinfo>
    <tripinfo id="h11737c1:1" depart="57665.00" departLane="272042143_1" departPos="5.10" departSpeed="0.00" departDelay="1.50" arrival="57795.00" arrivalLane="-315358254#1_1" arrivalPos="137.16" arrivalSpeed="14.98" duration="130.00" routeLength="1596.88" waitingTime="3.00" waitingCount="1" stopTime="0.00" timeLoss="23.55" rerouteNo="1" devices="tripinfo_h11737c1:1 routing_h11737c1:1 emissions_h11737c1:1" vType="default_016" speedFactor="1.09" vaporized="">
        <emissions CO_abs="4658.524015" CO2_abs="361906.049209" HC_abs="29.598455" PMx_abs="6.213804" NOx_abs="144.896151" fuel_abs="155.567600" electricity_abs="0"/>
    </tripinfo>
    <tripinfo id="carIn126288:1" depart="57674.00" departLane="272042143_1" departPos="5.10" departSpeed="0.00" departDelay="0.00" arrival="57797.00" arrivalLane="-315358254#1_1" arrivalPos="137.16" arrivalSpeed="15.42" duration="123.00" routeLength="1596.88" waitingTime="2.00" waitingCount="1" stopTime="0.00" timeLoss="23.77" rerouteNo="1" devices="tripinfo_carIn126288:1 routing_carIn126288:1 emissions_carIn126288:1" vType="default_016" speedFactor="1.18" vaporized="">
        <emissions CO_abs="4934.019993" CO2_abs="377590.695004" HC_abs="31.282481" PMx_abs="6.777372" NOx_abs="152.728257" fuel_abs="162.309395" electricity_abs="0"/>
    </tripinfo>
    <tripinfo id="h3154c1:1" depart="57658.00" departLane="24634507_1" departPos="5.10" departSpeed="0.00" departDelay="0.00" arrival="57798.00" arrivalLane="-266565295#5_1" arrivalPos="172.76" arrivalSpeed="12.87" duration="140.00" routeLength="1206.22" waitingTime="17.00" waitingCount="3" stopTime="0.00" timeLoss="44.92" rerouteNo="1" devices="tripinfo_h3154c1:1 routing_h3154c1:1 emissions_h3154c1:1" vType="default_016" speedFactor="0.94" vaporized="">
        <emissions CO_abs="6301.852153" CO2_abs="351260.153063" HC_abs="36.929614" PMx_abs="6.234465" NOx_abs="143.978769" fuel_abs="150.992422" electricity_abs="0"/>
    </tripinfo>
    <tripinfo id="h5979c1:5" depart="57669.00" departLane="399835085#1_1" departPos="5.10" departSpeed="0.00" departDelay="0.00" arrival="57802.00" arrivalLane="-315358254#1_1" arrivalPos="137.16" arrivalSpeed="11.58" duration="133.00" routeLength="659.33" waitingTime="32.00" waitingCount="1" stopTime="0.00" timeLoss="51.03" rerouteNo="1" devices="tripinfo_h5979c1:5 routing_h5979c1:5 emissions_h5979c1:5" vType="default_016" speedFactor="0.89" vaporized="">
        <emissions CO_abs="8966.361042" CO2_abs="260634.071846" HC_abs="46.842053" PMx_abs="4.895089" NOx_abs="109.747131" fuel_abs="112.039101" electricity_abs="0"/>
    </tripinfo>
    <tripinfo id="S5R_frequency1.2" depart="57647.00" departLane="315358250#0_1" departPos="12.10" departSpeed="0.00" departDelay="35.40" arrival="57803.00" arrivalLane="386687235_1" arrivalPos="80.84" arrivalSpeed="12.89" duration="156.00" routeLength="1115.62" waitingTime="42.00" waitingCount="3" stopTime="0.00" timeLoss="74.73" rerouteNo="1" devices="tripinfo_S5R_frequency1.2 routing_S5R_frequency1.2 emissions_S5R_frequency1.2" vType="bus" speedFactor="1.00" vaporized="">
        <emissions CO_abs="2792.004920" CO2_abs="1446351.215516" HC_abs="606.314112" PMx_abs="292.423401" NOx_abs="12044.710303" fuel_abs="616.750690" electricity_abs="0"/>
    </tripinfo>
    <tripinfo id="h9953c2:3" depart="57682.00" departLane="-54169231#2_1" departPos="5.10" departSpeed="0.00" departDelay="0.00" arrival="57813.00" arrivalLane="386687235_1" arrivalPos="80.84" arrivalSpeed="15.07" duration="131.00" routeLength="1535.60" waitingTime="0.00" waitingCount="0" stopTime="0.00" timeLoss="17.39" rerouteNo="1" devices="tripinfo_h9953c2:3 routing_h9953c2:3 emissions_h9953c2:3" vType="default_016" speedFactor="1.11" vaporized="">
        <emissions CO_abs="5077.543823" CO2_abs="381841.834845" HC_abs="31.887323" PMx_abs="6.469419" NOx_abs="152.802165" fuel_abs="164.137334" electricity_abs="0"/>
    </tripinfo>
    <tripinfo id="carIn129809:1" depart="57729.00" departLane="-447569998#1_1" departPos="5.10" departSpeed="0.00" departDelay="1.00" arrival="57814.00" arrivalLane="-315358244_1" arrivalPos="33.95" arrivalSpeed="10.60" duration="85.00" routeLength="706.49" waitingTime="0.00" waitingCount="0" stopTime="0.00" timeLoss="13.39" rerouteNo="1" devices="tripinfo_carIn129809:1 routing_carIn129809:1 emissions_carIn129809:1" vType="default_015" speedFactor="0.84" vaporized="">
        <emissions CO_abs="3243.569830" CO2_abs="170466.409151" HC_abs="18.704475" PMx_abs="2.768110" NOx_abs="68.641851" fuel_abs="73.277068" electricity_abs="0"/>
    </tripinfo>
    <tripinfo id="carIn12858:1" depart="57661.00" departLane="128361109#1_1" departPos="5.10" departSpeed="0.00" departDelay="0.90" arrival="57816.00" arrivalLane="399835085#1_1" arrivalPos="212.23" arrivalSpeed="6.95" duration="155.00" routeLength="1738.12" waitingTime="0.00" waitingCount="0" stopTime="0.00" timeLoss="19.40" rerouteNo="1" devices="tripinfo_carIn12858:1 routing_carIn12858:1 emissions_carIn12858:1" vType="default_016" speedFactor="0.85" vaporized="">
        <emissions CO_abs="6422.195561" CO2_abs="414545.894766" HC_abs="39.002287" PMx_abs="7.545700" NOx_abs="169.391384" fuel_abs="178.195399" electricity_abs="0"/>
    </tripinfo>
    <tripinfo id="randUni15030:1" depart="57735.00" departLane="386687232#0_1" departPos="5.10" departSpeed="0.00" departDelay="0.10" arrival="57818.00" arrivalLane="26677539_1" arrivalPos="151.98" arrivalSpeed="9.27" duration="83.00" routeLength="919.89" waitingTime="0.00" waitingCount="0" stopTime="0.00" timeLoss="10.90" rerouteNo="1" devices="tripinfo_randUni15030:1 routing_randUni15030:1 emissions_randUni15030:1" vType="random_016" speedFactor="1.15" vaporized="">
        <emissions CO_abs="3475.535017" CO2_abs="222107.797051" HC_abs="21.026094" PMx_abs="3.908885" NOx_abs="90.594486" fuel_abs="95.474724" electricity_abs="0"/>
    </tripinfo>
    <tripinfo id="carIn50326:1" depart="57651.00" departLane="128361102#0_1" departPos="5.10" departSpeed="0.00" departDelay="0.30" arrival="57827.00" arrivalLane="18809673#0_1" arrivalPos="473.56" arrivalSpeed="11.80" duration="176.00" routeLength="1591.07" waitingTime="19.00" waitingCount="1" stopTime="0.00" timeLoss="37.79" rerouteNo="1" devices="tripinfo_carIn50326:1 routing_carIn50326:1 emissions_carIn50326:1" vType="default_016" speedFactor="0.94" vaporized="">
        <emissions CO_abs="7307.339648" CO2_abs="385319.572701" HC_abs="42.218640" PMx_abs="6.404511" NOx_abs="154.712008" fuel_abs="165.634224" electricity_abs="0"/>
    </tripinfo>
    <tripinfo id="h2831c1:1" depart="57600.00" departLane="201089423#0_1" departPos="5.10" departSpeed="0.00" departDelay="0.00" arrival="57833.00" arrivalLane="-315358244_1" arrivalPos="33.95" arrivalSpeed="14.13" duration="233.00" routeLength="2672.18" waitingTime="11.00" waitingCount="3" stopTime="0.00" timeLoss="48.29" rerouteNo="1" devices="tripinfo_h2831c1:1 routing_h2831c1:1 emissions_h2831c1:1" vType="default_016" speedFactor="1.05" vaporized="">
        <emissions CO_abs="7630.860708" CO2_abs="603092.320862" HC_abs="48.591539" PMx_abs="9.922184" NOx_abs="238.675667" fuel_abs="259.243579" electricity_abs="0"/>
    </tripinfo>
    <tripinfo id="carIn118591:1" depart="57689.00" departLane="315358244_1" departPos="5.10" departSpeed="0.00" departDelay="0.20" arrival="57833.00" arrivalLane="386687235_1" arrivalPos="80.84" arrivalSpeed="12.22" duration="144.00" routeLength="1186.14" waitingTime="25.00" waitingCount="4" stopTime="0.00" timeLoss="52.37" rerouteNo="1" devices="tripinfo_carIn118591:1 routing_carIn118591:1 emissions_carIn118591:1" vType="default_016" speedFactor="0.94" vaporized="">
        <emissions CO_abs="5982.102449" CO2_abs="288940.734438" HC_abs="33.988704" PMx_abs="5.145444" NOx_abs="118.176924" fuel_abs="124.204538" electricity_abs="0"/>
    </tripinfo>
    <tripinfo id="h645c1:1" depart="57622.00" departLane="266565295#5_1" departPos="5.10" departSpeed="0.00" departDelay="0.40" arrival="57834.00" arrivalLane="-315358244_2" arrivalPos="33.95" arrivalSpeed="10.76" duration="212.00" routeLength="1910.83" waitingTime="30.00" waitingCount="1" stopTime="0.00" timeLoss="49.39" rerouteNo="1" devices="tripinfo_h645c1:1 routing_h645c1:1 emissions_h645c1:1" vType="default_016" speedFactor="0.85" vaporized="">
        <emissions CO_abs="9184.780631" CO2_abs="454386.389974" HC_abs="52.352612" PMx_abs="7.560918" NOx_abs="182.663866" fuel_abs="195.323876" electricity_abs="0"/>
    </tripinfo>
    <tripinfo id="h17600c1:1" depart="57662.00" departLane="272042143_1" departPos="5.10" departSpeed="0.00" departDelay="0.30" arrival="57841.00" arrivalLane="201238729#3_1" arrivalPos="431.02" arrivalSpeed="13.03" duration="179.00" routeLength="2100.26" waitingTime="4.00" waitingCount="1" stopTime="0.00" timeLoss="21.28" rerouteNo="1" devices="tripinfo_h17600c1:1 routing_h17600c1:1 emissions_h17600c1:1" vType="default_016" speedFactor="0.96" vaporized="">
        <emissions CO_abs="4906.328000" CO2_abs="414004.198940" HC_abs="31.999091" PMx_abs="6.545086" NOx_abs="162.577717" fuel_abs="177.962801" electricity_abs="0"/>
    </tripinfo>
    <tripinfo id="50R_frequency3.17" depart="57674.00" departLane="-18809673#6_1" departPos="12.10" departSpeed="0.00" departDelay="0.70" arrival="57851.00" arrivalLane="201956811#0_1" arrivalPos="40.40" arrivalSpeed="12.08" duration="177.00" routeLength="1954.47" waitingTime="5.00" waitingCount="1" stopTime="0.00" timeLoss="31.70" rerouteNo="1" devices="tripinfo_50R_frequency3.17 routing_50R_frequency3.17 emissions_50R_frequency3.17" vType="bus" speedFactor="1.00" vaporized="">
        <emissions CO_abs="3440.321972" CO2_abs="2199645.254250" HC_abs="710.750240" PMx_abs="369.032046" NOx_abs="16963.057473" fuel_abs="938.126368" electricity_abs="0"/>
    </tripinfo>
    <tripinfo id="randUni31145:1" depart="57814.00" departLane="10425609#0_1" departPos="5.10" departSpeed="0.00" departDelay="0.30" arrival="57852.00" arrivalLane="201956810_1" arrivalPos="71.65" arrivalSpeed="12.67" duration="38.00" routeLength="255.78" waitingTime="6.00" waitingCount="1" stopTime="0.00" timeLoss="15.89" rerouteNo="1" devices="tripinfo_randUni31145:1 routing_randUni31145:1 emissions_randUni31145:1" vType="random_016" speedFactor="0.91" vaporized="">
        <emissions CO_abs="2391.778538" CO2_abs="107359.893353" HC_abs="13.416027" PMx_abs="2.042231" NOx_abs="45.169418" fuel_abs="46.149803" electricity_abs="0"/>
    </tripinfo>
    <tripinfo id="h19804c1:3" depart="57617.00" departLane="124812856#0_1" departPos="5.10" departSpeed="0.00" departDelay="1.50" arrival="57853.00" arrivalLane="-128361102#1_1" arrivalPos="274.68" arrivalSpeed="10.78" duration="236.00" routeLength="2250.49" waitingTime="13.00" waitingCount="2" stopTime="0.00" timeLoss="41.40" rerouteNo="1" devices="tripinfo_h19804c1:3 routing_h19804c1:3 emissions_h19804c1:3" vType="default_016" speedFactor="0.85" vaporized="">
        <emissions CO_abs="7322.345118" CO2_abs="485779.675014" HC_abs="44.554338" PMx_abs="7.456092" NOx_abs="191.267599" fuel_abs="208.817504" electricity_abs="0"/>
    </tripinfo>
    <tripinfo id="carIn102915:1" depart="57643.00" departLane="128361102#0_1" departPos="5.10" departSpeed="0.00" departDelay="0.40" arrival="57853.00" arrivalLane="201956811#0_1" arrivalPos="40.40" arrivalSpeed="12.87" duration="210.00" routeLength="2067.33" waitingTime="30.00" waitingCount="2" stopTime="0.00" timeLoss="57.66" rerouteNo="1" devices="tripinfo_carIn102915:1 routing_carIn102915:1 emissions_carIn102915:1" vType="default_016" speedFactor="0.99" vaporized="">
        <emissions CO_abs="8940.508758" CO2_abs="495127.517693" HC_abs="52.252165" PMx_abs="8.469661" NOx_abs="199.331498" fuel_abs="212.835831" electricity_abs="0"/>
    </tripinfo>
    <tripinfo id="randUni2407:1" depart="57820.00" departLane="10425609#0_1" departPos="5.10" departSpeed="0.00" departDelay="0.80" arrival="57854.00" arrivalLane="201956810_1" arrivalPos="71.65" arrivalSpeed="14.52" duration="34.00" routeLength="255.78" waitingTime="4.00" waitingCount="1" stopTime="0.00" timeLoss="14.55" rerouteNo="1" devices="tripinfo_randUni2407:1 routing_randUni2407:1 emissions_randUni2407:1" vType="random_016" speedFactor="1.05" vaporized="">
        <emissions CO_abs="2127.206602" CO2_abs="115656.597430" HC_abs="12.410548" PMx_abs="2.136898" NOx_abs="48.083239" fuel_abs="49.715959" electricity_abs="0"/>
    </tripinfo>
    <tripinfo id="carIn107084:1" depart="57601.00" departLane="124812856#0_1" departPos="5.10" departSpeed="0.00" departDelay="0.70" arrival="57855.00" arrivalLane="-128361102#1_1" arrivalPos="274.68" arrivalSpeed="11.52" duration="254.00" routeLength="2250.49" waitingTime="26.00" waitingCount="2" stopTime="0.00" timeLoss="64.94" rerouteNo="1" devices="tripinfo_carIn107084:1 routing_carIn107084:1 emissions_carIn107084:1" vType="default_016" speedFactor="0.87" vaporized="">
        <emissions CO_abs="10972.873766" CO2_abs="582361.240292" HC_abs="63.495676" PMx_abs="9.794240" NOx_abs="235.383961" fuel_abs="250.334618" electricity_abs="0"/>
    </tripinfo>
    <tripinfo id="randUni33724:1" depart="57646.00" departLane="128361102#0_1" departPos="5.10" departSpeed="0.00" departDelay="1.20" arrival="57857.00" arrivalLane="201956811#0_1" arrivalPos="40.40" arrivalSpeed="12.06" duration="211.00" routeLength="2067.33" waitingTime="19.00" waitingCount="1" stopTime="0.00" timeLoss="44.12" rerouteNo="1" devices="tripinfo_randUni33724:1 routing_randUni33724:1 emissions_randUni33724:1" vType="random_016" speedFactor="0.91" vaporized="">
        <emissions CO_abs="8042.340618" CO2_abs="473465.350536" HC_abs="47.585991" PMx_abs="7.531890" NOx_abs="187.204084" fuel_abs="203.524529" electricity_abs="0"/>
    </tripinfo>
    <tripinfo id="carIn12775:1" depart="57676.00" departLane="10425609#0_1" departPos="5.10" departSpeed="0.00" departDelay="0.60" arrival="57858.00" arrivalLane="18809673#0_1" arrivalPos="473.56" arrivalSpeed="14.82" duration="182.00" routeLength="1959.45" waitingTime="19.00" waitingCount="2" stopTime="0.00" timeLoss="53.77" rerouteNo="1" devices="tripinfo_carIn12775:1 routing_carIn12775:1 emissions_carIn12775:1" vType="default_016" speedFactor="1.13" vaporized="">