<?xml version="1.0" encoding="UTF-8"?>

<!-- generated on Thu Nov  4 13:43:30 2021 by Eclipse SUMO sumo Version 1.9.0
<configuration xmlns:xsi="http://www.w3.org/2001/XMLSchema-instance" xsi:noNamespaceSchemaLocation="http://sumo.dlr.de/xsd/sumoConfiguration.xsd">

    <input>
        <net-file value="/mainfs/home/bk2g18/RESCO/environments/ingolstadt21/ingolstadt21.net.xml"/>
        <route-files value="/mainfs/home/bk2g18/RESCO/environments/ingolstadt21/ingolstadt21.rou.xml"/>
    </input>

    <output>
        <tripinfo-output value="/mainfs/home/bk2g18/RESCO/logs/MPLight-tr0-ingolstadt21-21-mplight-pressure/tripinfo_55.xml"/>
        <tripinfo-output.write-unfinished value="true"/>
    </output>

    <time>
        <begin value="57600"/>
        <end value="61200"/>
    </time>

    <processing>
        <time-to-teleport value="-1"/>
    </processing>

    <report>
        <xml-validation value="never"/>
        <xml-validation.routes value="never"/>
        <no-warnings value="true"/>
        <no-step-log value="true"/>
    </report>

    <emissions>
        <device.emissions.probability value="1"/>
    </emissions>

    <traci_server>
        <remote-port value="33700"/>
    </traci_server>

    <random_number>
        <random value="true"/>
    </random_number>

</configuration>
-->

<tripinfos xmlns:xsi="http://www.w3.org/2001/XMLSchema-instance" xsi:noNamespaceSchemaLocation="http://sumo.dlr.de/xsd/tripinfo_file.xsd">
    <tripinfo id="h15454c2:3" depart="57612.00" departLane="24608844_1" departPos="5.10" departSpeed="0.00" departDelay="0.50" arrival="57650.00" arrivalLane="32978638#0_1" arrivalPos="49.29" arrivalSpeed="14.38" duration="38.00" routeLength="354.79" waitingTime="0.00" waitingCount="0" stopTime="0.00" timeLoss="6.13" rerouteNo="1" devices="tripinfo_h15454c2:3 routing_h15454c2:3 emissions_h15454c2:3" vType="default_016" speedFactor="1.08" vaporized="">
        <emissions CO_abs="1833.692054" CO2_abs="103720.193963" HC_abs="10.773963" PMx_abs="1.807350" NOx_abs="42.425248" fuel_abs="44.585098" electricity_abs="0"/>
    </tripinfo>
    <tripinfo id="carIn60260:1" depart="57606.00" departLane="315358254#0_1" departPos="5.10" departSpeed="0.00" departDelay="0.90" arrival="57661.00" arrivalLane="399835085#1_1" arrivalPos="212.23" arrivalSpeed="7.83" duration="55.00" routeLength="430.98" waitingTime="0.00" waitingCount="0" stopTime="0.00" timeLoss="8.43" rerouteNo="1" devices="tripinfo_carIn60260:1 routing_carIn60260:1 emissions_carIn60260:1" vType="default_016" speedFactor="0.98" vaporized="">
        <emissions CO_abs="2058.969963" CO2_abs="101709.001942" HC_abs="11.721999" PMx_abs="1.676905" NOx_abs="41.275648" fuel_abs="43.720907" electricity_abs="0"/>
    </tripinfo>
    <tripinfo id="carIn53971:1" depart="57640.00" departLane="272042143_1" departPos="5.10" departSpeed="0.00" departDelay="0.80" arrival="57697.00" arrivalLane="24634414#1_1" arrivalPos="162.19" arrivalSpeed="7.27" duration="57.00" routeLength="493.04" waitingTime="0.00" waitingCount="0" stopTime="0.00" timeLoss="9.20" rerouteNo="1" devices="tripinfo_carIn53971:1 routing_carIn53971:1 emissions_carIn53971:1" vType="default_016" speedFactor="0.95" vaporized="">
        <emissions CO_abs="2398.984831" CO2_abs="132855.404228" HC_abs="13.996070" PMx_abs="2.160511" NOx_abs="53.448670" fuel_abs="57.109410" electricity_abs="0"/>
    </tripinfo>
    <tripinfo id="h7800c1:5" depart="57696.00" departLane="-447569998#1_1" departPos="5.10" departSpeed="0.00" departDelay="0.00" arrival="57719.00" arrivalLane="-447569998#1_2" arrivalPos="180.76" arrivalSpeed="8.42" duration="23.00" routeLength="175.66" waitingTime="0.00" waitingCount="0" stopTime="0.00" timeLoss="3.21" rerouteNo="1" devices="tripinfo_h7800c1:5 routing_h7800c1:5 emissions_h7800c1:5" vType="default_016" speedFactor="1.10" vaporized="">
        <emissions CO_abs="1052.513089" CO2_abs="48471.005901" HC_abs="5.904157" PMx_abs="0.778033" NOx_abs="19.564296" fuel_abs="20.835968" electricity_abs="0"/>
    </tripinfo>
    <tripinfo id="h317c2:1" depart="57707.00" departLane="-32978638#0_1" departPos="5.10" departSpeed="0.00" departDelay="0.10" arrival="57738.00" arrivalLane="-266565295#5_1" arrivalPos="172.76" arrivalSpeed="14.81" duration="31.00" routeLength="370.53" waitingTime="0.00" waitingCount="0" stopTime="0.00" timeLoss="5.84" rerouteNo="1" devices="tripinfo_h317c2:1 routing_h317c2:1 emissions_h317c2:1" vType="default_016" speedFactor="1.10" vaporized="">
        <emissions CO_abs="1757.758875" CO2_abs="122286.651560" HC_abs="10.866937" PMx_abs="2.217499" NOx_abs="49.991290" fuel_abs="52.565641" electricity_abs="0"/>
    </tripinfo>
    <tripinfo id="carIn121703:1" depart="57647.00" departLane="386687232#0_1" departPos="5.10" departSpeed="0.00" departDelay="0.30" arrival="57741.00" arrivalLane="-315358244_1" arrivalPos="33.95" arrivalSpeed="15.48" duration="94.00" routeLength="1157.39" waitingTime="5.00" waitingCount="1" stopTime="0.00" timeLoss="20.52" rerouteNo="1" devices="tripinfo_carIn121703:1 routing_carIn121703:1 emissions_carIn121703:1" vType="default_016" speedFactor="1.15" vaporized="">
        <emissions CO_abs="3506.329522" CO2_abs="272375.067878" HC_abs="22.232109" PMx_abs="4.644712" NOx_abs="108.134451" fuel_abs="117.082256" electricity_abs="0"/>
    </tripinfo>
    <tripinfo id="h4538c1:1" depart="57701.00" departLane="-10427692#1_1" departPos="5.10" departSpeed="0.00" departDelay="0.00" arrival="57752.00" arrivalLane="-128361102#1_1" arrivalPos="274.68" arrivalSpeed="14.76" duration="51.00" routeLength="440.74" waitingTime="12.00" waitingCount="1" stopTime="0.00" timeLoss="23.09" rerouteNo="1" devices="tripinfo_h4538c1:1 routing_h4538c1:1 emissions_h4538c1:1" vType="default_016" speedFactor="1.15" vaporized="">
        <emissions CO_abs="3137.508782" CO2_abs="136455.921869" HC_abs="17.494855" PMx_abs="2.659736" NOx_abs="57.130740" fuel_abs="58.657097" electricity_abs="0"/>
    </tripinfo>
    <tripinfo id="h3688c1:1" depart="57625.00" departLane="201201950#1_1" departPos="5.10" departSpeed="0.00" departDelay="0.00" arrival="57756.00" arrivalLane="32978638#0_1" arrivalPos="49.29" arrivalSpeed="10.97" duration="131.00" routeLength="1089.75" waitingTime="18.00" waitingCount="1" stopTime="0.00" timeLoss="33.52" rerouteNo="1" devices="tripinfo_h3688c1:1 routing_h3688c1:1 emissions_h3688c1:1" vType="default_016" speedFactor="0.82" vaporized="">
        <emissions CO_abs="5428.339240" CO2_abs="263305.202934" HC_abs="30.787130" PMx_abs="4.257446" NOx_abs="105.403165" fuel_abs="113.185396" electricity_abs="0"/>
    </tripinfo>
    <tripinfo id="h5979c1:5" depart="57669.00" departLane="399835085#1_1" departPos="5.10" departSpeed="0.00" departDelay="0.00" arrival="57756.00" arrivalLane="-315358254#1_1" arrivalPos="137.16" arrivalSpeed="14.45" duration="87.00" routeLength="659.33" waitingTime="8.00" waitingCount="1" stopTime="0.00" timeLoss="20.51" rerouteNo="1" devices="tripinfo_h5979c1:5 routing_h5979c1:5 emissions_h5979c1:5" vType="default_016" speedFactor="1.10" vaporized="">
        <emissions CO_abs="3954.483979" CO2_abs="194229.465626" HC_abs="22.498669" PMx_abs="3.240699" NOx_abs="78.790033" fuel_abs="83.491995" electricity_abs="0"/>
    </tripinfo>
    <tripinfo id="h12244c1:3" depart="57612.00" departLane="315358244_1" departPos="5.10" departSpeed="0.00" departDelay="0.40" arrival="57757.00" arrivalLane="386687235_1" arrivalPos="80.84" arrivalSpeed="13.85" duration="145.00" routeLength="1186.14" waitingTime="31.00" waitingCount="4" stopTime="0.00" timeLoss="58.63" rerouteNo="1" devices="tripinfo_h12244c1:3 routing_h12244c1:3 emissions_h12244c1:3" vType="default_016" speedFactor="1.01" vaporized="">
        <emissions CO_abs="7400.933288" CO2_abs="347058.841514" HC_abs="41.767031" PMx_abs="6.079791" NOx_abs="140.723939" fuel_abs="149.187676" electricity_abs="0"/>
    </tripinfo>
    <tripinfo id="carIn22761:1" depart="57616.00" departLane="-306240162#1_0" departPos="5.10" departSpeed="0.00" departDelay="2.10" arrival="57759.00" arrivalLane="399835085#1_1" arrivalPos="212.23" arrivalSpeed="9.48" duration="143.00" routeLength="1093.26" waitingTime="45.00" waitingCount="3" stopTime="0.00" timeLoss="75.29" rerouteNo="1" devices="tripinfo_carIn22761:1 routing_carIn22761:1 emissions_carIn22761:1" vType="default_016" speedFactor="1.15" vaporized="">
        <emissions CO_abs="11860.723995" CO2_abs="473976.852202" HC_abs="65.270292" PMx_abs="9.834187" NOx_abs="201.692299" fuel_abs="203.744205" electricity_abs="0"/>
    </tripinfo>
    <tripinfo id="h3568c1:3" depart="57656.00" departLane="266565295#5_1" departPos="5.10" departSpeed="0.00" departDelay="0.80" arrival="57760.00" arrivalLane="-24634415_1" arrivalPos="62.03" arrivalSpeed="11.02" duration="104.00" routeLength="807.40" waitingTime="9.00" waitingCount="1" stopTime="0.00" timeLoss="29.57" rerouteNo="1" devices="tripinfo_h3568c1:3 routing_h3568c1:3 emissions_h3568c1:3" vType="default_016" speedFactor="0.87" vaporized="">
        <emissions CO_abs="5689.878878" CO2_abs="264536.988165" HC_abs="32.093437" PMx_abs="4.811212" NOx_abs="109.926910" fuel_abs="113.714221" electricity_abs="0"/>
    </tripinfo>
    <tripinfo id="h3326c1:2" depart="57656.00" departLane="22716069#0_1" departPos="5.10" departSpeed="0.00" departDelay="0.00" arrival="57761.00" arrivalLane="24634517#13_1" arrivalPos="111.62" arrivalSpeed="14.61" duration="105.00" routeLength="1312.81" waitingTime="0.00" waitingCount="0" stopTime="0.00" timeLoss="16.12" rerouteNo="1" devices="tripinfo_h3326c1:2 routing_h3326c1:2 emissions_h3326c1:2" vType="default_016" speedFactor="1.10" vaporized="">
        <emissions CO_abs="4377.971242" CO2_abs="316768.492781" HC_abs="27.421240" PMx_abs="5.735043" NOx_abs="129.360280" fuel_abs="136.164697" electricity_abs="0"/>
    </tripinfo>
    <tripinfo id="S5R_frequency1.2" depart="57612.00" departLane="315358250#0_1" departPos="12.10" departSpeed="0.00" departDelay="0.40" arrival="57762.00" arrivalLane="386687235_1" arrivalPos="80.84" arrivalSpeed="13.43" duration="150.00" routeLength="1115.62" waitingTime="31.00" waitingCount="3" stopTime="0.00" timeLoss="68.67" rerouteNo="1" devices="tripinfo_S5R_frequency1.2 routing_S5R_frequency1.2 emissions_S5R_frequency1.2" vType="bus" speedFactor="1.00" vaporized="">
        <emissions CO_abs="2798.755525" CO2_abs="1560837.378756" HC_abs="595.941995" PMx_abs="295.305586" NOx_abs="12640.589380" fuel_abs="665.609212" electricity_abs="0"/>
    </tripinfo>
    <tripinfo id="h330c1:1" depart="57736.00" departLane="-32978638#0_1" departPos="5.10" departSpeed="0.00" departDelay="0.20" arrival="57767.00" arrivalLane="-266565295#5_1" arrivalPos="172.76" arrivalSpeed="14.13" duration="31.00" routeLength="370.53" waitingTime="0.00" waitingCount="0" stopTime="0.00" timeLoss="5.67" rerouteNo="1" devices="tripinfo_h330c1:1 routing_h330c1:1 emissions_h330c1:1" vType="default_016" speedFactor="1.08" vaporized="">
        <emissions CO_abs="1561.395175" CO2_abs="107153.438489" HC_abs="9.570684" PMx_abs="1.883224" NOx_abs="43.445576" fuel_abs="46.060640" electricity_abs="0"/>
    </tripinfo>
    <tripinfo id="carIn80064:1" depart="57603.00" departLane="128361109#1_1" departPos="5.10" departSpeed="0.00" departDelay="0.40" arrival="57769.00" arrivalLane="-315358254#1_1" arrivalPos="137.16" arrivalSpeed="13.76" duration="166.00" routeLength="1587.97" waitingTime="38.00" waitingCount="3" stopTime="0.00" timeLoss="78.88" rerouteNo="1" devices="tripinfo_carIn80064:1 routing_carIn80064:1 emissions_carIn80064:1" vType="default_016" speedFactor="1.02" vaporized="">
        <emissions CO_abs="11907.669367" CO2_abs="545943.622657" HC_abs="67.263028" PMx_abs="11.033764" NOx_abs="229.376642" fuel_abs="234.678987" electricity_abs="0"/>
    </tripinfo>
    <tripinfo id="carIn27009:1" depart="57673.00" departLane="-447569998#1_1" departPos="5.10" departSpeed="0.00" departDelay="0.50" arrival="57772.00" arrivalLane="-26677539_1" arrivalPos="152.75" arrivalSpeed="6.98" duration="99.00" routeLength="699.63" waitingTime="0.00" waitingCount="0" stopTime="0.00" timeLoss="11.95" rerouteNo="1" devices="tripinfo_carIn27009:1 routing_carIn27009:1 emissions_carIn27009:1" vType="default_015" speedFactor="0.96" vaporized="">
        <emissions CO_abs="3680.195276" CO2_abs="166632.309970" HC_abs="20.561862" PMx_abs="2.615170" NOx_abs="67.120840" fuel_abs="71.629445" electricity_abs="0"/>
    </tripinfo>
    <tripinfo id="carIn30817:1" depart="57681.00" departLane="315358244_1" departPos="5.10" departSpeed="0.00" departDelay="0.20" arrival="57775.00" arrivalLane="447569997#1_1" arrivalPos="180.93" arrivalSpeed="6.59" duration="94.00" routeLength="718.04" waitingTime="8.00" waitingCount="1" stopTime="0.00" timeLoss="23.32" rerouteNo="1" devices="tripinfo_carIn30817:1 routing_carIn30817:1 emissions_carIn30817:1" vType="default_016" speedFactor="0.88" vaporized="">
        <emissions CO_abs="4306.280047" CO2_abs="198811.107956" HC_abs="24.196699" PMx_abs="3.297580" NOx_abs="80.399664" fuel_abs="85.461736" electricity_abs="0"/>
    </tripinfo>
    <tripinfo id="carIn12365:1" depart="57713.00" departLane="315358244_1" departPos="5.10" departSpeed="0.00" departDelay="0.50" arrival="57778.00" arrivalLane="447569997#1_1" arrivalPos="180.93" arrivalSpeed="7.82" duration="65.00" routeLength="718.04" waitingTime="0.00" waitingCount="0" stopTime="0.00" timeLoss="7.00" rerouteNo="1" devices="tripinfo_carIn12365:1 routing_carIn12365:1 emissions_carIn12365:1" vType="default_016" speedFactor="1.07" vaporized="">
        <emissions CO_abs="1967.726918" CO2_abs="147425.202111" HC_abs="12.318690" PMx_abs="2.250292" NOx_abs="57.403020" fuel_abs="63.372123" electricity_abs="0"/>
    </tripinfo>
    <tripinfo id="h3154c1:1" depart="57658.00" departLane="24634507_1" departPos="5.10" departSpeed="0.00" departDelay="0.00" arrival="57779.00" arrivalLane="-266565295#5_1" arrivalPos="172.76" arrivalSpeed="14.07" duration="121.00" routeLength="1206.22" waitingTime="15.00" waitingCount="2" stopTime="0.00" timeLoss="36.38" rerouteNo="1" devices="tripinfo_h3154c1:1 routing_h3154c1:1 emissions_h3154c1:1" vType="default_016" speedFactor="1.06" vaporized="">
        <emissions CO_abs="5327.309343" CO2_abs="327376.215855" HC_abs="31.979735" PMx_abs="5.962340" NOx_abs="134.401227" fuel_abs="140.725070" electricity_abs="0"/>
    </tripinfo>
    <tripinfo id="h7181c1:1" depart="57660.00" departLane="315358254#0_1" departPos="5.10" departSpeed="0.00" departDelay="0.10" arrival="57782.00" arrivalLane="306240162#0_0" arrivalPos="220.43" arrivalSpeed="14.50" duration="122.00" routeLength="932.35" waitingTime="41.00" waitingCount="3" stopTime="0.00" timeLoss="65.57" rerouteNo="1" devices="tripinfo_h7181c1:1 routing_h7181c1:1 emissions_h7181c1:1" vType="default_016" speedFactor="0.91" vaporized="">
        <emissions CO_abs="9664.619065" CO2_abs="372327.847489" HC_abs="52.741955" PMx_abs="7.597623" NOx_abs="157.867736" fuel_abs="160.049705" electricity_abs="0"/>
    </tripinfo>
    <tripinfo id="h16072c2:3" depart="57663.00" departLane="315358254#0_1" departPos="5.10" departSpeed="0.00" departDelay="2.50" arrival="57787.00" arrivalLane="386687235_1" arrivalPos="80.84" arrivalSpeed="14.52" duration="124.00" routeLength="1611.92" waitingTime="5.00" waitingCount="1" stopTime="0.00" timeLoss="19.66" rerouteNo="1" devices="tripinfo_h16072c2:3 routing_h16072c2:3 emissions_h16072c2:3" vType="default_016" speedFactor="1.13" vaporized="">
        <emissions CO_abs="3884.797995" CO2_abs="340987.247486" HC_abs="25.639412" PMx_abs="5.644280" NOx_abs="133.902869" fuel_abs="146.575552" electricity_abs="0"/>
    </tripinfo>
    <tripinfo id="carIn86816:1" depart="57617.00" departLane="128361102#0_1" departPos="5.10" departSpeed="0.00" departDelay="0.80" arrival="57788.00" arrivalLane="201956811#0_1" arrivalPos="40.40" arrivalSpeed="13.04" duration="171.00" routeLength="2067.33" waitingTime="0.00" waitingCount="0" stopTime="0.00" timeLoss="19.48" rerouteNo="1" devices="tripinfo_carIn86816:1 routing_carIn86816:1 emissions_carIn86816:1" vType="default_016" speedFactor="1.00" vaporized="">
        <emissions CO_abs="4770.362958" CO2_abs="416979.237157" HC_abs="31.402737" PMx_abs="6.433422" NOx_abs="162.324597" fuel_abs="179.241775" electricity_abs="0"/>
    </tripinfo>
    <tripinfo id="carIn107084:1" depart="57601.00" departLane="124812856#0_1" departPos="5.10" departSpeed="0.00" departDelay="0.70" arrival="57794.00" arrivalLane="-128361102#1_1" arrivalPos="274.68" arrivalSpeed="15.19" duration="193.00" routeLength="2250.49" waitingTime="9.00" waitingCount="2" stopTime="0.00" timeLoss="42.87" rerouteNo="1" devices="tripinfo_carIn107084:1 routing_carIn107084:1 emissions_carIn107084:1" vType="default_016" speedFactor="1.10" vaporized="">
        <emissions CO_abs="6759.956800" CO2_abs="536195.505978" HC_abs="43.211393" PMx_abs="9.005439" NOx_abs="213.013001" fuel_abs="230.487253" electricity_abs="0"/>
    </tripinfo>
    <tripinfo id="h11737c1:1" depart="57665.00" departLane="272042143_1" departPos="5.10" departSpeed="0.00" departDelay="1.50" arrival="57796.00" arrivalLane="-315358254#1_1" arrivalPos="137.16" arrivalSpeed="15.13" duration="131.00" routeLength="1596.88" waitingTime="4.00" waitingCount="1" stopTime="0.00" timeLoss="25.42" rerouteNo="1" devices="tripinfo_h11737c1:1 routing_h11737c1:1 emissions_h11737c1:1" vType="default_016" speedFactor="1.10" vaporized="">
        <emissions CO_abs="4148.566396" CO2_abs="337592.027257" HC_abs="26.572927" PMx_abs="5.603596" NOx_abs="133.637139" fuel_abs="145.116198" electricity_abs="0"/>
    </tripinfo>
    <tripinfo id="carIn50326:1" depart="57651.00" departLane="128361102#0_1" departPos="5.10" departSpeed="0.00" departDelay="0.30" arrival="57801.00" arrivalLane="18809673#0_1" arrivalPos="473.56" arrivalSpeed="13.67" duration="150.00" routeLength="1591.07" waitingTime="1.00" waitingCount="1" stopTime="0.00" timeLoss="21.61" rerouteNo="1" devices="tripinfo_carIn50326:1 routing_carIn50326:1 emissions_carIn50326:1" vType="default_016" speedFactor="1.01" vaporized="">
        <emissions CO_abs="5048.467234" CO2_abs="351797.321803" HC_abs="31.080975" PMx_abs="5.613520" NOx_abs="139.099356" fuel_abs="151.223302" electricity_abs="0"/>
    </tripinfo>
    <tripinfo id="carIn126288:1" depart="57674.00" departLane="272042143_1" departPos="5.10" departSpeed="0.00" departDelay="0.00" arrival="57808.00" arrivalLane="-315358254#1_1" arrivalPos="137.16" arrivalSpeed="15.84" duration="134.00" routeLength="1596.88" waitingTime="19.00" waitingCount="1" stopTime="0.00" timeLoss="36.14" rerouteNo="1" devices="tripinfo_carIn126288:1 routing_carIn126288:1 emissions_carIn126288:1" vType="default_016" speedFactor="1.19" vaporized="">
        <emissions CO_abs="6687.634451" CO2_abs="383998.147136" HC_abs="39.437279" PMx_abs="7.151265" NOx_abs="156.807826" fuel_abs="165.064729" electricity_abs="0"/>
    </tripinfo>
    <tripinfo id="h9563c2:5" depart="57631.00" departLane="315358244_1" departPos="5.10" departSpeed="0.00" departDelay="0.70" arrival="57817.00" arrivalLane="386687235_1" arrivalPos="80.84" arrivalSpeed="13.25" duration="186.00" routeLength="1186.14" waitingTime="76.00" waitingCount="3" stopTime="0.00" timeLoss="103.32" rerouteNo="1" devices="tripinfo_h9563c2:5 routing_h9563c2:5 emissions_h9563c2:5" vType="default_016" speedFactor="1.04" vaporized="">
        <emissions CO_abs="14276.129227" CO2_abs="458988.558305" HC_abs="75.742183" PMx_abs="9.256263" NOx_abs="194.779325" fuel_abs="197.303990" electricity_abs="0"/>
    </tripinfo>
    <tripinfo id="carIn77943:1" depart="57608.00" departLane="124812856#0_1" departPos="5.10" departSpeed="0.00" departDelay="2.50" arrival="57820.00" arrivalLane="-128361102#1_1" arrivalPos="274.68" arrivalSpeed="12.76" duration="212.00" routeLength="2250.49" waitingTime="14.00" waitingCount="1" stopTime="0.00" timeLoss="47.33" rerouteNo="1" devices="tripinfo_carIn77943:1 routing_carIn77943:1 emissions_carIn77943:1" vType="default_016" speedFactor="1.00" vaporized="">
        <emissions CO_abs="6773.850994" CO2_abs="485475.460285" HC_abs="42.097258" PMx_abs="7.679363" NOx_abs="190.906206" fuel_abs="208.686092" electricity_abs="0"/>
    </tripinfo>
    <tripinfo id="h645c1:1" depart="57622.00" departLane="266565295#5_1" departPos="5.10" departSpeed="0.00" departDelay="0.40" arrival="57823.00" arrivalLane="-315358244_2" arrivalPos="33.95" arrivalSpeed="14.17" duration="201.00" routeLength="1910.83" waitingTime="30.00" waitingCount="4" stopTime="0.00" timeLoss="71.60" rerouteNo="1" devices="tripinfo_h645c1:1 routing_h645c1:1 emissions_h645c1:1" vType="default_016" speedFactor="1.07" vaporized="">
        <emissions CO_abs="9543.711165" CO2_abs="501708.727038" HC_abs="55.188006" PMx_abs="9.043553" NOx_abs="204.794201" fuel_abs="215.664553" electricity_abs="0"/>
    </tripinfo>
    <tripinfo id="carIn118591:1" depart="57689.00" departLane="315358244_1" departPos="5.10" departSpeed="0.00" departDelay="0.20" arrival="57824.00" arrivalLane="386687235_1" arrivalPos="80.84" arrivalSpeed="13.82" duration="135.00" routeLength="1186.14" waitingTime="26.00" waitingCount="3" stopTime="0.00" timeLoss="51.51" rerouteNo="1" devices="tripinfo_carIn118591:1 routing_carIn118591:1 emissions_carIn118591:1" vType="default_016" speedFactor="1.03" vaporized="">
        <emissions CO_abs="6386.920229" CO2_abs="324996.533085" HC_abs="36.680570" PMx_abs="5.830019" NOx_abs="132.835040" fuel_abs="139.703220" electricity_abs="0"/>
    </tripinfo>
    <tripinfo id="carIn129809:1" depart="57729.00" departLane="-447569998#1_1" departPos="5.10" departSpeed="0.00" departDelay="1.00" arrival="57824.00" arrivalLane="-315358244_1" arrivalPos="33.95" arrivalSpeed="11.64" duration="95.00" routeLength="706.49" waitingTime="12.00" waitingCount="2" stopTime="0.00" timeLoss="27.77" rerouteNo="1" devices="tripinfo_carIn129809:1 routing_carIn129809:1 emissions_carIn129809:1" vType="default_015" speedFactor="0.90" vaporized="">
        <emissions CO_abs="3813.398925" CO2_abs="192759.600828" HC_abs="21.829535" PMx_abs="3.215740" NOx_abs="77.927992" fuel_abs="82.860088" electricity_abs="0"/>
    </tripinfo>
    <tripinfo id="h2831c1:1" depart="57600.00" departLane="201089423#0_1" departPos="5.10" departSpeed="0.00" departDelay="0.00" arrival="57825.00" arrivalLane="-315358244_1" arrivalPos="33.95" arrivalSpeed="14.14" duration="225.00" routeLength="2672.18" waitingTime="22.00" waitingCount="2" stopTime="0.00" timeLoss="57.12" rerouteNo="1" devices="tripinfo_h2831c1:1 routing_h2831c1:1 emissions_h2831c1:1" vType="default_016" speedFactor="1.16" vaporized="">
        <emissions CO_abs="10015.331920" CO2_abs="609178.267728" HC_abs="59.630050" PMx_abs="10.694154" NOx_abs="244.307017" fuel_abs="261.860725" electricity_abs="0"/>
    </tripinfo>
    <tripinfo id="carIn12152:1" depart="57647.00" departLane="24599188#0.94_1" departPos="5.10" departSpeed="0.00" departDelay="0.50" arrival="57828.00" arrivalLane="-315358254#1_1" arrivalPos="137.16" arrivalSpeed="13.97" duration="181.00" routeLength="2034.31" waitingTime="5.00" waitingCount="1" stopTime="0.00" timeLoss="26.17" rerouteNo="1" devices="tripinfo_carIn12152:1 routing_carIn12152:1 emissions_carIn12152:1" vType="default_016" speedFactor="1.02" vaporized="">
        <emissions CO_abs="5770.440149" CO2_abs="424423.107616" HC_abs="36.100738" PMx_abs="6.788811" NOx_abs="167.308486" fuel_abs="182.441934" electricity_abs="0"/>
    </tripinfo>
    <tripinfo id="h3864c1:3" depart="57678.00" departLane="24693977#1_1" departPos="5.10" departSpeed="0.00" departDelay="0.00" arrival="57830.00" arrivalLane="201956820_1" arrivalPos="48.33" arrivalSpeed="14.57" duration="152.00" routeLength="1574.85" waitingTime="6.00" waitingCount="2" stopTime="0.00" timeLoss="37.49" rerouteNo="1" devices="tripinfo_h3864c1:3 routing_h3864c1:3 emissions_h3864c1:3" vType="default_016" speedFactor="1.13" vaporized="">
        <emissions CO_abs="6805.981711" CO2_abs="439434.017476" HC_abs="41.289510" PMx_abs="7.906518" NOx_abs="180.039143" fuel_abs="188.893754" electricity_abs="0"/>
    </tripinfo>
    <tripinfo id="carIn102915:1" depart="57643.00" departLane="128361102#0_1" departPos="5.10" departSpeed="0.00" departDelay="0.40" arrival="57831.00" arrivalLane="201956811#0_1" arrivalPos="40.40" arrivalSpeed="13.55" duration="188.00" routeLength="2067.33" waitingTime="8.00" waitingCount="2" stopTime="0.00" timeLoss="40.15" rerouteNo="1" devices="tripinfo_carIn102915:1 routing_carIn102915:1 emissions_carIn102915:1" vType="default_016" speedFactor="1.02" vaporized="">
        <emissions CO_abs="6635.171819" CO2_abs="477517.423391" HC_abs="41.352694" PMx_abs="8.089219" NOx_abs="191.324533" fuel_abs="205.264399" electricity_abs="0"/>
    </tripinfo>
    <tripinfo id="h5216c1:1" depart="57664.00" departLane="224892339#0_1" departPos="5.10" departSpeed="0.00" departDelay="0.00" arrival="57831.00" arrivalLane="386687235_2" arrivalPos="80.84" arrivalSpeed="15.16" duration="167.00" routeLength="1823.78" waitingTime="19.00" waitingCount="2" stopTime="0.00" timeLoss="51.72" rerouteNo="1" devices="tripinfo_h5216c1:1 routing_h5216c1:1 emissions_h5216c1:1" vType="default_016" speedFactor="1.11" vaporized="">
        <emissions CO_abs="7715.268191" CO2_abs="495111.385802" HC_abs="46.807208" PMx_abs="9.054882" NOx_abs="202.008452" fuel_abs="212.827063" electricity_abs="0"/>
    </tripinfo>
    <tripinfo id="carIn48184:1" depart="57613.00" departLane="-306240162#1_0" departPos="5.10" departSpeed="0.00" departDelay="0.70" arrival="57832.00" arrivalLane="386687235_1" arrivalPos="80.84" arrivalSpeed="13.52" duration="219.00" routeLength="2257.41" waitingTime="52.00" waitingCount="2" stopTime="0.00" timeLoss="75.52" rerouteNo="1" devices="tripinfo_carIn48184:1 routing_carIn48184:1 emissions_carIn48184:1" vType="default_016" speedFactor="1.04" vaporized="">
        <emissions CO_abs="13240.762591" CO2_abs="598977.716565" HC_abs="74.408240" PMx_abs="11.365531" NOx_abs="245.557045" fuel_abs="257.477597" electricity_abs="0"/>
    </tripinfo>
    <tripinfo id="randUni33724:1" depart="57646.00" departLane="128361102#0_1" departPos="5.10" departSpeed="0.00" departDelay="1.20" arrival="57834.00" arrivalLane="201956811#0_1" arrivalPos="40.40" arrivalSpeed="13.86" duration="188.00" routeLength="2067.33" waitingTime="6.00" waitingCount="2" stopTime="0.00" timeLoss="43.81" rerouteNo="1" devices="tripinfo_randUni33724:1 routing_randUni33724:1 emissions_randUni33724:1" vType="random_016" speedFactor="1.05" vaporized="">
        <emissions CO_abs="7262.578380" CO2_abs="516971.705490" HC_abs="45.219402" PMx_abs="9.040096" NOx_abs="209.171311" fuel_abs="222.223736" electricity_abs="0"/>
    </tripinfo>
    <tripinfo id="h9953c2:3" depart="57682.00" departLane="-54169231#2_1" departPos="5.10" departSpeed="0.00" departDelay="0.00" arrival="57836.00" arrivalLane="386687235_2" arrivalPos="80.84" arrivalSpeed="15.88" duration="154.00" routeLength="1535.60" waitingTime="20.00" waitingCount="2" stopTime="0.00" timeLoss="47.36" rerouteNo="1" devices="tripinfo_h9953c2:3 routing_h9953c2:3 emissions_h9953c2:3" vType="default_016" speedFactor="1.18" vaporized="">
        <emissions CO_abs="7688.875289" CO2_abs="430342.859031" HC_abs="45.022025" PMx_abs="7.853603" NOx_abs="176.585388" fuel_abs="184.986596" electricity_abs="0"/>
    </tripinfo>
    <tripinfo id="randUni15030:1" depart="57735.00" departLane="386687232#0_1" departPos="5.10" departSpeed="0.00" departDelay="0.10" arrival="57836.00" arrivalLane="26677539_1" arrivalPos="151.98" arrivalSpeed="7.67" duration="101.00" routeLength="919.89" waitingTime="6.00" waitingCount="1" stopTime="0.00" timeLoss="20.89" rerouteNo="1" devices="tripinfo_randUni15030:1 routing_randUni15030:1 emissions_randUni15030:1" vType="random_016" speedFactor="1.04" vaporized="">
        <emissions CO_abs="3985.914815" CO2_abs="225313.417977" HC_abs="23.399417" PMx_abs="3.892461" NOx_abs="91.840869" fuel_abs="96.853149" electricity_abs="0"/>
    </tripinfo>
    <tripinfo id="50R_frequency3.17" depart="57674.00" departLane="-18809673#6_1" departPos="12.10" departSpeed="0.00" departDelay="0.70" arrival="57838.00" arrivalLane="201956811#0_1" arrivalPos="40.40" arrivalSpeed="11.96" duration="164.00" routeLength="1954.47" waitingTime="0.00" waitingCount="0" stopTime="0.00" timeLoss="19.20" rerouteNo="1" devices="tripinfo_50R_frequency3.17 routing_50R_frequency3.17 emissions_50R_frequency3.17" vType="bus" speedFactor="1.00" vaporized="">
        <emissions CO_abs="3201.497018" CO2_abs="2038279.880569" HC_abs="681.080134" PMx_abs="344.449650" NOx_abs="15717.976876" fuel_abs="869.323020" electricity_abs="0"/>
    </tripinfo>
    <tripinfo id="carIn107282:1" depart="57749.00" departLane="-447569998#1_1" departPos="5.10" departSpeed="0.00" departDelay="0.00" arrival="57838.00" arrivalLane="315358242#0_1" arrivalPos="165.37" arrivalSpeed="11.17" duration="89.00" routeLength="448.50" waitingTime="34.00" waitingCount="1" stopTime="0.00" timeLoss="41.90" rerouteNo="1" devices="tripinfo_carIn107282:1 routing_carIn107282:1 emissions_carIn107282:1" vType="default_016" speedFactor="0.89" vaporized="">
        <emissions CO_abs="6924.907136" CO2_abs="188973.133332" HC_abs="35.942023" PMx_abs="3.842957" NOx_abs="81.107446" fuel_abs="81.234074" electricity_abs="0"/>
    </tripinfo>
    <tripinfo id="randUni31145:1" depart="57814.00" departLane="10425609#0_1" departPos="5.10" departSpeed="0.00" departDelay="0.30" arrival="57841.00" arrivalLane="201956810_1" arrivalPos="71.65" arrivalSpeed="11.92" duration="27.00" routeLength="255.78" waitingTime="0.00" waitingCount="0" stopTime="0.00" timeLoss="5.21" rerouteNo="1" devices="tripinfo_randUni31145:1 routing_randUni31145:1 emissions_randUni31145:1" vType="random_016" speedFactor="0.94" vaporized="">
        <emissions CO_abs="1458.158583" CO2_abs="82969.196347" HC_abs="8.593750" PMx_abs="1.527342" NOx_abs="34.544931" fuel_abs="35.664947" electricity_abs="0"/>