<?xml version="1.0" encoding="UTF-8"?>

<!-- generated on Thu Nov  4 13:35:44 2021 by Eclipse SUMO sumo Version 1.9.0
<configuration xmlns:xsi="http://www.w3.org/2001/XMLSchema-instance" xsi:noNamespaceSchemaLocation="http://sumo.dlr.de/xsd/sumoConfiguration.xsd">

    <input>
        <net-file value="/mainfs/home/bk2g18/RESCO/environments/ingolstadt21/ingolstadt21.net.xml"/>
        <route-files value="/mainfs/home/bk2g18/RESCO/environments/ingolstadt21/ingolstadt21.rou.xml"/>
    </input>

    <output>
        <tripinfo-output value="/mainfs/home/bk2g18/RESCO/logs/MPLight-tr0-ingolstadt21-21-mplight-pressure/tripinfo_41.xml"/>
        <tripinfo-output.write-unfinished value="true"/>
    </output>

    <time>
        <begin value="57600"/>
        <end value="61200"/>
    </time>

    <processing>
        <time-to-teleport value="-1"/>
    </processing>

    <report>
        <xml-validation value="never"/>
        <xml-validation.routes value="never"/>
        <no-warnings value="true"/>
        <no-step-log value="true"/>
    </report>

    <emissions>
        <device.emissions.probability value="1"/>
    </emissions>

    <traci_server>
        <remote-port value="46111"/>
    </traci_server>

    <random_number>
        <random value="true"/>
    </random_number>

</configuration>
-->

<tripinfos xmlns:xsi="http://www.w3.org/2001/XMLSchema-instance" xsi:noNamespaceSchemaLocation="http://sumo.dlr.de/xsd/tripinfo_file.xsd">
    <tripinfo id="h15454c2:3" depart="57612.00" departLane="24608844_1" departPos="5.10" departSpeed="0.00" departDelay="0.50" arrival="57664.00" arrivalLane="32978638#0_1" arrivalPos="49.29" arrivalSpeed="10.72" duration="52.00" routeLength="354.79" waitingTime="1.00" waitingCount="1" stopTime="0.00" timeLoss="11.21" rerouteNo="1" devices="tripinfo_h15454c2:3 routing_h15454c2:3 emissions_h15454c2:3" vType="default_016" speedFactor="0.85" vaporized="">
        <emissions CO_abs="2270.959696" CO2_abs="101709.539865" HC_abs="12.684939" PMx_abs="1.702058" NOx_abs="41.486915" fuel_abs="43.721277" electricity_abs="0"/>
    </tripinfo>
    <tripinfo id="carIn60260:1" depart="57606.00" departLane="315358254#0_1" departPos="5.10" departSpeed="0.00" departDelay="0.90" arrival="57688.00" arrivalLane="399835085#1_1" arrivalPos="212.23" arrivalSpeed="5.10" duration="82.00" routeLength="430.98" waitingTime="8.00" waitingCount="1" stopTime="0.00" timeLoss="20.88" rerouteNo="1" devices="tripinfo_carIn60260:1 routing_carIn60260:1 emissions_carIn60260:1" vType="default_016" speedFactor="0.75" vaporized="">
        <emissions CO_abs="3949.902648" CO2_abs="135042.469274" HC_abs="21.090937" PMx_abs="2.390354" NOx_abs="56.183274" fuel_abs="58.050479" electricity_abs="0"/>
    </tripinfo>
    <tripinfo id="carIn53971:1" depart="57640.00" departLane="272042143_1" departPos="5.10" departSpeed="0.00" departDelay="0.80" arrival="57696.00" arrivalLane="24634414#1_1" arrivalPos="162.19" arrivalSpeed="7.32" duration="56.00" routeLength="493.04" waitingTime="0.00" waitingCount="0" stopTime="0.00" timeLoss="8.47" rerouteNo="1" devices="tripinfo_carIn53971:1 routing_carIn53971:1 emissions_carIn53971:1" vType="default_016" speedFactor="0.98" vaporized="">
        <emissions CO_abs="2409.854936" CO2_abs="133792.360688" HC_abs="14.089349" PMx_abs="2.291114" NOx_abs="54.592824" fuel_abs="57.511988" electricity_abs="0"/>
    </tripinfo>
    <tripinfo id="h7800c1:5" depart="57696.00" departLane="-447569998#1_1" departPos="5.10" departSpeed="0.00" departDelay="0.00" arrival="57723.00" arrivalLane="-447569998#1_1" arrivalPos="180.76" arrivalSpeed="6.96" duration="27.00" routeLength="175.66" waitingTime="0.00" waitingCount="0" stopTime="0.00" timeLoss="3.30" rerouteNo="1" devices="tripinfo_h7800c1:5 routing_h7800c1:5 emissions_h7800c1:5" vType="default_016" speedFactor="0.92" vaporized="">
        <emissions CO_abs="1101.439310" CO2_abs="44920.182829" HC_abs="6.046456" PMx_abs="0.753826" NOx_abs="18.444168" fuel_abs="19.309642" electricity_abs="0"/>
    </tripinfo>
    <tripinfo id="h12244c1:3" depart="57612.00" departLane="315358244_1" departPos="5.10" departSpeed="0.00" departDelay="0.40" arrival="57737.00" arrivalLane="386687235_1" arrivalPos="80.84" arrivalSpeed="12.64" duration="125.00" routeLength="1186.14" waitingTime="18.00" waitingCount="2" stopTime="0.00" timeLoss="38.93" rerouteNo="1" devices="tripinfo_h12244c1:3 routing_h12244c1:3 emissions_h12244c1:3" vType="default_016" speedFactor="1.00" vaporized="">
        <emissions CO_abs="5528.743611" CO2_abs="308324.723846" HC_abs="32.346399" PMx_abs="5.242946" NOx_abs="123.925894" fuel_abs="132.536675" electricity_abs="0"/>
    </tripinfo>
    <tripinfo id="h4538c1:1" depart="57701.00" departLane="-10427692#1_1" departPos="5.10" departSpeed="0.00" departDelay="0.00" arrival="57741.00" arrivalLane="-128361102#1_1" arrivalPos="274.68" arrivalSpeed="11.78" duration="40.00" routeLength="440.74" waitingTime="0.00" waitingCount="0" stopTime="0.00" timeLoss="6.41" rerouteNo="1" devices="tripinfo_h4538c1:1 routing_h4538c1:1 emissions_h4538c1:1" vType="default_016" speedFactor="0.94" vaporized="">
        <emissions CO_abs="1609.201032" CO2_abs="107528.577011" HC_abs="9.844246" PMx_abs="1.826661" NOx_abs="43.438107" fuel_abs="46.222015" electricity_abs="0"/>
    </tripinfo>
    <tripinfo id="h3688c1:1" depart="57625.00" departLane="201201950#1_1" departPos="5.10" departSpeed="0.00" departDelay="0.00" arrival="57744.00" arrivalLane="32978638#0_1" arrivalPos="49.29" arrivalSpeed="14.71" duration="119.00" routeLength="1089.75" waitingTime="25.00" waitingCount="2" stopTime="0.00" timeLoss="44.89" rerouteNo="1" devices="tripinfo_h3688c1:1 routing_h3688c1:1 emissions_h3688c1:1" vType="default_016" speedFactor="1.08" vaporized="">
        <emissions CO_abs="7432.805488" CO2_abs="332685.287433" HC_abs="41.582393" PMx_abs="6.436125" NOx_abs="139.070023" fuel_abs="143.008337" electricity_abs="0"/>
    </tripinfo>
    <tripinfo id="h3568c1:3" depart="57656.00" departLane="266565295#5_1" departPos="5.10" departSpeed="0.00" departDelay="0.80" arrival="57744.00" arrivalLane="-24634415_1" arrivalPos="62.03" arrivalSpeed="13.68" duration="88.00" routeLength="807.40" waitingTime="10.00" waitingCount="1" stopTime="0.00" timeLoss="26.54" rerouteNo="1" devices="tripinfo_h3568c1:3 routing_h3568c1:3 emissions_h3568c1:3" vType="default_016" speedFactor="1.05" vaporized="">
        <emissions CO_abs="4866.593466" CO2_abs="254840.271863" HC_abs="28.115974" PMx_abs="4.725554" NOx_abs="105.687995" fuel_abs="109.545387" electricity_abs="0"/>
    </tripinfo>
    <tripinfo id="S5R_frequency1.2" depart="57616.00" departLane="315358250#0_1" departPos="12.10" departSpeed="0.00" departDelay="4.40" arrival="57747.00" arrivalLane="386687235_1" arrivalPos="80.84" arrivalSpeed="13.76" duration="131.00" routeLength="1115.62" waitingTime="11.00" waitingCount="2" stopTime="0.00" timeLoss="49.09" rerouteNo="1" devices="tripinfo_S5R_frequency1.2 routing_S5R_frequency1.2 emissions_S5R_frequency1.2" vType="bus" speedFactor="1.00" vaporized="">
        <emissions CO_abs="2744.819982" CO2_abs="1642524.758415" HC_abs="573.013706" PMx_abs="291.835760" NOx_abs="12967.124646" fuel_abs="700.481750" electricity_abs="0"/>
    </tripinfo>
    <tripinfo id="h7181c1:1" depart="57660.00" departLane="315358254#0_1" departPos="5.10" departSpeed="0.00" departDelay="0.10" arrival="57753.00" arrivalLane="306240162#0_0" arrivalPos="220.43" arrivalSpeed="12.67" duration="93.00" routeLength="932.35" waitingTime="14.00" waitingCount="1" stopTime="0.00" timeLoss="29.35" rerouteNo="1" devices="tripinfo_h7181c1:1 routing_h7181c1:1 emissions_h7181c1:1" vType="default_016" speedFactor="0.81" vaporized="">
        <emissions CO_abs="4792.610922" CO2_abs="240174.090972" HC_abs="27.417746" PMx_abs="4.408470" NOx_abs="98.316085" fuel_abs="103.241343" electricity_abs="0"/>
    </tripinfo>
    <tripinfo id="carIn30817:1" depart="57681.00" departLane="315358244_1" departPos="5.10" departSpeed="0.00" departDelay="0.20" arrival="57754.00" arrivalLane="447569997#1_1" arrivalPos="180.93" arrivalSpeed="6.79" duration="73.00" routeLength="718.04" waitingTime="0.00" waitingCount="0" stopTime="0.00" timeLoss="8.73" rerouteNo="1" devices="tripinfo_carIn30817:1 routing_carIn30817:1 emissions_carIn30817:1" vType="default_016" speedFactor="0.97" vaporized="">
        <emissions CO_abs="2321.844361" CO2_abs="147815.325301" HC_abs="13.990605" PMx_abs="2.311868" NOx_abs="58.412765" fuel_abs="63.539994" electricity_abs="0"/>
    </tripinfo>
    <tripinfo id="h317c2:1" depart="57707.00" departLane="-32978638#0_1" departPos="5.10" departSpeed="0.00" departDelay="0.10" arrival="57758.00" arrivalLane="-266565295#5_1" arrivalPos="172.76" arrivalSpeed="11.06" duration="51.00" routeLength="370.53" waitingTime="11.00" waitingCount="1" stopTime="0.00" timeLoss="18.90" rerouteNo="1" devices="tripinfo_h317c2:1 routing_h317c2:1 emissions_h317c2:1" vType="default_016" speedFactor="0.86" vaporized="">
        <emissions CO_abs="3115.324994" CO2_abs="128250.603702" HC_abs="17.161098" PMx_abs="2.251430" NOx_abs="52.526475" fuel_abs="55.130430" electricity_abs="0"/>
    </tripinfo>
    <tripinfo id="h330c1:1" depart="57736.00" departLane="-32978638#0_1" departPos="5.10" departSpeed="0.00" departDelay="0.20" arrival="57767.00" arrivalLane="-266565295#5_1" arrivalPos="172.76" arrivalSpeed="14.83" duration="31.00" routeLength="370.53" waitingTime="0.00" waitingCount="0" stopTime="0.00" timeLoss="6.17" rerouteNo="1" devices="tripinfo_h330c1:1 routing_h330c1:1 emissions_h330c1:1" vType="default_016" speedFactor="1.11" vaporized="">
        <emissions CO_abs="1689.761147" CO2_abs="115169.796861" HC_abs="10.426228" PMx_abs="2.123336" NOx_abs="47.399488" fuel_abs="49.506391" electricity_abs="0"/>
    </tripinfo>
    <tripinfo id="h3326c1:2" depart="57656.00" departLane="22716069#0_1" departPos="5.10" departSpeed="0.00" departDelay="0.00" arrival="57768.00" arrivalLane="24634517#13_1" arrivalPos="111.62" arrivalSpeed="13.51" duration="112.00" routeLength="1312.81" waitingTime="0.00" waitingCount="0" stopTime="0.00" timeLoss="15.10" rerouteNo="1" devices="tripinfo_h3326c1:2 routing_h3326c1:2 emissions_h3326c1:2" vType="default_016" speedFactor="1.00" vaporized="">
        <emissions CO_abs="3759.017686" CO2_abs="290327.763161" HC_abs="23.881003" PMx_abs="4.787623" NOx_abs="115.607598" fuel_abs="124.799491" electricity_abs="0"/>
    </tripinfo>
    <tripinfo id="h9563c2:5" depart="57631.00" departLane="315358244_1" departPos="5.10" departSpeed="0.00" departDelay="0.70" arrival="57773.00" arrivalLane="386687235_1" arrivalPos="80.84" arrivalSpeed="13.52" duration="142.00" routeLength="1186.14" waitingTime="25.00" waitingCount="3" stopTime="0.00" timeLoss="56.85" rerouteNo="1" devices="tripinfo_h9563c2:5 routing_h9563c2:5 emissions_h9563c2:5" vType="default_016" speedFactor="1.01" vaporized="">
        <emissions CO_abs="7171.599592" CO2_abs="335490.855929" HC_abs="40.489738" PMx_abs="6.057113" NOx_abs="137.452150" fuel_abs="144.214744" electricity_abs="0"/>
    </tripinfo>
    <tripinfo id="carIn27009:1" depart="57673.00" departLane="-447569998#1_1" departPos="5.10" departSpeed="0.00" departDelay="0.50" arrival="57775.00" arrivalLane="-26677539_1" arrivalPos="152.75" arrivalSpeed="6.48" duration="102.00" routeLength="699.63" waitingTime="0.00" waitingCount="0" stopTime="0.00" timeLoss="11.99" rerouteNo="1" devices="tripinfo_carIn27009:1 routing_carIn27009:1 emissions_carIn27009:1" vType="default_015" speedFactor="0.93" vaporized="">
        <emissions CO_abs="3943.479208" CO2_abs="170804.366712" HC_abs="21.839540" PMx_abs="2.628697" NOx_abs="68.543256" fuel_abs="73.423085" electricity_abs="0"/>
    </tripinfo>
    <tripinfo id="h3154c1:1" depart="57658.00" departLane="24634507_1" departPos="5.10" departSpeed="0.00" departDelay="0.00" arrival="57776.00" arrivalLane="-266565295#5_1" arrivalPos="172.76" arrivalSpeed="12.67" duration="118.00" routeLength="1206.22" waitingTime="7.00" waitingCount="1" stopTime="0.00" timeLoss="25.25" rerouteNo="1" devices="tripinfo_h3154c1:1 routing_h3154c1:1 emissions_h3154c1:1" vType="default_016" speedFactor="0.96" vaporized="">
        <emissions CO_abs="4532.686745" CO2_abs="309709.185985" HC_abs="27.882389" PMx_abs="5.214038" NOx_abs="124.527221" fuel_abs="133.130972" electricity_abs="0"/>
    </tripinfo>
    <tripinfo id="carIn121703:1" depart="57647.00" departLane="386687232#0_1" departPos="5.10" departSpeed="0.00" departDelay="0.30" arrival="57784.00" arrivalLane="-315358244_1" arrivalPos="33.95" arrivalSpeed="11.26" duration="137.00" routeLength="1157.39" waitingTime="20.00" waitingCount="3" stopTime="0.00" timeLoss="42.54" rerouteNo="1" devices="tripinfo_carIn121703:1 routing_carIn121703:1 emissions_carIn121703:1" vType="default_016" speedFactor="0.89" vaporized="">
        <emissions CO_abs="5432.019394" CO2_abs="295009.419811" HC_abs="31.587397" PMx_abs="4.913609" NOx_abs="118.681101" fuel_abs="126.813153" electricity_abs="0"/>
    </tripinfo>
    <tripinfo id="carIn107282:1" depart="57749.00" departLane="-447569998#1_1" departPos="5.10" departSpeed="0.00" departDelay="0.00" arrival="57795.00" arrivalLane="315358242#0_1" arrivalPos="165.37" arrivalSpeed="13.91" duration="46.00" routeLength="448.50" waitingTime="0.00" waitingCount="0" stopTime="0.00" timeLoss="4.63" rerouteNo="1" devices="tripinfo_carIn107282:1 routing_carIn107282:1 emissions_carIn107282:1" vType="default_016" speedFactor="1.02" vaporized="">
        <emissions CO_abs="1658.595224" CO2_abs="100471.555742" HC_abs="9.867690" PMx_abs="1.658284" NOx_abs="40.326121" fuel_abs="43.188695" electricity_abs="0"/>
    </tripinfo>
    <tripinfo id="carIn22761:1" depart="57616.00" departLane="-306240162#1_0" departPos="5.10" departSpeed="0.00" departDelay="2.10" arrival="57796.00" arrivalLane="399835085#1_1" arrivalPos="212.23" arrivalSpeed="5.62" duration="180.00" routeLength="1093.26" waitingTime="56.00" waitingCount="2" stopTime="0.00" timeLoss="80.27" rerouteNo="1" devices="tripinfo_carIn22761:1 routing_carIn22761:1 emissions_carIn22761:1" vType="default_016" speedFactor="0.78" vaporized="">
        <emissions CO_abs="13069.100887" CO2_abs="406015.775879" HC_abs="68.945044" PMx_abs="8.053220" NOx_abs="171.940753" fuel_abs="174.533271" electricity_abs="0"/>
    </tripinfo>
    <tripinfo id="carIn129809:1" depart="57729.00" departLane="-447569998#1_1" departPos="5.10" departSpeed="0.00" departDelay="1.00" arrival="57802.00" arrivalLane="-315358244_1" arrivalPos="33.95" arrivalSpeed="16.10" duration="73.00" routeLength="706.49" waitingTime="4.00" waitingCount="1" stopTime="0.00" timeLoss="21.51" rerouteNo="1" devices="tripinfo_carIn129809:1 routing_carIn129809:1 emissions_carIn129809:1" vType="default_015" speedFactor="1.17" vaporized="">
        <emissions CO_abs="3592.790572" CO2_abs="213139.984340" HC_abs="21.358306" PMx_abs="3.880820" NOx_abs="87.516557" fuel_abs="91.619888" electricity_abs="0"/>
    </tripinfo>
    <tripinfo id="h11737c1:1" depart="57665.00" departLane="272042143_1" departPos="5.10" departSpeed="0.00" departDelay="1.50" arrival="57806.00" arrivalLane="-315358254#1_1" arrivalPos="137.16" arrivalSpeed="14.57" duration="141.00" routeLength="1596.88" waitingTime="8.00" waitingCount="2" stopTime="0.00" timeLoss="31.93" rerouteNo="1" devices="tripinfo_h11737c1:1 routing_h11737c1:1 emissions_h11737c1:1" vType="default_016" speedFactor="1.07" vaporized="">
        <emissions CO_abs="5132.210400" CO2_abs="357650.713554" HC_abs="31.694180" PMx_abs="6.150980" NOx_abs="143.561629" fuel_abs="153.738833" electricity_abs="0"/>
    </tripinfo>
    <tripinfo id="carIn126288:1" depart="57674.00" departLane="272042143_1" departPos="5.10" departSpeed="0.00" departDelay="0.00" arrival="57809.00" arrivalLane="-315358254#1_1" arrivalPos="137.16" arrivalSpeed="13.19" duration="135.00" routeLength="1596.88" waitingTime="5.00" waitingCount="1" stopTime="0.00" timeLoss="22.35" rerouteNo="1" devices="tripinfo_carIn126288:1 routing_carIn126288:1 emissions_carIn126288:1" vType="default_016" speedFactor="1.04" vaporized="">
        <emissions CO_abs="4367.525558" CO2_abs="332984.807167" HC_abs="27.672491" PMx_abs="5.465378" NOx_abs="131.807045" fuel_abs="143.136087" electricity_abs="0"/>
    </tripinfo>
    <tripinfo id="carIn118591:1" depart="57689.00" departLane="315358244_1" departPos="5.10" departSpeed="0.00" departDelay="0.20" arrival="57809.00" arrivalLane="386687235_1" arrivalPos="80.84" arrivalSpeed="13.27" duration="120.00" routeLength="1186.14" waitingTime="9.00" waitingCount="2" stopTime="0.00" timeLoss="29.70" rerouteNo="1" devices="tripinfo_carIn118591:1 routing_carIn118591:1 emissions_carIn118591:1" vType="default_016" speedFactor="0.96" vaporized="">
        <emissions CO_abs="4510.838821" CO2_abs="284832.972054" HC_abs="27.181467" PMx_abs="4.742435" NOx_abs="114.074924" fuel_abs="122.438117" electricity_abs="0"/>
    </tripinfo>
    <tripinfo id="h16072c2:3" depart="57663.00" departLane="315358254#0_1" departPos="5.10" departSpeed="0.00" departDelay="2.50" arrival="57813.00" arrivalLane="386687235_1" arrivalPos="80.84" arrivalSpeed="15.04" duration="150.00" routeLength="1611.92" waitingTime="13.00" waitingCount="3" stopTime="0.00" timeLoss="44.87" rerouteNo="1" devices="tripinfo_h16072c2:3 routing_h16072c2:3 emissions_h16072c2:3" vType="default_016" speedFactor="1.12" vaporized="">
        <emissions CO_abs="5446.269324" CO2_abs="390030.829540" HC_abs="33.801570" PMx_abs="6.704264" NOx_abs="155.987285" fuel_abs="167.657585" electricity_abs="0"/>
    </tripinfo>
    <tripinfo id="h5979c1:5" depart="57669.00" departLane="399835085#1_1" departPos="5.10" departSpeed="0.00" departDelay="0.00" arrival="57813.00" arrivalLane="-315358254#1_1" arrivalPos="137.16" arrivalSpeed="12.35" duration="144.00" routeLength="659.33" waitingTime="50.00" waitingCount="2" stopTime="0.00" timeLoss="67.11" rerouteNo="1" devices="tripinfo_h5979c1:5 routing_h5979c1:5 emissions_h5979c1:5" vType="default_016" speedFactor="0.96" vaporized="">
        <emissions CO_abs="11173.878782" CO2_abs="299780.522024" HC_abs="57.815309" PMx_abs="5.841868" NOx_abs="127.359472" fuel_abs="128.867474" electricity_abs="0"/>
    </tripinfo>
    <tripinfo id="h5216c1:1" depart="57664.00" departLane="224892339#0_1" departPos="5.10" departSpeed="0.00" departDelay="0.00" arrival="57814.00" arrivalLane="386687235_2" arrivalPos="80.84" arrivalSpeed="14.27" duration="150.00" routeLength="1823.78" waitingTime="0.00" waitingCount="0" stopTime="0.00" timeLoss="26.33" rerouteNo="1" devices="tripinfo_h5216c1:1 routing_h5216c1:1 emissions_h5216c1:1" vType="default_016" speedFactor="1.03" vaporized="">
        <emissions CO_abs="6049.278253" CO2_abs="436605.381481" HC_abs="37.851546" PMx_abs="7.785319" NOx_abs="177.158281" fuel_abs="187.677484" electricity_abs="0"/>
    </tripinfo>
    <tripinfo id="h9953c2:3" depart="57682.00" departLane="-54169231#2_1" departPos="5.10" departSpeed="0.00" departDelay="0.00" arrival="57815.00" arrivalLane="386687235_1" arrivalPos="80.84" arrivalSpeed="15.78" duration="133.00" routeLength="1535.60" waitingTime="0.00" waitingCount="0" stopTime="0.00" timeLoss="22.30" rerouteNo="1" devices="tripinfo_h9953c2:3 routing_h9953c2:3 emissions_h9953c2:3" vType="default_016" speedFactor="1.14" vaporized="">
        <emissions CO_abs="5958.362128" CO2_abs="412163.764763" HC_abs="36.791699" PMx_abs="7.407804" NOx_abs="168.338724" fuel_abs="177.171142" electricity_abs="0"/>
    </tripinfo>
    <tripinfo id="carIn46110:1" depart="57684.00" departLane="315358244_1" departPos="5.10" departSpeed="0.00" departDelay="1.20" arrival="57824.00" arrivalLane="32978638#0_1" arrivalPos="49.29" arrivalSpeed="13.96" duration="140.00" routeLength="1764.04" waitingTime="0.00" waitingCount="0" stopTime="0.00" timeLoss="14.40" rerouteNo="1" devices="tripinfo_carIn46110:1 routing_carIn46110:1 emissions_carIn46110:1" vType="default_016" speedFactor="1.02" vaporized="">
        <emissions CO_abs="3727.661368" CO2_abs="337036.187363" HC_abs="24.804234" PMx_abs="5.304323" NOx_abs="131.365611" fuel_abs="144.877412" electricity_abs="0"/>
    </tripinfo>
    <tripinfo id="carIn12152:1" depart="57647.00" departLane="24599188#0.94_1" departPos="5.10" departSpeed="0.00" departDelay="0.50" arrival="57825.00" arrivalLane="-315358254#1_1" arrivalPos="137.16" arrivalSpeed="15.57" duration="178.00" routeLength="2034.31" waitingTime="17.00" waitingCount="1" stopTime="0.00" timeLoss="40.39" rerouteNo="1" devices="tripinfo_carIn12152:1 routing_carIn12152:1 emissions_carIn12152:1" vType="default_016" speedFactor="1.15" vaporized="">
        <emissions CO_abs="7487.152126" CO2_abs="479146.654597" HC_abs="45.141136" PMx_abs="8.307152" NOx_abs="191.973323" fuel_abs="205.965254" electricity_abs="0"/>
    </tripinfo>
    <tripinfo id="h8343c1:5" depart="57679.00" departLane="315358254#0_1" departPos="5.10" departSpeed="0.00" departDelay="0.60" arrival="57825.00" arrivalLane="-24634510#5_1" arrivalPos="236.88" arrivalSpeed="17.10" duration="146.00" routeLength="2056.84" waitingTime="7.00" waitingCount="3" stopTime="0.00" timeLoss="46.35" rerouteNo="1" devices="tripinfo_h8343c1:5 routing_h8343c1:5 emissions_h8343c1:5" vType="default_016" speedFactor="1.25" vaporized="">
        <emissions CO_abs="9376.992256" CO2_abs="613272.979212" HC_abs="57.370692" PMx_abs="12.452063" NOx_abs="256.082017" fuel_abs="263.617809" electricity_abs="0"/>
    </tripinfo>
    <tripinfo id="carIn81860:1" depart="57712.00" departLane="128361102#0_1" departPos="5.10" departSpeed="0.00" departDelay="0.60" arrival="57831.00" arrivalLane="-24634517#17_1" arrivalPos="6.43" arrivalSpeed="8.08" duration="119.00" routeLength="1229.64" waitingTime="4.00" waitingCount="1" stopTime="0.00" timeLoss="26.89" rerouteNo="1" devices="tripinfo_carIn81860:1 routing_carIn81860:1 emissions_carIn81860:1" vType="default_016" speedFactor="0.98" vaporized="">
        <emissions CO_abs="4174.086340" CO2_abs="271576.181058" HC_abs="25.365785" PMx_abs="4.695005" NOx_abs="109.988660" fuel_abs="116.739176" electricity_abs="0"/>
    </tripinfo>
    <tripinfo id="carIn86816:1" depart="57617.00" departLane="128361102#0_1" departPos="5.10" departSpeed="0.00" departDelay="0.80" arrival="57832.00" arrivalLane="201956811#0_1" arrivalPos="40.40" arrivalSpeed="11.84" duration="215.00" routeLength="2067.33" waitingTime="22.00" waitingCount="1" stopTime="0.00" timeLoss="48.91" rerouteNo="1" devices="tripinfo_carIn86816:1 routing_carIn86816:1 emissions_carIn86816:1" vType="default_016" speedFactor="0.91" vaporized="">
        <emissions CO_abs="8831.475281" CO2_abs="473256.814979" HC_abs="51.238965" PMx_abs="8.032923" NOx_abs="190.948259" fuel_abs="203.434736" electricity_abs="0"/>
    </tripinfo>
    <tripinfo id="carIn12365:1" depart="57713.00" departLane="315358244_1" departPos="5.10" departSpeed="0.00" departDelay="0.50" arrival="57835.00" arrivalLane="447569997#1_1" arrivalPos="180.93" arrivalSpeed="7.58" duration="122.00" routeLength="718.04" waitingTime="42.00" waitingCount="3" stopTime="0.00" timeLoss="61.26" rerouteNo="1" devices="tripinfo_carIn12365:1 routing_carIn12365:1 emissions_carIn12365:1" vType="default_016" speedFactor="1.01" vaporized="">
        <emissions CO_abs="8330.850997" CO2_abs="276637.744892" HC_abs="44.382114" PMx_abs="5.253486" NOx_abs="115.724152" fuel_abs="118.917636" electricity_abs="0"/>
    </tripinfo>
    <tripinfo id="carIn50326:1" depart="57651.00" departLane="128361102#0_1" departPos="5.10" departSpeed="0.00" departDelay="0.30" arrival="57838.00" arrivalLane="18809673#0_1" arrivalPos="473.56" arrivalSpeed="15.74" duration="187.00" routeLength="1591.07" waitingTime="48.00" waitingCount="2" stopTime="0.00" timeLoss="72.19" rerouteNo="1" devices="tripinfo_carIn50326:1 routing_carIn50326:1 emissions_carIn50326:1" vType="default_016" speedFactor="1.14" vaporized="">
        <emissions CO_abs="11555.135362" CO2_abs="482414.959440" HC_abs="63.871890" PMx_abs="9.100689" NOx_abs="199.650772" fuel_abs="207.372332" electricity_abs="0"/>
    </tripinfo>
    <tripinfo id="randUni15030:1" depart="57735.00" departLane="386687232#0_1" departPos="5.10" departSpeed="0.00" departDelay="0.10" arrival="57844.00" arrivalLane="26677539_1" arrivalPos="151.98" arrivalSpeed="7.07" duration="109.00" routeLength="919.89" waitingTime="5.00" waitingCount="1" stopTime="0.00" timeLoss="20.36" rerouteNo="1" devices="tripinfo_randUni15030:1 routing_randUni15030:1 emissions_randUni15030:1" vType="random_016" speedFactor="0.94" vaporized="">
        <emissions CO_abs="3663.045650" CO2_abs="203095.780618" HC_abs="21.384517" PMx_abs="3.339645" NOx_abs="81.879866" fuel_abs="87.302983" electricity_abs="0"/>
    </tripinfo>
    <tripinfo id="carIn80064:1" depart="57603.00" departLane="128361109#1_1" departPos="5.10" departSpeed="0.00" departDelay="0.40" arrival="57848.00" arrivalLane="-315358254#1_1" arrivalPos="137.16" arrivalSpeed="14.80" duration="245.00" routeLength="1587.97" waitingTime="128.00" waitingCount="2" stopTime="0.00" timeLoss="162.19" rerouteNo="1" devices="tripinfo_carIn80064:1 routing_carIn80064:1 emissions_carIn80064:1" vType="default_016" speedFactor="1.09" vaporized="">
        <emissions CO_abs="27661.420776" CO2_abs="816886.009959" HC_abs="145.414319" PMx_abs="18.081283" NOx_abs="354.616160" fuel_abs="351.151998" electricity_abs="0"/>
    </tripinfo>
    <tripinfo id="carIn28951:1" depart="57606.00" departLane="10425609#0_1" departPos="5.10" departSpeed="0.00" departDelay="0.20" arrival="57853.00" arrivalLane="-128361102#1_1" arrivalPos="274.68" arrivalSpeed="11.25" duration="247.00" routeLength="2095.01" waitingTime="28.00" waitingCount="1" stopTime="0.00" timeLoss="57.86" rerouteNo="1" devices="tripinfo_carIn28951:1 routing_carIn28951:1 emissions_carIn28951:1" vType="default_016" speedFactor="0.82" vaporized="">
        <emissions CO_abs="10514.366462" CO2_abs="508104.593625" HC_abs="59.631809" PMx_abs="8.440451" NOx_abs="204.807257" fuel_abs="218.415505" electricity_abs="0"/>
    </tripinfo>
    <tripinfo id="carIn48184:1" depart="57613.00" departLane="-306240162#1_0" departPos="5.10" departSpeed="0.00" departDelay="0.70" arrival="57853.00" arrivalLane="386687235_1" arrivalPos="80.84" arrivalSpeed="14.10" duration="240.00" routeLength="2257.41" waitingTime="65.00" waitingCount="2" stopTime="0.00" timeLoss="97.51" rerouteNo="1" devices="tripinfo_carIn48184:1 routing_carIn48184:1 emissions_carIn48184:1" vType="default_016" speedFactor="1.04" vaporized="">
        <emissions CO_abs="15796.987750" CO2_abs="674864.216777" HC_abs="87.751975" PMx_abs="12.972286" NOx_abs="279.232084" fuel_abs="290.098628" electricity_abs="0"/>
    </tripinfo>
    <tripinfo id="carIn126378:1" depart="57746.00" departLane="386687232#0_1" departPos="5.10" departSpeed="0.00" departDelay="1.80" arrival="57853.00" arrivalLane="-315358244_2" arrivalPos="33.95" arrivalSpeed="14.93" duration="107.00" routeLength="1157.39" waitingTime="6.00" waitingCount="1" stopTime="0.00" timeLoss="30.43" rerouteNo="1" devices="tripinfo_carIn126378:1 routing_carIn126378:1 emissions_carIn126378:1" vType="default_016" speedFactor="1.10" vaporized="">
        <emissions CO_abs="4864.987840" CO2_abs="321749.524521" HC_abs="29.708187" PMx_abs="5.752302" NOx_abs="131.186776" fuel_abs="138.306259" electricity_abs="0"/>
    </tripinfo>
    <tripinfo id="carIn8642:1" depart="57774.00" departLane="-447569998#1_1" departPos="5.10" departSpeed="0.00" departDelay="0.90" arrival="57853.00" arrivalLane="-315358244_1" arrivalPos="33.95" arrivalSpeed="13.53" duration="79.00" routeLength="706.49" waitingTime="6.00" waitingCount="1" stopTime="0.00" timeLoss="17.37" rerouteNo="1" devices="tripinfo_carIn8642:1 routing_carIn8642:1 emissions_carIn8642:1" vType="default_016" speedFactor="0.98" vaporized="">
        <emissions CO_abs="2962.175198" CO2_abs="178652.769117" HC_abs="17.649853" PMx_abs="3.018119" NOx_abs="72.092071" fuel_abs="76.795583" electricity_abs="0"/>
    </tripinfo>
    <tripinfo id="h20540c1:1" depart="57634.00" departLane="10425609#0_1" departPos="5.10" departSpeed="0.00" departDelay="0.50" arrival="57854.00" arrivalLane="-128361102#1_1" arrivalPos="274.68" arrivalSpeed="12.97" duration="220.00" routeLength="2095.01" waitingTime="28.00" waitingCount="1" stopTime="0.00" timeLoss="87.14" rerouteNo="1" devices="tripinfo_h20540c1:1 routing_h20540c1:1 emissions_h20540c1:1" vType="default_016" speedFactor="1.16" vaporized="">
        <emissions CO_abs="11700.142386" CO2_abs="602176.040368" HC_abs="67.361038" PMx_abs="11.098451" NOx_abs="248.772648" fuel_abs="258.851130" electricity_abs="0"/>
    </tripinfo>
    <tripinfo id="h645c1:1" depart="57622.00" departLane="266565295#5_1" departPos="5.10" departSpeed="0.00" departDelay="0.40" arrival="57855.00" arrivalLane="-315358244_1" arrivalPos="33.95" arrivalSpeed="12.70" duration="233.00" routeLength="1910.83" waitingTime="62.00" waitingCount="3" stopTime="0.00" timeLoss="91.56" rerouteNo="1" devices="tripinfo_h645c1:1 routing_h645c1:1 emissions_h645c1:1" vType="default_016" speedFactor="0.98" vaporized="">
        <emissions CO_abs="13981.964544" CO2_abs="561683.544578" HC_abs="76.767667" PMx_abs="10.235441" NOx_abs="230.393277" fuel_abs="241.447954" electricity_abs="0"/>
    </tripinfo>
    <tripinfo id="carIn107084:1" depart="57601.00" departLane="124812856#0_1" departPos="5.10" departSpeed="0.00" departDelay="0.70" arrival="57856.00" arrivalLane="-128361102#1_1" arrivalPos="274.68" arrivalSpeed="15.59" duration="255.00" routeLength="2250.49" waitingTime="53.00" waitingCount="3" stopTime="0.00" timeLoss="108.91" rerouteNo="1" devices="tripinfo_carIn107084:1 routing_carIn107084:1 emissions_carIn107084:1" vType="default_016" speedFactor="1.12" vaporized="">
        <emissions CO_abs="14099.440553" CO2_abs="678051.915146" HC_abs="80.116097" PMx_abs="12.825691" NOx_abs="281.889136" fuel_abs="291.467430" electricity_abs="0"/>
    </tripinfo>