<?xml version="1.0" encoding="UTF-8"?>

<!-- generated on Thu Nov  4 13:30:09 2021 by Eclipse SUMO sumo Version 1.9.0
<configuration xmlns:xsi="http://www.w3.org/2001/XMLSchema-instance" xsi:noNamespaceSchemaLocation="http://sumo.dlr.de/xsd/sumoConfiguration.xsd">

    <input>
        <net-file value="/mainfs/home/bk2g18/RESCO/environments/ingolstadt21/ingolstadt21.net.xml"/>
        <route-files value="/mainfs/home/bk2g18/RESCO/environments/ingolstadt21/ingolstadt21.rou.xml"/>
    </input>

    <output>
        <tripinfo-output value="/mainfs/home/bk2g18/RESCO/logs/MPLight-tr0-ingolstadt21-21-mplight-pressure/tripinfo_31.xml"/>
        <tripinfo-output.write-unfinished value="true"/>
    </output>

    <time>
        <begin value="57600"/>
        <end value="61200"/>
    </time>

    <processing>
        <time-to-teleport value="-1"/>
    </processing>

    <report>
        <xml-validation value="never"/>
        <xml-validation.routes value="never"/>
        <no-warnings value="true"/>
        <no-step-log value="true"/>
    </report>

    <emissions>
        <device.emissions.probability value="1"/>
    </emissions>

    <traci_server>
        <remote-port value="38844"/>
    </traci_server>

    <random_number>
        <random value="true"/>
    </random_number>

</configuration>
-->

<tripinfos xmlns:xsi="http://www.w3.org/2001/XMLSchema-instance" xsi:noNamespaceSchemaLocation="http://sumo.dlr.de/xsd/tripinfo_file.xsd">
    <tripinfo id="h15454c2:3" depart="57612.00" departLane="24608844_1" departPos="5.10" departSpeed="0.00" departDelay="0.50" arrival="57654.00" arrivalLane="32978638#0_1" arrivalPos="49.29" arrivalSpeed="12.72" duration="42.00" routeLength="354.79" waitingTime="0.00" waitingCount="0" stopTime="0.00" timeLoss="5.92" rerouteNo="1" devices="tripinfo_h15454c2:3 routing_h15454c2:3 emissions_h15454c2:3" vType="default_016" speedFactor="0.95" vaporized="">
        <emissions CO_abs="2239.237886" CO2_abs="120660.031200" HC_abs="12.999277" PMx_abs="2.044884" NOx_abs="49.174080" fuel_abs="51.867005" electricity_abs="0"/>
    </tripinfo>
    <tripinfo id="carIn60260:1" depart="57606.00" departLane="315358254#0_1" departPos="5.10" departSpeed="0.00" departDelay="0.90" arrival="57658.00" arrivalLane="399835085#1_1" arrivalPos="212.23" arrivalSpeed="9.32" duration="52.00" routeLength="430.98" waitingTime="1.00" waitingCount="1" stopTime="0.00" timeLoss="11.49" rerouteNo="1" devices="tripinfo_carIn60260:1 routing_carIn60260:1 emissions_carIn60260:1" vType="default_016" speedFactor="1.15" vaporized="">
        <emissions CO_abs="2485.618254" CO2_abs="130629.325570" HC_abs="14.371207" PMx_abs="2.319422" NOx_abs="53.921956" fuel_abs="56.152304" electricity_abs="0"/>
    </tripinfo>
    <tripinfo id="carIn53971:1" depart="57640.00" departLane="272042143_1" departPos="5.10" departSpeed="0.00" departDelay="0.80" arrival="57687.00" arrivalLane="24634414#1_1" arrivalPos="162.19" arrivalSpeed="10.12" duration="47.00" routeLength="493.04" waitingTime="0.00" waitingCount="0" stopTime="0.00" timeLoss="10.26" rerouteNo="1" devices="tripinfo_carIn53971:1 routing_carIn53971:1 emissions_carIn53971:1" vType="default_016" speedFactor="1.26" vaporized="">
        <emissions CO_abs="2625.212698" CO2_abs="166562.933498" HC_abs="15.885520" PMx_abs="3.072998" NOx_abs="68.875408" fuel_abs="71.598141" electricity_abs="0"/>
    </tripinfo>
    <tripinfo id="h7800c1:5" depart="57696.00" departLane="-447569998#1_1" departPos="5.10" departSpeed="0.00" departDelay="0.00" arrival="57717.00" arrivalLane="-447569998#1_1" arrivalPos="180.76" arrivalSpeed="9.77" duration="21.00" routeLength="175.66" waitingTime="0.00" waitingCount="0" stopTime="0.00" timeLoss="2.95" rerouteNo="1" devices="tripinfo_h7800c1:5 routing_h7800c1:5 emissions_h7800c1:5" vType="default_016" speedFactor="1.19" vaporized="">
        <emissions CO_abs="1063.404813" CO2_abs="54758.152038" HC_abs="6.108392" PMx_abs="0.909428" NOx_abs="22.249990" fuel_abs="23.538441" electricity_abs="0"/>
    </tripinfo>
    <tripinfo id="h3688c1:1" depart="57625.00" departLane="201201950#1_1" departPos="5.10" departSpeed="0.00" departDelay="0.00" arrival="57731.00" arrivalLane="32978638#0_1" arrivalPos="49.29" arrivalSpeed="13.76" duration="106.00" routeLength="1089.75" waitingTime="11.00" waitingCount="1" stopTime="0.00" timeLoss="25.00" rerouteNo="1" devices="tripinfo_h3688c1:1 routing_h3688c1:1 emissions_h3688c1:1" vType="default_016" speedFactor="0.99" vaporized="">
        <emissions CO_abs="5007.356048" CO2_abs="290470.021818" HC_abs="29.618387" PMx_abs="5.221763" NOx_abs="118.864833" fuel_abs="124.861008" electricity_abs="0"/>
    </tripinfo>
    <tripinfo id="h3568c1:3" depart="57656.00" departLane="266565295#5_1" departPos="5.10" departSpeed="0.00" departDelay="0.80" arrival="57734.00" arrivalLane="-24634415_1" arrivalPos="62.03" arrivalSpeed="12.99" duration="78.00" routeLength="807.40" waitingTime="0.00" waitingCount="0" stopTime="0.00" timeLoss="11.16" rerouteNo="1" devices="tripinfo_h3568c1:3 routing_h3568c1:3 emissions_h3568c1:3" vType="default_016" speedFactor="0.96" vaporized="">
        <emissions CO_abs="3193.470041" CO2_abs="218101.757661" HC_abs="19.637277" PMx_abs="3.639068" NOx_abs="87.572296" fuel_abs="93.752829" electricity_abs="0"/>
    </tripinfo>
    <tripinfo id="h4538c1:1" depart="57701.00" departLane="-10427692#1_1" departPos="5.10" departSpeed="0.00" departDelay="0.00" arrival="57736.00" arrivalLane="-128361102#1_1" arrivalPos="274.68" arrivalSpeed="13.86" duration="35.00" routeLength="440.74" waitingTime="0.00" waitingCount="0" stopTime="0.00" timeLoss="6.34" rerouteNo="1" devices="tripinfo_h4538c1:1 routing_h4538c1:1 emissions_h4538c1:1" vType="default_016" speedFactor="1.09" vaporized="">
        <emissions CO_abs="1269.016810" CO2_abs="103011.949553" HC_abs="8.041604" PMx_abs="1.652587" NOx_abs="40.248704" fuel_abs="44.280471" electricity_abs="0"/>
    </tripinfo>
    <tripinfo id="h317c2:1" depart="57707.00" departLane="-32978638#0_1" departPos="5.10" departSpeed="0.00" departDelay="0.10" arrival="57744.00" arrivalLane="-266565295#5_1" arrivalPos="172.76" arrivalSpeed="13.45" duration="37.00" routeLength="370.53" waitingTime="1.00" waitingCount="1" stopTime="0.00" timeLoss="11.01" rerouteNo="1" devices="tripinfo_h317c2:1 routing_h317c2:1 emissions_h317c2:1" vType="default_016" speedFactor="1.05" vaporized="">
        <emissions CO_abs="2069.625307" CO2_abs="116935.716917" HC_abs="12.143941" PMx_abs="2.256947" NOx_abs="49.088380" fuel_abs="50.265588" electricity_abs="0"/>
    </tripinfo>
    <tripinfo id="carIn22761:1" depart="57616.00" departLane="-306240162#1_0" departPos="5.10" departSpeed="0.00" departDelay="2.10" arrival="57750.00" arrivalLane="399835085#1_1" arrivalPos="212.23" arrivalSpeed="8.74" duration="134.00" routeLength="1093.26" waitingTime="36.00" waitingCount="2" stopTime="0.00" timeLoss="62.98" rerouteNo="1" devices="tripinfo_carIn22761:1 routing_carIn22761:1 emissions_carIn22761:1" vType="default_016" speedFactor="1.11" vaporized="">
        <emissions CO_abs="10164.896790" CO2_abs="427671.679971" HC_abs="56.515159" PMx_abs="8.923209" NOx_abs="182.502787" fuel_abs="183.838866" electricity_abs="0"/>
    </tripinfo>
    <tripinfo id="h7181c1:1" depart="57660.00" departLane="315358254#0_1" departPos="5.10" departSpeed="0.00" departDelay="0.10" arrival="57751.00" arrivalLane="306240162#0_0" arrivalPos="220.43" arrivalSpeed="15.36" duration="91.00" routeLength="932.35" waitingTime="13.00" waitingCount="2" stopTime="0.00" timeLoss="36.56" rerouteNo="1" devices="tripinfo_h7181c1:1 routing_h7181c1:1 emissions_h7181c1:1" vType="default_016" speedFactor="0.96" vaporized="">
        <emissions CO_abs="5529.862610" CO2_abs="310174.738846" HC_abs="32.496427" PMx_abs="6.129364" NOx_abs="129.819175" fuel_abs="133.330616" electricity_abs="0"/>
    </tripinfo>
    <tripinfo id="carIn80064:1" depart="57603.00" departLane="128361109#1_1" departPos="5.10" departSpeed="0.00" departDelay="0.40" arrival="57762.00" arrivalLane="-315358254#1_1" arrivalPos="137.16" arrivalSpeed="13.23" duration="159.00" routeLength="1587.97" waitingTime="27.00" waitingCount="4" stopTime="0.00" timeLoss="66.68" rerouteNo="1" devices="tripinfo_carIn80064:1 routing_carIn80064:1 emissions_carIn80064:1" vType="default_016" speedFactor="0.97" vaporized="">
        <emissions CO_abs="9038.011156" CO2_abs="515270.305557" HC_abs="53.432581" PMx_abs="9.940384" NOx_abs="212.638537" fuel_abs="221.492693" electricity_abs="0"/>
    </tripinfo>
    <tripinfo id="carIn30817:1" depart="57681.00" departLane="315358244_1" departPos="5.10" departSpeed="0.00" departDelay="0.20" arrival="57764.00" arrivalLane="447569997#1_1" arrivalPos="180.93" arrivalSpeed="7.75" duration="83.00" routeLength="718.04" waitingTime="8.00" waitingCount="1" stopTime="0.00" timeLoss="19.65" rerouteNo="1" devices="tripinfo_carIn30817:1 routing_carIn30817:1 emissions_carIn30817:1" vType="default_016" speedFactor="0.98" vaporized="">
        <emissions CO_abs="3298.583835" CO2_abs="171383.511463" HC_abs="18.968220" PMx_abs="2.827228" NOx_abs="68.650337" fuel_abs="73.671323" electricity_abs="0"/>
    </tripinfo>
    <tripinfo id="S5R_frequency1.2" depart="57624.00" departLane="315358250#0_1" departPos="12.10" departSpeed="0.00" departDelay="12.40" arrival="57769.00" arrivalLane="386687235_1" arrivalPos="80.84" arrivalSpeed="13.88" duration="145.00" routeLength="1115.62" waitingTime="47.00" waitingCount="1" stopTime="0.00" timeLoss="63.76" rerouteNo="1" devices="tripinfo_S5R_frequency1.2 routing_S5R_frequency1.2 emissions_S5R_frequency1.2" vType="bus" speedFactor="1.00" vaporized="">
        <emissions CO_abs="2975.016096" CO2_abs="1524773.560238" HC_abs="657.686071" PMx_abs="311.905626" NOx_abs="12738.299682" fuel_abs="650.196026" electricity_abs="0"/>
    </tripinfo>
    <tripinfo id="h12244c1:3" depart="57612.00" departLane="315358244_1" departPos="5.10" departSpeed="0.00" departDelay="0.40" arrival="57772.00" arrivalLane="386687235_1" arrivalPos="80.84" arrivalSpeed="13.08" duration="160.00" routeLength="1186.14" waitingTime="43.00" waitingCount="2" stopTime="0.00" timeLoss="68.79" rerouteNo="1" devices="tripinfo_h12244c1:3 routing_h12244c1:3 emissions_h12244c1:3" vType="default_016" speedFactor="0.95" vaporized="">
        <emissions CO_abs="11044.996020" CO2_abs="402758.313078" HC_abs="59.708260" PMx_abs="7.712364" NOx_abs="168.768586" fuel_abs="173.131781" electricity_abs="0"/>
    </tripinfo>
    <tripinfo id="h3154c1:1" depart="57658.00" departLane="24634507_1" departPos="5.10" departSpeed="0.00" departDelay="0.00" arrival="57781.00" arrivalLane="-266565295#5_1" arrivalPos="172.76" arrivalSpeed="10.76" duration="123.00" routeLength="1206.22" waitingTime="4.00" waitingCount="1" stopTime="0.00" timeLoss="18.60" rerouteNo="1" devices="tripinfo_h3154c1:1 routing_h3154c1:1 emissions_h3154c1:1" vType="default_016" speedFactor="0.85" vaporized="">
        <emissions CO_abs="3839.381890" CO2_abs="265916.873167" HC_abs="23.622338" PMx_abs="4.066277" NOx_abs="104.603123" fuel_abs="114.307044" electricity_abs="0"/>
    </tripinfo>
    <tripinfo id="carIn27009:1" depart="57673.00" departLane="-447569998#1_1" departPos="5.10" departSpeed="0.00" departDelay="0.50" arrival="57781.00" arrivalLane="-26677539_1" arrivalPos="152.75" arrivalSpeed="6.32" duration="108.00" routeLength="699.63" waitingTime="0.00" waitingCount="0" stopTime="0.00" timeLoss="13.30" rerouteNo="1" devices="tripinfo_carIn27009:1 routing_carIn27009:1 emissions_carIn27009:1" vType="default_015" speedFactor="0.88" vaporized="">
        <emissions CO_abs="4896.148356" CO2_abs="201347.024115" HC_abs="26.881367" PMx_abs="3.193619" NOx_abs="81.493092" fuel_abs="86.552410" electricity_abs="0"/>
    </tripinfo>
    <tripinfo id="carIn121703:1" depart="57647.00" departLane="386687232#0_1" departPos="5.10" departSpeed="0.00" departDelay="0.30" arrival="57783.00" arrivalLane="-315358244_1" arrivalPos="33.95" arrivalSpeed="13.57" duration="136.00" routeLength="1157.39" waitingTime="30.00" waitingCount="3" stopTime="0.00" timeLoss="51.39" rerouteNo="1" devices="tripinfo_carIn121703:1 routing_carIn121703:1 emissions_carIn121703:1" vType="default_016" speedFactor="1.00" vaporized="">
        <emissions CO_abs="7308.702724" CO2_abs="341993.495929" HC_abs="41.206733" PMx_abs="6.124614" NOx_abs="139.620056" fuel_abs="147.010064" electricity_abs="0"/>
    </tripinfo>
    <tripinfo id="h330c1:1" depart="57736.00" departLane="-32978638#0_1" departPos="5.10" departSpeed="0.00" departDelay="0.20" arrival="57783.00" arrivalLane="-266565295#5_1" arrivalPos="172.76" arrivalSpeed="15.37" duration="47.00" routeLength="370.53" waitingTime="13.00" waitingCount="1" stopTime="0.00" timeLoss="23.64" rerouteNo="1" devices="tripinfo_h330c1:1 routing_h330c1:1 emissions_h330c1:1" vType="default_016" speedFactor="1.18" vaporized="">
        <emissions CO_abs="3846.186507" CO2_abs="169800.801079" HC_abs="21.566357" PMx_abs="3.503286" NOx_abs="72.655997" fuel_abs="72.990391" electricity_abs="0"/>
    </tripinfo>
    <tripinfo id="h9563c2:5" depart="57631.00" departLane="315358244_1" departPos="5.10" departSpeed="0.00" departDelay="0.70" arrival="57786.00" arrivalLane="386687235_1" arrivalPos="80.84" arrivalSpeed="14.75" duration="155.00" routeLength="1186.14" waitingTime="47.00" waitingCount="4" stopTime="0.00" timeLoss="78.50" rerouteNo="1" devices="tripinfo_h9563c2:5 routing_h9563c2:5 emissions_h9563c2:5" vType="default_016" speedFactor="1.13" vaporized="">
        <emissions CO_abs="10709.664429" CO2_abs="425851.951227" HC_abs="58.758109" PMx_abs="8.483228" NOx_abs="179.463313" fuel_abs="183.057703" electricity_abs="0"/>
    </tripinfo>
    <tripinfo id="carIn118591:1" depart="57689.00" departLane="315358244_1" departPos="5.10" departSpeed="0.00" departDelay="0.20" arrival="57789.00" arrivalLane="386687235_1" arrivalPos="80.84" arrivalSpeed="15.99" duration="100.00" routeLength="1186.14" waitingTime="14.00" waitingCount="1" stopTime="0.00" timeLoss="25.62" rerouteNo="1" devices="tripinfo_carIn118591:1 routing_carIn118591:1 emissions_carIn118591:1" vType="default_016" speedFactor="1.17" vaporized="">
        <emissions CO_abs="5166.870776" CO2_abs="286204.687450" HC_abs="30.158697" PMx_abs="5.266919" NOx_abs="116.507524" fuel_abs="123.027654" electricity_abs="0"/>
    </tripinfo>
    <tripinfo id="h3326c1:2" depart="57656.00" departLane="22716069#0_1" departPos="5.10" departSpeed="0.00" departDelay="0.00" arrival="57790.00" arrivalLane="24634517#13_1" arrivalPos="111.62" arrivalSpeed="10.14" duration="134.00" routeLength="1312.81" waitingTime="0.00" waitingCount="0" stopTime="0.00" timeLoss="14.39" rerouteNo="1" devices="tripinfo_h3326c1:2 routing_h3326c1:2 emissions_h3326c1:2" vType="default_016" speedFactor="0.81" vaporized="">
        <emissions CO_abs="4380.917410" CO2_abs="294649.654937" HC_abs="26.736263" PMx_abs="4.470801" NOx_abs="115.995954" fuel_abs="126.658248" electricity_abs="0"/>
    </tripinfo>
    <tripinfo id="carIn50326:1" depart="57651.00" departLane="128361102#0_1" departPos="5.10" departSpeed="0.00" departDelay="0.30" arrival="57792.00" arrivalLane="18809673#0_1" arrivalPos="473.56" arrivalSpeed="15.34" duration="141.00" routeLength="1591.07" waitingTime="11.00" waitingCount="1" stopTime="0.00" timeLoss="28.07" rerouteNo="1" devices="tripinfo_carIn50326:1 routing_carIn50326:1 emissions_carIn50326:1" vType="default_016" speedFactor="1.14" vaporized="">
        <emissions CO_abs="6155.122352" CO2_abs="393678.750196" HC_abs="37.198205" PMx_abs="6.935727" NOx_abs="159.152943" fuel_abs="169.225926" electricity_abs="0"/>
    </tripinfo>
    <tripinfo id="carIn129809:1" depart="57729.00" departLane="-447569998#1_1" departPos="5.10" departSpeed="0.00" departDelay="1.00" arrival="57803.00" arrivalLane="-315358244_1" arrivalPos="33.95" arrivalSpeed="12.39" duration="74.00" routeLength="706.49" waitingTime="0.00" waitingCount="0" stopTime="0.00" timeLoss="6.65" rerouteNo="1" devices="tripinfo_carIn129809:1 routing_carIn129809:1 emissions_carIn129809:1" vType="default_015" speedFactor="0.90" vaporized="">
        <emissions CO_abs="2241.113997" CO2_abs="142356.519390" HC_abs="13.484288" PMx_abs="2.172042" NOx_abs="56.024480" fuel_abs="61.193543" electricity_abs="0"/>
    </tripinfo>
    <tripinfo id="h11737c1:1" depart="57665.00" departLane="272042143_1" departPos="5.10" departSpeed="0.00" departDelay="1.50" arrival="57807.00" arrivalLane="-315358254#1_1" arrivalPos="137.16" arrivalSpeed="12.97" duration="142.00" routeLength="1596.88" waitingTime="5.00" waitingCount="1" stopTime="0.00" timeLoss="20.40" rerouteNo="1" devices="tripinfo_h11737c1:1 routing_h11737c1:1 emissions_h11737c1:1" vType="default_016" speedFactor="0.96" vaporized="">
        <emissions CO_abs="4055.935101" CO2_abs="332717.703152" HC_abs="26.212916" PMx_abs="5.207987" NOx_abs="130.404091" fuel_abs="143.021360" electricity_abs="0"/>
    </tripinfo>
    <tripinfo id="carIn12365:1" depart="57713.00" departLane="315358244_1" departPos="5.10" departSpeed="0.00" departDelay="0.50" arrival="57808.00" arrivalLane="447569997#1_1" arrivalPos="180.93" arrivalSpeed="6.12" duration="95.00" routeLength="718.04" waitingTime="6.00" waitingCount="1" stopTime="0.00" timeLoss="17.52" rerouteNo="1" devices="tripinfo_carIn12365:1 routing_carIn12365:1 emissions_carIn12365:1" vType="default_016" speedFactor="0.79" vaporized="">
        <emissions CO_abs="3499.412444" CO2_abs="166308.804727" HC_abs="19.764979" PMx_abs="2.719499" NOx_abs="67.215899" fuel_abs="71.490115" electricity_abs="0"/>
    </tripinfo>
    <tripinfo id="carIn126288:1" depart="57674.00" departLane="272042143_1" departPos="5.10" departSpeed="0.00" departDelay="0.00" arrival="57809.00" arrivalLane="-315358254#1_1" arrivalPos="137.16" arrivalSpeed="14.91" duration="135.00" routeLength="1596.88" waitingTime="4.00" waitingCount="1" stopTime="0.00" timeLoss="27.11" rerouteNo="1" devices="tripinfo_carIn126288:1 routing_carIn126288:1 emissions_carIn126288:1" vType="default_016" speedFactor="1.08" vaporized="">
        <emissions CO_abs="4751.356370" CO2_abs="368470.017475" HC_abs="30.309081" PMx_abs="6.435330" NOx_abs="148.769306" fuel_abs="158.388971" electricity_abs="0"/>
    </tripinfo>
    <tripinfo id="h5979c1:5" depart="57669.00" departLane="399835085#1_1" departPos="5.10" departSpeed="0.00" departDelay="0.00" arrival="57812.00" arrivalLane="-315358254#1_1" arrivalPos="137.16" arrivalSpeed="13.23" duration="143.00" routeLength="659.33" waitingTime="53.00" waitingCount="2" stopTime="0.00" timeLoss="68.81" rerouteNo="1" devices="tripinfo_h5979c1:5 routing_h5979c1:5 emissions_h5979c1:5" vType="default_016" speedFactor="0.98" vaporized="">
        <emissions CO_abs="11545.640113" CO2_abs="297586.282762" HC_abs="59.495333" PMx_abs="6.059253" NOx_abs="127.998715" fuel_abs="127.924233" electricity_abs="0"/>
    </tripinfo>
    <tripinfo id="h17549c1:1" depart="57680.00" departLane="-447569998#1_1" departPos="5.10" departSpeed="0.00" departDelay="0.00" arrival="57816.00" arrivalLane="-315358254#1_1" arrivalPos="137.16" arrivalSpeed="15.14" duration="136.00" routeLength="1743.98" waitingTime="0.00" waitingCount="0" stopTime="0.00" timeLoss="13.04" rerouteNo="1" devices="tripinfo_h17549c1:1 routing_h17549c1:1 emissions_h17549c1:1" vType="default_016" speedFactor="1.11" vaporized="">
        <emissions CO_abs="4465.454163" CO2_abs="391828.843067" HC_abs="29.113715" PMx_abs="6.315608" NOx_abs="153.269095" fuel_abs="168.430287" electricity_abs="0"/>
    </tripinfo>
    <tripinfo id="carIn81860:1" depart="57712.00" departLane="128361102#0_1" departPos="5.10" departSpeed="0.00" departDelay="0.60" arrival="57820.00" arrivalLane="-24634517#17_1" arrivalPos="6.43" arrivalSpeed="7.96" duration="108.00" routeLength="1229.64" waitingTime="0.00" waitingCount="0" stopTime="0.00" timeLoss="17.69" rerouteNo="1" devices="tripinfo_carIn81860:1 routing_carIn81860:1 emissions_carIn81860:1" vType="default_016" speedFactor="1.00" vaporized="">
        <emissions CO_abs="3549.267279" CO2_abs="264653.383951" HC_abs="22.328565" PMx_abs="4.312970" NOx_abs="105.014859" fuel_abs="113.763363" electricity_abs="0"/>
    </tripinfo>
    <tripinfo id="carIn28951:1" depart="57606.00" departLane="10425609#0_1" departPos="5.10" departSpeed="0.00" departDelay="0.20" arrival="57827.00" arrivalLane="-128361102#1_1" arrivalPos="274.68" arrivalSpeed="13.36" duration="221.00" routeLength="2113.04" waitingTime="29.00" waitingCount="3" stopTime="0.00" timeLoss="61.61" rerouteNo="1" devices="tripinfo_carIn28951:1 routing_carIn28951:1 emissions_carIn28951:1" vType="default_016" speedFactor="0.97" vaporized="">
        <emissions CO_abs="10411.185073" CO2_abs="571083.178522" HC_abs="60.765569" PMx_abs="9.968144" NOx_abs="231.637460" fuel_abs="245.485918" electricity_abs="0"/>
    </tripinfo>
    <tripinfo id="h20540c1:1" depart="57634.00" departLane="10425609#0_1" departPos="5.10" departSpeed="0.00" departDelay="0.50" arrival="57829.00" arrivalLane="-128361102#1_1" arrivalPos="274.68" arrivalSpeed="14.15" duration="195.00" routeLength="2113.04" waitingTime="15.00" waitingCount="2" stopTime="0.00" timeLoss="43.93" rerouteNo="1" devices="tripinfo_h20540c1:1 routing_h20540c1:1 emissions_h20540c1:1" vType="default_016" speedFactor="1.03" vaporized="">
        <emissions CO_abs="7449.335680" CO2_abs="518311.659932" HC_abs="46.011096" PMx_abs="8.870936" NOx_abs="208.320418" fuel_abs="222.800169" electricity_abs="0"/>
    </tripinfo>
    <tripinfo id="carIn107282:1" depart="57749.00" departLane="-447569998#1_1" departPos="5.10" departSpeed="0.00" departDelay="0.00" arrival="57829.00" arrivalLane="315358242#0_1" arrivalPos="165.37" arrivalSpeed="11.76" duration="80.00" routeLength="448.50" waitingTime="22.00" waitingCount="1" stopTime="0.00" timeLoss="30.73" rerouteNo="1" devices="tripinfo_carIn107282:1 routing_carIn107282:1 emissions_carIn107282:1" vType="default_016" speedFactor="0.85" vaporized="">
        <emissions CO_abs="5089.955776" CO2_abs="163170.344026" HC_abs="26.954722" PMx_abs="3.026394" NOx_abs="68.192052" fuel_abs="70.141883" electricity_abs="0"/>
    </tripinfo>
    <tripinfo id="carIn107084:1" depart="57601.00" departLane="124812856#0_1" departPos="5.10" departSpeed="0.00" departDelay="0.70" arrival="57830.00" arrivalLane="-128361102#1_1" arrivalPos="274.68" arrivalSpeed="15.09" duration="229.00" routeLength="2250.49" waitingTime="49.00" waitingCount="2" stopTime="0.00" timeLoss="83.34" rerouteNo="1" devices="tripinfo_carIn107084:1 routing_carIn107084:1 emissions_carIn107084:1" vType="default_016" speedFactor="1.12" vaporized="">
        <emissions CO_abs="14161.246981" CO2_abs="684151.665194" HC_abs="80.493145" PMx_abs="12.884793" NOx_abs="282.391915" fuel_abs="294.089661" electricity_abs="0"/>
    </tripinfo>
    <tripinfo id="carIn82278:1" depart="57702.00" departLane="-306240162#1_0" departPos="5.10" departSpeed="0.00" departDelay="0.70" arrival="57834.00" arrivalLane="399835085#1_1" arrivalPos="212.23" arrivalSpeed="5.20" duration="132.00" routeLength="1093.26" waitingTime="8.00" waitingCount="1" stopTime="0.00" timeLoss="27.23" rerouteNo="1" devices="tripinfo_carIn82278:1 routing_carIn82278:1 emissions_carIn82278:1" vType="default_016" speedFactor="0.75" vaporized="">
        <emissions CO_abs="5027.372594" CO2_abs="271120.162005" HC_abs="29.099492" PMx_abs="4.520143" NOx_abs="109.110181" fuel_abs="116.544089" electricity_abs="0"/>
    </tripinfo>
    <tripinfo id="h645c1:1" depart="57622.00" departLane="266565295#5_1" departPos="5.10" departSpeed="0.00" departDelay="0.40" arrival="57837.00" arrivalLane="-315358244_1" arrivalPos="33.95" arrivalSpeed="12.76" duration="215.00" routeLength="1910.83" waitingTime="47.00" waitingCount="2" stopTime="0.00" timeLoss="70.23" rerouteNo="1" devices="tripinfo_h645c1:1 routing_h645c1:1 emissions_h645c1:1" vType="default_016" speedFactor="0.96" vaporized="">
        <emissions CO_abs="10991.378353" CO2_abs="489213.017752" HC_abs="61.422416" PMx_abs="8.562835" NOx_abs="198.202493" fuel_abs="210.294970" electricity_abs="0"/>
    </tripinfo>
    <tripinfo id="h17600c1:1" depart="57662.00" departLane="272042143_1" departPos="5.10" departSpeed="0.00" departDelay="0.30" arrival="57839.00" arrivalLane="201238729#3_1" arrivalPos="431.02" arrivalSpeed="14.97" duration="177.00" routeLength="2100.26" waitingTime="23.00" waitingCount="1" stopTime="0.00" timeLoss="37.71" rerouteNo="1" devices="tripinfo_h17600c1:1 routing_h17600c1:1 emissions_h17600c1:1" vType="default_016" speedFactor="1.09" vaporized="">
        <emissions CO_abs="7169.390676" CO2_abs="434199.468084" HC_abs="42.653401" PMx_abs="7.431120" NOx_abs="172.593952" fuel_abs="186.644882" electricity_abs="0"/>
    </tripinfo>
    <tripinfo id="randUni15030:1" depart="57735.00" departLane="386687232#0_1" departPos="5.10" departSpeed="0.00" departDelay="0.10" arrival="57841.00" arrivalLane="26677539_1" arrivalPos="151.98" arrivalSpeed="6.30" duration="106.00" routeLength="919.89" waitingTime="0.00" waitingCount="0" stopTime="0.00" timeLoss="11.34" rerouteNo="1" devices="tripinfo_randUni15030:1 routing_randUni15030:1 emissions_randUni15030:1" vType="random_016" speedFactor="0.88" vaporized="">
        <emissions CO_abs="3849.921450" CO2_abs="217387.862328" HC_abs="22.525763" PMx_abs="3.354838" NOx_abs="86.256950" fuel_abs="93.446865" electricity_abs="0"/>
    </tripinfo>
    <tripinfo id="carIn86816:1" depart="57617.00" departLane="128361102#0_1" departPos="5.10" departSpeed="0.00" departDelay="0.80" arrival="57845.00" arrivalLane="201956811#0_1" arrivalPos="40.40" arrivalSpeed="12.92" duration="228.00" routeLength="2067.33" waitingTime="44.00" waitingCount="2" stopTime="0.00" timeLoss="68.17" rerouteNo="1" devices="tripinfo_carIn86816:1 routing_carIn86816:1 emissions_carIn86816:1" vType="default_016" speedFactor="0.94" vaporized="">
        <emissions CO_abs="12018.905009" CO2_abs="571674.041645" HC_abs="68.073437" PMx_abs="10.093642" NOx_abs="232.720921" fuel_abs="245.741087" electricity_abs="0"/>
    </tripinfo>
    <tripinfo id="carIn102915:1" depart="57643.00" departLane="128361102#0_1" departPos="5.10" departSpeed="0.00" departDelay="0.40" arrival="57847.00" arrivalLane="201956811#0_1" arrivalPos="40.40" arrivalSpeed="13.51" duration="204.00" routeLength="2067.33" waitingTime="23.00" waitingCount="1" stopTime="0.00" timeLoss="61.54" rerouteNo="1" devices="tripinfo_carIn102915:1 routing_carIn102915:1 emissions_carIn102915:1" vType="default_016" speedFactor="1.07" vaporized="">
        <emissions CO_abs="9918.450861" CO2_abs="579332.023572" HC_abs="58.665139" PMx_abs="10.067446" NOx_abs="234.431891" fuel_abs="249.031301" electricity_abs="0"/>
    </tripinfo>
    <tripinfo id="randUni31145:1" depart="57814.00" departLane="10425609#0_1" departPos="5.10" departSpeed="0.00" departDelay="0.30" arrival="57863.00" arrivalLane="201956810_1" arrivalPos="71.65" arrivalSpeed="14.86" duration="49.00" routeLength="255.78" waitingTime="21.00" waitingCount="1" stopTime="0.00" timeLoss="31.20" rerouteNo="1" devices="tripinfo_randUni31145:1 routing_randUni31145:1 emissions_randUni31145:1" vType="random_016" speedFactor="1.14" vaporized="">
        <emissions CO_abs="5339.879434" CO2_abs="171011.234162" HC_abs="28.373514" PMx_abs="3.669138" NOx_abs="74.453944" fuel_abs="73.511707" electricity_abs="0"/>
    </tripinfo>
    <tripinfo id="carIn8642:1" depart="57774.00" departLane="-447569998#1_1" departPos="5.10" departSpeed="0.00" departDelay="0.90" arrival="57865.00" arrivalLane="-315358244_1" arrivalPos="33.95" arrivalSpeed="11.52" duration="91.00" routeLength="706.49" waitingTime="4.00" waitingCount="1" stopTime="0.00" timeLoss="20.56" rerouteNo="1" devices="tripinfo_carIn8642:1 routing_carIn8642:1 emissions_carIn8642:1" vType="default_016" speedFactor="0.86" vaporized="">
        <emissions CO_abs="3605.522981" CO2_abs="185587.740005" HC_abs="20.697695" PMx_abs="3.001067" NOx_abs="74.601688" fuel_abs="79.777244" electricity_abs="0"/>
    </tripinfo>
    <tripinfo id="carIn12858:1" depart="57661.00" departLane="128361109#1_1" departPos="5.10" departSpeed="0.00" departDelay="0.90" arrival="57866.00" arrivalLane="399835085#1_1" arrivalPos="212.23" arrivalSpeed="6.83" duration="205.00" routeLength="1738.12" waitingTime="56.00" waitingCount="2" stopTime="0.00" timeLoss="85.33" rerouteNo="1" devices="tripinfo_carIn12858:1 routing_carIn12858:1 emissions_carIn12858:1" vType="default_016" speedFactor="0.96" vaporized="">
        <emissions CO_abs="15499.977005" CO2_abs="630604.671858" HC_abs="85.539883" PMx_abs="12.612706" NOx_abs="264.799652" fuel_abs="271.072952" electricity_abs="0"/>
    </tripinfo>
    <tripinfo id="50R_frequency3.17" depart="57674.00" departLane="-18809673#6_1" departPos="12.10" departSpeed="0.00" departDelay="0.70" arrival="57866.00" arrivalLane="201956811#0_1" arrivalPos="40.40" arrivalSpeed="10.61" duration="192.00" routeLength="1954.47" waitingTime="14.00" waitingCount="2" stopTime="0.00" timeLoss="47.34" rerouteNo="1" devices="tripinfo_50R_frequency3.17 routing_50R_frequency3.17 emissions_50R_frequency3.17" vType="bus" speedFactor="1.00" vaporized="">
        <emissions CO_abs="3589.393781" CO2_abs="2216879.801793" HC_abs="754.475902" PMx_abs="383.788172" NOx_abs="17293.674280" fuel_abs="945.459371" electricity_abs="0"/>
    </tripinfo>
    <tripinfo id="carIn29531:1" depart="57667.00" departLane="128361102#0_1" departPos="5.10" departSpeed="0.00" departDelay="1.60" arrival="57868.00" arrivalLane="201956811#0_1" arrivalPos="40.40" arrivalSpeed="12.98" duration="201.00" routeLength="2067.33" waitingTime="13.00" waitingCount="2" stopTime="0.00" timeLoss="61.40" rerouteNo="1" devices="tripinfo_carIn29531:1 routing_carIn29531:1 emissions_carIn29531:1" vType="default_016" speedFactor="1.08" vaporized="">