<?xml version="1.0" encoding="UTF-8"?>

<!-- generated on Thu Nov  4 13:11:15 2021 by Eclipse SUMO sumo Version 1.9.0
<configuration xmlns:xsi="http://www.w3.org/2001/XMLSchema-instance" xsi:noNamespaceSchemaLocation="http://sumo.dlr.de/xsd/sumoConfiguration.xsd">

    <input>
        <net-file value="/mainfs/home/bk2g18/RESCO/environments/ingolstadt21/ingolstadt21.net.xml"/>
        <route-files value="/mainfs/home/bk2g18/RESCO/environments/ingolstadt21/ingolstadt21.rou.xml"/>
    </input>

    <output>
        <tripinfo-output value="/mainfs/home/bk2g18/RESCO/logs/MPLight-tr0-ingolstadt21-21-mplight-pressure/tripinfo_1.xml"/>
        <tripinfo-output.write-unfinished value="true"/>
    </output>

    <time>
        <begin value="57600"/>
        <end value="61200"/>
    </time>

    <processing>
        <time-to-teleport value="-1"/>
    </processing>

    <report>
        <xml-validation value="never"/>
        <xml-validation.routes value="never"/>
        <no-warnings value="true"/>
        <no-step-log value="true"/>
    </report>

    <emissions>
        <device.emissions.probability value="1"/>
    </emissions>

    <traci_server>
        <remote-port value="53112"/>
    </traci_server>

    <random_number>
        <random value="true"/>
    </random_number>

</configuration>
-->

<tripinfos xmlns:xsi="http://www.w3.org/2001/XMLSchema-instance" xsi:noNamespaceSchemaLocation="http://sumo.dlr.de/xsd/tripinfo_file.xsd">
    <tripinfo id="h15454c2:3" depart="57612.00" departLane="24608844_1" departPos="5.10" departSpeed="0.00" departDelay="0.50" arrival="57662.00" arrivalLane="32978638#0_1" arrivalPos="49.29" arrivalSpeed="10.45" duration="50.00" routeLength="354.79" waitingTime="0.00" waitingCount="0" stopTime="0.00" timeLoss="8.77" rerouteNo="1" devices="tripinfo_h15454c2:3 routing_h15454c2:3 emissions_h15454c2:3" vType="default_016" speedFactor="0.83" vaporized="">
        <emissions CO_abs="2449.251040" CO2_abs="112073.185631" HC_abs="13.753446" PMx_abs="1.962119" NOx_abs="46.309362" fuel_abs="48.176054" electricity_abs="0"/>
    </tripinfo>
    <tripinfo id="carIn53971:1" depart="57640.00" departLane="272042143_1" departPos="5.10" departSpeed="0.00" departDelay="0.80" arrival="57690.00" arrivalLane="24634414#1_1" arrivalPos="162.19" arrivalSpeed="8.16" duration="50.00" routeLength="493.04" waitingTime="0.00" waitingCount="0" stopTime="0.00" timeLoss="8.46" rerouteNo="1" devices="tripinfo_carIn53971:1 routing_carIn53971:1 emissions_carIn53971:1" vType="default_016" speedFactor="1.09" vaporized="">
        <emissions CO_abs="2424.820235" CO2_abs="141492.752684" HC_abs="14.369718" PMx_abs="2.564800" NOx_abs="58.536683" fuel_abs="60.821768" electricity_abs="0"/>
    </tripinfo>
    <tripinfo id="carIn60260:1" depart="57606.00" departLane="315358254#0_1" departPos="5.10" departSpeed="0.00" departDelay="0.90" arrival="57694.00" arrivalLane="399835085#1_1" arrivalPos="212.23" arrivalSpeed="7.96" duration="88.00" routeLength="430.98" waitingTime="31.00" waitingCount="1" stopTime="0.00" timeLoss="41.11" rerouteNo="1" devices="tripinfo_carIn60260:1 routing_carIn60260:1 emissions_carIn60260:1" vType="default_016" speedFactor="0.99" vaporized="">
        <emissions CO_abs="7175.964000" CO2_abs="196727.644983" HC_abs="37.271974" PMx_abs="4.033822" NOx_abs="84.755352" fuel_abs="84.567424" electricity_abs="0"/>
    </tripinfo>
    <tripinfo id="h7800c1:5" depart="57696.00" departLane="-447569998#1_1" departPos="5.10" departSpeed="0.00" departDelay="0.00" arrival="57722.00" arrivalLane="-447569998#1_2" arrivalPos="180.76" arrivalSpeed="7.08" duration="26.00" routeLength="175.66" waitingTime="0.00" waitingCount="0" stopTime="0.00" timeLoss="3.79" rerouteNo="1" devices="tripinfo_h7800c1:5 routing_h7800c1:5 emissions_h7800c1:5" vType="default_016" speedFactor="0.98" vaporized="">
        <emissions CO_abs="1299.492720" CO2_abs="54972.553007" HC_abs="7.177812" PMx_abs="0.906000" NOx_abs="22.432318" fuel_abs="23.630798" electricity_abs="0"/>
    </tripinfo>
    <tripinfo id="h7181c1:1" depart="57660.00" departLane="315358254#0_1" departPos="5.10" departSpeed="0.00" departDelay="0.10" arrival="57734.00" arrivalLane="306240162#0_0" arrivalPos="220.43" arrivalSpeed="15.19" duration="74.00" routeLength="932.35" waitingTime="7.00" waitingCount="1" stopTime="0.00" timeLoss="21.74" rerouteNo="1" devices="tripinfo_h7181c1:1 routing_h7181c1:1 emissions_h7181c1:1" vType="default_016" speedFactor="0.99" vaporized="">
        <emissions CO_abs="3861.820676" CO2_abs="263950.711612" HC_abs="23.898117" PMx_abs="5.078321" NOx_abs="108.082430" fuel_abs="113.460576" electricity_abs="0"/>
    </tripinfo>
    <tripinfo id="carIn22761:1" depart="57616.00" departLane="-306240162#1_0" departPos="5.10" departSpeed="0.00" departDelay="2.10" arrival="57740.00" arrivalLane="399835085#1_1" arrivalPos="212.23" arrivalSpeed="7.99" duration="124.00" routeLength="1093.26" waitingTime="37.00" waitingCount="1" stopTime="0.00" timeLoss="52.43" rerouteNo="1" devices="tripinfo_carIn22761:1 routing_carIn22761:1 emissions_carIn22761:1" vType="default_016" speedFactor="1.09" vaporized="">
        <emissions CO_abs="10021.627902" CO2_abs="382259.897034" HC_abs="54.698828" PMx_abs="7.831805" NOx_abs="160.626686" fuel_abs="164.319342" electricity_abs="0"/>
    </tripinfo>
    <tripinfo id="h3568c1:3" depart="57656.00" departLane="266565295#5_1" departPos="5.10" departSpeed="0.00" departDelay="0.80" arrival="57741.00" arrivalLane="-24634415_1" arrivalPos="62.03" arrivalSpeed="12.26" duration="85.00" routeLength="807.40" waitingTime="2.00" waitingCount="1" stopTime="0.00" timeLoss="18.61" rerouteNo="1" devices="tripinfo_h3568c1:3 routing_h3568c1:3 emissions_h3568c1:3" vType="default_016" speedFactor="0.98" vaporized="">
        <emissions CO_abs="3916.569284" CO2_abs="234474.674517" HC_abs="23.353624" PMx_abs="4.241346" NOx_abs="96.771480" fuel_abs="100.790720" electricity_abs="0"/>
    </tripinfo>
    <tripinfo id="h4538c1:1" depart="57701.00" departLane="-10427692#1_1" departPos="5.10" departSpeed="0.00" departDelay="0.00" arrival="57744.00" arrivalLane="-128361102#1_1" arrivalPos="274.68" arrivalSpeed="14.20" duration="43.00" routeLength="440.74" waitingTime="2.00" waitingCount="1" stopTime="0.00" timeLoss="13.34" rerouteNo="1" devices="tripinfo_h4538c1:1 routing_h4538c1:1 emissions_h4538c1:1" vType="default_016" speedFactor="1.08" vaporized="">
        <emissions CO_abs="1873.230987" CO2_abs="115451.576283" HC_abs="11.251298" PMx_abs="2.072675" NOx_abs="47.206200" fuel_abs="49.627749" electricity_abs="0"/>
    </tripinfo>
    <tripinfo id="carIn27009:1" depart="57673.00" departLane="-447569998#1_1" departPos="5.10" departSpeed="0.00" departDelay="0.50" arrival="57756.00" arrivalLane="-26677539_1" arrivalPos="152.75" arrivalSpeed="9.28" duration="83.00" routeLength="699.63" waitingTime="0.00" waitingCount="0" stopTime="0.00" timeLoss="9.45" rerouteNo="1" devices="tripinfo_carIn27009:1 routing_carIn27009:1 emissions_carIn27009:1" vType="default_015" speedFactor="1.13" vaporized="">
        <emissions CO_abs="3280.898911" CO2_abs="180181.957274" HC_abs="19.085390" PMx_abs="2.854869" NOx_abs="72.369279" fuel_abs="77.453369" electricity_abs="0"/>
    </tripinfo>
    <tripinfo id="h317c2:1" depart="57707.00" departLane="-32978638#0_1" departPos="5.10" departSpeed="0.00" departDelay="0.10" arrival="57757.00" arrivalLane="-266565295#5_1" arrivalPos="172.76" arrivalSpeed="12.04" duration="50.00" routeLength="370.53" waitingTime="12.00" waitingCount="1" stopTime="0.00" timeLoss="18.91" rerouteNo="1" devices="tripinfo_h317c2:1 routing_h317c2:1 emissions_h317c2:1" vType="default_016" speedFactor="0.90" vaporized="">
        <emissions CO_abs="3003.623050" CO2_abs="126458.838969" HC_abs="16.640040" PMx_abs="2.362671" NOx_abs="52.745826" fuel_abs="54.359933" electricity_abs="0"/>
    </tripinfo>
    <tripinfo id="h5979c1:5" depart="57669.00" departLane="399835085#1_1" departPos="5.10" departSpeed="0.00" departDelay="0.00" arrival="57758.00" arrivalLane="-315358254#1_1" arrivalPos="137.16" arrivalSpeed="13.76" duration="89.00" routeLength="659.33" waitingTime="2.00" waitingCount="1" stopTime="0.00" timeLoss="16.30" rerouteNo="1" devices="tripinfo_h5979c1:5 routing_h5979c1:5 emissions_h5979c1:5" vType="default_016" speedFactor="1.01" vaporized="">
        <emissions CO_abs="3674.662056" CO2_abs="179859.004268" HC_abs="20.889291" PMx_abs="3.004602" NOx_abs="73.194977" fuel_abs="77.314653" electricity_abs="0"/>
    </tripinfo>
    <tripinfo id="h3688c1:1" depart="57625.00" departLane="201201950#1_1" departPos="5.10" departSpeed="0.00" departDelay="0.00" arrival="57761.00" arrivalLane="32978638#0_1" arrivalPos="49.29" arrivalSpeed="12.94" duration="136.00" routeLength="1089.75" waitingTime="40.00" waitingCount="1" stopTime="0.00" timeLoss="54.18" rerouteNo="1" devices="tripinfo_h3688c1:1 routing_h3688c1:1 emissions_h3688c1:1" vType="default_016" speedFactor="0.97" vaporized="">
        <emissions CO_abs="9074.944584" CO2_abs="352820.589080" HC_abs="49.566097" PMx_abs="6.611483" NOx_abs="146.224478" fuel_abs="151.665069" electricity_abs="0"/>
    </tripinfo>
    <tripinfo id="carIn30817:1" depart="57681.00" departLane="315358244_1" departPos="5.10" departSpeed="0.00" departDelay="0.20" arrival="57762.00" arrivalLane="447569997#1_1" arrivalPos="180.93" arrivalSpeed="7.05" duration="81.00" routeLength="718.04" waitingTime="0.00" waitingCount="0" stopTime="0.00" timeLoss="18.97" rerouteNo="1" devices="tripinfo_carIn30817:1 routing_carIn30817:1 emissions_carIn30817:1" vType="default_016" speedFactor="0.99" vaporized="">
        <emissions CO_abs="3618.483792" CO2_abs="200677.382977" HC_abs="21.165453" PMx_abs="3.499565" NOx_abs="82.108062" fuel_abs="86.263111" electricity_abs="0"/>
    </tripinfo>
    <tripinfo id="carIn80064:1" depart="57603.00" departLane="128361109#1_1" departPos="5.10" departSpeed="0.00" departDelay="0.40" arrival="57765.00" arrivalLane="-315358254#1_1" arrivalPos="137.16" arrivalSpeed="13.33" duration="162.00" routeLength="1587.97" waitingTime="49.00" waitingCount="1" stopTime="0.00" timeLoss="71.34" rerouteNo="1" devices="tripinfo_carIn80064:1 routing_carIn80064:1 emissions_carIn80064:1" vType="default_016" speedFactor="0.99" vaporized="">
        <emissions CO_abs="13398.427853" CO2_abs="560827.309167" HC_abs="74.413801" PMx_abs="11.490705" NOx_abs="235.803708" fuel_abs="241.077725" electricity_abs="0"/>
    </tripinfo>
    <tripinfo id="h330c1:1" depart="57736.00" departLane="-32978638#0_1" departPos="5.10" departSpeed="0.00" departDelay="0.20" arrival="57767.00" arrivalLane="-266565295#5_1" arrivalPos="172.76" arrivalSpeed="15.19" duration="31.00" routeLength="370.53" waitingTime="0.00" waitingCount="0" stopTime="0.00" timeLoss="5.92" rerouteNo="1" devices="tripinfo_h330c1:1 routing_h330c1:1 emissions_h330c1:1" vType="default_016" speedFactor="1.10" vaporized="">
        <emissions CO_abs="1739.867930" CO2_abs="123530.775522" HC_abs="10.833537" PMx_abs="2.204986" NOx_abs="50.214264" fuel_abs="53.100469" electricity_abs="0"/>
    </tripinfo>
    <tripinfo id="h3326c1:2" depart="57656.00" departLane="22716069#0_1" departPos="5.10" departSpeed="0.00" departDelay="0.00" arrival="57771.00" arrivalLane="24634517#13_1" arrivalPos="111.62" arrivalSpeed="12.72" duration="115.00" routeLength="1312.81" waitingTime="0.00" waitingCount="0" stopTime="0.00" timeLoss="14.78" rerouteNo="1" devices="tripinfo_h3326c1:2 routing_h3326c1:2 emissions_h3326c1:2" vType="default_016" speedFactor="0.98" vaporized="">
        <emissions CO_abs="3875.275642" CO2_abs="291164.050935" HC_abs="24.453058" PMx_abs="4.833329" NOx_abs="116.340146" fuel_abs="125.159001" electricity_abs="0"/>
    </tripinfo>
    <tripinfo id="carIn121703:1" depart="57647.00" departLane="386687232#0_1" departPos="5.10" departSpeed="0.00" departDelay="0.30" arrival="57779.00" arrivalLane="-315358244_1" arrivalPos="33.95" arrivalSpeed="12.26" duration="132.00" routeLength="1157.39" waitingTime="24.00" waitingCount="1" stopTime="0.00" timeLoss="38.29" rerouteNo="1" devices="tripinfo_carIn121703:1 routing_carIn121703:1 emissions_carIn121703:1" vType="default_016" speedFactor="0.90" vaporized="">
        <emissions CO_abs="6532.628065" CO2_abs="298882.463588" HC_abs="36.706854" PMx_abs="5.219818" NOx_abs="121.620460" fuel_abs="128.478555" electricity_abs="0"/>
    </tripinfo>
    <tripinfo id="h9563c2:5" depart="57631.00" departLane="315358244_1" departPos="5.10" departSpeed="0.00" departDelay="0.70" arrival="57783.00" arrivalLane="386687235_1" arrivalPos="80.84" arrivalSpeed="13.96" duration="152.00" routeLength="1186.14" waitingTime="45.00" waitingCount="4" stopTime="0.00" timeLoss="72.46" rerouteNo="1" devices="tripinfo_h9563c2:5 routing_h9563c2:5 emissions_h9563c2:5" vType="default_016" speedFactor="1.09" vaporized="">
        <emissions CO_abs="10349.217092" CO2_abs="399675.376288" HC_abs="56.439181" PMx_abs="7.689733" NOx_abs="166.857204" fuel_abs="171.806032" electricity_abs="0"/>
    </tripinfo>
    <tripinfo id="h12244c1:3" depart="57612.00" departLane="315358244_1" departPos="5.10" departSpeed="0.00" departDelay="0.40" arrival="57791.00" arrivalLane="386687235_1" arrivalPos="80.84" arrivalSpeed="12.16" duration="179.00" routeLength="1186.14" waitingTime="53.00" waitingCount="4" stopTime="0.00" timeLoss="82.67" rerouteNo="1" devices="tripinfo_h12244c1:3 routing_h12244c1:3 emissions_h12244c1:3" vType="default_016" speedFactor="0.90" vaporized="">
        <emissions CO_abs="11375.701825" CO2_abs="405128.394782" HC_abs="61.251808" PMx_abs="7.605763" NOx_abs="168.777972" fuel_abs="174.151060" electricity_abs="0"/>
    </tripinfo>
    <tripinfo id="h645c1:1" depart="57622.00" departLane="266565295#5_1" departPos="5.10" departSpeed="0.00" departDelay="0.40" arrival="57791.00" arrivalLane="-315358244_1" arrivalPos="33.95" arrivalSpeed="13.95" duration="169.00" routeLength="1910.83" waitingTime="21.00" waitingCount="2" stopTime="0.00" timeLoss="41.52" rerouteNo="1" devices="tripinfo_h645c1:1 routing_h645c1:1 emissions_h645c1:1" vType="default_016" speedFactor="1.09" vaporized="">
        <emissions CO_abs="6770.378535" CO2_abs="412779.885486" HC_abs="40.415271" PMx_abs="7.181402" NOx_abs="165.373051" fuel_abs="177.437202" electricity_abs="0"/>
    </tripinfo>
    <tripinfo id="S5R_frequency1.2" depart="57667.00" departLane="315358250#0_1" departPos="12.10" departSpeed="0.00" departDelay="55.40" arrival="57793.00" arrivalLane="386687235_1" arrivalPos="80.84" arrivalSpeed="13.50" duration="126.00" routeLength="1115.62" waitingTime="15.00" waitingCount="2" stopTime="0.00" timeLoss="44.43" rerouteNo="1" devices="tripinfo_S5R_frequency1.2 routing_S5R_frequency1.2 emissions_S5R_frequency1.2" vType="bus" speedFactor="1.00" vaporized="">
        <emissions CO_abs="2282.291027" CO2_abs="1388365.898179" HC_abs="473.773364" PMx_abs="243.084642" NOx_abs="10897.891779" fuel_abs="592.098198" electricity_abs="0"/>
    </tripinfo>
    <tripinfo id="carIn118591:1" depart="57689.00" departLane="315358244_1" departPos="5.10" departSpeed="0.00" departDelay="0.20" arrival="57807.00" arrivalLane="386687235_1" arrivalPos="80.84" arrivalSpeed="12.87" duration="118.00" routeLength="1186.14" waitingTime="8.00" waitingCount="1" stopTime="0.00" timeLoss="28.60" rerouteNo="1" devices="tripinfo_carIn118591:1 routing_carIn118591:1 emissions_carIn118591:1" vType="default_016" speedFactor="0.97" vaporized="">
        <emissions CO_abs="4718.932546" CO2_abs="277315.188754" HC_abs="27.958189" PMx_abs="4.657742" NOx_abs="111.184680" fuel_abs="119.206762" electricity_abs="0"/>
    </tripinfo>
    <tripinfo id="carIn12365:1" depart="57713.00" departLane="315358244_1" departPos="5.10" departSpeed="0.00" departDelay="0.50" arrival="57814.00" arrivalLane="447569997#1_1" arrivalPos="180.93" arrivalSpeed="7.27" duration="101.00" routeLength="718.04" waitingTime="26.00" waitingCount="1" stopTime="0.00" timeLoss="40.47" rerouteNo="1" devices="tripinfo_carIn12365:1 routing_carIn12365:1 emissions_carIn12365:1" vType="default_016" speedFactor="1.01" vaporized="">
        <emissions CO_abs="6229.177674" CO2_abs="236427.052097" HC_abs="33.862414" PMx_abs="4.363723" NOx_abs="97.873899" fuel_abs="101.631806" electricity_abs="0"/>
    </tripinfo>
    <tripinfo id="carIn107282:1" depart="57749.00" departLane="-447569998#1_1" departPos="5.10" departSpeed="0.00" departDelay="0.00" arrival="57823.00" arrivalLane="315358242#0_1" arrivalPos="165.37" arrivalSpeed="15.89" duration="74.00" routeLength="448.50" waitingTime="29.00" waitingCount="1" stopTime="0.00" timeLoss="37.84" rerouteNo="1" devices="tripinfo_carIn107282:1 routing_carIn107282:1 emissions_carIn107282:1" vType="default_016" speedFactor="1.16" vaporized="">
        <emissions CO_abs="6248.763487" CO2_abs="197275.102271" HC_abs="33.081861" PMx_abs="3.940157" NOx_abs="83.627486" fuel_abs="84.802181" electricity_abs="0"/>
    </tripinfo>
    <tripinfo id="carIn82278:1" depart="57702.00" departLane="-306240162#1_0" departPos="5.10" departSpeed="0.00" departDelay="0.70" arrival="57828.00" arrivalLane="399835085#1_1" arrivalPos="212.23" arrivalSpeed="7.98" duration="126.00" routeLength="1093.26" waitingTime="23.00" waitingCount="2" stopTime="0.00" timeLoss="56.23" rerouteNo="1" devices="tripinfo_carIn82278:1 routing_carIn82278:1 emissions_carIn82278:1" vType="default_016" speedFactor="1.11" vaporized="">
        <emissions CO_abs="8733.547161" CO2_abs="402794.627410" HC_abs="49.331964" PMx_abs="8.120711" NOx_abs="170.297230" fuel_abs="173.144903" electricity_abs="0"/>
    </tripinfo>
    <tripinfo id="h8343c1:5" depart="57679.00" departLane="315358254#0_1" departPos="5.10" departSpeed="0.00" departDelay="0.60" arrival="57830.00" arrivalLane="-24634510#5_1" arrivalPos="236.88" arrivalSpeed="12.80" duration="151.00" routeLength="2056.84" waitingTime="0.00" waitingCount="0" stopTime="0.00" timeLoss="16.45" rerouteNo="1" devices="tripinfo_h8343c1:5 routing_h8343c1:5 emissions_h8343c1:5" vType="default_016" speedFactor="0.93" vaporized="">
        <emissions CO_abs="5973.788625" CO2_abs="470853.150645" HC_abs="38.369791" PMx_abs="8.450514" NOx_abs="189.892725" fuel_abs="202.398701" electricity_abs="0"/>
    </tripinfo>
    <tripinfo id="h3154c1:1" depart="57658.00" departLane="24634507_1" departPos="5.10" departSpeed="0.00" departDelay="0.00" arrival="57835.00" arrivalLane="-266565295#5_1" arrivalPos="172.76" arrivalSpeed="15.33" duration="177.00" routeLength="1206.22" waitingTime="77.00" waitingCount="2" stopTime="0.00" timeLoss="97.75" rerouteNo="1" devices="tripinfo_h3154c1:1 routing_h3154c1:1 emissions_h3154c1:1" vType="default_016" speedFactor="1.13" vaporized="">
        <emissions CO_abs="16202.254467" CO2_abs="518048.211830" HC_abs="85.930302" PMx_abs="10.726472" NOx_abs="221.043385" fuel_abs="222.691488" electricity_abs="0"/>
    </tripinfo>
    <tripinfo id="carIn12152:1" depart="57647.00" departLane="24599188#0.94_1" departPos="5.10" departSpeed="0.00" departDelay="0.50" arrival="57837.00" arrivalLane="-315358254#1_1" arrivalPos="137.16" arrivalSpeed="14.32" duration="190.00" routeLength="2034.31" waitingTime="21.00" waitingCount="1" stopTime="0.00" timeLoss="39.35" rerouteNo="1" devices="tripinfo_carIn12152:1 routing_carIn12152:1 emissions_carIn12152:1" vType="default_016" speedFactor="1.05" vaporized="">
        <emissions CO_abs="7790.553423" CO2_abs="450761.799769" HC_abs="45.962734" PMx_abs="7.723408" NOx_abs="180.758457" fuel_abs="193.764512" electricity_abs="0"/>
    </tripinfo>
    <tripinfo id="carIn12858:1" depart="57661.00" departLane="128361109#1_1" departPos="5.10" departSpeed="0.00" departDelay="0.90" arrival="57838.00" arrivalLane="399835085#1_1" arrivalPos="212.23" arrivalSpeed="8.67" duration="177.00" routeLength="1738.12" waitingTime="42.00" waitingCount="2" stopTime="0.00" timeLoss="72.04" rerouteNo="1" devices="tripinfo_carIn12858:1 routing_carIn12858:1 emissions_carIn12858:1" vType="default_016" speedFactor="1.10" vaporized="">
        <emissions CO_abs="12836.386039" CO2_abs="575468.867533" HC_abs="72.154276" PMx_abs="11.665635" NOx_abs="240.902451" fuel_abs="247.370984" electricity_abs="0"/>
    </tripinfo>
    <tripinfo id="h11737c1:1" depart="57665.00" departLane="272042143_1" departPos="5.10" departSpeed="0.00" departDelay="1.50" arrival="57839.00" arrivalLane="-315358254#1_1" arrivalPos="137.16" arrivalSpeed="14.85" duration="174.00" routeLength="1596.88" waitingTime="45.00" waitingCount="2" stopTime="0.00" timeLoss="67.98" rerouteNo="1" devices="tripinfo_h11737c1:1 routing_h11737c1:1 emissions_h11737c1:1" vType="default_016" speedFactor="1.10" vaporized="">
        <emissions CO_abs="10647.302181" CO2_abs="459682.213685" HC_abs="59.062425" PMx_abs="8.672794" NOx_abs="189.576923" fuel_abs="197.600093" electricity_abs="0"/>
    </tripinfo>
    <tripinfo id="carIn126288:1" depart="57674.00" departLane="272042143_1" departPos="5.10" departSpeed="0.00" departDelay="0.00" arrival="57840.00" arrivalLane="-315358254#1_1" arrivalPos="137.16" arrivalSpeed="15.74" duration="166.00" routeLength="1596.88" waitingTime="39.00" waitingCount="2" stopTime="0.00" timeLoss="65.09" rerouteNo="1" devices="tripinfo_carIn126288:1 routing_carIn126288:1 emissions_carIn126288:1" vType="default_016" speedFactor="1.15" vaporized="">
        <emissions CO_abs="10061.714459" CO2_abs="465528.637919" HC_abs="56.713424" PMx_abs="8.983701" NOx_abs="193.423220" fuel_abs="200.112336" electricity_abs="0"/>
    </tripinfo>
    <tripinfo id="50R_frequency3.17" depart="57674.00" departLane="-18809673#6_1" departPos="12.10" departSpeed="0.00" departDelay="0.70" arrival="57845.00" arrivalLane="201956811#0_1" arrivalPos="40.40" arrivalSpeed="11.32" duration="171.00" routeLength="1954.47" waitingTime="2.00" waitingCount="1" stopTime="0.00" timeLoss="26.36" rerouteNo="1" devices="tripinfo_50R_frequency3.17 routing_50R_frequency3.17 emissions_50R_frequency3.17" vType="bus" speedFactor="1.00" vaporized="">
        <emissions CO_abs="3147.125209" CO2_abs="1993707.087858" HC_abs="663.158237" PMx_abs="337.927706" NOx_abs="15409.396018" fuel_abs="850.302210" electricity_abs="0"/>
    </tripinfo>
    <tripinfo id="randUni31145:1" depart="57814.00" departLane="10425609#0_1" departPos="5.10" departSpeed="0.00" departDelay="0.30" arrival="57845.00" arrivalLane="201956810_1" arrivalPos="71.65" arrivalSpeed="12.59" duration="31.00" routeLength="255.78" waitingTime="0.00" waitingCount="0" stopTime="0.00" timeLoss="10.40" rerouteNo="1" devices="tripinfo_randUni31145:1 routing_randUni31145:1 emissions_randUni31145:1" vType="random_016" speedFactor="0.97" vaporized="">
        <emissions CO_abs="2134.865877" CO2_abs="114590.643055" HC_abs="12.406786" PMx_abs="2.113331" NOx_abs="47.705672" fuel_abs="49.257768" electricity_abs="0"/>
    </tripinfo>
    <tripinfo id="carIn129809:1" depart="57729.00" departLane="-447569998#1_1" departPos="5.10" departSpeed="0.00" departDelay="1.00" arrival="57847.00" arrivalLane="-315358244_1" arrivalPos="33.95" arrivalSpeed="12.93" duration="118.00" routeLength="706.49" waitingTime="49.00" waitingCount="1" stopTime="0.00" timeLoss="58.47" rerouteNo="1" devices="tripinfo_carIn129809:1 routing_carIn129809:1 emissions_carIn129809:1" vType="default_015" speedFactor="1.02" vaporized="">
        <emissions CO_abs="9926.599207" CO2_abs="280906.428871" HC_abs="51.752891" PMx_abs="5.573229" NOx_abs="118.794918" fuel_abs="120.753523" electricity_abs="0"/>
    </tripinfo>
    <tripinfo id="randUni2407:1" depart="57820.00" departLane="10425609#0_1" departPos="5.10" departSpeed="0.00" departDelay="0.80" arrival="57847.00" arrivalLane="201956810_1" arrivalPos="71.65" arrivalSpeed="13.73" duration="27.00" routeLength="255.78" waitingTime="0.00" waitingCount="0" stopTime="0.00" timeLoss="7.07" rerouteNo="1" devices="tripinfo_randUni2407:1 routing_randUni2407:1 emissions_randUni2407:1" vType="random_016" speedFactor="1.01" vaporized="">
        <emissions CO_abs="1628.474903" CO2_abs="93774.544323" HC_abs="9.625543" PMx_abs="1.726450" NOx_abs="38.969596" fuel_abs="40.309700" electricity_abs="0"/>
    </tripinfo>
    <tripinfo id="carIn12775:1" depart="57676.00" departLane="10425609#0_1" departPos="5.10" departSpeed="0.00" departDelay="0.60" arrival="57852.00" arrivalLane="18809673#0_1" arrivalPos="473.56" arrivalSpeed="12.73" duration="176.00" routeLength="1959.45" waitingTime="3.00" waitingCount="1" stopTime="0.00" timeLoss="24.38" rerouteNo="1" devices="tripinfo_carIn12775:1 routing_carIn12775:1 emissions_carIn12775:1" vType="default_016" speedFactor="0.96" vaporized="">
        <emissions CO_abs="5314.205595" CO2_abs="406721.985698" HC_abs="33.636542" PMx_abs="6.358086" NOx_abs="159.592906" fuel_abs="174.832981" electricity_abs="0"/>
    </tripinfo>
    <tripinfo id="carIn48184:1" depart="57613.00" departLane="-306240162#1_0" departPos="5.10" departSpeed="0.00" departDelay="0.70" arrival="57863.00" arrivalLane="386687235_1" arrivalPos="80.84" arrivalSpeed="14.22" duration="250.00" routeLength="2257.41" waitingTime="69.00" waitingCount="4" stopTime="0.00" timeLoss="108.74" rerouteNo="1" devices="tripinfo_carIn48184:1 routing_carIn48184:1 emissions_carIn48184:1" vType="default_016" speedFactor="1.05" vaporized="">
        <emissions CO_abs="15755.373478" CO2_abs="704526.444305" HC_abs="88.148946" PMx_abs="13.625869" NOx_abs="292.152306" fuel_abs="302.848503" electricity_abs="0"/>
    </tripinfo>
    <tripinfo id="randUni15030:1" depart="57735.00" departLane="386687232#0_1" departPos="5.10" departSpeed="0.00" departDelay="0.10" arrival="57863.00" arrivalLane="26677539_1" arrivalPos="151.98" arrivalSpeed="7.93" duration="128.00" routeLength="919.89" waitingTime="36.00" waitingCount="1" stopTime="0.00" timeLoss="50.15" rerouteNo="1" devices="tripinfo_randUni15030:1 routing_randUni15030:1 emissions_randUni15030:1" vType="random_016" speedFactor="1.07" vaporized="">
        <emissions CO_abs="8944.643865" CO2_abs="311294.928558" HC_abs="47.944465" PMx_abs="5.891598" NOx_abs="129.808536" fuel_abs="133.815322" electricity_abs="0"/>
    </tripinfo>
    <tripinfo id="h16072c2:3" depart="57663.00" departLane="315358254#0_1" departPos="5.10" departSpeed="0.00" departDelay="2.50" arrival="57866.00" arrivalLane="386687235_1" arrivalPos="80.84" arrivalSpeed="11.71" duration="203.00" routeLength="1611.92" waitingTime="38.00" waitingCount="3" stopTime="0.00" timeLoss="64.95" rerouteNo="1" devices="tripinfo_h16072c2:3 routing_h16072c2:3 emissions_h16072c2:3" vType="default_016" speedFactor="0.85" vaporized="">
        <emissions CO_abs="9749.784521" CO2_abs="418226.223949" HC_abs="54.075846" PMx_abs="7.129720" NOx_abs="169.546970" fuel_abs="179.780776" electricity_abs="0"/>
    </tripinfo>
    <tripinfo id="h6541c1:3" depart="57727.00" departLane="201950247#3_1" departPos="5.10" departSpeed="0.00" departDelay="0.00" arrival="57873.00" arrivalLane="32978638#0_2" arrivalPos="49.29" arrivalSpeed="15.87" duration="146.00" routeLength="1180.49" waitingTime="28.00" waitingCount="2" stopTime="0.00" timeLoss="57.43" rerouteNo="1" devices="tripinfo_h6541c1:3 routing_h6541c1:3 emissions_h6541c1:3" vType="default_016" speedFactor="1.16" vaporized="">
        <emissions CO_abs="9128.247209" CO2_abs="404646.929322" HC_abs="51.115585" PMx_abs="7.800227" NOx_abs="169.813781" fuel_abs="173.941880" electricity_abs="0"/>
    </tripinfo>
    <tripinfo id="carIn46110:1" depart="57684.00" departLane="315358244_1" departPos="5.10" departSpeed="0.00" departDelay="1.20" arrival="57875.00" arrivalLane="32978638#0_1" arrivalPos="49.29" arrivalSpeed="11.95" duration="191.00" routeLength="1764.04" waitingTime="30.00" waitingCount="2" stopTime="0.00" timeLoss="53.47" rerouteNo="1" devices="tripinfo_carIn46110:1 routing_carIn46110:1 emissions_carIn46110:1" vType="default_016" speedFactor="0.93" vaporized="">
        <emissions CO_abs="9043.149504" CO2_abs="434734.046192" HC_abs="51.313258" PMx_abs="7.544207" NOx_abs="176.177642" fuel_abs="186.875868" electricity_abs="0"/>
    </tripinfo>
    <tripinfo id="h17890c1:3" depart="57792.00" departLane="386687232#0_1" departPos="5.10" departSpeed="0.00" departDelay="0.00" arrival="57875.00" arrivalLane="32978638#0_2" arrivalPos="49.29" arrivalSpeed="14.91" duration="83.00" routeLength="797.04" waitingTime="12.00" waitingCount="1" stopTime="0.00" timeLoss="30.09" rerouteNo="1" devices="tripinfo_h17890c1:3 routing_h17890c1:3 emissions_h17890c1:3" vType="default_016" speedFactor="1.12" vaporized="">
        <emissions CO_abs="4926.686245" CO2_abs="259036.162320" HC_abs="28.535046" PMx_abs="4.916641" NOx_abs="107.811536" fuel_abs="111.348878" electricity_abs="0"/>
    </tripinfo>
    <tripinfo id="carIn53503:1" depart="57765.00" departLane="-306240162#1_0" departPos="5.10" departSpeed="0.00" departDelay="4.40" arrival="57882.00" arrivalLane="24634510#6_1" arrivalPos="76.64" arrivalSpeed="13.28" duration="117.00" routeLength="1440.47" waitingTime="0.00" waitingCount="0" stopTime="0.00" timeLoss="19.63" rerouteNo="1" devices="tripinfo_carIn53503:1 routing_carIn53503:1 emissions_carIn53503:1" vType="default_016" speedFactor="1.02" vaporized="">
        <emissions CO_abs="4407.261601" CO2_abs="331548.396595" HC_abs="27.850101" PMx_abs="5.833418" NOx_abs="134.087109" fuel_abs="142.518046" electricity_abs="0"/>
    </tripinfo>
    <tripinfo id="h5216c1:1" depart="57664.00" departLane="224892339#0_1" departPos="5.10" departSpeed="0.00" departDelay="0.00" arrival="57883.00" arrivalLane="386687235_1" arrivalPos="80.84" arrivalSpeed="13.65" duration="219.00" routeLength="1823.78" waitingTime="52.00" waitingCount="4" stopTime="0.00" timeLoss="91.37" rerouteNo="1" devices="tripinfo_h5216c1:1 routing_h5216c1:1 emissions_h5216c1:1" vType="default_016" speedFactor="1.00" vaporized="">
        <emissions CO_abs="11992.167419" CO2_abs="551083.829925" HC_abs="67.535478" PMx_abs="10.262793" NOx_abs="227.401403" fuel_abs="236.889700" electricity_abs="0"/>