<?xml version="1.0" encoding="UTF-8"?>

<!-- generated on Thu Nov  4 13:41:54 2021 by Eclipse SUMO sumo Version 1.9.0
<configuration xmlns:xsi="http://www.w3.org/2001/XMLSchema-instance" xsi:noNamespaceSchemaLocation="http://sumo.dlr.de/xsd/sumoConfiguration.xsd">

    <input>
        <net-file value="/mainfs/home/bk2g18/RESCO/environments/ingolstadt21/ingolstadt21.net.xml"/>
        <route-files value="/mainfs/home/bk2g18/RESCO/environments/ingolstadt21/ingolstadt21.rou.xml"/>
    </input>

    <output>
        <tripinfo-output value="/mainfs/home/bk2g18/RESCO/logs/MPLight-tr0-ingolstadt21-21-mplight-pressure/tripinfo_52.xml"/>
        <tripinfo-output.write-unfinished value="true"/>
    </output>

    <time>
        <begin value="57600"/>
        <end value="61200"/>
    </time>

    <processing>
        <time-to-teleport value="-1"/>
    </processing>

    <report>
        <xml-validation value="never"/>
        <xml-validation.routes value="never"/>
        <no-warnings value="true"/>
        <no-step-log value="true"/>
    </report>

    <emissions>
        <device.emissions.probability value="1"/>
    </emissions>

    <traci_server>
        <remote-port value="45398"/>
    </traci_server>

    <random_number>
        <random value="true"/>
    </random_number>

</configuration>
-->

<tripinfos xmlns:xsi="http://www.w3.org/2001/XMLSchema-instance" xsi:noNamespaceSchemaLocation="http://sumo.dlr.de/xsd/tripinfo_file.xsd">
    <tripinfo id="h15454c2:3" depart="57612.00" departLane="24608844_1" departPos="5.10" departSpeed="0.00" departDelay="0.50" arrival="57652.00" arrivalLane="32978638#0_1" arrivalPos="49.29" arrivalSpeed="12.48" duration="40.00" routeLength="354.79" waitingTime="0.00" waitingCount="0" stopTime="0.00" timeLoss="4.68" rerouteNo="1" devices="tripinfo_h15454c2:3 routing_h15454c2:3 emissions_h15454c2:3" vType="default_016" speedFactor="0.98" vaporized="">
        <emissions CO_abs="1723.515617" CO2_abs="97447.235502" HC_abs="10.095436" PMx_abs="1.609050" NOx_abs="39.315812" fuel_abs="41.888739" electricity_abs="0"/>
    </tripinfo>
    <tripinfo id="carIn60260:1" depart="57606.00" departLane="315358254#0_1" departPos="5.10" departSpeed="0.00" departDelay="0.90" arrival="57655.00" arrivalLane="399835085#1_1" arrivalPos="212.23" arrivalSpeed="8.24" duration="49.00" routeLength="430.98" waitingTime="0.00" waitingCount="0" stopTime="0.00" timeLoss="6.87" rerouteNo="1" devices="tripinfo_carIn60260:1 routing_carIn60260:1 emissions_carIn60260:1" vType="default_016" speedFactor="1.10" vaporized="">
        <emissions CO_abs="1932.868095" CO2_abs="111949.479340" HC_abs="11.358017" PMx_abs="1.782883" NOx_abs="44.705194" fuel_abs="48.122746" electricity_abs="0"/>
    </tripinfo>
    <tripinfo id="carIn53971:1" depart="57640.00" departLane="272042143_1" departPos="5.10" departSpeed="0.00" departDelay="0.80" arrival="57696.00" arrivalLane="24634414#1_1" arrivalPos="162.19" arrivalSpeed="6.95" duration="56.00" routeLength="493.04" waitingTime="0.00" waitingCount="0" stopTime="0.00" timeLoss="8.66" rerouteNo="1" devices="tripinfo_carIn53971:1 routing_carIn53971:1 emissions_carIn53971:1" vType="default_016" speedFactor="0.97" vaporized="">
        <emissions CO_abs="2493.153709" CO2_abs="140060.537488" HC_abs="14.624667" PMx_abs="2.443595" NOx_abs="57.414808" fuel_abs="60.206335" electricity_abs="0"/>
    </tripinfo>
    <tripinfo id="carIn22761:1" depart="57616.00" departLane="-306240162#1_0" departPos="5.10" departSpeed="0.00" departDelay="2.10" arrival="57710.00" arrivalLane="399835085#1_1" arrivalPos="212.23" arrivalSpeed="8.42" duration="94.00" routeLength="1093.26" waitingTime="8.00" waitingCount="1" stopTime="0.00" timeLoss="24.51" rerouteNo="1" devices="tripinfo_carIn22761:1 routing_carIn22761:1 emissions_carIn22761:1" vType="default_016" speedFactor="1.12" vaporized="">
        <emissions CO_abs="5311.037710" CO2_abs="313326.308812" HC_abs="31.678862" PMx_abs="6.136305" NOx_abs="128.879675" fuel_abs="134.685401" electricity_abs="0"/>
    </tripinfo>
    <tripinfo id="carIn80064:1" depart="57603.00" departLane="128361109#1_1" departPos="5.10" departSpeed="0.00" departDelay="0.40" arrival="57711.00" arrivalLane="-315358254#1_1" arrivalPos="137.16" arrivalSpeed="14.09" duration="108.00" routeLength="1587.97" waitingTime="0.00" waitingCount="0" stopTime="0.00" timeLoss="19.70" rerouteNo="1" devices="tripinfo_carIn80064:1 routing_carIn80064:1 emissions_carIn80064:1" vType="default_016" speedFactor="1.02" vaporized="">
        <emissions CO_abs="5768.278728" CO2_abs="420472.749603" HC_abs="36.365549" PMx_abs="8.203508" NOx_abs="173.514587" fuel_abs="180.741821" electricity_abs="0"/>
    </tripinfo>
    <tripinfo id="h3688c1:1" depart="57625.00" departLane="201201950#1_1" departPos="5.10" departSpeed="0.00" departDelay="0.00" arrival="57719.00" arrivalLane="32978638#0_1" arrivalPos="49.29" arrivalSpeed="14.90" duration="94.00" routeLength="1089.75" waitingTime="5.00" waitingCount="1" stopTime="0.00" timeLoss="20.54" rerouteNo="1" devices="tripinfo_h3688c1:1 routing_h3688c1:1 emissions_h3688c1:1" vType="default_016" speedFactor="1.09" vaporized="">
        <emissions CO_abs="3638.453575" CO2_abs="275316.016454" HC_abs="22.919682" PMx_abs="4.784278" NOx_abs="110.743179" fuel_abs="118.346300" electricity_abs="0"/>
    </tripinfo>
    <tripinfo id="h7800c1:5" depart="57696.00" departLane="-447569998#1_1" departPos="5.10" departSpeed="0.00" departDelay="0.00" arrival="57723.00" arrivalLane="-447569998#1_1" arrivalPos="180.76" arrivalSpeed="6.48" duration="27.00" routeLength="175.66" waitingTime="0.00" waitingCount="0" stopTime="0.00" timeLoss="3.03" rerouteNo="1" devices="tripinfo_h7800c1:5 routing_h7800c1:5 emissions_h7800c1:5" vType="default_016" speedFactor="0.91" vaporized="">
        <emissions CO_abs="1074.819909" CO2_abs="45036.718286" HC_abs="5.927503" PMx_abs="0.748437" NOx_abs="18.438072" fuel_abs="19.359724" electricity_abs="0"/>
    </tripinfo>
    <tripinfo id="h12244c1:3" depart="57612.00" departLane="315358244_1" departPos="5.10" departSpeed="0.00" departDelay="0.40" arrival="57727.00" arrivalLane="386687235_1" arrivalPos="80.84" arrivalSpeed="13.43" duration="115.00" routeLength="1186.14" waitingTime="14.00" waitingCount="2" stopTime="0.00" timeLoss="33.06" rerouteNo="1" devices="tripinfo_h12244c1:3 routing_h12244c1:3 emissions_h12244c1:3" vType="default_016" speedFactor="1.06" vaporized="">
        <emissions CO_abs="4942.544016" CO2_abs="306235.693001" HC_abs="29.627586" PMx_abs="5.359550" NOx_abs="123.812156" fuel_abs="131.637998" electricity_abs="0"/>
    </tripinfo>
    <tripinfo id="S5R_frequency1.2" depart="57616.00" departLane="315358250#0_1" departPos="12.10" departSpeed="0.00" departDelay="4.40" arrival="57736.00" arrivalLane="386687235_1" arrivalPos="80.84" arrivalSpeed="13.80" duration="120.00" routeLength="1115.62" waitingTime="7.00" waitingCount="2" stopTime="0.00" timeLoss="38.64" rerouteNo="1" devices="tripinfo_S5R_frequency1.2 routing_S5R_frequency1.2 emissions_S5R_frequency1.2" vType="bus" speedFactor="1.00" vaporized="">
        <emissions CO_abs="2460.210303" CO2_abs="1505803.994191" HC_abs="509.656870" PMx_abs="262.210684" NOx_abs="11794.547166" fuel_abs="642.184893" electricity_abs="0"/>
    </tripinfo>
    <tripinfo id="h317c2:1" depart="57707.00" departLane="-32978638#0_1" departPos="5.10" departSpeed="0.00" departDelay="0.10" arrival="57738.00" arrivalLane="-266565295#5_1" arrivalPos="172.76" arrivalSpeed="14.84" duration="31.00" routeLength="370.53" waitingTime="0.00" waitingCount="0" stopTime="0.00" timeLoss="5.78" rerouteNo="1" devices="tripinfo_h317c2:1 routing_h317c2:1 emissions_h317c2:1" vType="default_016" speedFactor="1.09" vaporized="">
        <emissions CO_abs="1765.460003" CO2_abs="115375.347619" HC_abs="10.756198" PMx_abs="2.181285" NOx_abs="47.924287" fuel_abs="49.594714" electricity_abs="0"/>
    </tripinfo>
    <tripinfo id="h9563c2:5" depart="57631.00" departLane="315358244_1" departPos="5.10" departSpeed="0.00" departDelay="0.70" arrival="57741.00" arrivalLane="386687235_1" arrivalPos="80.84" arrivalSpeed="12.85" duration="110.00" routeLength="1186.14" waitingTime="0.00" waitingCount="0" stopTime="0.00" timeLoss="20.98" rerouteNo="1" devices="tripinfo_h9563c2:5 routing_h9563c2:5 emissions_h9563c2:5" vType="default_016" speedFactor="0.97" vaporized="">
        <emissions CO_abs="4139.891161" CO2_abs="284605.759059" HC_abs="25.500062" PMx_abs="4.745735" NOx_abs="113.779578" fuel_abs="122.340148" electricity_abs="0"/>
    </tripinfo>
    <tripinfo id="h7181c1:1" depart="57660.00" departLane="315358254#0_1" departPos="5.10" departSpeed="0.00" departDelay="0.10" arrival="57753.00" arrivalLane="306240162#0_0" arrivalPos="220.43" arrivalSpeed="14.39" duration="93.00" routeLength="932.35" waitingTime="17.00" waitingCount="2" stopTime="0.00" timeLoss="35.83" rerouteNo="1" devices="tripinfo_h7181c1:1 routing_h7181c1:1 emissions_h7181c1:1" vType="default_016" speedFactor="0.90" vaporized="">
        <emissions CO_abs="6104.853555" CO2_abs="308577.123892" HC_abs="35.144645" PMx_abs="6.090761" NOx_abs="129.153709" fuel_abs="132.644410" electricity_abs="0"/>
    </tripinfo>
    <tripinfo id="carIn27009:1" depart="57673.00" departLane="-447569998#1_1" departPos="5.10" departSpeed="0.00" departDelay="0.50" arrival="57756.00" arrivalLane="-26677539_1" arrivalPos="152.75" arrivalSpeed="9.02" duration="83.00" routeLength="699.63" waitingTime="0.00" waitingCount="0" stopTime="0.00" timeLoss="10.46" rerouteNo="1" devices="tripinfo_carIn27009:1 routing_carIn27009:1 emissions_carIn27009:1" vType="default_015" speedFactor="1.15" vaporized="">
        <emissions CO_abs="3058.569493" CO2_abs="169308.373954" HC_abs="17.810583" PMx_abs="2.609257" NOx_abs="67.451148" fuel_abs="72.779328" electricity_abs="0"/>
    </tripinfo>
    <tripinfo id="h5979c1:5" depart="57669.00" departLane="399835085#1_1" departPos="5.10" departSpeed="0.00" departDelay="0.00" arrival="57758.00" arrivalLane="-315358254#1_1" arrivalPos="137.16" arrivalSpeed="15.84" duration="89.00" routeLength="659.33" waitingTime="12.00" waitingCount="1" stopTime="0.00" timeLoss="24.36" rerouteNo="1" devices="tripinfo_h5979c1:5 routing_h5979c1:5 emissions_h5979c1:5" vType="default_016" speedFactor="1.14" vaporized="">
        <emissions CO_abs="5407.444976" CO2_abs="227109.120697" HC_abs="29.890140" PMx_abs="3.980029" NOx_abs="93.215970" fuel_abs="97.626125" electricity_abs="0"/>
    </tripinfo>
    <tripinfo id="h3568c1:3" depart="57656.00" departLane="266565295#5_1" departPos="5.10" departSpeed="0.00" departDelay="0.80" arrival="57759.00" arrivalLane="-24634415_1" arrivalPos="62.03" arrivalSpeed="10.70" duration="103.00" routeLength="807.40" waitingTime="9.00" waitingCount="1" stopTime="0.00" timeLoss="25.99" rerouteNo="1" devices="tripinfo_h3568c1:3 routing_h3568c1:3 emissions_h3568c1:3" vType="default_016" speedFactor="0.85" vaporized="">
        <emissions CO_abs="4542.910797" CO2_abs="234501.338811" HC_abs="26.152274" PMx_abs="4.087931" NOx_abs="96.131103" fuel_abs="100.802917" electricity_abs="0"/>
    </tripinfo>
    <tripinfo id="carIn30817:1" depart="57681.00" departLane="315358244_1" departPos="5.10" departSpeed="0.00" departDelay="0.20" arrival="57762.00" arrivalLane="447569997#1_1" arrivalPos="180.93" arrivalSpeed="9.00" duration="81.00" routeLength="718.04" waitingTime="15.00" waitingCount="2" stopTime="0.00" timeLoss="26.70" rerouteNo="1" devices="tripinfo_carIn30817:1 routing_carIn30817:1 emissions_carIn30817:1" vType="default_016" speedFactor="1.14" vaporized="">
        <emissions CO_abs="3875.008604" CO2_abs="200500.313102" HC_abs="22.355843" PMx_abs="3.607242" NOx_abs="81.889757" fuel_abs="86.187139" electricity_abs="0"/>
    </tripinfo>
    <tripinfo id="carIn121703:1" depart="57647.00" departLane="386687232#0_1" departPos="5.10" departSpeed="0.00" departDelay="0.30" arrival="57774.00" arrivalLane="-315358244_1" arrivalPos="33.95" arrivalSpeed="13.95" duration="127.00" routeLength="1157.39" waitingTime="30.00" waitingCount="2" stopTime="0.00" timeLoss="48.21" rerouteNo="1" devices="tripinfo_carIn121703:1 routing_carIn121703:1 emissions_carIn121703:1" vType="default_016" speedFactor="1.07" vaporized="">
        <emissions CO_abs="7036.103765" CO2_abs="324961.230304" HC_abs="39.593535" PMx_abs="5.866356" NOx_abs="132.373942" fuel_abs="139.688608" electricity_abs="0"/>
    </tripinfo>
    <tripinfo id="h330c1:1" depart="57736.00" departLane="-32978638#0_1" departPos="5.10" departSpeed="0.00" departDelay="0.20" arrival="57775.00" arrivalLane="-266565295#5_1" arrivalPos="172.76" arrivalSpeed="13.06" duration="39.00" routeLength="370.53" waitingTime="1.00" waitingCount="1" stopTime="0.00" timeLoss="11.79" rerouteNo="1" devices="tripinfo_h330c1:1 routing_h330c1:1 emissions_h330c1:1" vType="default_016" speedFactor="1.02" vaporized="">
        <emissions CO_abs="2068.134938" CO2_abs="124738.539839" HC_abs="12.313114" PMx_abs="2.238429" NOx_abs="51.149047" fuel_abs="53.619838" electricity_abs="0"/>
    </tripinfo>
    <tripinfo id="h645c1:1" depart="57622.00" departLane="266565295#5_1" departPos="5.10" departSpeed="0.00" departDelay="0.40" arrival="57776.00" arrivalLane="-315358244_2" arrivalPos="33.95" arrivalSpeed="13.41" duration="154.00" routeLength="1910.83" waitingTime="1.00" waitingCount="1" stopTime="0.00" timeLoss="17.31" rerouteNo="1" devices="tripinfo_h645c1:1 routing_h645c1:1 emissions_h645c1:1" vType="default_016" speedFactor="1.01" vaporized="">
        <emissions CO_abs="4215.022578" CO2_abs="375444.175025" HC_abs="27.935080" PMx_abs="5.903494" NOx_abs="146.533008" fuel_abs="161.387402" electricity_abs="0"/>
    </tripinfo>
    <tripinfo id="h3326c1:2" depart="57656.00" departLane="22716069#0_1" departPos="5.10" departSpeed="0.00" departDelay="0.00" arrival="57786.00" arrivalLane="24634517#13_1" arrivalPos="111.62" arrivalSpeed="11.00" duration="130.00" routeLength="1312.81" waitingTime="0.00" waitingCount="0" stopTime="0.00" timeLoss="16.00" rerouteNo="1" devices="tripinfo_h3326c1:2 routing_h3326c1:2 emissions_h3326c1:2" vType="default_016" speedFactor="0.85" vaporized="">
        <emissions CO_abs="4406.466930" CO2_abs="300256.405919" HC_abs="27.015470" PMx_abs="4.708056" NOx_abs="119.015998" fuel_abs="129.068105" electricity_abs="0"/>
    </tripinfo>
    <tripinfo id="h3154c1:1" depart="57658.00" departLane="24634507_1" departPos="5.10" departSpeed="0.00" departDelay="0.00" arrival="57786.00" arrivalLane="-266565295#5_1" arrivalPos="172.76" arrivalSpeed="15.00" duration="128.00" routeLength="1206.22" waitingTime="24.00" waitingCount="2" stopTime="0.00" timeLoss="45.99" rerouteNo="1" devices="tripinfo_h3154c1:1 routing_h3154c1:1 emissions_h3154c1:1" vType="default_016" speedFactor="1.09" vaporized="">
        <emissions CO_abs="7688.968576" CO2_abs="371720.271113" HC_abs="43.813291" PMx_abs="7.202880" NOx_abs="155.534215" fuel_abs="159.787416" electricity_abs="0"/>
    </tripinfo>
    <tripinfo id="carIn28951:1" depart="57606.00" departLane="10425609#0_1" departPos="5.10" departSpeed="0.00" departDelay="0.20" arrival="57787.00" arrivalLane="-128361102#1_1" arrivalPos="274.68" arrivalSpeed="14.17" duration="181.00" routeLength="2113.04" waitingTime="10.00" waitingCount="1" stopTime="0.00" timeLoss="38.02" rerouteNo="1" devices="tripinfo_carIn28951:1 routing_carIn28951:1 emissions_carIn28951:1" vType="default_016" speedFactor="1.09" vaporized="">
        <emissions CO_abs="6928.368047" CO2_abs="504909.715944" HC_abs="43.244255" PMx_abs="8.782800" NOx_abs="203.298054" fuel_abs="217.038778" electricity_abs="0"/>
    </tripinfo>
    <tripinfo id="h11737c1:1" depart="57665.00" departLane="272042143_1" departPos="5.10" departSpeed="0.00" departDelay="1.50" arrival="57789.00" arrivalLane="-315358254#1_1" arrivalPos="137.16" arrivalSpeed="16.32" duration="124.00" routeLength="1596.88" waitingTime="7.00" waitingCount="1" stopTime="0.00" timeLoss="25.21" rerouteNo="1" devices="tripinfo_h11737c1:1 routing_h11737c1:1 emissions_h11737c1:1" vType="default_016" speedFactor="1.18" vaporized="">
        <emissions CO_abs="5091.599331" CO2_abs="382765.068195" HC_abs="31.904298" PMx_abs="6.763050" NOx_abs="153.425308" fuel_abs="164.533903" electricity_abs="0"/>
    </tripinfo>
    <tripinfo id="carIn12365:1" depart="57713.00" departLane="315358244_1" departPos="5.10" departSpeed="0.00" departDelay="0.50" arrival="57789.00" arrivalLane="447569997#1_1" arrivalPos="180.93" arrivalSpeed="6.42" duration="76.00" routeLength="718.04" waitingTime="0.00" waitingCount="0" stopTime="0.00" timeLoss="8.02" rerouteNo="1" devices="tripinfo_carIn12365:1 routing_carIn12365:1 emissions_carIn12365:1" vType="default_016" speedFactor="0.91" vaporized="">
        <emissions CO_abs="2409.332117" CO2_abs="146460.365536" HC_abs="14.352390" PMx_abs="2.300477" NOx_abs="58.193623" fuel_abs="62.957602" electricity_abs="0"/>
    </tripinfo>
    <tripinfo id="carIn82278:1" depart="57702.00" departLane="-306240162#1_0" departPos="5.10" departSpeed="0.00" departDelay="0.70" arrival="57798.00" arrivalLane="399835085#1_1" arrivalPos="212.23" arrivalSpeed="7.30" duration="96.00" routeLength="1093.26" waitingTime="4.00" waitingCount="1" stopTime="0.00" timeLoss="20.39" rerouteNo="1" devices="tripinfo_carIn82278:1 routing_carIn82278:1 emissions_carIn82278:1" vType="default_016" speedFactor="1.03" vaporized="">
        <emissions CO_abs="4517.836100" CO2_abs="293589.774570" HC_abs="27.498359" PMx_abs="5.365770" NOx_abs="118.619594" fuel_abs="126.201673" electricity_abs="0"/>
    </tripinfo>
    <tripinfo id="carIn107282:1" depart="57749.00" departLane="-447569998#1_1" departPos="5.10" departSpeed="0.00" departDelay="0.00" arrival="57799.00" arrivalLane="315358242#0_1" arrivalPos="165.37" arrivalSpeed="12.57" duration="50.00" routeLength="448.50" waitingTime="0.00" waitingCount="0" stopTime="0.00" timeLoss="4.88" rerouteNo="1" devices="tripinfo_carIn107282:1 routing_carIn107282:1 emissions_carIn107282:1" vType="default_016" speedFactor="0.93" vaporized="">
        <emissions CO_abs="2026.824338" CO2_abs="111686.338548" HC_abs="11.802375" PMx_abs="1.767918" NOx_abs="44.612649" fuel_abs="48.009729" electricity_abs="0"/>
    </tripinfo>
    <tripinfo id="carIn50326:1" depart="57651.00" departLane="128361102#0_1" departPos="5.10" departSpeed="0.00" departDelay="0.30" arrival="57800.00" arrivalLane="18809673#0_1" arrivalPos="473.56" arrivalSpeed="14.28" duration="149.00" routeLength="1591.07" waitingTime="7.00" waitingCount="1" stopTime="0.00" timeLoss="26.94" rerouteNo="1" devices="tripinfo_carIn50326:1 routing_carIn50326:1 emissions_carIn50326:1" vType="default_016" speedFactor="1.06" vaporized="">
        <emissions CO_abs="5701.707507" CO2_abs="362027.362545" HC_abs="34.345401" PMx_abs="6.128732" NOx_abs="145.372942" fuel_abs="155.620679" electricity_abs="0"/>
    </tripinfo>
    <tripinfo id="h17600c1:1" depart="57662.00" departLane="272042143_1" departPos="5.10" departSpeed="0.00" departDelay="0.30" arrival="57806.00" arrivalLane="201238729#3_1" arrivalPos="431.02" arrivalSpeed="15.47" duration="144.00" routeLength="2100.26" waitingTime="1.00" waitingCount="1" stopTime="0.00" timeLoss="17.64" rerouteNo="1" devices="tripinfo_h17600c1:1 routing_h17600c1:1 emissions_h17600c1:1" vType="default_016" speedFactor="1.20" vaporized="">
        <emissions CO_abs="4556.878336" CO2_abs="414953.967947" HC_abs="30.172634" PMx_abs="7.059330" NOx_abs="163.257997" fuel_abs="178.370222" electricity_abs="0"/>
    </tripinfo>
    <tripinfo id="carIn86816:1" depart="57617.00" departLane="128361102#0_1" departPos="5.10" departSpeed="0.00" departDelay="0.80" arrival="57807.00" arrivalLane="201956811#0_1" arrivalPos="40.40" arrivalSpeed="12.56" duration="190.00" routeLength="2067.33" waitingTime="7.00" waitingCount="3" stopTime="0.00" timeLoss="37.12" rerouteNo="1" devices="tripinfo_carIn86816:1 routing_carIn86816:1 emissions_carIn86816:1" vType="default_016" speedFactor="0.99" vaporized="">
        <emissions CO_abs="6269.693033" CO2_abs="451760.068301" HC_abs="39.112065" PMx_abs="7.487827" NOx_abs="180.102333" fuel_abs="194.192649" electricity_abs="0"/>
    </tripinfo>
    <tripinfo id="carIn118591:1" depart="57689.00" departLane="315358244_1" departPos="5.10" departSpeed="0.00" departDelay="0.20" arrival="57808.00" arrivalLane="386687235_1" arrivalPos="80.84" arrivalSpeed="13.18" duration="119.00" routeLength="1186.14" waitingTime="16.00" waitingCount="1" stopTime="0.00" timeLoss="32.31" rerouteNo="1" devices="tripinfo_carIn118591:1 routing_carIn118591:1 emissions_carIn118591:1" vType="default_016" speedFactor="1.00" vaporized="">
        <emissions CO_abs="5367.861473" CO2_abs="303247.174746" HC_abs="31.531899" PMx_abs="5.240221" NOx_abs="122.373671" fuel_abs="130.353858" electricity_abs="0"/>
    </tripinfo>
    <tripinfo id="carIn102915:1" depart="57643.00" departLane="128361102#0_1" departPos="5.10" departSpeed="0.00" departDelay="0.40" arrival="57809.00" arrivalLane="201956811#0_1" arrivalPos="40.40" arrivalSpeed="13.25" duration="166.00" routeLength="2067.33" waitingTime="0.00" waitingCount="0" stopTime="0.00" timeLoss="21.70" rerouteNo="1" devices="tripinfo_carIn102915:1 routing_carIn102915:1 emissions_carIn102915:1" vType="default_016" speedFactor="1.05" vaporized="">
        <emissions CO_abs="5422.983264" CO2_abs="441452.004148" HC_abs="34.881453" PMx_abs="7.237087" NOx_abs="174.439560" fuel_abs="189.761245" electricity_abs="0"/>
    </tripinfo>
    <tripinfo id="carIn129809:1" depart="57729.00" departLane="-447569998#1_1" departPos="5.10" departSpeed="0.00" departDelay="1.00" arrival="57816.00" arrivalLane="-315358244_1" arrivalPos="33.95" arrivalSpeed="13.78" duration="87.00" routeLength="706.49" waitingTime="16.00" waitingCount="1" stopTime="0.00" timeLoss="29.90" rerouteNo="1" devices="tripinfo_carIn129809:1 routing_carIn129809:1 emissions_carIn129809:1" vType="default_015" speedFactor="1.07" vaporized="">
        <emissions CO_abs="4494.608620" CO2_abs="192381.000921" HC_abs="24.934668" PMx_abs="3.431984" NOx_abs="78.687896" fuel_abs="82.697643" electricity_abs="0"/>
    </tripinfo>
    <tripinfo id="carIn81046:1" depart="57610.00" departLane="124812856#0_1" departPos="5.10" departSpeed="0.00" departDelay="1.50" arrival="57818.00" arrivalLane="-128361102#1_1" arrivalPos="274.68" arrivalSpeed="13.00" duration="208.00" routeLength="2250.49" waitingTime="7.00" waitingCount="2" stopTime="0.00" timeLoss="35.59" rerouteNo="1" devices="tripinfo_carIn81046:1 routing_carIn81046:1 emissions_carIn81046:1" vType="default_016" speedFactor="0.95" vaporized="">
        <emissions CO_abs="7083.055754" CO2_abs="499332.101121" HC_abs="43.916979" PMx_abs="8.276243" NOx_abs="199.699260" fuel_abs="214.641931" electricity_abs="0"/>
    </tripinfo>
    <tripinfo id="carIn126288:1" depart="57674.00" departLane="272042143_1" departPos="5.10" departSpeed="0.00" departDelay="0.00" arrival="57818.00" arrivalLane="-315358254#1_1" arrivalPos="137.16" arrivalSpeed="13.38" duration="144.00" routeLength="1596.88" waitingTime="9.00" waitingCount="1" stopTime="0.00" timeLoss="25.37" rerouteNo="1" devices="tripinfo_carIn126288:1 routing_carIn126288:1 emissions_carIn126288:1" vType="default_016" speedFactor="0.98" vaporized="">
        <emissions CO_abs="4848.569409" CO2_abs="349675.101966" HC_abs="30.184419" PMx_abs="5.717480" NOx_abs="138.563971" fuel_abs="150.310756" electricity_abs="0"/>
    </tripinfo>
    <tripinfo id="carIn107084:1" depart="57601.00" departLane="124812856#0_1" departPos="5.10" departSpeed="0.00" departDelay="0.70" arrival="57820.00" arrivalLane="-128361102#1_1" arrivalPos="274.68" arrivalSpeed="13.87" duration="219.00" routeLength="2250.49" waitingTime="11.00" waitingCount="3" stopTime="0.00" timeLoss="57.14" rerouteNo="1" devices="tripinfo_carIn107084:1 routing_carIn107084:1 emissions_carIn107084:1" vType="default_016" speedFactor="1.02" vaporized="">
        <emissions CO_abs="8397.309203" CO2_abs="563572.503817" HC_abs="51.462523" PMx_abs="9.854418" NOx_abs="229.015115" fuel_abs="242.255711" electricity_abs="0"/>
    </tripinfo>
    <tripinfo id="carIn81860:1" depart="57712.00" departLane="128361102#0_1" departPos="5.10" departSpeed="0.00" departDelay="0.60" arrival="57821.00" arrivalLane="-24634517#17_1" arrivalPos="6.43" arrivalSpeed="8.27" duration="109.00" routeLength="1229.64" waitingTime="7.00" waitingCount="1" stopTime="0.00" timeLoss="24.99" rerouteNo="1" devices="tripinfo_carIn81860:1 routing_carIn81860:1 emissions_carIn81860:1" vType="default_016" speedFactor="1.09" vaporized="">
        <emissions CO_abs="3854.374426" CO2_abs="288351.795084" HC_abs="24.194637" PMx_abs="4.903156" NOx_abs="115.147524" fuel_abs="123.950029" electricity_abs="0"/>
    </tripinfo>
    <tripinfo id="carIn77943:1" depart="57607.00" departLane="124812856#0_1" departPos="5.10" departSpeed="0.00" departDelay="1.50" arrival="57822.00" arrivalLane="-128361102#1_1" arrivalPos="274.68" arrivalSpeed="13.09" duration="215.00" routeLength="2250.49" waitingTime="6.00" waitingCount="1" stopTime="0.00" timeLoss="40.56" rerouteNo="1" devices="tripinfo_carIn77943:1 routing_carIn77943:1 emissions_carIn77943:1" vType="default_016" speedFactor="0.94" vaporized="">
        <emissions CO_abs="7141.883894" CO2_abs="504602.652589" HC_abs="44.286740" PMx_abs="8.278500" NOx_abs="201.590519" fuel_abs="216.907602" electricity_abs="0"/>
    </tripinfo>
    <tripinfo id="carIn48184:1" depart="57613.00" departLane="-306240162#1_0" departPos="5.10" departSpeed="0.00" departDelay="0.70" arrival="57824.00" arrivalLane="386687235_1" arrivalPos="80.84" arrivalSpeed="13.17" duration="211.00" routeLength="2257.41" waitingTime="40.00" waitingCount="2" stopTime="0.00" timeLoss="66.65" rerouteNo="1" devices="tripinfo_carIn48184:1 routing_carIn48184:1 emissions_carIn48184:1" vType="default_016" speedFactor="1.03" vaporized="">
        <emissions CO_abs="11217.051181" CO2_abs="581693.705806" HC_abs="64.785890" PMx_abs="10.898585" NOx_abs="237.925823" fuel_abs="250.046629" electricity_abs="0"/>
    </tripinfo>
    <tripinfo id="h16072c2:3" depart="57663.00" departLane="315358254#0_1" departPos="5.10" departSpeed="0.00" departDelay="2.50" arrival="57824.00" arrivalLane="386687235_2" arrivalPos="80.84" arrivalSpeed="13.02" duration="161.00" routeLength="1611.92" waitingTime="15.00" waitingCount="2" stopTime="0.00" timeLoss="38.61" rerouteNo="1" devices="tripinfo_h16072c2:3 routing_h16072c2:3 emissions_h16072c2:3" vType="default_016" speedFactor="0.96" vaporized="">
        <emissions CO_abs="5542.327545" CO2_abs="365794.744978" HC_abs="33.779534" PMx_abs="6.088219" NOx_abs="146.270923" fuel_abs="157.240105" electricity_abs="0"/>
    </tripinfo>
    <tripinfo id="carIn82220:1" depart="57619.00" departLane="-306240162#1_0" departPos="5.10" departSpeed="0.00" departDelay="3.50" arrival="57826.00" arrivalLane="386687235_1" arrivalPos="80.84" arrivalSpeed="11.86" duration="207.00" routeLength="2257.41" waitingTime="20.00" waitingCount="2" stopTime="0.00" timeLoss="47.01" rerouteNo="1" devices="tripinfo_carIn82220:1 routing_carIn82220:1 emissions_carIn82220:1" vType="default_016" speedFactor="0.93" vaporized="">
        <emissions CO_abs="8642.743698" CO2_abs="532164.577638" HC_abs="51.678413" PMx_abs="9.027015" NOx_abs="211.685569" fuel_abs="228.756086" electricity_abs="0"/>
    </tripinfo>
    <tripinfo id="randUni33724:1" depart="57646.00" departLane="128361102#0_1" departPos="5.10" departSpeed="0.00" departDelay="1.20" arrival="57826.00" arrivalLane="201956811#0_1" arrivalPos="40.40" arrivalSpeed="13.24" duration="180.00" routeLength="2067.33" waitingTime="4.00" waitingCount="1" stopTime="0.00" timeLoss="27.07" rerouteNo="1" devices="tripinfo_randUni33724:1 routing_randUni33724:1 emissions_randUni33724:1" vType="random_016" speedFactor="0.99" vaporized="">
        <emissions CO_abs="5653.705154" CO2_abs="453350.523171" HC_abs="36.285814" PMx_abs="7.344156" NOx_abs="179.343573" fuel_abs="194.876054" electricity_abs="0"/>
    </tripinfo>
    <tripinfo id="carIn100288:1" depart="57664.00" departLane="128361102#0_1" departPos="5.10" departSpeed="0.00" departDelay="0.60" arrival="57828.00" arrivalLane="201956811#0_1" arrivalPos="40.40" arrivalSpeed="14.64" duration="164.00" routeLength="2067.33" waitingTime="0.00" waitingCount="0" stopTime="0.00" timeLoss="26.89" rerouteNo="1" devices="tripinfo_carIn100288:1 routing_carIn100288:1 emissions_carIn100288:1" vType="default_016" speedFactor="1.11" vaporized="">
        <emissions CO_abs="6010.459326" CO2_abs="483601.965225" HC_abs="38.488216" PMx_abs="8.172780" NOx_abs="192.372883" fuel_abs="207.879402" electricity_abs="0"/>
    </tripinfo>
    <tripinfo id="carIn85747:1" depart="57673.00" departLane="128361109#1_1" departPos="5.10" departSpeed="0.00" departDelay="0.70" arrival="57828.00" arrivalLane="386687235_1" arrivalPos="80.84" arrivalSpeed="13.46" duration="155.00" routeLength="2088.57" waitingTime="0.00" waitingCount="0" stopTime="0.00" timeLoss="12.39" rerouteNo="1" devices="tripinfo_carIn85747:1 routing_carIn85747:1 emissions_carIn85747:1" vType="default_016" speedFactor="1.06" vaporized="">
        <emissions CO_abs="3381.737597" CO2_abs="361053.711402" HC_abs="23.662597" PMx_abs="5.506223" NOx_abs="138.605763" fuel_abs="155.201341" electricity_abs="0"/>
    </tripinfo>
    <tripinfo id="h3864c1:3" depart="57678.00" departLane="24693977#1_1" departPos="5.10" departSpeed="0.00" departDelay="0.00" arrival="57832.00" arrivalLane="201956820_2" arrivalPos="48.33" arrivalSpeed="14.11" duration="154.00" routeLength="1574.85" waitingTime="13.00" waitingCount="1" stopTime="0.00" timeLoss="36.23" rerouteNo="1" devices="tripinfo_h3864c1:3 routing_h3864c1:3 emissions_h3864c1:3" vType="default_016" speedFactor="1.09" vaporized="">
        <emissions CO_abs="6886.533112" CO2_abs="421661.951620" HC_abs="41.223252" PMx_abs="7.371589" NOx_abs="170.898464" fuel_abs="181.254996" electricity_abs="0"/>