<?xml version="1.0" encoding="UTF-8"?>

<!-- generated on Thu Nov  4 13:44:36 2021 by Eclipse SUMO sumo Version 1.9.0
<configuration xmlns:xsi="http://www.w3.org/2001/XMLSchema-instance" xsi:noNamespaceSchemaLocation="http://sumo.dlr.de/xsd/sumoConfiguration.xsd">

    <input>
        <net-file value="/mainfs/home/bk2g18/RESCO/environments/ingolstadt21/ingolstadt21.net.xml"/>
        <route-files value="/mainfs/home/bk2g18/RESCO/environments/ingolstadt21/ingolstadt21.rou.xml"/>
    </input>

    <output>
        <tripinfo-output value="/mainfs/home/bk2g18/RESCO/logs/MPLight-tr0-ingolstadt21-21-mplight-pressure/tripinfo_57.xml"/>
        <tripinfo-output.write-unfinished value="true"/>
    </output>

    <time>
        <begin value="57600"/>
        <end value="61200"/>
    </time>

    <processing>
        <time-to-teleport value="-1"/>
    </processing>

    <report>
        <xml-validation value="never"/>
        <xml-validation.routes value="never"/>
        <no-warnings value="true"/>
        <no-step-log value="true"/>
    </report>

    <emissions>
        <device.emissions.probability value="1"/>
    </emissions>

    <traci_server>
        <remote-port value="45322"/>
    </traci_server>

    <random_number>
        <random value="true"/>
    </random_number>

</configuration>
-->

<tripinfos xmlns:xsi="http://www.w3.org/2001/XMLSchema-instance" xsi:noNamespaceSchemaLocation="http://sumo.dlr.de/xsd/tripinfo_file.xsd">
    <tripinfo id="carIn60260:1" depart="57606.00" departLane="315358254#0_1" departPos="5.10" departSpeed="0.00" departDelay="0.90" arrival="57656.00" arrivalLane="399835085#1_1" arrivalPos="212.23" arrivalSpeed="7.79" duration="50.00" routeLength="430.98" waitingTime="0.00" waitingCount="0" stopTime="0.00" timeLoss="6.79" rerouteNo="1" devices="tripinfo_carIn60260:1 routing_carIn60260:1 emissions_carIn60260:1" vType="default_016" speedFactor="1.08" vaporized="">
        <emissions CO_abs="1895.910129" CO2_abs="105141.336286" HC_abs="11.089520" PMx_abs="1.847369" NOx_abs="43.289022" fuel_abs="45.195979" electricity_abs="0"/>
    </tripinfo>
    <tripinfo id="h15454c2:3" depart="57612.00" departLane="24608844_1" departPos="5.10" departSpeed="0.00" departDelay="0.50" arrival="57671.00" arrivalLane="32978638#0_1" arrivalPos="49.29" arrivalSpeed="9.04" duration="59.00" routeLength="354.79" waitingTime="0.00" waitingCount="0" stopTime="0.00" timeLoss="12.75" rerouteNo="1" devices="tripinfo_h15454c2:3 routing_h15454c2:3 emissions_h15454c2:3" vType="default_016" speedFactor="0.74" vaporized="">
        <emissions CO_abs="2745.809317" CO2_abs="110823.946085" HC_abs="15.063773" PMx_abs="1.946703" NOx_abs="45.993638" fuel_abs="47.639304" electricity_abs="0"/>
    </tripinfo>
    <tripinfo id="carIn53971:1" depart="57640.00" departLane="272042143_1" departPos="5.10" departSpeed="0.00" departDelay="0.80" arrival="57692.00" arrivalLane="24634414#1_1" arrivalPos="162.19" arrivalSpeed="8.14" duration="52.00" routeLength="493.04" waitingTime="0.00" waitingCount="0" stopTime="0.00" timeLoss="7.65" rerouteNo="1" devices="tripinfo_carIn53971:1 routing_carIn53971:1 emissions_carIn53971:1" vType="default_016" speedFactor="1.03" vaporized="">
        <emissions CO_abs="2204.759329" CO2_abs="133298.913320" HC_abs="13.131986" PMx_abs="2.227602" NOx_abs="53.820348" fuel_abs="57.299811" electricity_abs="0"/>
    </tripinfo>
    <tripinfo id="h7800c1:5" depart="57696.00" departLane="-447569998#1_1" departPos="5.10" departSpeed="0.00" departDelay="0.00" arrival="57717.00" arrivalLane="-447569998#1_2" arrivalPos="180.76" arrivalSpeed="9.58" duration="21.00" routeLength="175.66" waitingTime="0.00" waitingCount="0" stopTime="0.00" timeLoss="3.18" rerouteNo="1" devices="tripinfo_h7800c1:5 routing_h7800c1:5 emissions_h7800c1:5" vType="default_016" speedFactor="1.20" vaporized="">
        <emissions CO_abs="1017.882418" CO2_abs="52855.917849" HC_abs="5.853084" PMx_abs="0.856872" NOx_abs="21.358409" fuel_abs="22.720766" electricity_abs="0"/>
    </tripinfo>
    <tripinfo id="h3688c1:1" depart="57625.00" departLane="201201950#1_1" departPos="5.10" departSpeed="0.00" departDelay="0.00" arrival="57720.00" arrivalLane="32978638#0_1" arrivalPos="49.29" arrivalSpeed="13.65" duration="95.00" routeLength="1089.75" waitingTime="2.00" waitingCount="1" stopTime="0.00" timeLoss="17.73" rerouteNo="1" devices="tripinfo_h3688c1:1 routing_h3688c1:1 emissions_h3688c1:1" vType="default_016" speedFactor="1.03" vaporized="">
        <emissions CO_abs="3737.910240" CO2_abs="263911.899199" HC_abs="23.206535" PMx_abs="4.671154" NOx_abs="107.349907" fuel_abs="113.444205" electricity_abs="0"/>
    </tripinfo>
    <tripinfo id="carIn80064:1" depart="57603.00" departLane="128361109#1_1" departPos="5.10" departSpeed="0.00" departDelay="0.40" arrival="57723.00" arrivalLane="-315358254#1_1" arrivalPos="137.16" arrivalSpeed="14.62" duration="120.00" routeLength="1587.97" waitingTime="10.00" waitingCount="1" stopTime="0.00" timeLoss="38.54" rerouteNo="1" devices="tripinfo_carIn80064:1 routing_carIn80064:1 emissions_carIn80064:1" vType="default_016" speedFactor="1.10" vaporized="">
        <emissions CO_abs="8405.803568" CO2_abs="516419.120761" HC_abs="50.715694" PMx_abs="10.553704" NOx_abs="216.574090" fuel_abs="221.985095" electricity_abs="0"/>
    </tripinfo>
    <tripinfo id="h4538c1:1" depart="57701.00" departLane="-10427692#1_1" departPos="5.10" departSpeed="0.00" departDelay="0.00" arrival="57743.00" arrivalLane="-128361102#1_1" arrivalPos="274.68" arrivalSpeed="15.04" duration="42.00" routeLength="440.74" waitingTime="3.00" waitingCount="1" stopTime="0.00" timeLoss="14.03" rerouteNo="1" devices="tripinfo_h4538c1:1 routing_h4538c1:1 emissions_h4538c1:1" vType="default_016" speedFactor="1.15" vaporized="">
        <emissions CO_abs="1947.112473" CO2_abs="122264.306525" HC_abs="11.621512" PMx_abs="2.162231" NOx_abs="49.530719" fuel_abs="52.556275" electricity_abs="0"/>
    </tripinfo>
    <tripinfo id="h3568c1:3" depart="57656.00" departLane="266565295#5_1" departPos="5.10" departSpeed="0.00" departDelay="0.80" arrival="57747.00" arrivalLane="-24634415_1" arrivalPos="62.03" arrivalSpeed="13.82" duration="91.00" routeLength="807.40" waitingTime="2.00" waitingCount="1" stopTime="0.00" timeLoss="27.29" rerouteNo="1" devices="tripinfo_h3568c1:3 routing_h3568c1:3 emissions_h3568c1:3" vType="default_016" speedFactor="1.02" vaporized="">
        <emissions CO_abs="5013.606148" CO2_abs="276626.346993" HC_abs="29.341294" PMx_abs="5.122895" NOx_abs="115.136922" fuel_abs="118.910069" electricity_abs="0"/>
    </tripinfo>
    <tripinfo id="h12244c1:3" depart="57612.00" departLane="315358244_1" departPos="5.10" departSpeed="0.00" departDelay="0.40" arrival="57751.00" arrivalLane="386687235_1" arrivalPos="80.84" arrivalSpeed="14.06" duration="139.00" routeLength="1186.14" waitingTime="35.00" waitingCount="3" stopTime="0.00" timeLoss="57.35" rerouteNo="1" devices="tripinfo_h12244c1:3 routing_h12244c1:3 emissions_h12244c1:3" vType="default_016" speedFactor="1.06" vaporized="">
        <emissions CO_abs="8152.971091" CO2_abs="350228.450002" HC_abs="45.310688" PMx_abs="6.551541" NOx_abs="144.683424" fuel_abs="150.550122" electricity_abs="0"/>
    </tripinfo>
    <tripinfo id="h5979c1:5" depart="57669.00" departLane="399835085#1_1" departPos="5.10" departSpeed="0.00" departDelay="0.00" arrival="57752.00" arrivalLane="-315358254#1_1" arrivalPos="137.16" arrivalSpeed="13.56" duration="83.00" routeLength="659.33" waitingTime="0.00" waitingCount="0" stopTime="0.00" timeLoss="12.02" rerouteNo="1" devices="tripinfo_h5979c1:5 routing_h5979c1:5 emissions_h5979c1:5" vType="default_016" speedFactor="1.04" vaporized="">
        <emissions CO_abs="3313.042516" CO2_abs="172791.331736" HC_abs="19.059188" PMx_abs="2.864401" NOx_abs="70.113340" fuel_abs="74.276376" electricity_abs="0"/>
    </tripinfo>
    <tripinfo id="h9563c2:5" depart="57631.00" departLane="315358244_1" departPos="5.10" departSpeed="0.00" departDelay="0.70" arrival="57753.00" arrivalLane="386687235_1" arrivalPos="80.84" arrivalSpeed="13.57" duration="122.00" routeLength="1186.14" waitingTime="17.00" waitingCount="1" stopTime="0.00" timeLoss="35.48" rerouteNo="1" devices="tripinfo_h9563c2:5 routing_h9563c2:5 emissions_h9563c2:5" vType="default_016" speedFactor="1.00" vaporized="">
        <emissions CO_abs="5233.115752" CO2_abs="267471.234352" HC_abs="30.049995" PMx_abs="4.650696" NOx_abs="108.134300" fuel_abs="114.975586" electricity_abs="0"/>
    </tripinfo>
    <tripinfo id="h317c2:1" depart="57707.00" departLane="-32978638#0_1" departPos="5.10" departSpeed="0.00" departDelay="0.10" arrival="57754.00" arrivalLane="-266565295#5_1" arrivalPos="172.76" arrivalSpeed="13.95" duration="47.00" routeLength="370.53" waitingTime="11.00" waitingCount="1" stopTime="0.00" timeLoss="20.34" rerouteNo="1" devices="tripinfo_h317c2:1 routing_h317c2:1 emissions_h317c2:1" vType="default_016" speedFactor="1.03" vaporized="">
        <emissions CO_abs="3110.485807" CO2_abs="134359.346262" HC_abs="17.339240" PMx_abs="2.631521" NOx_abs="56.717218" fuel_abs="57.755823" electricity_abs="0"/>
    </tripinfo>
    <tripinfo id="h3154c1:1" depart="57658.00" departLane="24634507_1" departPos="5.10" departSpeed="0.00" departDelay="0.00" arrival="57765.00" arrivalLane="-266565295#5_1" arrivalPos="172.76" arrivalSpeed="14.87" duration="107.00" routeLength="1206.22" waitingTime="9.00" waitingCount="1" stopTime="0.00" timeLoss="28.70" rerouteNo="1" devices="tripinfo_h3154c1:1 routing_h3154c1:1 emissions_h3154c1:1" vType="default_016" speedFactor="1.14" vaporized="">
        <emissions CO_abs="5510.232226" CO2_abs="349241.672956" HC_abs="33.300023" PMx_abs="6.453857" NOx_abs="143.167769" fuel_abs="150.123879" electricity_abs="0"/>
    </tripinfo>
    <tripinfo id="carIn30817:1" depart="57681.00" departLane="315358244_1" departPos="5.10" departSpeed="0.00" departDelay="0.20" arrival="57768.00" arrivalLane="447569997#1_1" arrivalPos="180.93" arrivalSpeed="5.90" duration="87.00" routeLength="718.04" waitingTime="1.00" waitingCount="1" stopTime="0.00" timeLoss="15.28" rerouteNo="1" devices="tripinfo_carIn30817:1 routing_carIn30817:1 emissions_carIn30817:1" vType="default_016" speedFactor="0.86" vaporized="">
        <emissions CO_abs="3019.783455" CO2_abs="166801.879708" HC_abs="17.599276" PMx_abs="2.667770" NOx_abs="66.798745" fuel_abs="71.701767" electricity_abs="0"/>
    </tripinfo>
    <tripinfo id="carIn22761:1" depart="57616.00" departLane="-306240162#1_0" departPos="5.10" departSpeed="0.00" departDelay="2.10" arrival="57773.00" arrivalLane="399835085#1_1" arrivalPos="212.23" arrivalSpeed="6.25" duration="157.00" routeLength="1093.26" waitingTime="42.00" waitingCount="2" stopTime="0.00" timeLoss="62.48" rerouteNo="1" devices="tripinfo_carIn22761:1 routing_carIn22761:1 emissions_carIn22761:1" vType="default_016" speedFactor="0.83" vaporized="">
        <emissions CO_abs="10329.091489" CO2_abs="358366.947438" HC_abs="55.312684" PMx_abs="6.898613" NOx_abs="150.038448" fuel_abs="154.049872" electricity_abs="0"/>
    </tripinfo>
    <tripinfo id="carIn121703:1" depart="57647.00" departLane="386687232#0_1" departPos="5.10" departSpeed="0.00" departDelay="0.30" arrival="57776.00" arrivalLane="-315358244_1" arrivalPos="33.95" arrivalSpeed="13.10" duration="129.00" routeLength="1157.39" waitingTime="26.00" waitingCount="2" stopTime="0.00" timeLoss="44.22" rerouteNo="1" devices="tripinfo_carIn121703:1 routing_carIn121703:1 emissions_carIn121703:1" vType="default_016" speedFactor="0.99" vaporized="">
        <emissions CO_abs="6973.367507" CO2_abs="321149.208329" HC_abs="39.276177" PMx_abs="5.821911" NOx_abs="131.599607" fuel_abs="138.049890" electricity_abs="0"/>
    </tripinfo>
    <tripinfo id="h3326c1:2" depart="57656.00" departLane="22716069#0_1" departPos="5.10" departSpeed="0.00" departDelay="0.00" arrival="57783.00" arrivalLane="24634517#13_1" arrivalPos="111.62" arrivalSpeed="12.14" duration="127.00" routeLength="1312.81" waitingTime="6.00" waitingCount="1" stopTime="0.00" timeLoss="25.47" rerouteNo="1" devices="tripinfo_h3326c1:2 routing_h3326c1:2 emissions_h3326c1:2" vType="default_016" speedFactor="0.96" vaporized="">
        <emissions CO_abs="4822.765340" CO2_abs="331543.610060" HC_abs="29.715040" PMx_abs="5.566373" NOx_abs="133.119369" fuel_abs="142.516682" electricity_abs="0"/>
    </tripinfo>
    <tripinfo id="h7181c1:1" depart="57660.00" departLane="315358254#0_1" departPos="5.10" departSpeed="0.00" departDelay="0.10" arrival="57786.00" arrivalLane="306240162#0_0" arrivalPos="220.43" arrivalSpeed="11.97" duration="126.00" routeLength="932.35" waitingTime="33.00" waitingCount="3" stopTime="0.00" timeLoss="55.96" rerouteNo="1" devices="tripinfo_h7181c1:1 routing_h7181c1:1 emissions_h7181c1:1" vType="default_016" speedFactor="0.74" vaporized="">
        <emissions CO_abs="7568.407007" CO2_abs="307934.069478" HC_abs="41.710874" PMx_abs="5.924552" NOx_abs="129.036550" fuel_abs="132.369368" electricity_abs="0"/>
    </tripinfo>
    <tripinfo id="h11737c1:1" depart="57665.00" departLane="272042143_1" departPos="5.10" departSpeed="0.00" departDelay="1.50" arrival="57786.00" arrivalLane="-315358254#1_1" arrivalPos="137.16" arrivalSpeed="15.13" duration="121.00" routeLength="1596.88" waitingTime="1.00" waitingCount="1" stopTime="0.00" timeLoss="20.33" rerouteNo="1" devices="tripinfo_h11737c1:1 routing_h11737c1:1 emissions_h11737c1:1" vType="default_016" speedFactor="1.16" vaporized="">
        <emissions CO_abs="4693.773376" CO2_abs="382223.826919" HC_abs="30.173882" PMx_abs="6.594426" NOx_abs="152.419571" fuel_abs="164.301153" electricity_abs="0"/>
    </tripinfo>
    <tripinfo id="h330c1:1" depart="57736.00" departLane="-32978638#0_1" departPos="5.10" departSpeed="0.00" departDelay="0.20" arrival="57787.00" arrivalLane="-266565295#5_1" arrivalPos="172.76" arrivalSpeed="11.27" duration="51.00" routeLength="370.53" waitingTime="13.00" waitingCount="1" stopTime="0.00" timeLoss="20.05" rerouteNo="1" devices="tripinfo_h330c1:1 routing_h330c1:1 emissions_h330c1:1" vType="default_016" speedFactor="0.90" vaporized="">
        <emissions CO_abs="3321.784993" CO2_abs="129065.480175" HC_abs="18.146969" PMx_abs="2.437533" NOx_abs="54.009024" fuel_abs="55.480610" electricity_abs="0"/>
    </tripinfo>
    <tripinfo id="carIn27009:1" depart="57673.00" departLane="-447569998#1_1" departPos="5.10" departSpeed="0.00" departDelay="0.50" arrival="57795.00" arrivalLane="-26677539_1" arrivalPos="152.75" arrivalSpeed="6.43" duration="122.00" routeLength="699.63" waitingTime="10.00" waitingCount="1" stopTime="0.00" timeLoss="27.32" rerouteNo="1" devices="tripinfo_carIn27009:1 routing_carIn27009:1 emissions_carIn27009:1" vType="default_015" speedFactor="0.89" vaporized="">
        <emissions CO_abs="5506.459711" CO2_abs="196156.999872" HC_abs="29.558496" PMx_abs="3.310382" NOx_abs="80.650430" fuel_abs="84.321720" electricity_abs="0"/>
    </tripinfo>
    <tripinfo id="S5R_frequency1.2" depart="57634.00" departLane="315358250#0_1" departPos="12.10" departSpeed="0.00" departDelay="22.40" arrival="57801.00" arrivalLane="386687235_1" arrivalPos="80.84" arrivalSpeed="13.34" duration="167.00" routeLength="1115.62" waitingTime="57.00" waitingCount="2" stopTime="0.00" timeLoss="85.95" rerouteNo="1" devices="tripinfo_S5R_frequency1.2 routing_S5R_frequency1.2 emissions_S5R_frequency1.2" vType="bus" speedFactor="1.00" vaporized="">
        <emissions CO_abs="3225.965933" CO2_abs="1661631.775597" HC_abs="700.627367" PMx_abs="337.627474" NOx_abs="13869.345145" fuel_abs="708.545882" electricity_abs="0"/>
    </tripinfo>
    <tripinfo id="carIn12365:1" depart="57713.00" departLane="315358244_1" departPos="5.10" departSpeed="0.00" departDelay="0.50" arrival="57803.00" arrivalLane="447569997#1_1" arrivalPos="180.93" arrivalSpeed="8.20" duration="90.00" routeLength="718.04" waitingTime="15.00" waitingCount="1" stopTime="0.00" timeLoss="30.72" rerouteNo="1" devices="tripinfo_carIn12365:1 routing_carIn12365:1 emissions_carIn12365:1" vType="default_016" speedFactor="1.05" vaporized="">
        <emissions CO_abs="4426.684680" CO2_abs="189652.302630" HC_abs="24.569191" PMx_abs="3.387338" NOx_abs="77.745075" fuel_abs="81.524650" electricity_abs="0"/>
    </tripinfo>
    <tripinfo id="carIn107084:1" depart="57601.00" departLane="124812856#0_1" departPos="5.10" departSpeed="0.00" departDelay="0.70" arrival="57806.00" arrivalLane="-128361102#1_1" arrivalPos="274.68" arrivalSpeed="12.94" duration="205.00" routeLength="2250.49" waitingTime="19.00" waitingCount="1" stopTime="0.00" timeLoss="40.92" rerouteNo="1" devices="tripinfo_carIn107084:1 routing_carIn107084:1 emissions_carIn107084:1" vType="default_016" speedFactor="1.01" vaporized="">
        <emissions CO_abs="8739.927810" CO2_abs="533989.034605" HC_abs="52.304877" PMx_abs="9.357332" NOx_abs="216.140871" fuel_abs="229.539781" electricity_abs="0"/>
    </tripinfo>
    <tripinfo id="carIn126288:1" depart="57674.00" departLane="272042143_1" departPos="5.10" departSpeed="0.00" departDelay="0.00" arrival="57809.00" arrivalLane="-315358254#1_1" arrivalPos="137.16" arrivalSpeed="12.82" duration="135.00" routeLength="1596.88" waitingTime="0.00" waitingCount="0" stopTime="0.00" timeLoss="11.97" rerouteNo="1" devices="tripinfo_carIn126288:1 routing_carIn126288:1 emissions_carIn126288:1" vType="default_016" speedFactor="0.95" vaporized="">
        <emissions CO_abs="3384.362722" CO2_abs="297960.697208" HC_abs="22.328272" PMx_abs="4.516896" NOx_abs="115.793260" fuel_abs="128.080800" electricity_abs="0"/>
    </tripinfo>
    <tripinfo id="carIn50326:1" depart="57651.00" departLane="128361102#0_1" departPos="5.10" departSpeed="0.00" departDelay="0.30" arrival="57811.00" arrivalLane="18809673#0_1" arrivalPos="473.56" arrivalSpeed="13.64" duration="160.00" routeLength="1591.07" waitingTime="7.00" waitingCount="1" stopTime="0.00" timeLoss="33.33" rerouteNo="1" devices="tripinfo_carIn50326:1 routing_carIn50326:1 emissions_carIn50326:1" vType="default_016" speedFactor="1.02" vaporized="">
        <emissions CO_abs="6224.556631" CO2_abs="385017.914046" HC_abs="37.325350" PMx_abs="6.553941" NOx_abs="155.395087" fuel_abs="165.503411" electricity_abs="0"/>
    </tripinfo>
    <tripinfo id="carIn129809:1" depart="57729.00" departLane="-447569998#1_1" departPos="5.10" departSpeed="0.00" departDelay="1.00" arrival="57813.00" arrivalLane="-315358244_1" arrivalPos="33.95" arrivalSpeed="13.19" duration="84.00" routeLength="706.49" waitingTime="9.00" waitingCount="1" stopTime="0.00" timeLoss="21.27" rerouteNo="1" devices="tripinfo_carIn129809:1 routing_carIn129809:1 emissions_carIn129809:1" vType="default_015" speedFactor="0.96" vaporized="">
        <emissions CO_abs="4008.651144" CO2_abs="198461.713854" HC_abs="22.873134" PMx_abs="3.430728" NOx_abs="80.886741" fuel_abs="85.311111" electricity_abs="0"/>
    </tripinfo>
    <tripinfo id="h645c1:1" depart="57622.00" departLane="266565295#5_1" departPos="5.10" departSpeed="0.00" departDelay="0.40" arrival="57815.00" arrivalLane="-315358244_1" arrivalPos="33.95" arrivalSpeed="15.29" duration="193.00" routeLength="1910.83" waitingTime="36.00" waitingCount="3" stopTime="0.00" timeLoss="70.12" rerouteNo="1" devices="tripinfo_h645c1:1 routing_h645c1:1 emissions_h645c1:1" vType="default_016" speedFactor="1.13" vaporized="">
        <emissions CO_abs="9987.885068" CO2_abs="543765.558798" HC_abs="58.119760" PMx_abs="9.916270" NOx_abs="221.801490" fuel_abs="233.742698" electricity_abs="0"/>
    </tripinfo>
    <tripinfo id="carIn107282:1" depart="57749.00" departLane="-447569998#1_1" departPos="5.10" departSpeed="0.00" departDelay="0.00" arrival="57824.00" arrivalLane="315358242#0_1" arrivalPos="165.37" arrivalSpeed="14.05" duration="75.00" routeLength="448.50" waitingTime="28.00" waitingCount="1" stopTime="0.00" timeLoss="36.64" rerouteNo="1" devices="tripinfo_carIn107282:1 routing_carIn107282:1 emissions_carIn107282:1" vType="default_016" speedFactor="1.08" vaporized="">
        <emissions CO_abs="5782.578772" CO2_abs="181551.059567" HC_abs="30.579886" PMx_abs="3.586536" NOx_abs="76.819037" fuel_abs="78.043000" electricity_abs="0"/>
    </tripinfo>
    <tripinfo id="carIn86816:1" depart="57617.00" departLane="128361102#0_1" departPos="5.10" departSpeed="0.00" departDelay="0.80" arrival="57826.00" arrivalLane="201956811#0_1" arrivalPos="40.40" arrivalSpeed="13.30" duration="209.00" routeLength="2067.33" waitingTime="31.00" waitingCount="1" stopTime="0.00" timeLoss="57.04" rerouteNo="1" devices="tripinfo_carIn86816:1 routing_carIn86816:1 emissions_carIn86816:1" vType="default_016" speedFactor="1.00" vaporized="">
        <emissions CO_abs="9824.422773" CO2_abs="500369.128566" HC_abs="56.456596" PMx_abs="8.979849" NOx_abs="204.345225" fuel_abs="215.089008" electricity_abs="0"/>
    </tripinfo>
    <tripinfo id="carIn102915:1" depart="57643.00" departLane="128361102#0_1" departPos="5.10" departSpeed="0.00" departDelay="0.40" arrival="57828.00" arrivalLane="201956811#0_1" arrivalPos="40.40" arrivalSpeed="13.93" duration="185.00" routeLength="2067.33" waitingTime="11.00" waitingCount="2" stopTime="0.00" timeLoss="42.92" rerouteNo="1" devices="tripinfo_carIn102915:1 routing_carIn102915:1 emissions_carIn102915:1" vType="default_016" speedFactor="1.07" vaporized="">
        <emissions CO_abs="7221.183790" CO2_abs="482318.043371" HC_abs="44.129231" PMx_abs="8.596761" NOx_abs="196.423904" fuel_abs="207.327719" electricity_abs="0"/>
    </tripinfo>
    <tripinfo id="carIn126378:1" depart="57746.00" departLane="386687232#0_1" departPos="5.10" departSpeed="0.00" departDelay="1.80" arrival="57829.00" arrivalLane="-315358244_2" arrivalPos="33.95" arrivalSpeed="16.22" duration="83.00" routeLength="1157.39" waitingTime="0.00" waitingCount="0" stopTime="0.00" timeLoss="12.88" rerouteNo="1" devices="tripinfo_carIn126378:1 routing_carIn126378:1 emissions_carIn126378:1" vType="default_016" speedFactor="1.21" vaporized="">
        <emissions CO_abs="2729.599398" CO2_abs="245450.285133" HC_abs="18.142849" PMx_abs="4.099584" NOx_abs="96.434641" fuel_abs="105.508280" electricity_abs="0"/>
    </tripinfo>
    <tripinfo id="randUni33724:1" depart="57646.00" departLane="128361102#0_1" departPos="5.10" departSpeed="0.00" departDelay="1.20" arrival="57831.00" arrivalLane="201956811#0_1" arrivalPos="40.40" arrivalSpeed="12.96" duration="185.00" routeLength="2067.33" waitingTime="4.00" waitingCount="1" stopTime="0.00" timeLoss="34.29" rerouteNo="1" devices="tripinfo_randUni33724:1 routing_randUni33724:1 emissions_randUni33724:1" vType="random_016" speedFactor="1.00" vaporized="">
        <emissions CO_abs="6362.666756" CO2_abs="465486.178181" HC_abs="39.869759" PMx_abs="7.749652" NOx_abs="186.050029" fuel_abs="200.092766" electricity_abs="0"/>
    </tripinfo>
    <tripinfo id="h3864c1:3" depart="57678.00" departLane="24693977#1_1" departPos="5.10" departSpeed="0.00" departDelay="0.00" arrival="57832.00" arrivalLane="201956820_2" arrivalPos="48.33" arrivalSpeed="12.56" duration="154.00" routeLength="1574.85" waitingTime="0.00" waitingCount="0" stopTime="0.00" timeLoss="20.71" rerouteNo="1" devices="tripinfo_h3864c1:3 routing_h3864c1:3 emissions_h3864c1:3" vType="default_016" speedFactor="0.97" vaporized="">
        <emissions CO_abs="5852.565428" CO2_abs="391967.256650" HC_abs="35.791670" PMx_abs="6.570323" NOx_abs="157.889304" fuel_abs="168.490355" electricity_abs="0"/>
    </tripinfo>
    <tripinfo id="carIn100288:1" depart="57664.00" departLane="128361102#0_1" departPos="5.10" departSpeed="0.00" departDelay="0.60" arrival="57835.00" arrivalLane="201956811#0_1" arrivalPos="40.40" arrivalSpeed="13.65" duration="171.00" routeLength="2067.33" waitingTime="5.00" waitingCount="1" stopTime="0.00" timeLoss="27.97" rerouteNo="1" devices="tripinfo_carIn100288:1 routing_carIn100288:1 emissions_carIn100288:1" vType="default_016" speedFactor="1.06" vaporized="">
        <emissions CO_abs="5544.906436" CO2_abs="447987.300967" HC_abs="35.680276" PMx_abs="7.481633" NOx_abs="177.990152" fuel_abs="192.570318" electricity_abs="0"/>
    </tripinfo>
    <tripinfo id="carIn73855:1" depart="57743.00" departLane="386687232#0_1" departPos="5.10" departSpeed="0.00" departDelay="0.50" arrival="57835.00" arrivalLane="-315358244_1" arrivalPos="33.95" arrivalSpeed="13.13" duration="92.00" routeLength="1157.39" waitingTime="0.00" waitingCount="0" stopTime="0.00" timeLoss="8.25" rerouteNo="1" devices="tripinfo_carIn73855:1 routing_carIn73855:1 emissions_carIn73855:1" vType="default_016" speedFactor="1.01" vaporized="">
        <emissions CO_abs="2456.401927" CO2_abs="221428.743415" HC_abs="16.310020" PMx_abs="3.384281" NOx_abs="85.745099" fuel_abs="95.182877" electricity_abs="0"/>
    </tripinfo>
    <tripinfo id="carIn28951:1" depart="57606.00" departLane="10425609#0_1" departPos="5.10" departSpeed="0.00" departDelay="0.20" arrival="57839.00" arrivalLane="-128361102#1_1" arrivalPos="274.68" arrivalSpeed="11.98" duration="233.00" routeLength="2113.04" waitingTime="34.00" waitingCount="3" stopTime="0.00" timeLoss="67.41" rerouteNo="1" devices="tripinfo_carIn28951:1 routing_carIn28951:1 emissions_carIn28951:1" vType="default_016" speedFactor="0.94" vaporized="">
        <emissions CO_abs="10375.693417" CO2_abs="539030.655808" HC_abs="59.820156" PMx_abs="9.286618" NOx_abs="218.336678" fuel_abs="231.708423" electricity_abs="0"/>
    </tripinfo>
    <tripinfo id="carIn29531:1" depart="57667.00" departLane="128361102#0_1" departPos="5.10" departSpeed="0.00" departDelay="1.60" arrival="57842.00" arrivalLane="201956811#0_1" arrivalPos="40.40" arrivalSpeed="13.60" duration="175.00" routeLength="2067.33" waitingTime="2.00" waitingCount="1" stopTime="0.00" timeLoss="26.68" rerouteNo="1" devices="tripinfo_carIn29531:1 routing_carIn29531:1 emissions_carIn29531:1" vType="default_016" speedFactor="1.02" vaporized="">
        <emissions CO_abs="5679.555082" CO2_abs="437307.527202" HC_abs="36.097200" PMx_abs="7.424793" NOx_abs="175.219017" fuel_abs="187.979527" electricity_abs="0"/>
    </tripinfo>
    <tripinfo id="carIn46110:1" depart="57684.00" departLane="315358244_1" departPos="5.10" departSpeed="0.00" departDelay="1.20" arrival="57848.00" arrivalLane="32978638#0_1" arrivalPos="49.29" arrivalSpeed="14.68" duration="164.00" routeLength="1764.04" waitingTime="20.00" waitingCount="3" stopTime="0.00" timeLoss="47.82" rerouteNo="1" devices="tripinfo_carIn46110:1 routing_carIn46110:1 emissions_carIn46110:1" vType="default_016" speedFactor="1.10" vaporized="">
        <emissions CO_abs="6401.103880" CO2_abs="434130.777434" HC_abs="39.227122" PMx_abs="7.729960" NOx_abs="175.842078" fuel_abs="186.614103" electricity_abs="0"/>
    </tripinfo>
    <tripinfo id="randUni15030:1" depart="57735.00" departLane="386687232#0_1" departPos="5.10" departSpeed="0.00" departDelay="0.10" arrival="57849.00" arrivalLane="26677539_1" arrivalPos="151.98" arrivalSpeed="6.87" duration="114.00" routeLength="919.89" waitingTime="1.00" waitingCount="1" stopTime="0.00" timeLoss="15.70" rerouteNo="1" devices="tripinfo_randUni15030:1 routing_randUni15030:1 emissions_randUni15030:1" vType="random_016" speedFactor="0.85" vaporized="">
        <emissions CO_abs="4275.610937" CO2_abs="215128.696170" HC_abs="24.414300" PMx_abs="3.425907" NOx_abs="86.317691" fuel_abs="92.475943" electricity_abs="0"/>
    </tripinfo>
    <tripinfo id="h17600c1:1" depart="57662.00" departLane="272042143_1" departPos="5.10" departSpeed="0.00" departDelay="0.30" arrival="57851.00" arrivalLane="201238729#3_1" arrivalPos="431.02" arrivalSpeed="12.99" duration="189.00" routeLength="2100.26" waitingTime="22.00" waitingCount="1" stopTime="0.00" timeLoss="41.54" rerouteNo="1" devices="tripinfo_h17600c1:1 routing_h17600c1:1 emissions_h17600c1:1" vType="default_016" speedFactor="1.03" vaporized="">
        <emissions CO_abs="6987.824916" CO2_abs="433792.939707" HC_abs="41.914123" PMx_abs="7.298611" NOx_abs="172.674041" fuel_abs="186.470089" electricity_abs="0"/>
    </tripinfo>
    <tripinfo id="carIn462:1" depart="57622.00" departLane="-306240162#1_0" departPos="5.10" departSpeed="0.00" departDelay="4.80" arrival="57853.00" arrivalLane="386687235_2" arrivalPos="80.84" arrivalSpeed="15.43" duration="231.00" routeLength="2257.41" waitingTime="39.00" waitingCount="4" stopTime="0.00" timeLoss="100.55" rerouteNo="1" devices="tripinfo_carIn462:1 routing_carIn462:1 emissions_carIn462:1" vType="default_016" speedFactor="1.14" vaporized="">
        <emissions CO_abs="12069.680755" CO2_abs="655491.079384" HC_abs="70.363328" PMx_abs="12.480267" NOx_abs="271.284059" fuel_abs="281.768137" electricity_abs="0"/>
    </tripinfo>
    <tripinfo id="carIn8642:1" depart="57774.00" departLane="-447569998#1_1" departPos="5.10" departSpeed="0.00" departDelay="0.90" arrival="57853.00" arrivalLane="-315358244_1" arrivalPos="33.95" arrivalSpeed="15.89" duration="79.00" routeLength="706.49" waitingTime="10.00" waitingCount="2" stopTime="0.00" timeLoss="28.21" rerouteNo="1" devices="tripinfo_carIn8642:1 routing_carIn8642:1 emissions_carIn8642:1" vType="default_016" speedFactor="1.20" vaporized="">
        <emissions CO_abs="3580.423480" CO2_abs="211423.676472" HC_abs="21.215458" PMx_abs="3.911719" NOx_abs="87.201519" fuel_abs="90.882030" electricity_abs="0"/>
    </tripinfo>
    <tripinfo id="carIn48184:1" depart="57613.00" departLane="-306240162#1_0" departPos="5.10" departSpeed="0.00" departDelay="0.70" arrival="57854.00" arrivalLane="386687235_1" arrivalPos="80.84" arrivalSpeed="13.12" duration="241.00" routeLength="2257.41" waitingTime="55.00" waitingCount="4" stopTime="0.00" timeLoss="94.51" rerouteNo="1" devices="tripinfo_carIn48184:1 routing_carIn48184:1 emissions_carIn48184:1" vType="default_016" speedFactor="1.02" vaporized="">
        <emissions CO_abs="14215.901871" CO2_abs="669936.655733" HC_abs="80.466898" PMx_abs="12.593709" NOx_abs="276.007470" fuel_abs="287.979577" electricity_abs="0"/>