<?xml version="1.0" encoding="UTF-8"?>

<!-- generated on Thu Nov  4 13:20:28 2021 by Eclipse SUMO sumo Version 1.9.0
<configuration xmlns:xsi="http://www.w3.org/2001/XMLSchema-instance" xsi:noNamespaceSchemaLocation="http://sumo.dlr.de/xsd/sumoConfiguration.xsd">

    <input>
        <net-file value="/mainfs/home/bk2g18/RESCO/environments/ingolstadt21/ingolstadt21.net.xml"/>
        <route-files value="/mainfs/home/bk2g18/RESCO/environments/ingolstadt21/ingolstadt21.rou.xml"/>
    </input>

    <output>
        <tripinfo-output value="/mainfs/home/bk2g18/RESCO/logs/MPLight-tr0-ingolstadt21-21-mplight-pressure/tripinfo_15.xml"/>
        <tripinfo-output.write-unfinished value="true"/>
    </output>

    <time>
        <begin value="57600"/>
        <end value="61200"/>
    </time>

    <processing>
        <time-to-teleport value="-1"/>
    </processing>

    <report>
        <xml-validation value="never"/>
        <xml-validation.routes value="never"/>
        <no-warnings value="true"/>
        <no-step-log value="true"/>
    </report>

    <emissions>
        <device.emissions.probability value="1"/>
    </emissions>

    <traci_server>
        <remote-port value="32893"/>
    </traci_server>

    <random_number>
        <random value="true"/>
    </random_number>

</configuration>
-->

<tripinfos xmlns:xsi="http://www.w3.org/2001/XMLSchema-instance" xsi:noNamespaceSchemaLocation="http://sumo.dlr.de/xsd/tripinfo_file.xsd">
    <tripinfo id="carIn60260:1" depart="57606.00" departLane="315358254#0_1" departPos="5.10" departSpeed="0.00" departDelay="0.90" arrival="57656.00" arrivalLane="399835085#1_1" arrivalPos="212.23" arrivalSpeed="7.83" duration="50.00" routeLength="430.98" waitingTime="0.00" waitingCount="0" stopTime="0.00" timeLoss="7.08" rerouteNo="1" devices="tripinfo_carIn60260:1 routing_carIn60260:1 emissions_carIn60260:1" vType="default_016" speedFactor="1.08" vaporized="">
        <emissions CO_abs="2039.392997" CO2_abs="111243.398233" HC_abs="11.881762" PMx_abs="1.940532" NOx_abs="45.706554" fuel_abs="47.819058" electricity_abs="0"/>
    </tripinfo>
    <tripinfo id="h15454c2:3" depart="57612.00" departLane="24608844_1" departPos="5.10" departSpeed="0.00" departDelay="0.50" arrival="57667.00" arrivalLane="32978638#0_1" arrivalPos="49.29" arrivalSpeed="12.92" duration="55.00" routeLength="354.79" waitingTime="8.00" waitingCount="2" stopTime="0.00" timeLoss="18.90" rerouteNo="1" devices="tripinfo_h15454c2:3 routing_h15454c2:3 emissions_h15454c2:3" vType="default_016" speedFactor="0.95" vaporized="">
        <emissions CO_abs="2739.004933" CO2_abs="126264.846987" HC_abs="15.407892" PMx_abs="2.229303" NOx_abs="52.169671" fuel_abs="54.276483" electricity_abs="0"/>
    </tripinfo>
    <tripinfo id="carIn53971:1" depart="57640.00" departLane="272042143_1" departPos="5.10" departSpeed="0.00" departDelay="0.80" arrival="57698.00" arrivalLane="24634414#1_1" arrivalPos="162.19" arrivalSpeed="7.49" duration="58.00" routeLength="493.04" waitingTime="0.00" waitingCount="0" stopTime="0.00" timeLoss="8.50" rerouteNo="1" devices="tripinfo_carIn53971:1 routing_carIn53971:1 emissions_carIn53971:1" vType="default_016" speedFactor="0.92" vaporized="">
        <emissions CO_abs="2785.708658" CO2_abs="144578.981556" HC_abs="16.028958" PMx_abs="2.396733" NOx_abs="58.632015" fuel_abs="62.148986" electricity_abs="0"/>
    </tripinfo>
    <tripinfo id="S5R_frequency1.2" depart="57615.00" departLane="315358250#0_1" departPos="12.10" departSpeed="0.00" departDelay="3.40" arrival="57708.00" arrivalLane="386687235_1" arrivalPos="80.84" arrivalSpeed="13.53" duration="93.00" routeLength="1115.62" waitingTime="0.00" waitingCount="0" stopTime="0.00" timeLoss="11.42" rerouteNo="1" devices="tripinfo_S5R_frequency1.2 routing_S5R_frequency1.2 emissions_S5R_frequency1.2" vType="bus" speedFactor="1.00" vaporized="">
        <emissions CO_abs="1812.522764" CO2_abs="1170319.901683" HC_abs="374.758026" PMx_abs="194.745521" NOx_abs="8993.481406" fuel_abs="499.134421" electricity_abs="0"/>
    </tripinfo>
    <tripinfo id="h12244c1:3" depart="57612.00" departLane="315358244_1" departPos="5.10" departSpeed="0.00" departDelay="0.40" arrival="57714.00" arrivalLane="386687235_1" arrivalPos="80.84" arrivalSpeed="14.52" duration="102.00" routeLength="1186.14" waitingTime="9.00" waitingCount="1" stopTime="0.00" timeLoss="22.12" rerouteNo="1" devices="tripinfo_h12244c1:3 routing_h12244c1:3 emissions_h12244c1:3" vType="default_016" speedFactor="1.09" vaporized="">
        <emissions CO_abs="4063.414591" CO2_abs="272640.767204" HC_abs="24.886936" PMx_abs="4.766047" NOx_abs="109.551200" fuel_abs="117.196728" electricity_abs="0"/>
    </tripinfo>
    <tripinfo id="h7800c1:5" depart="57696.00" departLane="-447569998#1_1" departPos="5.10" departSpeed="0.00" departDelay="0.00" arrival="57726.00" arrivalLane="-447569998#1_2" arrivalPos="180.76" arrivalSpeed="6.57" duration="30.00" routeLength="175.66" waitingTime="0.00" waitingCount="0" stopTime="0.00" timeLoss="3.88" rerouteNo="1" devices="tripinfo_h7800c1:5 routing_h7800c1:5 emissions_h7800c1:5" vType="default_016" speedFactor="0.83" vaporized="">
        <emissions CO_abs="1284.475332" CO2_abs="46862.614466" HC_abs="6.924458" PMx_abs="0.809914" NOx_abs="19.421750" fuel_abs="20.144704" electricity_abs="0"/>
    </tripinfo>
    <tripinfo id="carIn80064:1" depart="57603.00" departLane="128361109#1_1" departPos="5.10" departSpeed="0.00" departDelay="0.40" arrival="57729.00" arrivalLane="-315358254#1_1" arrivalPos="137.16" arrivalSpeed="12.84" duration="126.00" routeLength="1587.97" waitingTime="8.00" waitingCount="1" stopTime="0.00" timeLoss="35.12" rerouteNo="1" devices="tripinfo_carIn80064:1 routing_carIn80064:1 emissions_carIn80064:1" vType="default_016" speedFactor="0.99" vaporized="">
        <emissions CO_abs="7356.174325" CO2_abs="467513.451573" HC_abs="44.693591" PMx_abs="9.158826" NOx_abs="193.556450" fuel_abs="200.963155" electricity_abs="0"/>
    </tripinfo>
    <tripinfo id="h3688c1:1" depart="57625.00" departLane="201201950#1_1" departPos="5.10" departSpeed="0.00" departDelay="0.00" arrival="57732.00" arrivalLane="32978638#0_1" arrivalPos="49.29" arrivalSpeed="12.02" duration="107.00" routeLength="1089.75" waitingTime="11.00" waitingCount="1" stopTime="0.00" timeLoss="23.51" rerouteNo="1" devices="tripinfo_h3688c1:1 routing_h3688c1:1 emissions_h3688c1:1" vType="default_016" speedFactor="0.96" vaporized="">
        <emissions CO_abs="4871.431040" CO2_abs="286600.725475" HC_abs="28.874541" PMx_abs="4.855093" NOx_abs="115.196945" fuel_abs="123.198174" electricity_abs="0"/>
    </tripinfo>
    <tripinfo id="h3568c1:3" depart="57656.00" departLane="266565295#5_1" departPos="5.10" departSpeed="0.00" departDelay="0.80" arrival="57736.00" arrivalLane="-24634415_1" arrivalPos="62.03" arrivalSpeed="13.18" duration="80.00" routeLength="807.40" waitingTime="0.00" waitingCount="0" stopTime="0.00" timeLoss="13.64" rerouteNo="1" devices="tripinfo_h3568c1:3 routing_h3568c1:3 emissions_h3568c1:3" vType="default_016" speedFactor="0.97" vaporized="">
        <emissions CO_abs="3393.605316" CO2_abs="217409.821324" HC_abs="20.541001" PMx_abs="3.750575" NOx_abs="88.261652" fuel_abs="93.455367" electricity_abs="0"/>
    </tripinfo>
    <tripinfo id="carIn30817:1" depart="57681.00" departLane="315358244_1" departPos="5.10" departSpeed="0.00" departDelay="0.20" arrival="57741.00" arrivalLane="447569997#1_1" arrivalPos="180.93" arrivalSpeed="9.37" duration="60.00" routeLength="718.04" waitingTime="0.00" waitingCount="0" stopTime="0.00" timeLoss="6.18" rerouteNo="1" devices="tripinfo_carIn30817:1 routing_carIn30817:1 emissions_carIn30817:1" vType="default_016" speedFactor="1.14" vaporized="">
        <emissions CO_abs="2131.095825" CO2_abs="156589.755867" HC_abs="13.376190" PMx_abs="2.640320" NOx_abs="62.473188" fuel_abs="67.311269" electricity_abs="0"/>
    </tripinfo>
    <tripinfo id="h4538c1:1" depart="57701.00" departLane="-10427692#1_1" departPos="5.10" departSpeed="0.00" departDelay="0.00" arrival="57744.00" arrivalLane="-128361102#1_1" arrivalPos="274.68" arrivalSpeed="14.70" duration="43.00" routeLength="440.74" waitingTime="3.00" waitingCount="1" stopTime="0.00" timeLoss="13.48" rerouteNo="1" devices="tripinfo_h4538c1:1 routing_h4538c1:1 emissions_h4538c1:1" vType="default_016" speedFactor="1.08" vaporized="">
        <emissions CO_abs="2085.401596" CO2_abs="114406.993101" HC_abs="12.179091" PMx_abs="2.110887" NOx_abs="47.222517" fuel_abs="49.178825" electricity_abs="0"/>
    </tripinfo>
    <tripinfo id="h317c2:1" depart="57707.00" departLane="-32978638#0_1" departPos="5.10" departSpeed="0.00" departDelay="0.10" arrival="57766.00" arrivalLane="-266565295#5_1" arrivalPos="172.76" arrivalSpeed="13.31" duration="59.00" routeLength="370.53" waitingTime="21.00" waitingCount="1" stopTime="0.00" timeLoss="30.35" rerouteNo="1" devices="tripinfo_h317c2:1 routing_h317c2:1 emissions_h317c2:1" vType="default_016" speedFactor="0.97" vaporized="">
        <emissions CO_abs="4665.277374" CO2_abs="161320.936707" HC_abs="25.031017" PMx_abs="3.172045" NOx_abs="68.114399" fuel_abs="69.346339" electricity_abs="0"/>
    </tripinfo>
    <tripinfo id="h330c1:1" depart="57736.00" departLane="-32978638#0_1" departPos="5.10" departSpeed="0.00" departDelay="0.20" arrival="57769.00" arrivalLane="-266565295#5_1" arrivalPos="172.76" arrivalSpeed="13.74" duration="33.00" routeLength="370.53" waitingTime="0.00" waitingCount="0" stopTime="0.00" timeLoss="5.93" rerouteNo="1" devices="tripinfo_h330c1:1 routing_h330c1:1 emissions_h330c1:1" vType="default_016" speedFactor="1.01" vaporized="">
        <emissions CO_abs="1585.984803" CO2_abs="108516.103861" HC_abs="9.746910" PMx_abs="1.844559" NOx_abs="43.693265" fuel_abs="46.646489" electricity_abs="0"/>
    </tripinfo>
    <tripinfo id="h3326c1:2" depart="57656.00" departLane="22716069#0_1" departPos="5.10" departSpeed="0.00" departDelay="0.00" arrival="57772.00" arrivalLane="24634517#13_1" arrivalPos="111.62" arrivalSpeed="13.24" duration="116.00" routeLength="1312.81" waitingTime="0.00" waitingCount="0" stopTime="0.00" timeLoss="15.14" rerouteNo="1" devices="tripinfo_h3326c1:2 routing_h3326c1:2 emissions_h3326c1:2" vType="default_016" speedFactor="0.96" vaporized="">
        <emissions CO_abs="4201.579022" CO2_abs="316151.233049" HC_abs="26.518829" PMx_abs="5.184980" NOx_abs="125.931376" fuel_abs="135.900015" electricity_abs="0"/>
    </tripinfo>
    <tripinfo id="h7181c1:1" depart="57660.00" departLane="315358254#0_1" departPos="5.10" departSpeed="0.00" departDelay="0.10" arrival="57772.00" arrivalLane="306240162#0_0" arrivalPos="220.43" arrivalSpeed="14.42" duration="112.00" routeLength="932.35" waitingTime="38.00" waitingCount="2" stopTime="0.00" timeLoss="56.38" rerouteNo="1" devices="tripinfo_h7181c1:1 routing_h7181c1:1 emissions_h7181c1:1" vType="default_016" speedFactor="0.93" vaporized="">
        <emissions CO_abs="9017.675937" CO2_abs="354394.744564" HC_abs="49.385508" PMx_abs="7.207103" NOx_abs="149.538223" fuel_abs="152.340882" electricity_abs="0"/>
    </tripinfo>
    <tripinfo id="h5979c1:5" depart="57669.00" departLane="399835085#1_1" departPos="5.10" departSpeed="0.00" departDelay="0.00" arrival="57772.00" arrivalLane="-315358254#1_1" arrivalPos="137.16" arrivalSpeed="12.98" duration="103.00" routeLength="659.33" waitingTime="17.00" waitingCount="1" stopTime="0.00" timeLoss="30.20" rerouteNo="1" devices="tripinfo_h5979c1:5 routing_h5979c1:5 emissions_h5979c1:5" vType="default_016" speedFactor="1.01" vaporized="">
        <emissions CO_abs="6140.397924" CO2_abs="228828.952193" HC_abs="33.264945" PMx_abs="4.142913" NOx_abs="95.244499" fuel_abs="98.365760" electricity_abs="0"/>
    </tripinfo>
    <tripinfo id="carIn12365:1" depart="57713.00" departLane="315358244_1" departPos="5.10" departSpeed="0.00" departDelay="0.50" arrival="57779.00" arrivalLane="447569997#1_1" arrivalPos="180.93" arrivalSpeed="8.15" duration="66.00" routeLength="718.04" waitingTime="0.00" waitingCount="0" stopTime="0.00" timeLoss="6.13" rerouteNo="1" devices="tripinfo_carIn12365:1 routing_carIn12365:1 emissions_carIn12365:1" vType="default_016" speedFactor="1.03" vaporized="">
        <emissions CO_abs="2090.803296" CO2_abs="146654.080764" HC_abs="12.883413" PMx_abs="2.335966" NOx_abs="57.958838" fuel_abs="63.040593" electricity_abs="0"/>
    </tripinfo>
    <tripinfo id="carIn28951:1" depart="57606.00" departLane="10425609#0_1" departPos="5.10" departSpeed="0.00" departDelay="0.20" arrival="57784.00" arrivalLane="-128361102#1_1" arrivalPos="274.68" arrivalSpeed="14.58" duration="178.00" routeLength="2113.04" waitingTime="12.00" waitingCount="1" stopTime="0.00" timeLoss="34.07" rerouteNo="1" devices="tripinfo_carIn28951:1 routing_carIn28951:1 emissions_carIn28951:1" vType="default_016" speedFactor="1.08" vaporized="">
        <emissions CO_abs="7269.005621" CO2_abs="498563.537369" HC_abs="44.729880" PMx_abs="8.768164" NOx_abs="201.158765" fuel_abs="214.311086" electricity_abs="0"/>
    </tripinfo>
    <tripinfo id="h11737c1:1" depart="57665.00" departLane="272042143_1" departPos="5.10" departSpeed="0.00" departDelay="1.50" arrival="57796.00" arrivalLane="-315358254#1_1" arrivalPos="137.16" arrivalSpeed="15.80" duration="131.00" routeLength="1596.88" waitingTime="11.00" waitingCount="1" stopTime="0.00" timeLoss="28.65" rerouteNo="1" devices="tripinfo_h11737c1:1 routing_h11737c1:1 emissions_h11737c1:1" vType="default_016" speedFactor="1.14" vaporized="">
        <emissions CO_abs="5235.743000" CO2_abs="374551.891961" HC_abs="32.518929" PMx_abs="6.556348" NOx_abs="150.230519" fuel_abs="161.003711" electricity_abs="0"/>
    </tripinfo>
    <tripinfo id="carIn27009:1" depart="57673.00" departLane="-447569998#1_1" departPos="5.10" departSpeed="0.00" departDelay="0.50" arrival="57798.00" arrivalLane="-26677539_1" arrivalPos="152.75" arrivalSpeed="6.73" duration="125.00" routeLength="699.63" waitingTime="20.00" waitingCount="1" stopTime="0.00" timeLoss="35.73" rerouteNo="1" devices="tripinfo_carIn27009:1 routing_carIn27009:1 emissions_carIn27009:1" vType="default_015" speedFactor="0.94" vaporized="">
        <emissions CO_abs="6869.429349" CO2_abs="234811.998529" HC_abs="36.678250" PMx_abs="4.138225" NOx_abs="97.391172" fuel_abs="100.938286" electricity_abs="0"/>
    </tripinfo>
    <tripinfo id="carIn107282:1" depart="57749.00" departLane="-447569998#1_1" departPos="5.10" departSpeed="0.00" departDelay="0.00" arrival="57805.00" arrivalLane="315358242#0_1" arrivalPos="165.37" arrivalSpeed="13.41" duration="56.00" routeLength="448.50" waitingTime="9.00" waitingCount="1" stopTime="0.00" timeLoss="15.92" rerouteNo="1" devices="tripinfo_carIn107282:1 routing_carIn107282:1 emissions_carIn107282:1" vType="default_016" speedFactor="1.06" vaporized="">
        <emissions CO_abs="2322.269497" CO2_abs="124801.879209" HC_abs="13.465355" PMx_abs="2.132404" NOx_abs="50.552684" fuel_abs="53.647442" electricity_abs="0"/>
    </tripinfo>
    <tripinfo id="h9563c2:5" depart="57631.00" departLane="315358244_1" departPos="5.10" departSpeed="0.00" departDelay="0.70" arrival="57806.00" arrivalLane="386687235_1" arrivalPos="80.84" arrivalSpeed="14.02" duration="175.00" routeLength="1186.14" waitingTime="69.00" waitingCount="4" stopTime="0.00" timeLoss="94.98" rerouteNo="1" devices="tripinfo_h9563c2:5 routing_h9563c2:5 emissions_h9563c2:5" vType="default_016" speedFactor="1.08" vaporized="">
        <emissions CO_abs="14099.560863" CO2_abs="452570.655632" HC_abs="74.655547" PMx_abs="9.022478" NOx_abs="190.619964" fuel_abs="194.545381" electricity_abs="0"/>
    </tripinfo>
    <tripinfo id="carIn107084:1" depart="57601.00" departLane="124812856#0_1" departPos="5.10" departSpeed="0.00" departDelay="0.70" arrival="57808.00" arrivalLane="-128361102#1_1" arrivalPos="274.68" arrivalSpeed="11.97" duration="207.00" routeLength="2250.49" waitingTime="8.00" waitingCount="2" stopTime="0.00" timeLoss="34.54" rerouteNo="1" devices="tripinfo_carIn107084:1 routing_carIn107084:1 emissions_carIn107084:1" vType="default_016" speedFactor="0.95" vaporized="">
        <emissions CO_abs="6191.780295" CO2_abs="469493.386859" HC_abs="39.149021" PMx_abs="7.597584" NOx_abs="186.245115" fuel_abs="201.815435" electricity_abs="0"/>
    </tripinfo>
    <tripinfo id="carIn118591:1" depart="57689.00" departLane="315358244_1" departPos="5.10" departSpeed="0.00" departDelay="0.20" arrival="57809.00" arrivalLane="386687235_1" arrivalPos="80.84" arrivalSpeed="12.50" duration="120.00" routeLength="1186.14" waitingTime="4.00" waitingCount="3" stopTime="0.00" timeLoss="31.23" rerouteNo="1" devices="tripinfo_carIn118591:1 routing_carIn118591:1 emissions_carIn118591:1" vType="default_016" speedFactor="0.98" vaporized="">
        <emissions CO_abs="4858.932853" CO2_abs="309575.608673" HC_abs="29.368986" PMx_abs="5.273129" NOx_abs="124.861271" fuel_abs="133.073742" electricity_abs="0"/>
    </tripinfo>
    <tripinfo id="carIn77943:1" depart="57608.00" departLane="124812856#0_1" departPos="5.10" departSpeed="0.00" departDelay="2.50" arrival="57812.00" arrivalLane="-128361102#1_1" arrivalPos="274.68" arrivalSpeed="13.05" duration="204.00" routeLength="2250.49" waitingTime="1.00" waitingCount="1" stopTime="0.00" timeLoss="31.63" rerouteNo="1" devices="tripinfo_carIn77943:1 routing_carIn77943:1 emissions_carIn77943:1" vType="default_016" speedFactor="0.95" vaporized="">
        <emissions CO_abs="6824.870293" CO2_abs="500711.404558" HC_abs="42.776150" PMx_abs="8.268596" NOx_abs="199.919966" fuel_abs="215.234658" electricity_abs="0"/>
    </tripinfo>
    <tripinfo id="carIn81046:1" depart="57611.00" departLane="124812856#0_1" departPos="5.10" departSpeed="0.00" departDelay="2.50" arrival="57813.00" arrivalLane="-128361102#1_1" arrivalPos="274.68" arrivalSpeed="14.12" duration="202.00" routeLength="2250.49" waitingTime="1.00" waitingCount="1" stopTime="0.00" timeLoss="46.31" rerouteNo="1" devices="tripinfo_carIn81046:1 routing_carIn81046:1 emissions_carIn81046:1" vType="default_016" speedFactor="1.05" vaporized="">
        <emissions CO_abs="8408.519799" CO2_abs="567505.932298" HC_abs="51.645715" PMx_abs="10.079197" NOx_abs="231.745667" fuel_abs="243.946233" electricity_abs="0"/>
    </tripinfo>
    <tripinfo id="h645c1:1" depart="57622.00" departLane="266565295#5_1" departPos="5.10" departSpeed="0.00" departDelay="0.40" arrival="57813.00" arrivalLane="-315358244_1" arrivalPos="33.95" arrivalSpeed="15.56" duration="191.00" routeLength="1910.83" waitingTime="38.00" waitingCount="3" stopTime="0.00" timeLoss="66.83" rerouteNo="1" devices="tripinfo_h645c1:1 routing_h645c1:1 emissions_h645c1:1" vType="default_016" speedFactor="1.12" vaporized="">
        <emissions CO_abs="9883.440435" CO2_abs="511369.476641" HC_abs="56.824663" PMx_abs="9.407450" NOx_abs="208.940029" fuel_abs="219.817240" electricity_abs="0"/>
    </tripinfo>
    <tripinfo id="h17600c1:1" depart="57662.00" departLane="272042143_1" departPos="5.10" departSpeed="0.00" departDelay="0.30" arrival="57814.00" arrivalLane="201238729#3_1" arrivalPos="431.02" arrivalSpeed="15.09" duration="152.00" routeLength="2100.26" waitingTime="0.00" waitingCount="0" stopTime="0.00" timeLoss="12.94" rerouteNo="1" devices="tripinfo_h17600c1:1 routing_h17600c1:1 emissions_h17600c1:1" vType="default_016" speedFactor="1.09" vaporized="">
        <emissions CO_abs="3851.649557" CO2_abs="382119.352170" HC_abs="26.295867" PMx_abs="6.114272" NOx_abs="148.575785" fuel_abs="164.256332" electricity_abs="0"/>
    </tripinfo>
    <tripinfo id="carIn22761:1" depart="57616.00" departLane="-306240162#1_0" departPos="5.10" departSpeed="0.00" departDelay="2.10" arrival="57818.00" arrivalLane="399835085#1_1" arrivalPos="212.23" arrivalSpeed="5.65" duration="202.00" routeLength="1093.26" waitingTime="81.00" waitingCount="2" stopTime="0.00" timeLoss="105.49" rerouteNo="1" devices="tripinfo_carIn22761:1 routing_carIn22761:1 emissions_carIn22761:1" vType="default_016" speedFactor="0.80" vaporized="">
        <emissions CO_abs="17349.459856" CO2_abs="481531.254113" HC_abs="90.212318" PMx_abs="10.055549" NOx_abs="207.330586" fuel_abs="206.995766" electricity_abs="0"/>
    </tripinfo>
    <tripinfo id="carIn129809:1" depart="57729.00" departLane="-447569998#1_1" departPos="5.10" departSpeed="0.00" departDelay="1.00" arrival="57824.00" arrivalLane="-315358244_1" arrivalPos="33.95" arrivalSpeed="14.31" duration="95.00" routeLength="706.49" waitingTime="29.00" waitingCount="1" stopTime="0.00" timeLoss="39.68" rerouteNo="1" devices="tripinfo_carIn129809:1 routing_carIn129809:1 emissions_carIn129809:1" vType="default_015" speedFactor="1.09" vaporized="">
        <emissions CO_abs="6063.099518" CO2_abs="214922.161759" HC_abs="32.614990" PMx_abs="4.144855" NOx_abs="89.796827" fuel_abs="92.387700" electricity_abs="0"/>
    </tripinfo>
    <tripinfo id="carIn86816:1" depart="57617.00" departLane="128361102#0_1" departPos="5.10" departSpeed="0.00" departDelay="0.80" arrival="57835.00" arrivalLane="201956811#0_1" arrivalPos="40.40" arrivalSpeed="14.80" duration="218.00" routeLength="2067.33" waitingTime="51.00" waitingCount="2" stopTime="0.00" timeLoss="80.26" rerouteNo="1" devices="tripinfo_carIn86816:1 routing_carIn86816:1 emissions_carIn86816:1" vType="default_016" speedFactor="1.10" vaporized="">
        <emissions CO_abs="13963.525412" CO2_abs="609550.089751" HC_abs="77.822936" PMx_abs="11.826168" NOx_abs="254.357522" fuel_abs="262.021964" electricity_abs="0"/>
    </tripinfo>
    <tripinfo id="h3154c1:1" depart="57658.00" departLane="24634507_1" departPos="5.10" departSpeed="0.00" departDelay="0.00" arrival="57835.00" arrivalLane="-266565295#5_1" arrivalPos="172.76" arrivalSpeed="14.18" duration="177.00" routeLength="1206.22" waitingTime="67.00" waitingCount="2" stopTime="0.00" timeLoss="94.70" rerouteNo="1" devices="tripinfo_h3154c1:1 routing_h3154c1:1 emissions_h3154c1:1" vType="default_016" speedFactor="1.08" vaporized="">
        <emissions CO_abs="15024.730272" CO2_abs="504492.478429" HC_abs="80.248650" PMx_abs="10.360719" NOx_abs="215.433759" fuel_abs="216.863745" electricity_abs="0"/>
    </tripinfo>
    <tripinfo id="carIn12858:1" depart="57661.00" departLane="128361109#1_1" departPos="5.10" departSpeed="0.00" departDelay="0.90" arrival="57837.00" arrivalLane="399835085#1_1" arrivalPos="212.23" arrivalSpeed="6.57" duration="176.00" routeLength="1738.12" waitingTime="26.00" waitingCount="2" stopTime="0.00" timeLoss="53.20" rerouteNo="1" devices="tripinfo_carIn12858:1 routing_carIn12858:1 emissions_carIn12858:1" vType="default_016" speedFactor="0.93" vaporized="">
        <emissions CO_abs="9518.695781" CO2_abs="509029.429729" HC_abs="55.346215" PMx_abs="9.405908" NOx_abs="208.371634" fuel_abs="218.811040" electricity_abs="0"/>
    </tripinfo>
    <tripinfo id="carIn102915:1" depart="57643.00" departLane="128361102#0_1" departPos="5.10" departSpeed="0.00" departDelay="0.40" arrival="57840.00" arrivalLane="201956811#0_1" arrivalPos="40.40" arrivalSpeed="11.98" duration="197.00" routeLength="2067.33" waitingTime="13.00" waitingCount="1" stopTime="0.00" timeLoss="36.36" rerouteNo="1" devices="tripinfo_carIn102915:1 routing_carIn102915:1 emissions_carIn102915:1" vType="default_016" speedFactor="0.94" vaporized="">
        <emissions CO_abs="7163.747474" CO2_abs="465536.004940" HC_abs="43.486099" PMx_abs="7.726185" NOx_abs="186.150086" fuel_abs="200.114881" electricity_abs="0"/>
    </tripinfo>
    <tripinfo id="carIn121703:1" depart="57647.00" departLane="386687232#0_1" departPos="5.10" departSpeed="0.00" departDelay="0.30" arrival="57843.00" arrivalLane="-315358244_1" arrivalPos="33.95" arrivalSpeed="13.81" duration="196.00" routeLength="1157.39" waitingTime="98.00" waitingCount="2" stopTime="0.00" timeLoss="114.21" rerouteNo="1" devices="tripinfo_carIn121703:1 routing_carIn121703:1 emissions_carIn121703:1" vType="default_016" speedFactor="1.03" vaporized="">
        <emissions CO_abs="18506.783063" CO2_abs="508989.832952" HC_abs="96.241509" PMx_abs="10.672825" NOx_abs="218.529233" fuel_abs="218.799572" electricity_abs="0"/>
    </tripinfo>
    <tripinfo id="h6541c1:3" depart="57727.00" departLane="201950247#3_1" departPos="5.10" departSpeed="0.00" departDelay="0.00" arrival="57844.00" arrivalLane="32978638#0_1" arrivalPos="49.29" arrivalSpeed="15.17" duration="117.00" routeLength="1176.17" waitingTime="4.00" waitingCount="2" stopTime="0.00" timeLoss="25.58" rerouteNo="1" devices="tripinfo_h6541c1:3 routing_h6541c1:3 emissions_h6541c1:3" vType="default_016" speedFactor="1.12" vaporized="">
        <emissions CO_abs="5164.236797" CO2_abs="330282.996411" HC_abs="31.278613" PMx_abs="5.855527" NOx_abs="134.757828" fuel_abs="141.974615" electricity_abs="0"/>
    </tripinfo>
    <tripinfo id="carIn81860:1" depart="57712.00" departLane="128361102#0_1" departPos="5.10" departSpeed="0.00" departDelay="0.60" arrival="57847.00" arrivalLane="-24634517#17_1" arrivalPos="6.43" arrivalSpeed="9.16" duration="135.00" routeLength="1229.64" waitingTime="25.00" waitingCount="2" stopTime="0.00" timeLoss="55.89" rerouteNo="1" devices="tripinfo_carIn81860:1 routing_carIn81860:1 emissions_carIn81860:1" vType="default_016" speedFactor="1.14" vaporized="">
        <emissions CO_abs="7229.769070" CO2_abs="355002.062350" HC_abs="41.032326" PMx_abs="6.496862" NOx_abs="145.005840" fuel_abs="152.601491" electricity_abs="0"/>
    </tripinfo>
    <tripinfo id="carIn50326:1" depart="57651.00" departLane="128361102#0_1" departPos="5.10" departSpeed="0.00" departDelay="0.30" arrival="57856.00" arrivalLane="18809673#0_1" arrivalPos="473.56" arrivalSpeed="11.59" duration="205.00" routeLength="1591.07" waitingTime="40.00" waitingCount="2" stopTime="0.00" timeLoss="63.43" rerouteNo="1" devices="tripinfo_carIn50326:1 routing_carIn50326:1 emissions_carIn50326:1" vType="default_016" speedFactor="0.92" vaporized="">
        <emissions CO_abs="10338.783422" CO2_abs="427281.542256" HC_abs="57.002398" PMx_abs="7.525762" NOx_abs="174.787017" fuel_abs="183.673292" electricity_abs="0"/>
    </tripinfo>
    <tripinfo id="carIn8642:1" depart="57774.00" departLane="-447569998#1_1" departPos="5.10" departSpeed="0.00" departDelay="0.90" arrival="57856.00" arrivalLane="-315358244_1" arrivalPos="33.95" arrivalSpeed="10.48" duration="82.00" routeLength="706.49" waitingTime="0.00" waitingCount="0" stopTime="0.00" timeLoss="7.65" rerouteNo="1" devices="tripinfo_carIn8642:1 routing_carIn8642:1 emissions_carIn8642:1" vType="default_016" speedFactor="0.82" vaporized="">
        <emissions CO_abs="2421.026824" CO2_abs="138637.828110" HC_abs="14.210616" PMx_abs="2.138767" NOx_abs="55.008588" fuel_abs="59.595159" electricity_abs="0"/>
    </tripinfo>
    <tripinfo id="carIn126378:1" depart="57746.00" departLane="386687232#0_1" departPos="5.10" departSpeed="0.00" departDelay="1.80" arrival="57857.00" arrivalLane="-315358244_1" arrivalPos="33.95" arrivalSpeed="13.19" duration="111.00" routeLength="1157.39" waitingTime="6.00" waitingCount="1" stopTime="0.00" timeLoss="24.26" rerouteNo="1" devices="tripinfo_carIn126378:1 routing_carIn126378:1 emissions_carIn126378:1" vType="default_016" speedFactor="0.98" vaporized="">
        <emissions CO_abs="3680.887581" CO2_abs="261589.791035" HC_abs="22.809786" PMx_abs="4.175310" NOx_abs="103.326412" fuel_abs="112.446721" electricity_abs="0"/>
    </tripinfo>
    <tripinfo id="carIn73855:1" depart="57743.00" departLane="386687232#0_1" departPos="5.10" departSpeed="0.00" departDelay="0.50" arrival="57858.00" arrivalLane="-315358244_1" arrivalPos="33.95" arrivalSpeed="12.74" duration="115.00" routeLength="1157.39" waitingTime="9.00" waitingCount="2" stopTime="0.00" timeLoss="26.12" rerouteNo="1" devices="tripinfo_carIn73855:1 routing_carIn73855:1 emissions_carIn73855:1" vType="default_016" speedFactor="0.94" vaporized="">
        <emissions CO_abs="4703.228353" CO2_abs="287777.775758" HC_abs="28.133534" PMx_abs="4.825392" NOx_abs="115.435507" fuel_abs="123.704047" electricity_abs="0"/>
    </tripinfo>
    <tripinfo id="carIn126288:1" depart="57674.00" departLane="272042143_1" departPos="5.10" departSpeed="0.00" departDelay="0.00" arrival="57859.00" arrivalLane="-315358254#1_1" arrivalPos="137.16" arrivalSpeed="10.84" duration="185.00" routeLength="1596.88" waitingTime="27.00" waitingCount="2" stopTime="0.00" timeLoss="47.71" rerouteNo="1" devices="tripinfo_carIn126288:1 routing_carIn126288:1 emissions_carIn126288:1" vType="default_016" speedFactor="0.85" vaporized="">
        <emissions CO_abs="8226.702179" CO2_abs="391502.127302" HC_abs="46.557434" PMx_abs="6.715150" NOx_abs="158.975141" fuel_abs="168.292192" electricity_abs="0"/>
    </tripinfo>
    <tripinfo id="carIn46110:1" depart="57684.00" departLane="315358244_1" departPos="5.10" departSpeed="0.00" departDelay="1.20" arrival="57859.00" arrivalLane="32978638#0_1" arrivalPos="49.29" arrivalSpeed="11.90" duration="175.00" routeLength="1764.04" waitingTime="8.00" waitingCount="1" stopTime="0.00" timeLoss="25.62" rerouteNo="1" devices="tripinfo_carIn46110:1 routing_carIn46110:1 emissions_carIn46110:1" vType="default_016" speedFactor="0.86" vaporized="">
        <emissions CO_abs="5947.788654" CO2_abs="386028.867278" HC_abs="36.040864" PMx_abs="6.189200" NOx_abs="153.642929" fuel_abs="165.938283" electricity_abs="0"/>
    </tripinfo>
    <tripinfo id="randUni15030:1" depart="57735.00" departLane="386687232#0_1" departPos="5.10" departSpeed="0.00" departDelay="0.10" arrival="57859.00" arrivalLane="26677539_1" arrivalPos="151.98" arrivalSpeed="5.80" duration="124.00" routeLength="919.89" waitingTime="7.00" waitingCount="1" stopTime="0.00" timeLoss="21.52" rerouteNo="1" devices="tripinfo_randUni15030:1 routing_randUni15030:1 emissions_randUni15030:1" vType="random_016" speedFactor="0.81" vaporized="">
        <emissions CO_abs="4830.720104" CO2_abs="224869.024991" HC_abs="27.178909" PMx_abs="3.712191" NOx_abs="91.155183" fuel_abs="96.663054" electricity_abs="0"/>