<?xml version="1.0" encoding="UTF-8"?>

<!-- generated on Thu Nov  4 13:46:11 2021 by Eclipse SUMO sumo Version 1.9.0
<configuration xmlns:xsi="http://www.w3.org/2001/XMLSchema-instance" xsi:noNamespaceSchemaLocation="http://sumo.dlr.de/xsd/sumoConfiguration.xsd">

    <input>
        <net-file value="/mainfs/home/bk2g18/RESCO/environments/ingolstadt21/ingolstadt21.net.xml"/>
        <route-files value="/mainfs/home/bk2g18/RESCO/environments/ingolstadt21/ingolstadt21.rou.xml"/>
    </input>

    <output>
        <tripinfo-output value="/mainfs/home/bk2g18/RESCO/logs/MPLight-tr0-ingolstadt21-21-mplight-pressure/tripinfo_60.xml"/>
        <tripinfo-output.write-unfinished value="true"/>
    </output>

    <time>
        <begin value="57600"/>
        <end value="61200"/>
    </time>

    <processing>
        <time-to-teleport value="-1"/>
    </processing>

    <report>
        <xml-validation value="never"/>
        <xml-validation.routes value="never"/>
        <no-warnings value="true"/>
        <no-step-log value="true"/>
    </report>

    <emissions>
        <device.emissions.probability value="1"/>
    </emissions>

    <traci_server>
        <remote-port value="45283"/>
    </traci_server>

    <random_number>
        <random value="true"/>
    </random_number>

</configuration>
-->

<tripinfos xmlns:xsi="http://www.w3.org/2001/XMLSchema-instance" xsi:noNamespaceSchemaLocation="http://sumo.dlr.de/xsd/tripinfo_file.xsd">
    <tripinfo id="h15454c2:3" depart="57612.00" departLane="24608844_1" departPos="5.10" departSpeed="0.00" departDelay="0.50" arrival="57657.00" arrivalLane="32978638#0_1" arrivalPos="49.29" arrivalSpeed="12.44" duration="45.00" routeLength="354.79" waitingTime="0.00" waitingCount="0" stopTime="0.00" timeLoss="9.17" rerouteNo="1" devices="tripinfo_h15454c2:3 routing_h15454c2:3 emissions_h15454c2:3" vType="default_016" speedFactor="0.94" vaporized="">
        <emissions CO_abs="2454.123824" CO2_abs="121015.211088" HC_abs="13.990297" PMx_abs="2.112954" NOx_abs="49.806721" fuel_abs="52.019757" electricity_abs="0"/>
    </tripinfo>
    <tripinfo id="carIn60260:1" depart="57606.00" departLane="315358254#0_1" departPos="5.10" departSpeed="0.00" departDelay="0.90" arrival="57676.00" arrivalLane="399835085#1_1" arrivalPos="212.23" arrivalSpeed="7.40" duration="70.00" routeLength="430.98" waitingTime="11.00" waitingCount="1" stopTime="0.00" timeLoss="21.60" rerouteNo="1" devices="tripinfo_carIn60260:1 routing_carIn60260:1 emissions_carIn60260:1" vType="default_016" speedFactor="0.95" vaporized="">
        <emissions CO_abs="4475.139829" CO2_abs="153630.268578" HC_abs="23.929243" PMx_abs="2.788069" NOx_abs="64.001152" fuel_abs="66.040702" electricity_abs="0"/>
    </tripinfo>
    <tripinfo id="carIn53971:1" depart="57640.00" departLane="272042143_1" departPos="5.10" departSpeed="0.00" departDelay="0.80" arrival="57696.00" arrivalLane="24634414#1_1" arrivalPos="162.19" arrivalSpeed="7.25" duration="56.00" routeLength="493.04" waitingTime="0.00" waitingCount="0" stopTime="0.00" timeLoss="8.66" rerouteNo="1" devices="tripinfo_carIn53971:1 routing_carIn53971:1 emissions_carIn53971:1" vType="default_016" speedFactor="0.97" vaporized="">
        <emissions CO_abs="2506.540602" CO2_abs="137268.125554" HC_abs="14.617190" PMx_abs="2.390264" NOx_abs="56.265285" fuel_abs="59.006049" electricity_abs="0"/>
    </tripinfo>
    <tripinfo id="h12244c1:3" depart="57612.00" departLane="315358244_1" departPos="5.10" departSpeed="0.00" departDelay="0.40" arrival="57716.00" arrivalLane="386687235_1" arrivalPos="80.84" arrivalSpeed="14.39" duration="104.00" routeLength="1186.14" waitingTime="9.00" waitingCount="1" stopTime="0.00" timeLoss="22.65" rerouteNo="1" devices="tripinfo_h12244c1:3 routing_h12244c1:3 emissions_h12244c1:3" vType="default_016" speedFactor="1.07" vaporized="">
        <emissions CO_abs="3766.189405" CO2_abs="278003.878352" HC_abs="23.348443" PMx_abs="4.484523" NOx_abs="109.136516" fuel_abs="119.502320" electricity_abs="0"/>
    </tripinfo>
    <tripinfo id="h9563c2:5" depart="57631.00" departLane="315358244_1" departPos="5.10" departSpeed="0.00" departDelay="0.70" arrival="57718.00" arrivalLane="386687235_1" arrivalPos="80.84" arrivalSpeed="15.07" duration="87.00" routeLength="1186.14" waitingTime="0.00" waitingCount="0" stopTime="0.00" timeLoss="9.53" rerouteNo="1" devices="tripinfo_h9563c2:5 routing_h9563c2:5 emissions_h9563c2:5" vType="default_016" speedFactor="1.11" vaporized="">
        <emissions CO_abs="2715.138406" CO2_abs="229499.206563" HC_abs="17.753324" PMx_abs="3.923365" NOx_abs="91.446982" fuel_abs="98.651550" electricity_abs="0"/>
    </tripinfo>
    <tripinfo id="h7800c1:5" depart="57696.00" departLane="-447569998#1_1" departPos="5.10" departSpeed="0.00" departDelay="0.00" arrival="57720.00" arrivalLane="-447569998#1_2" arrivalPos="180.76" arrivalSpeed="8.50" duration="24.00" routeLength="175.66" waitingTime="0.00" waitingCount="0" stopTime="0.00" timeLoss="3.95" rerouteNo="1" devices="tripinfo_h7800c1:5 routing_h7800c1:5 emissions_h7800c1:5" vType="default_016" speedFactor="1.06" vaporized="">
        <emissions CO_abs="1213.602762" CO2_abs="54081.959154" HC_abs="6.777597" PMx_abs="0.936784" NOx_abs="22.326075" fuel_abs="23.247841" electricity_abs="0"/>
    </tripinfo>
    <tripinfo id="S5R_frequency1.2" depart="57616.00" departLane="315358250#0_1" departPos="12.10" departSpeed="0.00" departDelay="4.40" arrival="57726.00" arrivalLane="386687235_1" arrivalPos="80.84" arrivalSpeed="13.32" duration="110.00" routeLength="1115.62" waitingTime="6.00" waitingCount="1" stopTime="0.00" timeLoss="28.19" rerouteNo="1" devices="tripinfo_S5R_frequency1.2 routing_S5R_frequency1.2 emissions_S5R_frequency1.2" vType="bus" speedFactor="1.00" vaporized="">
        <emissions CO_abs="2353.996610" CO2_abs="1446803.875910" HC_abs="493.522491" PMx_abs="251.426756" NOx_abs="11307.955683" fuel_abs="617.031621" electricity_abs="0"/>
    </tripinfo>
    <tripinfo id="h7181c1:1" depart="57660.00" departLane="315358254#0_1" departPos="5.10" departSpeed="0.00" departDelay="0.10" arrival="57730.00" arrivalLane="306240162#0_0" arrivalPos="220.43" arrivalSpeed="17.60" duration="70.00" routeLength="932.35" waitingTime="9.00" waitingCount="1" stopTime="0.00" timeLoss="22.66" rerouteNo="1" devices="tripinfo_h7181c1:1 routing_h7181c1:1 emissions_h7181c1:1" vType="default_016" speedFactor="1.08" vaporized="">
        <emissions CO_abs="4836.346452" CO2_abs="292128.651297" HC_abs="29.074923" PMx_abs="5.926584" NOx_abs="121.363152" fuel_abs="125.573051" electricity_abs="0"/>
    </tripinfo>
    <tripinfo id="carIn22761:1" depart="57616.00" departLane="-306240162#1_0" departPos="5.10" departSpeed="0.00" departDelay="2.10" arrival="57734.00" arrivalLane="399835085#1_1" arrivalPos="212.23" arrivalSpeed="8.44" duration="118.00" routeLength="1093.26" waitingTime="13.00" waitingCount="2" stopTime="0.00" timeLoss="40.50" rerouteNo="1" devices="tripinfo_carIn22761:1 routing_carIn22761:1 emissions_carIn22761:1" vType="default_016" speedFactor="1.01" vaporized="">
        <emissions CO_abs="6625.009532" CO2_abs="356069.726463" HC_abs="38.532425" PMx_abs="6.742093" NOx_abs="148.021718" fuel_abs="153.059475" electricity_abs="0"/>
    </tripinfo>
    <tripinfo id="h3568c1:3" depart="57656.00" departLane="266565295#5_1" departPos="5.10" departSpeed="0.00" departDelay="0.80" arrival="57736.00" arrivalLane="-24634415_1" arrivalPos="62.03" arrivalSpeed="12.74" duration="80.00" routeLength="807.40" waitingTime="0.00" waitingCount="0" stopTime="0.00" timeLoss="13.00" rerouteNo="1" devices="tripinfo_h3568c1:3 routing_h3568c1:3 emissions_h3568c1:3" vType="default_016" speedFactor="0.97" vaporized="">
        <emissions CO_abs="3376.992632" CO2_abs="207057.720252" HC_abs="20.227678" PMx_abs="3.602017" NOx_abs="84.424984" fuel_abs="89.005494" electricity_abs="0"/>
    </tripinfo>
    <tripinfo id="h4538c1:1" depart="57701.00" departLane="-10427692#1_1" departPos="5.10" departSpeed="0.00" departDelay="0.00" arrival="57740.00" arrivalLane="-128361102#1_1" arrivalPos="274.68" arrivalSpeed="13.03" duration="39.00" routeLength="440.74" waitingTime="0.00" waitingCount="0" stopTime="0.00" timeLoss="6.92" rerouteNo="1" devices="tripinfo_h4538c1:1 routing_h4538c1:1 emissions_h4538c1:1" vType="default_016" speedFactor="1.00" vaporized="">
        <emissions CO_abs="1374.344993" CO2_abs="103827.592296" HC_abs="8.629170" PMx_abs="1.620220" NOx_abs="40.646306" fuel_abs="44.631213" electricity_abs="0"/>
    </tripinfo>
    <tripinfo id="h317c2:1" depart="57707.00" departLane="-32978638#0_1" departPos="5.10" departSpeed="0.00" departDelay="0.10" arrival="57743.00" arrivalLane="-266565295#5_1" arrivalPos="172.76" arrivalSpeed="15.15" duration="36.00" routeLength="370.53" waitingTime="3.00" waitingCount="1" stopTime="0.00" timeLoss="10.81" rerouteNo="1" devices="tripinfo_h317c2:1 routing_h317c2:1 emissions_h317c2:1" vType="default_016" speedFactor="1.12" vaporized="">
        <emissions CO_abs="2178.398617" CO2_abs="126762.942121" HC_abs="12.942167" PMx_abs="2.493815" NOx_abs="53.485668" fuel_abs="54.489772" electricity_abs="0"/>
    </tripinfo>
    <tripinfo id="h5979c1:5" depart="57669.00" departLane="399835085#1_1" departPos="5.10" departSpeed="0.00" departDelay="0.00" arrival="57751.00" arrivalLane="-315358254#1_1" arrivalPos="137.16" arrivalSpeed="14.81" duration="82.00" routeLength="659.33" waitingTime="1.00" waitingCount="1" stopTime="0.00" timeLoss="14.63" rerouteNo="1" devices="tripinfo_h5979c1:5 routing_h5979c1:5 emissions_h5979c1:5" vType="default_016" speedFactor="1.10" vaporized="">
        <emissions CO_abs="3383.452614" CO2_abs="173258.718561" HC_abs="19.426291" PMx_abs="2.937083" NOx_abs="70.617567" fuel_abs="74.477256" electricity_abs="0"/>
    </tripinfo>
    <tripinfo id="h3688c1:1" depart="57625.00" departLane="201201950#1_1" departPos="5.10" departSpeed="0.00" departDelay="0.00" arrival="57755.00" arrivalLane="32978638#0_1" arrivalPos="49.29" arrivalSpeed="12.75" duration="130.00" routeLength="1089.75" waitingTime="26.00" waitingCount="1" stopTime="0.00" timeLoss="44.49" rerouteNo="1" devices="tripinfo_h3688c1:1 routing_h3688c1:1 emissions_h3688c1:1" vType="default_016" speedFactor="0.94" vaporized="">
        <emissions CO_abs="7480.516276" CO2_abs="318940.119850" HC_abs="41.512421" PMx_abs="5.765609" NOx_abs="131.037937" fuel_abs="137.100741" electricity_abs="0"/>
    </tripinfo>
    <tripinfo id="carIn80064:1" depart="57603.00" departLane="128361109#1_1" departPos="5.10" departSpeed="0.00" departDelay="0.40" arrival="57757.00" arrivalLane="-315358254#1_1" arrivalPos="137.16" arrivalSpeed="13.55" duration="154.00" routeLength="1587.97" waitingTime="24.00" waitingCount="3" stopTime="0.00" timeLoss="64.17" rerouteNo="1" devices="tripinfo_carIn80064:1 routing_carIn80064:1 emissions_carIn80064:1" vType="default_016" speedFactor="1.00" vaporized="">
        <emissions CO_abs="9151.154027" CO2_abs="511989.380166" HC_abs="53.929115" PMx_abs="10.147403" NOx_abs="213.426340" fuel_abs="220.082059" electricity_abs="0"/>
    </tripinfo>
    <tripinfo id="carIn30817:1" depart="57681.00" departLane="315358244_1" departPos="5.10" departSpeed="0.00" departDelay="0.20" arrival="57763.00" arrivalLane="447569997#1_1" arrivalPos="180.93" arrivalSpeed="8.15" duration="82.00" routeLength="718.04" waitingTime="10.00" waitingCount="2" stopTime="0.00" timeLoss="21.76" rerouteNo="1" devices="tripinfo_carIn30817:1 routing_carIn30817:1 emissions_carIn30817:1" vType="default_016" speedFactor="1.03" vaporized="">
        <emissions CO_abs="3136.215960" CO2_abs="175380.406243" HC_abs="18.342043" PMx_abs="2.965857" NOx_abs="70.801704" fuel_abs="75.389113" electricity_abs="0"/>
    </tripinfo>
    <tripinfo id="h3326c1:2" depart="57656.00" departLane="22716069#0_1" departPos="5.10" departSpeed="0.00" departDelay="0.00" arrival="57769.00" arrivalLane="24634517#13_1" arrivalPos="111.62" arrivalSpeed="13.41" duration="113.00" routeLength="1312.81" waitingTime="0.00" waitingCount="0" stopTime="0.00" timeLoss="14.93" rerouteNo="1" devices="tripinfo_h3326c1:2 routing_h3326c1:2 emissions_h3326c1:2" vType="default_016" speedFactor="0.99" vaporized="">
        <emissions CO_abs="3854.009424" CO2_abs="299251.127770" HC_abs="24.551873" PMx_abs="5.031536" NOx_abs="119.880887" fuel_abs="128.635091" electricity_abs="0"/>
    </tripinfo>
    <tripinfo id="carIn27009:1" depart="57673.00" departLane="-447569998#1_1" departPos="5.10" departSpeed="0.00" departDelay="0.50" arrival="57771.00" arrivalLane="-26677539_1" arrivalPos="152.75" arrivalSpeed="6.75" duration="98.00" routeLength="699.63" waitingTime="0.00" waitingCount="0" stopTime="0.00" timeLoss="11.30" rerouteNo="1" devices="tripinfo_carIn27009:1 routing_carIn27009:1 emissions_carIn27009:1" vType="default_015" speedFactor="0.97" vaporized="">
        <emissions CO_abs="3941.155887" CO2_abs="180125.333465" HC_abs="22.050403" PMx_abs="2.781026" NOx_abs="72.262992" fuel_abs="77.429665" electricity_abs="0"/>
    </tripinfo>
    <tripinfo id="h330c1:1" depart="57736.00" departLane="-32978638#0_1" departPos="5.10" departSpeed="0.00" departDelay="0.20" arrival="57771.00" arrivalLane="-266565295#5_1" arrivalPos="172.76" arrivalSpeed="12.97" duration="35.00" routeLength="370.53" waitingTime="0.00" waitingCount="0" stopTime="0.00" timeLoss="6.32" rerouteNo="1" devices="tripinfo_h330c1:1 routing_h330c1:1 emissions_h330c1:1" vType="default_016" speedFactor="0.97" vaporized="">
        <emissions CO_abs="1566.754712" CO2_abs="107614.653129" HC_abs="9.645946" PMx_abs="1.781100" NOx_abs="43.122775" fuel_abs="46.259055" electricity_abs="0"/>
    </tripinfo>
    <tripinfo id="h645c1:1" depart="57622.00" departLane="266565295#5_1" departPos="5.10" departSpeed="0.00" departDelay="0.40" arrival="57773.00" arrivalLane="-315358244_1" arrivalPos="33.95" arrivalSpeed="14.99" duration="151.00" routeLength="1910.83" waitingTime="9.00" waitingCount="1" stopTime="0.00" timeLoss="26.35" rerouteNo="1" devices="tripinfo_h645c1:1 routing_h645c1:1 emissions_h645c1:1" vType="default_016" speedFactor="1.11" vaporized="">
        <emissions CO_abs="5128.343566" CO2_abs="402765.211938" HC_abs="32.665593" PMx_abs="6.762505" NOx_abs="159.111055" fuel_abs="173.131473" electricity_abs="0"/>
    </tripinfo>
    <tripinfo id="h3154c1:1" depart="57658.00" departLane="24634507_1" departPos="5.10" departSpeed="0.00" departDelay="0.00" arrival="57791.00" arrivalLane="-266565295#5_1" arrivalPos="172.76" arrivalSpeed="11.21" duration="133.00" routeLength="1206.22" waitingTime="14.00" waitingCount="1" stopTime="0.00" timeLoss="28.79" rerouteNo="1" devices="tripinfo_h3154c1:1 routing_h3154c1:1 emissions_h3154c1:1" vType="default_016" speedFactor="0.86" vaporized="">
        <emissions CO_abs="5450.975031" CO2_abs="298853.114319" HC_abs="31.771580" PMx_abs="5.026996" NOx_abs="120.713573" fuel_abs="128.465272" electricity_abs="0"/>
    </tripinfo>
    <tripinfo id="carIn107282:1" depart="57749.00" departLane="-447569998#1_1" departPos="5.10" departSpeed="0.00" departDelay="0.00" arrival="57797.00" arrivalLane="315358242#0_1" arrivalPos="165.37" arrivalSpeed="12.63" duration="48.00" routeLength="448.50" waitingTime="0.00" waitingCount="0" stopTime="0.00" timeLoss="5.39" rerouteNo="1" devices="tripinfo_carIn107282:1 routing_carIn107282:1 emissions_carIn107282:1" vType="default_016" speedFactor="0.99" vaporized="">
        <emissions CO_abs="1941.768853" CO2_abs="114901.673303" HC_abs="11.487478" PMx_abs="1.776451" NOx_abs="45.483682" fuel_abs="49.391836" electricity_abs="0"/>
    </tripinfo>
    <tripinfo id="carIn86816:1" depart="57617.00" departLane="128361102#0_1" departPos="5.10" departSpeed="0.00" departDelay="0.80" arrival="57805.00" arrivalLane="201956811#0_1" arrivalPos="40.40" arrivalSpeed="13.06" duration="188.00" routeLength="2067.33" waitingTime="6.00" waitingCount="3" stopTime="0.00" timeLoss="44.34" rerouteNo="1" devices="tripinfo_carIn86816:1 routing_carIn86816:1 emissions_carIn86816:1" vType="default_016" speedFactor="1.05" vaporized="">
        <emissions CO_abs="6828.199155" CO2_abs="495307.366353" HC_abs="42.545190" PMx_abs="8.400204" NOx_abs="198.350860" fuel_abs="212.911474" electricity_abs="0"/>
    </tripinfo>
    <tripinfo id="carIn129809:1" depart="57729.00" departLane="-447569998#1_1" departPos="5.10" departSpeed="0.00" departDelay="1.00" arrival="57805.00" arrivalLane="-315358244_1" arrivalPos="33.95" arrivalSpeed="14.37" duration="76.00" routeLength="706.49" waitingTime="9.00" waitingCount="1" stopTime="0.00" timeLoss="19.45" rerouteNo="1" devices="tripinfo_carIn129809:1 routing_carIn129809:1 emissions_carIn129809:1" vType="default_015" speedFactor="1.06" vaporized="">
        <emissions CO_abs="3463.218538" CO2_abs="183267.610369" HC_abs="20.049172" PMx_abs="3.196418" NOx_abs="74.418697" fuel_abs="78.779546" electricity_abs="0"/>
    </tripinfo>
    <tripinfo id="h11737c1:1" depart="57665.00" departLane="272042143_1" departPos="5.10" departSpeed="0.00" departDelay="1.50" arrival="57806.00" arrivalLane="-315358254#1_1" arrivalPos="137.16" arrivalSpeed="16.23" duration="141.00" routeLength="1596.88" waitingTime="21.00" waitingCount="2" stopTime="0.00" timeLoss="47.47" rerouteNo="1" devices="tripinfo_h11737c1:1 routing_h11737c1:1 emissions_h11737c1:1" vType="default_016" speedFactor="1.25" vaporized="">
        <emissions CO_abs="6723.078254" CO2_abs="389286.910284" HC_abs="39.691783" PMx_abs="7.161763" NOx_abs="158.355896" fuel_abs="167.338234" electricity_abs="0"/>
    </tripinfo>
    <tripinfo id="carIn126288:1" depart="57674.00" departLane="272042143_1" departPos="5.10" departSpeed="0.00" departDelay="0.00" arrival="57808.00" arrivalLane="-315358254#1_1" arrivalPos="137.16" arrivalSpeed="15.10" duration="134.00" routeLength="1596.88" waitingTime="9.00" waitingCount="1" stopTime="0.00" timeLoss="31.82" rerouteNo="1" devices="tripinfo_carIn126288:1 routing_carIn126288:1 emissions_carIn126288:1" vType="default_016" speedFactor="1.14" vaporized="">
        <emissions CO_abs="5424.576081" CO2_abs="374486.457992" HC_abs="33.363739" PMx_abs="6.666963" NOx_abs="151.326124" fuel_abs="160.975529" electricity_abs="0"/>
    </tripinfo>
    <tripinfo id="carIn50326:1" depart="57651.00" departLane="128361102#0_1" departPos="5.10" departSpeed="0.00" departDelay="0.30" arrival="57811.00" arrivalLane="18809673#0_1" arrivalPos="473.56" arrivalSpeed="14.46" duration="160.00" routeLength="1591.07" waitingTime="16.00" waitingCount="1" stopTime="0.00" timeLoss="35.76" rerouteNo="1" devices="tripinfo_carIn50326:1 routing_carIn50326:1 emissions_carIn50326:1" vType="default_016" speedFactor="1.05" vaporized="">
        <emissions CO_abs="7022.681515" CO2_abs="395474.689185" HC_abs="41.186386" PMx_abs="6.774008" NOx_abs="159.272390" fuel_abs="169.998885" electricity_abs="0"/>
    </tripinfo>
    <tripinfo id="carIn102915:1" depart="57643.00" departLane="128361102#0_1" departPos="5.10" departSpeed="0.00" departDelay="0.40" arrival="57813.00" arrivalLane="201956811#0_1" arrivalPos="40.40" arrivalSpeed="13.10" duration="170.00" routeLength="2067.33" waitingTime="0.00" waitingCount="0" stopTime="0.00" timeLoss="17.83" rerouteNo="1" devices="tripinfo_carIn102915:1 routing_carIn102915:1 emissions_carIn102915:1" vType="default_016" speedFactor="0.99" vaporized="">
        <emissions CO_abs="4625.002620" CO2_abs="421237.227229" HC_abs="30.804088" PMx_abs="6.477041" NOx_abs="163.776504" fuel_abs="181.071973" electricity_abs="0"/>
    </tripinfo>
    <tripinfo id="carIn28951:1" depart="57606.00" departLane="10425609#0_1" departPos="5.10" departSpeed="0.00" departDelay="0.20" arrival="57817.00" arrivalLane="-128361102#1_1" arrivalPos="274.68" arrivalSpeed="12.94" duration="211.00" routeLength="2113.04" waitingTime="23.00" waitingCount="3" stopTime="0.00" timeLoss="53.42" rerouteNo="1" devices="tripinfo_carIn28951:1 routing_carIn28951:1 emissions_carIn28951:1" vType="default_016" speedFactor="0.98" vaporized="">
        <emissions CO_abs="7800.530610" CO2_abs="519977.571714" HC_abs="47.607455" PMx_abs="8.566222" NOx_abs="207.064217" fuel_abs="223.517046" electricity_abs="0"/>
    </tripinfo>
    <tripinfo id="carIn107084:1" depart="57601.00" departLane="124812856#0_1" departPos="5.10" departSpeed="0.00" departDelay="0.70" arrival="57818.00" arrivalLane="-128361102#1_1" arrivalPos="274.68" arrivalSpeed="14.67" duration="217.00" routeLength="2250.49" waitingTime="20.00" waitingCount="3" stopTime="0.00" timeLoss="71.09" rerouteNo="1" devices="tripinfo_carIn107084:1 routing_carIn107084:1 emissions_carIn107084:1" vType="default_016" speedFactor="1.12" vaporized="">
        <emissions CO_abs="10110.428974" CO2_abs="650687.466246" HC_abs="61.332918" PMx_abs="11.759646" NOx_abs="266.258830" fuel_abs="279.702534" electricity_abs="0"/>
    </tripinfo>
    <tripinfo id="carIn82278:1" depart="57702.00" departLane="-306240162#1_0" departPos="5.10" departSpeed="0.00" departDelay="0.70" arrival="57819.00" arrivalLane="399835085#1_1" arrivalPos="212.23" arrivalSpeed="8.27" duration="117.00" routeLength="1093.26" waitingTime="10.00" waitingCount="2" stopTime="0.00" timeLoss="38.01" rerouteNo="1" devices="tripinfo_carIn82278:1 routing_carIn82278:1 emissions_carIn82278:1" vType="default_016" speedFactor="1.00" vaporized="">
        <emissions CO_abs="6282.279044" CO2_abs="344730.854913" HC_abs="36.801234" PMx_abs="6.619421" NOx_abs="143.303522" fuel_abs="148.185190" electricity_abs="0"/>
    </tripinfo>
    <tripinfo id="carIn77943:1" depart="57608.00" departLane="124812856#0_1" departPos="5.10" departSpeed="0.00" departDelay="2.50" arrival="57825.00" arrivalLane="-128361102#1_1" arrivalPos="274.68" arrivalSpeed="12.34" duration="217.00" routeLength="2250.49" waitingTime="10.00" waitingCount="1" stopTime="0.00" timeLoss="31.78" rerouteNo="1" devices="tripinfo_carIn77943:1 routing_carIn77943:1 emissions_carIn77943:1" vType="default_016" speedFactor="0.89" vaporized="">
        <emissions CO_abs="6843.120876" CO2_abs="446662.729013" HC_abs="41.530470" PMx_abs="7.155893" NOx_abs="177.370320" fuel_abs="192.002355" electricity_abs="0"/>
    </tripinfo>
    <tripinfo id="carIn118591:1" depart="57689.00" departLane="315358244_1" departPos="5.10" departSpeed="0.00" departDelay="0.20" arrival="57837.00" arrivalLane="386687235_1" arrivalPos="80.84" arrivalSpeed="12.02" duration="148.00" routeLength="1186.14" waitingTime="39.00" waitingCount="1" stopTime="0.00" timeLoss="52.10" rerouteNo="1" devices="tripinfo_carIn118591:1 routing_carIn118591:1 emissions_carIn118591:1" vType="default_016" speedFactor="0.90" vaporized="">
        <emissions CO_abs="8576.974231" CO2_abs="322402.832957" HC_abs="46.550899" PMx_abs="5.802460" NOx_abs="132.234564" fuel_abs="138.590149" electricity_abs="0"/>
    </tripinfo>
    <tripinfo id="carIn81046:1" depart="57611.00" departLane="124812856#0_1" departPos="5.10" departSpeed="0.00" departDelay="2.50" arrival="57838.00" arrivalLane="-128361102#1_1" arrivalPos="274.68" arrivalSpeed="12.46" duration="227.00" routeLength="2250.49" waitingTime="15.00" waitingCount="2" stopTime="0.00" timeLoss="51.96" rerouteNo="1" devices="tripinfo_carIn81046:1 routing_carIn81046:1 emissions_carIn81046:1" vType="default_016" speedFactor="0.94" vaporized="">
        <emissions CO_abs="7992.349930" CO2_abs="533029.292144" HC_abs="48.863958" PMx_abs="9.026296" NOx_abs="215.073834" fuel_abs="229.126949" electricity_abs="0"/>
    </tripinfo>
    <tripinfo id="carIn77438:1" depart="57614.00" departLane="124812856#0_1" departPos="5.10" departSpeed="0.00" departDelay="1.10" arrival="57840.00" arrivalLane="-128361102#1_1" arrivalPos="274.68" arrivalSpeed="13.12" duration="226.00" routeLength="2250.49" waitingTime="14.00" waitingCount="2" stopTime="0.00" timeLoss="60.85" rerouteNo="1" devices="tripinfo_carIn77438:1 routing_carIn77438:1 emissions_carIn77438:1" vType="default_016" speedFactor="1.00" vaporized="">
        <emissions CO_abs="9045.713682" CO2_abs="579969.442424" HC_abs="54.818655" PMx_abs="10.312676" NOx_abs="237.628452" fuel_abs="249.304051" electricity_abs="0"/>
    </tripinfo>
    <tripinfo id="h19804c1:3" depart="57617.00" departLane="124812856#0_1" departPos="5.10" departSpeed="0.00" departDelay="1.50" arrival="57842.00" arrivalLane="-128361102#1_1" arrivalPos="274.68" arrivalSpeed="12.62" duration="225.00" routeLength="2250.49" waitingTime="16.00" waitingCount="3" stopTime="0.00" timeLoss="52.54" rerouteNo="1" devices="tripinfo_h19804c1:3 routing_h19804c1:3 emissions_h19804c1:3" vType="default_016" speedFactor="0.96" vaporized="">
        <emissions CO_abs="8404.003551" CO2_abs="544280.306000" HC_abs="51.005087" PMx_abs="9.250724" NOx_abs="219.366968" fuel_abs="233.963492" electricity_abs="0"/>
    </tripinfo>
    <tripinfo id="randUni31145:1" depart="57814.00" departLane="10425609#0_1" departPos="5.10" departSpeed="0.00" departDelay="0.30" arrival="57842.00" arrivalLane="201956810_1" arrivalPos="71.65" arrivalSpeed="11.45" duration="28.00" routeLength="255.78" waitingTime="0.00" waitingCount="0" stopTime="0.00" timeLoss="5.63" rerouteNo="1" devices="tripinfo_randUni31145:1 routing_randUni31145:1 emissions_randUni31145:1" vType="random_016" speedFactor="0.91" vaporized="">
        <emissions CO_abs="1634.415829" CO2_abs="91770.912725" HC_abs="9.595088" PMx_abs="1.648420" NOx_abs="37.943682" fuel_abs="39.448514" electricity_abs="0"/>
    </tripinfo>
    <tripinfo id="h16072c2:3" depart="57663.00" departLane="315358254#0_1" departPos="5.10" departSpeed="0.00" departDelay="2.50" arrival="57843.00" arrivalLane="386687235_1" arrivalPos="80.84" arrivalSpeed="14.23" duration="180.00" routeLength="1611.92" waitingTime="53.00" waitingCount="1" stopTime="0.00" timeLoss="69.79" rerouteNo="1" devices="tripinfo_h16072c2:3 routing_h16072c2:3 emissions_h16072c2:3" vType="default_016" speedFactor="1.07" vaporized="">
        <emissions CO_abs="11943.608393" CO2_abs="456295.332023" HC_abs="65.061661" PMx_abs="8.802111" NOx_abs="189.933899" fuel_abs="196.145063" electricity_abs="0"/>
    </tripinfo>
    <tripinfo id="h19413c1:1" depart="57685.00" departLane="128361109#1_1" departPos="5.10" departSpeed="0.00" departDelay="5.90" arrival="57843.00" arrivalLane="386687235_2" arrivalPos="80.84" arrivalSpeed="17.19" duration="158.00" routeLength="2088.57" waitingTime="11.00" waitingCount="1" stopTime="0.00" timeLoss="38.25" rerouteNo="1" devices="tripinfo_h19413c1:1 routing_h19413c1:1 emissions_h19413c1:1" vType="default_016" speedFactor="1.26" vaporized="">
        <emissions CO_abs="5496.259945" CO2_abs="421851.280585" HC_abs="34.894210" PMx_abs="7.345783" NOx_abs="167.331364" fuel_abs="181.335576" electricity_abs="0"/>
    </tripinfo>
    <tripinfo id="carIn12365:1" depart="57713.00" departLane="315358244_1" departPos="5.10" departSpeed="0.00" departDelay="0.50" arrival="57843.00" arrivalLane="447569997#1_1" arrivalPos="180.93" arrivalSpeed="6.48" duration="130.00" routeLength="718.04" waitingTime="40.00" waitingCount="2" stopTime="0.00" timeLoss="55.58" rerouteNo="1" devices="tripinfo_carIn12365:1 routing_carIn12365:1 emissions_carIn12365:1" vType="default_016" speedFactor="0.83" vaporized="">
        <emissions CO_abs="8510.091007" CO2_abs="258017.440127" HC_abs="44.711154" PMx_abs="4.770101" NOx_abs="107.458307" fuel_abs="110.914162" electricity_abs="0"/>
    </tripinfo>
    <tripinfo id="carIn85747:1" depart="57673.00" departLane="128361109#1_1" departPos="5.10" departSpeed="0.00" departDelay="0.70" arrival="57845.00" arrivalLane="386687235_1" arrivalPos="80.84" arrivalSpeed="13.10" duration="172.00" routeLength="2088.57" waitingTime="4.00" waitingCount="1" stopTime="0.00" timeLoss="26.75" rerouteNo="1" devices="tripinfo_carIn85747:1 routing_carIn85747:1 emissions_carIn85747:1" vType="default_016" speedFactor="1.04" vaporized="">
        <emissions CO_abs="4645.015697" CO2_abs="405445.714840" HC_abs="30.527343" PMx_abs="6.329443" NOx_abs="157.609250" fuel_abs="174.283955" electricity_abs="0"/>
    </tripinfo>
    <tripinfo id="h9953c2:3" depart="57682.00" departLane="-54169231#2_1" departPos="5.10" departSpeed="0.00" departDelay="0.00" arrival="57845.00" arrivalLane="386687235_2" arrivalPos="80.84" arrivalSpeed="14.38" duration="163.00" routeLength="1535.60" waitingTime="8.00" waitingCount="2" stopTime="0.00" timeLoss="47.00" rerouteNo="1" devices="tripinfo_h9953c2:3 routing_h9953c2:3 emissions_h9953c2:3" vType="default_016" speedFactor="1.08" vaporized="">
        <emissions CO_abs="7465.555905" CO2_abs="439101.248426" HC_abs="44.330336" PMx_abs="7.975338" NOx_abs="180.800527" fuel_abs="188.751133" electricity_abs="0"/>
    </tripinfo>
    <tripinfo id="randUni15030:1" depart="57735.00" departLane="386687232#0_1" departPos="5.10" departSpeed="0.00" departDelay="0.10" arrival="57845.00" arrivalLane="26677539_1" arrivalPos="151.98" arrivalSpeed="7.00" duration="110.00" routeLength="919.89" waitingTime="5.00" waitingCount="1" stopTime="0.00" timeLoss="20.50" rerouteNo="1" devices="tripinfo_randUni15030:1 routing_randUni15030:1 emissions_randUni15030:1" vType="random_016" speedFactor="0.93" vaporized="">
        <emissions CO_abs="4038.405481" CO2_abs="214073.971607" HC_abs="23.371292" PMx_abs="3.672095" NOx_abs="87.329129" fuel_abs="92.021996" electricity_abs="0"/>
    </tripinfo>
    <tripinfo id="randUni33724:1" depart="57645.00" departLane="128361102#0_1" departPos="5.10" departSpeed="0.00" departDelay="0.20" arrival="57846.00" arrivalLane="201956811#0_1" arrivalPos="40.40" arrivalSpeed="11.27" duration="201.00" routeLength="2067.33" waitingTime="2.00" waitingCount="1" stopTime="0.00" timeLoss="27.09" rerouteNo="1" devices="tripinfo_randUni33724:1 routing_randUni33724:1 emissions_randUni33724:1" vType="random_016" speedFactor="0.87" vaporized="">
        <emissions CO_abs="6080.808558" CO2_abs="434613.453823" HC_abs="37.765061" PMx_abs="6.817522" NOx_abs="171.918033" fuel_abs="186.822555" electricity_abs="0"/>
    </tripinfo>