<?xml version="1.0" encoding="UTF-8"?>

<!-- generated on Thu Nov  4 13:40:17 2021 by Eclipse SUMO sumo Version 1.9.0
<configuration xmlns:xsi="http://www.w3.org/2001/XMLSchema-instance" xsi:noNamespaceSchemaLocation="http://sumo.dlr.de/xsd/sumoConfiguration.xsd">

    <input>
        <net-file value="/mainfs/home/bk2g18/RESCO/environments/ingolstadt21/ingolstadt21.net.xml"/>
        <route-files value="/mainfs/home/bk2g18/RESCO/environments/ingolstadt21/ingolstadt21.rou.xml"/>
    </input>

    <output>
        <tripinfo-output value="/mainfs/home/bk2g18/RESCO/logs/MPLight-tr0-ingolstadt21-21-mplight-pressure/tripinfo_49.xml"/>
        <tripinfo-output.write-unfinished value="true"/>
    </output>

    <time>
        <begin value="57600"/>
        <end value="61200"/>
    </time>

    <processing>
        <time-to-teleport value="-1"/>
    </processing>

    <report>
        <xml-validation value="never"/>
        <xml-validation.routes value="never"/>
        <no-warnings value="true"/>
        <no-step-log value="true"/>
    </report>

    <emissions>
        <device.emissions.probability value="1"/>
    </emissions>

    <traci_server>
        <remote-port value="32997"/>
    </traci_server>

    <random_number>
        <random value="true"/>
    </random_number>

</configuration>
-->

<tripinfos xmlns:xsi="http://www.w3.org/2001/XMLSchema-instance" xsi:noNamespaceSchemaLocation="http://sumo.dlr.de/xsd/tripinfo_file.xsd">
    <tripinfo id="h15454c2:3" depart="57612.00" departLane="24608844_1" departPos="5.10" departSpeed="0.00" departDelay="0.50" arrival="57656.00" arrivalLane="32978638#0_1" arrivalPos="49.29" arrivalSpeed="13.99" duration="44.00" routeLength="354.79" waitingTime="1.00" waitingCount="1" stopTime="0.00" timeLoss="10.69" rerouteNo="1" devices="tripinfo_h15454c2:3 routing_h15454c2:3 emissions_h15454c2:3" vType="default_016" speedFactor="1.03" vaporized="">
        <emissions CO_abs="2473.656443" CO2_abs="128848.252236" HC_abs="14.280050" PMx_abs="2.316554" NOx_abs="53.368655" fuel_abs="55.386667" electricity_abs="0"/>
    </tripinfo>
    <tripinfo id="carIn60260:1" depart="57606.00" departLane="315358254#0_1" departPos="5.10" departSpeed="0.00" departDelay="0.90" arrival="57664.00" arrivalLane="399835085#1_1" arrivalPos="212.23" arrivalSpeed="6.65" duration="58.00" routeLength="430.98" waitingTime="0.00" waitingCount="0" stopTime="0.00" timeLoss="6.68" rerouteNo="1" devices="tripinfo_carIn60260:1 routing_carIn60260:1 emissions_carIn60260:1" vType="default_016" speedFactor="0.90" vaporized="">
        <emissions CO_abs="2401.023929" CO2_abs="113145.114719" HC_abs="13.530391" PMx_abs="1.823180" NOx_abs="45.739463" fuel_abs="48.637015" electricity_abs="0"/>
    </tripinfo>
    <tripinfo id="carIn53971:1" depart="57640.00" departLane="272042143_1" departPos="5.10" departSpeed="0.00" departDelay="0.80" arrival="57689.00" arrivalLane="24634414#1_1" arrivalPos="162.19" arrivalSpeed="8.34" duration="49.00" routeLength="493.04" waitingTime="0.00" waitingCount="0" stopTime="0.00" timeLoss="8.40" rerouteNo="1" devices="tripinfo_carIn53971:1 routing_carIn53971:1 emissions_carIn53971:1" vType="default_016" speedFactor="1.13" vaporized="">
        <emissions CO_abs="2226.065074" CO2_abs="139846.729215" HC_abs="13.422695" PMx_abs="2.518958" NOx_abs="57.472593" fuel_abs="60.114118" electricity_abs="0"/>
    </tripinfo>
    <tripinfo id="h3568c1:3" depart="57656.00" departLane="266565295#5_1" departPos="5.10" departSpeed="0.00" departDelay="0.80" arrival="57728.00" arrivalLane="-24634415_1" arrivalPos="62.03" arrivalSpeed="14.27" duration="72.00" routeLength="807.40" waitingTime="0.00" waitingCount="0" stopTime="0.00" timeLoss="14.36" rerouteNo="1" devices="tripinfo_h3568c1:3 routing_h3568c1:3 emissions_h3568c1:3" vType="default_016" speedFactor="1.13" vaporized="">
        <emissions CO_abs="3256.770140" CO2_abs="210038.689546" HC_abs="19.698662" PMx_abs="3.785385" NOx_abs="86.009663" fuel_abs="90.286576" electricity_abs="0"/>
    </tripinfo>
    <tripinfo id="h7800c1:5" depart="57696.00" departLane="-447569998#1_1" departPos="5.10" departSpeed="0.00" departDelay="0.00" arrival="57735.00" arrivalLane="-447569998#1_2" arrivalPos="180.76" arrivalSpeed="3.75" duration="39.00" routeLength="175.66" waitingTime="11.00" waitingCount="1" stopTime="0.00" timeLoss="18.56" rerouteNo="1" devices="tripinfo_h7800c1:5 routing_h7800c1:5 emissions_h7800c1:5" vType="default_016" speedFactor="1.05" vaporized="">
        <emissions CO_abs="2514.590804" CO2_abs="72358.358401" HC_abs="13.120159" PMx_abs="1.367129" NOx_abs="30.546344" fuel_abs="31.104787" electricity_abs="0"/>
    </tripinfo>
    <tripinfo id="h7181c1:1" depart="57660.00" departLane="315358254#0_1" departPos="5.10" departSpeed="0.00" departDelay="0.10" arrival="57738.00" arrivalLane="306240162#0_0" arrivalPos="220.43" arrivalSpeed="15.94" duration="78.00" routeLength="932.35" waitingTime="9.00" waitingCount="1" stopTime="0.00" timeLoss="26.26" rerouteNo="1" devices="tripinfo_h7181c1:1 routing_h7181c1:1 emissions_h7181c1:1" vType="default_016" speedFactor="1.00" vaporized="">
        <emissions CO_abs="4344.333370" CO2_abs="292615.567637" HC_abs="26.714502" PMx_abs="5.736289" NOx_abs="121.447871" fuel_abs="125.782093" electricity_abs="0"/>
    </tripinfo>
    <tripinfo id="h3154c1:1" depart="57658.00" departLane="24634507_1" departPos="5.10" departSpeed="0.00" departDelay="0.00" arrival="57743.00" arrivalLane="-266565295#5_1" arrivalPos="172.76" arrivalSpeed="16.08" duration="85.00" routeLength="1206.22" waitingTime="0.00" waitingCount="0" stopTime="0.00" timeLoss="11.47" rerouteNo="1" devices="tripinfo_h3154c1:1 routing_h3154c1:1 emissions_h3154c1:1" vType="default_016" speedFactor="1.20" vaporized="">
        <emissions CO_abs="3612.549376" CO2_abs="296229.098378" HC_abs="23.341037" PMx_abs="5.351085" NOx_abs="119.508183" fuel_abs="127.335448" electricity_abs="0"/>
    </tripinfo>
    <tripinfo id="h4538c1:1" depart="57701.00" departLane="-10427692#1_1" departPos="5.10" departSpeed="0.00" departDelay="0.00" arrival="57743.00" arrivalLane="-128361102#1_1" arrivalPos="274.68" arrivalSpeed="15.73" duration="42.00" routeLength="440.74" waitingTime="2.00" waitingCount="1" stopTime="0.00" timeLoss="13.61" rerouteNo="1" devices="tripinfo_h4538c1:1 routing_h4538c1:1 emissions_h4538c1:1" vType="default_016" speedFactor="1.13" vaporized="">
        <emissions CO_abs="2042.404400" CO2_abs="128428.205956" HC_abs="12.256759" PMx_abs="2.287231" NOx_abs="52.042737" fuel_abs="55.205869" electricity_abs="0"/>
    </tripinfo>
    <tripinfo id="h12244c1:3" depart="57612.00" departLane="315358244_1" departPos="5.10" departSpeed="0.00" departDelay="0.40" arrival="57746.00" arrivalLane="386687235_1" arrivalPos="80.84" arrivalSpeed="13.95" duration="134.00" routeLength="1186.14" waitingTime="26.00" waitingCount="4" stopTime="0.00" timeLoss="48.31" rerouteNo="1" devices="tripinfo_h12244c1:3 routing_h12244c1:3 emissions_h12244c1:3" vType="default_016" speedFactor="1.01" vaporized="">
        <emissions CO_abs="6215.583510" CO2_abs="313118.864386" HC_abs="35.616529" PMx_abs="5.644834" NOx_abs="128.182201" fuel_abs="134.597484" electricity_abs="0"/>
    </tripinfo>
    <tripinfo id="carIn30817:1" depart="57681.00" departLane="315358244_1" departPos="5.10" departSpeed="0.00" departDelay="0.20" arrival="57747.00" arrivalLane="447569997#1_1" arrivalPos="180.93" arrivalSpeed="7.62" duration="66.00" routeLength="718.04" waitingTime="0.00" waitingCount="0" stopTime="0.00" timeLoss="7.01" rerouteNo="1" devices="tripinfo_carIn30817:1 routing_carIn30817:1 emissions_carIn30817:1" vType="default_016" speedFactor="1.05" vaporized="">
        <emissions CO_abs="2084.094699" CO2_abs="148229.261860" HC_abs="12.920106" PMx_abs="2.334665" NOx_abs="58.340244" fuel_abs="63.717728" electricity_abs="0"/>
    </tripinfo>
    <tripinfo id="h3688c1:1" depart="57625.00" departLane="201201950#1_1" departPos="5.10" departSpeed="0.00" departDelay="0.00" arrival="57750.00" arrivalLane="32978638#0_1" arrivalPos="49.29" arrivalSpeed="13.49" duration="125.00" routeLength="1089.75" waitingTime="34.00" waitingCount="1" stopTime="0.00" timeLoss="48.66" rerouteNo="1" devices="tripinfo_h3688c1:1 routing_h3688c1:1 emissions_h3688c1:1" vType="default_016" speedFactor="1.05" vaporized="">
        <emissions CO_abs="8607.961119" CO2_abs="350128.274760" HC_abs="47.204735" PMx_abs="6.640252" NOx_abs="145.157713" fuel_abs="150.507286" electricity_abs="0"/>
    </tripinfo>
    <tripinfo id="S5R_frequency1.2" depart="57615.00" departLane="315358250#0_1" departPos="12.10" departSpeed="0.00" departDelay="3.40" arrival="57751.00" arrivalLane="386687235_1" arrivalPos="80.84" arrivalSpeed="13.43" duration="136.00" routeLength="1115.62" waitingTime="19.00" waitingCount="3" stopTime="0.00" timeLoss="54.57" rerouteNo="1" devices="tripinfo_S5R_frequency1.2 routing_S5R_frequency1.2 emissions_S5R_frequency1.2" vType="bus" speedFactor="1.00" vaporized="">
        <emissions CO_abs="2613.321774" CO2_abs="1556236.935044" HC_abs="545.329060" PMx_abs="277.638565" NOx_abs="12308.393730" fuel_abs="663.679443" electricity_abs="0"/>
    </tripinfo>
    <tripinfo id="carIn121703:1" depart="57647.00" departLane="386687232#0_1" departPos="5.10" departSpeed="0.00" departDelay="0.30" arrival="57752.00" arrivalLane="-315358244_1" arrivalPos="33.95" arrivalSpeed="12.01" duration="105.00" routeLength="1157.39" waitingTime="4.00" waitingCount="1" stopTime="0.00" timeLoss="15.23" rerouteNo="1" devices="tripinfo_carIn121703:1 routing_carIn121703:1 emissions_carIn121703:1" vType="default_016" speedFactor="0.94" vaporized="">
        <emissions CO_abs="2780.167343" CO2_abs="225168.410272" HC_abs="17.881553" PMx_abs="3.427344" NOx_abs="87.688624" fuel_abs="96.790610" electricity_abs="0"/>
    </tripinfo>
    <tripinfo id="h317c2:1" depart="57707.00" departLane="-32978638#0_1" departPos="5.10" departSpeed="0.00" departDelay="0.10" arrival="57757.00" arrivalLane="-266565295#5_1" arrivalPos="172.76" arrivalSpeed="11.41" duration="50.00" routeLength="370.53" waitingTime="12.00" waitingCount="1" stopTime="0.00" timeLoss="20.37" rerouteNo="1" devices="tripinfo_h317c2:1 routing_h317c2:1 emissions_h317c2:1" vType="default_016" speedFactor="0.91" vaporized="">
        <emissions CO_abs="3284.970074" CO2_abs="138662.189022" HC_abs="18.200475" PMx_abs="2.550284" NOx_abs="57.514147" fuel_abs="59.605759" electricity_abs="0"/>
    </tripinfo>
    <tripinfo id="h9563c2:5" depart="57631.00" departLane="315358244_1" departPos="5.10" departSpeed="0.00" departDelay="0.70" arrival="57758.00" arrivalLane="386687235_1" arrivalPos="80.84" arrivalSpeed="12.20" duration="127.00" routeLength="1186.14" waitingTime="15.00" waitingCount="2" stopTime="0.00" timeLoss="35.20" rerouteNo="1" devices="tripinfo_h9563c2:5 routing_h9563c2:5 emissions_h9563c2:5" vType="default_016" speedFactor="0.95" vaporized="">
        <emissions CO_abs="4673.826977" CO2_abs="278638.271493" HC_abs="27.765452" PMx_abs="4.659532" NOx_abs="111.854518" fuel_abs="119.775445" electricity_abs="0"/>
    </tripinfo>
    <tripinfo id="carIn22761:1" depart="57616.00" departLane="-306240162#1_0" departPos="5.10" departSpeed="0.00" departDelay="2.10" arrival="57764.00" arrivalLane="399835085#1_1" arrivalPos="212.23" arrivalSpeed="7.14" duration="148.00" routeLength="1093.26" waitingTime="47.00" waitingCount="1" stopTime="0.00" timeLoss="69.17" rerouteNo="1" devices="tripinfo_carIn22761:1 routing_carIn22761:1 emissions_carIn22761:1" vType="default_016" speedFactor="0.98" vaporized="">
        <emissions CO_abs="10688.683318" CO2_abs="390330.547836" HC_abs="57.752394" PMx_abs="7.557440" NOx_abs="162.512483" fuel_abs="167.789527" electricity_abs="0"/>
    </tripinfo>
    <tripinfo id="h645c1:1" depart="57622.00" departLane="266565295#5_1" departPos="5.10" departSpeed="0.00" departDelay="0.40" arrival="57764.00" arrivalLane="-315358244_1" arrivalPos="33.95" arrivalSpeed="15.71" duration="142.00" routeLength="1910.83" waitingTime="4.00" waitingCount="1" stopTime="0.00" timeLoss="26.26" rerouteNo="1" devices="tripinfo_h645c1:1 routing_h645c1:1 emissions_h645c1:1" vType="default_016" speedFactor="1.20" vaporized="">
        <emissions CO_abs="5464.831133" CO2_abs="440949.296814" HC_abs="34.885920" PMx_abs="7.722311" NOx_abs="175.797719" fuel_abs="189.544554" electricity_abs="0"/>
    </tripinfo>
    <tripinfo id="h330c1:1" depart="57736.00" departLane="-32978638#0_1" departPos="5.10" departSpeed="0.00" departDelay="0.20" arrival="57777.00" arrivalLane="-266565295#5_1" arrivalPos="172.76" arrivalSpeed="11.97" duration="41.00" routeLength="370.53" waitingTime="1.00" waitingCount="1" stopTime="0.00" timeLoss="10.88" rerouteNo="1" devices="tripinfo_h330c1:1 routing_h330c1:1 emissions_h330c1:1" vType="default_016" speedFactor="0.92" vaporized="">
        <emissions CO_abs="2058.809240" CO2_abs="112273.663497" HC_abs="12.000516" PMx_abs="1.975261" NOx_abs="46.033665" fuel_abs="48.261923" electricity_abs="0"/>
    </tripinfo>
    <tripinfo id="carIn86816:1" depart="57617.00" departLane="128361102#0_1" departPos="5.10" departSpeed="0.00" departDelay="0.80" arrival="57782.00" arrivalLane="201956811#0_1" arrivalPos="40.40" arrivalSpeed="14.73" duration="165.00" routeLength="2067.33" waitingTime="3.00" waitingCount="1" stopTime="0.00" timeLoss="22.62" rerouteNo="1" devices="tripinfo_carIn86816:1 routing_carIn86816:1 emissions_carIn86816:1" vType="default_016" speedFactor="1.06" vaporized="">
        <emissions CO_abs="5119.818350" CO2_abs="435659.365824" HC_abs="33.363274" PMx_abs="7.183071" NOx_abs="172.134604" fuel_abs="187.271002" electricity_abs="0"/>
    </tripinfo>
    <tripinfo id="carIn12365:1" depart="57713.00" departLane="315358244_1" departPos="5.10" departSpeed="0.00" departDelay="0.50" arrival="57783.00" arrivalLane="447569997#1_1" arrivalPos="180.93" arrivalSpeed="7.29" duration="70.00" routeLength="718.04" waitingTime="0.00" waitingCount="0" stopTime="0.00" timeLoss="9.73" rerouteNo="1" devices="tripinfo_carIn12365:1 routing_carIn12365:1 emissions_carIn12365:1" vType="default_016" speedFactor="1.02" vaporized="">
        <emissions CO_abs="2566.905312" CO2_abs="164306.090053" HC_abs="15.499481" PMx_abs="2.683693" NOx_abs="65.645705" fuel_abs="70.628539" electricity_abs="0"/>
    </tripinfo>
    <tripinfo id="carIn80064:1" depart="57603.00" departLane="128361109#1_1" departPos="5.10" departSpeed="0.00" departDelay="0.40" arrival="57789.00" arrivalLane="-315358254#1_1" arrivalPos="137.16" arrivalSpeed="13.03" duration="186.00" routeLength="1587.97" waitingTime="61.00" waitingCount="3" stopTime="0.00" timeLoss="97.65" rerouteNo="1" devices="tripinfo_carIn80064:1 routing_carIn80064:1 emissions_carIn80064:1" vType="default_016" speedFactor="1.01" vaporized="">
        <emissions CO_abs="16311.520248" CO2_abs="643220.870405" HC_abs="89.606159" PMx_abs="13.315466" NOx_abs="272.504711" fuel_abs="276.495968" electricity_abs="0"/>
    </tripinfo>
    <tripinfo id="h3326c1:2" depart="57656.00" departLane="22716069#0_1" departPos="5.10" departSpeed="0.00" departDelay="0.00" arrival="57789.00" arrivalLane="24634517#13_1" arrivalPos="111.62" arrivalSpeed="11.25" duration="133.00" routeLength="1312.81" waitingTime="0.00" waitingCount="0" stopTime="0.00" timeLoss="15.59" rerouteNo="1" devices="tripinfo_h3326c1:2 routing_h3326c1:2 emissions_h3326c1:2" vType="default_016" speedFactor="0.83" vaporized="">
        <emissions CO_abs="4513.002606" CO2_abs="303333.129865" HC_abs="27.569439" PMx_abs="4.761796" NOx_abs="120.373463" fuel_abs="130.390698" electricity_abs="0"/>
    </tripinfo>
    <tripinfo id="h11737c1:1" depart="57665.00" departLane="272042143_1" departPos="5.10" departSpeed="0.00" departDelay="1.50" arrival="57797.00" arrivalLane="-315358254#1_1" arrivalPos="137.16" arrivalSpeed="12.37" duration="132.00" routeLength="1596.88" waitingTime="0.00" waitingCount="0" stopTime="0.00" timeLoss="13.84" rerouteNo="1" devices="tripinfo_h11737c1:1 routing_h11737c1:1 emissions_h11737c1:1" vType="default_016" speedFactor="0.98" vaporized="">
        <emissions CO_abs="3766.779237" CO2_abs="330652.865214" HC_abs="24.841800" PMx_abs="5.126494" NOx_abs="128.988529" fuel_abs="142.133650" electricity_abs="0"/>
    </tripinfo>
    <tripinfo id="h5979c1:5" depart="57669.00" departLane="399835085#1_1" departPos="5.10" departSpeed="0.00" departDelay="0.00" arrival="57800.00" arrivalLane="-315358254#1_1" arrivalPos="137.16" arrivalSpeed="11.81" duration="131.00" routeLength="659.33" waitingTime="35.00" waitingCount="1" stopTime="0.00" timeLoss="50.44" rerouteNo="1" devices="tripinfo_h5979c1:5 routing_h5979c1:5 emissions_h5979c1:5" vType="default_016" speedFactor="0.91" vaporized="">
        <emissions CO_abs="9254.406234" CO2_abs="270000.205348" HC_abs="48.371561" PMx_abs="5.065094" NOx_abs="113.528486" fuel_abs="116.065326" electricity_abs="0"/>
    </tripinfo>
    <tripinfo id="carIn27009:1" depart="57673.00" departLane="-447569998#1_1" departPos="5.10" departSpeed="0.00" departDelay="0.50" arrival="57804.00" arrivalLane="-26677539_1" arrivalPos="152.75" arrivalSpeed="8.29" duration="131.00" routeLength="699.63" waitingTime="33.00" waitingCount="1" stopTime="0.00" timeLoss="47.73" rerouteNo="1" devices="tripinfo_carIn27009:1 routing_carIn27009:1 emissions_carIn27009:1" vType="default_015" speedFactor="1.01" vaporized="">
        <emissions CO_abs="9033.909089" CO2_abs="277319.194674" HC_abs="47.556626" PMx_abs="5.247585" NOx_abs="117.094096" fuel_abs="119.211056" electricity_abs="0"/>
    </tripinfo>
    <tripinfo id="carIn107282:1" depart="57749.00" departLane="-447569998#1_1" departPos="5.10" departSpeed="0.00" departDelay="0.00" arrival="57804.00" arrivalLane="315358242#0_1" arrivalPos="165.37" arrivalSpeed="14.47" duration="55.00" routeLength="448.50" waitingTime="7.00" waitingCount="1" stopTime="0.00" timeLoss="16.01" rerouteNo="1" devices="tripinfo_carIn107282:1 routing_carIn107282:1 emissions_carIn107282:1" vType="default_016" speedFactor="1.08" vaporized="">
        <emissions CO_abs="2772.943356" CO2_abs="136220.102803" HC_abs="15.806001" PMx_abs="2.390350" NOx_abs="55.596538" fuel_abs="58.555800" electricity_abs="0"/>
    </tripinfo>
    <tripinfo id="carIn50326:1" depart="57651.00" departLane="128361102#0_1" departPos="5.10" departSpeed="0.00" departDelay="0.30" arrival="57812.00" arrivalLane="18809673#0_1" arrivalPos="473.56" arrivalSpeed="13.02" duration="161.00" routeLength="1591.07" waitingTime="10.00" waitingCount="1" stopTime="0.00" timeLoss="33.14" rerouteNo="1" devices="tripinfo_carIn50326:1 routing_carIn50326:1 emissions_carIn50326:1" vType="default_016" speedFactor="1.02" vaporized="">
        <emissions CO_abs="6087.385440" CO2_abs="366675.814667" HC_abs="36.198557" PMx_abs="5.966048" NOx_abs="145.976430" fuel_abs="157.619473" electricity_abs="0"/>
    </tripinfo>
    <tripinfo id="carIn118591:1" depart="57689.00" departLane="315358244_1" departPos="5.10" departSpeed="0.00" departDelay="0.20" arrival="57813.00" arrivalLane="386687235_1" arrivalPos="80.84" arrivalSpeed="12.19" duration="124.00" routeLength="1186.14" waitingTime="18.00" waitingCount="1" stopTime="0.00" timeLoss="33.97" rerouteNo="1" devices="tripinfo_carIn118591:1 routing_carIn118591:1 emissions_carIn118591:1" vType="default_016" speedFactor="0.96" vaporized="">
        <emissions CO_abs="5533.003025" CO2_abs="294094.771702" HC_abs="32.063059" PMx_abs="5.059822" NOx_abs="118.725243" fuel_abs="126.419901" electricity_abs="0"/>
    </tripinfo>
    <tripinfo id="carIn126288:1" depart="57674.00" departLane="272042143_1" departPos="5.10" departSpeed="0.00" departDelay="0.00" arrival="57816.00" arrivalLane="-315358254#1_1" arrivalPos="137.16" arrivalSpeed="14.23" duration="142.00" routeLength="1596.88" waitingTime="6.00" waitingCount="2" stopTime="0.00" timeLoss="28.92" rerouteNo="1" devices="tripinfo_carIn126288:1 routing_carIn126288:1 emissions_carIn126288:1" vType="default_016" speedFactor="1.03" vaporized="">
        <emissions CO_abs="4565.496881" CO2_abs="358617.735848" HC_abs="29.100102" PMx_abs="5.826167" NOx_abs="141.573607" fuel_abs="154.154559" electricity_abs="0"/>
    </tripinfo>
    <tripinfo id="carIn102915:1" depart="57643.00" departLane="128361102#0_1" departPos="5.10" departSpeed="0.00" departDelay="0.40" arrival="57821.00" arrivalLane="201956811#0_1" arrivalPos="40.40" arrivalSpeed="14.54" duration="178.00" routeLength="2067.33" waitingTime="5.00" waitingCount="1" stopTime="0.00" timeLoss="34.37" rerouteNo="1" devices="tripinfo_carIn102915:1 routing_carIn102915:1 emissions_carIn102915:1" vType="default_016" speedFactor="1.05" vaporized="">
        <emissions CO_abs="6170.412498" CO2_abs="472730.663574" HC_abs="39.016162" PMx_abs="8.004648" NOx_abs="189.009559" fuel_abs="203.206455" electricity_abs="0"/>
    </tripinfo>
    <tripinfo id="carIn12152:1" depart="57647.00" departLane="24599188#0.94_1" departPos="5.10" departSpeed="0.00" departDelay="0.50" arrival="57821.00" arrivalLane="-315358254#1_1" arrivalPos="137.16" arrivalSpeed="14.56" duration="174.00" routeLength="2034.31" waitingTime="13.00" waitingCount="1" stopTime="0.00" timeLoss="29.80" rerouteNo="1" devices="tripinfo_carIn12152:1 routing_carIn12152:1 emissions_carIn12152:1" vType="default_016" speedFactor="1.09" vaporized="">
        <emissions CO_abs="5953.165437" CO2_abs="430021.400044" HC_abs="36.963286" PMx_abs="6.999517" NOx_abs="169.025521" fuel_abs="184.848421" electricity_abs="0"/>
    </tripinfo>
    <tripinfo id="carIn82220:1" depart="57619.00" departLane="-306240162#1_0" departPos="5.10" departSpeed="0.00" departDelay="3.50" arrival="57824.00" arrivalLane="386687235_1" arrivalPos="80.84" arrivalSpeed="12.63" duration="205.00" routeLength="2257.41" waitingTime="8.00" waitingCount="1" stopTime="0.00" timeLoss="47.13" rerouteNo="1" devices="tripinfo_carIn82220:1 routing_carIn82220:1 emissions_carIn82220:1" vType="default_016" speedFactor="0.95" vaporized="">
        <emissions CO_abs="7681.258863" CO2_abs="540389.564431" HC_abs="47.661488" PMx_abs="9.238070" NOx_abs="217.439160" fuel_abs="232.290448" electricity_abs="0"/>
    </tripinfo>
    <tripinfo id="carIn48184:1" depart="57613.00" departLane="-306240162#1_0" departPos="5.10" departSpeed="0.00" departDelay="0.70" arrival="57826.00" arrivalLane="386687235_2" arrivalPos="80.84" arrivalSpeed="10.89" duration="213.00" routeLength="2257.41" waitingTime="0.00" waitingCount="0" stopTime="0.00" timeLoss="24.58" rerouteNo="1" devices="tripinfo_carIn48184:1 routing_carIn48184:1 emissions_carIn48184:1" vType="default_016" speedFactor="0.79" vaporized="">
        <emissions CO_abs="6125.808535" CO2_abs="446945.964116" HC_abs="38.062985" PMx_abs="6.926951" NOx_abs="175.231298" fuel_abs="192.123886" electricity_abs="0"/>
    </tripinfo>
    <tripinfo id="carIn81860:1" depart="57712.00" departLane="128361102#0_1" departPos="5.10" departSpeed="0.00" departDelay="0.60" arrival="57826.00" arrivalLane="-24634517#17_1" arrivalPos="6.43" arrivalSpeed="7.61" duration="114.00" routeLength="1229.64" waitingTime="7.00" waitingCount="1" stopTime="0.00" timeLoss="26.49" rerouteNo="1" devices="tripinfo_carIn81860:1 routing_carIn81860:1 emissions_carIn81860:1" vType="default_016" speedFactor="1.03" vaporized="">
        <emissions CO_abs="3854.824405" CO2_abs="281900.224387" HC_abs="24.149935" PMx_abs="4.724447" NOx_abs="112.594323" fuel_abs="121.176931" electricity_abs="0"/>
    </tripinfo>
    <tripinfo id="randUni15030:1" depart="57735.00" departLane="386687232#0_1" departPos="5.10" departSpeed="0.00" departDelay="0.10" arrival="57826.00" arrivalLane="26677539_1" arrivalPos="151.98" arrivalSpeed="9.65" duration="91.00" routeLength="919.89" waitingTime="5.00" waitingCount="1" stopTime="0.00" timeLoss="20.22" rerouteNo="1" devices="tripinfo_randUni15030:1 routing_randUni15030:1 emissions_randUni15030:1" vType="random_016" speedFactor="1.18" vaporized="">
        <emissions CO_abs="3907.752972" CO2_abs="248187.005701" HC_abs="23.530610" PMx_abs="4.293203" NOx_abs="100.209836" fuel_abs="106.685248" electricity_abs="0"/>
    </tripinfo>
    <tripinfo id="h16072c2:3" depart="57663.00" departLane="315358254#0_1" departPos="5.10" departSpeed="0.00" departDelay="2.50" arrival="57829.00" arrivalLane="386687235_1" arrivalPos="80.84" arrivalSpeed="12.28" duration="166.00" routeLength="1611.92" waitingTime="9.00" waitingCount="1" stopTime="0.00" timeLoss="35.84" rerouteNo="1" devices="tripinfo_h16072c2:3 routing_h16072c2:3 emissions_h16072c2:3" vType="default_016" speedFactor="0.91" vaporized="">
        <emissions CO_abs="6054.498446" CO2_abs="379866.440979" HC_abs="36.428934" PMx_abs="6.377110" NOx_abs="153.306581" fuel_abs="163.289011" electricity_abs="0"/>
    </tripinfo>
    <tripinfo id="carIn12775:1" depart="57676.00" departLane="10425609#0_1" departPos="5.10" departSpeed="0.00" departDelay="0.60" arrival="57832.00" arrivalLane="18809673#0_1" arrivalPos="473.56" arrivalSpeed="15.98" duration="156.00" routeLength="1959.45" waitingTime="8.00" waitingCount="1" stopTime="0.00" timeLoss="30.55" rerouteNo="1" devices="tripinfo_carIn12775:1 routing_carIn12775:1 emissions_carIn12775:1" vType="default_016" speedFactor="1.16" vaporized="">
        <emissions CO_abs="5237.196064" CO2_abs="409073.233829" HC_abs="33.199574" PMx_abs="6.953083" NOx_abs="162.152861" fuel_abs="175.842893" electricity_abs="0"/>
    </tripinfo>
    <tripinfo id="carIn129809:1" depart="57729.00" departLane="-447569998#1_1" departPos="5.10" departSpeed="0.00" departDelay="1.00" arrival="57833.00" arrivalLane="-315358244_1" arrivalPos="33.95" arrivalSpeed="14.12" duration="104.00" routeLength="706.49" waitingTime="30.00" waitingCount="2" stopTime="0.00" timeLoss="46.77" rerouteNo="1" devices="tripinfo_carIn129809:1 routing_carIn129809:1 emissions_carIn129809:1" vType="default_015" speedFactor="1.06" vaporized="">
        <emissions CO_abs="7139.862551" CO2_abs="261520.217895" HC_abs="38.629367" PMx_abs="4.971988" NOx_abs="108.998525" fuel_abs="112.418505" electricity_abs="0"/>
    </tripinfo>
    <tripinfo id="carIn12858:1" depart="57661.00" departLane="128361109#1_1" departPos="5.10" departSpeed="0.00" departDelay="0.90" arrival="57834.00" arrivalLane="399835085#1_1" arrivalPos="212.23" arrivalSpeed="7.62" duration="173.00" routeLength="1738.12" waitingTime="23.00" waitingCount="3" stopTime="0.00" timeLoss="60.41" rerouteNo="1" devices="tripinfo_carIn12858:1 routing_carIn12858:1 emissions_carIn12858:1" vType="default_016" speedFactor="1.02" vaporized="">
        <emissions CO_abs="8743.362788" CO2_abs="511652.001916" HC_abs="51.988996" PMx_abs="9.782650" NOx_abs="210.441995" fuel_abs="219.937288" electricity_abs="0"/>
    </tripinfo>
    <tripinfo id="carIn82278:1" depart="57702.00" departLane="-306240162#1_0" departPos="5.10" departSpeed="0.00" departDelay="0.70" arrival="57836.00" arrivalLane="399835085#1_1" arrivalPos="212.23" arrivalSpeed="7.14" duration="134.00" routeLength="1093.26" waitingTime="24.00" waitingCount="3" stopTime="0.00" timeLoss="56.28" rerouteNo="1" devices="tripinfo_carIn82278:1 routing_carIn82278:1 emissions_carIn82278:1" vType="default_016" speedFactor="1.01" vaporized="">
        <emissions CO_abs="7599.435154" CO2_abs="374727.761041" HC_abs="43.438188" PMx_abs="7.302563" NOx_abs="156.229909" fuel_abs="161.080095" electricity_abs="0"/>
    </tripinfo>
    <tripinfo id="h9953c2:3" depart="57682.00" departLane="-54169231#2_1" departPos="5.10" departSpeed="0.00" departDelay="0.00" arrival="57843.00" arrivalLane="386687235_2" arrivalPos="80.84" arrivalSpeed="13.67" duration="161.00" routeLength="1535.60" waitingTime="9.00" waitingCount="1" stopTime="0.00" timeLoss="41.73" rerouteNo="1" devices="tripinfo_h9953c2:3 routing_h9953c2:3 emissions_h9953c2:3" vType="default_016" speedFactor="1.05" vaporized="">
        <emissions CO_abs="7147.434610" CO2_abs="422718.156795" HC_abs="42.386850" PMx_abs="7.469717" NOx_abs="172.720422" fuel_abs="181.709002" electricity_abs="0"/>
    </tripinfo>
    <tripinfo id="h5216c1:1" depart="57664.00" departLane="224892339#0_1" departPos="5.10" departSpeed="0.00" departDelay="0.00" arrival="57844.00" arrivalLane="386687235_1" arrivalPos="80.84" arrivalSpeed="12.39" duration="180.00" routeLength="1823.78" waitingTime="19.00" waitingCount="2" stopTime="0.00" timeLoss="44.50" rerouteNo="1" devices="tripinfo_h5216c1:1 routing_h5216c1:1 emissions_h5216c1:1" vType="default_016" speedFactor="0.94" vaporized="">
        <emissions CO_abs="7667.798626" CO2_abs="461525.320200" HC_abs="45.731201" PMx_abs="7.952645" NOx_abs="186.155611" fuel_abs="198.390918" electricity_abs="0"/>
    </tripinfo>
    <tripinfo id="carIn85747:1" depart="57673.00" departLane="128361109#1_1" departPos="5.10" departSpeed="0.00" departDelay="0.70" arrival="57845.00" arrivalLane="386687235_2" arrivalPos="80.84" arrivalSpeed="14.35" duration="172.00" routeLength="2088.57" waitingTime="12.00" waitingCount="1" stopTime="0.00" timeLoss="32.42" rerouteNo="1" devices="tripinfo_carIn85747:1 routing_carIn85747:1 emissions_carIn85747:1" vType="default_016" speedFactor="1.08" vaporized="">
        <emissions CO_abs="5717.369437" CO2_abs="433511.623720" HC_abs="36.122751" PMx_abs="7.028677" NOx_abs="169.749130" fuel_abs="186.348598" electricity_abs="0"/>
    </tripinfo>
    <tripinfo id="carIn28951:1" depart="57606.00" departLane="10425609#0_1" departPos="5.10" departSpeed="0.00" departDelay="0.20" arrival="57849.00" arrivalLane="-128361102#1_1" arrivalPos="274.68" arrivalSpeed="8.76" duration="243.00" routeLength="2095.01" waitingTime="1.00" waitingCount="1" stopTime="0.00" timeLoss="27.54" rerouteNo="1" devices="tripinfo_carIn28951:1 routing_carIn28951:1 emissions_carIn28951:1" vType="default_016" speedFactor="0.71" vaporized="">
        <emissions CO_abs="7685.808773" CO2_abs="445296.918102" HC_abs="45.177133" PMx_abs="6.607133" NOx_abs="175.457593" fuel_abs="191.416579" electricity_abs="0"/>
    </tripinfo>