<?xml version="1.0" encoding="UTF-8"?>

<!-- generated on Thu Nov  4 13:17:17 2021 by Eclipse SUMO sumo Version 1.9.0
<configuration xmlns:xsi="http://www.w3.org/2001/XMLSchema-instance" xsi:noNamespaceSchemaLocation="http://sumo.dlr.de/xsd/sumoConfiguration.xsd">

    <input>
        <net-file value="/mainfs/home/bk2g18/RESCO/environments/ingolstadt21/ingolstadt21.net.xml"/>
        <route-files value="/mainfs/home/bk2g18/RESCO/environments/ingolstadt21/ingolstadt21.rou.xml"/>
    </input>

    <output>
        <tripinfo-output value="/mainfs/home/bk2g18/RESCO/logs/MPLight-tr0-ingolstadt21-21-mplight-pressure/tripinfo_10.xml"/>
        <tripinfo-output.write-unfinished value="true"/>
    </output>

    <time>
        <begin value="57600"/>
        <end value="61200"/>
    </time>

    <processing>
        <time-to-teleport value="-1"/>
    </processing>

    <report>
        <xml-validation value="never"/>
        <xml-validation.routes value="never"/>
        <no-warnings value="true"/>
        <no-step-log value="true"/>
    </report>

    <emissions>
        <device.emissions.probability value="1"/>
    </emissions>

    <traci_server>
        <remote-port value="47840"/>
    </traci_server>

    <random_number>
        <random value="true"/>
    </random_number>

</configuration>
-->

<tripinfos xmlns:xsi="http://www.w3.org/2001/XMLSchema-instance" xsi:noNamespaceSchemaLocation="http://sumo.dlr.de/xsd/tripinfo_file.xsd">
    <tripinfo id="h15454c2:3" depart="57612.00" departLane="24608844_1" departPos="5.10" departSpeed="0.00" departDelay="0.50" arrival="57679.00" arrivalLane="32978638#0_1" arrivalPos="49.29" arrivalSpeed="11.06" duration="67.00" routeLength="354.79" waitingTime="11.00" waitingCount="2" stopTime="0.00" timeLoss="24.17" rerouteNo="1" devices="tripinfo_h15454c2:3 routing_h15454c2:3 emissions_h15454c2:3" vType="default_016" speedFactor="0.80" vaporized="">
        <emissions CO_abs="2920.762765" CO2_abs="126287.555228" HC_abs="16.230095" PMx_abs="2.240268" NOx_abs="52.436247" fuel_abs="54.286364" electricity_abs="0"/>
    </tripinfo>
    <tripinfo id="carIn53971:1" depart="57640.00" departLane="272042143_1" departPos="5.10" departSpeed="0.00" departDelay="0.80" arrival="57697.00" arrivalLane="24634414#1_1" arrivalPos="162.19" arrivalSpeed="7.17" duration="57.00" routeLength="493.04" waitingTime="0.00" waitingCount="0" stopTime="0.00" timeLoss="9.22" rerouteNo="1" devices="tripinfo_carIn53971:1 routing_carIn53971:1 emissions_carIn53971:1" vType="default_016" speedFactor="0.96" vaporized="">
        <emissions CO_abs="2637.923693" CO2_abs="146482.997546" HC_abs="15.429061" PMx_abs="2.578361" NOx_abs="60.225555" fuel_abs="62.967076" electricity_abs="0"/>
    </tripinfo>
    <tripinfo id="h12244c1:3" depart="57612.00" departLane="315358244_1" departPos="5.10" departSpeed="0.00" departDelay="0.40" arrival="57704.00" arrivalLane="386687235_1" arrivalPos="80.84" arrivalSpeed="14.29" duration="92.00" routeLength="1186.14" waitingTime="0.00" waitingCount="0" stopTime="0.00" timeLoss="11.50" rerouteNo="1" devices="tripinfo_h12244c1:3 routing_h12244c1:3 emissions_h12244c1:3" vType="default_016" speedFactor="1.08" vaporized="">
        <emissions CO_abs="3303.876219" CO2_abs="271908.975139" HC_abs="21.327306" PMx_abs="4.596297" NOx_abs="108.113734" fuel_abs="116.881759" electricity_abs="0"/>
    </tripinfo>
    <tripinfo id="carIn60260:1" depart="57606.00" departLane="315358254#0_1" departPos="5.10" departSpeed="0.00" departDelay="0.90" arrival="57725.00" arrivalLane="399835085#1_1" arrivalPos="212.23" arrivalSpeed="6.72" duration="119.00" routeLength="430.98" waitingTime="60.00" waitingCount="1" stopTime="0.00" timeLoss="70.28" rerouteNo="1" devices="tripinfo_carIn60260:1 routing_carIn60260:1 emissions_carIn60260:1" vType="default_016" speedFactor="0.94" vaporized="">
        <emissions CO_abs="11512.817107" CO2_abs="267243.582453" HC_abs="58.643072" PMx_abs="5.629175" NOx_abs="115.953791" fuel_abs="114.881446" electricity_abs="0"/>
    </tripinfo>
    <tripinfo id="h7800c1:5" depart="57696.00" departLane="-447569998#1_1" departPos="5.10" departSpeed="0.00" departDelay="0.00" arrival="57725.00" arrivalLane="-447569998#1_2" arrivalPos="180.76" arrivalSpeed="5.04" duration="29.00" routeLength="175.66" waitingTime="0.00" waitingCount="0" stopTime="0.00" timeLoss="6.77" rerouteNo="1" devices="tripinfo_h7800c1:5 routing_h7800c1:5 emissions_h7800c1:5" vType="default_016" speedFactor="0.97" vaporized="">
        <emissions CO_abs="1535.652414" CO2_abs="59833.755661" HC_abs="8.377206" PMx_abs="1.072815" NOx_abs="25.005885" fuel_abs="25.720429" electricity_abs="0"/>
    </tripinfo>
    <tripinfo id="h3568c1:3" depart="57656.00" departLane="266565295#5_1" departPos="5.10" departSpeed="0.00" departDelay="0.80" arrival="57736.00" arrivalLane="-24634415_1" arrivalPos="62.03" arrivalSpeed="13.04" duration="80.00" routeLength="807.40" waitingTime="0.00" waitingCount="0" stopTime="0.00" timeLoss="11.83" rerouteNo="1" devices="tripinfo_h3568c1:3 routing_h3568c1:3 emissions_h3568c1:3" vType="default_016" speedFactor="0.94" vaporized="">
        <emissions CO_abs="3293.777667" CO2_abs="210017.751104" HC_abs="19.907278" PMx_abs="3.568347" NOx_abs="84.976643" fuel_abs="90.277917" electricity_abs="0"/>
    </tripinfo>
    <tripinfo id="h4538c1:1" depart="57701.00" departLane="-10427692#1_1" departPos="5.10" departSpeed="0.00" departDelay="0.00" arrival="57737.00" arrivalLane="-128361102#1_1" arrivalPos="274.68" arrivalSpeed="14.68" duration="36.00" routeLength="440.74" waitingTime="0.00" waitingCount="0" stopTime="0.00" timeLoss="6.09" rerouteNo="1" devices="tripinfo_h4538c1:1 routing_h4538c1:1 emissions_h4538c1:1" vType="default_016" speedFactor="1.06" vaporized="">
        <emissions CO_abs="1518.863185" CO2_abs="112342.092952" HC_abs="9.520969" PMx_abs="1.911404" NOx_abs="44.988005" fuel_abs="48.291036" electricity_abs="0"/>
    </tripinfo>
    <tripinfo id="carIn121703:1" depart="57647.00" departLane="386687232#0_1" departPos="5.10" departSpeed="0.00" departDelay="0.30" arrival="57739.00" arrivalLane="-315358244_1" arrivalPos="33.95" arrivalSpeed="13.13" duration="92.00" routeLength="1157.39" waitingTime="0.00" waitingCount="0" stopTime="0.00" timeLoss="8.15" rerouteNo="1" devices="tripinfo_carIn121703:1 routing_carIn121703:1 emissions_carIn121703:1" vType="default_016" speedFactor="1.01" vaporized="">
        <emissions CO_abs="2494.964300" CO2_abs="223486.186799" HC_abs="16.566427" PMx_abs="3.579561" NOx_abs="87.712721" fuel_abs="96.067038" electricity_abs="0"/>
    </tripinfo>
    <tripinfo id="h317c2:1" depart="57707.00" departLane="-32978638#0_1" departPos="5.10" departSpeed="0.00" departDelay="0.10" arrival="57739.00" arrivalLane="-266565295#5_1" arrivalPos="172.76" arrivalSpeed="13.73" duration="32.00" routeLength="370.53" waitingTime="0.00" waitingCount="0" stopTime="0.00" timeLoss="5.94" rerouteNo="1" devices="tripinfo_h317c2:1 routing_h317c2:1 emissions_h317c2:1" vType="default_016" speedFactor="1.05" vaporized="">
        <emissions CO_abs="1710.462402" CO2_abs="111527.728551" HC_abs="10.422696" PMx_abs="2.049656" NOx_abs="45.991418" fuel_abs="47.940886" electricity_abs="0"/>
    </tripinfo>
    <tripinfo id="h7181c1:1" depart="57660.00" departLane="315358254#0_1" departPos="5.10" departSpeed="0.00" departDelay="0.10" arrival="57751.00" arrivalLane="306240162#0_0" arrivalPos="220.43" arrivalSpeed="15.47" duration="91.00" routeLength="932.35" waitingTime="13.00" waitingCount="2" stopTime="0.00" timeLoss="35.65" rerouteNo="1" devices="tripinfo_h7181c1:1 routing_h7181c1:1 emissions_h7181c1:1" vType="default_016" speedFactor="0.94" vaporized="">
        <emissions CO_abs="5914.982654" CO2_abs="325536.596693" HC_abs="34.632970" PMx_abs="6.450761" NOx_abs="136.353194" fuel_abs="139.934083" electricity_abs="0"/>
    </tripinfo>
    <tripinfo id="h3326c1:2" depart="57656.00" departLane="22716069#0_1" departPos="5.10" departSpeed="0.00" departDelay="0.00" arrival="57762.00" arrivalLane="24634517#13_1" arrivalPos="111.62" arrivalSpeed="14.62" duration="106.00" routeLength="1312.81" waitingTime="0.00" waitingCount="0" stopTime="0.00" timeLoss="13.95" rerouteNo="1" devices="tripinfo_h3326c1:2 routing_h3326c1:2 emissions_h3326c1:2" vType="default_016" speedFactor="1.06" vaporized="">
        <emissions CO_abs="4071.136035" CO2_abs="318987.762976" HC_abs="26.024762" PMx_abs="5.516619" NOx_abs="128.307312" fuel_abs="137.118795" electricity_abs="0"/>
    </tripinfo>
    <tripinfo id="carIn30817:1" depart="57681.00" departLane="315358244_1" departPos="5.10" departSpeed="0.00" departDelay="0.20" arrival="57768.00" arrivalLane="447569997#1_1" arrivalPos="180.93" arrivalSpeed="7.69" duration="87.00" routeLength="718.04" waitingTime="10.00" waitingCount="1" stopTime="0.00" timeLoss="23.97" rerouteNo="1" devices="tripinfo_carIn30817:1 routing_carIn30817:1 emissions_carIn30817:1" vType="default_016" speedFactor="0.98" vaporized="">
        <emissions CO_abs="3920.605976" CO2_abs="197415.354336" HC_abs="22.471072" PMx_abs="3.526695" NOx_abs="81.253130" fuel_abs="84.861084" electricity_abs="0"/>
    </tripinfo>
    <tripinfo id="carIn22761:1" depart="57616.00" departLane="-306240162#1_0" departPos="5.10" departSpeed="0.00" departDelay="2.10" arrival="57771.00" arrivalLane="399835085#1_1" arrivalPos="212.23" arrivalSpeed="8.39" duration="155.00" routeLength="1093.26" waitingTime="56.00" waitingCount="2" stopTime="0.00" timeLoss="83.20" rerouteNo="1" devices="tripinfo_carIn22761:1 routing_carIn22761:1 emissions_carIn22761:1" vType="default_016" speedFactor="1.09" vaporized="">
        <emissions CO_abs="13578.556610" CO2_abs="469989.707439" HC_abs="73.002258" PMx_abs="9.874773" NOx_abs="201.584652" fuel_abs="202.031581" electricity_abs="0"/>
    </tripinfo>
    <tripinfo id="h3688c1:1" depart="57625.00" departLane="201201950#1_1" departPos="5.10" departSpeed="0.00" departDelay="0.00" arrival="57772.00" arrivalLane="32978638#0_1" arrivalPos="49.29" arrivalSpeed="13.23" duration="147.00" routeLength="1089.75" waitingTime="52.00" waitingCount="1" stopTime="0.00" timeLoss="66.36" rerouteNo="1" devices="tripinfo_h3688c1:1 routing_h3688c1:1 emissions_h3688c1:1" vType="default_016" speedFactor="1.00" vaporized="">
        <emissions CO_abs="11124.728565" CO2_abs="386262.013878" HC_abs="59.681026" PMx_abs="7.474482" NOx_abs="161.433213" fuel_abs="166.041026" electricity_abs="0"/>
    </tripinfo>
    <tripinfo id="S5R_frequency1.2" depart="57624.00" departLane="315358250#0_1" departPos="12.10" departSpeed="0.00" departDelay="12.40" arrival="57774.00" arrivalLane="386687235_1" arrivalPos="80.84" arrivalSpeed="13.21" duration="150.00" routeLength="1115.62" waitingTime="31.00" waitingCount="3" stopTime="0.00" timeLoss="68.34" rerouteNo="1" devices="tripinfo_S5R_frequency1.2 routing_S5R_frequency1.2 emissions_S5R_frequency1.2" vType="bus" speedFactor="1.00" vaporized="">
        <emissions CO_abs="2987.864322" CO2_abs="1665133.219588" HC_abs="634.384790" PMx_abs="315.110833" NOx_abs="13491.152585" fuel_abs="710.083066" electricity_abs="0"/>
    </tripinfo>
    <tripinfo id="h330c1:1" depart="57736.00" departLane="-32978638#0_1" departPos="5.10" departSpeed="0.00" departDelay="0.20" arrival="57774.00" arrivalLane="-266565295#5_1" arrivalPos="172.76" arrivalSpeed="14.73" duration="38.00" routeLength="370.53" waitingTime="2.00" waitingCount="1" stopTime="0.00" timeLoss="13.10" rerouteNo="1" devices="tripinfo_h330c1:1 routing_h330c1:1 emissions_h330c1:1" vType="default_016" speedFactor="1.09" vaporized="">
        <emissions CO_abs="2394.194182" CO2_abs="135672.987345" HC_abs="14.121187" PMx_abs="2.594155" NOx_abs="56.740883" fuel_abs="58.319976" electricity_abs="0"/>
    </tripinfo>
    <tripinfo id="carIn80064:1" depart="57603.00" departLane="128361109#1_1" departPos="5.10" departSpeed="0.00" departDelay="0.40" arrival="57778.00" arrivalLane="-315358254#1_1" arrivalPos="137.16" arrivalSpeed="16.35" duration="175.00" routeLength="1587.97" waitingTime="54.00" waitingCount="3" stopTime="0.00" timeLoss="101.94" rerouteNo="1" devices="tripinfo_carIn80064:1 routing_carIn80064:1 emissions_carIn80064:1" vType="default_016" speedFactor="1.22" vaporized="">
        <emissions CO_abs="15315.692809" CO2_abs="650606.463498" HC_abs="85.348839" PMx_abs="13.980541" NOx_abs="277.674768" fuel_abs="279.669078" electricity_abs="0"/>
    </tripinfo>
    <tripinfo id="carIn12365:1" depart="57713.00" departLane="315358244_1" departPos="5.10" departSpeed="0.00" departDelay="0.50" arrival="57782.00" arrivalLane="447569997#1_1" arrivalPos="180.93" arrivalSpeed="8.13" duration="69.00" routeLength="718.04" waitingTime="0.00" waitingCount="0" stopTime="0.00" timeLoss="9.25" rerouteNo="1" devices="tripinfo_carIn12365:1 routing_carIn12365:1 emissions_carIn12365:1" vType="default_016" speedFactor="1.03" vaporized="">
        <emissions CO_abs="2428.816847" CO2_abs="158359.080169" HC_abs="14.732743" PMx_abs="2.595456" NOx_abs="63.296290" fuel_abs="68.072110" electricity_abs="0"/>
    </tripinfo>
    <tripinfo id="h9563c2:5" depart="57631.00" departLane="315358244_1" departPos="5.10" departSpeed="0.00" departDelay="0.70" arrival="57788.00" arrivalLane="386687235_1" arrivalPos="80.84" arrivalSpeed="10.64" duration="157.00" routeLength="1186.14" waitingTime="21.00" waitingCount="4" stopTime="0.00" timeLoss="53.10" rerouteNo="1" devices="tripinfo_h9563c2:5 routing_h9563c2:5 emissions_h9563c2:5" vType="default_016" speedFactor="0.83" vaporized="">
        <emissions CO_abs="7941.314057" CO2_abs="347483.929006" HC_abs="44.226670" PMx_abs="6.049722" NOx_abs="142.085886" fuel_abs="149.370775" electricity_abs="0"/>
    </tripinfo>
    <tripinfo id="h5979c1:5" depart="57669.00" departLane="399835085#1_1" departPos="5.10" departSpeed="0.00" departDelay="0.00" arrival="57789.00" arrivalLane="-315358254#1_1" arrivalPos="137.16" arrivalSpeed="11.69" duration="120.00" routeLength="659.33" waitingTime="22.00" waitingCount="1" stopTime="0.00" timeLoss="35.34" rerouteNo="1" devices="tripinfo_h5979c1:5 routing_h5979c1:5 emissions_h5979c1:5" vType="default_016" speedFactor="0.87" vaporized="">
        <emissions CO_abs="6993.133680" CO2_abs="232944.081312" HC_abs="37.204835" PMx_abs="4.147348" NOx_abs="96.650788" fuel_abs="100.135441" electricity_abs="0"/>
    </tripinfo>
    <tripinfo id="carIn107282:1" depart="57749.00" departLane="-447569998#1_1" departPos="5.10" departSpeed="0.00" departDelay="0.00" arrival="57794.00" arrivalLane="315358242#0_1" arrivalPos="165.37" arrivalSpeed="13.65" duration="45.00" routeLength="448.50" waitingTime="0.00" waitingCount="0" stopTime="0.00" timeLoss="4.50" rerouteNo="1" devices="tripinfo_carIn107282:1 routing_carIn107282:1 emissions_carIn107282:1" vType="default_016" speedFactor="1.02" vaporized="">
        <emissions CO_abs="1935.204591" CO2_abs="117868.940639" HC_abs="11.544872" PMx_abs="1.910594" NOx_abs="47.146313" fuel_abs="50.667176" electricity_abs="0"/>
    </tripinfo>
    <tripinfo id="carIn27009:1" depart="57673.00" departLane="-447569998#1_1" departPos="5.10" departSpeed="0.00" departDelay="0.50" arrival="57797.00" arrivalLane="-26677539_1" arrivalPos="152.75" arrivalSpeed="6.93" duration="124.00" routeLength="699.63" waitingTime="21.00" waitingCount="1" stopTime="0.00" timeLoss="36.76" rerouteNo="1" devices="tripinfo_carIn27009:1 routing_carIn27009:1 emissions_carIn27009:1" vType="default_015" speedFactor="0.97" vaporized="">
        <emissions CO_abs="7474.607248" CO2_abs="251487.801553" HC_abs="39.858074" PMx_abs="4.656434" NOx_abs="105.685605" fuel_abs="108.106454" electricity_abs="0"/>
    </tripinfo>
    <tripinfo id="carIn129809:1" depart="57729.00" departLane="-447569998#1_1" departPos="5.10" departSpeed="0.00" departDelay="1.00" arrival="57804.00" arrivalLane="-315358244_1" arrivalPos="33.95" arrivalSpeed="14.66" duration="75.00" routeLength="706.49" waitingTime="7.00" waitingCount="1" stopTime="0.00" timeLoss="20.65" rerouteNo="1" devices="tripinfo_carIn129809:1 routing_carIn129809:1 emissions_carIn129809:1" vType="default_015" speedFactor="1.12" vaporized="">
        <emissions CO_abs="2894.941700" CO2_abs="179451.587242" HC_abs="17.303160" PMx_abs="3.069105" NOx_abs="72.064427" fuel_abs="77.138884" electricity_abs="0"/>
    </tripinfo>
    <tripinfo id="carIn50326:1" depart="57651.00" departLane="128361102#0_1" departPos="5.10" departSpeed="0.00" departDelay="0.30" arrival="57806.00" arrivalLane="18809673#0_1" arrivalPos="473.56" arrivalSpeed="13.07" duration="155.00" routeLength="1591.07" waitingTime="6.00" waitingCount="1" stopTime="0.00" timeLoss="26.42" rerouteNo="1" devices="tripinfo_carIn50326:1 routing_carIn50326:1 emissions_carIn50326:1" vType="default_016" speedFactor="1.01" vaporized="">
        <emissions CO_abs="5414.341405" CO2_abs="371451.869875" HC_abs="33.300429" PMx_abs="6.119964" NOx_abs="148.314671" fuel_abs="159.671759" electricity_abs="0"/>
    </tripinfo>
    <tripinfo id="h11737c1:1" depart="57665.00" departLane="272042143_1" departPos="5.10" departSpeed="0.00" departDelay="1.50" arrival="57808.00" arrivalLane="-315358254#1_1" arrivalPos="137.16" arrivalSpeed="13.46" duration="143.00" routeLength="1596.88" waitingTime="8.00" waitingCount="1" stopTime="0.00" timeLoss="22.63" rerouteNo="1" devices="tripinfo_h11737c1:1 routing_h11737c1:1 emissions_h11737c1:1" vType="default_016" speedFactor="0.97" vaporized="">
        <emissions CO_abs="4998.919698" CO2_abs="346057.081511" HC_abs="30.838526" PMx_abs="5.683785" NOx_abs="137.511952" fuel_abs="148.755641" electricity_abs="0"/>
    </tripinfo>
    <tripinfo id="carIn126288:1" depart="57674.00" departLane="272042143_1" departPos="5.10" departSpeed="0.00" departDelay="0.00" arrival="57809.00" arrivalLane="-315358254#1_1" arrivalPos="137.16" arrivalSpeed="13.10" duration="135.00" routeLength="1596.88" waitingTime="4.00" waitingCount="1" stopTime="0.00" timeLoss="22.71" rerouteNo="1" devices="tripinfo_carIn126288:1 routing_carIn126288:1 emissions_carIn126288:1" vType="default_016" speedFactor="1.03" vaporized="">
        <emissions CO_abs="4425.260518" CO2_abs="343582.001272" HC_abs="28.160691" PMx_abs="5.761964" NOx_abs="136.982007" fuel_abs="147.691087" electricity_abs="0"/>
    </tripinfo>
    <tripinfo id="carIn118591:1" depart="57689.00" departLane="315358244_1" departPos="5.10" departSpeed="0.00" departDelay="0.20" arrival="57818.00" arrivalLane="386687235_1" arrivalPos="80.84" arrivalSpeed="13.90" duration="129.00" routeLength="1186.14" waitingTime="25.00" waitingCount="2" stopTime="0.00" timeLoss="46.86" rerouteNo="1" devices="tripinfo_carIn118591:1 routing_carIn118591:1 emissions_carIn118591:1" vType="default_016" speedFactor="1.05" vaporized="">
        <emissions CO_abs="7015.491727" CO2_abs="346264.892038" HC_abs="39.972810" PMx_abs="6.171065" NOx_abs="140.881898" fuel_abs="148.845921" electricity_abs="0"/>
    </tripinfo>
    <tripinfo id="h9953c2:3" depart="57682.00" departLane="-54169231#2_1" departPos="5.10" departSpeed="0.00" departDelay="0.00" arrival="57823.00" arrivalLane="386687235_2" arrivalPos="80.84" arrivalSpeed="13.61" duration="141.00" routeLength="1535.60" waitingTime="0.00" waitingCount="0" stopTime="0.00" timeLoss="20.71" rerouteNo="1" devices="tripinfo_h9953c2:3 routing_h9953c2:3 emissions_h9953c2:3" vType="default_016" speedFactor="1.05" vaporized="">
        <emissions CO_abs="5869.523342" CO2_abs="401312.890758" HC_abs="36.081252" PMx_abs="6.959891" NOx_abs="162.738928" fuel_abs="172.507224" electricity_abs="0"/>
    </tripinfo>
    <tripinfo id="h16072c2:3" depart="57663.00" departLane="315358254#0_1" departPos="5.10" departSpeed="0.00" departDelay="2.50" arrival="57824.00" arrivalLane="386687235_1" arrivalPos="80.84" arrivalSpeed="13.40" duration="161.00" routeLength="1611.92" waitingTime="6.00" waitingCount="2" stopTime="0.00" timeLoss="48.26" rerouteNo="1" devices="tripinfo_h16072c2:3 routing_h16072c2:3 emissions_h16072c2:3" vType="default_016" speedFactor="1.05" vaporized="">
        <emissions CO_abs="6292.688727" CO2_abs="406753.989281" HC_abs="38.147658" PMx_abs="7.123464" NOx_abs="165.431977" fuel_abs="174.846305" electricity_abs="0"/>
    </tripinfo>
    <tripinfo id="carIn48184:1" depart="57613.00" departLane="-306240162#1_0" departPos="5.10" departSpeed="0.00" departDelay="0.70" arrival="57827.00" arrivalLane="386687235_1" arrivalPos="80.84" arrivalSpeed="11.16" duration="214.00" routeLength="2257.41" waitingTime="16.00" waitingCount="3" stopTime="0.00" timeLoss="44.49" rerouteNo="1" devices="tripinfo_carIn48184:1 routing_carIn48184:1 emissions_carIn48184:1" vType="default_016" speedFactor="0.88" vaporized="">
        <emissions CO_abs="8127.284983" CO2_abs="516599.289668" HC_abs="49.139459" PMx_abs="8.934724" NOx_abs="208.252188" fuel_abs="222.064566" electricity_abs="0"/>
    </tripinfo>
    <tripinfo id="50R_frequency3.17" depart="57674.00" departLane="-18809673#6_1" departPos="12.10" departSpeed="0.00" departDelay="0.70" arrival="57837.00" arrivalLane="201956811#0_1" arrivalPos="40.40" arrivalSpeed="12.34" duration="163.00" routeLength="1954.47" waitingTime="0.00" waitingCount="0" stopTime="0.00" timeLoss="17.66" rerouteNo="1" devices="tripinfo_50R_frequency3.17 routing_50R_frequency3.17 emissions_50R_frequency3.17" vType="bus" speedFactor="1.00" vaporized="">
        <emissions CO_abs="3133.199790" CO2_abs="2000166.079676" HC_abs="663.793672" PMx_abs="337.066280" NOx_abs="15412.791392" fuel_abs="853.066720" electricity_abs="0"/>
    </tripinfo>
    <tripinfo id="carIn86816:1" depart="57617.00" departLane="128361102#0_1" departPos="5.10" departSpeed="0.00" departDelay="0.80" arrival="57840.00" arrivalLane="201956811#0_1" arrivalPos="40.40" arrivalSpeed="11.62" duration="223.00" routeLength="2067.33" waitingTime="20.00" waitingCount="1" stopTime="0.00" timeLoss="46.75" rerouteNo="1" devices="tripinfo_carIn86816:1 routing_carIn86816:1 emissions_carIn86816:1" vType="default_016" speedFactor="0.86" vaporized="">
        <emissions CO_abs="8862.621677" CO2_abs="486220.876454" HC_abs="51.636657" PMx_abs="8.026857" NOx_abs="195.311202" fuel_abs="209.007586" electricity_abs="0"/>
    </tripinfo>
    <tripinfo id="carIn102915:1" depart="57643.00" departLane="128361102#0_1" departPos="5.10" departSpeed="0.00" departDelay="0.40" arrival="57842.00" arrivalLane="201956811#0_1" arrivalPos="40.40" arrivalSpeed="13.11" duration="199.00" routeLength="2067.33" waitingTime="14.00" waitingCount="1" stopTime="0.00" timeLoss="41.67" rerouteNo="1" devices="tripinfo_carIn102915:1 routing_carIn102915:1 emissions_carIn102915:1" vType="default_016" speedFactor="0.96" vaporized="">
        <emissions CO_abs="7764.173024" CO2_abs="483248.973097" HC_abs="46.630062" PMx_abs="8.079140" NOx_abs="193.744646" fuel_abs="207.729138" electricity_abs="0"/>
    </tripinfo>
    <tripinfo id="h645c1:1" depart="57622.00" departLane="266565295#5_1" departPos="5.10" departSpeed="0.00" departDelay="0.40" arrival="57844.00" arrivalLane="-315358244_1" arrivalPos="33.95" arrivalSpeed="11.13" duration="222.00" routeLength="1910.83" waitingTime="31.00" waitingCount="3" stopTime="0.00" timeLoss="58.32" rerouteNo="1" devices="tripinfo_h645c1:1 routing_h645c1:1 emissions_h645c1:1" vType="default_016" speedFactor="0.85" vaporized="">
        <emissions CO_abs="8958.026258" CO2_abs="467568.631612" HC_abs="51.633513" PMx_abs="7.754607" NOx_abs="187.942256" fuel_abs="200.990036" electricity_abs="0"/>
    </tripinfo>
    <tripinfo id="carIn28951:1" depart="57606.00" departLane="10425609#0_1" departPos="5.10" departSpeed="0.00" departDelay="0.20" arrival="57845.00" arrivalLane="-128361102#1_1" arrivalPos="274.68" arrivalSpeed="14.20" duration="239.00" routeLength="2113.04" waitingTime="59.00" waitingCount="3" stopTime="0.00" timeLoss="88.42" rerouteNo="1" devices="tripinfo_carIn28951:1 routing_carIn28951:1 emissions_carIn28951:1" vType="default_016" speedFactor="1.03" vaporized="">
        <emissions CO_abs="14012.362415" CO2_abs="612074.065048" HC_abs="78.087341" PMx_abs="11.308736" NOx_abs="251.920116" fuel_abs="263.107781" electricity_abs="0"/>
    </tripinfo>
    <tripinfo id="randUni33724:1" depart="57646.00" departLane="128361102#0_1" departPos="5.10" departSpeed="0.00" departDelay="1.20" arrival="57845.00" arrivalLane="201956811#0_1" arrivalPos="40.40" arrivalSpeed="15.14" duration="199.00" routeLength="2067.33" waitingTime="12.00" waitingCount="1" stopTime="0.00" timeLoss="65.80" rerouteNo="1" devices="tripinfo_randUni33724:1 routing_randUni33724:1 emissions_randUni33724:1" vType="random_016" speedFactor="1.14" vaporized="">
        <emissions CO_abs="8508.458703" CO2_abs="525042.287118" HC_abs="51.059742" PMx_abs="9.242710" NOx_abs="213.960087" fuel_abs="225.693691" electricity_abs="0"/>
    </tripinfo>
    <tripinfo id="h3154c1:1" depart="57658.00" departLane="24634507_1" departPos="5.10" departSpeed="0.00" departDelay="0.00" arrival="57846.00" arrivalLane="-266565295#5_1" arrivalPos="172.76" arrivalSpeed="13.93" duration="188.00" routeLength="1206.22" waitingTime="82.00" waitingCount="1" stopTime="0.00" timeLoss="105.66" rerouteNo="1" devices="tripinfo_h3154c1:1 routing_h3154c1:1 emissions_h3154c1:1" vType="default_016" speedFactor="1.08" vaporized="">
        <emissions CO_abs="17776.411256" CO2_abs="538518.518989" HC_abs="93.624383" PMx_abs="11.265628" NOx_abs="231.148479" fuel_abs="231.491554" electricity_abs="0"/>
    </tripinfo>
    <tripinfo id="h3864c1:3" depart="57678.00" departLane="24693977#1_1" departPos="5.10" departSpeed="0.00" departDelay="0.00" arrival="57847.00" arrivalLane="201956820_2" arrivalPos="48.33" arrivalSpeed="13.40" duration="169.00" routeLength="1574.85" waitingTime="16.00" waitingCount="1" stopTime="0.00" timeLoss="37.49" rerouteNo="1" devices="tripinfo_h3864c1:3 routing_h3864c1:3 emissions_h3864c1:3" vType="default_016" speedFactor="0.98" vaporized="">
        <emissions CO_abs="8076.291047" CO2_abs="426447.700603" HC_abs="46.748446" PMx_abs="7.602253" NOx_abs="174.846367" fuel_abs="183.312811" electricity_abs="0"/>
    </tripinfo>
    <tripinfo id="carIn12858:1" depart="57661.00" departLane="128361109#1_1" departPos="5.10" departSpeed="0.00" departDelay="0.90" arrival="57848.00" arrivalLane="399835085#1_1" arrivalPos="212.23" arrivalSpeed="9.02" duration="187.00" routeLength="1738.12" waitingTime="46.00" waitingCount="4" stopTime="0.00" timeLoss="88.35" rerouteNo="1" devices="tripinfo_carIn12858:1 routing_carIn12858:1 emissions_carIn12858:1" vType="default_016" speedFactor="1.17" vaporized="">
        <emissions CO_abs="13643.419538" CO2_abs="636267.069590" HC_abs="77.371070" PMx_abs="13.159782" NOx_abs="268.955668" fuel_abs="273.504736" electricity_abs="0"/>
    </tripinfo>
    <tripinfo id="carIn107084:1" depart="57601.00" departLane="124812856#0_1" departPos="5.10" departSpeed="0.00" departDelay="0.70" arrival="57850.00" arrivalLane="-128361102#1_1" arrivalPos="274.68" arrivalSpeed="12.22" duration="249.00" routeLength="2250.49" waitingTime="43.00" waitingCount="3" stopTime="0.00" timeLoss="76.50" rerouteNo="1" devices="tripinfo_carIn107084:1 routing_carIn107084:1 emissions_carIn107084:1" vType="default_016" speedFactor="0.95" vaporized="">
        <emissions CO_abs="12331.882637" CO2_abs="602562.040590" HC_abs="70.241956" PMx_abs="10.694512" NOx_abs="245.963601" fuel_abs="259.018268" electricity_abs="0"/>
    </tripinfo>
    <tripinfo id="carIn77943:1" depart="57608.00" departLane="124812856#0_1" departPos="5.10" departSpeed="0.00" departDelay="2.50" arrival="57851.00" arrivalLane="-128361102#1_1" arrivalPos="274.68" arrivalSpeed="12.74" duration="243.00" routeLength="2250.49" waitingTime="33.00" waitingCount="2" stopTime="0.00" timeLoss="73.84" rerouteNo="1" devices="tripinfo_carIn77943:1 routing_carIn77943:1 emissions_carIn77943:1" vType="default_016" speedFactor="0.97" vaporized="">
        <emissions CO_abs="11917.686360" CO2_abs="623224.259325" HC_abs="68.810485" PMx_abs="10.848263" NOx_abs="252.905283" fuel_abs="267.899780" electricity_abs="0"/>
    </tripinfo>
    <tripinfo id="randUni15030:1" depart="57735.00" departLane="386687232#0_1" departPos="5.10" departSpeed="0.00" departDelay="0.10" arrival="57853.00" arrivalLane="26677539_1" arrivalPos="151.98" arrivalSpeed="7.99" duration="118.00" routeLength="919.89" waitingTime="26.00" waitingCount="1" stopTime="0.00" timeLoss="41.83" rerouteNo="1" devices="tripinfo_randUni15030:1 routing_randUni15030:1 emissions_randUni15030:1" vType="random_016" speedFactor="1.10" vaporized="">
        <emissions CO_abs="7479.851101" CO2_abs="300640.883558" HC_abs="41.085494" PMx_abs="5.565251" NOx_abs="124.625601" fuel_abs="129.234705" electricity_abs="0"/>
    </tripinfo>
    <tripinfo id="carIn81046:1" depart="57611.00" departLane="124812856#0_1" departPos="5.10" departSpeed="0.00" departDelay="2.50" arrival="57854.00" arrivalLane="-128361102#1_1" arrivalPos="274.68" arrivalSpeed="12.88" duration="243.00" routeLength="2250.49" waitingTime="32.00" waitingCount="2" stopTime="0.00" timeLoss="67.40" rerouteNo="1" devices="tripinfo_carIn81046:1 routing_carIn81046:1 emissions_carIn81046:1" vType="default_016" speedFactor="0.94" vaporized="">
        <emissions CO_abs="11512.634552" CO2_abs="602376.161938" HC_abs="66.486589" PMx_abs="10.411257" NOx_abs="244.030788" fuel_abs="258.938102" electricity_abs="0"/>
    </tripinfo>
    <tripinfo id="carIn77438:1" depart="57614.00" departLane="124812856#0_1" departPos="5.10" departSpeed="0.00" departDelay="1.10" arrival="57855.00" arrivalLane="-128361102#1_1" arrivalPos="274.68" arrivalSpeed="13.68" duration="241.00" routeLength="2250.49" waitingTime="29.00" waitingCount="2" stopTime="0.00" timeLoss="88.54" rerouteNo="1" devices="tripinfo_carIn77438:1 routing_carIn77438:1 emissions_carIn77438:1" vType="default_016" speedFactor="1.08" vaporized="">