<?xml version="1.0" encoding="UTF-8"?>

<!-- generated on Thu Nov  4 13:14:00 2021 by Eclipse SUMO sumo Version 1.9.0
<configuration xmlns:xsi="http://www.w3.org/2001/XMLSchema-instance" xsi:noNamespaceSchemaLocation="http://sumo.dlr.de/xsd/sumoConfiguration.xsd">

    <input>
        <net-file value="/mainfs/home/bk2g18/RESCO/environments/ingolstadt21/ingolstadt21.net.xml"/>
        <route-files value="/mainfs/home/bk2g18/RESCO/environments/ingolstadt21/ingolstadt21.rou.xml"/>
    </input>

    <output>
        <tripinfo-output value="/mainfs/home/bk2g18/RESCO/logs/MPLight-tr0-ingolstadt21-21-mplight-pressure/tripinfo_5.xml"/>
        <tripinfo-output.write-unfinished value="true"/>
    </output>

    <time>
        <begin value="57600"/>
        <end value="61200"/>
    </time>

    <processing>
        <time-to-teleport value="-1"/>
    </processing>

    <report>
        <xml-validation value="never"/>
        <xml-validation.routes value="never"/>
        <no-warnings value="true"/>
        <no-step-log value="true"/>
    </report>

    <emissions>
        <device.emissions.probability value="1"/>
    </emissions>

    <traci_server>
        <remote-port value="49077"/>
    </traci_server>

    <random_number>
        <random value="true"/>
    </random_number>

</configuration>
-->

<tripinfos xmlns:xsi="http://www.w3.org/2001/XMLSchema-instance" xsi:noNamespaceSchemaLocation="http://sumo.dlr.de/xsd/tripinfo_file.xsd">
    <tripinfo id="h15454c2:3" depart="57612.00" departLane="24608844_1" departPos="5.10" departSpeed="0.00" departDelay="0.50" arrival="57655.00" arrivalLane="32978638#0_1" arrivalPos="49.29" arrivalSpeed="12.88" duration="43.00" routeLength="354.79" waitingTime="0.00" waitingCount="0" stopTime="0.00" timeLoss="6.70" rerouteNo="1" devices="tripinfo_h15454c2:3 routing_h15454c2:3 emissions_h15454c2:3" vType="default_016" speedFactor="0.95" vaporized="">
        <emissions CO_abs="2341.260359" CO2_abs="125743.080447" HC_abs="13.586956" PMx_abs="2.177251" NOx_abs="51.553433" fuel_abs="54.051943" electricity_abs="0"/>
    </tripinfo>
    <tripinfo id="carIn53971:1" depart="57640.00" departLane="272042143_1" departPos="5.10" departSpeed="0.00" departDelay="0.80" arrival="57696.00" arrivalLane="24634414#1_1" arrivalPos="162.19" arrivalSpeed="7.19" duration="56.00" routeLength="493.04" waitingTime="0.00" waitingCount="0" stopTime="0.00" timeLoss="7.01" rerouteNo="1" devices="tripinfo_carIn53971:1 routing_carIn53971:1 emissions_carIn53971:1" vType="default_016" speedFactor="0.94" vaporized="">
        <emissions CO_abs="2249.666788" CO2_abs="128122.369751" HC_abs="13.218430" PMx_abs="2.131151" NOx_abs="51.812941" fuel_abs="55.074738" electricity_abs="0"/>
    </tripinfo>
    <tripinfo id="carIn60260:1" depart="57606.00" departLane="315358254#0_1" departPos="5.10" departSpeed="0.00" departDelay="0.90" arrival="57706.00" arrivalLane="399835085#1_1" arrivalPos="212.23" arrivalSpeed="5.15" duration="100.00" routeLength="430.98" waitingTime="40.00" waitingCount="1" stopTime="0.00" timeLoss="60.35" rerouteNo="1" devices="tripinfo_carIn60260:1 routing_carIn60260:1 emissions_carIn60260:1" vType="default_016" speedFactor="1.16" vaporized="">
        <emissions CO_abs="8722.828415" CO2_abs="235605.585713" HC_abs="45.218917" PMx_abs="4.812763" NOx_abs="101.226084" fuel_abs="101.280061" electricity_abs="0"/>
    </tripinfo>
    <tripinfo id="h3688c1:1" depart="57625.00" departLane="201201950#1_1" departPos="5.10" departSpeed="0.00" departDelay="0.00" arrival="57712.00" arrivalLane="32978638#0_1" arrivalPos="49.29" arrivalSpeed="13.89" duration="87.00" routeLength="1089.75" waitingTime="0.00" waitingCount="0" stopTime="0.00" timeLoss="11.28" rerouteNo="1" devices="tripinfo_h3688c1:1 routing_h3688c1:1 emissions_h3688c1:1" vType="default_016" speedFactor="1.05" vaporized="">
        <emissions CO_abs="2992.167861" CO2_abs="247217.263298" HC_abs="19.272474" PMx_abs="4.092908" NOx_abs="97.995101" fuel_abs="106.267960" electricity_abs="0"/>
    </tripinfo>
    <tripinfo id="h12244c1:3" depart="57612.00" departLane="315358244_1" departPos="5.10" departSpeed="0.00" departDelay="0.40" arrival="57714.00" arrivalLane="386687235_1" arrivalPos="80.84" arrivalSpeed="15.38" duration="102.00" routeLength="1186.14" waitingTime="6.00" waitingCount="1" stopTime="0.00" timeLoss="25.39" rerouteNo="1" devices="tripinfo_h12244c1:3 routing_h12244c1:3 emissions_h12244c1:3" vType="default_016" speedFactor="1.13" vaporized="">
        <emissions CO_abs="4054.931589" CO2_abs="301714.281922" HC_abs="25.404341" PMx_abs="5.268128" NOx_abs="121.435507" fuel_abs="129.693782" electricity_abs="0"/>
    </tripinfo>
    <tripinfo id="S5R_frequency1.2" depart="57624.00" departLane="315358250#0_1" departPos="12.10" departSpeed="0.00" departDelay="12.40" arrival="57721.00" arrivalLane="386687235_1" arrivalPos="80.84" arrivalSpeed="13.80" duration="97.00" routeLength="1115.62" waitingTime="0.00" waitingCount="0" stopTime="0.00" timeLoss="15.21" rerouteNo="1" devices="tripinfo_S5R_frequency1.2 routing_S5R_frequency1.2 emissions_S5R_frequency1.2" vType="bus" speedFactor="1.00" vaporized="">
        <emissions CO_abs="2029.216029" CO2_abs="1303909.138116" HC_abs="416.972631" PMx_abs="217.694144" NOx_abs="10040.426254" fuel_abs="556.104206" electricity_abs="0"/>
    </tripinfo>
    <tripinfo id="h7181c1:1" depart="57660.00" departLane="315358254#0_1" departPos="5.10" departSpeed="0.00" departDelay="0.10" arrival="57735.00" arrivalLane="306240162#0_0" arrivalPos="220.43" arrivalSpeed="16.72" duration="75.00" routeLength="932.35" waitingTime="7.00" waitingCount="1" stopTime="0.00" timeLoss="26.57" rerouteNo="1" devices="tripinfo_h7181c1:1 routing_h7181c1:1 emissions_h7181c1:1" vType="default_016" speedFactor="1.07" vaporized="">
        <emissions CO_abs="5046.060808" CO2_abs="320383.985231" HC_abs="30.683795" PMx_abs="6.523132" NOx_abs="134.491159" fuel_abs="137.718366" electricity_abs="0"/>
    </tripinfo>
    <tripinfo id="h7800c1:5" depart="57696.00" departLane="-447569998#1_1" departPos="5.10" departSpeed="0.00" departDelay="0.00" arrival="57735.00" arrivalLane="-447569998#1_2" arrivalPos="180.76" arrivalSpeed="3.49" duration="39.00" routeLength="175.66" waitingTime="4.00" waitingCount="1" stopTime="0.00" timeLoss="12.21" rerouteNo="1" devices="tripinfo_h7800c1:5 routing_h7800c1:5 emissions_h7800c1:5" vType="default_016" speedFactor="0.80" vaporized="">
        <emissions CO_abs="1796.821726" CO2_abs="60502.552824" HC_abs="9.567452" PMx_abs="1.052897" NOx_abs="25.134983" fuel_abs="26.008173" electricity_abs="0"/>
    </tripinfo>
    <tripinfo id="carIn22761:1" depart="57616.00" departLane="-306240162#1_0" departPos="5.10" departSpeed="0.00" departDelay="2.10" arrival="57743.00" arrivalLane="399835085#1_1" arrivalPos="212.23" arrivalSpeed="8.12" duration="127.00" routeLength="1093.26" waitingTime="30.00" waitingCount="1" stopTime="0.00" timeLoss="51.06" rerouteNo="1" devices="tripinfo_carIn22761:1 routing_carIn22761:1 emissions_carIn22761:1" vType="default_016" speedFactor="1.03" vaporized="">
        <emissions CO_abs="9621.931061" CO2_abs="396402.122623" HC_abs="53.226380" PMx_abs="8.057102" NOx_abs="167.562595" fuel_abs="170.397856" electricity_abs="0"/>
    </tripinfo>
    <tripinfo id="h317c2:1" depart="57707.00" departLane="-32978638#0_1" departPos="5.10" departSpeed="0.00" departDelay="0.10" arrival="57745.00" arrivalLane="-266565295#5_1" arrivalPos="172.76" arrivalSpeed="13.50" duration="38.00" routeLength="370.53" waitingTime="0.00" waitingCount="0" stopTime="0.00" timeLoss="10.59" rerouteNo="1" devices="tripinfo_h317c2:1 routing_h317c2:1 emissions_h317c2:1" vType="default_016" speedFactor="1.00" vaporized="">
        <emissions CO_abs="2077.790823" CO2_abs="126774.691905" HC_abs="12.441223" PMx_abs="2.248444" NOx_abs="51.824576" fuel_abs="54.495120" electricity_abs="0"/>
    </tripinfo>
    <tripinfo id="h3568c1:3" depart="57656.00" departLane="266565295#5_1" departPos="5.10" departSpeed="0.00" departDelay="0.80" arrival="57746.00" arrivalLane="-24634415_1" arrivalPos="62.03" arrivalSpeed="13.77" duration="90.00" routeLength="807.40" waitingTime="7.00" waitingCount="1" stopTime="0.00" timeLoss="26.49" rerouteNo="1" devices="tripinfo_h3568c1:3 routing_h3568c1:3 emissions_h3568c1:3" vType="default_016" speedFactor="1.02" vaporized="">
        <emissions CO_abs="4220.278112" CO2_abs="244877.617078" HC_abs="24.987778" PMx_abs="4.474335" NOx_abs="101.244566" fuel_abs="105.262558" electricity_abs="0"/>
    </tripinfo>
    <tripinfo id="h4538c1:1" depart="57701.00" departLane="-10427692#1_1" departPos="5.10" departSpeed="0.00" departDelay="0.00" arrival="57751.00" arrivalLane="-128361102#1_1" arrivalPos="274.68" arrivalSpeed="16.59" duration="50.00" routeLength="440.74" waitingTime="13.00" waitingCount="1" stopTime="0.00" timeLoss="24.00" rerouteNo="1" devices="tripinfo_h4538c1:1 routing_h4538c1:1 emissions_h4538c1:1" vType="default_016" speedFactor="1.22" vaporized="">
        <emissions CO_abs="3147.456139" CO2_abs="143917.670381" HC_abs="17.722102" PMx_abs="2.756808" NOx_abs="59.571537" fuel_abs="61.864588" electricity_abs="0"/>
    </tripinfo>
    <tripinfo id="carIn121703:1" depart="57647.00" departLane="386687232#0_1" departPos="5.10" departSpeed="0.00" departDelay="0.30" arrival="57754.00" arrivalLane="-315358244_1" arrivalPos="33.95" arrivalSpeed="12.61" duration="107.00" routeLength="1157.39" waitingTime="2.00" waitingCount="1" stopTime="0.00" timeLoss="22.35" rerouteNo="1" devices="tripinfo_carIn121703:1 routing_carIn121703:1 emissions_carIn121703:1" vType="default_016" speedFactor="1.00" vaporized="">
        <emissions CO_abs="4085.727616" CO2_abs="278444.350722" HC_abs="25.136937" PMx_abs="4.815397" NOx_abs="112.605994" fuel_abs="119.691364" electricity_abs="0"/>
    </tripinfo>
    <tripinfo id="carIn30817:1" depart="57681.00" departLane="315358244_1" departPos="5.10" departSpeed="0.00" departDelay="0.20" arrival="57756.00" arrivalLane="447569997#1_1" arrivalPos="180.93" arrivalSpeed="7.35" duration="75.00" routeLength="718.04" waitingTime="0.00" waitingCount="0" stopTime="0.00" timeLoss="11.99" rerouteNo="1" devices="tripinfo_carIn30817:1 routing_carIn30817:1 emissions_carIn30817:1" vType="default_016" speedFactor="0.98" vaporized="">
        <emissions CO_abs="2930.076589" CO2_abs="175382.495388" HC_abs="17.396180" PMx_abs="2.862130" NOx_abs="70.286126" fuel_abs="75.389979" electricity_abs="0"/>
    </tripinfo>
    <tripinfo id="h5979c1:5" depart="57669.00" departLane="399835085#1_1" departPos="5.10" departSpeed="0.00" departDelay="0.00" arrival="57769.00" arrivalLane="-315358254#1_1" arrivalPos="137.16" arrivalSpeed="11.24" duration="100.00" routeLength="659.33" waitingTime="3.00" waitingCount="1" stopTime="0.00" timeLoss="16.32" rerouteNo="1" devices="tripinfo_h5979c1:5 routing_h5979c1:5 emissions_h5979c1:5" vType="default_016" speedFactor="0.87" vaporized="">
        <emissions CO_abs="3860.874078" CO2_abs="164919.025623" HC_abs="21.369545" PMx_abs="2.745474" NOx_abs="67.417871" fuel_abs="70.892913" electricity_abs="0"/>
    </tripinfo>
    <tripinfo id="h3326c1:2" depart="57656.00" departLane="22716069#0_1" departPos="5.10" departSpeed="0.00" departDelay="0.00" arrival="57789.00" arrivalLane="24634517#13_1" arrivalPos="111.62" arrivalSpeed="11.08" duration="133.00" routeLength="1312.81" waitingTime="0.00" waitingCount="0" stopTime="0.00" timeLoss="15.21" rerouteNo="1" devices="tripinfo_h3326c1:2 routing_h3326c1:2 emissions_h3326c1:2" vType="default_016" speedFactor="0.83" vaporized="">
        <emissions CO_abs="4244.445727" CO2_abs="286969.233724" HC_abs="25.978093" PMx_abs="4.563609" NOx_abs="114.383735" fuel_abs="123.356394" electricity_abs="0"/>
    </tripinfo>
    <tripinfo id="h3154c1:1" depart="57658.00" departLane="24634507_1" departPos="5.10" departSpeed="0.00" departDelay="0.00" arrival="57789.00" arrivalLane="-266565295#5_1" arrivalPos="172.76" arrivalSpeed="14.32" duration="131.00" routeLength="1206.22" waitingTime="29.00" waitingCount="1" stopTime="0.00" timeLoss="45.19" rerouteNo="1" devices="tripinfo_h3154c1:1 routing_h3154c1:1 emissions_h3154c1:1" vType="default_016" speedFactor="1.04" vaporized="">
        <emissions CO_abs="7444.670943" CO2_abs="339027.578956" HC_abs="41.805071" PMx_abs="6.154527" NOx_abs="138.674165" fuel_abs="145.735207" electricity_abs="0"/>
    </tripinfo>
    <tripinfo id="h330c1:1" depart="57736.00" departLane="-32978638#0_1" departPos="5.10" departSpeed="0.00" departDelay="0.20" arrival="57793.00" arrivalLane="-266565295#5_1" arrivalPos="172.76" arrivalSpeed="15.03" duration="57.00" routeLength="370.53" waitingTime="24.00" waitingCount="1" stopTime="0.00" timeLoss="32.47" rerouteNo="1" devices="tripinfo_h330c1:1 routing_h330c1:1 emissions_h330c1:1" vType="default_016" speedFactor="1.12" vaporized="">
        <emissions CO_abs="5066.208560" CO2_abs="168682.564807" HC_abs="27.068134" PMx_abs="3.549122" NOx_abs="72.761638" fuel_abs="72.510653" electricity_abs="0"/>
    </tripinfo>
    <tripinfo id="h645c1:1" depart="57622.00" departLane="266565295#5_1" departPos="5.10" departSpeed="0.00" departDelay="0.40" arrival="57797.00" arrivalLane="-315358244_1" arrivalPos="33.95" arrivalSpeed="11.85" duration="175.00" routeLength="1910.83" waitingTime="8.00" waitingCount="1" stopTime="0.00" timeLoss="27.02" rerouteNo="1" devices="tripinfo_h645c1:1 routing_h645c1:1 emissions_h645c1:1" vType="default_016" speedFactor="0.94" vaporized="">
        <emissions CO_abs="5082.164614" CO2_abs="388706.538607" HC_abs="32.173735" PMx_abs="6.065089" NOx_abs="152.514758" fuel_abs="167.088901" electricity_abs="0"/>
    </tripinfo>
    <tripinfo id="h9563c2:5" depart="57631.00" departLane="315358244_1" departPos="5.10" departSpeed="0.00" departDelay="0.70" arrival="57807.00" arrivalLane="386687235_1" arrivalPos="80.84" arrivalSpeed="13.16" duration="176.00" routeLength="1186.14" waitingTime="65.00" waitingCount="3" stopTime="0.00" timeLoss="86.00" rerouteNo="1" devices="tripinfo_h9563c2:5 routing_h9563c2:5 emissions_h9563c2:5" vType="default_016" speedFactor="0.96" vaporized="">
        <emissions CO_abs="12590.427468" CO2_abs="407250.994364" HC_abs="66.828260" PMx_abs="7.852873" NOx_abs="170.412270" fuel_abs="175.064224" electricity_abs="0"/>
    </tripinfo>
    <tripinfo id="carIn129809:1" depart="57729.00" departLane="-447569998#1_1" departPos="5.10" departSpeed="0.00" departDelay="1.00" arrival="57807.00" arrivalLane="-315358244_1" arrivalPos="33.95" arrivalSpeed="12.64" duration="78.00" routeLength="706.49" waitingTime="5.00" waitingCount="1" stopTime="0.00" timeLoss="14.88" rerouteNo="1" devices="tripinfo_carIn129809:1 routing_carIn129809:1 emissions_carIn129809:1" vType="default_015" speedFactor="0.95" vaporized="">
        <emissions CO_abs="2776.050838" CO2_abs="159401.169591" HC_abs="16.344041" PMx_abs="2.639689" NOx_abs="64.114868" fuel_abs="68.520283" electricity_abs="0"/>
    </tripinfo>
    <tripinfo id="carIn27009:1" depart="57673.00" departLane="-447569998#1_1" departPos="5.10" departSpeed="0.00" departDelay="0.50" arrival="57812.00" arrivalLane="-26677539_1" arrivalPos="152.75" arrivalSpeed="6.56" duration="139.00" routeLength="699.63" waitingTime="29.00" waitingCount="1" stopTime="0.00" timeLoss="45.48" rerouteNo="1" devices="tripinfo_carIn27009:1 routing_carIn27009:1 emissions_carIn27009:1" vType="default_015" speedFactor="0.90" vaporized="">
        <emissions CO_abs="8657.744586" CO2_abs="259267.377013" HC_abs="45.381393" PMx_abs="4.727137" NOx_abs="108.543006" fuel_abs="111.451562" electricity_abs="0"/>
    </tripinfo>
    <tripinfo id="carIn86816:1" depart="57617.00" departLane="128361102#0_1" departPos="5.10" departSpeed="0.00" departDelay="0.80" arrival="57815.00" arrivalLane="201956811#0_1" arrivalPos="40.40" arrivalSpeed="12.71" duration="198.00" routeLength="2067.33" waitingTime="9.00" waitingCount="1" stopTime="0.00" timeLoss="34.20" rerouteNo="1" devices="tripinfo_carIn86816:1 routing_carIn86816:1 emissions_carIn86816:1" vType="default_016" speedFactor="0.92" vaporized="">
        <emissions CO_abs="6626.355226" CO2_abs="460423.639722" HC_abs="40.881024" PMx_abs="7.381330" NOx_abs="182.597992" fuel_abs="197.917272" electricity_abs="0"/>
    </tripinfo>
    <tripinfo id="carIn80064:1" depart="57603.00" departLane="128361109#1_1" departPos="5.10" departSpeed="0.00" departDelay="0.40" arrival="57819.00" arrivalLane="-315358254#1_1" arrivalPos="137.16" arrivalSpeed="12.71" duration="216.00" routeLength="1587.97" waitingTime="83.00" waitingCount="3" stopTime="0.00" timeLoss="126.84" rerouteNo="1" devices="tripinfo_carIn80064:1 routing_carIn80064:1 emissions_carIn80064:1" vType="default_016" speedFactor="1.00" vaporized="">
        <emissions CO_abs="20195.340898" CO2_abs="704646.145057" HC_abs="108.734638" PMx_abs="14.793500" NOx_abs="300.701108" fuel_abs="302.901928" electricity_abs="0"/>
    </tripinfo>
    <tripinfo id="h16072c2:3" depart="57663.00" departLane="315358254#0_1" departPos="5.10" departSpeed="0.00" departDelay="2.50" arrival="57823.00" arrivalLane="386687235_1" arrivalPos="80.84" arrivalSpeed="14.15" duration="160.00" routeLength="1611.92" waitingTime="23.00" waitingCount="3" stopTime="0.00" timeLoss="46.86" rerouteNo="1" devices="tripinfo_h16072c2:3 routing_h16072c2:3 emissions_h16072c2:3" vType="default_016" speedFactor="1.04" vaporized="">
        <emissions CO_abs="6235.458530" CO2_abs="387023.806782" HC_abs="37.447029" PMx_abs="6.745344" NOx_abs="156.232735" fuel_abs="166.365502" electricity_abs="0"/>
    </tripinfo>
    <tripinfo id="h5216c1:1" depart="57664.00" departLane="224892339#0_1" departPos="5.10" departSpeed="0.00" departDelay="0.00" arrival="57823.00" arrivalLane="386687235_2" arrivalPos="80.84" arrivalSpeed="15.95" duration="159.00" routeLength="1823.78" waitingTime="20.00" waitingCount="2" stopTime="0.00" timeLoss="48.41" rerouteNo="1" devices="tripinfo_h5216c1:1 routing_h5216c1:1 emissions_h5216c1:1" vType="default_016" speedFactor="1.16" vaporized="">
        <emissions CO_abs="8278.731620" CO2_abs="499381.736792" HC_abs="49.452148" PMx_abs="9.465455" NOx_abs="205.557979" fuel_abs="214.662641" electricity_abs="0"/>
    </tripinfo>
    <tripinfo id="carIn81860:1" depart="57712.00" departLane="128361102#0_1" departPos="5.10" departSpeed="0.00" departDelay="0.60" arrival="57825.00" arrivalLane="-24634517#17_1" arrivalPos="6.43" arrivalSpeed="7.93" duration="113.00" routeLength="1229.64" waitingTime="0.00" waitingCount="0" stopTime="0.00" timeLoss="15.42" rerouteNo="1" devices="tripinfo_carIn81860:1 routing_carIn81860:1 emissions_carIn81860:1" vType="default_016" speedFactor="0.92" vaporized="">
        <emissions CO_abs="3593.929680" CO2_abs="271566.837557" HC_abs="22.655148" PMx_abs="4.164310" NOx_abs="106.386217" fuel_abs="116.735494" electricity_abs="0"/>
    </tripinfo>
    <tripinfo id="carIn50326:1" depart="57651.00" departLane="128361102#0_1" departPos="5.10" departSpeed="0.00" departDelay="0.30" arrival="57829.00" arrivalLane="18809673#0_1" arrivalPos="473.56" arrivalSpeed="14.88" duration="178.00" routeLength="1591.07" waitingTime="35.00" waitingCount="2" stopTime="0.00" timeLoss="60.52" rerouteNo="1" devices="tripinfo_carIn50326:1 routing_carIn50326:1 emissions_carIn50326:1" vType="default_016" speedFactor="1.10" vaporized="">
        <emissions CO_abs="8950.973115" CO2_abs="430181.188400" HC_abs="50.645069" PMx_abs="7.656292" NOx_abs="174.910696" fuel_abs="184.918508" electricity_abs="0"/>
    </tripinfo>
    <tripinfo id="h15382c1:3" depart="57626.00" departLane="124812856#0_1" departPos="5.10" departSpeed="0.00" departDelay="3.80" arrival="57831.00" arrivalLane="-128361102#1_1" arrivalPos="274.68" arrivalSpeed="17.08" duration="205.00" routeLength="2232.46" waitingTime="31.00" waitingCount="4" stopTime="0.00" timeLoss="73.84" rerouteNo="1" devices="tripinfo_h15382c1:3 routing_h15382c1:3 emissions_h15382c1:3" vType="default_016" speedFactor="1.24" vaporized="">
        <emissions CO_abs="11607.234764" CO2_abs="655407.116623" HC_abs="68.224629" PMx_abs="12.556698" NOx_abs="270.764068" fuel_abs="281.731620" electricity_abs="0"/>
    </tripinfo>
    <tripinfo id="carIn118591:1" depart="57689.00" departLane="315358244_1" departPos="5.10" departSpeed="0.00" departDelay="0.20" arrival="57839.00" arrivalLane="386687235_1" arrivalPos="80.84" arrivalSpeed="11.24" duration="150.00" routeLength="1186.14" waitingTime="27.00" waitingCount="4" stopTime="0.00" timeLoss="50.71" rerouteNo="1" devices="tripinfo_carIn118591:1 routing_carIn118591:1 emissions_carIn118591:1" vType="default_016" speedFactor="0.87" vaporized="">
        <emissions CO_abs="6350.952348" CO2_abs="299352.503386" HC_abs="35.889005" PMx_abs="5.228158" NOx_abs="122.304611" fuel_abs="128.680392" electricity_abs="0"/>
    </tripinfo>
    <tripinfo id="randUni31145:1" depart="57814.00" departLane="10425609#0_1" departPos="5.10" departSpeed="0.00" departDelay="0.30" arrival="57843.00" arrivalLane="201956810_1" arrivalPos="71.65" arrivalSpeed="14.52" duration="29.00" routeLength="255.78" waitingTime="0.00" waitingCount="0" stopTime="0.00" timeLoss="10.06" rerouteNo="1" devices="tripinfo_randUni31145:1 routing_randUni31145:1 emissions_randUni31145:1" vType="random_016" speedFactor="1.06" vaporized="">
        <emissions CO_abs="2235.814617" CO2_abs="117132.434963" HC_abs="12.942416" PMx_abs="2.301659" NOx_abs="49.726492" fuel_abs="50.350202" electricity_abs="0"/>
    </tripinfo>
    <tripinfo id="randUni2407:1" depart="57820.00" departLane="10425609#0_1" departPos="5.10" departSpeed="0.00" departDelay="0.80" arrival="57846.00" arrivalLane="201956810_1" arrivalPos="71.65" arrivalSpeed="13.39" duration="26.00" routeLength="255.78" waitingTime="0.00" waitingCount="0" stopTime="0.00" timeLoss="6.44" rerouteNo="1" devices="tripinfo_randUni2407:1 routing_randUni2407:1 emissions_randUni2407:1" vType="random_016" speedFactor="1.01" vaporized="">
        <emissions CO_abs="1577.150931" CO2_abs="92392.752643" HC_abs="9.350426" PMx_abs="1.648110" NOx_abs="38.018739" fuel_abs="39.715787" electricity_abs="0"/>
    </tripinfo>
    <tripinfo id="h8343c1:5" depart="57679.00" departLane="315358254#0_1" departPos="5.10" departSpeed="0.00" departDelay="0.60" arrival="57853.00" arrivalLane="-24634510#5_1" arrivalPos="236.88" arrivalSpeed="13.62" duration="174.00" routeLength="2056.84" waitingTime="25.00" waitingCount="2" stopTime="0.00" timeLoss="53.33" rerouteNo="1" devices="tripinfo_h8343c1:5 routing_h8343c1:5 emissions_h8343c1:5" vType="default_016" speedFactor="1.04" vaporized="">
        <emissions CO_abs="9997.338832" CO2_abs="571352.814044" HC_abs="59.172690" PMx_abs="11.155982" NOx_abs="235.859978" fuel_abs="245.600024" electricity_abs="0"/>
    </tripinfo>
    <tripinfo id="carIn102915:1" depart="57643.00" departLane="128361102#0_1" departPos="5.10" departSpeed="0.00" departDelay="0.40" arrival="57854.00" arrivalLane="201956811#0_1" arrivalPos="40.40" arrivalSpeed="12.44" duration="211.00" routeLength="2067.33" waitingTime="30.00" waitingCount="2" stopTime="0.00" timeLoss="56.17" rerouteNo="1" devices="tripinfo_carIn102915:1 routing_carIn102915:1 emissions_carIn102915:1" vType="default_016" speedFactor="0.98" vaporized="">
        <emissions CO_abs="9185.686663" CO2_abs="507780.339680" HC_abs="53.671844" PMx_abs="8.689051" NOx_abs="204.525738" fuel_abs="218.274785" electricity_abs="0"/>
    </tripinfo>
    <tripinfo id="carIn46110:1" depart="57684.00" departLane="315358244_1" departPos="5.10" departSpeed="0.00" departDelay="1.20" arrival="57854.00" arrivalLane="32978638#0_1" arrivalPos="49.29" arrivalSpeed="15.49" duration="170.00" routeLength="1764.04" waitingTime="27.00" waitingCount="3" stopTime="0.00" timeLoss="62.33" rerouteNo="1" devices="tripinfo_carIn46110:1 routing_carIn46110:1 emissions_carIn46110:1" vType="default_016" speedFactor="1.20" vaporized="">
        <emissions CO_abs="8563.979723" CO2_abs="473161.692762" HC_abs="50.000307" PMx_abs="8.785481" NOx_abs="193.705198" fuel_abs="203.392645" electricity_abs="0"/>
    </tripinfo>
    <tripinfo id="carIn107282:1" depart="57749.00" departLane="-447569998#1_1" departPos="5.10" departSpeed="0.00" departDelay="0.00" arrival="57855.00" arrivalLane="315358242#0_1" arrivalPos="165.37" arrivalSpeed="13.58" duration="106.00" routeLength="448.50" waitingTime="57.00" waitingCount="1" stopTime="0.00" timeLoss="65.92" rerouteNo="1" devices="tripinfo_carIn107282:1 routing_carIn107282:1 emissions_carIn107282:1" vType="default_016" speedFactor="1.06" vaporized="">
        <emissions CO_abs="10618.605786" CO2_abs="251819.592968" HC_abs="54.217428" PMx_abs="5.463282" NOx_abs="109.922722" fuel_abs="108.250644" electricity_abs="0"/>
    </tripinfo>
    <tripinfo id="randUni15030:1" depart="57735.00" departLane="386687232#0_1" departPos="5.10" departSpeed="0.00" departDelay="0.10" arrival="57857.00" arrivalLane="26677539_1" arrivalPos="151.98" arrivalSpeed="6.64" duration="122.00" routeLength="919.89" waitingTime="15.00" waitingCount="1" stopTime="0.00" timeLoss="30.67" rerouteNo="1" devices="tripinfo_randUni15030:1 routing_randUni15030:1 emissions_randUni15030:1" vType="random_016" speedFactor="0.91" vaporized="">
        <emissions CO_abs="5796.031044" CO2_abs="249988.551778" HC_abs="32.175643" PMx_abs="4.271377" NOx_abs="101.779107" fuel_abs="107.461224" electricity_abs="0"/>
    </tripinfo>
    <tripinfo id="50R_frequency3.17" depart="57674.00" departLane="-18809673#6_1" departPos="12.10" departSpeed="0.00" departDelay="0.70" arrival="57860.00" arrivalLane="201956811#0_1" arrivalPos="40.40" arrivalSpeed="11.28" duration="186.00" routeLength="1954.47" waitingTime="16.00" waitingCount="1" stopTime="0.00" timeLoss="41.13" rerouteNo="1" devices="tripinfo_50R_frequency3.17 routing_50R_frequency3.17 emissions_50R_frequency3.17" vType="bus" speedFactor="1.00" vaporized="">
        <emissions CO_abs="3330.625010" CO2_abs="2010397.314636" HC_abs="711.176859" PMx_abs="355.598713" NOx_abs="15801.065185" fuel_abs="857.391123" electricity_abs="0"/>
    </tripinfo>
    <tripinfo id="carIn73855:1" depart="57743.00" departLane="386687232#0_1" departPos="5.10" departSpeed="0.00" departDelay="0.50" arrival="57865.00" arrivalLane="-315358244_1" arrivalPos="33.95" arrivalSpeed="13.41" duration="122.00" routeLength="1157.39" waitingTime="21.00" waitingCount="2" stopTime="0.00" timeLoss="38.36" rerouteNo="1" devices="tripinfo_carIn73855:1 routing_carIn73855:1 emissions_carIn73855:1" vType="default_016" speedFactor="1.02" vaporized="">
        <emissions CO_abs="5507.192305" CO2_abs="289145.571384" HC_abs="31.825405" PMx_abs="5.105616" NOx_abs="117.306023" fuel_abs="124.292312" electricity_abs="0"/>
    </tripinfo>
    <tripinfo id="h3864c1:3" depart="57678.00" departLane="24693977#1_1" departPos="5.10" departSpeed="0.00" departDelay="0.00" arrival="57869.00" arrivalLane="201956820_1" arrivalPos="48.33" arrivalSpeed="14.50" duration="191.00" routeLength="1574.85" waitingTime="40.00" waitingCount="3" stopTime="0.00" timeLoss="76.44" rerouteNo="1" devices="tripinfo_h3864c1:3 routing_h3864c1:3 emissions_h3864c1:3" vType="default_016" speedFactor="1.13" vaporized="">
        <emissions CO_abs="12300.222005" CO2_abs="556432.817725" HC_abs="69.077016" PMx_abs="10.738954" NOx_abs="233.312998" fuel_abs="239.188473" electricity_abs="0"/>
    </tripinfo>
    <tripinfo id="carIn75660:1" depart="57679.00" departLane="128361109#1_1" departPos="5.10" departSpeed="0.00" departDelay="3.40" arrival="57872.00" arrivalLane="386687235_1" arrivalPos="80.84" arrivalSpeed="15.57" duration="193.00" routeLength="2088.57" waitingTime="28.00" waitingCount="2" stopTime="0.00" timeLoss="61.75" rerouteNo="1" devices="tripinfo_carIn75660:1 routing_carIn75660:1 emissions_carIn75660:1" vType="default_016" speedFactor="1.15" vaporized="">
        <emissions CO_abs="8837.116791" CO2_abs="500820.197747" HC_abs="51.841514" PMx_abs="8.895682" NOx_abs="202.232925" fuel_abs="215.282338" electricity_abs="0"/>
    </tripinfo>
    <tripinfo id="carIn88905:1" depart="57688.00" departLane="128361109#1_1" departPos="5.10" departSpeed="0.00" departDelay="5.80" arrival="57873.00" arrivalLane="386687235_2" arrivalPos="80.84" arrivalSpeed="15.05" duration="185.00" routeLength="2088.57" waitingTime="24.00" waitingCount="2" stopTime="0.00" timeLoss="48.28" rerouteNo="1" devices="tripinfo_carIn88905:1 routing_carIn88905:1 emissions_carIn88905:1" vType="default_016" speedFactor="1.11" vaporized="">
        <emissions CO_abs="7609.296832" CO2_abs="453910.550204" HC_abs="45.203641" PMx_abs="8.012815" NOx_abs="182.816899" fuel_abs="195.117535" electricity_abs="0"/>
    </tripinfo>
    <tripinfo id="h6541c1:3" depart="57727.00" departLane="201950247#3_1" departPos="5.10" departSpeed="0.00" departDelay="0.00" arrival="57874.00" arrivalLane="32978638#0_1" arrivalPos="49.29" arrivalSpeed="14.63" duration="147.00" routeLength="1176.17" waitingTime="29.00" waitingCount="3" stopTime="0.00" timeLoss="55.81" rerouteNo="1" devices="tripinfo_h6541c1:3 routing_h6541c1:3 emissions_h6541c1:3" vType="default_016" speedFactor="1.13" vaporized="">
        <emissions CO_abs="8613.888550" CO2_abs="383741.340383" HC_abs="48.187088" PMx_abs="7.329213" NOx_abs="160.530482" fuel_abs="164.955445" electricity_abs="0"/>
    </tripinfo>
    <tripinfo id="carIn126378:1" depart="57746.00" departLane="386687232#0_1" departPos="5.10" departSpeed="0.00" departDelay="1.80" arrival="57874.00" arrivalLane="-315358244_1" arrivalPos="33.95" arrivalSpeed="11.22" duration="128.00" routeLength="1157.39" waitingTime="7.00" waitingCount="2" stopTime="0.00" timeLoss="27.63" rerouteNo="1" devices="tripinfo_carIn126378:1 routing_carIn126378:1 emissions_carIn126378:1" vType="default_016" speedFactor="0.84" vaporized="">
        <emissions CO_abs="4336.019996" CO2_abs="263883.860756" HC_abs="25.842861" PMx_abs="4.165729" NOx_abs="104.850302" fuel_abs="113.433363" electricity_abs="0"/>