<?xml version="1.0" encoding="UTF-8"?>

<!-- generated on Thu Nov  4 14:05:28 2021 by Eclipse SUMO sumo Version 1.9.0
<configuration xmlns:xsi="http://www.w3.org/2001/XMLSchema-instance" xsi:noNamespaceSchemaLocation="http://sumo.dlr.de/xsd/sumoConfiguration.xsd">

    <input>
        <net-file value="/mainfs/home/bk2g18/RESCO/environments/ingolstadt21/ingolstadt21.net.xml"/>
        <route-files value="/mainfs/home/bk2g18/RESCO/environments/ingolstadt21/ingolstadt21.rou.xml"/>
    </input>

    <output>
        <tripinfo-output value="/mainfs/home/bk2g18/RESCO/logs/MPLight-tr0-ingolstadt21-21-mplight-pressure/tripinfo_96.xml"/>
        <tripinfo-output.write-unfinished value="true"/>
    </output>

    <time>
        <begin value="57600"/>
        <end value="61200"/>
    </time>

    <processing>
        <time-to-teleport value="-1"/>
    </processing>

    <report>
        <xml-validation value="never"/>
        <xml-validation.routes value="never"/>
        <no-warnings value="true"/>
        <no-step-log value="true"/>
    </report>

    <emissions>
        <device.emissions.probability value="1"/>
    </emissions>

    <traci_server>
        <remote-port value="36606"/>
    </traci_server>

    <random_number>
        <random value="true"/>
    </random_number>

</configuration>
-->

<tripinfos xmlns:xsi="http://www.w3.org/2001/XMLSchema-instance" xsi:noNamespaceSchemaLocation="http://sumo.dlr.de/xsd/tripinfo_file.xsd">
    <tripinfo id="carIn60260:1" depart="57606.00" departLane="315358254#0_1" departPos="5.10" departSpeed="0.00" departDelay="0.90" arrival="57658.00" arrivalLane="399835085#1_1" arrivalPos="212.23" arrivalSpeed="7.41" duration="52.00" routeLength="430.98" waitingTime="0.00" waitingCount="0" stopTime="0.00" timeLoss="6.55" rerouteNo="1" devices="tripinfo_carIn60260:1 routing_carIn60260:1 emissions_carIn60260:1" vType="default_016" speedFactor="1.02" vaporized="">
        <emissions CO_abs="2189.173908" CO2_abs="114750.509446" HC_abs="12.617986" PMx_abs="1.873257" NOx_abs="46.332577" fuel_abs="49.326891" electricity_abs="0"/>
    </tripinfo>
    <tripinfo id="h15454c2:3" depart="57612.00" departLane="24608844_1" departPos="5.10" departSpeed="0.00" departDelay="0.50" arrival="57661.00" arrivalLane="32978638#0_1" arrivalPos="49.29" arrivalSpeed="11.69" duration="49.00" routeLength="354.79" waitingTime="1.00" waitingCount="1" stopTime="0.00" timeLoss="10.03" rerouteNo="1" devices="tripinfo_h15454c2:3 routing_h15454c2:3 emissions_h15454c2:3" vType="default_016" speedFactor="0.88" vaporized="">
        <emissions CO_abs="2469.748918" CO2_abs="118717.342223" HC_abs="13.991544" PMx_abs="1.998183" NOx_abs="48.387543" fuel_abs="51.032159" electricity_abs="0"/>
    </tripinfo>
    <tripinfo id="carIn53971:1" depart="57640.00" departLane="272042143_1" departPos="5.10" departSpeed="0.00" departDelay="0.80" arrival="57702.00" arrivalLane="24634414#1_1" arrivalPos="162.19" arrivalSpeed="6.87" duration="62.00" routeLength="493.04" waitingTime="0.00" waitingCount="0" stopTime="0.00" timeLoss="8.24" rerouteNo="1" devices="tripinfo_carIn53971:1 routing_carIn53971:1 emissions_carIn53971:1" vType="default_016" speedFactor="0.84" vaporized="">
        <emissions CO_abs="2623.264810" CO2_abs="129079.364472" HC_abs="14.932843" PMx_abs="2.178580" NOx_abs="52.678082" fuel_abs="55.486341" electricity_abs="0"/>
    </tripinfo>
    <tripinfo id="carIn80064:1" depart="57603.00" departLane="128361109#1_1" departPos="5.10" departSpeed="0.00" departDelay="0.40" arrival="57718.00" arrivalLane="-315358254#1_1" arrivalPos="137.16" arrivalSpeed="15.14" duration="115.00" routeLength="1587.97" waitingTime="7.00" waitingCount="1" stopTime="0.00" timeLoss="34.98" rerouteNo="1" devices="tripinfo_carIn80064:1 routing_carIn80064:1 emissions_carIn80064:1" vType="default_016" speedFactor="1.12" vaporized="">
        <emissions CO_abs="7840.486650" CO2_abs="505556.552854" HC_abs="47.862676" PMx_abs="10.358147" NOx_abs="211.743901" fuel_abs="217.315436" electricity_abs="0"/>
    </tripinfo>
    <tripinfo id="h7800c1:5" depart="57696.00" departLane="-447569998#1_1" departPos="5.10" departSpeed="0.00" departDelay="0.00" arrival="57721.00" arrivalLane="-447569998#1_1" arrivalPos="180.76" arrivalSpeed="7.65" duration="25.00" routeLength="175.66" waitingTime="0.00" waitingCount="0" stopTime="0.00" timeLoss="3.35" rerouteNo="1" devices="tripinfo_h7800c1:5 routing_h7800c1:5 emissions_h7800c1:5" vType="default_016" speedFactor="1.01" vaporized="">
        <emissions CO_abs="1088.193627" CO2_abs="47591.050008" HC_abs="6.051742" PMx_abs="0.804977" NOx_abs="19.537691" fuel_abs="20.457684" electricity_abs="0"/>
    </tripinfo>
    <tripinfo id="h3688c1:1" depart="57625.00" departLane="201201950#1_1" departPos="5.10" departSpeed="0.00" departDelay="0.00" arrival="57732.00" arrivalLane="32978638#0_1" arrivalPos="49.29" arrivalSpeed="13.08" duration="107.00" routeLength="1089.75" waitingTime="8.00" waitingCount="1" stopTime="0.00" timeLoss="24.75" rerouteNo="1" devices="tripinfo_h3688c1:1 routing_h3688c1:1 emissions_h3688c1:1" vType="default_016" speedFactor="0.97" vaporized="">
        <emissions CO_abs="4511.536521" CO2_abs="284736.669654" HC_abs="27.203085" PMx_abs="4.817392" NOx_abs="114.442715" fuel_abs="122.396616" electricity_abs="0"/>
    </tripinfo>
    <tripinfo id="carIn22761:1" depart="57616.00" departLane="-306240162#1_0" departPos="5.10" departSpeed="0.00" departDelay="2.10" arrival="57734.00" arrivalLane="399835085#1_1" arrivalPos="212.23" arrivalSpeed="7.79" duration="118.00" routeLength="1093.26" waitingTime="16.00" waitingCount="2" stopTime="0.00" timeLoss="41.26" rerouteNo="1" devices="tripinfo_carIn22761:1 routing_carIn22761:1 emissions_carIn22761:1" vType="default_016" speedFactor="1.02" vaporized="">
        <emissions CO_abs="6952.059095" CO2_abs="366944.669637" HC_abs="40.377805" PMx_abs="7.063568" NOx_abs="152.428133" fuel_abs="157.734191" electricity_abs="0"/>
    </tripinfo>
    <tripinfo id="h4538c1:1" depart="57701.00" departLane="-10427692#1_1" departPos="5.10" departSpeed="0.00" departDelay="0.00" arrival="57735.00" arrivalLane="-128361102#1_1" arrivalPos="274.68" arrivalSpeed="14.78" duration="34.00" routeLength="440.74" waitingTime="0.00" waitingCount="0" stopTime="0.00" timeLoss="5.77" rerouteNo="1" devices="tripinfo_h4538c1:1 routing_h4538c1:1 emissions_h4538c1:1" vType="default_016" speedFactor="1.13" vaporized="">
        <emissions CO_abs="1508.272855" CO2_abs="107452.608934" HC_abs="9.330863" PMx_abs="1.918389" NOx_abs="43.519260" fuel_abs="46.189168" electricity_abs="0"/>
    </tripinfo>
    <tripinfo id="h7181c1:1" depart="57660.00" departLane="315358254#0_1" departPos="5.10" departSpeed="0.00" departDelay="0.10" arrival="57741.00" arrivalLane="306240162#0_0" arrivalPos="220.43" arrivalSpeed="16.22" duration="81.00" routeLength="932.35" waitingTime="11.00" waitingCount="2" stopTime="0.00" timeLoss="28.15" rerouteNo="1" devices="tripinfo_h7181c1:1 routing_h7181c1:1 emissions_h7181c1:1" vType="default_016" speedFactor="0.98" vaporized="">
        <emissions CO_abs="4760.364708" CO2_abs="283866.187989" HC_abs="28.426701" PMx_abs="5.545847" NOx_abs="117.512187" fuel_abs="122.021656" electricity_abs="0"/>
    </tripinfo>
    <tripinfo id="h3568c1:3" depart="57656.00" departLane="266565295#5_1" departPos="5.10" departSpeed="0.00" departDelay="0.80" arrival="57742.00" arrivalLane="-24634415_1" arrivalPos="62.03" arrivalSpeed="11.91" duration="86.00" routeLength="807.40" waitingTime="0.00" waitingCount="0" stopTime="0.00" timeLoss="12.26" rerouteNo="1" devices="tripinfo_h3568c1:3 routing_h3568c1:3 emissions_h3568c1:3" vType="default_016" speedFactor="0.88" vaporized="">
        <emissions CO_abs="3072.018272" CO2_abs="193383.742836" HC_abs="18.486400" PMx_abs="3.192787" NOx_abs="77.854730" fuel_abs="83.127800" electricity_abs="0"/>
    </tripinfo>
    <tripinfo id="carIn121703:1" depart="57647.00" departLane="386687232#0_1" departPos="5.10" departSpeed="0.00" departDelay="0.30" arrival="57743.00" arrivalLane="-315358244_1" arrivalPos="33.95" arrivalSpeed="14.46" duration="96.00" routeLength="1157.39" waitingTime="3.00" waitingCount="1" stopTime="0.00" timeLoss="15.74" rerouteNo="1" devices="tripinfo_carIn121703:1 routing_carIn121703:1 emissions_carIn121703:1" vType="default_016" speedFactor="1.06" vaporized="">
        <emissions CO_abs="3383.286300" CO2_abs="271215.187129" HC_abs="21.625854" PMx_abs="4.489913" NOx_abs="107.352635" fuel_abs="116.583732" electricity_abs="0"/>
    </tripinfo>
    <tripinfo id="h12244c1:3" depart="57612.00" departLane="315358244_1" departPos="5.10" departSpeed="0.00" departDelay="0.40" arrival="57747.00" arrivalLane="386687235_1" arrivalPos="80.84" arrivalSpeed="12.28" duration="135.00" routeLength="1186.14" waitingTime="21.00" waitingCount="4" stopTime="0.00" timeLoss="42.68" rerouteNo="1" devices="tripinfo_h12244c1:3 routing_h12244c1:3 emissions_h12244c1:3" vType="default_016" speedFactor="0.94" vaporized="">
        <emissions CO_abs="6006.445268" CO2_abs="310045.091299" HC_abs="34.597737" PMx_abs="5.433871" NOx_abs="126.302644" fuel_abs="133.276268" electricity_abs="0"/>
    </tripinfo>
    <tripinfo id="S5R_frequency1.2" depart="57616.00" departLane="315358250#0_1" departPos="12.10" departSpeed="0.00" departDelay="4.40" arrival="57756.00" arrivalLane="386687235_1" arrivalPos="80.84" arrivalSpeed="13.43" duration="140.00" routeLength="1115.62" waitingTime="18.00" waitingCount="4" stopTime="0.00" timeLoss="58.66" rerouteNo="1" devices="tripinfo_S5R_frequency1.2 routing_S5R_frequency1.2 emissions_S5R_frequency1.2" vType="bus" speedFactor="1.00" vaporized="">
        <emissions CO_abs="2777.446151" CO2_abs="1621617.629198" HC_abs="582.895881" PMx_abs="294.432469" NOx_abs="12916.340544" fuel_abs="691.551798" electricity_abs="0"/>
    </tripinfo>
    <tripinfo id="h317c2:1" depart="57707.00" departLane="-32978638#0_1" departPos="5.10" departSpeed="0.00" departDelay="0.10" arrival="57756.00" arrivalLane="-266565295#5_1" arrivalPos="172.76" arrivalSpeed="12.54" duration="49.00" routeLength="370.53" waitingTime="12.00" waitingCount="1" stopTime="0.00" timeLoss="19.91" rerouteNo="1" devices="tripinfo_h317c2:1 routing_h317c2:1 emissions_h317c2:1" vType="default_016" speedFactor="0.94" vaporized="">
        <emissions CO_abs="3149.606348" CO2_abs="137761.128457" HC_abs="17.574086" PMx_abs="2.567270" NOx_abs="57.284650" fuel_abs="59.218285" electricity_abs="0"/>
    </tripinfo>
    <tripinfo id="h5979c1:5" depart="57669.00" departLane="399835085#1_1" departPos="5.10" departSpeed="0.00" departDelay="0.00" arrival="57770.00" arrivalLane="-315358254#1_1" arrivalPos="137.16" arrivalSpeed="10.92" duration="101.00" routeLength="659.33" waitingTime="0.00" waitingCount="0" stopTime="0.00" timeLoss="12.06" rerouteNo="1" devices="tripinfo_h5979c1:5 routing_h5979c1:5 emissions_h5979c1:5" vType="default_016" speedFactor="0.82" vaporized="">
        <emissions CO_abs="4113.212392" CO2_abs="169905.567479" HC_abs="22.617095" PMx_abs="2.772349" NOx_abs="69.163762" fuel_abs="73.036647" electricity_abs="0"/>
    </tripinfo>
    <tripinfo id="h3326c1:2" depart="57656.00" departLane="22716069#0_1" departPos="5.10" departSpeed="0.00" departDelay="0.00" arrival="57771.00" arrivalLane="24634517#13_1" arrivalPos="111.62" arrivalSpeed="13.37" duration="115.00" routeLength="1312.81" waitingTime="0.00" waitingCount="0" stopTime="0.00" timeLoss="13.39" rerouteNo="1" devices="tripinfo_h3326c1:2 routing_h3326c1:2 emissions_h3326c1:2" vType="default_016" speedFactor="0.96" vaporized="">
        <emissions CO_abs="4014.377769" CO2_abs="301307.514115" HC_abs="25.332727" PMx_abs="5.006470" NOx_abs="120.497100" fuel_abs="129.519233" electricity_abs="0"/>
    </tripinfo>
    <tripinfo id="carIn27009:1" depart="57673.00" departLane="-447569998#1_1" departPos="5.10" departSpeed="0.00" departDelay="0.50" arrival="57772.00" arrivalLane="-26677539_1" arrivalPos="152.75" arrivalSpeed="7.94" duration="99.00" routeLength="699.63" waitingTime="2.00" waitingCount="1" stopTime="0.00" timeLoss="18.34" rerouteNo="1" devices="tripinfo_carIn27009:1 routing_carIn27009:1 emissions_carIn27009:1" vType="default_015" speedFactor="1.04" vaporized="">
        <emissions CO_abs="4054.530356" CO2_abs="191359.306567" HC_abs="22.887544" PMx_abs="3.262289" NOx_abs="78.661404" fuel_abs="82.258189" electricity_abs="0"/>
    </tripinfo>
    <tripinfo id="carIn30817:1" depart="57681.00" departLane="315358244_1" departPos="5.10" departSpeed="0.00" departDelay="0.20" arrival="57773.00" arrivalLane="447569997#1_1" arrivalPos="180.93" arrivalSpeed="7.43" duration="92.00" routeLength="718.04" waitingTime="11.00" waitingCount="2" stopTime="0.00" timeLoss="24.99" rerouteNo="1" devices="tripinfo_carIn30817:1 routing_carIn30817:1 emissions_carIn30817:1" vType="default_016" speedFactor="0.92" vaporized="">
        <emissions CO_abs="4084.525857" CO2_abs="201467.001391" HC_abs="23.290646" PMx_abs="3.508015" NOx_abs="82.431783" fuel_abs="86.602928" electricity_abs="0"/>
    </tripinfo>
    <tripinfo id="h9563c2:5" depart="57631.00" departLane="315358244_1" departPos="5.10" departSpeed="0.00" departDelay="0.70" arrival="57785.00" arrivalLane="386687235_1" arrivalPos="80.84" arrivalSpeed="15.62" duration="154.00" routeLength="1186.14" waitingTime="55.00" waitingCount="3" stopTime="0.00" timeLoss="78.09" rerouteNo="1" devices="tripinfo_h9563c2:5 routing_h9563c2:5 emissions_h9563c2:5" vType="default_016" speedFactor="1.14" vaporized="">
        <emissions CO_abs="10709.077681" CO2_abs="423151.658062" HC_abs="58.619418" PMx_abs="8.332627" NOx_abs="177.256414" fuel_abs="181.897189" electricity_abs="0"/>
    </tripinfo>
    <tripinfo id="h3154c1:1" depart="57658.00" departLane="24634507_1" departPos="5.10" departSpeed="0.00" departDelay="0.00" arrival="57786.00" arrivalLane="-266565295#5_1" arrivalPos="172.76" arrivalSpeed="13.87" duration="128.00" routeLength="1206.22" waitingTime="20.00" waitingCount="2" stopTime="0.00" timeLoss="40.95" rerouteNo="1" devices="tripinfo_h3154c1:1 routing_h3154c1:1 emissions_h3154c1:1" vType="default_016" speedFactor="1.02" vaporized="">
        <emissions CO_abs="6605.211495" CO2_abs="350654.120930" HC_abs="38.335008" PMx_abs="6.417488" NOx_abs="144.190129" fuel_abs="150.731969" electricity_abs="0"/>
    </tripinfo>
    <tripinfo id="carIn118591:1" depart="57689.00" departLane="315358244_1" departPos="5.10" departSpeed="0.00" departDelay="0.20" arrival="57789.00" arrivalLane="386687235_1" arrivalPos="80.84" arrivalSpeed="16.46" duration="100.00" routeLength="1186.14" waitingTime="13.00" waitingCount="1" stopTime="0.00" timeLoss="29.90" rerouteNo="1" devices="tripinfo_carIn118591:1 routing_carIn118591:1 emissions_carIn118591:1" vType="default_016" speedFactor="1.24" vaporized="">
        <emissions CO_abs="5866.808387" CO2_abs="338285.557501" HC_abs="34.684954" PMx_abs="6.512106" NOx_abs="139.577305" fuel_abs="145.414451" electricity_abs="0"/>
    </tripinfo>
    <tripinfo id="carIn86816:1" depart="57617.00" departLane="128361102#0_1" departPos="5.10" departSpeed="0.00" departDelay="0.80" arrival="57791.00" arrivalLane="201956811#0_1" arrivalPos="40.40" arrivalSpeed="14.80" duration="174.00" routeLength="2067.33" waitingTime="10.00" waitingCount="2" stopTime="0.00" timeLoss="38.10" rerouteNo="1" devices="tripinfo_carIn86816:1 routing_carIn86816:1 emissions_carIn86816:1" vType="default_016" speedFactor="1.11" vaporized="">
        <emissions CO_abs="6543.924792" CO2_abs="491227.100886" HC_abs="41.193863" PMx_abs="8.519633" NOx_abs="197.082583" fuel_abs="211.157144" electricity_abs="0"/>
    </tripinfo>
    <tripinfo id="carIn77438:1" depart="57614.00" departLane="124812856#0_1" departPos="5.10" departSpeed="0.00" departDelay="1.10" arrival="57792.00" arrivalLane="-128361102#1_1" arrivalPos="274.68" arrivalSpeed="15.63" duration="178.00" routeLength="2232.46" waitingTime="8.00" waitingCount="1" stopTime="0.00" timeLoss="38.21" rerouteNo="1" devices="tripinfo_carIn77438:1 routing_carIn77438:1 emissions_carIn77438:1" vType="default_016" speedFactor="1.16" vaporized="">
        <emissions CO_abs="7349.517262" CO2_abs="550777.192612" HC_abs="46.267081" PMx_abs="9.875966" NOx_abs="222.867921" fuel_abs="236.754665" electricity_abs="0"/>
    </tripinfo>
    <tripinfo id="h330c1:1" depart="57736.00" departLane="-32978638#0_1" departPos="5.10" departSpeed="0.00" departDelay="0.20" arrival="57795.00" arrivalLane="-266565295#5_1" arrivalPos="172.76" arrivalSpeed="14.39" duration="59.00" routeLength="370.53" waitingTime="22.00" waitingCount="1" stopTime="0.00" timeLoss="32.35" rerouteNo="1" devices="tripinfo_h330c1:1 routing_h330c1:1 emissions_h330c1:1" vType="default_016" speedFactor="1.05" vaporized="">
        <emissions CO_abs="4607.866583" CO2_abs="160617.359905" HC_abs="24.747442" PMx_abs="3.249710" NOx_abs="68.371862" fuel_abs="69.043723" electricity_abs="0"/>
    </tripinfo>
    <tripinfo id="carIn129809:1" depart="57728.00" departLane="-447569998#1_1" departPos="5.10" departSpeed="0.00" departDelay="0.00" arrival="57798.00" arrivalLane="-315358244_1" arrivalPos="33.95" arrivalSpeed="12.82" duration="70.00" routeLength="706.49" waitingTime="0.00" waitingCount="0" stopTime="0.00" timeLoss="8.95" rerouteNo="1" devices="tripinfo_carIn129809:1 routing_carIn129809:1 emissions_carIn129809:1" vType="default_015" speedFactor="1.00" vaporized="">
        <emissions CO_abs="2577.658239" CO2_abs="159002.856498" HC_abs="15.404634" PMx_abs="2.508558" NOx_abs="62.897498" fuel_abs="68.349115" electricity_abs="0"/>
    </tripinfo>
    <tripinfo id="carIn12365:1" depart="57713.00" departLane="315358244_1" departPos="5.10" departSpeed="0.00" departDelay="0.50" arrival="57799.00" arrivalLane="447569997#1_1" arrivalPos="180.93" arrivalSpeed="8.41" duration="86.00" routeLength="718.04" waitingTime="13.00" waitingCount="2" stopTime="0.00" timeLoss="28.25" rerouteNo="1" devices="tripinfo_carIn12365:1 routing_carIn12365:1 emissions_carIn12365:1" vType="default_016" speedFactor="1.07" vaporized="">
        <emissions CO_abs="3909.141632" CO2_abs="202721.327636" HC_abs="22.554919" PMx_abs="3.706427" NOx_abs="83.894828" fuel_abs="87.141691" electricity_abs="0"/>
    </tripinfo>
    <tripinfo id="h11737c1:1" depart="57665.00" departLane="272042143_1" departPos="5.10" departSpeed="0.00" departDelay="1.50" arrival="57806.00" arrivalLane="-315358254#1_1" arrivalPos="137.16" arrivalSpeed="14.64" duration="141.00" routeLength="1596.88" waitingTime="16.00" waitingCount="1" stopTime="0.00" timeLoss="31.90" rerouteNo="1" devices="tripinfo_h11737c1:1 routing_h11737c1:1 emissions_h11737c1:1" vType="default_016" speedFactor="1.07" vaporized="">
        <emissions CO_abs="5916.737165" CO2_abs="380778.074527" HC_abs="35.804822" PMx_abs="6.616639" NOx_abs="152.951500" fuel_abs="163.680619" electricity_abs="0"/>
    </tripinfo>
    <tripinfo id="carIn12858:1" depart="57661.00" departLane="128361109#1_1" departPos="5.10" departSpeed="0.00" departDelay="0.90" arrival="57808.00" arrivalLane="399835085#1_1" arrivalPos="212.23" arrivalSpeed="9.09" duration="147.00" routeLength="1738.12" waitingTime="18.00" waitingCount="2" stopTime="0.00" timeLoss="48.45" rerouteNo="1" devices="tripinfo_carIn12858:1 routing_carIn12858:1 emissions_carIn12858:1" vType="default_016" speedFactor="1.16" vaporized="">
        <emissions CO_abs="9139.371269" CO2_abs="552913.703235" HC_abs="54.891918" PMx_abs="11.130697" NOx_abs="229.652280" fuel_abs="237.672947" electricity_abs="0"/>
    </tripinfo>
    <tripinfo id="carIn81860:1" depart="57712.00" departLane="128361102#0_1" departPos="5.10" departSpeed="0.00" departDelay="0.60" arrival="57808.00" arrivalLane="-24634517#17_1" arrivalPos="6.43" arrivalSpeed="8.76" duration="96.00" routeLength="1229.64" waitingTime="2.00" waitingCount="1" stopTime="0.00" timeLoss="18.75" rerouteNo="1" devices="tripinfo_carIn81860:1 routing_carIn81860:1 emissions_carIn81860:1" vType="default_016" speedFactor="1.18" vaporized="">
        <emissions CO_abs="4202.260712" CO2_abs="295425.381331" HC_abs="26.001727" PMx_abs="5.438047" NOx_abs="120.772408" fuel_abs="126.990228" electricity_abs="0"/>
    </tripinfo>
    <tripinfo id="carIn126288:1" depart="57674.00" departLane="272042143_1" departPos="5.10" departSpeed="0.00" departDelay="0.00" arrival="57810.00" arrivalLane="-315358254#1_1" arrivalPos="137.16" arrivalSpeed="12.39" duration="136.00" routeLength="1596.88" waitingTime="0.00" waitingCount="0" stopTime="0.00" timeLoss="12.52" rerouteNo="1" devices="tripinfo_carIn126288:1 routing_carIn126288:1 emissions_carIn126288:1" vType="default_016" speedFactor="0.95" vaporized="">
        <emissions CO_abs="3814.716268" CO2_abs="319640.129712" HC_abs="24.814798" PMx_abs="5.009632" NOx_abs="125.439682" fuel_abs="137.399769" electricity_abs="0"/>
    </tripinfo>
    <tripinfo id="carIn50326:1" depart="57651.00" departLane="128361102#0_1" departPos="5.10" departSpeed="0.00" departDelay="0.30" arrival="57811.00" arrivalLane="18809673#0_1" arrivalPos="473.56" arrivalSpeed="12.67" duration="160.00" routeLength="1591.07" waitingTime="9.00" waitingCount="1" stopTime="0.00" timeLoss="30.97" rerouteNo="1" devices="tripinfo_carIn50326:1 routing_carIn50326:1 emissions_carIn50326:1" vType="default_016" speedFactor="1.00" vaporized="">
        <emissions CO_abs="5750.987028" CO2_abs="345322.746351" HC_abs="34.176065" PMx_abs="5.754969" NOx_abs="138.418668" fuel_abs="148.440427" electricity_abs="0"/>
    </tripinfo>
    <tripinfo id="carIn82278:1" depart="57702.00" departLane="-306240162#1_0" departPos="5.10" departSpeed="0.00" departDelay="0.70" arrival="57812.00" arrivalLane="399835085#1_1" arrivalPos="212.23" arrivalSpeed="8.68" duration="110.00" routeLength="1093.26" waitingTime="16.00" waitingCount="1" stopTime="0.00" timeLoss="40.07" rerouteNo="1" devices="tripinfo_carIn82278:1 routing_carIn82278:1 emissions_carIn82278:1" vType="default_016" speedFactor="1.13" vaporized="">
        <emissions CO_abs="7484.702992" CO2_abs="379432.726324" HC_abs="43.145739" PMx_abs="7.587653" NOx_abs="159.445835" fuel_abs="163.102105" electricity_abs="0"/>
    </tripinfo>
    <tripinfo id="carIn107282:1" depart="57749.00" departLane="-447569998#1_1" departPos="5.10" departSpeed="0.00" departDelay="0.00" arrival="57816.00" arrivalLane="315358242#0_1" arrivalPos="165.37" arrivalSpeed="13.42" duration="67.00" routeLength="448.50" waitingTime="15.00" waitingCount="1" stopTime="0.00" timeLoss="24.59" rerouteNo="1" devices="tripinfo_carIn107282:1 routing_carIn107282:1 emissions_carIn107282:1" vType="default_016" speedFactor="0.99" vaporized="">
        <emissions CO_abs="3819.655814" CO2_abs="145773.488121" HC_abs="20.774965" PMx_abs="2.635099" NOx_abs="60.171694" fuel_abs="62.663026" electricity_abs="0"/>
    </tripinfo>
    <tripinfo id="carIn107084:1" depart="57601.00" departLane="124812856#0_1" departPos="5.10" departSpeed="0.00" departDelay="0.70" arrival="57818.00" arrivalLane="-128361102#1_1" arrivalPos="274.68" arrivalSpeed="13.25" duration="217.00" routeLength="2250.49" waitingTime="18.00" waitingCount="2" stopTime="0.00" timeLoss="46.09" rerouteNo="1" devices="tripinfo_carIn107084:1 routing_carIn107084:1 emissions_carIn107084:1" vType="default_016" speedFactor="0.97" vaporized="">
        <emissions CO_abs="7777.870770" CO2_abs="529311.828592" HC_abs="47.761064" PMx_abs="8.710353" NOx_abs="210.857230" fuel_abs="227.529328" electricity_abs="0"/>
    </tripinfo>
    <tripinfo id="carIn77943:1" depart="57608.00" departLane="124812856#0_1" departPos="5.10" departSpeed="0.00" departDelay="2.50" arrival="57821.00" arrivalLane="-128361102#1_1" arrivalPos="274.68" arrivalSpeed="11.85" duration="213.00" routeLength="2250.49" waitingTime="10.00" waitingCount="2" stopTime="0.00" timeLoss="37.51" rerouteNo="1" devices="tripinfo_carIn77943:1 routing_carIn77943:1 emissions_carIn77943:1" vType="default_016" speedFactor="0.94" vaporized="">
        <emissions CO_abs="7149.190385" CO2_abs="500490.430125" HC_abs="44.228255" PMx_abs="8.215166" NOx_abs="199.519478" fuel_abs="215.140026" electricity_abs="0"/>
    </tripinfo>
    <tripinfo id="carIn48184:1" depart="57613.00" departLane="-306240162#1_0" departPos="5.10" departSpeed="0.00" departDelay="0.70" arrival="57823.00" arrivalLane="386687235_1" arrivalPos="80.84" arrivalSpeed="13.96" duration="210.00" routeLength="2257.41" waitingTime="28.00" waitingCount="3" stopTime="0.00" timeLoss="67.56" rerouteNo="1" devices="tripinfo_carIn48184:1 routing_carIn48184:1 emissions_carIn48184:1" vType="default_016" speedFactor="1.04" vaporized="">
        <emissions CO_abs="10480.520743" CO2_abs="611974.264851" HC_abs="62.074900" PMx_abs="11.510427" NOx_abs="251.536086" fuel_abs="263.061703" electricity_abs="0"/>
    </tripinfo>
    <tripinfo id="h16072c2:3" depart="57663.00" departLane="315358254#0_1" departPos="5.10" departSpeed="0.00" departDelay="2.50" arrival="57824.00" arrivalLane="386687235_2" arrivalPos="80.84" arrivalSpeed="12.19" duration="161.00" routeLength="1611.92" waitingTime="7.00" waitingCount="3" stopTime="0.00" timeLoss="34.73" rerouteNo="1" devices="tripinfo_h16072c2:3 routing_h16072c2:3 emissions_h16072c2:3" vType="default_016" speedFactor="0.93" vaporized="">
        <emissions CO_abs="5895.874363" CO2_abs="387019.761677" HC_abs="35.918308" PMx_abs="6.666700" NOx_abs="157.038283" fuel_abs="166.363464" electricity_abs="0"/>
    </tripinfo>
    <tripinfo id="randUni15030:1" depart="57735.00" departLane="386687232#0_1" departPos="5.10" departSpeed="0.00" departDelay="0.10" arrival="57825.00" arrivalLane="26677539_1" arrivalPos="151.98" arrivalSpeed="8.05" duration="90.00" routeLength="919.89" waitingTime="0.00" waitingCount="0" stopTime="0.00" timeLoss="11.19" rerouteNo="1" devices="tripinfo_randUni15030:1 routing_randUni15030:1 emissions_randUni15030:1" vType="random_016" speedFactor="1.05" vaporized="">
        <emissions CO_abs="3356.186583" CO2_abs="209404.394664" HC_abs="20.144920" PMx_abs="3.533995" NOx_abs="84.638055" fuel_abs="90.014347" electricity_abs="0"/>
    </tripinfo>
    <tripinfo id="carIn82220:1" depart="57619.00" departLane="-306240162#1_0" departPos="5.10" departSpeed="0.00" departDelay="3.50" arrival="57826.00" arrivalLane="386687235_1" arrivalPos="80.84" arrivalSpeed="11.74" duration="207.00" routeLength="2257.41" waitingTime="7.00" waitingCount="2" stopTime="0.00" timeLoss="40.16" rerouteNo="1" devices="tripinfo_carIn82220:1 routing_carIn82220:1 emissions_carIn82220:1" vType="default_016" speedFactor="0.89" vaporized="">
        <emissions CO_abs="7376.373398" CO2_abs="515097.813556" HC_abs="45.675440" PMx_abs="8.959078" NOx_abs="208.197007" fuel_abs="221.418414" electricity_abs="0"/>
    </tripinfo>
    <tripinfo id="h5216c1:1" depart="57664.00" departLane="224892339#0_1" departPos="5.10" departSpeed="0.00" departDelay="0.00" arrival="57826.00" arrivalLane="386687235_2" arrivalPos="80.84" arrivalSpeed="14.58" duration="162.00" routeLength="1823.78" waitingTime="9.00" waitingCount="1" stopTime="0.00" timeLoss="44.13" rerouteNo="1" devices="tripinfo_h5216c1:1 routing_h5216c1:1 emissions_h5216c1:1" vType="default_016" speedFactor="1.09" vaporized="">
        <emissions CO_abs="8089.154137" CO2_abs="513800.934814" HC_abs="49.001719" PMx_abs="9.526164" NOx_abs="211.115770" fuel_abs="220.860708" electricity_abs="0"/>
    </tripinfo>
    <tripinfo id="h9953c2:3" depart="57682.00" departLane="-54169231#2_1" departPos="5.10" departSpeed="0.00" departDelay="0.00" arrival="57828.00" arrivalLane="386687235_1" arrivalPos="80.84" arrivalSpeed="14.20" duration="146.00" routeLength="1535.60" waitingTime="2.00" waitingCount="1" stopTime="0.00" timeLoss="30.56" rerouteNo="1" devices="tripinfo_h9953c2:3 routing_h9953c2:3 emissions_h9953c2:3" vType="default_016" speedFactor="1.09" vaporized="">
        <emissions CO_abs="6355.603170" CO2_abs="402353.026628" HC_abs="38.387893" PMx_abs="7.226542" NOx_abs="165.069901" fuel_abs="172.954333" electricity_abs="0"/>
    </tripinfo>
    <tripinfo id="h17600c1:1" depart="57662.00" departLane="272042143_1" departPos="5.10" departSpeed="0.00" departDelay="0.30" arrival="57829.00" arrivalLane="201238729#3_1" arrivalPos="431.02" arrivalSpeed="14.66" duration="167.00" routeLength="2100.26" waitingTime="9.00" waitingCount="1" stopTime="0.00" timeLoss="24.83" rerouteNo="1" devices="tripinfo_h17600c1:1 routing_h17600c1:1 emissions_h17600c1:1" vType="default_016" speedFactor="1.06" vaporized="">
        <emissions CO_abs="4646.985875" CO2_abs="409831.451171" HC_abs="30.599558" PMx_abs="6.578292" NOx_abs="160.033150" fuel_abs="176.168912" electricity_abs="0"/>
    </tripinfo>
    <tripinfo id="h645c1:1" depart="57622.00" departLane="266565295#5_1" departPos="5.10" departSpeed="0.00" departDelay="0.40" arrival="57834.00" arrivalLane="-315358244_1" arrivalPos="33.95" arrivalSpeed="13.73" duration="212.00" routeLength="1910.83" waitingTime="50.00" waitingCount="4" stopTime="0.00" timeLoss="82.86" rerouteNo="1" devices="tripinfo_h645c1:1 routing_h645c1:1 emissions_h645c1:1" vType="default_016" speedFactor="1.08" vaporized="">
        <emissions CO_abs="11945.782711" CO2_abs="549535.221782" HC_abs="67.222934" PMx_abs="10.165961" NOx_abs="225.682122" fuel_abs="236.224161" electricity_abs="0"/>
    </tripinfo>
    <tripinfo id="carIn102915:1" depart="57643.00" departLane="128361102#0_1" departPos="5.10" departSpeed="0.00" departDelay="0.40" arrival="57846.00" arrivalLane="201956811#0_1" arrivalPos="40.40" arrivalSpeed="11.35" duration="203.00" routeLength="2067.33" waitingTime="12.00" waitingCount="1" stopTime="0.00" timeLoss="32.29" rerouteNo="1" devices="tripinfo_carIn102915:1 routing_carIn102915:1 emissions_carIn102915:1" vType="default_016" speedFactor="0.88" vaporized="">
        <emissions CO_abs="7106.212790" CO2_abs="445094.144104" HC_abs="42.676745" PMx_abs="7.094711" NOx_abs="176.485037" fuel_abs="191.328387" electricity_abs="0"/>
    </tripinfo>