<?xml version="1.0" encoding="UTF-8"?>

<!-- generated on Thu Nov  4 13:21:05 2021 by Eclipse SUMO sumo Version 1.9.0
<configuration xmlns:xsi="http://www.w3.org/2001/XMLSchema-instance" xsi:noNamespaceSchemaLocation="http://sumo.dlr.de/xsd/sumoConfiguration.xsd">

    <input>
        <net-file value="/mainfs/home/bk2g18/RESCO/environments/ingolstadt21/ingolstadt21.net.xml"/>
        <route-files value="/mainfs/home/bk2g18/RESCO/environments/ingolstadt21/ingolstadt21.rou.xml"/>
    </input>

    <output>
        <tripinfo-output value="/mainfs/home/bk2g18/RESCO/logs/MPLight-tr0-ingolstadt21-21-mplight-pressure/tripinfo_16.xml"/>
        <tripinfo-output.write-unfinished value="true"/>
    </output>

    <time>
        <begin value="57600"/>
        <end value="61200"/>
    </time>

    <processing>
        <time-to-teleport value="-1"/>
    </processing>

    <report>
        <xml-validation value="never"/>
        <xml-validation.routes value="never"/>
        <no-warnings value="true"/>
        <no-step-log value="true"/>
    </report>

    <emissions>
        <device.emissions.probability value="1"/>
    </emissions>

    <traci_server>
        <remote-port value="59219"/>
    </traci_server>

    <random_number>
        <random value="true"/>
    </random_number>

</configuration>
-->

<tripinfos xmlns:xsi="http://www.w3.org/2001/XMLSchema-instance" xsi:noNamespaceSchemaLocation="http://sumo.dlr.de/xsd/tripinfo_file.xsd">
    <tripinfo id="h15454c2:3" depart="57612.00" departLane="24608844_1" departPos="5.10" departSpeed="0.00" departDelay="0.50" arrival="57657.00" arrivalLane="32978638#0_1" arrivalPos="49.29" arrivalSpeed="12.25" duration="45.00" routeLength="354.79" waitingTime="0.00" waitingCount="0" stopTime="0.00" timeLoss="9.42" rerouteNo="1" devices="tripinfo_h15454c2:3 routing_h15454c2:3 emissions_h15454c2:3" vType="default_016" speedFactor="0.97" vaporized="">
        <emissions CO_abs="2417.575094" CO2_abs="122110.592944" HC_abs="13.856640" PMx_abs="2.160487" NOx_abs="50.440776" fuel_abs="52.490526" electricity_abs="0"/>
    </tripinfo>
    <tripinfo id="carIn60260:1" depart="57606.00" departLane="315358254#0_1" departPos="5.10" departSpeed="0.00" departDelay="0.90" arrival="57659.00" arrivalLane="399835085#1_1" arrivalPos="212.23" arrivalSpeed="7.08" duration="53.00" routeLength="430.98" waitingTime="0.00" waitingCount="0" stopTime="0.00" timeLoss="6.85" rerouteNo="1" devices="tripinfo_carIn60260:1 routing_carIn60260:1 emissions_carIn60260:1" vType="default_016" speedFactor="0.99" vaporized="">
        <emissions CO_abs="2105.234108" CO2_abs="110381.421956" HC_abs="12.119136" PMx_abs="1.722523" NOx_abs="44.084862" fuel_abs="47.448904" electricity_abs="0"/>
    </tripinfo>
    <tripinfo id="carIn53971:1" depart="57640.00" departLane="272042143_1" departPos="5.10" departSpeed="0.00" departDelay="0.80" arrival="57691.00" arrivalLane="24634414#1_1" arrivalPos="162.19" arrivalSpeed="9.05" duration="51.00" routeLength="493.04" waitingTime="0.00" waitingCount="0" stopTime="0.00" timeLoss="9.56" rerouteNo="1" devices="tripinfo_carIn53971:1 routing_carIn53971:1 emissions_carIn53971:1" vType="default_016" speedFactor="1.11" vaporized="">
        <emissions CO_abs="2563.000339" CO2_abs="152063.871402" HC_abs="15.231734" PMx_abs="2.712061" NOx_abs="62.567467" fuel_abs="65.365881" electricity_abs="0"/>
    </tripinfo>
    <tripinfo id="h3688c1:1" depart="57625.00" departLane="201201950#1_1" departPos="5.10" departSpeed="0.00" departDelay="0.00" arrival="57714.00" arrivalLane="32978638#0_1" arrivalPos="49.29" arrivalSpeed="14.88" duration="89.00" routeLength="1089.75" waitingTime="2.00" waitingCount="1" stopTime="0.00" timeLoss="20.65" rerouteNo="1" devices="tripinfo_h3688c1:1 routing_h3688c1:1 emissions_h3688c1:1" vType="default_016" speedFactor="1.16" vaporized="">
        <emissions CO_abs="4216.081391" CO2_abs="297346.286194" HC_abs="26.132045" PMx_abs="5.412312" NOx_abs="121.124822" fuel_abs="127.816032" electricity_abs="0"/>
    </tripinfo>
    <tripinfo id="h7800c1:5" depart="57696.00" departLane="-447569998#1_1" departPos="5.10" departSpeed="0.00" departDelay="0.00" arrival="57718.00" arrivalLane="-447569998#1_1" arrivalPos="180.76" arrivalSpeed="8.72" duration="22.00" routeLength="175.66" waitingTime="0.00" waitingCount="0" stopTime="0.00" timeLoss="3.26" rerouteNo="1" devices="tripinfo_h7800c1:5 routing_h7800c1:5 emissions_h7800c1:5" vType="default_016" speedFactor="1.15" vaporized="">
        <emissions CO_abs="1006.586457" CO2_abs="49961.220387" HC_abs="5.730537" PMx_abs="0.794945" NOx_abs="20.101325" fuel_abs="21.476504" electricity_abs="0"/>
    </tripinfo>
    <tripinfo id="h12244c1:3" depart="57612.00" departLane="315358244_1" departPos="5.10" departSpeed="0.00" departDelay="0.40" arrival="57743.00" arrivalLane="386687235_1" arrivalPos="80.84" arrivalSpeed="12.86" duration="131.00" routeLength="1186.14" waitingTime="15.00" waitingCount="3" stopTime="0.00" timeLoss="42.56" rerouteNo="1" devices="tripinfo_h12244c1:3 routing_h12244c1:3 emissions_h12244c1:3" vType="default_016" speedFactor="0.98" vaporized="">
        <emissions CO_abs="5669.095654" CO2_abs="332507.978124" HC_abs="33.570635" PMx_abs="5.789861" NOx_abs="135.127231" fuel_abs="142.931584" electricity_abs="0"/>
    </tripinfo>
    <tripinfo id="h7181c1:1" depart="57660.00" departLane="315358254#0_1" departPos="5.10" departSpeed="0.00" departDelay="0.10" arrival="57744.00" arrivalLane="306240162#0_0" arrivalPos="220.43" arrivalSpeed="13.78" duration="84.00" routeLength="932.35" waitingTime="9.00" waitingCount="1" stopTime="0.00" timeLoss="21.92" rerouteNo="1" devices="tripinfo_h7181c1:1 routing_h7181c1:1 emissions_h7181c1:1" vType="default_016" speedFactor="0.83" vaporized="">
        <emissions CO_abs="3143.721740" CO2_abs="217735.535031" HC_abs="19.350557" PMx_abs="3.701845" NOx_abs="86.506546" fuel_abs="93.595387" electricity_abs="0"/>
    </tripinfo>
    <tripinfo id="h317c2:1" depart="57707.00" departLane="-32978638#0_1" departPos="5.10" departSpeed="0.00" departDelay="0.10" arrival="57744.00" arrivalLane="-266565295#5_1" arrivalPos="172.76" arrivalSpeed="14.14" duration="37.00" routeLength="370.53" waitingTime="1.00" waitingCount="1" stopTime="0.00" timeLoss="11.88" rerouteNo="1" devices="tripinfo_h317c2:1 routing_h317c2:1 emissions_h317c2:1" vType="default_016" speedFactor="1.10" vaporized="">
        <emissions CO_abs="2274.302958" CO2_abs="129419.156404" HC_abs="13.416108" PMx_abs="2.468043" NOx_abs="54.061536" fuel_abs="55.631726" electricity_abs="0"/>
    </tripinfo>
    <tripinfo id="h4538c1:1" depart="57701.00" departLane="-10427692#1_1" departPos="5.10" departSpeed="0.00" departDelay="0.00" arrival="57746.00" arrivalLane="-128361102#1_1" arrivalPos="274.68" arrivalSpeed="10.26" duration="45.00" routeLength="440.74" waitingTime="0.00" waitingCount="0" stopTime="0.00" timeLoss="6.86" rerouteNo="1" devices="tripinfo_h4538c1:1 routing_h4538c1:1 emissions_h4538c1:1" vType="default_016" speedFactor="0.83" vaporized="">
        <emissions CO_abs="1628.913987" CO2_abs="102833.744940" HC_abs="9.794097" PMx_abs="1.620392" NOx_abs="40.913761" fuel_abs="44.204154" electricity_abs="0"/>
    </tripinfo>
    <tripinfo id="S5R_frequency1.2" depart="57624.00" departLane="315358250#0_1" departPos="12.10" departSpeed="0.00" departDelay="12.40" arrival="57749.00" arrivalLane="386687235_1" arrivalPos="80.84" arrivalSpeed="13.75" duration="125.00" routeLength="1115.62" waitingTime="10.00" waitingCount="1" stopTime="0.00" timeLoss="43.07" rerouteNo="1" devices="tripinfo_S5R_frequency1.2 routing_S5R_frequency1.2 emissions_S5R_frequency1.2" vType="bus" speedFactor="1.00" vaporized="">
        <emissions CO_abs="2661.140355" CO2_abs="1628241.420466" HC_abs="546.363594" PMx_abs="283.295272" NOx_abs="12761.223610" fuel_abs="694.395739" electricity_abs="0"/>
    </tripinfo>
    <tripinfo id="h5979c1:5" depart="57669.00" departLane="399835085#1_1" departPos="5.10" departSpeed="0.00" departDelay="0.00" arrival="57757.00" arrivalLane="-315358254#1_1" arrivalPos="137.16" arrivalSpeed="12.10" duration="88.00" routeLength="659.33" waitingTime="0.00" waitingCount="0" stopTime="0.00" timeLoss="10.46" rerouteNo="1" devices="tripinfo_h5979c1:5 routing_h5979c1:5 emissions_h5979c1:5" vType="default_016" speedFactor="0.94" vaporized="">
        <emissions CO_abs="3508.586586" CO2_abs="163979.433437" HC_abs="19.723006" PMx_abs="2.555449" NOx_abs="65.726323" fuel_abs="70.489018" electricity_abs="0"/>
    </tripinfo>
    <tripinfo id="h9563c2:5" depart="57631.00" departLane="315358244_1" departPos="5.10" departSpeed="0.00" departDelay="0.70" arrival="57766.00" arrivalLane="386687235_1" arrivalPos="80.84" arrivalSpeed="14.00" duration="135.00" routeLength="1186.14" waitingTime="31.00" waitingCount="3" stopTime="0.00" timeLoss="55.51" rerouteNo="1" devices="tripinfo_h9563c2:5 routing_h9563c2:5 emissions_h9563c2:5" vType="default_016" speedFactor="1.09" vaporized="">
        <emissions CO_abs="6758.834980" CO2_abs="341279.389618" HC_abs="38.674880" PMx_abs="6.175263" NOx_abs="139.379467" fuel_abs="146.702572" electricity_abs="0"/>
    </tripinfo>
    <tripinfo id="h3326c1:2" depart="57656.00" departLane="22716069#0_1" departPos="5.10" departSpeed="0.00" departDelay="0.00" arrival="57769.00" arrivalLane="24634517#13_1" arrivalPos="111.62" arrivalSpeed="12.44" duration="113.00" routeLength="1312.81" waitingTime="0.00" waitingCount="0" stopTime="0.00" timeLoss="14.70" rerouteNo="1" devices="tripinfo_h3326c1:2 routing_h3326c1:2 emissions_h3326c1:2" vType="default_016" speedFactor="0.99" vaporized="">
        <emissions CO_abs="4166.439011" CO2_abs="326476.023499" HC_abs="26.587330" PMx_abs="5.319797" NOx_abs="129.598779" fuel_abs="140.338131" electricity_abs="0"/>
    </tripinfo>
    <tripinfo id="h3568c1:3" depart="57656.00" departLane="266565295#5_1" departPos="5.10" departSpeed="0.00" departDelay="0.80" arrival="57772.00" arrivalLane="-24634415_1" arrivalPos="62.03" arrivalSpeed="10.94" duration="116.00" routeLength="807.40" waitingTime="17.00" waitingCount="2" stopTime="0.00" timeLoss="39.51" rerouteNo="1" devices="tripinfo_h3568c1:3 routing_h3568c1:3 emissions_h3568c1:3" vType="default_016" speedFactor="0.85" vaporized="">
        <emissions CO_abs="5817.240589" CO2_abs="270181.950156" HC_abs="32.800590" PMx_abs="4.890190" NOx_abs="112.120215" fuel_abs="116.140813" electricity_abs="0"/>
    </tripinfo>
    <tripinfo id="carIn30817:1" depart="57681.00" departLane="315358244_1" departPos="5.10" departSpeed="0.00" departDelay="0.20" arrival="57773.00" arrivalLane="447569997#1_1" arrivalPos="180.93" arrivalSpeed="8.42" duration="92.00" routeLength="718.04" waitingTime="19.00" waitingCount="1" stopTime="0.00" timeLoss="31.93" rerouteNo="1" devices="tripinfo_carIn30817:1 routing_carIn30817:1 emissions_carIn30817:1" vType="default_016" speedFactor="1.02" vaporized="">
        <emissions CO_abs="4992.875260" CO2_abs="213999.525937" HC_abs="27.717779" PMx_abs="3.832727" NOx_abs="87.782445" fuel_abs="91.990623" electricity_abs="0"/>
    </tripinfo>
    <tripinfo id="carIn27009:1" depart="57673.00" departLane="-447569998#1_1" departPos="5.10" departSpeed="0.00" departDelay="0.50" arrival="57774.00" arrivalLane="-26677539_1" arrivalPos="152.75" arrivalSpeed="8.47" duration="101.00" routeLength="699.63" waitingTime="2.00" waitingCount="1" stopTime="0.00" timeLoss="18.71" rerouteNo="1" devices="tripinfo_carIn27009:1 routing_carIn27009:1 emissions_carIn27009:1" vType="default_015" speedFactor="1.02" vaporized="">
        <emissions CO_abs="4596.182754" CO2_abs="211910.776826" HC_abs="25.805475" PMx_abs="3.507662" NOx_abs="86.446746" fuel_abs="91.092745" electricity_abs="0"/>
    </tripinfo>
    <tripinfo id="h330c1:1" depart="57736.00" departLane="-32978638#0_1" departPos="5.10" departSpeed="0.00" departDelay="0.20" arrival="57775.00" arrivalLane="-266565295#5_1" arrivalPos="172.76" arrivalSpeed="13.52" duration="39.00" routeLength="370.53" waitingTime="2.00" waitingCount="1" stopTime="0.00" timeLoss="11.29" rerouteNo="1" devices="tripinfo_h330c1:1 routing_h330c1:1 emissions_h330c1:1" vType="default_016" speedFactor="1.00" vaporized="">
        <emissions CO_abs="2006.659852" CO2_abs="120596.789141" HC_abs="11.942871" PMx_abs="2.170901" NOx_abs="49.542562" fuel_abs="51.839466" electricity_abs="0"/>
    </tripinfo>
    <tripinfo id="carIn28951:1" depart="57606.00" departLane="10425609#0_1" departPos="5.10" departSpeed="0.00" departDelay="0.20" arrival="57783.00" arrivalLane="-128361102#1_1" arrivalPos="274.68" arrivalSpeed="15.15" duration="177.00" routeLength="2113.04" waitingTime="12.00" waitingCount="1" stopTime="0.00" timeLoss="36.62" rerouteNo="1" devices="tripinfo_carIn28951:1 routing_carIn28951:1 emissions_carIn28951:1" vType="default_016" speedFactor="1.11" vaporized="">
        <emissions CO_abs="6709.106342" CO2_abs="479400.735561" HC_abs="41.680295" PMx_abs="8.265500" NOx_abs="191.776587" fuel_abs="206.073886" electricity_abs="0"/>
    </tripinfo>
    <tripinfo id="h3154c1:1" depart="57658.00" departLane="24634507_1" departPos="5.10" departSpeed="0.00" departDelay="0.00" arrival="57786.00" arrivalLane="-266565295#5_1" arrivalPos="172.76" arrivalSpeed="13.39" duration="128.00" routeLength="1206.22" waitingTime="18.00" waitingCount="1" stopTime="0.00" timeLoss="40.95" rerouteNo="1" devices="tripinfo_h3154c1:1 routing_h3154c1:1 emissions_h3154c1:1" vType="default_016" speedFactor="1.02" vaporized="">
        <emissions CO_abs="6981.980887" CO2_abs="347333.328426" HC_abs="39.936646" PMx_abs="6.414399" NOx_abs="143.448108" fuel_abs="149.304751" electricity_abs="0"/>
    </tripinfo>
    <tripinfo id="carIn12365:1" depart="57713.00" departLane="315358244_1" departPos="5.10" departSpeed="0.00" departDelay="0.50" arrival="57789.00" arrivalLane="447569997#1_1" arrivalPos="180.93" arrivalSpeed="9.46" duration="76.00" routeLength="718.04" waitingTime="7.00" waitingCount="1" stopTime="0.00" timeLoss="23.98" rerouteNo="1" devices="tripinfo_carIn12365:1 routing_carIn12365:1 emissions_carIn12365:1" vType="default_016" speedFactor="1.18" vaporized="">
        <emissions CO_abs="3740.710473" CO2_abs="209179.634282" HC_abs="21.859596" PMx_abs="3.768627" NOx_abs="85.600232" fuel_abs="89.917737" electricity_abs="0"/>
    </tripinfo>
    <tripinfo id="carIn107282:1" depart="57749.00" departLane="-447569998#1_1" departPos="5.10" departSpeed="0.00" departDelay="0.00" arrival="57795.00" arrivalLane="315358242#0_1" arrivalPos="165.37" arrivalSpeed="14.08" duration="46.00" routeLength="448.50" waitingTime="0.00" waitingCount="0" stopTime="0.00" timeLoss="5.45" rerouteNo="1" devices="tripinfo_carIn107282:1 routing_carIn107282:1 emissions_carIn107282:1" vType="default_016" speedFactor="1.03" vaporized="">
        <emissions CO_abs="1667.898482" CO2_abs="105873.207922" HC_abs="10.045534" PMx_abs="1.666811" NOx_abs="41.870383" fuel_abs="45.510719" electricity_abs="0"/>
    </tripinfo>
    <tripinfo id="carIn118591:1" depart="57689.00" departLane="315358244_1" departPos="5.10" departSpeed="0.00" departDelay="0.20" arrival="57800.00" arrivalLane="386687235_1" arrivalPos="80.84" arrivalSpeed="13.81" duration="111.00" routeLength="1186.14" waitingTime="13.00" waitingCount="1" stopTime="0.00" timeLoss="30.10" rerouteNo="1" devices="tripinfo_carIn118591:1 routing_carIn118591:1 emissions_carIn118591:1" vType="default_016" speedFactor="1.07" vaporized="">
        <emissions CO_abs="4881.381787" CO2_abs="279039.101240" HC_abs="28.787672" PMx_abs="4.974335" NOx_abs="113.366813" fuel_abs="119.947514" electricity_abs="0"/>
    </tripinfo>
    <tripinfo id="carIn22761:1" depart="57616.00" departLane="-306240162#1_0" departPos="5.10" departSpeed="0.00" departDelay="2.10" arrival="57801.00" arrivalLane="399835085#1_1" arrivalPos="212.23" arrivalSpeed="8.10" duration="185.00" routeLength="1093.26" waitingTime="82.00" waitingCount="3" stopTime="0.00" timeLoss="113.51" rerouteNo="1" devices="tripinfo_carIn22761:1 routing_carIn22761:1 emissions_carIn22761:1" vType="default_016" speedFactor="1.09" vaporized="">
        <emissions CO_abs="17390.324944" CO2_abs="550904.859913" HC_abs="92.219369" PMx_abs="11.676813" NOx_abs="236.937002" fuel_abs="236.815178" electricity_abs="0"/>
    </tripinfo>
    <tripinfo id="carIn121703:1" depart="57647.00" departLane="386687232#0_1" departPos="5.10" departSpeed="0.00" departDelay="0.30" arrival="57803.00" arrivalLane="-315358244_1" arrivalPos="33.95" arrivalSpeed="14.00" duration="156.00" routeLength="1157.39" waitingTime="61.00" waitingCount="2" stopTime="0.00" timeLoss="78.14" rerouteNo="1" devices="tripinfo_carIn121703:1 routing_carIn121703:1 emissions_carIn121703:1" vType="default_016" speedFactor="1.09" vaporized="">
        <emissions CO_abs="11829.223975" CO2_abs="399230.286963" HC_abs="63.164744" PMx_abs="7.817365" NOx_abs="167.035187" fuel_abs="171.615827" electricity_abs="0"/>
    </tripinfo>
    <tripinfo id="h645c1:1" depart="57622.00" departLane="266565295#5_1" departPos="5.10" departSpeed="0.00" departDelay="0.40" arrival="57806.00" arrivalLane="-315358244_2" arrivalPos="33.95" arrivalSpeed="13.25" duration="184.00" routeLength="1910.83" waitingTime="23.00" waitingCount="2" stopTime="0.00" timeLoss="45.55" rerouteNo="1" devices="tripinfo_h645c1:1 routing_h645c1:1 emissions_h645c1:1" vType="default_016" speedFactor="1.01" vaporized="">
        <emissions CO_abs="6963.872812" CO2_abs="434617.294484" HC_abs="41.845369" PMx_abs="7.186743" NOx_abs="172.580193" fuel_abs="186.824575" electricity_abs="0"/>
    </tripinfo>
    <tripinfo id="h11737c1:1" depart="57665.00" departLane="272042143_1" departPos="5.10" departSpeed="0.00" departDelay="1.50" arrival="57807.00" arrivalLane="-315358254#1_1" arrivalPos="137.16" arrivalSpeed="11.98" duration="142.00" routeLength="1596.88" waitingTime="0.00" waitingCount="0" stopTime="0.00" timeLoss="18.11" rerouteNo="1" devices="tripinfo_h11737c1:1 routing_h11737c1:1 emissions_h11737c1:1" vType="default_016" speedFactor="0.94" vaporized="">
        <emissions CO_abs="4317.025829" CO2_abs="326991.491219" HC_abs="27.278885" PMx_abs="5.255518" NOx_abs="129.627089" fuel_abs="140.559915" electricity_abs="0"/>
    </tripinfo>
    <tripinfo id="carIn126288:1" depart="57674.00" departLane="272042143_1" departPos="5.10" departSpeed="0.00" departDelay="0.00" arrival="57808.00" arrivalLane="-315358254#1_1" arrivalPos="137.16" arrivalSpeed="14.82" duration="134.00" routeLength="1596.88" waitingTime="0.00" waitingCount="0" stopTime="0.00" timeLoss="30.20" rerouteNo="1" devices="tripinfo_carIn126288:1 routing_carIn126288:1 emissions_carIn126288:1" vType="default_016" speedFactor="1.12" vaporized="">
        <emissions CO_abs="5085.094608" CO2_abs="383080.990567" HC_abs="32.177906" PMx_abs="6.635360" NOx_abs="154.763061" fuel_abs="164.669749" electricity_abs="0"/>
    </tripinfo>
    <tripinfo id="carIn12152:1" depart="57647.00" departLane="24599188#0.94_1" departPos="5.10" departSpeed="0.00" departDelay="0.50" arrival="57818.00" arrivalLane="-315358254#1_1" arrivalPos="137.16" arrivalSpeed="13.93" duration="171.00" routeLength="2034.31" waitingTime="2.00" waitingCount="1" stopTime="0.00" timeLoss="23.06" rerouteNo="1" devices="tripinfo_carIn12152:1 routing_carIn12152:1 emissions_carIn12152:1" vType="default_016" speedFactor="1.07" vaporized="">
        <emissions CO_abs="5179.780832" CO2_abs="418514.869042" HC_abs="33.215201" PMx_abs="6.833550" NOx_abs="165.335129" fuel_abs="179.901613" electricity_abs="0"/>
    </tripinfo>
    <tripinfo id="carIn129809:1" depart="57729.00" departLane="-447569998#1_1" departPos="5.10" departSpeed="0.00" departDelay="1.00" arrival="57818.00" arrivalLane="-315358244_1" arrivalPos="33.95" arrivalSpeed="12.74" duration="89.00" routeLength="706.49" waitingTime="16.00" waitingCount="1" stopTime="0.00" timeLoss="28.38" rerouteNo="1" devices="tripinfo_carIn129809:1 routing_carIn129809:1 emissions_carIn129809:1" vType="default_015" speedFactor="1.00" vaporized="">
        <emissions CO_abs="4450.725251" CO2_abs="194664.373918" HC_abs="24.805656" PMx_abs="3.462936" NOx_abs="79.645444" fuel_abs="83.679108" electricity_abs="0"/>
    </tripinfo>
    <tripinfo id="h17549c1:1" depart="57680.00" departLane="-447569998#1_1" departPos="5.10" departSpeed="0.00" departDelay="0.00" arrival="57822.00" arrivalLane="-315358254#1_1" arrivalPos="137.16" arrivalSpeed="14.68" duration="142.00" routeLength="1743.98" waitingTime="0.00" waitingCount="0" stopTime="0.00" timeLoss="15.50" rerouteNo="1" devices="tripinfo_h17549c1:1 routing_h17549c1:1 emissions_h17549c1:1" vType="default_016" speedFactor="1.08" vaporized="">
        <emissions CO_abs="4426.401566" CO2_abs="362010.107515" HC_abs="28.548920" PMx_abs="5.896378" NOx_abs="142.846591" fuel_abs="155.612632" electricity_abs="0"/>
    </tripinfo>
    <tripinfo id="carIn48184:1" depart="57613.00" departLane="-306240162#1_0" departPos="5.10" departSpeed="0.00" departDelay="0.70" arrival="57824.00" arrivalLane="386687235_1" arrivalPos="80.84" arrivalSpeed="13.16" duration="211.00" routeLength="2257.41" waitingTime="25.00" waitingCount="3" stopTime="0.00" timeLoss="61.42" rerouteNo="1" devices="tripinfo_carIn48184:1 routing_carIn48184:1 emissions_carIn48184:1" vType="default_016" speedFactor="0.99" vaporized="">
        <emissions CO_abs="9172.677204" CO2_abs="577947.643058" HC_abs="55.352361" PMx_abs="10.556093" NOx_abs="235.941794" fuel_abs="248.434936" electricity_abs="0"/>
    </tripinfo>
    <tripinfo id="h16072c2:3" depart="57663.00" departLane="315358254#0_1" departPos="5.10" departSpeed="0.00" departDelay="2.50" arrival="57824.00" arrivalLane="386687235_2" arrivalPos="80.84" arrivalSpeed="13.93" duration="161.00" routeLength="1611.92" waitingTime="22.00" waitingCount="2" stopTime="0.00" timeLoss="49.76" rerouteNo="1" devices="tripinfo_h16072c2:3 routing_h16072c2:3 emissions_h16072c2:3" vType="default_016" speedFactor="1.07" vaporized="">
        <emissions CO_abs="7615.444497" CO2_abs="416108.332094" HC_abs="44.456633" PMx_abs="7.554527" NOx_abs="170.360566" fuel_abs="178.868011" electricity_abs="0"/>
    </tripinfo>
    <tripinfo id="carIn86816:1" depart="57617.00" departLane="128361102#0_1" departPos="5.10" departSpeed="0.00" departDelay="0.80" arrival="57831.00" arrivalLane="201956811#0_1" arrivalPos="40.40" arrivalSpeed="13.79" duration="214.00" routeLength="2067.33" waitingTime="41.00" waitingCount="1" stopTime="0.00" timeLoss="62.24" rerouteNo="1" devices="tripinfo_carIn86816:1 routing_carIn86816:1 emissions_carIn86816:1" vType="default_016" speedFactor="1.00" vaporized="">
        <emissions CO_abs="11127.364170" CO2_abs="500259.644833" HC_abs="62.380096" PMx_abs="9.047912" NOx_abs="204.585224" fuel_abs="215.042975" electricity_abs="0"/>
    </tripinfo>
    <tripinfo id="randUni15030:1" depart="57735.00" departLane="386687232#0_1" departPos="5.10" departSpeed="0.00" departDelay="0.10" arrival="57831.00" arrivalLane="26677539_1" arrivalPos="151.98" arrivalSpeed="7.66" duration="96.00" routeLength="919.89" waitingTime="0.00" waitingCount="0" stopTime="0.00" timeLoss="11.53" rerouteNo="1" devices="tripinfo_randUni15030:1 routing_randUni15030:1 emissions_randUni15030:1" vType="random_016" speedFactor="0.99" vaporized="">
        <emissions CO_abs="3331.751170" CO2_abs="211133.407377" HC_abs="20.030548" PMx_abs="3.345771" NOx_abs="83.857758" fuel_abs="90.757873" electricity_abs="0"/>
    </tripinfo>
    <tripinfo id="carIn80064:1" depart="57603.00" departLane="128361109#1_1" departPos="5.10" departSpeed="0.00" departDelay="0.40" arrival="57839.00" arrivalLane="-315358254#1_1" arrivalPos="137.16" arrivalSpeed="14.35" duration="236.00" routeLength="1587.97" waitingTime="100.00" waitingCount="4" stopTime="0.00" timeLoss="149.40" rerouteNo="1" devices="tripinfo_carIn80064:1 routing_carIn80064:1 emissions_carIn80064:1" vType="default_016" speedFactor="1.04" vaporized="">
        <emissions CO_abs="21286.875448" CO2_abs="711706.145819" HC_abs="113.844412" PMx_abs="15.081486" NOx_abs="304.596034" fuel_abs="305.937312" electricity_abs="0"/>
    </tripinfo>
    <tripinfo id="h5216c1:1" depart="57664.00" departLane="224892339#0_1" departPos="5.10" departSpeed="0.00" departDelay="0.00" arrival="57844.00" arrivalLane="386687235_1" arrivalPos="80.84" arrivalSpeed="13.07" duration="180.00" routeLength="1823.78" waitingTime="24.00" waitingCount="2" stopTime="0.00" timeLoss="52.58" rerouteNo="1" devices="tripinfo_h5216c1:1 routing_h5216c1:1 emissions_h5216c1:1" vType="default_016" speedFactor="1.01" vaporized="">
        <emissions CO_abs="8721.620402" CO2_abs="481718.507615" HC_abs="51.020466" PMx_abs="8.681616" NOx_abs="196.663866" fuel_abs="207.071182" electricity_abs="0"/>
    </tripinfo>
    <tripinfo id="carIn81860:1" depart="57712.00" departLane="128361102#0_1" departPos="5.10" departSpeed="0.00" departDelay="0.60" arrival="57844.00" arrivalLane="-24634517#17_1" arrivalPos="6.43" arrivalSpeed="7.02" duration="132.00" routeLength="1229.64" waitingTime="4.00" waitingCount="2" stopTime="0.00" timeLoss="24.80" rerouteNo="1" devices="tripinfo_carIn81860:1 routing_carIn81860:1 emissions_carIn81860:1" vType="default_016" speedFactor="0.84" vaporized="">
        <emissions CO_abs="4386.832161" CO2_abs="275136.908907" HC_abs="26.340980" PMx_abs="4.367102" NOx_abs="109.607997" fuel_abs="118.270444" electricity_abs="0"/>
    </tripinfo>
    <tripinfo id="carIn102915:1" depart="57643.00" departLane="128361102#0_1" departPos="5.10" departSpeed="0.00" departDelay="0.40" arrival="57845.00" arrivalLane="201956811#0_1" arrivalPos="40.40" arrivalSpeed="12.56" duration="202.00" routeLength="2067.33" waitingTime="17.00" waitingCount="2" stopTime="0.00" timeLoss="42.21" rerouteNo="1" devices="tripinfo_carIn102915:1 routing_carIn102915:1 emissions_carIn102915:1" vType="default_016" speedFactor="0.94" vaporized="">
        <emissions CO_abs="7456.005073" CO2_abs="479407.874750" HC_abs="45.119616" PMx_abs="7.847420" NOx_abs="190.835172" fuel_abs="206.078081" electricity_abs="0"/>
    </tripinfo>
    <tripinfo id="h20540c1:1" depart="57634.00" departLane="10425609#0_1" departPos="5.10" departSpeed="0.00" departDelay="0.50" arrival="57848.00" arrivalLane="-128361102#1_1" arrivalPos="274.68" arrivalSpeed="12.46" duration="214.00" routeLength="2113.04" waitingTime="16.00" waitingCount="2" stopTime="0.00" timeLoss="49.63" rerouteNo="1" devices="tripinfo_h20540c1:1 routing_h20540c1:1 emissions_h20540c1:1" vType="default_016" speedFactor="0.95" vaporized="">
        <emissions CO_abs="8322.689868" CO2_abs="511373.456890" HC_abs="49.843925" PMx_abs="8.657003" NOx_abs="206.123074" fuel_abs="219.818598" electricity_abs="0"/>
    </tripinfo>
    <tripinfo id="h19804c1:3" depart="57617.00" departLane="124812856#0_1" departPos="5.10" departSpeed="0.00" departDelay="1.50" arrival="57849.00" arrivalLane="-128361102#1_1" arrivalPos="274.68" arrivalSpeed="14.00" duration="232.00" routeLength="2250.49" waitingTime="25.00" waitingCount="4" stopTime="0.00" timeLoss="75.11" rerouteNo="1" devices="tripinfo_h19804c1:3 routing_h19804c1:3 emissions_h19804c1:3" vType="default_016" speedFactor="1.05" vaporized="">
        <emissions CO_abs="10454.734967" CO2_abs="624566.666683" HC_abs="62.299004" PMx_abs="11.263162" NOx_abs="256.286740" fuel_abs="268.474925" electricity_abs="0"/>
    </tripinfo>
    <tripinfo id="h17600c1:1" depart="57662.00" departLane="272042143_1" departPos="5.10" departSpeed="0.00" departDelay="0.30" arrival="57849.00" arrivalLane="201238729#3_1" arrivalPos="431.02" arrivalSpeed="12.01" duration="187.00" routeLength="2100.26" waitingTime="0.00" waitingCount="0" stopTime="0.00" timeLoss="15.18" rerouteNo="1" devices="tripinfo_h17600c1:1 routing_h17600c1:1 emissions_h17600c1:1" vType="default_016" speedFactor="0.88" vaporized="">
        <emissions CO_abs="4413.642538" CO2_abs="380603.958743" HC_abs="28.861181" PMx_abs="5.440875" NOx_abs="146.207485" fuel_abs="163.606207" electricity_abs="0"/>
    </tripinfo>
    <tripinfo id="carIn50326:1" depart="57651.00" departLane="128361102#0_1" departPos="5.10" departSpeed="0.00" departDelay="0.30" arrival="57850.00" arrivalLane="18809673#0_1" arrivalPos="473.56" arrivalSpeed="14.06" duration="199.00" routeLength="1591.07" waitingTime="41.00" waitingCount="3" stopTime="0.00" timeLoss="78.42" rerouteNo="1" devices="tripinfo_carIn50326:1 routing_carIn50326:1 emissions_carIn50326:1" vType="default_016" speedFactor="1.07" vaporized="">
        <emissions CO_abs="9797.420034" CO2_abs="446934.570782" HC_abs="55.003447" PMx_abs="7.903563" NOx_abs="182.145715" fuel_abs="192.120604" electricity_abs="0"/>
    </tripinfo>
    <tripinfo id="randUni31145:1" depart="57814.00" departLane="10425609#0_1" departPos="5.10" departSpeed="0.00" departDelay="0.30" arrival="57866.00" arrivalLane="201956810_1" arrivalPos="71.65" arrivalSpeed="11.56" duration="52.00" routeLength="255.78" waitingTime="19.00" waitingCount="1" stopTime="0.00" timeLoss="30.64" rerouteNo="1" devices="tripinfo_randUni31145:1 routing_randUni31145:1 emissions_randUni31145:1" vType="random_016" speedFactor="0.91" vaporized="">
        <emissions CO_abs="4785.029688" CO2_abs="147044.284049" HC_abs="25.247903" PMx_abs="3.046212" NOx_abs="63.544305" fuel_abs="63.209467" electricity_abs="0"/>
    </tripinfo>
    <tripinfo id="carIn12775:1" depart="57676.00" departLane="10425609#0_1" departPos="5.10" departSpeed="0.00" departDelay="0.60" arrival="57867.00" arrivalLane="18809673#0_1" arrivalPos="473.56" arrivalSpeed="13.13" duration="191.00" routeLength="1959.45" waitingTime="16.00" waitingCount="2" stopTime="0.00" timeLoss="44.52" rerouteNo="1" devices="tripinfo_carIn12775:1 routing_carIn12775:1 emissions_carIn12775:1" vType="default_016" speedFactor="1.00" vaporized="">
        <emissions CO_abs="6064.940098" CO2_abs="412557.920049" HC_abs="37.222236" PMx_abs="6.697977" NOx_abs="163.603749" fuel_abs="177.341795" electricity_abs="0"/>
    </tripinfo>