<?xml version="1.0" encoding="UTF-8"?>

<!-- generated on Thu Nov  4 13:48:51 2021 by Eclipse SUMO sumo Version 1.9.0
<configuration xmlns:xsi="http://www.w3.org/2001/XMLSchema-instance" xsi:noNamespaceSchemaLocation="http://sumo.dlr.de/xsd/sumoConfiguration.xsd">

    <input>
        <net-file value="/mainfs/home/bk2g18/RESCO/environments/ingolstadt21/ingolstadt21.net.xml"/>
        <route-files value="/mainfs/home/bk2g18/RESCO/environments/ingolstadt21/ingolstadt21.rou.xml"/>
    </input>

    <output>
        <tripinfo-output value="/mainfs/home/bk2g18/RESCO/logs/MPLight-tr0-ingolstadt21-21-mplight-pressure/tripinfo_65.xml"/>
        <tripinfo-output.write-unfinished value="true"/>
    </output>

    <time>
        <begin value="57600"/>
        <end value="61200"/>
    </time>

    <processing>
        <time-to-teleport value="-1"/>
    </processing>

    <report>
        <xml-validation value="never"/>
        <xml-validation.routes value="never"/>
        <no-warnings value="true"/>
        <no-step-log value="true"/>
    </report>

    <emissions>
        <device.emissions.probability value="1"/>
    </emissions>

    <traci_server>
        <remote-port value="44896"/>
    </traci_server>

    <random_number>
        <random value="true"/>
    </random_number>

</configuration>
-->

<tripinfos xmlns:xsi="http://www.w3.org/2001/XMLSchema-instance" xsi:noNamespaceSchemaLocation="http://sumo.dlr.de/xsd/tripinfo_file.xsd">
    <tripinfo id="h15454c2:3" depart="57612.00" departLane="24608844_1" departPos="5.10" departSpeed="0.00" departDelay="0.50" arrival="57655.00" arrivalLane="32978638#0_1" arrivalPos="49.29" arrivalSpeed="12.55" duration="43.00" routeLength="354.79" waitingTime="0.00" waitingCount="0" stopTime="0.00" timeLoss="7.34" rerouteNo="1" devices="tripinfo_h15454c2:3 routing_h15454c2:3 emissions_h15454c2:3" vType="default_016" speedFactor="0.96" vaporized="">
        <emissions CO_abs="2042.004381" CO2_abs="103964.198511" HC_abs="11.728439" PMx_abs="1.864705" NOx_abs="43.118490" fuel_abs="44.690053" electricity_abs="0"/>
    </tripinfo>
    <tripinfo id="carIn60260:1" depart="57606.00" departLane="315358254#0_1" departPos="5.10" departSpeed="0.00" departDelay="0.90" arrival="57679.00" arrivalLane="399835085#1_1" arrivalPos="212.23" arrivalSpeed="6.81" duration="73.00" routeLength="430.98" waitingTime="9.00" waitingCount="1" stopTime="0.00" timeLoss="20.80" rerouteNo="1" devices="tripinfo_carIn60260:1 routing_carIn60260:1 emissions_carIn60260:1" vType="default_016" speedFactor="0.88" vaporized="">
        <emissions CO_abs="3212.189882" CO2_abs="122692.322354" HC_abs="17.461290" PMx_abs="2.178939" NOx_abs="51.052418" fuel_abs="52.741213" electricity_abs="0"/>
    </tripinfo>
    <tripinfo id="carIn53971:1" depart="57640.00" departLane="272042143_1" departPos="5.10" departSpeed="0.00" departDelay="0.80" arrival="57693.00" arrivalLane="24634414#1_1" arrivalPos="162.19" arrivalSpeed="8.32" duration="53.00" routeLength="493.04" waitingTime="0.00" waitingCount="0" stopTime="0.00" timeLoss="9.35" rerouteNo="1" devices="tripinfo_carIn53971:1 routing_carIn53971:1 emissions_carIn53971:1" vType="default_016" speedFactor="1.05" vaporized="">
        <emissions CO_abs="2452.134496" CO2_abs="134125.654364" HC_abs="14.315689" PMx_abs="2.457096" NOx_abs="55.736353" fuel_abs="57.655046" electricity_abs="0"/>
    </tripinfo>
    <tripinfo id="carIn22761:1" depart="57616.00" departLane="-306240162#1_0" departPos="5.10" departSpeed="0.00" departDelay="2.10" arrival="57723.00" arrivalLane="399835085#1_1" arrivalPos="212.23" arrivalSpeed="7.52" duration="107.00" routeLength="1093.26" waitingTime="11.00" waitingCount="1" stopTime="0.00" timeLoss="31.72" rerouteNo="1" devices="tripinfo_carIn22761:1 routing_carIn22761:1 emissions_carIn22761:1" vType="default_016" speedFactor="1.04" vaporized="">
        <emissions CO_abs="5346.736976" CO2_abs="290649.265355" HC_abs="31.244171" PMx_abs="5.515752" NOx_abs="119.766220" fuel_abs="124.938013" electricity_abs="0"/>
    </tripinfo>
    <tripinfo id="h7800c1:5" depart="57696.00" departLane="-447569998#1_1" departPos="5.10" departSpeed="0.00" departDelay="0.00" arrival="57725.00" arrivalLane="-447569998#1_2" arrivalPos="180.76" arrivalSpeed="3.68" duration="29.00" routeLength="175.66" waitingTime="3.00" waitingCount="1" stopTime="0.00" timeLoss="9.16" rerouteNo="1" devices="tripinfo_h7800c1:5 routing_h7800c1:5 emissions_h7800c1:5" vType="default_016" speedFactor="1.08" vaporized="">
        <emissions CO_abs="1401.156818" CO2_abs="58991.516356" HC_abs="7.742163" PMx_abs="1.018360" NOx_abs="24.332605" fuel_abs="25.358350" electricity_abs="0"/>
    </tripinfo>
    <tripinfo id="h3568c1:3" depart="57656.00" departLane="266565295#5_1" departPos="5.10" departSpeed="0.00" departDelay="0.80" arrival="57727.00" arrivalLane="-24634415_1" arrivalPos="62.03" arrivalSpeed="14.94" duration="71.00" routeLength="807.40" waitingTime="0.00" waitingCount="0" stopTime="0.00" timeLoss="13.84" rerouteNo="1" devices="tripinfo_h3568c1:3 routing_h3568c1:3 emissions_h3568c1:3" vType="default_016" speedFactor="1.13" vaporized="">
        <emissions CO_abs="3501.014493" CO2_abs="234835.482742" HC_abs="21.462415" PMx_abs="4.193801" NOx_abs="95.700219" fuel_abs="100.945624" electricity_abs="0"/>
    </tripinfo>
    <tripinfo id="carIn80064:1" depart="57603.00" departLane="128361109#1_1" departPos="5.10" departSpeed="0.00" departDelay="0.40" arrival="57733.00" arrivalLane="-315358254#1_1" arrivalPos="137.16" arrivalSpeed="13.12" duration="130.00" routeLength="1587.97" waitingTime="3.00" waitingCount="1" stopTime="0.00" timeLoss="35.66" rerouteNo="1" devices="tripinfo_carIn80064:1 routing_carIn80064:1 emissions_carIn80064:1" vType="default_016" speedFactor="0.95" vaporized="">
        <emissions CO_abs="6953.379166" CO2_abs="470502.515119" HC_abs="42.866608" PMx_abs="8.927426" NOx_abs="193.561729" fuel_abs="202.248008" electricity_abs="0"/>
    </tripinfo>
    <tripinfo id="h12244c1:3" depart="57612.00" departLane="315358244_1" departPos="5.10" departSpeed="0.00" departDelay="0.40" arrival="57737.00" arrivalLane="386687235_1" arrivalPos="80.84" arrivalSpeed="13.86" duration="125.00" routeLength="1186.14" waitingTime="18.00" waitingCount="2" stopTime="0.00" timeLoss="40.34" rerouteNo="1" devices="tripinfo_h12244c1:3 routing_h12244c1:3 emissions_h12244c1:3" vType="default_016" speedFactor="1.02" vaporized="">
        <emissions CO_abs="5523.671504" CO2_abs="298509.689419" HC_abs="32.142412" PMx_abs="5.328417" NOx_abs="121.734036" fuel_abs="128.317327" electricity_abs="0"/>
    </tripinfo>
    <tripinfo id="h3688c1:1" depart="57625.00" departLane="201201950#1_1" departPos="5.10" departSpeed="0.00" departDelay="0.00" arrival="57743.00" arrivalLane="32978638#0_1" arrivalPos="49.29" arrivalSpeed="11.90" duration="118.00" routeLength="1089.75" waitingTime="12.00" waitingCount="1" stopTime="0.00" timeLoss="27.48" rerouteNo="1" devices="tripinfo_h3688c1:1 routing_h3688c1:1 emissions_h3688c1:1" vType="default_016" speedFactor="0.88" vaporized="">
        <emissions CO_abs="4843.388650" CO2_abs="262325.224580" HC_abs="28.165654" PMx_abs="4.471312" NOx_abs="106.290825" fuel_abs="112.763325" electricity_abs="0"/>
    </tripinfo>
    <tripinfo id="carIn30817:1" depart="57681.00" departLane="315358244_1" departPos="5.10" departSpeed="0.00" departDelay="0.20" arrival="57744.00" arrivalLane="447569997#1_1" arrivalPos="180.93" arrivalSpeed="8.48" duration="63.00" routeLength="718.04" waitingTime="0.00" waitingCount="0" stopTime="0.00" timeLoss="7.09" rerouteNo="1" devices="tripinfo_carIn30817:1 routing_carIn30817:1 emissions_carIn30817:1" vType="default_016" speedFactor="1.10" vaporized="">
        <emissions CO_abs="1994.377793" CO2_abs="148582.913905" HC_abs="12.506430" PMx_abs="2.358098" NOx_abs="58.390008" fuel_abs="63.869658" electricity_abs="0"/>
    </tripinfo>
    <tripinfo id="S5R_frequency1.2" depart="57612.00" departLane="315358250#0_1" departPos="12.10" departSpeed="0.00" departDelay="0.40" arrival="57746.00" arrivalLane="386687235_1" arrivalPos="80.84" arrivalSpeed="13.82" duration="134.00" routeLength="1115.62" waitingTime="23.00" waitingCount="2" stopTime="0.00" timeLoss="52.59" rerouteNo="1" devices="tripinfo_S5R_frequency1.2 routing_S5R_frequency1.2 emissions_S5R_frequency1.2" vType="bus" speedFactor="1.00" vaporized="">
        <emissions CO_abs="2458.962098" CO2_abs="1392144.275299" HC_abs="528.222473" PMx_abs="260.301302" NOx_abs="11203.655089" fuel_abs="593.685231" electricity_abs="0"/>
    </tripinfo>
    <tripinfo id="carIn121703:1" depart="57647.00" departLane="386687232#0_1" departPos="5.10" departSpeed="0.00" departDelay="0.30" arrival="57746.00" arrivalLane="-315358244_1" arrivalPos="33.95" arrivalSpeed="13.12" duration="99.00" routeLength="1157.39" waitingTime="0.00" waitingCount="0" stopTime="0.00" timeLoss="9.93" rerouteNo="1" devices="tripinfo_carIn121703:1 routing_carIn121703:1 emissions_carIn121703:1" vType="default_016" speedFactor="0.95" vaporized="">
        <emissions CO_abs="2921.288563" CO2_abs="232137.428737" HC_abs="18.719217" PMx_abs="3.719313" NOx_abs="91.652489" fuel_abs="99.786062" electricity_abs="0"/>
    </tripinfo>
    <tripinfo id="h4538c1:1" depart="57701.00" departLane="-10427692#1_1" departPos="5.10" departSpeed="0.00" departDelay="0.00" arrival="57750.00" arrivalLane="-128361102#1_1" arrivalPos="274.68" arrivalSpeed="11.84" duration="49.00" routeLength="440.74" waitingTime="3.00" waitingCount="1" stopTime="0.00" timeLoss="13.16" rerouteNo="1" devices="tripinfo_h4538c1:1 routing_h4538c1:1 emissions_h4538c1:1" vType="default_016" speedFactor="0.88" vaporized="">
        <emissions CO_abs="1963.990428" CO2_abs="111846.191154" HC_abs="11.549235" PMx_abs="1.902718" NOx_abs="45.414586" fuel_abs="48.078198" electricity_abs="0"/>
    </tripinfo>
    <tripinfo id="h5979c1:5" depart="57669.00" departLane="399835085#1_1" departPos="5.10" departSpeed="0.00" departDelay="0.00" arrival="57752.00" arrivalLane="-315358254#1_1" arrivalPos="137.16" arrivalSpeed="13.67" duration="83.00" routeLength="659.33" waitingTime="0.00" waitingCount="0" stopTime="0.00" timeLoss="10.20" rerouteNo="1" devices="tripinfo_h5979c1:5 routing_h5979c1:5 emissions_h5979c1:5" vType="default_016" speedFactor="1.01" vaporized="">
        <emissions CO_abs="3487.620789" CO2_abs="179405.835568" HC_abs="19.993735" PMx_abs="2.794401" NOx_abs="71.683702" fuel_abs="77.120012" electricity_abs="0"/>
    </tripinfo>
    <tripinfo id="h317c2:1" depart="57707.00" departLane="-32978638#0_1" departPos="5.10" departSpeed="0.00" departDelay="0.10" arrival="57755.00" arrivalLane="-266565295#5_1" arrivalPos="172.76" arrivalSpeed="13.67" duration="48.00" routeLength="370.53" waitingTime="11.00" waitingCount="1" stopTime="0.00" timeLoss="20.72" rerouteNo="1" devices="tripinfo_h317c2:1 routing_h317c2:1 emissions_h317c2:1" vType="default_016" speedFactor="1.02" vaporized="">
        <emissions CO_abs="2848.957908" CO2_abs="130243.412689" HC_abs="16.029875" PMx_abs="2.575767" NOx_abs="55.174480" fuel_abs="55.986355" electricity_abs="0"/>
    </tripinfo>
    <tripinfo id="h7181c1:1" depart="57660.00" departLane="315358254#0_1" departPos="5.10" departSpeed="0.00" departDelay="0.10" arrival="57763.00" arrivalLane="306240162#0_0" arrivalPos="220.43" arrivalSpeed="14.03" duration="103.00" routeLength="932.35" waitingTime="25.00" waitingCount="2" stopTime="0.00" timeLoss="42.96" rerouteNo="1" devices="tripinfo_h7181c1:1 routing_h7181c1:1 emissions_h7181c1:1" vType="default_016" speedFactor="0.86" vaporized="">
        <emissions CO_abs="6997.015248" CO2_abs="298836.579362" HC_abs="38.923642" PMx_abs="5.833431" NOx_abs="124.589607" fuel_abs="128.458390" electricity_abs="0"/>
    </tripinfo>
    <tripinfo id="h3326c1:2" depart="57656.00" departLane="22716069#0_1" departPos="5.10" departSpeed="0.00" departDelay="0.00" arrival="57771.00" arrivalLane="24634517#13_1" arrivalPos="111.62" arrivalSpeed="13.92" duration="115.00" routeLength="1312.81" waitingTime="2.00" waitingCount="1" stopTime="0.00" timeLoss="20.65" rerouteNo="1" devices="tripinfo_h3326c1:2 routing_h3326c1:2 emissions_h3326c1:2" vType="default_016" speedFactor="1.04" vaporized="">
        <emissions CO_abs="4471.535615" CO2_abs="316515.895337" HC_abs="27.748389" PMx_abs="5.531142" NOx_abs="128.091180" fuel_abs="136.056482" electricity_abs="0"/>
    </tripinfo>
    <tripinfo id="carIn107084:1" depart="57601.00" departLane="124812856#0_1" departPos="5.10" departSpeed="0.00" departDelay="0.70" arrival="57772.00" arrivalLane="-128361102#1_1" arrivalPos="274.68" arrivalSpeed="14.74" duration="171.00" routeLength="2250.49" waitingTime="0.00" waitingCount="0" stopTime="0.00" timeLoss="21.44" rerouteNo="1" devices="tripinfo_carIn107084:1 routing_carIn107084:1 emissions_carIn107084:1" vType="default_016" speedFactor="1.10" vaporized="">
        <emissions CO_abs="5282.594974" CO2_abs="456755.855836" HC_abs="34.637315" PMx_abs="7.639808" NOx_abs="180.902455" fuel_abs="196.339258" electricity_abs="0"/>
    </tripinfo>
    <tripinfo id="h645c1:1" depart="57622.00" departLane="266565295#5_1" departPos="5.10" departSpeed="0.00" departDelay="0.40" arrival="57774.00" arrivalLane="-315358244_1" arrivalPos="33.95" arrivalSpeed="14.02" duration="152.00" routeLength="1910.83" waitingTime="5.00" waitingCount="1" stopTime="0.00" timeLoss="22.64" rerouteNo="1" devices="tripinfo_h645c1:1 routing_h645c1:1 emissions_h645c1:1" vType="default_016" speedFactor="1.07" vaporized="">
        <emissions CO_abs="4135.265860" CO2_abs="363720.746840" HC_abs="27.200599" PMx_abs="5.868861" NOx_abs="142.425223" fuel_abs="156.347844" electricity_abs="0"/>
    </tripinfo>
    <tripinfo id="h330c1:1" depart="57736.00" departLane="-32978638#0_1" departPos="5.10" departSpeed="0.00" departDelay="0.20" arrival="57777.00" arrivalLane="-266565295#5_1" arrivalPos="172.76" arrivalSpeed="11.88" duration="41.00" routeLength="370.53" waitingTime="0.00" waitingCount="0" stopTime="0.00" timeLoss="9.63" rerouteNo="1" devices="tripinfo_h330c1:1 routing_h330c1:1 emissions_h330c1:1" vType="default_016" speedFactor="0.87" vaporized="">
        <emissions CO_abs="1881.601649" CO2_abs="103370.423099" HC_abs="10.983594" PMx_abs="1.812401" NOx_abs="42.410208" fuel_abs="44.434770" electricity_abs="0"/>
    </tripinfo>
    <tripinfo id="carIn12365:1" depart="57713.00" departLane="315358244_1" departPos="5.10" departSpeed="0.00" departDelay="0.50" arrival="57781.00" arrivalLane="447569997#1_1" arrivalPos="180.93" arrivalSpeed="8.03" duration="68.00" routeLength="718.04" waitingTime="0.00" waitingCount="0" stopTime="0.00" timeLoss="7.87" rerouteNo="1" devices="tripinfo_carIn12365:1 routing_carIn12365:1 emissions_carIn12365:1" vType="default_016" speedFactor="1.03" vaporized="">
        <emissions CO_abs="2260.300161" CO2_abs="157084.594493" HC_abs="13.899683" PMx_abs="2.381375" NOx_abs="61.326092" fuel_abs="67.524450" electricity_abs="0"/>
    </tripinfo>
    <tripinfo id="carIn27009:1" depart="57673.00" departLane="-447569998#1_1" departPos="5.10" departSpeed="0.00" departDelay="0.50" arrival="57794.00" arrivalLane="-26677539_1" arrivalPos="152.75" arrivalSpeed="7.12" duration="121.00" routeLength="699.63" waitingTime="21.00" waitingCount="1" stopTime="0.00" timeLoss="36.64" rerouteNo="1" devices="tripinfo_carIn27009:1 routing_carIn27009:1 emissions_carIn27009:1" vType="default_015" speedFactor="0.99" vaporized="">
        <emissions CO_abs="6716.143261" CO2_abs="224437.585896" HC_abs="35.768435" PMx_abs="4.107969" NOx_abs="93.952494" fuel_abs="96.478561" electricity_abs="0"/>
    </tripinfo>
    <tripinfo id="carIn107282:1" depart="57749.00" departLane="-447569998#1_1" departPos="5.10" departSpeed="0.00" departDelay="0.00" arrival="57795.00" arrivalLane="315358242#0_1" arrivalPos="165.37" arrivalSpeed="14.00" duration="46.00" routeLength="448.50" waitingTime="0.00" waitingCount="0" stopTime="0.00" timeLoss="5.52" rerouteNo="1" devices="tripinfo_carIn107282:1 routing_carIn107282:1 emissions_carIn107282:1" vType="default_016" speedFactor="1.04" vaporized="">
        <emissions CO_abs="1819.488249" CO2_abs="108060.548317" HC_abs="10.779988" PMx_abs="1.713065" NOx_abs="42.987180" fuel_abs="46.451034" electricity_abs="0"/>
    </tripinfo>
    <tripinfo id="h9563c2:5" depart="57631.00" departLane="315358244_1" departPos="5.10" departSpeed="0.00" departDelay="0.70" arrival="57798.00" arrivalLane="386687235_1" arrivalPos="80.84" arrivalSpeed="12.11" duration="167.00" routeLength="1186.14" waitingTime="48.00" waitingCount="2" stopTime="0.00" timeLoss="74.49" rerouteNo="1" devices="tripinfo_h9563c2:5 routing_h9563c2:5 emissions_h9563c2:5" vType="default_016" speedFactor="0.94" vaporized="">
        <emissions CO_abs="10789.709815" CO2_abs="360703.413528" HC_abs="57.550320" PMx_abs="6.870400" NOx_abs="150.605915" fuel_abs="155.054703" electricity_abs="0"/>
    </tripinfo>
    <tripinfo id="carIn48184:1" depart="57613.00" departLane="-306240162#1_0" departPos="5.10" departSpeed="0.00" departDelay="0.70" arrival="57804.00" arrivalLane="386687235_1" arrivalPos="80.84" arrivalSpeed="11.70" duration="191.00" routeLength="2257.41" waitingTime="2.00" waitingCount="2" stopTime="0.00" timeLoss="29.16" rerouteNo="1" devices="tripinfo_carIn48184:1 routing_carIn48184:1 emissions_carIn48184:1" vType="default_016" speedFactor="0.92" vaporized="">
        <emissions CO_abs="6471.764394" CO2_abs="496384.523228" HC_abs="41.037676" PMx_abs="8.176569" NOx_abs="196.319168" fuel_abs="213.374664" electricity_abs="0"/>
    </tripinfo>
    <tripinfo id="carIn86816:1" depart="57617.00" departLane="128361102#0_1" departPos="5.10" departSpeed="0.00" departDelay="0.80" arrival="57805.00" arrivalLane="201956811#0_1" arrivalPos="40.40" arrivalSpeed="13.62" duration="188.00" routeLength="2067.33" waitingTime="17.00" waitingCount="3" stopTime="0.00" timeLoss="45.53" rerouteNo="1" devices="tripinfo_carIn86816:1 routing_carIn86816:1 emissions_carIn86816:1" vType="default_016" speedFactor="1.06" vaporized="">
        <emissions CO_abs="7497.869544" CO2_abs="489138.172797" HC_abs="45.610320" PMx_abs="8.561908" NOx_abs="197.461339" fuel_abs="210.259879" electricity_abs="0"/>
    </tripinfo>
    <tripinfo id="h16072c2:3" depart="57663.00" departLane="315358254#0_1" departPos="5.10" departSpeed="0.00" departDelay="2.50" arrival="57806.00" arrivalLane="386687235_1" arrivalPos="80.84" arrivalSpeed="13.15" duration="143.00" routeLength="1611.92" waitingTime="3.00" waitingCount="1" stopTime="0.00" timeLoss="21.23" rerouteNo="1" devices="tripinfo_h16072c2:3 routing_h16072c2:3 emissions_h16072c2:3" vType="default_016" speedFactor="0.97" vaporized="">
        <emissions CO_abs="4484.523575" CO2_abs="344265.343720" HC_abs="28.458908" PMx_abs="5.631089" NOx_abs="136.838324" fuel_abs="147.985044" electricity_abs="0"/>
    </tripinfo>
    <tripinfo id="h11737c1:1" depart="57665.00" departLane="272042143_1" departPos="5.10" departSpeed="0.00" departDelay="1.50" arrival="57806.00" arrivalLane="-315358254#1_1" arrivalPos="137.16" arrivalSpeed="14.96" duration="141.00" routeLength="1596.88" waitingTime="14.00" waitingCount="2" stopTime="0.00" timeLoss="38.17" rerouteNo="1" devices="tripinfo_h11737c1:1 routing_h11737c1:1 emissions_h11737c1:1" vType="default_016" speedFactor="1.14" vaporized="">
        <emissions CO_abs="5520.525974" CO2_abs="380200.210756" HC_abs="33.823555" PMx_abs="6.739577" NOx_abs="153.276617" fuel_abs="163.431678" electricity_abs="0"/>
    </tripinfo>
    <tripinfo id="carIn126288:1" depart="57674.00" departLane="272042143_1" departPos="5.10" departSpeed="0.00" departDelay="0.00" arrival="57810.00" arrivalLane="-315358254#1_1" arrivalPos="137.16" arrivalSpeed="12.72" duration="136.00" routeLength="1596.88" waitingTime="0.00" waitingCount="0" stopTime="0.00" timeLoss="14.27" rerouteNo="1" devices="tripinfo_carIn126288:1 routing_carIn126288:1 emissions_carIn126288:1" vType="default_016" speedFactor="0.96" vaporized="">
        <emissions CO_abs="3886.684649" CO2_abs="316360.666243" HC_abs="25.053062" PMx_abs="5.034785" NOx_abs="124.665432" fuel_abs="135.990038" electricity_abs="0"/>
    </tripinfo>
    <tripinfo id="carIn118591:1" depart="57689.00" departLane="315358244_1" departPos="5.10" departSpeed="0.00" departDelay="0.20" arrival="57812.00" arrivalLane="386687235_1" arrivalPos="80.84" arrivalSpeed="16.58" duration="123.00" routeLength="1186.14" waitingTime="25.00" waitingCount="3" stopTime="0.00" timeLoss="51.57" rerouteNo="1" devices="tripinfo_carIn118591:1 routing_carIn118591:1 emissions_carIn118591:1" vType="default_016" speedFactor="1.22" vaporized="">
        <emissions CO_abs="6077.566318" CO2_abs="336721.470153" HC_abs="35.641250" PMx_abs="6.448149" NOx_abs="139.362683" fuel_abs="144.742315" electricity_abs="0"/>
    </tripinfo>
    <tripinfo id="carIn12152:1" depart="57647.00" departLane="24599188#0.94_1" departPos="5.10" departSpeed="0.00" departDelay="0.50" arrival="57813.00" arrivalLane="-315358254#1_1" arrivalPos="137.16" arrivalSpeed="14.24" duration="166.00" routeLength="2034.31" waitingTime="0.00" waitingCount="0" stopTime="0.00" timeLoss="15.87" rerouteNo="1" devices="tripinfo_carIn12152:1 routing_carIn12152:1 emissions_carIn12152:1" vType="default_016" speedFactor="1.06" vaporized="">
        <emissions CO_abs="4484.918901" CO2_abs="393416.803785" HC_abs="29.477490" PMx_abs="6.135044" NOx_abs="153.042742" fuel_abs="169.113203" electricity_abs="0"/>
    </tripinfo>
    <tripinfo id="h3154c1:1" depart="57658.00" departLane="24634507_1" departPos="5.10" departSpeed="0.00" departDelay="0.00" arrival="57816.00" arrivalLane="-266565295#5_1" arrivalPos="172.76" arrivalSpeed="13.74" duration="158.00" routeLength="1206.22" waitingTime="49.00" waitingCount="2" stopTime="0.00" timeLoss="71.17" rerouteNo="1" devices="tripinfo_h3154c1:1 routing_h3154c1:1 emissions_h3154c1:1" vType="default_016" speedFactor="1.02" vaporized="">
        <emissions CO_abs="11490.641351" CO2_abs="422020.655749" HC_abs="62.252579" PMx_abs="8.292950" NOx_abs="177.716565" fuel_abs="181.411652" electricity_abs="0"/>
    </tripinfo>
    <tripinfo id="carIn102915:1" depart="57643.00" departLane="128361102#0_1" departPos="5.10" departSpeed="0.00" departDelay="0.40" arrival="57817.00" arrivalLane="201956811#0_1" arrivalPos="40.40" arrivalSpeed="11.31" duration="174.00" routeLength="2067.33" waitingTime="6.00" waitingCount="1" stopTime="0.00" timeLoss="30.67" rerouteNo="1" devices="tripinfo_carIn102915:1 routing_carIn102915:1 emissions_carIn102915:1" vType="default_016" speedFactor="1.05" vaporized="">
        <emissions CO_abs="6233.473322" CO2_abs="472792.060041" HC_abs="39.289310" PMx_abs="7.994227" NOx_abs="188.790060" fuel_abs="203.232933" electricity_abs="0"/>
    </tripinfo>
    <tripinfo id="h17600c1:1" depart="57662.00" departLane="272042143_1" departPos="5.10" departSpeed="0.00" departDelay="0.30" arrival="57817.00" arrivalLane="201238729#3_1" arrivalPos="431.02" arrivalSpeed="16.21" duration="155.00" routeLength="2100.26" waitingTime="12.00" waitingCount="1" stopTime="0.00" timeLoss="29.10" rerouteNo="1" devices="tripinfo_h17600c1:1 routing_h17600c1:1 emissions_h17600c1:1" vType="default_016" speedFactor="1.20" vaporized="">
        <emissions CO_abs="5687.009391" CO2_abs="422708.075851" HC_abs="35.469445" PMx_abs="7.300806" NOx_abs="167.050477" fuel_abs="181.704088" electricity_abs="0"/>
    </tripinfo>
    <tripinfo id="randUni33724:1" depart="57646.00" departLane="128361102#0_1" departPos="5.10" departSpeed="0.00" departDelay="1.20" arrival="57819.00" arrivalLane="201956811#0_1" arrivalPos="40.40" arrivalSpeed="15.28" duration="173.00" routeLength="2067.33" waitingTime="4.00" waitingCount="1" stopTime="0.00" timeLoss="48.34" rerouteNo="1" devices="tripinfo_randUni33724:1 routing_randUni33724:1 emissions_randUni33724:1" vType="random_016" speedFactor="1.21" vaporized="">
        <emissions CO_abs="6962.645666" CO2_abs="533107.511659" HC_abs="44.255611" PMx_abs="9.410874" NOx_abs="215.683554" fuel_abs="229.159292" electricity_abs="0"/>
    </tripinfo>
    <tripinfo id="carIn50326:1" depart="57651.00" departLane="128361102#0_1" departPos="5.10" departSpeed="0.00" departDelay="0.30" arrival="57820.00" arrivalLane="18809673#0_1" arrivalPos="473.56" arrivalSpeed="11.90" duration="169.00" routeLength="1591.07" waitingTime="0.00" waitingCount="0" stopTime="0.00" timeLoss="18.65" rerouteNo="1" devices="tripinfo_carIn50326:1 routing_carIn50326:1 emissions_carIn50326:1" vType="default_016" speedFactor="0.86" vaporized="">
        <emissions CO_abs="5412.770918" CO2_abs="346110.862082" HC_abs="32.629833" PMx_abs="5.346342" NOx_abs="136.905476" fuel_abs="148.779468" electricity_abs="0"/>
    </tripinfo>
    <tripinfo id="randUni15030:1" depart="57735.00" departLane="386687232#0_1" departPos="5.10" departSpeed="0.00" departDelay="0.10" arrival="57824.00" arrivalLane="26677539_1" arrivalPos="151.98" arrivalSpeed="7.98" duration="89.00" routeLength="919.89" waitingTime="0.00" waitingCount="0" stopTime="0.00" timeLoss="11.03" rerouteNo="1" devices="tripinfo_randUni15030:1 routing_randUni15030:1 emissions_randUni15030:1" vType="random_016" speedFactor="1.07" vaporized="">
        <emissions CO_abs="3246.048143" CO2_abs="224922.727879" HC_abs="19.980967" PMx_abs="3.654592" NOx_abs="89.433811" fuel_abs="96.685006" electricity_abs="0"/>
    </tripinfo>
    <tripinfo id="carIn77943:1" depart="57608.00" departLane="124812856#0_1" departPos="5.10" departSpeed="0.00" departDelay="2.50" arrival="57826.00" arrivalLane="-128361102#1_1" arrivalPos="274.68" arrivalSpeed="12.67" duration="218.00" routeLength="2250.49" waitingTime="12.00" waitingCount="1" stopTime="0.00" timeLoss="44.60" rerouteNo="1" devices="tripinfo_carIn77943:1 routing_carIn77943:1 emissions_carIn77943:1" vType="default_016" speedFactor="0.95" vaporized="">
        <emissions CO_abs="7942.953032" CO2_abs="532099.407009" HC_abs="48.597914" PMx_abs="8.890491" NOx_abs="213.742888" fuel_abs="228.727402" electricity_abs="0"/>
    </tripinfo>
    <tripinfo id="carIn81046:1" depart="57611.00" departLane="124812856#0_1" departPos="5.10" departSpeed="0.00" departDelay="2.50" arrival="57827.00" arrivalLane="-128361102#1_1" arrivalPos="274.68" arrivalSpeed="13.71" duration="216.00" routeLength="2250.49" waitingTime="10.00" waitingCount="1" stopTime="0.00" timeLoss="60.09" rerouteNo="1" devices="tripinfo_carIn81046:1 routing_carIn81046:1 emissions_carIn81046:1" vType="default_016" speedFactor="1.05" vaporized="">
        <emissions CO_abs="8901.412822" CO2_abs="581040.009748" HC_abs="54.203147" PMx_abs="10.304172" NOx_abs="237.582865" fuel_abs="249.764181" electricity_abs="0"/>
    </tripinfo>
    <tripinfo id="carIn12858:1" depart="57661.00" departLane="128361109#1_1" departPos="5.10" departSpeed="0.00" departDelay="0.90" arrival="57828.00" arrivalLane="399835085#1_1" arrivalPos="212.23" arrivalSpeed="6.88" duration="167.00" routeLength="1738.12" waitingTime="13.00" waitingCount="1" stopTime="0.00" timeLoss="40.31" rerouteNo="1" devices="tripinfo_carIn12858:1 routing_carIn12858:1 emissions_carIn12858:1" vType="default_016" speedFactor="0.91" vaporized="">
        <emissions CO_abs="8468.373113" CO2_abs="487256.500408" HC_abs="50.076590" PMx_abs="9.060723" NOx_abs="200.390845" fuel_abs="209.451048" electricity_abs="0"/>
    </tripinfo>
    <tripinfo id="carIn81860:1" depart="57712.00" departLane="128361102#0_1" departPos="5.10" departSpeed="0.00" departDelay="0.60" arrival="57829.00" arrivalLane="-24634517#17_1" arrivalPos="6.43" arrivalSpeed="9.32" duration="117.00" routeLength="1229.64" waitingTime="17.00" waitingCount="2" stopTime="0.00" timeLoss="40.91" rerouteNo="1" devices="tripinfo_carIn81860:1 routing_carIn81860:1 emissions_carIn81860:1" vType="default_016" speedFactor="1.20" vaporized="">
        <emissions CO_abs="7018.577242" CO2_abs="351800.519899" HC_abs="40.126293" PMx_abs="6.765033" NOx_abs="146.016874" fuel_abs="151.224640" electricity_abs="0"/>
    </tripinfo>
    <tripinfo id="h3864c1:3" depart="57678.00" departLane="24693977#1_1" departPos="5.10" departSpeed="0.00" departDelay="0.00" arrival="57830.00" arrivalLane="201956820_2" arrivalPos="48.33" arrivalSpeed="12.96" duration="152.00" routeLength="1574.85" waitingTime="0.00" waitingCount="0" stopTime="0.00" timeLoss="18.61" rerouteNo="1" devices="tripinfo_h3864c1:3 routing_h3864c1:3 emissions_h3864c1:3" vType="default_016" speedFactor="0.98" vaporized="">
        <emissions CO_abs="5187.796318" CO2_abs="358598.815648" HC_abs="31.961296" PMx_abs="5.777782" NOx_abs="142.694510" fuel_abs="154.146897" electricity_abs="0"/>
    </tripinfo>
    <tripinfo id="carIn82278:1" depart="57702.00" departLane="-306240162#1_0" departPos="5.10" departSpeed="0.00" departDelay="0.70" arrival="57830.00" arrivalLane="399835085#1_1" arrivalPos="212.23" arrivalSpeed="8.63" duration="128.00" routeLength="1093.26" waitingTime="24.00" waitingCount="1" stopTime="0.00" timeLoss="57.97" rerouteNo="1" devices="tripinfo_carIn82278:1 routing_carIn82278:1 emissions_carIn82278:1" vType="default_016" speedFactor="1.11" vaporized="">
        <emissions CO_abs="9587.135810" CO2_abs="429681.332263" HC_abs="53.905048" PMx_abs="8.720229" NOx_abs="181.726907" fuel_abs="184.702579" electricity_abs="0"/>
    </tripinfo>
    <tripinfo id="carIn77438:1" depart="57614.00" departLane="124812856#0_1" departPos="5.10" departSpeed="0.00" departDelay="1.10" arrival="57831.00" arrivalLane="-128361102#1_1" arrivalPos="274.68" arrivalSpeed="12.32" duration="217.00" routeLength="2250.49" waitingTime="9.00" waitingCount="1" stopTime="0.00" timeLoss="37.21" rerouteNo="1" devices="tripinfo_carIn77438:1 routing_carIn77438:1 emissions_carIn77438:1" vType="default_016" speedFactor="0.92" vaporized="">
        <emissions CO_abs="7065.861946" CO2_abs="487836.498366" HC_abs="43.540594" PMx_abs="7.952661" NOx_abs="194.541338" fuel_abs="209.700751" electricity_abs="0"/>