<?xml version="1.0" encoding="UTF-8"?>

<!-- generated on Thu Nov  4 13:34:04 2021 by Eclipse SUMO sumo Version 1.9.0
<configuration xmlns:xsi="http://www.w3.org/2001/XMLSchema-instance" xsi:noNamespaceSchemaLocation="http://sumo.dlr.de/xsd/sumoConfiguration.xsd">

    <input>
        <net-file value="/mainfs/home/bk2g18/RESCO/environments/ingolstadt21/ingolstadt21.net.xml"/>
        <route-files value="/mainfs/home/bk2g18/RESCO/environments/ingolstadt21/ingolstadt21.rou.xml"/>
    </input>

    <output>
        <tripinfo-output value="/mainfs/home/bk2g18/RESCO/logs/MPLight-tr0-ingolstadt21-21-mplight-pressure/tripinfo_38.xml"/>
        <tripinfo-output.write-unfinished value="true"/>
    </output>

    <time>
        <begin value="57600"/>
        <end value="61200"/>
    </time>

    <processing>
        <time-to-teleport value="-1"/>
    </processing>

    <report>
        <xml-validation value="never"/>
        <xml-validation.routes value="never"/>
        <no-warnings value="true"/>
        <no-step-log value="true"/>
    </report>

    <emissions>
        <device.emissions.probability value="1"/>
    </emissions>

    <traci_server>
        <remote-port value="41698"/>
    </traci_server>

    <random_number>
        <random value="true"/>
    </random_number>

</configuration>
-->

<tripinfos xmlns:xsi="http://www.w3.org/2001/XMLSchema-instance" xsi:noNamespaceSchemaLocation="http://sumo.dlr.de/xsd/tripinfo_file.xsd">
    <tripinfo id="h15454c2:3" depart="57612.00" departLane="24608844_1" departPos="5.10" departSpeed="0.00" departDelay="0.50" arrival="57669.00" arrivalLane="32978638#0_1" arrivalPos="49.29" arrivalSpeed="10.15" duration="57.00" routeLength="354.79" waitingTime="2.00" waitingCount="1" stopTime="0.00" timeLoss="15.62" rerouteNo="1" devices="tripinfo_h15454c2:3 routing_h15454c2:3 emissions_h15454c2:3" vType="default_016" speedFactor="0.82" vaporized="">
        <emissions CO_abs="2852.087749" CO2_abs="118843.935869" HC_abs="15.746888" PMx_abs="2.140946" NOx_abs="49.617890" fuel_abs="51.086659" electricity_abs="0"/>
    </tripinfo>
    <tripinfo id="carIn53971:1" depart="57640.00" departLane="272042143_1" departPos="5.10" departSpeed="0.00" departDelay="0.80" arrival="57695.00" arrivalLane="24634414#1_1" arrivalPos="162.19" arrivalSpeed="7.92" duration="55.00" routeLength="493.04" waitingTime="0.00" waitingCount="0" stopTime="0.00" timeLoss="7.69" rerouteNo="1" devices="tripinfo_carIn53971:1 routing_carIn53971:1 emissions_carIn53971:1" vType="default_016" speedFactor="0.97" vaporized="">
        <emissions CO_abs="2393.794905" CO2_abs="136501.271579" HC_abs="14.075796" PMx_abs="2.306022" NOx_abs="55.456719" fuel_abs="58.676437" electricity_abs="0"/>
    </tripinfo>
    <tripinfo id="carIn60260:1" depart="57606.00" departLane="315358254#0_1" departPos="5.10" departSpeed="0.00" departDelay="0.90" arrival="57698.00" arrivalLane="399835085#1_1" arrivalPos="212.23" arrivalSpeed="6.30" duration="92.00" routeLength="430.98" waitingTime="31.00" waitingCount="1" stopTime="0.00" timeLoss="39.92" rerouteNo="1" devices="tripinfo_carIn60260:1 routing_carIn60260:1 emissions_carIn60260:1" vType="default_016" speedFactor="0.89" vaporized="">
        <emissions CO_abs="7293.063991" CO2_abs="192351.997898" HC_abs="37.669934" PMx_abs="3.828904" NOx_abs="82.280306" fuel_abs="82.686859" electricity_abs="0"/>
    </tripinfo>
    <tripinfo id="h7800c1:5" depart="57696.00" departLane="-447569998#1_1" departPos="5.10" departSpeed="0.00" departDelay="0.00" arrival="57725.00" arrivalLane="-447569998#1_2" arrivalPos="180.76" arrivalSpeed="4.48" duration="29.00" routeLength="175.66" waitingTime="1.00" waitingCount="1" stopTime="0.00" timeLoss="7.33" rerouteNo="1" devices="tripinfo_h7800c1:5 routing_h7800c1:5 emissions_h7800c1:5" vType="default_016" speedFactor="0.99" vaporized="">
        <emissions CO_abs="1399.914060" CO2_abs="53089.718578" HC_abs="7.598843" PMx_abs="0.934543" NOx_abs="22.056976" fuel_abs="22.821465" electricity_abs="0"/>
    </tripinfo>
    <tripinfo id="h3688c1:1" depart="57625.00" departLane="201201950#1_1" departPos="5.10" departSpeed="0.00" departDelay="0.00" arrival="57735.00" arrivalLane="32978638#0_1" arrivalPos="49.29" arrivalSpeed="13.53" duration="110.00" routeLength="1089.75" waitingTime="12.00" waitingCount="2" stopTime="0.00" timeLoss="29.40" rerouteNo="1" devices="tripinfo_h3688c1:1 routing_h3688c1:1 emissions_h3688c1:1" vType="default_016" speedFactor="0.99" vaporized="">
        <emissions CO_abs="5033.601839" CO2_abs="292822.719222" HC_abs="29.796975" PMx_abs="5.169664" NOx_abs="119.216012" fuel_abs="125.872471" electricity_abs="0"/>
    </tripinfo>
    <tripinfo id="h7181c1:1" depart="57660.00" departLane="315358254#0_1" departPos="5.10" departSpeed="0.00" departDelay="0.10" arrival="57740.00" arrivalLane="306240162#0_0" arrivalPos="220.43" arrivalSpeed="16.73" duration="80.00" routeLength="932.35" waitingTime="7.00" waitingCount="1" stopTime="0.00" timeLoss="32.11" rerouteNo="1" devices="tripinfo_h7181c1:1 routing_h7181c1:1 emissions_h7181c1:1" vType="default_016" speedFactor="1.07" vaporized="">
        <emissions CO_abs="6103.160071" CO2_abs="355476.261404" HC_abs="36.317135" PMx_abs="7.173859" NOx_abs="148.448742" fuel_abs="152.803491" electricity_abs="0"/>
    </tripinfo>
    <tripinfo id="carIn30817:1" depart="57681.00" departLane="315358244_1" departPos="5.10" departSpeed="0.00" departDelay="0.20" arrival="57740.00" arrivalLane="447569997#1_1" arrivalPos="180.93" arrivalSpeed="8.57" duration="59.00" routeLength="718.04" waitingTime="0.00" waitingCount="0" stopTime="0.00" timeLoss="6.55" rerouteNo="1" devices="tripinfo_carIn30817:1 routing_carIn30817:1 emissions_carIn30817:1" vType="default_016" speedFactor="1.18" vaporized="">
        <emissions CO_abs="1825.295521" CO2_abs="140044.145668" HC_abs="11.493672" PMx_abs="2.285134" NOx_abs="55.172148" fuel_abs="60.199067" electricity_abs="0"/>
    </tripinfo>
    <tripinfo id="h4538c1:1" depart="57701.00" departLane="-10427692#1_1" departPos="5.10" departSpeed="0.00" departDelay="0.00" arrival="57740.00" arrivalLane="-128361102#1_1" arrivalPos="274.68" arrivalSpeed="13.58" duration="39.00" routeLength="440.74" waitingTime="0.00" waitingCount="0" stopTime="0.00" timeLoss="6.70" rerouteNo="1" devices="tripinfo_h4538c1:1 routing_h4538c1:1 emissions_h4538c1:1" vType="default_016" speedFactor="0.98" vaporized="">
        <emissions CO_abs="1667.492806" CO2_abs="113770.381828" HC_abs="10.251532" PMx_abs="1.938842" NOx_abs="45.873661" fuel_abs="48.905076" electricity_abs="0"/>
    </tripinfo>
    <tripinfo id="h317c2:1" depart="57707.00" departLane="-32978638#0_1" departPos="5.10" departSpeed="0.00" departDelay="0.10" arrival="57741.00" arrivalLane="-266565295#5_1" arrivalPos="172.76" arrivalSpeed="17.58" duration="34.00" routeLength="370.53" waitingTime="1.00" waitingCount="1" stopTime="0.00" timeLoss="12.78" rerouteNo="1" devices="tripinfo_h317c2:1 routing_h317c2:1 emissions_h317c2:1" vType="default_016" speedFactor="1.30" vaporized="">
        <emissions CO_abs="2387.971830" CO2_abs="146161.159240" HC_abs="14.365902" PMx_abs="2.857724" NOx_abs="61.125888" fuel_abs="62.828172" electricity_abs="0"/>
    </tripinfo>
    <tripinfo id="carIn80064:1" depart="57603.00" departLane="128361109#1_1" departPos="5.10" departSpeed="0.00" departDelay="0.40" arrival="57748.00" arrivalLane="-315358254#1_1" arrivalPos="137.16" arrivalSpeed="13.54" duration="145.00" routeLength="1587.97" waitingTime="19.00" waitingCount="3" stopTime="0.00" timeLoss="54.95" rerouteNo="1" devices="tripinfo_carIn80064:1 routing_carIn80064:1 emissions_carIn80064:1" vType="default_016" speedFactor="0.99" vaporized="">
        <emissions CO_abs="10045.271576" CO2_abs="527564.499709" HC_abs="58.360592" PMx_abs="10.590921" NOx_abs="221.644427" fuel_abs="226.777359" electricity_abs="0"/>
    </tripinfo>
    <tripinfo id="h3568c1:3" depart="57656.00" departLane="266565295#5_1" departPos="5.10" departSpeed="0.00" departDelay="0.80" arrival="57756.00" arrivalLane="-24634415_1" arrivalPos="62.03" arrivalSpeed="14.03" duration="100.00" routeLength="807.40" waitingTime="15.00" waitingCount="2" stopTime="0.00" timeLoss="36.43" rerouteNo="1" devices="tripinfo_h3568c1:3 routing_h3568c1:3 emissions_h3568c1:3" vType="default_016" speedFactor="1.02" vaporized="">
        <emissions CO_abs="5790.353194" CO2_abs="285511.442551" HC_abs="33.095943" PMx_abs="5.398016" NOx_abs="119.337896" fuel_abs="122.729779" electricity_abs="0"/>
    </tripinfo>
    <tripinfo id="h12244c1:3" depart="57612.00" departLane="315358244_1" departPos="5.10" departSpeed="0.00" departDelay="0.40" arrival="57759.00" arrivalLane="386687235_1" arrivalPos="80.84" arrivalSpeed="11.79" duration="147.00" routeLength="1186.14" waitingTime="26.00" waitingCount="2" stopTime="0.00" timeLoss="45.12" rerouteNo="1" devices="tripinfo_h12244c1:3 routing_h12244c1:3 emissions_h12244c1:3" vType="default_016" speedFactor="0.85" vaporized="">
        <emissions CO_abs="7165.972576" CO2_abs="323507.743189" HC_abs="40.162856" PMx_abs="5.703810" NOx_abs="132.579298" fuel_abs="139.063993" electricity_abs="0"/>
    </tripinfo>
    <tripinfo id="S5R_frequency1.2" depart="57624.00" departLane="315358250#0_1" departPos="12.10" departSpeed="0.00" departDelay="12.40" arrival="57767.00" arrivalLane="386687235_1" arrivalPos="80.84" arrivalSpeed="13.41" duration="143.00" routeLength="1115.62" waitingTime="25.00" waitingCount="2" stopTime="0.00" timeLoss="61.63" rerouteNo="1" devices="tripinfo_S5R_frequency1.2 routing_S5R_frequency1.2 emissions_S5R_frequency1.2" vType="bus" speedFactor="1.00" vaporized="">
        <emissions CO_abs="2745.623031" CO2_abs="1598450.874562" HC_abs="567.753673" PMx_abs="290.393342" NOx_abs="12756.034594" fuel_abs="681.661237" electricity_abs="0"/>
    </tripinfo>
    <tripinfo id="h330c1:1" depart="57736.00" departLane="-32978638#0_1" departPos="5.10" departSpeed="0.00" departDelay="0.20" arrival="57771.00" arrivalLane="-266565295#5_1" arrivalPos="172.76" arrivalSpeed="12.76" duration="35.00" routeLength="370.53" waitingTime="0.00" waitingCount="0" stopTime="0.00" timeLoss="6.13" rerouteNo="1" devices="tripinfo_h330c1:1 routing_h330c1:1 emissions_h330c1:1" vType="default_016" speedFactor="0.96" vaporized="">
        <emissions CO_abs="1690.997399" CO2_abs="103755.404244" HC_abs="10.144705" PMx_abs="1.878876" NOx_abs="42.791144" fuel_abs="44.600014" electricity_abs="0"/>
    </tripinfo>
    <tripinfo id="carIn12365:1" depart="57713.00" departLane="315358244_1" departPos="5.10" departSpeed="0.00" departDelay="0.50" arrival="57773.00" arrivalLane="447569997#1_1" arrivalPos="180.93" arrivalSpeed="8.91" duration="60.00" routeLength="718.04" waitingTime="0.00" waitingCount="0" stopTime="0.00" timeLoss="6.62" rerouteNo="1" devices="tripinfo_carIn12365:1 routing_carIn12365:1 emissions_carIn12365:1" vType="default_016" speedFactor="1.15" vaporized="">
        <emissions CO_abs="1973.805370" CO2_abs="147012.439629" HC_abs="12.360410" PMx_abs="2.431322" NOx_abs="58.291728" fuel_abs="63.194431" electricity_abs="0"/>
    </tripinfo>
    <tripinfo id="h3326c1:2" depart="57656.00" departLane="22716069#0_1" departPos="5.10" departSpeed="0.00" departDelay="0.00" arrival="57779.00" arrivalLane="24634517#13_1" arrivalPos="111.62" arrivalSpeed="12.25" duration="123.00" routeLength="1312.81" waitingTime="0.00" waitingCount="0" stopTime="0.00" timeLoss="14.94" rerouteNo="1" devices="tripinfo_h3326c1:2 routing_h3326c1:2 emissions_h3326c1:2" vType="default_016" speedFactor="0.90" vaporized="">
        <emissions CO_abs="3914.919757" CO2_abs="289565.656280" HC_abs="24.547344" PMx_abs="4.543997" NOx_abs="114.358942" fuel_abs="124.472338" electricity_abs="0"/>
    </tripinfo>
    <tripinfo id="carIn22761:1" depart="57616.00" departLane="-306240162#1_0" departPos="5.10" departSpeed="0.00" departDelay="2.10" arrival="57780.00" arrivalLane="399835085#1_1" arrivalPos="212.23" arrivalSpeed="8.20" duration="164.00" routeLength="1093.26" waitingTime="66.00" waitingCount="2" stopTime="0.00" timeLoss="94.52" rerouteNo="1" devices="tripinfo_carIn22761:1 routing_carIn22761:1 emissions_carIn22761:1" vType="default_016" speedFactor="1.12" vaporized="">
        <emissions CO_abs="15764.372293" CO2_abs="526778.243140" HC_abs="84.330355" PMx_abs="11.259887" NOx_abs="226.872027" fuel_abs="226.443124" electricity_abs="0"/>
    </tripinfo>
    <tripinfo id="h9563c2:5" depart="57631.00" departLane="315358244_1" departPos="5.10" departSpeed="0.00" departDelay="0.70" arrival="57784.00" arrivalLane="386687235_1" arrivalPos="80.84" arrivalSpeed="11.73" duration="153.00" routeLength="1186.14" waitingTime="30.00" waitingCount="4" stopTime="0.00" timeLoss="58.98" rerouteNo="1" devices="tripinfo_h9563c2:5 routing_h9563c2:5 emissions_h9563c2:5" vType="default_016" speedFactor="0.92" vaporized="">
        <emissions CO_abs="7945.427002" CO2_abs="349451.938675" HC_abs="44.351894" PMx_abs="6.361627" NOx_abs="144.287729" fuel_abs="150.216333" electricity_abs="0"/>
    </tripinfo>
    <tripinfo id="h3154c1:1" depart="57658.00" departLane="24634507_1" departPos="5.10" departSpeed="0.00" departDelay="0.00" arrival="57786.00" arrivalLane="-266565295#5_1" arrivalPos="172.76" arrivalSpeed="13.58" duration="128.00" routeLength="1206.22" waitingTime="26.00" waitingCount="1" stopTime="0.00" timeLoss="41.85" rerouteNo="1" devices="tripinfo_h3154c1:1 routing_h3154c1:1 emissions_h3154c1:1" vType="default_016" speedFactor="1.03" vaporized="">
        <emissions CO_abs="7721.341015" CO2_abs="359828.193019" HC_abs="43.597690" PMx_abs="6.690244" NOx_abs="148.421257" fuel_abs="154.676194" electricity_abs="0"/>
    </tripinfo>
    <tripinfo id="carIn118591:1" depart="57689.00" departLane="315358244_1" departPos="5.10" departSpeed="0.00" departDelay="0.20" arrival="57786.00" arrivalLane="386687235_1" arrivalPos="80.84" arrivalSpeed="17.20" duration="97.00" routeLength="1186.14" waitingTime="4.00" waitingCount="2" stopTime="0.00" timeLoss="26.90" rerouteNo="1" devices="tripinfo_carIn118591:1 routing_carIn118591:1 emissions_carIn118591:1" vType="default_016" speedFactor="1.25" vaporized="">
        <emissions CO_abs="4654.479524" CO2_abs="328444.672246" HC_abs="28.881576" PMx_abs="6.049013" NOx_abs="133.883606" fuel_abs="141.183784" electricity_abs="0"/>
    </tripinfo>
    <tripinfo id="carIn82278:1" depart="57702.00" departLane="-306240162#1_0" departPos="5.10" departSpeed="0.00" departDelay="0.70" arrival="57786.00" arrivalLane="399835085#1_1" arrivalPos="212.23" arrivalSpeed="8.83" duration="84.00" routeLength="1093.26" waitingTime="0.00" waitingCount="0" stopTime="0.00" timeLoss="11.75" rerouteNo="1" devices="tripinfo_carIn82278:1 routing_carIn82278:1 emissions_carIn82278:1" vType="default_016" speedFactor="1.08" vaporized="">
        <emissions CO_abs="4089.980031" CO2_abs="271457.626181" HC_abs="25.020927" PMx_abs="5.091055" NOx_abs="110.924033" fuel_abs="116.687689" electricity_abs="0"/>
    </tripinfo>
    <tripinfo id="carIn86816:1" depart="57617.00" departLane="128361102#0_1" departPos="5.10" departSpeed="0.00" departDelay="0.80" arrival="57788.00" arrivalLane="201956811#0_1" arrivalPos="40.40" arrivalSpeed="12.99" duration="171.00" routeLength="2067.33" waitingTime="1.00" waitingCount="1" stopTime="0.00" timeLoss="21.98" rerouteNo="1" devices="tripinfo_carIn86816:1 routing_carIn86816:1 emissions_carIn86816:1" vType="default_016" speedFactor="1.01" vaporized="">
        <emissions CO_abs="5586.246755" CO2_abs="441324.268889" HC_abs="35.785827" PMx_abs="7.377063" NOx_abs="175.949806" fuel_abs="189.706222" electricity_abs="0"/>
    </tripinfo>
    <tripinfo id="carIn107282:1" depart="57749.00" departLane="-447569998#1_1" departPos="5.10" departSpeed="0.00" departDelay="0.00" arrival="57797.00" arrivalLane="315358242#0_1" arrivalPos="165.37" arrivalSpeed="13.66" duration="48.00" routeLength="448.50" waitingTime="0.00" waitingCount="0" stopTime="0.00" timeLoss="5.36" rerouteNo="1" devices="tripinfo_carIn107282:1 routing_carIn107282:1 emissions_carIn107282:1" vType="default_016" speedFactor="0.99" vaporized="">
        <emissions CO_abs="2029.377428" CO2_abs="122599.567409" HC_abs="12.066403" PMx_abs="1.891435" NOx_abs="48.357083" fuel_abs="52.700852" electricity_abs="0"/>
    </tripinfo>
    <tripinfo id="carIn12152:1" depart="57647.00" departLane="24599188#0.94_1" departPos="5.10" departSpeed="0.00" departDelay="0.50" arrival="57799.00" arrivalLane="-315358254#1_1" arrivalPos="137.16" arrivalSpeed="14.97" duration="152.00" routeLength="2034.31" waitingTime="0.00" waitingCount="0" stopTime="0.00" timeLoss="14.42" rerouteNo="1" devices="tripinfo_carIn12152:1 routing_carIn12152:1 emissions_carIn12152:1" vType="default_016" speedFactor="1.15" vaporized="">
        <emissions CO_abs="4595.845178" CO2_abs="414247.667900" HC_abs="30.559746" PMx_abs="6.848053" NOx_abs="162.817310" fuel_abs="178.066895" electricity_abs="0"/>
    </tripinfo>
    <tripinfo id="carIn27009:1" depart="57673.00" departLane="-447569998#1_1" departPos="5.10" departSpeed="0.00" departDelay="0.50" arrival="57800.00" arrivalLane="-26677539_1" arrivalPos="152.75" arrivalSpeed="6.79" duration="127.00" routeLength="699.63" waitingTime="20.00" waitingCount="1" stopTime="0.00" timeLoss="35.31" rerouteNo="1" devices="tripinfo_carIn27009:1 routing_carIn27009:1 emissions_carIn27009:1" vType="default_015" speedFactor="0.92" vaporized="">
        <emissions CO_abs="6531.919933" CO2_abs="218626.662949" HC_abs="34.786839" PMx_abs="3.967106" NOx_abs="91.436801" fuel_abs="93.980660" electricity_abs="0"/>
    </tripinfo>
    <tripinfo id="carIn50326:1" depart="57651.00" departLane="128361102#0_1" departPos="5.10" departSpeed="0.00" departDelay="0.30" arrival="57801.00" arrivalLane="18809673#0_1" arrivalPos="473.56" arrivalSpeed="14.66" duration="150.00" routeLength="1591.07" waitingTime="11.00" waitingCount="1" stopTime="0.00" timeLoss="32.23" rerouteNo="1" devices="tripinfo_carIn50326:1 routing_carIn50326:1 emissions_carIn50326:1" vType="default_016" speedFactor="1.10" vaporized="">
        <emissions CO_abs="5657.768051" CO2_abs="367789.089016" HC_abs="34.097333" PMx_abs="6.038233" NOx_abs="145.601721" fuel_abs="158.097641" electricity_abs="0"/>
    </tripinfo>
    <tripinfo id="h645c1:1" depart="57622.00" departLane="266565295#5_1" departPos="5.10" departSpeed="0.00" departDelay="0.40" arrival="57803.00" arrivalLane="-315358244_2" arrivalPos="33.95" arrivalSpeed="14.64" duration="181.00" routeLength="1910.83" waitingTime="29.00" waitingCount="3" stopTime="0.00" timeLoss="55.33" rerouteNo="1" devices="tripinfo_h645c1:1 routing_h645c1:1 emissions_h645c1:1" vType="default_016" speedFactor="1.10" vaporized="">
        <emissions CO_abs="7598.657912" CO2_abs="464736.149943" HC_abs="45.232683" PMx_abs="8.068906" NOx_abs="186.475660" fuel_abs="199.771012" electricity_abs="0"/>
    </tripinfo>
    <tripinfo id="h5979c1:5" depart="57669.00" departLane="399835085#1_1" departPos="5.10" departSpeed="0.00" departDelay="0.00" arrival="57803.00" arrivalLane="-315358254#1_1" arrivalPos="137.16" arrivalSpeed="13.31" duration="134.00" routeLength="659.33" waitingTime="42.00" waitingCount="2" stopTime="0.00" timeLoss="59.10" rerouteNo="1" devices="tripinfo_h5979c1:5 routing_h5979c1:5 emissions_h5979c1:5" vType="default_016" speedFactor="0.98" vaporized="">
        <emissions CO_abs="9663.076654" CO2_abs="287765.801788" HC_abs="50.686576" PMx_abs="5.585789" NOx_abs="122.089235" fuel_abs="123.701800" electricity_abs="0"/>
    </tripinfo>
    <tripinfo id="carIn121703:1" depart="57647.00" departLane="386687232#0_1" departPos="5.10" departSpeed="0.00" departDelay="0.30" arrival="57804.00" arrivalLane="-315358244_1" arrivalPos="33.95" arrivalSpeed="15.01" duration="157.00" routeLength="1157.39" waitingTime="55.00" waitingCount="3" stopTime="0.00" timeLoss="81.32" rerouteNo="1" devices="tripinfo_carIn121703:1 routing_carIn121703:1 emissions_carIn121703:1" vType="default_016" speedFactor="1.11" vaporized="">
        <emissions CO_abs="11507.225283" CO2_abs="411133.070575" HC_abs="62.009371" PMx_abs="8.201373" NOx_abs="173.402782" fuel_abs="176.731585" electricity_abs="0"/>
    </tripinfo>
    <tripinfo id="carIn107084:1" depart="57601.00" departLane="124812856#0_1" departPos="5.10" departSpeed="0.00" departDelay="0.70" arrival="57805.00" arrivalLane="-128361102#1_1" arrivalPos="274.68" arrivalSpeed="13.64" duration="204.00" routeLength="2250.49" waitingTime="16.00" waitingCount="2" stopTime="0.00" timeLoss="45.66" rerouteNo="1" devices="tripinfo_carIn107084:1 routing_carIn107084:1 emissions_carIn107084:1" vType="default_016" speedFactor="1.04" vaporized="">
        <emissions CO_abs="7610.550970" CO2_abs="514994.582406" HC_abs="46.662480" PMx_abs="8.895624" NOx_abs="207.292877" fuel_abs="221.374372" electricity_abs="0"/>
    </tripinfo>
    <tripinfo id="carIn81046:1" depart="57611.00" departLane="124812856#0_1" departPos="5.10" departSpeed="0.00" departDelay="2.50" arrival="57808.00" arrivalLane="-128361102#1_1" arrivalPos="274.68" arrivalSpeed="13.85" duration="197.00" routeLength="2250.49" waitingTime="0.00" waitingCount="0" stopTime="0.00" timeLoss="32.01" rerouteNo="1" devices="tripinfo_carIn81046:1 routing_carIn81046:1 emissions_carIn81046:1" vType="default_016" speedFactor="1.00" vaporized="">
        <emissions CO_abs="6005.560055" CO2_abs="473813.973509" HC_abs="38.342546" PMx_abs="7.593390" NOx_abs="187.391197" fuel_abs="203.672577" electricity_abs="0"/>
    </tripinfo>
    <tripinfo id="carIn77438:1" depart="57614.00" departLane="124812856#0_1" departPos="5.10" departSpeed="0.00" departDelay="1.10" arrival="57811.00" arrivalLane="-128361102#1_1" arrivalPos="274.68" arrivalSpeed="13.36" duration="197.00" routeLength="2250.49" waitingTime="0.00" waitingCount="0" stopTime="0.00" timeLoss="27.87" rerouteNo="1" devices="tripinfo_carIn77438:1 routing_carIn77438:1 emissions_carIn77438:1" vType="default_016" speedFactor="0.97" vaporized="">
        <emissions CO_abs="6424.883571" CO2_abs="508402.016282" HC_abs="41.140112" PMx_abs="8.318039" NOx_abs="202.171943" fuel_abs="218.540247" electricity_abs="0"/>
    </tripinfo>
    <tripinfo id="carIn48184:1" depart="57613.00" departLane="-306240162#1_0" departPos="5.10" departSpeed="0.00" departDelay="0.70" arrival="57817.00" arrivalLane="386687235_1" arrivalPos="80.84" arrivalSpeed="14.16" duration="204.00" routeLength="2257.41" waitingTime="27.00" waitingCount="3" stopTime="0.00" timeLoss="66.80" rerouteNo="1" devices="tripinfo_carIn48184:1 routing_carIn48184:1 emissions_carIn48184:1" vType="default_016" speedFactor="1.08" vaporized="">
        <emissions CO_abs="9989.356681" CO2_abs="607585.316109" HC_abs="59.729935" PMx_abs="11.327674" NOx_abs="248.629230" fuel_abs="261.174924" electricity_abs="0"/>
    </tripinfo>
    <tripinfo id="carIn129809:1" depart="57729.00" departLane="-447569998#1_1" departPos="5.10" departSpeed="0.00" departDelay="1.00" arrival="57822.00" arrivalLane="-315358244_1" arrivalPos="33.95" arrivalSpeed="16.48" duration="93.00" routeLength="706.49" waitingTime="26.00" waitingCount="2" stopTime="0.00" timeLoss="45.89" rerouteNo="1" devices="tripinfo_carIn129809:1 routing_carIn129809:1 emissions_carIn129809:1" vType="default_015" speedFactor="1.28" vaporized="">
        <emissions CO_abs="6918.447732" CO2_abs="277371.274165" HC_abs="38.064713" PMx_abs="5.596103" NOx_abs="117.565841" fuel_abs="119.231284" electricity_abs="0"/>
    </tripinfo>
    <tripinfo id="h19804c1:3" depart="57617.00" departLane="124812856#0_1" departPos="5.10" departSpeed="0.00" departDelay="1.50" arrival="57825.00" arrivalLane="-128361102#1_1" arrivalPos="274.68" arrivalSpeed="13.79" duration="208.00" routeLength="2250.49" waitingTime="9.00" waitingCount="1" stopTime="0.00" timeLoss="48.82" rerouteNo="1" devices="tripinfo_h19804c1:3 routing_h19804c1:3 emissions_h19804c1:3" vType="default_016" speedFactor="1.03" vaporized="">
        <emissions CO_abs="7691.966824" CO2_abs="554461.432721" HC_abs="48.028087" PMx_abs="9.519440" NOx_abs="223.544980" fuel_abs="238.339097" electricity_abs="0"/>
    </tripinfo>
    <tripinfo id="carIn77943:1" depart="57608.00" departLane="124812856#0_1" departPos="5.10" departSpeed="0.00" departDelay="2.50" arrival="57835.00" arrivalLane="-128361102#1_1" arrivalPos="274.68" arrivalSpeed="10.70" duration="227.00" routeLength="2232.46" waitingTime="4.00" waitingCount="2" stopTime="0.00" timeLoss="28.01" rerouteNo="1" devices="tripinfo_carIn77943:1 routing_carIn77943:1 emissions_carIn77943:1" vType="default_016" speedFactor="0.82" vaporized="">
        <emissions CO_abs="6851.901114" CO2_abs="463954.295115" HC_abs="41.887000" PMx_abs="7.007861" NOx_abs="182.201354" fuel_abs="199.435660" electricity_abs="0"/>
    </tripinfo>
    <tripinfo id="carIn102915:1" depart="57643.00" departLane="128361102#0_1" departPos="5.10" departSpeed="0.00" departDelay="0.40" arrival="57835.00" arrivalLane="201956811#0_1" arrivalPos="40.40" arrivalSpeed="13.07" duration="192.00" routeLength="2067.33" waitingTime="14.00" waitingCount="1" stopTime="0.00" timeLoss="36.74" rerouteNo="1" devices="tripinfo_carIn102915:1 routing_carIn102915:1 emissions_carIn102915:1" vType="default_016" speedFactor="0.98" vaporized="">
        <emissions CO_abs="7383.739091" CO2_abs="487098.207079" HC_abs="44.992678" PMx_abs="8.141471" NOx_abs="194.615733" fuel_abs="209.383457" electricity_abs="0"/>
    </tripinfo>
    <tripinfo id="carIn107842:1" depart="57623.00" departLane="124812856#0_1" departPos="5.10" departSpeed="0.00" departDelay="1.90" arrival="57836.00" arrivalLane="-128361102#1_1" arrivalPos="274.68" arrivalSpeed="13.24" duration="213.00" routeLength="2232.46" waitingTime="1.00" waitingCount="1" stopTime="0.00" timeLoss="72.25" rerouteNo="1" devices="tripinfo_carIn107842:1 routing_carIn107842:1 emissions_carIn107842:1" vType="default_016" speedFactor="1.16" vaporized="">
        <emissions CO_abs="8628.400594" CO2_abs="566765.572345" HC_abs="52.605327" PMx_abs="9.952004" NOx_abs="231.544284" fuel_abs="243.628272" electricity_abs="0"/>
    </tripinfo>
    <tripinfo id="carIn56649:1" depart="57632.00" departLane="124812856#0_1" departPos="5.10" departSpeed="0.00" departDelay="8.10" arrival="57838.00" arrivalLane="-128361102#1_1" arrivalPos="274.68" arrivalSpeed="14.27" duration="206.00" routeLength="2232.46" waitingTime="8.00" waitingCount="1" stopTime="0.00" timeLoss="73.55" rerouteNo="1" devices="tripinfo_carIn56649:1 routing_carIn56649:1 emissions_carIn56649:1" vType="default_016" speedFactor="1.23" vaporized="">
        <emissions CO_abs="8998.548094" CO2_abs="581785.487316" HC_abs="54.718101" PMx_abs="10.707759" NOx_abs="239.572716" fuel_abs="250.084188" electricity_abs="0"/>
    </tripinfo>
    <tripinfo id="h3864c1:3" depart="57678.00" departLane="24693977#1_1" departPos="5.10" departSpeed="0.00" departDelay="0.00" arrival="57839.00" arrivalLane="201956820_2" arrivalPos="48.33" arrivalSpeed="13.09" duration="161.00" routeLength="1574.85" waitingTime="1.00" waitingCount="1" stopTime="0.00" timeLoss="26.73" rerouteNo="1" devices="tripinfo_h3864c1:3 routing_h3864c1:3 emissions_h3864c1:3" vType="default_016" speedFactor="0.96" vaporized="">
        <emissions CO_abs="6229.049675" CO2_abs="406611.104280" HC_abs="37.826538" PMx_abs="6.654845" NOx_abs="162.705959" fuel_abs="174.785521" electricity_abs="0"/>
    </tripinfo>
    <tripinfo id="h15382c1:3" depart="57626.00" departLane="124812856#0_1" departPos="5.10" departSpeed="0.00" departDelay="3.80" arrival="57840.00" arrivalLane="-128361102#1_1" arrivalPos="274.68" arrivalSpeed="14.50" duration="214.00" routeLength="2250.49" waitingTime="5.00" waitingCount="1" stopTime="0.00" timeLoss="63.72" rerouteNo="1" devices="tripinfo_h15382c1:3 routing_h15382c1:3 emissions_h15382c1:3" vType="default_016" speedFactor="1.10" vaporized="">
        <emissions CO_abs="8008.781522" CO2_abs="551577.384822" HC_abs="49.398187" PMx_abs="9.617036" NOx_abs="224.525197" fuel_abs="237.099325" electricity_abs="0"/>
    </tripinfo>
    <tripinfo id="carIn3969:1" depart="57629.00" departLane="124812856#0_1" departPos="5.10" departSpeed="0.00" departDelay="5.30" arrival="57842.00" arrivalLane="-128361102#1_1" arrivalPos="274.68" arrivalSpeed="13.46" duration="213.00" routeLength="2250.49" waitingTime="5.00" waitingCount="1" stopTime="0.00" timeLoss="44.16" rerouteNo="1" devices="tripinfo_carIn3969:1 routing_carIn3969:1 emissions_carIn3969:1" vType="default_016" speedFactor="0.98" vaporized="">
        <emissions CO_abs="7627.107049" CO2_abs="545869.318772" HC_abs="47.472542" PMx_abs="9.116192" NOx_abs="219.098537" fuel_abs="234.646085" electricity_abs="0"/>
    </tripinfo>
    <tripinfo id="carIn82220:1" depart="57619.00" departLane="-306240162#1_0" departPos="5.10" departSpeed="0.00" departDelay="3.50" arrival="57843.00" arrivalLane="386687235_2" arrivalPos="80.84" arrivalSpeed="13.00" duration="224.00" routeLength="2257.41" waitingTime="36.00" waitingCount="4" stopTime="0.00" timeLoss="79.46" rerouteNo="1" devices="tripinfo_carIn82220:1 routing_carIn82220:1 emissions_carIn82220:1" vType="default_016" speedFactor="1.02" vaporized="">
        <emissions CO_abs="11369.843675" CO2_abs="620059.766523" HC_abs="66.395213" PMx_abs="11.646385" NOx_abs="255.053021" fuel_abs="266.537974" electricity_abs="0"/>
    </tripinfo>
    <tripinfo id="h16072c2:3" depart="57663.00" departLane="315358254#0_1" departPos="5.10" departSpeed="0.00" departDelay="2.50" arrival="57844.00" arrivalLane="386687235_1" arrivalPos="80.84" arrivalSpeed="11.47" duration="181.00" routeLength="1611.92" waitingTime="23.00" waitingCount="2" stopTime="0.00" timeLoss="43.34" rerouteNo="1" devices="tripinfo_h16072c2:3 routing_h16072c2:3 emissions_h16072c2:3" vType="default_016" speedFactor="0.85" vaporized="">