<?xml version="1.0" encoding="UTF-8"?>

<!-- generated on Thu Nov  4 14:02:17 2021 by Eclipse SUMO sumo Version 1.9.0
<configuration xmlns:xsi="http://www.w3.org/2001/XMLSchema-instance" xsi:noNamespaceSchemaLocation="http://sumo.dlr.de/xsd/sumoConfiguration.xsd">

    <input>
        <net-file value="/mainfs/home/bk2g18/RESCO/environments/ingolstadt21/ingolstadt21.net.xml"/>
        <route-files value="/mainfs/home/bk2g18/RESCO/environments/ingolstadt21/ingolstadt21.rou.xml"/>
    </input>

    <output>
        <tripinfo-output value="/mainfs/home/bk2g18/RESCO/logs/MPLight-tr0-ingolstadt21-21-mplight-pressure/tripinfo_90.xml"/>
        <tripinfo-output.write-unfinished value="true"/>
    </output>

    <time>
        <begin value="57600"/>
        <end value="61200"/>
    </time>

    <processing>
        <time-to-teleport value="-1"/>
    </processing>

    <report>
        <xml-validation value="never"/>
        <xml-validation.routes value="never"/>
        <no-warnings value="true"/>
        <no-step-log value="true"/>
    </report>

    <emissions>
        <device.emissions.probability value="1"/>
    </emissions>

    <traci_server>
        <remote-port value="40505"/>
    </traci_server>

    <random_number>
        <random value="true"/>
    </random_number>

</configuration>
-->

<tripinfos xmlns:xsi="http://www.w3.org/2001/XMLSchema-instance" xsi:noNamespaceSchemaLocation="http://sumo.dlr.de/xsd/tripinfo_file.xsd">
    <tripinfo id="h15454c2:3" depart="57612.00" departLane="24608844_1" departPos="5.10" departSpeed="0.00" departDelay="0.50" arrival="57657.00" arrivalLane="32978638#0_1" arrivalPos="49.29" arrivalSpeed="12.64" duration="45.00" routeLength="354.79" waitingTime="0.00" waitingCount="0" stopTime="0.00" timeLoss="7.28" rerouteNo="1" devices="tripinfo_h15454c2:3 routing_h15454c2:3 emissions_h15454c2:3" vType="default_016" speedFactor="0.92" vaporized="">
        <emissions CO_abs="2352.796586" CO2_abs="121700.914104" HC_abs="13.543607" PMx_abs="2.097666" NOx_abs="49.880740" fuel_abs="52.314461" electricity_abs="0"/>
    </tripinfo>
    <tripinfo id="carIn60260:1" depart="57606.00" departLane="315358254#0_1" departPos="5.10" departSpeed="0.00" departDelay="0.90" arrival="57662.00" arrivalLane="399835085#1_1" arrivalPos="212.23" arrivalSpeed="6.90" duration="56.00" routeLength="430.98" waitingTime="0.00" waitingCount="0" stopTime="0.00" timeLoss="7.96" rerouteNo="1" devices="tripinfo_carIn60260:1 routing_carIn60260:1 emissions_carIn60260:1" vType="default_016" speedFactor="0.96" vaporized="">
        <emissions CO_abs="2308.903300" CO2_abs="111257.897924" HC_abs="13.077552" PMx_abs="1.832455" NOx_abs="45.186335" fuel_abs="47.825668" electricity_abs="0"/>
    </tripinfo>
    <tripinfo id="carIn53971:1" depart="57640.00" departLane="272042143_1" departPos="5.10" departSpeed="0.00" departDelay="0.80" arrival="57691.00" arrivalLane="24634414#1_1" arrivalPos="162.19" arrivalSpeed="8.54" duration="51.00" routeLength="493.04" waitingTime="0.00" waitingCount="0" stopTime="0.00" timeLoss="8.45" rerouteNo="1" devices="tripinfo_carIn53971:1 routing_carIn53971:1 emissions_carIn53971:1" vType="default_016" speedFactor="1.08" vaporized="">
        <emissions CO_abs="2513.553894" CO2_abs="146989.660703" HC_abs="14.867690" PMx_abs="2.629071" NOx_abs="60.546021" fuel_abs="63.184704" electricity_abs="0"/>
    </tripinfo>
    <tripinfo id="h12244c1:3" depart="57612.00" departLane="315358244_1" departPos="5.10" departSpeed="0.00" departDelay="0.40" arrival="57704.00" arrivalLane="386687235_1" arrivalPos="80.84" arrivalSpeed="13.67" duration="92.00" routeLength="1186.14" waitingTime="0.00" waitingCount="0" stopTime="0.00" timeLoss="10.20" rerouteNo="1" devices="tripinfo_h12244c1:3 routing_h12244c1:3 emissions_h12244c1:3" vType="default_016" speedFactor="1.05" vaporized="">
        <emissions CO_abs="2619.377240" CO2_abs="235778.655009" HC_abs="17.347290" PMx_abs="3.696324" NOx_abs="91.673342" fuel_abs="101.351173" electricity_abs="0"/>
    </tripinfo>
    <tripinfo id="S5R_frequency1.2" depart="57616.00" departLane="315358250#0_1" departPos="12.10" departSpeed="0.00" departDelay="4.40" arrival="57717.00" arrivalLane="386687235_1" arrivalPos="80.84" arrivalSpeed="13.21" duration="101.00" routeLength="1115.62" waitingTime="1.00" waitingCount="1" stopTime="0.00" timeLoss="19.60" rerouteNo="1" devices="tripinfo_S5R_frequency1.2 routing_S5R_frequency1.2 emissions_S5R_frequency1.2" vType="bus" speedFactor="1.00" vaporized="">
        <emissions CO_abs="2003.346962" CO2_abs="1239086.374643" HC_abs="425.052497" PMx_abs="214.505109" NOx_abs="9656.056653" fuel_abs="528.452961" electricity_abs="0"/>
    </tripinfo>
    <tripinfo id="h7800c1:5" depart="57696.00" departLane="-447569998#1_1" departPos="5.10" departSpeed="0.00" departDelay="0.00" arrival="57725.00" arrivalLane="-447569998#1_2" arrivalPos="180.76" arrivalSpeed="4.64" duration="29.00" routeLength="175.66" waitingTime="0.00" waitingCount="0" stopTime="0.00" timeLoss="6.16" rerouteNo="1" devices="tripinfo_h7800c1:5 routing_h7800c1:5 emissions_h7800c1:5" vType="default_016" speedFactor="0.94" vaporized="">
        <emissions CO_abs="1388.807790" CO2_abs="55005.172748" HC_abs="7.587263" PMx_abs="0.932592" NOx_abs="22.634570" fuel_abs="23.644854" electricity_abs="0"/>
    </tripinfo>
    <tripinfo id="h3568c1:3" depart="57656.00" departLane="266565295#5_1" departPos="5.10" departSpeed="0.00" departDelay="0.80" arrival="57729.00" arrivalLane="-24634415_1" arrivalPos="62.03" arrivalSpeed="13.86" duration="73.00" routeLength="807.40" waitingTime="0.00" waitingCount="0" stopTime="0.00" timeLoss="11.94" rerouteNo="1" devices="tripinfo_h3568c1:3 routing_h3568c1:3 emissions_h3568c1:3" vType="default_016" speedFactor="1.05" vaporized="">
        <emissions CO_abs="3134.841816" CO2_abs="210901.592973" HC_abs="19.214755" PMx_abs="3.663316" NOx_abs="85.438792" fuel_abs="90.657613" electricity_abs="0"/>
    </tripinfo>
    <tripinfo id="h3688c1:1" depart="57625.00" departLane="201201950#1_1" departPos="5.10" departSpeed="0.00" departDelay="0.00" arrival="57730.00" arrivalLane="32978638#0_1" arrivalPos="49.29" arrivalSpeed="14.09" duration="105.00" routeLength="1089.75" waitingTime="13.00" waitingCount="1" stopTime="0.00" timeLoss="26.85" rerouteNo="1" devices="tripinfo_h3688c1:1 routing_h3688c1:1 emissions_h3688c1:1" vType="default_016" speedFactor="1.02" vaporized="">
        <emissions CO_abs="4940.158164" CO2_abs="294722.176110" HC_abs="29.383565" PMx_abs="5.125952" NOx_abs="118.977803" fuel_abs="126.689028" electricity_abs="0"/>
    </tripinfo>
    <tripinfo id="h9563c2:5" depart="57631.00" departLane="315358244_1" departPos="5.10" departSpeed="0.00" departDelay="0.70" arrival="57735.00" arrivalLane="386687235_1" arrivalPos="80.84" arrivalSpeed="13.05" duration="104.00" routeLength="1186.14" waitingTime="3.00" waitingCount="1" stopTime="0.00" timeLoss="14.72" rerouteNo="1" devices="tripinfo_h9563c2:5 routing_h9563c2:5 emissions_h9563c2:5" vType="default_016" speedFactor="0.97" vaporized="">
        <emissions CO_abs="2827.645802" CO2_abs="229757.187685" HC_abs="18.219641" PMx_abs="3.574828" NOx_abs="89.897755" fuel_abs="98.763018" electricity_abs="0"/>
    </tripinfo>
    <tripinfo id="carIn30817:1" depart="57681.00" departLane="315358244_1" departPos="5.10" departSpeed="0.00" departDelay="0.20" arrival="57742.00" arrivalLane="447569997#1_1" arrivalPos="180.93" arrivalSpeed="9.81" duration="61.00" routeLength="718.04" waitingTime="0.00" waitingCount="0" stopTime="0.00" timeLoss="9.11" rerouteNo="1" devices="tripinfo_carIn30817:1 routing_carIn30817:1 emissions_carIn30817:1" vType="default_016" speedFactor="1.20" vaporized="">
        <emissions CO_abs="2357.181696" CO2_abs="167387.257266" HC_abs="14.496259" PMx_abs="2.739509" NOx_abs="66.187845" fuel_abs="71.952828" electricity_abs="0"/>
    </tripinfo>
    <tripinfo id="h4538c1:1" depart="57701.00" departLane="-10427692#1_1" departPos="5.10" departSpeed="0.00" departDelay="0.00" arrival="57743.00" arrivalLane="-128361102#1_1" arrivalPos="274.68" arrivalSpeed="11.67" duration="42.00" routeLength="440.74" waitingTime="0.00" waitingCount="0" stopTime="0.00" timeLoss="7.45" rerouteNo="1" devices="tripinfo_h4538c1:1 routing_h4538c1:1 emissions_h4538c1:1" vType="default_016" speedFactor="0.92" vaporized="">
        <emissions CO_abs="1698.004961" CO2_abs="110685.626564" HC_abs="10.307640" PMx_abs="1.808642" NOx_abs="44.235361" fuel_abs="47.579244" electricity_abs="0"/>
    </tripinfo>
    <tripinfo id="carIn22761:1" depart="57616.00" departLane="-306240162#1_0" departPos="5.10" departSpeed="0.00" departDelay="2.10" arrival="57749.00" arrivalLane="399835085#1_1" arrivalPos="212.23" arrivalSpeed="9.51" duration="133.00" routeLength="1093.26" waitingTime="47.00" waitingCount="1" stopTime="0.00" timeLoss="64.60" rerouteNo="1" devices="tripinfo_carIn22761:1 routing_carIn22761:1 emissions_carIn22761:1" vType="default_016" speedFactor="1.15" vaporized="">
        <emissions CO_abs="12235.205541" CO2_abs="434358.413998" HC_abs="66.090386" PMx_abs="9.191063" NOx_abs="184.738868" fuel_abs="186.714815" electricity_abs="0"/>
    </tripinfo>
    <tripinfo id="h5979c1:5" depart="57669.00" departLane="399835085#1_1" departPos="5.10" departSpeed="0.00" departDelay="0.00" arrival="57760.00" arrivalLane="-315358254#1_1" arrivalPos="137.16" arrivalSpeed="16.47" duration="91.00" routeLength="659.33" waitingTime="11.00" waitingCount="1" stopTime="0.00" timeLoss="31.06" rerouteNo="1" devices="tripinfo_h5979c1:5 routing_h5979c1:5 emissions_h5979c1:5" vType="default_016" speedFactor="1.23" vaporized="">
        <emissions CO_abs="4246.295647" CO2_abs="199358.774969" HC_abs="23.992147" PMx_abs="3.693340" NOx_abs="83.035909" fuel_abs="85.696510" electricity_abs="0"/>
    </tripinfo>
    <tripinfo id="h317c2:1" depart="57707.00" departLane="-32978638#0_1" departPos="5.10" departSpeed="0.00" departDelay="0.10" arrival="57766.00" arrivalLane="-266565295#5_1" arrivalPos="172.76" arrivalSpeed="12.30" duration="59.00" routeLength="370.53" waitingTime="20.00" waitingCount="1" stopTime="0.00" timeLoss="30.43" rerouteNo="1" devices="tripinfo_h317c2:1 routing_h317c2:1 emissions_h317c2:1" vType="default_016" speedFactor="0.96" vaporized="">
        <emissions CO_abs="4446.388039" CO2_abs="146635.267843" HC_abs="23.693479" PMx_abs="2.948376" NOx_abs="62.492870" fuel_abs="63.033534" electricity_abs="0"/>
    </tripinfo>
    <tripinfo id="h330c1:1" depart="57736.00" departLane="-32978638#0_1" departPos="5.10" departSpeed="0.00" departDelay="0.20" arrival="57769.00" arrivalLane="-266565295#5_1" arrivalPos="172.76" arrivalSpeed="13.64" duration="33.00" routeLength="370.53" waitingTime="0.00" waitingCount="0" stopTime="0.00" timeLoss="6.47" rerouteNo="1" devices="tripinfo_h330c1:1 routing_h330c1:1 emissions_h330c1:1" vType="default_016" speedFactor="1.04" vaporized="">
        <emissions CO_abs="1697.659734" CO2_abs="107549.756559" HC_abs="10.258327" PMx_abs="1.961904" NOx_abs="44.322631" fuel_abs="46.230986" electricity_abs="0"/>
    </tripinfo>
    <tripinfo id="h7181c1:1" depart="57660.00" departLane="315358254#0_1" departPos="5.10" departSpeed="0.00" departDelay="0.10" arrival="57770.00" arrivalLane="306240162#0_0" arrivalPos="220.43" arrivalSpeed="16.99" duration="110.00" routeLength="932.35" waitingTime="46.00" waitingCount="1" stopTime="0.00" timeLoss="61.16" rerouteNo="1" devices="tripinfo_h7181c1:1 routing_h7181c1:1 emissions_h7181c1:1" vType="default_016" speedFactor="1.05" vaporized="">
        <emissions CO_abs="10826.416875" CO2_abs="350903.319501" HC_abs="57.595219" PMx_abs="7.584576" NOx_abs="150.594388" fuel_abs="150.841032" electricity_abs="0"/>
    </tripinfo>
    <tripinfo id="carIn12365:1" depart="57713.00" departLane="315358244_1" departPos="5.10" departSpeed="0.00" departDelay="0.50" arrival="57779.00" arrivalLane="447569997#1_1" arrivalPos="180.93" arrivalSpeed="8.89" duration="66.00" routeLength="718.04" waitingTime="0.00" waitingCount="0" stopTime="0.00" timeLoss="9.47" rerouteNo="1" devices="tripinfo_carIn12365:1 routing_carIn12365:1 emissions_carIn12365:1" vType="default_016" speedFactor="1.09" vaporized="">
        <emissions CO_abs="2551.965625" CO2_abs="157573.331995" HC_abs="15.284967" PMx_abs="2.724397" NOx_abs="63.909269" fuel_abs="67.734245" electricity_abs="0"/>
    </tripinfo>
    <tripinfo id="carIn107084:1" depart="57601.00" departLane="124812856#0_1" departPos="5.10" departSpeed="0.00" departDelay="0.70" arrival="57783.00" arrivalLane="-128361102#1_1" arrivalPos="274.68" arrivalSpeed="14.52" duration="182.00" routeLength="2250.49" waitingTime="8.00" waitingCount="1" stopTime="0.00" timeLoss="33.17" rerouteNo="1" devices="tripinfo_carIn107084:1 routing_carIn107084:1 emissions_carIn107084:1" vType="default_016" speedFactor="1.11" vaporized="">
        <emissions CO_abs="6811.831790" CO2_abs="534687.381840" HC_abs="43.294209" PMx_abs="9.109637" NOx_abs="212.747016" fuel_abs="229.838863" electricity_abs="0"/>
    </tripinfo>
    <tripinfo id="h3154c1:1" depart="57658.00" departLane="24634507_1" departPos="5.10" departSpeed="0.00" departDelay="0.00" arrival="57785.00" arrivalLane="-266565295#5_1" arrivalPos="172.76" arrivalSpeed="14.16" duration="127.00" routeLength="1206.22" waitingTime="24.00" waitingCount="2" stopTime="0.00" timeLoss="44.59" rerouteNo="1" devices="tripinfo_h3154c1:1 routing_h3154c1:1 emissions_h3154c1:1" vType="default_016" speedFactor="1.07" vaporized="">
        <emissions CO_abs="6326.637213" CO2_abs="342144.395433" HC_abs="36.811668" PMx_abs="6.276059" NOx_abs="140.528879" fuel_abs="147.073874" electricity_abs="0"/>
    </tripinfo>
    <tripinfo id="carIn27009:1" depart="57673.00" departLane="-447569998#1_1" departPos="5.10" departSpeed="0.00" departDelay="0.50" arrival="57789.00" arrivalLane="-26677539_1" arrivalPos="152.75" arrivalSpeed="8.68" duration="116.00" routeLength="699.63" waitingTime="23.00" waitingCount="1" stopTime="0.00" timeLoss="37.21" rerouteNo="1" devices="tripinfo_carIn27009:1 routing_carIn27009:1 emissions_carIn27009:1" vType="default_015" speedFactor="1.07" vaporized="">
        <emissions CO_abs="6291.862360" CO2_abs="219181.238451" HC_abs="33.735272" PMx_abs="4.063313" NOx_abs="91.942745" fuel_abs="94.218733" electricity_abs="0"/>
    </tripinfo>
    <tripinfo id="carIn86816:1" depart="57617.00" departLane="128361102#0_1" departPos="5.10" departSpeed="0.00" departDelay="0.80" arrival="57797.00" arrivalLane="201956811#0_1" arrivalPos="40.40" arrivalSpeed="15.18" duration="180.00" routeLength="2067.33" waitingTime="11.00" waitingCount="3" stopTime="0.00" timeLoss="48.49" rerouteNo="1" devices="tripinfo_carIn86816:1 routing_carIn86816:1 emissions_carIn86816:1" vType="default_016" speedFactor="1.15" vaporized="">
        <emissions CO_abs="7310.521077" CO2_abs="529463.420953" HC_abs="45.597388" PMx_abs="9.352325" NOx_abs="213.459213" fuel_abs="227.593241" electricity_abs="0"/>
    </tripinfo>
    <tripinfo id="carIn107282:1" depart="57749.00" departLane="-447569998#1_1" departPos="5.10" departSpeed="0.00" departDelay="0.00" arrival="57798.00" arrivalLane="315358242#0_1" arrivalPos="165.37" arrivalSpeed="12.29" duration="49.00" routeLength="448.50" waitingTime="0.00" waitingCount="0" stopTime="0.00" timeLoss="5.39" rerouteNo="1" devices="tripinfo_carIn107282:1 routing_carIn107282:1 emissions_carIn107282:1" vType="default_016" speedFactor="0.96" vaporized="">
        <emissions CO_abs="1944.895927" CO2_abs="115925.312701" HC_abs="11.521033" PMx_abs="1.763793" NOx_abs="45.651327" fuel_abs="49.831897" electricity_abs="0"/>
    </tripinfo>
    <tripinfo id="h645c1:1" depart="57622.00" departLane="266565295#5_1" departPos="5.10" departSpeed="0.00" departDelay="0.40" arrival="57803.00" arrivalLane="-315358244_1" arrivalPos="33.95" arrivalSpeed="11.16" duration="181.00" routeLength="1910.83" waitingTime="0.00" waitingCount="0" stopTime="0.00" timeLoss="14.56" rerouteNo="1" devices="tripinfo_h645c1:1 routing_h645c1:1 emissions_h645c1:1" vType="default_016" speedFactor="0.84" vaporized="">
        <emissions CO_abs="4468.619970" CO2_abs="344979.213264" HC_abs="28.266147" PMx_abs="4.924566" NOx_abs="133.099789" fuel_abs="148.292920" electricity_abs="0"/>
    </tripinfo>
    <tripinfo id="carIn77943:1" depart="57608.00" departLane="124812856#0_1" departPos="5.10" departSpeed="0.00" departDelay="2.50" arrival="57804.00" arrivalLane="-128361102#1_1" arrivalPos="274.68" arrivalSpeed="13.57" duration="196.00" routeLength="2250.49" waitingTime="0.00" waitingCount="0" stopTime="0.00" timeLoss="41.42" rerouteNo="1" devices="tripinfo_carIn77943:1 routing_carIn77943:1 emissions_carIn77943:1" vType="default_016" speedFactor="1.06" vaporized="">
        <emissions CO_abs="6992.036369" CO2_abs="514516.362311" HC_abs="43.831377" PMx_abs="8.696252" NOx_abs="206.936719" fuel_abs="221.168468" electricity_abs="0"/>
    </tripinfo>
    <tripinfo id="carIn129809:1" depart="57729.00" departLane="-447569998#1_1" departPos="5.10" departSpeed="0.00" departDelay="1.00" arrival="57805.00" arrivalLane="-315358244_1" arrivalPos="33.95" arrivalSpeed="15.15" duration="76.00" routeLength="706.49" waitingTime="9.00" waitingCount="1" stopTime="0.00" timeLoss="20.31" rerouteNo="1" devices="tripinfo_carIn129809:1 routing_carIn129809:1 emissions_carIn129809:1" vType="default_015" speedFactor="1.10" vaporized="">
        <emissions CO_abs="3130.316436" CO2_abs="184030.399819" HC_abs="18.539255" PMx_abs="3.121082" NOx_abs="73.917719" fuel_abs="79.107300" electricity_abs="0"/>
    </tripinfo>
    <tripinfo id="carIn81046:1" depart="57611.00" departLane="124812856#0_1" departPos="5.10" departSpeed="0.00" departDelay="2.50" arrival="57806.00" arrivalLane="-128361102#1_1" arrivalPos="274.68" arrivalSpeed="13.83" duration="195.00" routeLength="2250.49" waitingTime="0.00" waitingCount="0" stopTime="0.00" timeLoss="41.05" rerouteNo="1" devices="tripinfo_carIn81046:1 routing_carIn81046:1 emissions_carIn81046:1" vType="default_016" speedFactor="1.07" vaporized="">
        <emissions CO_abs="6667.344998" CO2_abs="508381.547549" HC_abs="42.194306" PMx_abs="8.600927" NOx_abs="204.034067" fuel_abs="218.531201" electricity_abs="0"/>
    </tripinfo>
    <tripinfo id="carIn50326:1" depart="57651.00" departLane="128361102#0_1" departPos="5.10" departSpeed="0.00" departDelay="0.30" arrival="57807.00" arrivalLane="18809673#0_1" arrivalPos="473.56" arrivalSpeed="13.41" duration="156.00" routeLength="1591.07" waitingTime="5.00" waitingCount="1" stopTime="0.00" timeLoss="26.52" rerouteNo="1" devices="tripinfo_carIn50326:1 routing_carIn50326:1 emissions_carIn50326:1" vType="default_016" speedFactor="1.00" vaporized="">
        <emissions CO_abs="5055.922696" CO2_abs="344602.937043" HC_abs="31.009829" PMx_abs="5.539288" NOx_abs="136.686191" fuel_abs="148.130756" electricity_abs="0"/>
    </tripinfo>
    <tripinfo id="h3326c1:2" depart="57656.00" departLane="22716069#0_1" departPos="5.10" departSpeed="0.00" departDelay="0.00" arrival="57807.00" arrivalLane="24634517#13_1" arrivalPos="111.62" arrivalSpeed="9.43" duration="151.00" routeLength="1312.81" waitingTime="0.00" waitingCount="0" stopTime="0.00" timeLoss="17.22" rerouteNo="1" devices="tripinfo_h3326c1:2 routing_h3326c1:2 emissions_h3326c1:2" vType="default_016" speedFactor="0.73" vaporized="">
        <emissions CO_abs="4975.050125" CO2_abs="284093.595829" HC_abs="29.189257" PMx_abs="4.441339" NOx_abs="113.442943" fuel_abs="122.120980" electricity_abs="0"/>
    </tripinfo>
    <tripinfo id="carIn118591:1" depart="57689.00" departLane="315358244_1" departPos="5.10" departSpeed="0.00" departDelay="0.20" arrival="57807.00" arrivalLane="386687235_1" arrivalPos="80.84" arrivalSpeed="11.87" duration="118.00" routeLength="1186.14" waitingTime="10.00" waitingCount="1" stopTime="0.00" timeLoss="24.99" rerouteNo="1" devices="tripinfo_carIn118591:1 routing_carIn118591:1 emissions_carIn118591:1" vType="default_016" speedFactor="0.93" vaporized="">
        <emissions CO_abs="4053.500974" CO2_abs="259986.827682" HC_abs="24.492019" PMx_abs="4.142252" NOx_abs="102.776451" fuel_abs="111.758016" electricity_abs="0"/>
    </tripinfo>
    <tripinfo id="carIn82278:1" depart="57702.00" departLane="-306240162#1_0" departPos="5.10" departSpeed="0.00" departDelay="0.70" arrival="57807.00" arrivalLane="399835085#1_1" arrivalPos="212.23" arrivalSpeed="7.85" duration="105.00" routeLength="1093.26" waitingTime="5.00" waitingCount="1" stopTime="0.00" timeLoss="23.10" rerouteNo="1" devices="tripinfo_carIn82278:1 routing_carIn82278:1 emissions_carIn82278:1" vType="default_016" speedFactor="0.95" vaporized="">
        <emissions CO_abs="4774.734317" CO2_abs="274639.711876" HC_abs="28.206867" PMx_abs="5.029075" NOx_abs="112.553948" fuel_abs="118.056153" electricity_abs="0"/>
    </tripinfo>
    <tripinfo id="carIn77438:1" depart="57614.00" departLane="124812856#0_1" departPos="5.10" departSpeed="0.00" departDelay="1.10" arrival="57808.00" arrivalLane="-128361102#1_1" arrivalPos="274.68" arrivalSpeed="15.08" duration="194.00" routeLength="2250.49" waitingTime="0.00" waitingCount="0" stopTime="0.00" timeLoss="44.30" rerouteNo="1" devices="tripinfo_carIn77438:1 routing_carIn77438:1 emissions_carIn77438:1" vType="default_016" speedFactor="1.10" vaporized="">
        <emissions CO_abs="7462.454168" CO2_abs="558741.462549" HC_abs="47.071859" PMx_abs="9.685082" NOx_abs="225.763404" fuel_abs="240.178513" electricity_abs="0"/>
    </tripinfo>
    <tripinfo id="carIn48184:1" depart="57613.00" departLane="-306240162#1_0" departPos="5.10" departSpeed="0.00" departDelay="0.70" arrival="57813.00" arrivalLane="386687235_1" arrivalPos="80.84" arrivalSpeed="14.71" duration="200.00" routeLength="2257.41" waitingTime="25.00" waitingCount="3" stopTime="0.00" timeLoss="62.05" rerouteNo="1" devices="tripinfo_carIn48184:1 routing_carIn48184:1 emissions_carIn48184:1" vType="default_016" speedFactor="1.07" vaporized="">
        <emissions CO_abs="11166.887658" CO2_abs="622547.055982" HC_abs="65.529630" PMx_abs="11.812518" NOx_abs="256.016537" fuel_abs="267.606839" electricity_abs="0"/>
    </tripinfo>
    <tripinfo id="carIn462:1" depart="57622.00" departLane="-306240162#1_0" departPos="5.10" departSpeed="0.00" departDelay="4.80" arrival="57813.00" arrivalLane="386687235_2" arrivalPos="80.84" arrivalSpeed="14.44" duration="191.00" routeLength="2257.41" waitingTime="6.00" waitingCount="1" stopTime="0.00" timeLoss="51.79" rerouteNo="1" devices="tripinfo_carIn462:1 routing_carIn462:1 emissions_carIn462:1" vType="default_016" speedFactor="1.07" vaporized="">
        <emissions CO_abs="8348.806323" CO2_abs="562258.422931" HC_abs="51.305698" PMx_abs="10.292396" NOx_abs="228.517037" fuel_abs="241.690413" electricity_abs="0"/>
    </tripinfo>
    <tripinfo id="carIn82220:1" depart="57619.00" departLane="-306240162#1_0" departPos="5.10" departSpeed="0.00" departDelay="3.50" arrival="57815.00" arrivalLane="386687235_1" arrivalPos="80.84" arrivalSpeed="13.04" duration="196.00" routeLength="2257.41" waitingTime="13.00" waitingCount="3" stopTime="0.00" timeLoss="46.90" rerouteNo="1" devices="tripinfo_carIn82220:1 routing_carIn82220:1 emissions_carIn82220:1" vType="default_016" speedFactor="0.99" vaporized="">
        <emissions CO_abs="7809.108197" CO2_abs="535856.169168" HC_abs="48.169099" PMx_abs="9.403732" NOx_abs="215.268318" fuel_abs="230.341721" electricity_abs="0"/>
    </tripinfo>
    <tripinfo id="carIn80064:1" depart="57603.00" departLane="128361109#1_1" departPos="5.10" departSpeed="0.00" departDelay="0.40" arrival="57816.00" arrivalLane="-315358254#1_1" arrivalPos="137.16" arrivalSpeed="12.52" duration="213.00" routeLength="1587.97" waitingTime="91.00" waitingCount="2" stopTime="0.00" timeLoss="122.44" rerouteNo="1" devices="tripinfo_carIn80064:1 routing_carIn80064:1 emissions_carIn80064:1" vType="default_016" speedFactor="0.99" vaporized="">
        <emissions CO_abs="20207.305073" CO2_abs="676014.515474" HC_abs="108.063773" PMx_abs="14.271465" NOx_abs="288.354660" fuel_abs="290.594875" electricity_abs="0"/>
    </tripinfo>
    <tripinfo id="carIn116184:1" depart="57627.00" departLane="-306240162#1_0" departPos="5.10" departSpeed="0.00" departDelay="0.10" arrival="57816.00" arrivalLane="386687235_2" arrivalPos="80.84" arrivalSpeed="14.27" duration="189.00" routeLength="2257.41" waitingTime="10.00" waitingCount="2" stopTime="0.00" timeLoss="52.81" rerouteNo="1" devices="tripinfo_carIn116184:1 routing_carIn116184:1 emissions_carIn116184:1" vType="default_016" speedFactor="1.09" vaporized="">
        <emissions CO_abs="8451.399188" CO2_abs="567447.611505" HC_abs="51.918698" PMx_abs="10.489704" NOx_abs="230.688212" fuel_abs="243.920947" electricity_abs="0"/>
    </tripinfo>
    <tripinfo id="carIn31257:1" depart="57630.00" departLane="-306240162#1_0" departPos="5.10" departSpeed="0.00" departDelay="1.60" arrival="57817.00" arrivalLane="386687235_2" arrivalPos="80.84" arrivalSpeed="14.25" duration="187.00" routeLength="2257.41" waitingTime="7.00" waitingCount="1" stopTime="0.00" timeLoss="42.83" rerouteNo="1" devices="tripinfo_carIn31257:1 routing_carIn31257:1 emissions_carIn31257:1" vType="default_016" speedFactor="1.03" vaporized="">
        <emissions CO_abs="7713.318049" CO2_abs="533900.698212" HC_abs="47.593804" PMx_abs="9.610146" NOx_abs="216.214525" fuel_abs="229.500677" electricity_abs="0"/>
    </tripinfo>
    <tripinfo id="h16072c2:3" depart="57663.00" departLane="315358254#0_1" departPos="5.10" departSpeed="0.00" departDelay="2.50" arrival="57818.00" arrivalLane="386687235_1" arrivalPos="80.84" arrivalSpeed="12.46" duration="155.00" routeLength="1611.92" waitingTime="1.00" waitingCount="1" stopTime="0.00" timeLoss="26.32" rerouteNo="1" devices="tripinfo_h16072c2:3 routing_h16072c2:3 emissions_h16072c2:3" vType="default_016" speedFactor="0.91" vaporized="">
        <emissions CO_abs="5203.644412" CO2_abs="370899.287333" HC_abs="32.312788" PMx_abs="5.893791" NOx_abs="146.881467" fuel_abs="159.434370" electricity_abs="0"/>
    </tripinfo>
    <tripinfo id="carIn81860:1" depart="57712.00" departLane="128361102#0_1" departPos="5.10" departSpeed="0.00" departDelay="0.60" arrival="57820.00" arrivalLane="-24634517#17_1" arrivalPos="6.43" arrivalSpeed="8.71" duration="108.00" routeLength="1229.64" waitingTime="9.00" waitingCount="1" stopTime="0.00" timeLoss="28.40" rerouteNo="1" devices="tripinfo_carIn81860:1 routing_carIn81860:1 emissions_carIn81860:1" vType="default_016" speedFactor="1.14" vaporized="">
        <emissions CO_abs="4563.912815" CO2_abs="298557.808292" HC_abs="27.728313" PMx_abs="5.426348" NOx_abs="121.704553" fuel_abs="128.337092" electricity_abs="0"/>
    </tripinfo>
    <tripinfo id="h19804c1:3" depart="57617.00" departLane="124812856#0_1" departPos="5.10" departSpeed="0.00" departDelay="1.50" arrival="57824.00" arrivalLane="-128361102#1_1" arrivalPos="274.68" arrivalSpeed="14.70" duration="207.00" routeLength="2250.49" waitingTime="10.00" waitingCount="1" stopTime="0.00" timeLoss="56.80" rerouteNo="1" devices="tripinfo_h19804c1:3 routing_h19804c1:3 emissions_h19804c1:3" vType="default_016" speedFactor="1.10" vaporized="">
        <emissions CO_abs="8811.970726" CO2_abs="577285.176770" HC_abs="53.709521" PMx_abs="10.481491" NOx_abs="236.896226" fuel_abs="248.149804" electricity_abs="0"/>
    </tripinfo>
    <tripinfo id="carIn107842:1" depart="57623.00" departLane="124812856#0_1" departPos="5.10" departSpeed="0.00" departDelay="1.90" arrival="57826.00" arrivalLane="-128361102#1_1" arrivalPos="274.68" arrivalSpeed="14.42" duration="203.00" routeLength="2250.49" waitingTime="9.00" waitingCount="1" stopTime="0.00" timeLoss="49.18" rerouteNo="1" devices="tripinfo_carIn107842:1 routing_carIn107842:1 emissions_carIn107842:1" vType="default_016" speedFactor="1.07" vaporized="">
        <emissions CO_abs="7480.110967" CO2_abs="542408.651521" HC_abs="46.634100" PMx_abs="8.935217" NOx_abs="215.701046" fuel_abs="233.158705" electricity_abs="0"/>
    </tripinfo>
    <tripinfo id="carIn102915:1" depart="57643.00" departLane="128361102#0_1" departPos="5.10" departSpeed="0.00" departDelay="0.40" arrival="57827.00" arrivalLane="201956811#0_1" arrivalPos="40.40" arrivalSpeed="12.07" duration="184.00" routeLength="2067.33" waitingTime="0.00" waitingCount="0" stopTime="0.00" timeLoss="17.47" rerouteNo="1" devices="tripinfo_carIn102915:1 routing_carIn102915:1 emissions_carIn102915:1" vType="default_016" speedFactor="0.91" vaporized="">
        <emissions CO_abs="5072.193239" CO2_abs="409675.516595" HC_abs="32.592935" PMx_abs="6.257331" NOx_abs="160.220733" fuel_abs="176.102526" electricity_abs="0"/>
    </tripinfo>
    <tripinfo id="randUni15030:1" depart="57735.00" departLane="386687232#0_1" departPos="5.10" departSpeed="0.00" departDelay="0.10" arrival="57829.00" arrivalLane="26677539_1" arrivalPos="151.98" arrivalSpeed="8.65" duration="94.00" routeLength="919.89" waitingTime="0.00" waitingCount="0" stopTime="0.00" timeLoss="14.03" rerouteNo="1" devices="tripinfo_randUni15030:1 routing_randUni15030:1 emissions_randUni15030:1" vType="random_016" speedFactor="1.04" vaporized="">
        <emissions CO_abs="3485.633898" CO2_abs="216903.572240" HC_abs="20.932305" PMx_abs="3.653772" NOx_abs="87.617428" fuel_abs="93.237959" electricity_abs="0"/>
    </tripinfo>
    <tripinfo id="h15382c1:3" depart="57626.00" departLane="124812856#0_1" departPos="5.10" departSpeed="0.00" departDelay="3.80" arrival="57830.00" arrivalLane="-128361102#1_1" arrivalPos="274.68" arrivalSpeed="13.26" duration="204.00" routeLength="2250.49" waitingTime="7.00" waitingCount="1" stopTime="0.00" timeLoss="35.71" rerouteNo="1" devices="tripinfo_h15382c1:3 routing_h15382c1:3 emissions_h15382c1:3" vType="default_016" speedFactor="0.98" vaporized="">
        <emissions CO_abs="6488.065420" CO2_abs="476200.513563" HC_abs="40.628564" PMx_abs="7.786841" NOx_abs="189.361413" fuel_abs="204.698601" electricity_abs="0"/>