<?xml version="1.0" encoding="UTF-8"?>

<!-- generated on Thu Nov  4 13:46:43 2021 by Eclipse SUMO sumo Version 1.9.0
<configuration xmlns:xsi="http://www.w3.org/2001/XMLSchema-instance" xsi:noNamespaceSchemaLocation="http://sumo.dlr.de/xsd/sumoConfiguration.xsd">

    <input>
        <net-file value="/mainfs/home/bk2g18/RESCO/environments/ingolstadt21/ingolstadt21.net.xml"/>
        <route-files value="/mainfs/home/bk2g18/RESCO/environments/ingolstadt21/ingolstadt21.rou.xml"/>
    </input>

    <output>
        <tripinfo-output value="/mainfs/home/bk2g18/RESCO/logs/MPLight-tr0-ingolstadt21-21-mplight-pressure/tripinfo_61.xml"/>
        <tripinfo-output.write-unfinished value="true"/>
    </output>

    <time>
        <begin value="57600"/>
        <end value="61200"/>
    </time>

    <processing>
        <time-to-teleport value="-1"/>
    </processing>

    <report>
        <xml-validation value="never"/>
        <xml-validation.routes value="never"/>
        <no-warnings value="true"/>
        <no-step-log value="true"/>
    </report>

    <emissions>
        <device.emissions.probability value="1"/>
    </emissions>

    <traci_server>
        <remote-port value="44205"/>
    </traci_server>

    <random_number>
        <random value="true"/>
    </random_number>

</configuration>
-->

<tripinfos xmlns:xsi="http://www.w3.org/2001/XMLSchema-instance" xsi:noNamespaceSchemaLocation="http://sumo.dlr.de/xsd/tripinfo_file.xsd">
    <tripinfo id="h15454c2:3" depart="57612.00" departLane="24608844_1" departPos="5.10" departSpeed="0.00" departDelay="0.50" arrival="57651.00" arrivalLane="32978638#0_1" arrivalPos="49.29" arrivalSpeed="13.74" duration="39.00" routeLength="354.79" waitingTime="0.00" waitingCount="0" stopTime="0.00" timeLoss="5.61" rerouteNo="1" devices="tripinfo_h15454c2:3 routing_h15454c2:3 emissions_h15454c2:3" vType="default_016" speedFactor="1.02" vaporized="">
        <emissions CO_abs="1928.668853" CO2_abs="110525.652623" HC_abs="11.375035" PMx_abs="1.972653" NOx_abs="45.527790" fuel_abs="47.510394" electricity_abs="0"/>
    </tripinfo>
    <tripinfo id="carIn60260:1" depart="57606.00" departLane="315358254#0_1" departPos="5.10" departSpeed="0.00" departDelay="0.90" arrival="57658.00" arrivalLane="399835085#1_1" arrivalPos="212.23" arrivalSpeed="8.84" duration="52.00" routeLength="430.98" waitingTime="2.00" waitingCount="1" stopTime="0.00" timeLoss="11.48" rerouteNo="1" devices="tripinfo_carIn60260:1 routing_carIn60260:1 emissions_carIn60260:1" vType="default_016" speedFactor="1.14" vaporized="">
        <emissions CO_abs="2346.049011" CO2_abs="124965.763253" HC_abs="13.587372" PMx_abs="2.128466" NOx_abs="50.965358" fuel_abs="53.717880" electricity_abs="0"/>
    </tripinfo>
    <tripinfo id="carIn53971:1" depart="57640.00" departLane="272042143_1" departPos="5.10" departSpeed="0.00" departDelay="0.80" arrival="57690.00" arrivalLane="24634414#1_1" arrivalPos="162.19" arrivalSpeed="8.93" duration="50.00" routeLength="493.04" waitingTime="0.00" waitingCount="0" stopTime="0.00" timeLoss="8.73" rerouteNo="1" devices="tripinfo_carIn53971:1 routing_carIn53971:1 emissions_carIn53971:1" vType="default_016" speedFactor="1.11" vaporized="">
        <emissions CO_abs="2508.499844" CO2_abs="152654.084217" HC_abs="15.008404" PMx_abs="2.712343" NOx_abs="62.642573" fuel_abs="65.619562" electricity_abs="0"/>
    </tripinfo>
    <tripinfo id="carIn22761:1" depart="57616.00" departLane="-306240162#1_0" departPos="5.10" departSpeed="0.00" departDelay="2.10" arrival="57721.00" arrivalLane="399835085#1_1" arrivalPos="212.23" arrivalSpeed="8.62" duration="105.00" routeLength="1093.26" waitingTime="14.00" waitingCount="1" stopTime="0.00" timeLoss="33.80" rerouteNo="1" devices="tripinfo_carIn22761:1 routing_carIn22761:1 emissions_carIn22761:1" vType="default_016" speedFactor="1.10" vaporized="">
        <emissions CO_abs="6447.112980" CO2_abs="335027.350697" HC_abs="37.277619" PMx_abs="6.598300" NOx_abs="138.824550" fuel_abs="144.014246" electricity_abs="0"/>
    </tripinfo>
    <tripinfo id="h12244c1:3" depart="57612.00" departLane="315358244_1" departPos="5.10" departSpeed="0.00" departDelay="0.40" arrival="57725.00" arrivalLane="386687235_1" arrivalPos="80.84" arrivalSpeed="16.06" duration="113.00" routeLength="1186.14" waitingTime="14.00" waitingCount="2" stopTime="0.00" timeLoss="42.62" rerouteNo="1" devices="tripinfo_h12244c1:3 routing_h12244c1:3 emissions_h12244c1:3" vType="default_016" speedFactor="1.24" vaporized="">
        <emissions CO_abs="5824.591318" CO2_abs="348534.734354" HC_abs="34.604471" PMx_abs="6.543400" NOx_abs="143.084703" fuel_abs="149.820142" electricity_abs="0"/>
    </tripinfo>
    <tripinfo id="h7800c1:5" depart="57696.00" departLane="-447569998#1_1" departPos="5.10" departSpeed="0.00" departDelay="0.00" arrival="57725.00" arrivalLane="-447569998#1_1" arrivalPos="180.76" arrivalSpeed="6.78" duration="29.00" routeLength="175.66" waitingTime="0.00" waitingCount="0" stopTime="0.00" timeLoss="4.08" rerouteNo="1" devices="tripinfo_h7800c1:5 routing_h7800c1:5 emissions_h7800c1:5" vType="default_016" speedFactor="0.87" vaporized="">
        <emissions CO_abs="1388.503973" CO2_abs="51781.932239" HC_abs="7.499680" PMx_abs="0.830317" NOx_abs="21.033552" fuel_abs="22.259431" electricity_abs="0"/>
    </tripinfo>
    <tripinfo id="carIn121703:1" depart="57647.00" departLane="386687232#0_1" departPos="5.10" departSpeed="0.00" departDelay="0.30" arrival="57730.00" arrivalLane="-315358244_1" arrivalPos="33.95" arrivalSpeed="15.14" duration="83.00" routeLength="1157.39" waitingTime="0.00" waitingCount="0" stopTime="0.00" timeLoss="8.38" rerouteNo="1" devices="tripinfo_carIn121703:1 routing_carIn121703:1 emissions_carIn121703:1" vType="default_016" speedFactor="1.12" vaporized="">
        <emissions CO_abs="2178.158992" CO2_abs="203939.263942" HC_abs="14.497434" PMx_abs="3.282163" NOx_abs="79.429457" fuel_abs="87.664592" electricity_abs="0"/>
    </tripinfo>
    <tripinfo id="S5R_frequency1.2" depart="57634.00" departLane="315358250#0_1" departPos="12.10" departSpeed="0.00" departDelay="22.40" arrival="57731.00" arrivalLane="386687235_1" arrivalPos="80.84" arrivalSpeed="13.60" duration="97.00" routeLength="1115.62" waitingTime="0.00" waitingCount="0" stopTime="0.00" timeLoss="15.55" rerouteNo="1" devices="tripinfo_S5R_frequency1.2 routing_S5R_frequency1.2 emissions_S5R_frequency1.2" vType="bus" speedFactor="1.00" vaporized="">
        <emissions CO_abs="2063.844407" CO2_abs="1318379.117785" HC_abs="427.082503" PMx_abs="221.395761" NOx_abs="10169.346364" fuel_abs="562.275582" electricity_abs="0"/>
    </tripinfo>
    <tripinfo id="h3688c1:1" depart="57625.00" departLane="201201950#1_1" departPos="5.10" departSpeed="0.00" departDelay="0.00" arrival="57734.00" arrivalLane="32978638#0_1" arrivalPos="49.29" arrivalSpeed="11.65" duration="109.00" routeLength="1089.75" waitingTime="4.00" waitingCount="1" stopTime="0.00" timeLoss="20.38" rerouteNo="1" devices="tripinfo_h3688c1:1 routing_h3688c1:1 emissions_h3688c1:1" vType="default_016" speedFactor="0.90" vaporized="">
        <emissions CO_abs="3638.320619" CO2_abs="244703.853170" HC_abs="22.259855" PMx_abs="3.977930" NOx_abs="97.749799" fuel_abs="105.188147" electricity_abs="0"/>
    </tripinfo>
    <tripinfo id="h317c2:1" depart="57707.00" departLane="-32978638#0_1" departPos="5.10" departSpeed="0.00" departDelay="0.10" arrival="57742.00" arrivalLane="-266565295#5_1" arrivalPos="172.76" arrivalSpeed="16.18" duration="35.00" routeLength="370.53" waitingTime="1.00" waitingCount="1" stopTime="0.00" timeLoss="11.41" rerouteNo="1" devices="tripinfo_h317c2:1 routing_h317c2:1 emissions_h317c2:1" vType="default_016" speedFactor="1.17" vaporized="">
        <emissions CO_abs="2324.289528" CO2_abs="141126.123623" HC_abs="13.918510" PMx_abs="2.693585" NOx_abs="58.708091" fuel_abs="60.663935" electricity_abs="0"/>
    </tripinfo>
    <tripinfo id="h4538c1:1" depart="57701.00" departLane="-10427692#1_1" departPos="5.10" departSpeed="0.00" departDelay="0.00" arrival="57744.00" arrivalLane="-128361102#1_1" arrivalPos="274.68" arrivalSpeed="14.29" duration="43.00" routeLength="440.74" waitingTime="2.00" waitingCount="1" stopTime="0.00" timeLoss="13.23" rerouteNo="1" devices="tripinfo_h4538c1:1 routing_h4538c1:1 emissions_h4538c1:1" vType="default_016" speedFactor="1.07" vaporized="">
        <emissions CO_abs="1918.113268" CO2_abs="121251.769596" HC_abs="11.572007" PMx_abs="2.133899" NOx_abs="49.210197" fuel_abs="52.121037" electricity_abs="0"/>
    </tripinfo>
    <tripinfo id="h7181c1:1" depart="57660.00" departLane="315358254#0_1" departPos="5.10" departSpeed="0.00" departDelay="0.10" arrival="57747.00" arrivalLane="306240162#0_0" arrivalPos="220.43" arrivalSpeed="15.27" duration="87.00" routeLength="932.35" waitingTime="15.00" waitingCount="1" stopTime="0.00" timeLoss="31.95" rerouteNo="1" devices="tripinfo_h7181c1:1 routing_h7181c1:1 emissions_h7181c1:1" vType="default_016" speedFactor="0.95" vaporized="">
        <emissions CO_abs="5738.758822" CO2_abs="309786.862357" HC_abs="33.372945" PMx_abs="6.132901" NOx_abs="129.066707" fuel_abs="133.164108" electricity_abs="0"/>
    </tripinfo>
    <tripinfo id="carIn30817:1" depart="57681.00" departLane="315358244_1" departPos="5.10" departSpeed="0.00" departDelay="0.20" arrival="57749.00" arrivalLane="447569997#1_1" arrivalPos="180.93" arrivalSpeed="8.98" duration="68.00" routeLength="718.04" waitingTime="0.00" waitingCount="0" stopTime="0.00" timeLoss="11.36" rerouteNo="1" devices="tripinfo_carIn30817:1 routing_carIn30817:1 emissions_carIn30817:1" vType="default_016" speedFactor="1.09" vaporized="">
        <emissions CO_abs="2554.433957" CO2_abs="161807.437543" HC_abs="15.319302" PMx_abs="2.669555" NOx_abs="64.601112" fuel_abs="69.554460" electricity_abs="0"/>
    </tripinfo>
    <tripinfo id="carIn80064:1" depart="57603.00" departLane="128361109#1_1" departPos="5.10" departSpeed="0.00" departDelay="0.40" arrival="57756.00" arrivalLane="-315358254#1_1" arrivalPos="137.16" arrivalSpeed="14.96" duration="153.00" routeLength="1587.97" waitingTime="35.00" waitingCount="3" stopTime="0.00" timeLoss="73.01" rerouteNo="1" devices="tripinfo_carIn80064:1 routing_carIn80064:1 emissions_carIn80064:1" vType="default_016" speedFactor="1.11" vaporized="">
        <emissions CO_abs="11555.630469" CO2_abs="578999.741632" HC_abs="66.396441" PMx_abs="11.857345" NOx_abs="242.278869" fuel_abs="248.887494" electricity_abs="0"/>
    </tripinfo>
    <tripinfo id="h3568c1:3" depart="57656.00" departLane="266565295#5_1" departPos="5.10" departSpeed="0.00" departDelay="0.80" arrival="57765.00" arrivalLane="-24634415_1" arrivalPos="62.03" arrivalSpeed="10.01" duration="109.00" routeLength="807.40" waitingTime="5.00" waitingCount="1" stopTime="0.00" timeLoss="25.11" rerouteNo="1" devices="tripinfo_h3568c1:3 routing_h3568c1:3 emissions_h3568c1:3" vType="default_016" speedFactor="0.78" vaporized="">
        <emissions CO_abs="4307.492042" CO2_abs="219184.641533" HC_abs="24.692147" PMx_abs="3.695209" NOx_abs="89.370285" fuel_abs="94.219080" electricity_abs="0"/>
    </tripinfo>
    <tripinfo id="h330c1:1" depart="57736.00" departLane="-32978638#0_1" departPos="5.10" departSpeed="0.00" departDelay="0.20" arrival="57766.00" arrivalLane="-266565295#5_1" arrivalPos="172.76" arrivalSpeed="16.40" duration="30.00" routeLength="370.53" waitingTime="0.00" waitingCount="0" stopTime="0.00" timeLoss="6.25" rerouteNo="1" devices="tripinfo_h330c1:1 routing_h330c1:1 emissions_h330c1:1" vType="default_016" speedFactor="1.19" vaporized="">
        <emissions CO_abs="1778.034697" CO2_abs="122083.572233" HC_abs="10.845042" PMx_abs="2.219615" NOx_abs="49.754090" fuel_abs="52.478356" electricity_abs="0"/>
    </tripinfo>
    <tripinfo id="h5979c1:5" depart="57669.00" departLane="399835085#1_1" departPos="5.10" departSpeed="0.00" departDelay="0.00" arrival="57769.00" arrivalLane="-315358254#1_1" arrivalPos="137.16" arrivalSpeed="11.89" duration="100.00" routeLength="659.33" waitingTime="7.00" waitingCount="1" stopTime="0.00" timeLoss="19.93" rerouteNo="1" devices="tripinfo_h5979c1:5 routing_h5979c1:5 emissions_h5979c1:5" vType="default_016" speedFactor="0.91" vaporized="">
        <emissions CO_abs="4352.375946" CO2_abs="183659.240084" HC_abs="24.031357" PMx_abs="3.018801" NOx_abs="74.678840" fuel_abs="78.948795" electricity_abs="0"/>
    </tripinfo>
    <tripinfo id="carIn27009:1" depart="57673.00" departLane="-447569998#1_1" departPos="5.10" departSpeed="0.00" departDelay="0.50" arrival="57776.00" arrivalLane="-26677539_1" arrivalPos="152.75" arrivalSpeed="9.10" duration="103.00" routeLength="699.63" waitingTime="14.00" waitingCount="1" stopTime="0.00" timeLoss="29.04" rerouteNo="1" devices="tripinfo_carIn27009:1 routing_carIn27009:1 emissions_carIn27009:1" vType="default_015" speedFactor="1.13" vaporized="">
        <emissions CO_abs="5655.293113" CO2_abs="231118.162654" HC_abs="31.090950" PMx_abs="4.005965" NOx_abs="95.073793" fuel_abs="99.349615" electricity_abs="0"/>
    </tripinfo>
    <tripinfo id="h9563c2:5" depart="57631.00" departLane="315358244_1" departPos="5.10" departSpeed="0.00" departDelay="0.70" arrival="57778.00" arrivalLane="386687235_1" arrivalPos="80.84" arrivalSpeed="10.79" duration="147.00" routeLength="1186.14" waitingTime="25.00" waitingCount="1" stopTime="0.00" timeLoss="37.96" rerouteNo="1" devices="tripinfo_h9563c2:5 routing_h9563c2:5 emissions_h9563c2:5" vType="default_016" speedFactor="0.79" vaporized="">
        <emissions CO_abs="6410.365480" CO2_abs="275276.387811" HC_abs="35.528564" PMx_abs="4.537771" NOx_abs="110.782644" fuel_abs="118.331869" electricity_abs="0"/>
    </tripinfo>
    <tripinfo id="carIn86816:1" depart="57617.00" departLane="128361102#0_1" departPos="5.10" departSpeed="0.00" departDelay="0.80" arrival="57780.00" arrivalLane="201956811#0_1" arrivalPos="40.40" arrivalSpeed="16.34" duration="163.00" routeLength="2067.33" waitingTime="11.00" waitingCount="2" stopTime="0.00" timeLoss="39.05" rerouteNo="1" devices="tripinfo_carIn86816:1 routing_carIn86816:1 emissions_carIn86816:1" vType="default_016" speedFactor="1.22" vaporized="">
        <emissions CO_abs="6734.384640" CO2_abs="515297.001172" HC_abs="42.403154" PMx_abs="9.145740" NOx_abs="206.620861" fuel_abs="221.503415" electricity_abs="0"/>
    </tripinfo>
    <tripinfo id="carIn118591:1" depart="57689.00" departLane="315358244_1" departPos="5.10" departSpeed="0.00" departDelay="0.20" arrival="57780.00" arrivalLane="386687235_1" arrivalPos="80.84" arrivalSpeed="13.89" duration="91.00" routeLength="1186.14" waitingTime="0.00" waitingCount="0" stopTime="0.00" timeLoss="8.81" rerouteNo="1" devices="tripinfo_carIn118591:1 routing_carIn118591:1 emissions_carIn118591:1" vType="default_016" speedFactor="1.05" vaporized="">
        <emissions CO_abs="2412.994686" CO2_abs="221746.842999" HC_abs="16.126687" PMx_abs="3.459706" NOx_abs="86.078396" fuel_abs="95.319490" electricity_abs="0"/>
    </tripinfo>
    <tripinfo id="h645c1:1" depart="57622.00" departLane="266565295#5_1" departPos="5.10" departSpeed="0.00" departDelay="0.40" arrival="57786.00" arrivalLane="-315358244_1" arrivalPos="33.95" arrivalSpeed="13.19" duration="164.00" routeLength="1910.83" waitingTime="8.00" waitingCount="1" stopTime="0.00" timeLoss="25.80" rerouteNo="1" devices="tripinfo_h645c1:1 routing_h645c1:1 emissions_h645c1:1" vType="default_016" speedFactor="1.00" vaporized="">
        <emissions CO_abs="4563.922893" CO2_abs="355847.465078" HC_abs="29.061201" PMx_abs="5.669878" NOx_abs="139.593228" fuel_abs="152.963963" electricity_abs="0"/>
    </tripinfo>
    <tripinfo id="carIn12365:1" depart="57713.00" departLane="315358244_1" departPos="5.10" departSpeed="0.00" departDelay="0.50" arrival="57787.00" arrivalLane="447569997#1_1" arrivalPos="180.93" arrivalSpeed="7.30" duration="74.00" routeLength="718.04" waitingTime="0.00" waitingCount="0" stopTime="0.00" timeLoss="8.30" rerouteNo="1" devices="tripinfo_carIn12365:1 routing_carIn12365:1 emissions_carIn12365:1" vType="default_016" speedFactor="0.93" vaporized="">
        <emissions CO_abs="2447.129565" CO2_abs="148701.197230" HC_abs="14.575474" PMx_abs="2.324471" NOx_abs="58.917170" fuel_abs="63.920876" electricity_abs="0"/>
    </tripinfo>
    <tripinfo id="carIn107084:1" depart="57601.00" departLane="124812856#0_1" departPos="5.10" departSpeed="0.00" departDelay="0.70" arrival="57788.00" arrivalLane="-128361102#1_1" arrivalPos="274.68" arrivalSpeed="13.17" duration="187.00" routeLength="2250.49" waitingTime="0.00" waitingCount="0" stopTime="0.00" timeLoss="16.94" rerouteNo="1" devices="tripinfo_carIn107084:1 routing_carIn107084:1 emissions_carIn107084:1" vType="default_016" speedFactor="0.96" vaporized="">
        <emissions CO_abs="4786.824326" CO2_abs="424158.355294" HC_abs="31.654276" PMx_abs="6.503751" NOx_abs="165.109240" fuel_abs="182.327758" electricity_abs="0"/>
    </tripinfo>
    <tripinfo id="h3326c1:2" depart="57656.00" departLane="22716069#0_1" departPos="5.10" departSpeed="0.00" departDelay="0.00" arrival="57791.00" arrivalLane="24634517#13_1" arrivalPos="111.62" arrivalSpeed="11.70" duration="135.00" routeLength="1312.81" waitingTime="4.00" waitingCount="1" stopTime="0.00" timeLoss="21.69" rerouteNo="1" devices="tripinfo_h3326c1:2 routing_h3326c1:2 emissions_h3326c1:2" vType="default_016" speedFactor="0.86" vaporized="">
        <emissions CO_abs="4719.319953" CO2_abs="312843.961198" HC_abs="28.735637" PMx_abs="4.947538" NOx_abs="124.277746" fuel_abs="134.479032" electricity_abs="0"/>
    </tripinfo>
    <tripinfo id="carIn107282:1" depart="57749.00" departLane="-447569998#1_1" departPos="5.10" departSpeed="0.00" departDelay="0.00" arrival="57799.00" arrivalLane="315358242#0_1" arrivalPos="165.37" arrivalSpeed="12.83" duration="50.00" routeLength="448.50" waitingTime="0.00" waitingCount="0" stopTime="0.00" timeLoss="5.09" rerouteNo="1" devices="tripinfo_carIn107282:1 routing_carIn107282:1 emissions_carIn107282:1" vType="default_016" speedFactor="0.94" vaporized="">
        <emissions CO_abs="1838.327674" CO2_abs="106155.704969" HC_abs="10.827324" PMx_abs="1.713427" NOx_abs="42.509820" fuel_abs="45.632204" electricity_abs="0"/>
    </tripinfo>
    <tripinfo id="carIn50326:1" depart="57651.00" departLane="128361102#0_1" departPos="5.10" departSpeed="0.00" departDelay="0.30" arrival="57811.00" arrivalLane="18809673#0_1" arrivalPos="473.56" arrivalSpeed="12.49" duration="160.00" routeLength="1591.07" waitingTime="7.00" waitingCount="1" stopTime="0.00" timeLoss="25.41" rerouteNo="1" devices="tripinfo_carIn50326:1 routing_carIn50326:1 emissions_carIn50326:1" vType="default_016" speedFactor="0.97" vaporized="">
        <emissions CO_abs="5096.927164" CO2_abs="344233.083421" HC_abs="31.166226" PMx_abs="5.391785" NOx_abs="135.804127" fuel_abs="147.972010" electricity_abs="0"/>
    </tripinfo>
    <tripinfo id="carIn102915:1" depart="57643.00" departLane="128361102#0_1" departPos="5.10" departSpeed="0.00" departDelay="0.40" arrival="57813.00" arrivalLane="201956811#0_1" arrivalPos="40.40" arrivalSpeed="14.50" duration="170.00" routeLength="2067.33" waitingTime="11.00" waitingCount="1" stopTime="0.00" timeLoss="36.19" rerouteNo="1" devices="tripinfo_carIn102915:1 routing_carIn102915:1 emissions_carIn102915:1" vType="default_016" speedFactor="1.13" vaporized="">
        <emissions CO_abs="7130.307481" CO2_abs="503042.255623" HC_abs="44.056898" PMx_abs="8.830637" NOx_abs="202.287638" fuel_abs="216.236175" electricity_abs="0"/>
    </tripinfo>
    <tripinfo id="randUni33724:1" depart="57646.00" departLane="128361102#0_1" departPos="5.10" departSpeed="0.00" departDelay="1.20" arrival="57817.00" arrivalLane="201956811#0_1" arrivalPos="40.40" arrivalSpeed="12.67" duration="171.00" routeLength="2067.33" waitingTime="0.00" waitingCount="0" stopTime="0.00" timeLoss="17.62" rerouteNo="1" devices="tripinfo_randUni33724:1 routing_randUni33724:1 emissions_randUni33724:1" vType="random_016" speedFactor="0.99" vaporized="">
        <emissions CO_abs="4670.975039" CO2_abs="421805.397404" HC_abs="31.033427" PMx_abs="6.392772" NOx_abs="163.450192" fuel_abs="181.316380" electricity_abs="0"/>
    </tripinfo>
    <tripinfo id="carIn77943:1" depart="57608.00" departLane="124812856#0_1" departPos="5.10" departSpeed="0.00" departDelay="2.50" arrival="57818.00" arrivalLane="-128361102#1_1" arrivalPos="274.68" arrivalSpeed="12.82" duration="210.00" routeLength="2250.49" waitingTime="10.00" waitingCount="1" stopTime="0.00" timeLoss="33.57" rerouteNo="1" devices="tripinfo_carIn77943:1 routing_carIn77943:1 emissions_carIn77943:1" vType="default_016" speedFactor="0.93" vaporized="">
        <emissions CO_abs="6432.187081" CO2_abs="478319.302402" HC_abs="40.385984" PMx_abs="7.419336" NOx_abs="187.493030" fuel_abs="205.609940" electricity_abs="0"/>
    </tripinfo>
    <tripinfo id="carIn81046:1" depart="57611.00" departLane="124812856#0_1" departPos="5.10" departSpeed="0.00" departDelay="2.50" arrival="57822.00" arrivalLane="-128361102#1_1" arrivalPos="274.68" arrivalSpeed="11.76" duration="211.00" routeLength="2250.49" waitingTime="1.00" waitingCount="1" stopTime="0.00" timeLoss="25.43" rerouteNo="1" devices="tripinfo_carIn81046:1 routing_carIn81046:1 emissions_carIn81046:1" vType="default_016" speedFactor="0.88" vaporized="">
        <emissions CO_abs="5965.529694" CO2_abs="471217.535358" HC_abs="38.037287" PMx_abs="6.970783" NOx_abs="182.980256" fuel_abs="202.557332" electricity_abs="0"/>
    </tripinfo>
    <tripinfo id="carIn77438:1" depart="57614.00" departLane="124812856#0_1" departPos="5.10" departSpeed="0.00" departDelay="1.10" arrival="57824.00" arrivalLane="-128361102#1_1" arrivalPos="274.68" arrivalSpeed="14.92" duration="210.00" routeLength="2250.49" waitingTime="1.00" waitingCount="1" stopTime="0.00" timeLoss="60.89" rerouteNo="1" devices="tripinfo_carIn77438:1 routing_carIn77438:1 emissions_carIn77438:1" vType="default_016" speedFactor="1.10" vaporized="">
        <emissions CO_abs="7761.242593" CO2_abs="552742.249056" HC_abs="48.270478" PMx_abs="9.253537" NOx_abs="222.199526" fuel_abs="237.600449" electricity_abs="0"/>
    </tripinfo>
    <tripinfo id="randUni15030:1" depart="57735.00" departLane="386687232#0_1" departPos="5.10" departSpeed="0.00" departDelay="0.10" arrival="57824.00" arrivalLane="26677539_1" arrivalPos="151.98" arrivalSpeed="8.51" duration="89.00" routeLength="919.89" waitingTime="0.00" waitingCount="0" stopTime="0.00" timeLoss="10.16" rerouteNo="1" devices="tripinfo_randUni15030:1 routing_randUni15030:1 emissions_randUni15030:1" vType="random_016" speedFactor="1.06" vaporized="">
        <emissions CO_abs="3302.472252" CO2_abs="221265.176729" HC_abs="20.162827" PMx_abs="3.557709" NOx_abs="87.846895" fuel_abs="95.112919" electricity_abs="0"/>
    </tripinfo>
    <tripinfo id="h11737c1:1" depart="57665.00" departLane="272042143_1" departPos="5.10" departSpeed="0.00" departDelay="1.50" arrival="57828.00" arrivalLane="-315358254#1_1" arrivalPos="137.16" arrivalSpeed="11.85" duration="163.00" routeLength="1596.88" waitingTime="17.00" waitingCount="1" stopTime="0.00" timeLoss="38.23" rerouteNo="1" devices="tripinfo_h11737c1:1 routing_h11737c1:1 emissions_h11737c1:1" vType="default_016" speedFactor="0.94" vaporized="">
        <emissions CO_abs="6019.887991" CO2_abs="371597.564532" HC_abs="36.026631" PMx_abs="5.885533" NOx_abs="146.419988" fuel_abs="159.735314" electricity_abs="0"/>
    </tripinfo>
    <tripinfo id="carIn126288:1" depart="57674.00" departLane="272042143_1" departPos="5.10" departSpeed="0.00" departDelay="0.00" arrival="57829.00" arrivalLane="-315358254#1_1" arrivalPos="137.16" arrivalSpeed="13.62" duration="155.00" routeLength="1596.88" waitingTime="17.00" waitingCount="1" stopTime="0.00" timeLoss="40.40" rerouteNo="1" devices="tripinfo_carIn126288:1 routing_carIn126288:1 emissions_carIn126288:1" vType="default_016" speedFactor="1.01" vaporized="">
        <emissions CO_abs="6022.117119" CO2_abs="366633.157288" HC_abs="35.994690" PMx_abs="6.252237" NOx_abs="147.487658" fuel_abs="157.600682" electricity_abs="0"/>
    </tripinfo>
    <tripinfo id="carIn46110:1" depart="57684.00" departLane="315358244_1" departPos="5.10" departSpeed="0.00" departDelay="1.20" arrival="57830.00" arrivalLane="32978638#0_1" arrivalPos="49.29" arrivalSpeed="14.35" duration="146.00" routeLength="1764.04" waitingTime="9.00" waitingCount="1" stopTime="0.00" timeLoss="25.26" rerouteNo="1" devices="tripinfo_carIn46110:1 routing_carIn46110:1 emissions_carIn46110:1" vType="default_016" speedFactor="1.06" vaporized="">
        <emissions CO_abs="5303.689680" CO2_abs="385637.380640" HC_abs="33.076478" PMx_abs="6.372772" NOx_abs="152.190193" fuel_abs="165.769403" electricity_abs="0"/>
    </tripinfo>
    <tripinfo id="h17549c1:1" depart="57680.00" departLane="-447569998#1_1" departPos="5.10" departSpeed="0.00" departDelay="0.00" arrival="57832.00" arrivalLane="-315358254#1_1" arrivalPos="137.16" arrivalSpeed="14.87" duration="152.00" routeLength="1746.60" waitingTime="9.00" waitingCount="2" stopTime="0.00" timeLoss="29.23" rerouteNo="1" devices="tripinfo_h17549c1:1 routing_h17549c1:1 emissions_h17549c1:1" vType="default_016" speedFactor="1.12" vaporized="">
        <emissions CO_abs="5051.341869" CO2_abs="377600.954040" HC_abs="31.532161" PMx_abs="6.154254" NOx_abs="148.498251" fuel_abs="162.314848" electricity_abs="0"/>
    </tripinfo>
    <tripinfo id="h6541c1:3" depart="57727.00" departLane="201950247#3_1" departPos="5.10" departSpeed="0.00" departDelay="0.00" arrival="57832.00" arrivalLane="32978638#0_1" arrivalPos="49.29" arrivalSpeed="16.35" duration="105.00" routeLength="1176.17" waitingTime="1.00" waitingCount="1" stopTime="0.00" timeLoss="21.63" rerouteNo="1" devices="tripinfo_h6541c1:3 routing_h6541c1:3 emissions_h6541c1:3" vType="default_016" speedFactor="1.23" vaporized="">
        <emissions CO_abs="4511.800587" CO2_abs="300231.182999" HC_abs="27.573583" PMx_abs="5.394286" NOx_abs="122.438526" fuel_abs="129.056396" electricity_abs="0"/>
    </tripinfo>
    <tripinfo id="carIn129809:1" depart="57729.00" departLane="-447569998#1_1" departPos="5.10" departSpeed="0.00" departDelay="1.00" arrival="57833.00" arrivalLane="-315358244_1" arrivalPos="33.95" arrivalSpeed="13.27" duration="104.00" routeLength="706.49" waitingTime="25.00" waitingCount="2" stopTime="0.00" timeLoss="41.57" rerouteNo="1" devices="tripinfo_carIn129809:1 routing_carIn129809:1 emissions_carIn129809:1" vType="default_015" speedFactor="0.97" vaporized="">
        <emissions CO_abs="5869.774391" CO2_abs="225443.981194" HC_abs="32.000177" PMx_abs="4.239112" NOx_abs="94.184577" fuel_abs="96.910352" electricity_abs="0"/>
    </tripinfo>
    <tripinfo id="carIn8642:1" depart="57774.00" departLane="-447569998#1_1" departPos="5.10" departSpeed="0.00" departDelay="0.90" arrival="57835.00" arrivalLane="-315358244_1" arrivalPos="33.95" arrivalSpeed="14.91" duration="61.00" routeLength="706.49" waitingTime="0.00" waitingCount="0" stopTime="0.00" timeLoss="6.43" rerouteNo="1" devices="tripinfo_carIn8642:1 routing_carIn8642:1 emissions_carIn8642:1" vType="default_016" speedFactor="1.11" vaporized="">
        <emissions CO_abs="2185.412649" CO2_abs="161809.920647" HC_abs="13.740795" PMx_abs="2.722266" NOx_abs="64.629943" fuel_abs="69.555178" electricity_abs="0"/>
    </tripinfo>
    <tripinfo id="h17600c1:1" depart="57662.00" departLane="272042143_1" departPos="5.10" departSpeed="0.00" departDelay="0.30" arrival="57839.00" arrivalLane="201238729#3_1" arrivalPos="431.02" arrivalSpeed="14.20" duration="177.00" routeLength="2100.26" waitingTime="16.00" waitingCount="2" stopTime="0.00" timeLoss="38.30" rerouteNo="1" devices="tripinfo_h17600c1:1 routing_h17600c1:1 emissions_h17600c1:1" vType="default_016" speedFactor="1.10" vaporized="">
        <emissions CO_abs="5810.871244" CO2_abs="457530.225109" HC_abs="36.887746" PMx_abs="7.397111" NOx_abs="178.850417" fuel_abs="196.673011" electricity_abs="0"/>
    </tripinfo>
    <tripinfo id="h3864c1:3" depart="57678.00" departLane="24693977#1_1" departPos="5.10" departSpeed="0.00" departDelay="0.00" arrival="57839.00" arrivalLane="201956820_2" arrivalPos="48.33" arrivalSpeed="12.51" duration="161.00" routeLength="1574.85" waitingTime="4.00" waitingCount="1" stopTime="0.00" timeLoss="29.85" rerouteNo="1" devices="tripinfo_h3864c1:3 routing_h3864c1:3 emissions_h3864c1:3" vType="default_016" speedFactor="0.99" vaporized="">
        <emissions CO_abs="6343.395737" CO2_abs="388730.101408" HC_abs="37.986092" PMx_abs="6.745077" NOx_abs="158.487663" fuel_abs="167.098907" electricity_abs="0"/>
    </tripinfo>
    <tripinfo id="carIn12152:1" depart="57647.00" departLane="24599188#0.94_1" departPos="5.10" departSpeed="0.00" departDelay="0.50" arrival="57841.00" arrivalLane="-315358254#1_1" arrivalPos="137.16" arrivalSpeed="14.07" duration="194.00" routeLength="2034.31" waitingTime="14.00" waitingCount="2" stopTime="0.00" timeLoss="38.43" rerouteNo="1" devices="tripinfo_carIn12152:1 routing_carIn12152:1 emissions_carIn12152:1" vType="default_016" speedFactor="1.02" vaporized="">
        <emissions CO_abs="6347.478886" CO2_abs="455819.173854" HC_abs="39.474498" PMx_abs="7.319165" NOx_abs="179.697613" fuel_abs="195.937910" electricity_abs="0"/>
    </tripinfo>
    <tripinfo id="h16072c2:3" depart="57663.00" departLane="315358254#0_1" departPos="5.10" departSpeed="0.00" departDelay="2.50" arrival="57843.00" arrivalLane="386687235_1" arrivalPos="80.84" arrivalSpeed="12.58" duration="180.00" routeLength="1611.92" waitingTime="37.00" waitingCount="3" stopTime="0.00" timeLoss="60.39" rerouteNo="1" devices="tripinfo_h16072c2:3 routing_h16072c2:3 emissions_h16072c2:3" vType="default_016" speedFactor="0.98" vaporized="">
        <emissions CO_abs="8266.811118" CO2_abs="407845.193808" HC_abs="47.147718" PMx_abs="7.137290" NOx_abs="165.417367" fuel_abs="175.317102" electricity_abs="0"/>
    </tripinfo>