<?xml version="1.0" encoding="UTF-8"?>

<!-- generated on Thu Nov  4 13:22:55 2021 by Eclipse SUMO sumo Version 1.9.0
<configuration xmlns:xsi="http://www.w3.org/2001/XMLSchema-instance" xsi:noNamespaceSchemaLocation="http://sumo.dlr.de/xsd/sumoConfiguration.xsd">

    <input>
        <net-file value="/mainfs/home/bk2g18/RESCO/environments/ingolstadt21/ingolstadt21.net.xml"/>
        <route-files value="/mainfs/home/bk2g18/RESCO/environments/ingolstadt21/ingolstadt21.rou.xml"/>
    </input>

    <output>
        <tripinfo-output value="/mainfs/home/bk2g18/RESCO/logs/MPLight-tr0-ingolstadt21-21-mplight-pressure/tripinfo_19.xml"/>
        <tripinfo-output.write-unfinished value="true"/>
    </output>

    <time>
        <begin value="57600"/>
        <end value="61200"/>
    </time>

    <processing>
        <time-to-teleport value="-1"/>
    </processing>

    <report>
        <xml-validation value="never"/>
        <xml-validation.routes value="never"/>
        <no-warnings value="true"/>
        <no-step-log value="true"/>
    </report>

    <emissions>
        <device.emissions.probability value="1"/>
    </emissions>

    <traci_server>
        <remote-port value="50407"/>
    </traci_server>

    <random_number>
        <random value="true"/>
    </random_number>

</configuration>
-->

<tripinfos xmlns:xsi="http://www.w3.org/2001/XMLSchema-instance" xsi:noNamespaceSchemaLocation="http://sumo.dlr.de/xsd/tripinfo_file.xsd">
    <tripinfo id="h15454c2:3" depart="57612.00" departLane="24608844_1" departPos="5.10" departSpeed="0.00" departDelay="0.50" arrival="57658.00" arrivalLane="32978638#0_1" arrivalPos="49.29" arrivalSpeed="11.27" duration="46.00" routeLength="354.79" waitingTime="0.00" waitingCount="0" stopTime="0.00" timeLoss="5.82" rerouteNo="1" devices="tripinfo_h15454c2:3 routing_h15454c2:3 emissions_h15454c2:3" vType="default_016" speedFactor="0.85" vaporized="">
        <emissions CO_abs="1814.638792" CO2_abs="85642.232739" HC_abs="10.238500" PMx_abs="1.425531" NOx_abs="34.869399" fuel_abs="36.814448" electricity_abs="0"/>
    </tripinfo>
    <tripinfo id="carIn60260:1" depart="57606.00" departLane="315358254#0_1" departPos="5.10" departSpeed="0.00" departDelay="0.90" arrival="57663.00" arrivalLane="399835085#1_1" arrivalPos="212.23" arrivalSpeed="6.94" duration="57.00" routeLength="430.98" waitingTime="0.00" waitingCount="0" stopTime="0.00" timeLoss="7.70" rerouteNo="1" devices="tripinfo_carIn60260:1 routing_carIn60260:1 emissions_carIn60260:1" vType="default_016" speedFactor="0.93" vaporized="">
        <emissions CO_abs="2247.745662" CO2_abs="102871.428250" HC_abs="12.591254" PMx_abs="1.642739" NOx_abs="41.522441" fuel_abs="44.220802" electricity_abs="0"/>
    </tripinfo>
    <tripinfo id="carIn53971:1" depart="57640.00" departLane="272042143_1" departPos="5.10" departSpeed="0.00" departDelay="0.80" arrival="57691.00" arrivalLane="24634414#1_1" arrivalPos="162.19" arrivalSpeed="8.26" duration="51.00" routeLength="493.04" waitingTime="0.00" waitingCount="0" stopTime="0.00" timeLoss="8.78" rerouteNo="1" devices="tripinfo_carIn53971:1 routing_carIn53971:1 emissions_carIn53971:1" vType="default_016" speedFactor="1.09" vaporized="">
        <emissions CO_abs="2478.481562" CO2_abs="137212.556705" HC_abs="14.514518" PMx_abs="2.524901" NOx_abs="57.158361" fuel_abs="58.981928" electricity_abs="0"/>
    </tripinfo>
    <tripinfo id="h3688c1:1" depart="57625.00" departLane="201201950#1_1" departPos="5.10" departSpeed="0.00" departDelay="0.00" arrival="57715.00" arrivalLane="32978638#0_1" arrivalPos="49.29" arrivalSpeed="12.80" duration="90.00" routeLength="1089.75" waitingTime="0.00" waitingCount="0" stopTime="0.00" timeLoss="10.38" rerouteNo="1" devices="tripinfo_h3688c1:1 routing_h3688c1:1 emissions_h3688c1:1" vType="default_016" speedFactor="1.01" vaporized="">
        <emissions CO_abs="2762.357588" CO2_abs="223457.888307" HC_abs="17.695864" PMx_abs="3.604268" NOx_abs="88.193632" fuel_abs="96.055015" electricity_abs="0"/>
    </tripinfo>
    <tripinfo id="h7800c1:5" depart="57696.00" departLane="-447569998#1_1" departPos="5.10" departSpeed="0.00" departDelay="0.00" arrival="57723.00" arrivalLane="-447569998#1_1" arrivalPos="180.76" arrivalSpeed="7.23" duration="27.00" routeLength="175.66" waitingTime="0.00" waitingCount="0" stopTime="0.00" timeLoss="3.23" rerouteNo="1" devices="tripinfo_h7800c1:5 routing_h7800c1:5 emissions_h7800c1:5" vType="default_016" speedFactor="0.90" vaporized="">
        <emissions CO_abs="1310.183727" CO2_abs="53535.828920" HC_abs="7.191119" PMx_abs="0.879232" NOx_abs="21.856952" fuel_abs="23.013240" electricity_abs="0"/>
    </tripinfo>
    <tripinfo id="h7181c1:1" depart="57660.00" departLane="315358254#0_1" departPos="5.10" departSpeed="0.00" departDelay="0.10" arrival="57726.00" arrivalLane="306240162#0_0" arrivalPos="220.43" arrivalSpeed="14.89" duration="66.00" routeLength="932.35" waitingTime="0.00" waitingCount="0" stopTime="0.00" timeLoss="8.67" rerouteNo="1" devices="tripinfo_h7181c1:1 routing_h7181c1:1 emissions_h7181c1:1" vType="default_016" speedFactor="0.90" vaporized="">
        <emissions CO_abs="2755.091976" CO2_abs="207707.707180" HC_abs="17.385345" PMx_abs="3.788196" NOx_abs="83.940583" fuel_abs="89.284263" electricity_abs="0"/>
    </tripinfo>
    <tripinfo id="carIn22761:1" depart="57616.00" departLane="-306240162#1_0" departPos="5.10" departSpeed="0.00" departDelay="2.10" arrival="57742.00" arrivalLane="399835085#1_1" arrivalPos="212.23" arrivalSpeed="6.93" duration="126.00" routeLength="1093.26" waitingTime="12.00" waitingCount="2" stopTime="0.00" timeLoss="32.69" rerouteNo="1" devices="tripinfo_carIn22761:1 routing_carIn22761:1 emissions_carIn22761:1" vType="default_016" speedFactor="0.84" vaporized="">
        <emissions CO_abs="5165.805578" CO2_abs="282184.034747" HC_abs="30.142146" PMx_abs="5.017910" NOx_abs="115.402775" fuel_abs="121.299522" electricity_abs="0"/>
    </tripinfo>
    <tripinfo id="h317c2:1" depart="57707.00" departLane="-32978638#0_1" departPos="5.10" departSpeed="0.00" departDelay="0.10" arrival="57746.00" arrivalLane="-266565295#5_1" arrivalPos="172.76" arrivalSpeed="12.66" duration="39.00" routeLength="370.53" waitingTime="2.00" waitingCount="1" stopTime="0.00" timeLoss="10.33" rerouteNo="1" devices="tripinfo_h317c2:1 routing_h317c2:1 emissions_h317c2:1" vType="default_016" speedFactor="0.95" vaporized="">
        <emissions CO_abs="2098.288735" CO2_abs="117716.931425" HC_abs="12.322545" PMx_abs="2.135384" NOx_abs="48.635319" fuel_abs="50.601620" electricity_abs="0"/>
    </tripinfo>
    <tripinfo id="h5979c1:5" depart="57669.00" departLane="399835085#1_1" departPos="5.10" departSpeed="0.00" departDelay="0.00" arrival="57762.00" arrivalLane="-315358254#1_1" arrivalPos="137.16" arrivalSpeed="11.24" duration="93.00" routeLength="659.33" waitingTime="0.00" waitingCount="0" stopTime="0.00" timeLoss="11.53" rerouteNo="1" devices="tripinfo_h5979c1:5 routing_h5979c1:5 emissions_h5979c1:5" vType="default_016" speedFactor="0.89" vaporized="">
        <emissions CO_abs="3838.621843" CO2_abs="169830.594084" HC_abs="21.346722" PMx_abs="2.621533" NOx_abs="68.020543" fuel_abs="73.004429" electricity_abs="0"/>
    </tripinfo>
    <tripinfo id="h3326c1:2" depart="57656.00" departLane="22716069#0_1" departPos="5.10" departSpeed="0.00" departDelay="0.00" arrival="57765.00" arrivalLane="24634517#13_1" arrivalPos="111.62" arrivalSpeed="14.38" duration="109.00" routeLength="1312.81" waitingTime="0.00" waitingCount="0" stopTime="0.00" timeLoss="14.33" rerouteNo="1" devices="tripinfo_h3326c1:2 routing_h3326c1:2 emissions_h3326c1:2" vType="default_016" speedFactor="1.04" vaporized="">
        <emissions CO_abs="4185.310669" CO2_abs="318998.469965" HC_abs="26.541079" PMx_abs="5.504525" NOx_abs="128.494897" fuel_abs="137.123488" electricity_abs="0"/>
    </tripinfo>
    <tripinfo id="h3154c1:1" depart="57658.00" departLane="24634507_1" departPos="5.10" departSpeed="0.00" departDelay="0.00" arrival="57765.00" arrivalLane="-266565295#5_1" arrivalPos="172.76" arrivalSpeed="15.04" duration="107.00" routeLength="1206.22" waitingTime="10.00" waitingCount="1" stopTime="0.00" timeLoss="28.36" rerouteNo="1" devices="tripinfo_h3154c1:1 routing_h3154c1:1 emissions_h3154c1:1" vType="default_016" speedFactor="1.14" vaporized="">
        <emissions CO_abs="4995.890396" CO2_abs="327611.557552" HC_abs="30.352096" PMx_abs="5.931180" NOx_abs="133.360152" fuel_abs="140.826069" electricity_abs="0"/>
    </tripinfo>
    <tripinfo id="carIn30817:1" depart="57681.00" departLane="315358244_1" departPos="5.10" departSpeed="0.00" departDelay="0.20" arrival="57765.00" arrivalLane="447569997#1_1" arrivalPos="180.93" arrivalSpeed="7.14" duration="84.00" routeLength="718.04" waitingTime="1.00" waitingCount="1" stopTime="0.00" timeLoss="19.37" rerouteNo="1" devices="tripinfo_carIn30817:1 routing_carIn30817:1 emissions_carIn30817:1" vType="default_016" speedFactor="0.96" vaporized="">
        <emissions CO_abs="3550.169170" CO2_abs="192000.007112" HC_abs="20.634131" PMx_abs="3.268717" NOx_abs="78.008783" fuel_abs="82.533258" electricity_abs="0"/>
    </tripinfo>
    <tripinfo id="h12244c1:3" depart="57612.00" departLane="315358244_1" departPos="5.10" departSpeed="0.00" departDelay="0.40" arrival="57767.00" arrivalLane="386687235_1" arrivalPos="80.84" arrivalSpeed="15.62" duration="155.00" routeLength="1186.14" waitingTime="46.00" waitingCount="5" stopTime="0.00" timeLoss="79.72" rerouteNo="1" devices="tripinfo_h12244c1:3 routing_h12244c1:3 emissions_h12244c1:3" vType="default_016" speedFactor="1.15" vaporized="">
        <emissions CO_abs="9695.943429" CO2_abs="403106.343152" HC_abs="53.543870" PMx_abs="7.835320" NOx_abs="168.313058" fuel_abs="173.280166" electricity_abs="0"/>
    </tripinfo>
    <tripinfo id="h3568c1:3" depart="57656.00" departLane="266565295#5_1" departPos="5.10" departSpeed="0.00" departDelay="0.80" arrival="57767.00" arrivalLane="-24634415_1" arrivalPos="62.03" arrivalSpeed="13.18" duration="111.00" routeLength="807.40" waitingTime="26.00" waitingCount="1" stopTime="0.00" timeLoss="46.16" rerouteNo="1" devices="tripinfo_h3568c1:3 routing_h3568c1:3 emissions_h3568c1:3" vType="default_016" speedFactor="0.99" vaporized="">
        <emissions CO_abs="7866.404037" CO2_abs="307409.091652" HC_abs="43.046010" PMx_abs="5.951684" NOx_abs="129.432391" fuel_abs="132.143869" electricity_abs="0"/>
    </tripinfo>
    <tripinfo id="h9563c2:5" depart="57631.00" departLane="315358244_1" departPos="5.10" departSpeed="0.00" departDelay="0.70" arrival="57769.00" arrivalLane="386687235_1" arrivalPos="80.84" arrivalSpeed="14.69" duration="138.00" routeLength="1186.14" waitingTime="24.00" waitingCount="3" stopTime="0.00" timeLoss="62.39" rerouteNo="1" devices="tripinfo_h9563c2:5 routing_h9563c2:5 emissions_h9563c2:5" vType="default_016" speedFactor="1.14" vaporized="">
        <emissions CO_abs="7357.723062" CO2_abs="369231.910525" HC_abs="42.108867" PMx_abs="7.046115" NOx_abs="153.756864" fuel_abs="158.717678" electricity_abs="0"/>
    </tripinfo>
    <tripinfo id="carIn107084:1" depart="57601.00" departLane="124812856#0_1" departPos="5.10" departSpeed="0.00" departDelay="0.70" arrival="57773.00" arrivalLane="-128361102#1_1" arrivalPos="274.68" arrivalSpeed="15.34" duration="172.00" routeLength="2232.46" waitingTime="5.00" waitingCount="1" stopTime="0.00" timeLoss="28.92" rerouteNo="1" devices="tripinfo_carIn107084:1 routing_carIn107084:1 emissions_carIn107084:1" vType="default_016" speedFactor="1.14" vaporized="">
        <emissions CO_abs="5936.866405" CO2_abs="507091.203480" HC_abs="38.830231" PMx_abs="8.671253" NOx_abs="201.542050" fuel_abs="217.976038" electricity_abs="0"/>
    </tripinfo>
    <tripinfo id="carIn27009:1" depart="57673.00" departLane="-447569998#1_1" departPos="5.10" departSpeed="0.00" departDelay="0.50" arrival="57773.00" arrivalLane="-26677539_1" arrivalPos="152.75" arrivalSpeed="7.40" duration="100.00" routeLength="699.63" waitingTime="1.00" waitingCount="1" stopTime="0.00" timeLoss="17.56" rerouteNo="1" devices="tripinfo_carIn27009:1 routing_carIn27009:1 emissions_carIn27009:1" vType="default_015" speedFactor="1.01" vaporized="">
        <emissions CO_abs="4258.486366" CO2_abs="197106.491431" HC_abs="23.919012" PMx_abs="3.218924" NOx_abs="80.134858" fuel_abs="84.728972" electricity_abs="0"/>
    </tripinfo>
    <tripinfo id="h330c1:1" depart="57736.00" departLane="-32978638#0_1" departPos="5.10" departSpeed="0.00" departDelay="0.20" arrival="57777.00" arrivalLane="-266565295#5_1" arrivalPos="172.76" arrivalSpeed="11.44" duration="41.00" routeLength="370.53" waitingTime="2.00" waitingCount="1" stopTime="0.00" timeLoss="10.45" rerouteNo="1" devices="tripinfo_h330c1:1 routing_h330c1:1 emissions_h330c1:1" vType="default_016" speedFactor="0.89" vaporized="">
        <emissions CO_abs="1861.477786" CO2_abs="100418.776447" HC_abs="10.825896" PMx_abs="1.782504" NOx_abs="41.358512" fuel_abs="43.165969" electricity_abs="0"/>
    </tripinfo>
    <tripinfo id="S5R_frequency1.2" depart="57646.00" departLane="315358250#0_1" departPos="12.10" departSpeed="0.00" departDelay="34.40" arrival="57778.00" arrivalLane="386687235_1" arrivalPos="80.84" arrivalSpeed="13.64" duration="132.00" routeLength="1115.62" waitingTime="17.00" waitingCount="3" stopTime="0.00" timeLoss="50.90" rerouteNo="1" devices="tripinfo_S5R_frequency1.2 routing_S5R_frequency1.2 emissions_S5R_frequency1.2" vType="bus" speedFactor="1.00" vaporized="">
        <emissions CO_abs="2594.954619" CO2_abs="1532498.341058" HC_abs="542.311583" PMx_abs="275.400998" NOx_abs="12157.202499" fuel_abs="653.551230" electricity_abs="0"/>
    </tripinfo>
    <tripinfo id="carIn121703:1" depart="57647.00" departLane="386687232#0_1" departPos="5.10" departSpeed="0.00" departDelay="0.30" arrival="57782.00" arrivalLane="-315358244_1" arrivalPos="33.95" arrivalSpeed="11.13" duration="135.00" routeLength="1157.39" waitingTime="20.00" waitingCount="2" stopTime="0.00" timeLoss="37.95" rerouteNo="1" devices="tripinfo_carIn121703:1 routing_carIn121703:1 emissions_carIn121703:1" vType="default_016" speedFactor="0.87" vaporized="">
        <emissions CO_abs="5170.487404" CO2_abs="273139.010111" HC_abs="29.893614" PMx_abs="4.606289" NOx_abs="110.352889" fuel_abs="117.411932" electricity_abs="0"/>
    </tripinfo>
    <tripinfo id="h4538c1:1" depart="57701.00" departLane="-10427692#1_1" departPos="5.10" departSpeed="0.00" departDelay="0.00" arrival="57788.00" arrivalLane="-128361102#1_1" arrivalPos="274.68" arrivalSpeed="12.44" duration="87.00" routeLength="440.74" waitingTime="42.00" waitingCount="1" stopTime="0.00" timeLoss="53.16" rerouteNo="1" devices="tripinfo_h4538c1:1 routing_h4538c1:1 emissions_h4538c1:1" vType="default_016" speedFactor="0.93" vaporized="">
        <emissions CO_abs="8051.692274" CO2_abs="212171.647689" HC_abs="41.606153" PMx_abs="4.270890" NOx_abs="90.190262" fuel_abs="91.206808" electricity_abs="0"/>
    </tripinfo>
    <tripinfo id="carIn12365:1" depart="57713.00" departLane="315358244_1" departPos="5.10" departSpeed="0.00" departDelay="0.50" arrival="57792.00" arrivalLane="447569997#1_1" arrivalPos="180.93" arrivalSpeed="7.77" duration="79.00" routeLength="718.04" waitingTime="7.00" waitingCount="2" stopTime="0.00" timeLoss="21.89" rerouteNo="1" devices="tripinfo_carIn12365:1 routing_carIn12365:1 emissions_carIn12365:1" vType="default_016" speedFactor="1.09" vaporized="">
        <emissions CO_abs="3335.509577" CO2_abs="189476.779780" HC_abs="19.554861" PMx_abs="3.315154" NOx_abs="77.038328" fuel_abs="81.448382" electricity_abs="0"/>
    </tripinfo>
    <tripinfo id="carIn129809:1" depart="57729.00" departLane="-447569998#1_1" departPos="5.10" departSpeed="0.00" departDelay="1.00" arrival="57795.00" arrivalLane="-315358244_1" arrivalPos="33.95" arrivalSpeed="13.88" duration="66.00" routeLength="706.49" waitingTime="0.00" waitingCount="0" stopTime="0.00" timeLoss="9.22" rerouteNo="1" devices="tripinfo_carIn129809:1 routing_carIn129809:1 emissions_carIn129809:1" vType="default_015" speedFactor="1.06" vaporized="">
        <emissions CO_abs="2507.459276" CO2_abs="156928.020305" HC_abs="15.028324" PMx_abs="2.559261" NOx_abs="62.454000" fuel_abs="67.457076" electricity_abs="0"/>
    </tripinfo>
    <tripinfo id="carIn107282:1" depart="57749.00" departLane="-447569998#1_1" departPos="5.10" departSpeed="0.00" departDelay="0.00" arrival="57805.00" arrivalLane="315358242#0_1" arrivalPos="165.37" arrivalSpeed="13.90" duration="56.00" routeLength="448.50" waitingTime="9.00" waitingCount="1" stopTime="0.00" timeLoss="17.31" rerouteNo="1" devices="tripinfo_carIn107282:1 routing_carIn107282:1 emissions_carIn107282:1" vType="default_016" speedFactor="1.09" vaporized="">
        <emissions CO_abs="2884.188436" CO2_abs="142088.442563" HC_abs="16.448241" PMx_abs="2.508297" NOx_abs="58.027692" fuel_abs="61.078349" electricity_abs="0"/>
    </tripinfo>
    <tripinfo id="h645c1:1" depart="57622.00" departLane="266565295#5_1" departPos="5.10" departSpeed="0.00" departDelay="0.40" arrival="57812.00" arrivalLane="-315358244_1" arrivalPos="33.95" arrivalSpeed="12.19" duration="190.00" routeLength="1910.83" waitingTime="10.00" waitingCount="2" stopTime="0.00" timeLoss="34.37" rerouteNo="1" devices="tripinfo_h645c1:1 routing_h645c1:1 emissions_h645c1:1" vType="default_016" speedFactor="0.89" vaporized="">
        <emissions CO_abs="6066.711447" CO2_abs="409245.606457" HC_abs="37.112382" PMx_abs="6.453481" NOx_abs="161.868651" fuel_abs="175.918219" electricity_abs="0"/>
    </tripinfo>
    <tripinfo id="carIn50326:1" depart="57651.00" departLane="128361102#0_1" departPos="5.10" departSpeed="0.00" departDelay="0.30" arrival="57812.00" arrivalLane="18809673#0_1" arrivalPos="473.56" arrivalSpeed="13.35" duration="161.00" routeLength="1591.07" waitingTime="11.00" waitingCount="2" stopTime="0.00" timeLoss="33.15" rerouteNo="1" devices="tripinfo_carIn50326:1 routing_carIn50326:1 emissions_carIn50326:1" vType="default_016" speedFactor="1.02" vaporized="">
        <emissions CO_abs="5523.752421" CO2_abs="361857.885615" HC_abs="33.578410" PMx_abs="5.897698" NOx_abs="143.773270" fuel_abs="155.548049" electricity_abs="0"/>
    </tripinfo>
    <tripinfo id="carIn118591:1" depart="57689.00" departLane="315358244_1" departPos="5.10" departSpeed="0.00" departDelay="0.20" arrival="57816.00" arrivalLane="386687235_1" arrivalPos="80.84" arrivalSpeed="15.28" duration="127.00" routeLength="1186.14" waitingTime="29.00" waitingCount="2" stopTime="0.00" timeLoss="51.00" rerouteNo="1" devices="tripinfo_carIn118591:1 routing_carIn118591:1 emissions_carIn118591:1" vType="default_016" speedFactor="1.15" vaporized="">
        <emissions CO_abs="7927.389799" CO2_abs="362122.731187" HC_abs="44.516887" PMx_abs="6.814249" NOx_abs="149.351490" fuel_abs="155.662576" electricity_abs="0"/>
    </tripinfo>
    <tripinfo id="carIn80064:1" depart="57603.00" departLane="128361109#1_1" departPos="5.10" departSpeed="0.00" departDelay="0.40" arrival="57819.00" arrivalLane="-315358254#1_1" arrivalPos="137.16" arrivalSpeed="11.56" duration="216.00" routeLength="1587.97" waitingTime="60.00" waitingCount="5" stopTime="0.00" timeLoss="110.11" rerouteNo="1" devices="tripinfo_carIn80064:1 routing_carIn80064:1 emissions_carIn80064:1" vType="default_016" speedFactor="0.85" vaporized="">
        <emissions CO_abs="14253.420598" CO2_abs="551576.469366" HC_abs="77.886487" PMx_abs="11.077024" NOx_abs="233.222803" fuel_abs="237.102112" electricity_abs="0"/>
    </tripinfo>
    <tripinfo id="carIn81860:1" depart="57712.00" departLane="128361102#0_1" departPos="5.10" departSpeed="0.00" departDelay="0.60" arrival="57819.00" arrivalLane="-24634517#17_1" arrivalPos="6.43" arrivalSpeed="7.81" duration="107.00" routeLength="1229.64" waitingTime="0.00" waitingCount="0" stopTime="0.00" timeLoss="12.94" rerouteNo="1" devices="tripinfo_carIn81860:1 routing_carIn81860:1 emissions_carIn81860:1" vType="default_016" speedFactor="0.96" vaporized="">
        <emissions CO_abs="3112.242774" CO2_abs="248085.844346" HC_abs="19.934403" PMx_abs="3.879955" NOx_abs="97.412007" fuel_abs="106.641738" electricity_abs="0"/>
    </tripinfo>
    <tripinfo id="h16072c2:3" depart="57663.00" departLane="315358254#0_1" departPos="5.10" departSpeed="0.00" departDelay="2.50" arrival="57823.00" arrivalLane="386687235_1" arrivalPos="80.84" arrivalSpeed="14.31" duration="160.00" routeLength="1611.92" waitingTime="24.00" waitingCount="3" stopTime="0.00" timeLoss="50.28" rerouteNo="1" devices="tripinfo_h16072c2:3 routing_h16072c2:3 emissions_h16072c2:3" vType="default_016" speedFactor="1.07" vaporized="">
        <emissions CO_abs="6792.947767" CO2_abs="386264.947856" HC_abs="39.926156" PMx_abs="6.796466" NOx_abs="156.051537" fuel_abs="166.039712" electricity_abs="0"/>
    </tripinfo>
    <tripinfo id="carIn48184:1" depart="57613.00" departLane="-306240162#1_0" departPos="5.10" departSpeed="0.00" departDelay="0.70" arrival="57824.00" arrivalLane="386687235_2" arrivalPos="80.84" arrivalSpeed="12.54" duration="211.00" routeLength="2257.41" waitingTime="20.00" waitingCount="3" stopTime="0.00" timeLoss="55.23" rerouteNo="1" devices="tripinfo_carIn48184:1 routing_carIn48184:1 emissions_carIn48184:1" vType="default_016" speedFactor="0.96" vaporized="">
        <emissions CO_abs="8870.513736" CO2_abs="564979.379807" HC_abs="53.593948" PMx_abs="9.912958" NOx_abs="227.915243" fuel_abs="242.860984" electricity_abs="0"/>
    </tripinfo>
    <tripinfo id="carIn12858:1" depart="57661.00" departLane="128361109#1_1" departPos="5.10" departSpeed="0.00" departDelay="0.90" arrival="57837.00" arrivalLane="399835085#1_1" arrivalPos="212.23" arrivalSpeed="8.80" duration="176.00" routeLength="1738.12" waitingTime="35.00" waitingCount="3" stopTime="0.00" timeLoss="71.72" rerouteNo="1" devices="tripinfo_carIn12858:1 routing_carIn12858:1 emissions_carIn12858:1" vType="default_016" speedFactor="1.10" vaporized="">
        <emissions CO_abs="11505.093430" CO2_abs="572230.893072" HC_abs="66.023528" PMx_abs="11.471238" NOx_abs="239.231401" fuel_abs="245.978175" electricity_abs="0"/>
    </tripinfo>
    <tripinfo id="carIn77943:1" depart="57608.00" departLane="124812856#0_1" departPos="5.10" departSpeed="0.00" departDelay="2.50" arrival="57851.00" arrivalLane="-128361102#1_1" arrivalPos="274.68" arrivalSpeed="10.62" duration="243.00" routeLength="2250.49" waitingTime="23.00" waitingCount="2" stopTime="0.00" timeLoss="50.45" rerouteNo="1" devices="tripinfo_carIn77943:1 routing_carIn77943:1 emissions_carIn77943:1" vType="default_016" speedFactor="0.86" vaporized="">
        <emissions CO_abs="8648.829082" CO2_abs="494125.171499" HC_abs="50.820519" PMx_abs="7.949217" NOx_abs="196.930405" fuel_abs="212.405371" electricity_abs="0"/>
    </tripinfo>
    <tripinfo id="carIn81046:1" depart="57611.00" departLane="124812856#0_1" departPos="5.10" departSpeed="0.00" departDelay="2.50" arrival="57852.00" arrivalLane="-128361102#1_1" arrivalPos="274.68" arrivalSpeed="13.54" duration="241.00" routeLength="2250.49" waitingTime="22.00" waitingCount="2" stopTime="0.00" timeLoss="86.90" rerouteNo="1" devices="tripinfo_carIn81046:1 routing_carIn81046:1 emissions_carIn81046:1" vType="default_016" speedFactor="1.06" vaporized="">
        <emissions CO_abs="10761.803300" CO2_abs="610744.058148" HC_abs="63.328603" PMx_abs="10.856563" NOx_abs="250.520645" fuel_abs="262.533776" electricity_abs="0"/>
    </tripinfo>
    <tripinfo id="carIn77438:1" depart="57614.00" departLane="124812856#0_1" departPos="5.10" departSpeed="0.00" departDelay="1.10" arrival="57854.00" arrivalLane="-128361102#1_1" arrivalPos="274.68" arrivalSpeed="13.90" duration="240.00" routeLength="2250.49" waitingTime="19.00" waitingCount="2" stopTime="0.00" timeLoss="75.21" rerouteNo="1" devices="tripinfo_carIn77438:1 routing_carIn77438:1 emissions_carIn77438:1" vType="default_016" speedFactor="1.00" vaporized="">
        <emissions CO_abs="10038.126151" CO2_abs="587742.363669" HC_abs="59.479753" PMx_abs="10.360749" NOx_abs="240.391913" fuel_abs="252.646165" electricity_abs="0"/>
    </tripinfo>
    <tripinfo id="h9953c2:3" depart="57682.00" departLane="-54169231#2_1" departPos="5.10" departSpeed="0.00" departDelay="0.00" arrival="57854.00" arrivalLane="386687235_1" arrivalPos="80.84" arrivalSpeed="12.59" duration="172.00" routeLength="1535.60" waitingTime="11.00" waitingCount="3" stopTime="0.00" timeLoss="41.82" rerouteNo="1" devices="tripinfo_h9953c2:3 routing_h9953c2:3 emissions_h9953c2:3" vType="default_016" speedFactor="0.96" vaporized="">
        <emissions CO_abs="6770.225937" CO2_abs="396425.400771" HC_abs="40.097233" PMx_abs="6.875584" NOx_abs="161.791084" fuel_abs="170.407039" electricity_abs="0"/>
    </tripinfo>
    <tripinfo id="carIn28951:1" depart="57606.00" departLane="10425609#0_1" departPos="5.10" departSpeed="0.00" departDelay="0.20" arrival="57856.00" arrivalLane="-128361102#1_1" arrivalPos="274.68" arrivalSpeed="13.90" duration="250.00" routeLength="2113.04" waitingTime="37.00" waitingCount="3" stopTime="0.00" timeLoss="97.75" rerouteNo="1" devices="tripinfo_carIn28951:1 routing_carIn28951:1 emissions_carIn28951:1" vType="default_016" speedFactor="1.02" vaporized="">
        <emissions CO_abs="12835.849860" CO2_abs="641323.590307" HC_abs="73.523031" PMx_abs="11.803750" NOx_abs="265.728546" fuel_abs="275.679352" electricity_abs="0"/>
    </tripinfo>
    <tripinfo id="carIn12152:1" depart="57647.00" departLane="24599188#0.94_1" departPos="5.10" departSpeed="0.00" departDelay="0.50" arrival="57856.00" arrivalLane="-315358254#1_1" arrivalPos="137.16" arrivalSpeed="15.42" duration="209.00" routeLength="2034.31" waitingTime="52.00" waitingCount="1" stopTime="0.00" timeLoss="71.50" rerouteNo="1" devices="tripinfo_carIn12152:1 routing_carIn12152:1 emissions_carIn12152:1" vType="default_016" speedFactor="1.15" vaporized="">
        <emissions CO_abs="12750.996518" CO2_abs="543434.987025" HC_abs="70.555640" PMx_abs="10.128769" NOx_abs="222.638996" fuel_abs="233.602661" electricity_abs="0"/>
    </tripinfo>
    <tripinfo id="h20540c1:1" depart="57634.00" departLane="10425609#0_1" departPos="5.10" departSpeed="0.00" departDelay="0.50" arrival="57857.00" arrivalLane="-128361102#1_1" arrivalPos="274.68" arrivalSpeed="13.82" duration="223.00" routeLength="2113.04" waitingTime="18.00" waitingCount="2" stopTime="0.00" timeLoss="80.78" rerouteNo="1" devices="tripinfo_h20540c1:1 routing_h20540c1:1 emissions_h20540c1:1" vType="default_016" speedFactor="1.08" vaporized="">
        <emissions CO_abs="9672.400662" CO2_abs="571789.323572" HC_abs="57.514077" PMx_abs="10.403279" NOx_abs="235.930573" fuel_abs="245.788042" electricity_abs="0"/>
    </tripinfo>
    <tripinfo id="carIn12775:1" depart="57676.00" departLane="10425609#0_1" departPos="5.10" departSpeed="0.00" departDelay="0.60" arrival="57857.00" arrivalLane="18809673#0_1" arrivalPos="473.56" arrivalSpeed="16.24" duration="181.00" routeLength="1959.45" waitingTime="22.00" waitingCount="3" stopTime="0.00" timeLoss="59.85" rerouteNo="1" devices="tripinfo_carIn12775:1 routing_carIn12775:1 emissions_carIn12775:1" vType="default_016" speedFactor="1.21" vaporized="">
        <emissions CO_abs="7264.270738" CO2_abs="471394.839566" HC_abs="43.937520" PMx_abs="8.478015" NOx_abs="190.828959" fuel_abs="202.632504" electricity_abs="0"/>
    </tripinfo>
    <tripinfo id="h19804c1:3" depart="57617.00" departLane="124812856#0_1" departPos="5.10" departSpeed="0.00" departDelay="1.50" arrival="57859.00" arrivalLane="-128361102#1_1" arrivalPos="274.68" arrivalSpeed="13.04" duration="242.00" routeLength="2250.49" waitingTime="17.00" waitingCount="1" stopTime="0.00" timeLoss="69.42" rerouteNo="1" devices="tripinfo_h19804c1:3 routing_h19804c1:3 emissions_h19804c1:3" vType="default_016" speedFactor="0.95" vaporized="">
        <emissions CO_abs="11465.094659" CO2_abs="641471.608308" HC_abs="67.293632" PMx_abs="11.645499" NOx_abs="264.889698" fuel_abs="275.742035" electricity_abs="0"/>
    </tripinfo>
    <tripinfo id="h11737c1:1" depart="57665.00" departLane="272042143_1" departPos="5.10" departSpeed="0.00" departDelay="1.50" arrival="57859.00" arrivalLane="-315358254#1_1" arrivalPos="137.16" arrivalSpeed="14.84" duration="194.00" routeLength="1596.88" waitingTime="61.00" waitingCount="2" stopTime="0.00" timeLoss="84.61" rerouteNo="1" devices="tripinfo_h11737c1:1 routing_h11737c1:1 emissions_h11737c1:1" vType="default_016" speedFactor="1.07" vaporized="">
        <emissions CO_abs="12694.752221" CO2_abs="494965.432590" HC_abs="69.251593" PMx_abs="9.275996" NOx_abs="203.942102" fuel_abs="212.768167" electricity_abs="0"/>
    </tripinfo>
    <tripinfo id="carIn126288:1" depart="57674.00" departLane="272042143_1" departPos="5.10" departSpeed="0.00" departDelay="0.00" arrival="57860.00" arrivalLane="-315358254#1_1" arrivalPos="137.16" arrivalSpeed="15.34" duration="186.00" routeLength="1596.88" waitingTime="57.00" waitingCount="2" stopTime="0.00" timeLoss="87.25" rerouteNo="1" devices="tripinfo_carIn126288:1 routing_carIn126288:1 emissions_carIn126288:1" vType="default_016" speedFactor="1.18" vaporized="">
        <emissions CO_abs="12770.549601" CO2_abs="517315.631811" HC_abs="70.259223" PMx_abs="10.184786" NOx_abs="216.563401" fuel_abs="222.374536" electricity_abs="0"/>
    </tripinfo>
    <tripinfo id="carIn46110:1" depart="57684.00" departLane="315358244_1" departPos="5.10" departSpeed="0.00" departDelay="1.20" arrival="57860.00" arrivalLane="32978638#0_1" arrivalPos="49.29" arrivalSpeed="13.89" duration="176.00" routeLength="1764.04" waitingTime="27.00" waitingCount="2" stopTime="0.00" timeLoss="52.04" rerouteNo="1" devices="tripinfo_carIn46110:1 routing_carIn46110:1 emissions_carIn46110:1" vType="default_016" speedFactor="1.03" vaporized="">