<?xml version="1.0" encoding="UTF-8"?>

<!-- generated on Thu Nov  4 13:21:42 2021 by Eclipse SUMO sumo Version 1.9.0
<configuration xmlns:xsi="http://www.w3.org/2001/XMLSchema-instance" xsi:noNamespaceSchemaLocation="http://sumo.dlr.de/xsd/sumoConfiguration.xsd">

    <input>
        <net-file value="/mainfs/home/bk2g18/RESCO/environments/ingolstadt21/ingolstadt21.net.xml"/>
        <route-files value="/mainfs/home/bk2g18/RESCO/environments/ingolstadt21/ingolstadt21.rou.xml"/>
    </input>

    <output>
        <tripinfo-output value="/mainfs/home/bk2g18/RESCO/logs/MPLight-tr0-ingolstadt21-21-mplight-pressure/tripinfo_17.xml"/>
        <tripinfo-output.write-unfinished value="true"/>
    </output>

    <time>
        <begin value="57600"/>
        <end value="61200"/>
    </time>

    <processing>
        <time-to-teleport value="-1"/>
    </processing>

    <report>
        <xml-validation value="never"/>
        <xml-validation.routes value="never"/>
        <no-warnings value="true"/>
        <no-step-log value="true"/>
    </report>

    <emissions>
        <device.emissions.probability value="1"/>
    </emissions>

    <traci_server>
        <remote-port value="37347"/>
    </traci_server>

    <random_number>
        <random value="true"/>
    </random_number>

</configuration>
-->

<tripinfos xmlns:xsi="http://www.w3.org/2001/XMLSchema-instance" xsi:noNamespaceSchemaLocation="http://sumo.dlr.de/xsd/tripinfo_file.xsd">
    <tripinfo id="h15454c2:3" depart="57612.00" departLane="24608844_1" departPos="5.10" departSpeed="0.00" departDelay="0.50" arrival="57661.00" arrivalLane="32978638#0_1" arrivalPos="49.29" arrivalSpeed="11.14" duration="49.00" routeLength="354.79" waitingTime="1.00" waitingCount="1" stopTime="0.00" timeLoss="9.95" rerouteNo="1" devices="tripinfo_h15454c2:3 routing_h15454c2:3 emissions_h15454c2:3" vType="default_016" speedFactor="0.89" vaporized="">
        <emissions CO_abs="2110.470428" CO2_abs="99501.785288" HC_abs="11.904472" PMx_abs="1.648663" NOx_abs="40.415548" fuel_abs="42.772179" electricity_abs="0"/>
    </tripinfo>
    <tripinfo id="carIn53971:1" depart="57640.00" departLane="272042143_1" departPos="5.10" departSpeed="0.00" departDelay="0.80" arrival="57694.00" arrivalLane="24634414#1_1" arrivalPos="162.19" arrivalSpeed="7.60" duration="54.00" routeLength="493.04" waitingTime="0.00" waitingCount="0" stopTime="0.00" timeLoss="10.41" rerouteNo="1" devices="tripinfo_carIn53971:1 routing_carIn53971:1 emissions_carIn53971:1" vType="default_016" speedFactor="1.05" vaporized="">
        <emissions CO_abs="2418.527377" CO2_abs="139003.190432" HC_abs="14.246706" PMx_abs="2.403325" NOx_abs="56.733714" fuel_abs="59.751819" electricity_abs="0"/>
    </tripinfo>
    <tripinfo id="carIn60260:1" depart="57606.00" departLane="315358254#0_1" departPos="5.10" departSpeed="0.00" departDelay="0.90" arrival="57711.00" arrivalLane="399835085#1_1" arrivalPos="212.23" arrivalSpeed="8.30" duration="105.00" routeLength="430.98" waitingTime="50.00" waitingCount="1" stopTime="0.00" timeLoss="62.00" rerouteNo="1" devices="tripinfo_carIn60260:1 routing_carIn60260:1 emissions_carIn60260:1" vType="default_016" speedFactor="1.08" vaporized="">
        <emissions CO_abs="9921.811651" CO2_abs="240467.606944" HC_abs="50.786982" PMx_abs="5.050181" NOx_abs="104.238133" fuel_abs="103.370762" electricity_abs="0"/>
    </tripinfo>
    <tripinfo id="h7800c1:5" depart="57696.00" departLane="-447569998#1_1" departPos="5.10" departSpeed="0.00" departDelay="0.00" arrival="57727.00" arrivalLane="-447569998#1_1" arrivalPos="180.76" arrivalSpeed="5.75" duration="31.00" routeLength="175.66" waitingTime="0.00" waitingCount="0" stopTime="0.00" timeLoss="4.92" rerouteNo="1" devices="tripinfo_h7800c1:5 routing_h7800c1:5 emissions_h7800c1:5" vType="default_016" speedFactor="0.83" vaporized="">
        <emissions CO_abs="1600.081994" CO2_abs="55135.472764" HC_abs="8.528679" PMx_abs="0.850268" NOx_abs="22.204230" fuel_abs="23.701166" electricity_abs="0"/>
    </tripinfo>
    <tripinfo id="h3568c1:3" depart="57656.00" departLane="266565295#5_1" departPos="5.10" departSpeed="0.00" departDelay="0.80" arrival="57728.00" arrivalLane="-24634415_1" arrivalPos="62.03" arrivalSpeed="14.35" duration="72.00" routeLength="807.40" waitingTime="0.00" waitingCount="0" stopTime="0.00" timeLoss="13.04" rerouteNo="1" devices="tripinfo_h3568c1:3 routing_h3568c1:3 emissions_h3568c1:3" vType="default_016" speedFactor="1.11" vaporized="">
        <emissions CO_abs="3240.031822" CO2_abs="217709.212753" HC_abs="19.820727" PMx_abs="3.871483" NOx_abs="88.649112" fuel_abs="93.583789" electricity_abs="0"/>
    </tripinfo>
    <tripinfo id="h7181c1:1" depart="57660.00" departLane="315358254#0_1" departPos="5.10" departSpeed="0.00" departDelay="0.10" arrival="57731.00" arrivalLane="306240162#0_0" arrivalPos="220.43" arrivalSpeed="13.85" duration="71.00" routeLength="932.35" waitingTime="0.00" waitingCount="0" stopTime="0.00" timeLoss="12.06" rerouteNo="1" devices="tripinfo_h7181c1:1 routing_h7181c1:1 emissions_h7181c1:1" vType="default_016" speedFactor="0.87" vaporized="">
        <emissions CO_abs="2993.267653" CO2_abs="216260.735129" HC_abs="18.663162" PMx_abs="3.909161" NOx_abs="87.619515" fuel_abs="92.960944" electricity_abs="0"/>
    </tripinfo>
    <tripinfo id="h3688c1:1" depart="57625.00" departLane="201201950#1_1" departPos="5.10" departSpeed="0.00" departDelay="0.00" arrival="57735.00" arrivalLane="32978638#0_1" arrivalPos="49.29" arrivalSpeed="11.75" duration="110.00" routeLength="1089.75" waitingTime="5.00" waitingCount="1" stopTime="0.00" timeLoss="24.56" rerouteNo="1" devices="tripinfo_h3688c1:1 routing_h3688c1:1 emissions_h3688c1:1" vType="default_016" speedFactor="0.94" vaporized="">
        <emissions CO_abs="3771.467551" CO2_abs="256148.919608" HC_abs="23.140717" PMx_abs="4.185287" NOx_abs="102.255600" fuel_abs="110.107869" electricity_abs="0"/>
    </tripinfo>
    <tripinfo id="S5R_frequency1.2" depart="57612.00" departLane="315358250#0_1" departPos="12.10" departSpeed="0.00" departDelay="0.40" arrival="57740.00" arrivalLane="386687235_1" arrivalPos="80.84" arrivalSpeed="13.39" duration="128.00" routeLength="1115.62" waitingTime="21.00" waitingCount="2" stopTime="0.00" timeLoss="46.45" rerouteNo="1" devices="tripinfo_S5R_frequency1.2 routing_S5R_frequency1.2 emissions_S5R_frequency1.2" vType="bus" speedFactor="1.00" vaporized="">
        <emissions CO_abs="2432.844830" CO2_abs="1389290.307315" HC_abs="519.584471" PMx_abs="257.657573" NOx_abs="11147.767047" fuel_abs="592.470116" electricity_abs="0"/>
    </tripinfo>
    <tripinfo id="carIn22761:1" depart="57616.00" departLane="-306240162#1_0" departPos="5.10" departSpeed="0.00" departDelay="2.10" arrival="57740.00" arrivalLane="399835085#1_1" arrivalPos="212.23" arrivalSpeed="8.33" duration="124.00" routeLength="1093.26" waitingTime="18.00" waitingCount="3" stopTime="0.00" timeLoss="53.48" rerouteNo="1" devices="tripinfo_carIn22761:1 routing_carIn22761:1 emissions_carIn22761:1" vType="default_016" speedFactor="1.10" vaporized="">
        <emissions CO_abs="7210.849280" CO2_abs="392332.482669" HC_abs="42.093267" PMx_abs="7.693434" NOx_abs="163.783369" fuel_abs="168.646937" electricity_abs="0"/>
    </tripinfo>
    <tripinfo id="h12244c1:3" depart="57612.00" departLane="315358244_1" departPos="5.10" departSpeed="0.00" departDelay="0.40" arrival="57746.00" arrivalLane="386687235_1" arrivalPos="80.84" arrivalSpeed="13.46" duration="134.00" routeLength="1186.14" waitingTime="14.00" waitingCount="2" stopTime="0.00" timeLoss="45.86" rerouteNo="1" devices="tripinfo_h12244c1:3 routing_h12244c1:3 emissions_h12244c1:3" vType="default_016" speedFactor="0.99" vaporized="">
        <emissions CO_abs="6107.640943" CO2_abs="316720.350060" HC_abs="35.213722" PMx_abs="5.565884" NOx_abs="129.043891" fuel_abs="136.145660" electricity_abs="0"/>
    </tripinfo>
    <tripinfo id="h317c2:1" depart="57707.00" departLane="-32978638#0_1" departPos="5.10" departSpeed="0.00" departDelay="0.10" arrival="57747.00" arrivalLane="-266565295#5_1" arrivalPos="172.76" arrivalSpeed="12.15" duration="40.00" routeLength="370.53" waitingTime="1.00" waitingCount="1" stopTime="0.00" timeLoss="10.34" rerouteNo="1" devices="tripinfo_h317c2:1 routing_h317c2:1 emissions_h317c2:1" vType="default_016" speedFactor="0.92" vaporized="">
        <emissions CO_abs="2088.360528" CO2_abs="115643.816698" HC_abs="12.212439" PMx_abs="2.017854" NOx_abs="47.256027" fuel_abs="49.710620" electricity_abs="0"/>
    </tripinfo>
    <tripinfo id="h9563c2:5" depart="57631.00" departLane="315358244_1" departPos="5.10" departSpeed="0.00" departDelay="0.70" arrival="57748.00" arrivalLane="386687235_1" arrivalPos="80.84" arrivalSpeed="12.63" duration="117.00" routeLength="1186.14" waitingTime="3.00" waitingCount="1" stopTime="0.00" timeLoss="22.88" rerouteNo="1" devices="tripinfo_h9563c2:5 routing_h9563c2:5 emissions_h9563c2:5" vType="default_016" speedFactor="0.91" vaporized="">
        <emissions CO_abs="3537.967323" CO2_abs="242275.991552" HC_abs="21.715580" PMx_abs="3.733991" NOx_abs="95.018577" fuel_abs="104.144812" electricity_abs="0"/>
    </tripinfo>
    <tripinfo id="h3154c1:1" depart="57658.00" departLane="24634507_1" departPos="5.10" departSpeed="0.00" departDelay="0.00" arrival="57753.00" arrivalLane="-266565295#5_1" arrivalPos="172.76" arrivalSpeed="14.91" duration="95.00" routeLength="1206.22" waitingTime="0.00" waitingCount="0" stopTime="0.00" timeLoss="14.57" rerouteNo="1" devices="tripinfo_h3154c1:1 routing_h3154c1:1 emissions_h3154c1:1" vType="default_016" speedFactor="1.11" vaporized="">
        <emissions CO_abs="3989.871704" CO2_abs="300152.651777" HC_abs="25.185273" PMx_abs="5.429174" NOx_abs="122.310526" fuel_abs="129.022165" electricity_abs="0"/>
    </tripinfo>
    <tripinfo id="h4538c1:1" depart="57701.00" departLane="-10427692#1_1" departPos="5.10" departSpeed="0.00" departDelay="0.00" arrival="57765.00" arrivalLane="-128361102#1_1" arrivalPos="274.68" arrivalSpeed="13.92" duration="64.00" routeLength="440.74" waitingTime="22.00" waitingCount="1" stopTime="0.00" timeLoss="33.93" rerouteNo="1" devices="tripinfo_h4538c1:1 routing_h4538c1:1 emissions_h4538c1:1" vType="default_016" speedFactor="1.06" vaporized="">
        <emissions CO_abs="4734.644375" CO2_abs="168245.928046" HC_abs="25.494931" PMx_abs="3.340428" NOx_abs="71.016544" fuel_abs="72.323013" electricity_abs="0"/>
    </tripinfo>
    <tripinfo id="h330c1:1" depart="57736.00" departLane="-32978638#0_1" departPos="5.10" departSpeed="0.00" departDelay="0.20" arrival="57768.00" arrivalLane="-266565295#5_1" arrivalPos="172.76" arrivalSpeed="13.59" duration="32.00" routeLength="370.53" waitingTime="0.00" waitingCount="0" stopTime="0.00" timeLoss="5.54" rerouteNo="1" devices="tripinfo_h330c1:1 routing_h330c1:1 emissions_h330c1:1" vType="default_016" speedFactor="1.03" vaporized="">
        <emissions CO_abs="1627.927083" CO2_abs="109062.024267" HC_abs="9.983243" PMx_abs="1.939046" NOx_abs="44.545892" fuel_abs="46.881051" electricity_abs="0"/>
    </tripinfo>
    <tripinfo id="h3326c1:2" depart="57656.00" departLane="22716069#0_1" departPos="5.10" departSpeed="0.00" departDelay="0.00" arrival="57772.00" arrivalLane="24634517#13_1" arrivalPos="111.62" arrivalSpeed="12.63" duration="116.00" routeLength="1312.81" waitingTime="0.00" waitingCount="0" stopTime="0.00" timeLoss="16.10" rerouteNo="1" devices="tripinfo_h3326c1:2 routing_h3326c1:2 emissions_h3326c1:2" vType="default_016" speedFactor="0.97" vaporized="">
        <emissions CO_abs="3752.408354" CO2_abs="276747.248923" HC_abs="23.563246" PMx_abs="4.606658" NOx_abs="110.813136" fuel_abs="118.961859" electricity_abs="0"/>
    </tripinfo>
    <tripinfo id="carIn80064:1" depart="57603.00" departLane="128361109#1_1" departPos="5.10" departSpeed="0.00" departDelay="0.40" arrival="57791.00" arrivalLane="-315358254#1_1" arrivalPos="137.16" arrivalSpeed="13.56" duration="188.00" routeLength="1587.97" waitingTime="58.00" waitingCount="4" stopTime="0.00" timeLoss="102.54" rerouteNo="1" devices="tripinfo_carIn80064:1 routing_carIn80064:1 emissions_carIn80064:1" vType="default_016" speedFactor="1.05" vaporized="">
        <emissions CO_abs="13371.627936" CO2_abs="585371.894807" HC_abs="74.838207" PMx_abs="12.026985" NOx_abs="247.069950" fuel_abs="251.627821" electricity_abs="0"/>
    </tripinfo>
    <tripinfo id="carIn27009:1" depart="57673.00" departLane="-447569998#1_1" departPos="5.10" departSpeed="0.00" departDelay="0.50" arrival="57791.00" arrivalLane="-26677539_1" arrivalPos="152.75" arrivalSpeed="7.11" duration="118.00" routeLength="699.63" waitingTime="9.00" waitingCount="1" stopTime="0.00" timeLoss="25.22" rerouteNo="1" devices="tripinfo_carIn27009:1 routing_carIn27009:1 emissions_carIn27009:1" vType="default_015" speedFactor="0.91" vaporized="">
        <emissions CO_abs="5379.085505" CO2_abs="206686.027089" HC_abs="29.225771" PMx_abs="3.449123" NOx_abs="84.653795" fuel_abs="88.847523" electricity_abs="0"/>
    </tripinfo>
    <tripinfo id="carIn107282:1" depart="57749.00" departLane="-447569998#1_1" departPos="5.10" departSpeed="0.00" departDelay="0.00" arrival="57794.00" arrivalLane="315358242#0_1" arrivalPos="165.37" arrivalSpeed="13.42" duration="45.00" routeLength="448.50" waitingTime="0.00" waitingCount="0" stopTime="0.00" timeLoss="4.84" rerouteNo="1" devices="tripinfo_carIn107282:1 routing_carIn107282:1 emissions_carIn107282:1" vType="default_016" speedFactor="1.04" vaporized="">
        <emissions CO_abs="1843.493203" CO2_abs="106258.197124" HC_abs="10.861114" PMx_abs="1.754519" NOx_abs="42.779755" fuel_abs="45.676207" electricity_abs="0"/>
    </tripinfo>
    <tripinfo id="carIn28951:1" depart="57606.00" departLane="10425609#0_1" departPos="5.10" departSpeed="0.00" departDelay="0.20" arrival="57795.00" arrivalLane="-128361102#1_1" arrivalPos="274.68" arrivalSpeed="12.56" duration="189.00" routeLength="2113.04" waitingTime="3.00" waitingCount="1" stopTime="0.00" timeLoss="30.19" rerouteNo="1" devices="tripinfo_carIn28951:1 routing_carIn28951:1 emissions_carIn28951:1" vType="default_016" speedFactor="0.98" vaporized="">
        <emissions CO_abs="6293.254631" CO2_abs="476850.153232" HC_abs="39.776213" PMx_abs="7.852866" NOx_abs="189.934857" fuel_abs="204.977600" electricity_abs="0"/>
    </tripinfo>
    <tripinfo id="carIn30817:1" depart="57681.00" departLane="315358244_1" departPos="5.10" departSpeed="0.00" departDelay="0.20" arrival="57808.00" arrivalLane="447569997#1_1" arrivalPos="180.93" arrivalSpeed="8.83" duration="127.00" routeLength="718.04" waitingTime="54.00" waitingCount="2" stopTime="0.00" timeLoss="72.16" rerouteNo="1" devices="tripinfo_carIn30817:1 routing_carIn30817:1 emissions_carIn30817:1" vType="default_016" speedFactor="1.12" vaporized="">
        <emissions CO_abs="10575.064592" CO2_abs="316699.745256" HC_abs="55.579082" PMx_abs="6.487249" NOx_abs="135.371817" fuel_abs="136.139176" electricity_abs="0"/>
    </tripinfo>
    <tripinfo id="carIn86816:1" depart="57617.00" departLane="128361102#0_1" departPos="5.10" departSpeed="0.00" departDelay="0.80" arrival="57812.00" arrivalLane="201956811#0_1" arrivalPos="40.40" arrivalSpeed="14.52" duration="195.00" routeLength="2067.33" waitingTime="29.00" waitingCount="2" stopTime="0.00" timeLoss="58.32" rerouteNo="1" devices="tripinfo_carIn86816:1 routing_carIn86816:1 emissions_carIn86816:1" vType="default_016" speedFactor="1.11" vaporized="">
        <emissions CO_abs="9604.600222" CO2_abs="548996.926583" HC_abs="56.495002" PMx_abs="9.842068" NOx_abs="222.698960" fuel_abs="235.991317" electricity_abs="0"/>
    </tripinfo>
    <tripinfo id="h645c1:1" depart="57622.00" departLane="266565295#5_1" departPos="5.10" departSpeed="0.00" departDelay="0.40" arrival="57813.00" arrivalLane="-315358244_1" arrivalPos="33.95" arrivalSpeed="15.37" duration="191.00" routeLength="1910.83" waitingTime="44.00" waitingCount="2" stopTime="0.00" timeLoss="70.28" rerouteNo="1" devices="tripinfo_h645c1:1 routing_h645c1:1 emissions_h645c1:1" vType="default_016" speedFactor="1.15" vaporized="">
        <emissions CO_abs="11217.922817" CO2_abs="535327.029301" HC_abs="63.349482" PMx_abs="9.939055" NOx_abs="218.988735" fuel_abs="230.116253" electricity_abs="0"/>
    </tripinfo>
    <tripinfo id="carIn121703:1" depart="57647.00" departLane="386687232#0_1" departPos="5.10" departSpeed="0.00" departDelay="0.30" arrival="57813.00" arrivalLane="-315358244_2" arrivalPos="33.95" arrivalSpeed="13.89" duration="166.00" routeLength="1157.39" waitingTime="61.00" waitingCount="2" stopTime="0.00" timeLoss="84.15" rerouteNo="1" devices="tripinfo_carIn121703:1 routing_carIn121703:1 emissions_carIn121703:1" vType="default_016" speedFactor="1.04" vaporized="">
        <emissions CO_abs="12666.068273" CO2_abs="430154.893364" HC_abs="67.738672" PMx_abs="8.424224" NOx_abs="180.538871" fuel_abs="184.909169" electricity_abs="0"/>
    </tripinfo>
    <tripinfo id="h16072c2:3" depart="57663.00" departLane="315358254#0_1" departPos="5.10" departSpeed="0.00" departDelay="2.50" arrival="57813.00" arrivalLane="386687235_1" arrivalPos="80.84" arrivalSpeed="13.86" duration="150.00" routeLength="1611.92" waitingTime="25.00" waitingCount="1" stopTime="0.00" timeLoss="41.78" rerouteNo="1" devices="tripinfo_h16072c2:3 routing_h16072c2:3 emissions_h16072c2:3" vType="default_016" speedFactor="1.08" vaporized="">
        <emissions CO_abs="6938.371156" CO2_abs="374417.654677" HC_abs="40.222520" PMx_abs="6.336936" NOx_abs="148.806146" fuel_abs="160.947804" electricity_abs="0"/>
    </tripinfo>
    <tripinfo id="carIn12365:1" depart="57713.00" departLane="315358244_1" departPos="5.10" departSpeed="0.00" departDelay="0.50" arrival="57815.00" arrivalLane="447569997#1_1" arrivalPos="180.93" arrivalSpeed="7.04" duration="102.00" routeLength="718.04" waitingTime="20.00" waitingCount="2" stopTime="0.00" timeLoss="36.97" rerouteNo="1" devices="tripinfo_carIn12365:1 routing_carIn12365:1 emissions_carIn12365:1" vType="default_016" speedFactor="0.95" vaporized="">
        <emissions CO_abs="5338.801549" CO2_abs="218044.987574" HC_abs="29.377482" PMx_abs="3.889652" NOx_abs="89.843622" fuel_abs="93.729808" electricity_abs="0"/>
    </tripinfo>
    <tripinfo id="carIn129809:1" depart="57729.00" departLane="-447569998#1_1" departPos="5.10" departSpeed="0.00" departDelay="1.00" arrival="57815.00" arrivalLane="-315358244_1" arrivalPos="33.95" arrivalSpeed="14.21" duration="86.00" routeLength="706.49" waitingTime="12.00" waitingCount="2" stopTime="0.00" timeLoss="31.00" rerouteNo="1" devices="tripinfo_carIn129809:1 routing_carIn129809:1 emissions_carIn129809:1" vType="default_015" speedFactor="1.10" vaporized="">
        <emissions CO_abs="3892.234846" CO2_abs="209036.329536" HC_abs="22.581492" PMx_abs="3.732945" NOx_abs="85.542699" fuel_abs="89.856305" electricity_abs="0"/>
    </tripinfo>
    <tripinfo id="carIn12858:1" depart="57661.00" departLane="128361109#1_1" departPos="5.10" departSpeed="0.00" departDelay="0.90" arrival="57826.00" arrivalLane="399835085#1_1" arrivalPos="212.23" arrivalSpeed="7.65" duration="165.00" routeLength="1738.12" waitingTime="11.00" waitingCount="3" stopTime="0.00" timeLoss="45.67" rerouteNo="1" devices="tripinfo_carIn12858:1 routing_carIn12858:1 emissions_carIn12858:1" vType="default_016" speedFactor="0.97" vaporized="">
        <emissions CO_abs="8246.263866" CO2_abs="495980.071634" HC_abs="49.327994" PMx_abs="9.306424" NOx_abs="203.929419" fuel_abs="213.200561" electricity_abs="0"/>
    </tripinfo>
    <tripinfo id="carIn50326:1" depart="57651.00" departLane="128361102#0_1" departPos="5.10" departSpeed="0.00" departDelay="0.30" arrival="57830.00" arrivalLane="18809673#0_1" arrivalPos="473.56" arrivalSpeed="14.59" duration="179.00" routeLength="1591.07" waitingTime="31.00" waitingCount="2" stopTime="0.00" timeLoss="55.63" rerouteNo="1" devices="tripinfo_carIn50326:1 routing_carIn50326:1 emissions_carIn50326:1" vType="default_016" speedFactor="1.05" vaporized="">
        <emissions CO_abs="8578.581795" CO2_abs="404257.137983" HC_abs="48.459884" PMx_abs="7.220333" NOx_abs="165.097769" fuel_abs="173.774813" electricity_abs="0"/>
    </tripinfo>
    <tripinfo id="carIn102915:1" depart="57643.00" departLane="128361102#0_1" departPos="5.10" departSpeed="0.00" departDelay="0.40" arrival="57832.00" arrivalLane="201956811#0_1" arrivalPos="40.40" arrivalSpeed="13.28" duration="189.00" routeLength="2067.33" waitingTime="13.00" waitingCount="1" stopTime="0.00" timeLoss="36.27" rerouteNo="1" devices="tripinfo_carIn102915:1 routing_carIn102915:1 emissions_carIn102915:1" vType="default_016" speedFactor="1.00" vaporized="">
        <emissions CO_abs="6161.843474" CO2_abs="441337.887480" HC_abs="38.361384" PMx_abs="7.252041" NOx_abs="175.300335" fuel_abs="189.712744" electricity_abs="0"/>
    </tripinfo>
    <tripinfo id="50R_frequency3.17" depart="57674.00" departLane="-18809673#6_1" departPos="12.10" departSpeed="0.00" departDelay="0.70" arrival="57834.00" arrivalLane="201956811#0_1" arrivalPos="40.40" arrivalSpeed="13.88" duration="160.00" routeLength="1954.47" waitingTime="0.00" waitingCount="0" stopTime="0.00" timeLoss="14.69" rerouteNo="1" devices="tripinfo_50R_frequency3.17 routing_50R_frequency3.17 emissions_50R_frequency3.17" vType="bus" speedFactor="1.00" vaporized="">
        <emissions CO_abs="3071.741848" CO2_abs="1956417.279816" HC_abs="661.982247" PMx_abs="331.056041" NOx_abs="15074.101846" fuel_abs="834.418036" electricity_abs="0"/>
    </tripinfo>
    <tripinfo id="randUni15030:1" depart="57735.00" departLane="386687232#0_1" departPos="5.10" departSpeed="0.00" departDelay="0.10" arrival="57834.00" arrivalLane="26677539_1" arrivalPos="151.98" arrivalSpeed="9.32" duration="99.00" routeLength="919.89" waitingTime="15.00" waitingCount="1" stopTime="0.00" timeLoss="32.72" rerouteNo="1" devices="tripinfo_randUni15030:1 routing_randUni15030:1 emissions_randUni15030:1" vType="random_016" speedFactor="1.26" vaporized="">
        <emissions CO_abs="5180.018163" CO2_abs="254496.820276" HC_abs="29.528977" PMx_abs="4.718238" NOx_abs="105.159472" fuel_abs="109.398066" electricity_abs="0"/>
    </tripinfo>
    <tripinfo id="carIn81860:1" depart="57712.00" departLane="128361102#0_1" departPos="5.10" departSpeed="0.00" departDelay="0.60" arrival="57835.00" arrivalLane="-24634517#17_1" arrivalPos="6.43" arrivalSpeed="7.60" duration="123.00" routeLength="1229.64" waitingTime="11.00" waitingCount="2" stopTime="0.00" timeLoss="35.94" rerouteNo="1" devices="tripinfo_carIn81860:1 routing_carIn81860:1 emissions_carIn81860:1" vType="default_016" speedFactor="1.05" vaporized="">
        <emissions CO_abs="4707.956893" CO2_abs="300132.949567" HC_abs="28.377513" PMx_abs="5.124034" NOx_abs="120.590750" fuel_abs="129.014751" electricity_abs="0"/>
    </tripinfo>
    <tripinfo id="h11737c1:1" depart="57665.00" departLane="272042143_1" departPos="5.10" departSpeed="0.00" departDelay="1.50" arrival="57836.00" arrivalLane="-315358254#1_1" arrivalPos="137.16" arrivalSpeed="14.09" duration="171.00" routeLength="1596.88" waitingTime="32.00" waitingCount="2" stopTime="0.00" timeLoss="56.71" rerouteNo="1" devices="tripinfo_h11737c1:1 routing_h11737c1:1 emissions_h11737c1:1" vType="default_016" speedFactor="1.02" vaporized="">
        <emissions CO_abs="8377.631048" CO2_abs="424428.474793" HC_abs="48.071311" PMx_abs="7.552072" NOx_abs="172.758418" fuel_abs="182.445259" electricity_abs="0"/>
    </tripinfo>
    <tripinfo id="h20540c1:1" depart="57634.00" departLane="10425609#0_1" departPos="5.10" departSpeed="0.00" departDelay="0.50" arrival="57838.00" arrivalLane="-128361102#1_1" arrivalPos="274.68" arrivalSpeed="12.17" duration="204.00" routeLength="2113.04" waitingTime="18.00" waitingCount="1" stopTime="0.00" timeLoss="41.40" rerouteNo="1" devices="tripinfo_h20540c1:1 routing_h20540c1:1 emissions_h20540c1:1" vType="default_016" speedFactor="0.95" vaporized="">
        <emissions CO_abs="7709.735072" CO2_abs="477882.223765" HC_abs="46.241991" PMx_abs="7.894662" NOx_abs="190.630486" fuel_abs="205.422398" electricity_abs="0"/>
    </tripinfo>
    <tripinfo id="carIn126288:1" depart="57674.00" departLane="272042143_1" departPos="5.10" departSpeed="0.00" departDelay="0.00" arrival="57839.00" arrivalLane="-315358254#1_1" arrivalPos="137.16" arrivalSpeed="13.52" duration="165.00" routeLength="1596.88" waitingTime="21.00" waitingCount="2" stopTime="0.00" timeLoss="45.61" rerouteNo="1" devices="tripinfo_carIn126288:1 routing_carIn126288:1 emissions_carIn126288:1" vType="default_016" speedFactor="0.98" vaporized="">
        <emissions CO_abs="6978.552771" CO2_abs="395721.585696" HC_abs="40.978814" PMx_abs="6.555847" NOx_abs="157.761993" fuel_abs="170.105337" electricity_abs="0"/>
    </tripinfo>
    <tripinfo id="carIn118591:1" depart="57689.00" departLane="315358244_1" departPos="5.10" departSpeed="0.00" departDelay="0.20" arrival="57843.00" arrivalLane="386687235_1" arrivalPos="80.84" arrivalSpeed="12.20" duration="154.00" routeLength="1186.14" waitingTime="40.00" waitingCount="2" stopTime="0.00" timeLoss="60.48" rerouteNo="1" devices="tripinfo_carIn118591:1 routing_carIn118591:1 emissions_carIn118591:1" vType="default_016" speedFactor="0.93" vaporized="">
        <emissions CO_abs="9465.729033" CO2_abs="358889.379205" HC_abs="51.489666" PMx_abs="6.690819" NOx_abs="148.939790" fuel_abs="154.274040" electricity_abs="0"/>
    </tripinfo>
    <tripinfo id="h5979c1:5" depart="57669.00" departLane="399835085#1_1" departPos="5.10" departSpeed="0.00" departDelay="0.00" arrival="57844.00" arrivalLane="-315358254#1_1" arrivalPos="137.16" arrivalSpeed="14.51" duration="175.00" routeLength="659.33" waitingTime="87.00" waitingCount="2" stopTime="0.00" timeLoss="104.88" rerouteNo="1" devices="tripinfo_h5979c1:5 routing_h5979c1:5 emissions_h5979c1:5" vType="default_016" speedFactor="1.05" vaporized="">
        <emissions CO_abs="16881.420508" CO2_abs="408200.155658" HC_abs="86.379689" PMx_abs="8.517820" NOx_abs="176.446613" fuel_abs="175.474748" electricity_abs="0"/>
    </tripinfo>
    <tripinfo id="carIn82278:1" depart="57702.00" departLane="-306240162#1_0" departPos="5.10" departSpeed="0.00" departDelay="0.70" arrival="57857.00" arrivalLane="399835085#1_1" arrivalPos="212.23" arrivalSpeed="6.77" duration="155.00" routeLength="1093.26" waitingTime="32.00" waitingCount="4" stopTime="0.00" timeLoss="72.15" rerouteNo="1" devices="tripinfo_carIn82278:1 routing_carIn82278:1 emissions_carIn82278:1" vType="default_016" speedFactor="0.95" vaporized="">
        <emissions CO_abs="8629.932370" CO2_abs="381904.155252" HC_abs="48.336184" PMx_abs="7.488209" NOx_abs="160.920961" fuel_abs="164.165488" electricity_abs="0"/>
    </tripinfo>
    <tripinfo id="carIn73855:1" depart="57743.00" departLane="386687232#0_1" departPos="5.10" departSpeed="0.00" departDelay="0.50" arrival="57857.00" arrivalLane="-315358244_1" arrivalPos="33.95" arrivalSpeed="11.93" duration="114.00" routeLength="1157.39" waitingTime="9.00" waitingCount="1" stopTime="0.00" timeLoss="22.59" rerouteNo="1" devices="tripinfo_carIn73855:1 routing_carIn73855:1 emissions_carIn73855:1" vType="default_016" speedFactor="0.93" vaporized="">
        <emissions CO_abs="3835.999625" CO2_abs="256550.147318" HC_abs="23.420389" PMx_abs="4.047012" NOx_abs="101.068596" fuel_abs="110.280654" electricity_abs="0"/>
    </tripinfo>
    <tripinfo id="carIn118538:1" depart="57683.00" departLane="-447569998#1_1" departPos="5.10" departSpeed="0.00" departDelay="1.00" arrival="57859.00" arrivalLane="399835085#1_1" arrivalPos="212.23" arrivalSpeed="10.09" duration="176.00" routeLength="1907.17" waitingTime="17.00" waitingCount="1" stopTime="0.00" timeLoss="51.20" rerouteNo="1" devices="tripinfo_carIn118538:1 routing_carIn118538:1 emissions_carIn118538:1" vType="default_016" speedFactor="1.31" vaporized="">
        <emissions CO_abs="7617.916252" CO2_abs="442905.556745" HC_abs="44.767432" PMx_abs="7.756839" NOx_abs="177.553914" fuel_abs="190.387205" electricity_abs="0"/>
    </tripinfo>
    <tripinfo id="randUni33724:1" depart="57646.00" departLane="128361102#0_1" departPos="5.10" departSpeed="0.00" departDelay="1.20" arrival="57863.00" arrivalLane="201956811#0_1" arrivalPos="40.40" arrivalSpeed="11.63" duration="217.00" routeLength="2067.33" waitingTime="21.00" waitingCount="3" stopTime="0.00" timeLoss="53.74" rerouteNo="1" devices="tripinfo_randUni33724:1 routing_randUni33724:1 emissions_randUni33724:1" vType="random_016" speedFactor="0.93" vaporized="">
        <emissions CO_abs="8466.287074" CO2_abs="493517.614111" HC_abs="50.051263" PMx_abs="8.293911" NOx_abs="198.702470" fuel_abs="212.143546" electricity_abs="0"/>
    </tripinfo>
    <tripinfo id="h9953c2:3" depart="57682.00" departLane="-54169231#2_1" departPos="5.10" departSpeed="0.00" departDelay="0.00" arrival="57863.00" arrivalLane="386687235_2" arrivalPos="80.84" arrivalSpeed="14.72" duration="181.00" routeLength="1535.60" waitingTime="36.00" waitingCount="3" stopTime="0.00" timeLoss="69.80" rerouteNo="1" devices="tripinfo_h9953c2:3 routing_h9953c2:3 emissions_h9953c2:3" vType="default_016" speedFactor="1.13" vaporized="">
        <emissions CO_abs="10006.319513" CO2_abs="475375.478689" HC_abs="56.626580" PMx_abs="8.833380" NOx_abs="196.413440" fuel_abs="204.345281" electricity_abs="0"/>
    </tripinfo>
    <tripinfo id="h11868c1:5" depart="57700.00" departLane="315358254#0_1" departPos="5.10" departSpeed="0.00" departDelay="0.10" arrival="57863.00" arrivalLane="386687235_1" arrivalPos="80.84" arrivalSpeed="14.46" duration="163.00" routeLength="1611.92" waitingTime="32.00" waitingCount="2" stopTime="0.00" timeLoss="56.73" rerouteNo="1" devices="tripinfo_h11868c1:5 routing_h11868c1:5 emissions_h11868c1:5" vType="default_016" speedFactor="1.11" vaporized="">