<?xml version="1.0" encoding="UTF-8"?>

<!-- generated on Thu Nov  4 13:38:30 2021 by Eclipse SUMO sumo Version 1.9.0
<configuration xmlns:xsi="http://www.w3.org/2001/XMLSchema-instance" xsi:noNamespaceSchemaLocation="http://sumo.dlr.de/xsd/sumoConfiguration.xsd">

    <input>
        <net-file value="/mainfs/home/bk2g18/RESCO/environments/ingolstadt21/ingolstadt21.net.xml"/>
        <route-files value="/mainfs/home/bk2g18/RESCO/environments/ingolstadt21/ingolstadt21.rou.xml"/>
    </input>

    <output>
        <tripinfo-output value="/mainfs/home/bk2g18/RESCO/logs/MPLight-tr0-ingolstadt21-21-mplight-pressure/tripinfo_46.xml"/>
        <tripinfo-output.write-unfinished value="true"/>
    </output>

    <time>
        <begin value="57600"/>
        <end value="61200"/>
    </time>

    <processing>
        <time-to-teleport value="-1"/>
    </processing>

    <report>
        <xml-validation value="never"/>
        <xml-validation.routes value="never"/>
        <no-warnings value="true"/>
        <no-step-log value="true"/>
    </report>

    <emissions>
        <device.emissions.probability value="1"/>
    </emissions>

    <traci_server>
        <remote-port value="54829"/>
    </traci_server>

    <random_number>
        <random value="true"/>
    </random_number>

</configuration>
-->

<tripinfos xmlns:xsi="http://www.w3.org/2001/XMLSchema-instance" xsi:noNamespaceSchemaLocation="http://sumo.dlr.de/xsd/tripinfo_file.xsd">
    <tripinfo id="h15454c2:3" depart="57612.00" departLane="24608844_1" departPos="5.10" departSpeed="0.00" departDelay="0.50" arrival="57649.00" arrivalLane="32978638#0_1" arrivalPos="49.29" arrivalSpeed="13.40" duration="37.00" routeLength="354.79" waitingTime="0.00" waitingCount="0" stopTime="0.00" timeLoss="4.04" rerouteNo="1" devices="tripinfo_h15454c2:3 routing_h15454c2:3 emissions_h15454c2:3" vType="default_016" speedFactor="1.06" vaporized="">
        <emissions CO_abs="1637.359190" CO2_abs="100738.691662" HC_abs="9.759060" PMx_abs="1.619519" NOx_abs="40.171842" fuel_abs="43.303567" electricity_abs="0"/>
    </tripinfo>
    <tripinfo id="carIn60260:1" depart="57606.00" departLane="315358254#0_1" departPos="5.10" departSpeed="0.00" departDelay="0.90" arrival="57682.00" arrivalLane="399835085#1_1" arrivalPos="212.23" arrivalSpeed="6.38" duration="76.00" routeLength="430.98" waitingTime="11.00" waitingCount="1" stopTime="0.00" timeLoss="20.32" rerouteNo="1" devices="tripinfo_carIn60260:1 routing_carIn60260:1 emissions_carIn60260:1" vType="default_016" speedFactor="0.83" vaporized="">
        <emissions CO_abs="4055.736387" CO2_abs="140536.216984" HC_abs="21.693277" PMx_abs="2.431315" NOx_abs="57.887541" fuel_abs="60.412129" electricity_abs="0"/>
    </tripinfo>
    <tripinfo id="carIn53971:1" depart="57640.00" departLane="272042143_1" departPos="5.10" departSpeed="0.00" departDelay="0.80" arrival="57697.00" arrivalLane="24634414#1_1" arrivalPos="162.19" arrivalSpeed="7.84" duration="57.00" routeLength="493.04" waitingTime="0.00" waitingCount="0" stopTime="0.00" timeLoss="9.21" rerouteNo="1" devices="tripinfo_carIn53971:1 routing_carIn53971:1 emissions_carIn53971:1" vType="default_016" speedFactor="0.95" vaporized="">
        <emissions CO_abs="2523.993099" CO2_abs="139348.812184" HC_abs="14.740421" PMx_abs="2.400125" NOx_abs="56.970300" fuel_abs="59.900473" electricity_abs="0"/>
    </tripinfo>
    <tripinfo id="h7800c1:5" depart="57696.00" departLane="-447569998#1_1" departPos="5.10" departSpeed="0.00" departDelay="0.00" arrival="57727.00" arrivalLane="-447569998#1_2" arrivalPos="180.76" arrivalSpeed="6.65" duration="31.00" routeLength="175.66" waitingTime="0.00" waitingCount="0" stopTime="0.00" timeLoss="4.71" rerouteNo="1" devices="tripinfo_h7800c1:5 routing_h7800c1:5 emissions_h7800c1:5" vType="default_016" speedFactor="0.83" vaporized="">
        <emissions CO_abs="1595.088302" CO2_abs="57299.727760" HC_abs="8.572725" PMx_abs="0.965282" NOx_abs="23.591456" fuel_abs="24.631336" electricity_abs="0"/>
    </tripinfo>
    <tripinfo id="h317c2:1" depart="57707.00" departLane="-32978638#0_1" departPos="5.10" departSpeed="0.00" departDelay="0.10" arrival="57738.00" arrivalLane="-266565295#5_1" arrivalPos="172.76" arrivalSpeed="15.30" duration="31.00" routeLength="370.53" waitingTime="0.00" waitingCount="0" stopTime="0.00" timeLoss="5.90" rerouteNo="1" devices="tripinfo_h317c2:1 routing_h317c2:1 emissions_h317c2:1" vType="default_016" speedFactor="1.12" vaporized="">
        <emissions CO_abs="1602.403659" CO2_abs="112235.576243" HC_abs="9.902629" PMx_abs="2.001569" NOx_abs="45.663193" fuel_abs="48.245166" electricity_abs="0"/>
    </tripinfo>
    <tripinfo id="h4538c1:1" depart="57701.00" departLane="-10427692#1_1" departPos="5.10" departSpeed="0.00" departDelay="0.00" arrival="57742.00" arrivalLane="-128361102#1_1" arrivalPos="274.68" arrivalSpeed="12.27" duration="41.00" routeLength="440.74" waitingTime="0.00" waitingCount="0" stopTime="0.00" timeLoss="7.36" rerouteNo="1" devices="tripinfo_h4538c1:1 routing_h4538c1:1 emissions_h4538c1:1" vType="default_016" speedFactor="0.93" vaporized="">
        <emissions CO_abs="1692.047865" CO2_abs="111414.667481" HC_abs="10.304593" PMx_abs="1.856951" NOx_abs="44.790563" fuel_abs="47.892556" electricity_abs="0"/>
    </tripinfo>
    <tripinfo id="h7181c1:1" depart="57660.00" departLane="315358254#0_1" departPos="5.10" departSpeed="0.00" departDelay="0.10" arrival="57744.00" arrivalLane="306240162#0_0" arrivalPos="220.43" arrivalSpeed="13.24" duration="84.00" routeLength="932.35" waitingTime="11.00" waitingCount="1" stopTime="0.00" timeLoss="22.48" rerouteNo="1" devices="tripinfo_h7181c1:1 routing_h7181c1:1 emissions_h7181c1:1" vType="default_016" speedFactor="0.84" vaporized="">
        <emissions CO_abs="3953.058447" CO2_abs="235277.625321" HC_abs="23.459766" PMx_abs="4.157754" NOx_abs="94.533011" fuel_abs="101.136229" electricity_abs="0"/>
    </tripinfo>
    <tripinfo id="h3688c1:1" depart="57625.00" departLane="201201950#1_1" departPos="5.10" departSpeed="0.00" departDelay="0.00" arrival="57745.00" arrivalLane="32978638#0_1" arrivalPos="49.29" arrivalSpeed="12.45" duration="120.00" routeLength="1089.75" waitingTime="13.00" waitingCount="2" stopTime="0.00" timeLoss="33.00" rerouteNo="1" devices="tripinfo_h3688c1:1 routing_h3688c1:1 emissions_h3688c1:1" vType="default_016" speedFactor="0.92" vaporized="">
        <emissions CO_abs="4464.265439" CO2_abs="280192.478749" HC_abs="26.858696" PMx_abs="4.657962" NOx_abs="112.491356" fuel_abs="120.443359" electricity_abs="0"/>
    </tripinfo>
    <tripinfo id="h3568c1:3" depart="57656.00" departLane="266565295#5_1" departPos="5.10" departSpeed="0.00" departDelay="0.80" arrival="57755.00" arrivalLane="-24634415_1" arrivalPos="62.03" arrivalSpeed="14.93" duration="99.00" routeLength="807.40" waitingTime="13.00" waitingCount="1" stopTime="0.00" timeLoss="39.81" rerouteNo="1" devices="tripinfo_h3568c1:3 routing_h3568c1:3 emissions_h3568c1:3" vType="default_016" speedFactor="1.10" vaporized="">
        <emissions CO_abs="6075.451066" CO2_abs="308282.527996" HC_abs="34.913175" PMx_abs="5.941697" NOx_abs="129.573184" fuel_abs="132.517813" electricity_abs="0"/>
    </tripinfo>
    <tripinfo id="h5979c1:5" depart="57669.00" departLane="399835085#1_1" departPos="5.10" departSpeed="0.00" departDelay="0.00" arrival="57758.00" arrivalLane="-315358254#1_1" arrivalPos="137.16" arrivalSpeed="13.19" duration="89.00" routeLength="659.33" waitingTime="4.00" waitingCount="1" stopTime="0.00" timeLoss="17.22" rerouteNo="1" devices="tripinfo_h5979c1:5 routing_h5979c1:5 emissions_h5979c1:5" vType="default_016" speedFactor="1.02" vaporized="">
        <emissions CO_abs="3779.280804" CO2_abs="181651.706051" HC_abs="21.403962" PMx_abs="3.033357" NOx_abs="73.971887" fuel_abs="78.085323" electricity_abs="0"/>
    </tripinfo>
    <tripinfo id="carIn27009:1" depart="57673.00" departLane="-447569998#1_1" departPos="5.10" departSpeed="0.00" departDelay="0.50" arrival="57759.00" arrivalLane="-26677539_1" arrivalPos="152.75" arrivalSpeed="8.72" duration="86.00" routeLength="699.63" waitingTime="0.00" waitingCount="0" stopTime="0.00" timeLoss="10.52" rerouteNo="1" devices="tripinfo_carIn27009:1 routing_carIn27009:1 emissions_carIn27009:1" vType="default_015" speedFactor="1.10" vaporized="">
        <emissions CO_abs="3169.668837" CO2_abs="168776.481473" HC_abs="18.303063" PMx_abs="2.625797" NOx_abs="67.550657" fuel_abs="72.550737" electricity_abs="0"/>
    </tripinfo>
    <tripinfo id="carIn22761:1" depart="57616.00" departLane="-306240162#1_0" departPos="5.10" departSpeed="0.00" departDelay="2.10" arrival="57761.00" arrivalLane="399835085#1_1" arrivalPos="212.23" arrivalSpeed="6.09" duration="145.00" routeLength="1093.26" waitingTime="30.00" waitingCount="2" stopTime="0.00" timeLoss="54.90" rerouteNo="1" devices="tripinfo_carIn22761:1 routing_carIn22761:1 emissions_carIn22761:1" vType="default_016" speedFactor="0.87" vaporized="">
        <emissions CO_abs="9294.937862" CO2_abs="375293.750113" HC_abs="51.072087" PMx_abs="7.199888" NOx_abs="156.694988" fuel_abs="161.324903" electricity_abs="0"/>
    </tripinfo>
    <tripinfo id="h3154c1:1" depart="57658.00" departLane="24634507_1" departPos="5.10" departSpeed="0.00" departDelay="0.00" arrival="57764.00" arrivalLane="-266565295#5_1" arrivalPos="172.76" arrivalSpeed="15.18" duration="106.00" routeLength="1206.22" waitingTime="11.00" waitingCount="1" stopTime="0.00" timeLoss="27.41" rerouteNo="1" devices="tripinfo_h3154c1:1 routing_h3154c1:1 emissions_h3154c1:1" vType="default_016" speedFactor="1.13" vaporized="">
        <emissions CO_abs="5079.962116" CO2_abs="333522.143754" HC_abs="30.921296" PMx_abs="5.978642" NOx_abs="135.206269" fuel_abs="143.366889" electricity_abs="0"/>
    </tripinfo>
    <tripinfo id="h12244c1:3" depart="57612.00" departLane="315358244_1" departPos="5.10" departSpeed="0.00" departDelay="0.40" arrival="57768.00" arrivalLane="386687235_1" arrivalPos="80.84" arrivalSpeed="11.57" duration="156.00" routeLength="1186.14" waitingTime="36.00" waitingCount="2" stopTime="0.00" timeLoss="59.83" rerouteNo="1" devices="tripinfo_h12244c1:3 routing_h12244c1:3 emissions_h12244c1:3" vType="default_016" speedFactor="0.90" vaporized="">
        <emissions CO_abs="9576.135443" CO2_abs="369107.493548" HC_abs="52.206757" PMx_abs="6.742358" NOx_abs="152.448296" fuel_abs="158.666511" electricity_abs="0"/>
    </tripinfo>
    <tripinfo id="carIn121703:1" depart="57647.00" departLane="386687232#0_1" departPos="5.10" departSpeed="0.00" departDelay="0.30" arrival="57769.00" arrivalLane="-315358244_1" arrivalPos="33.95" arrivalSpeed="11.84" duration="122.00" routeLength="1157.39" waitingTime="16.00" waitingCount="2" stopTime="0.00" timeLoss="32.13" rerouteNo="1" devices="tripinfo_carIn121703:1 routing_carIn121703:1 emissions_carIn121703:1" vType="default_016" speedFactor="0.94" vaporized="">
        <emissions CO_abs="5167.036753" CO2_abs="284832.471030" HC_abs="30.157231" PMx_abs="4.757797" NOx_abs="114.158200" fuel_abs="122.438443" electricity_abs="0"/>
    </tripinfo>
    <tripinfo id="h9563c2:5" depart="57631.00" departLane="315358244_1" departPos="5.10" departSpeed="0.00" departDelay="0.70" arrival="57770.00" arrivalLane="386687235_1" arrivalPos="80.84" arrivalSpeed="12.40" duration="139.00" routeLength="1186.14" waitingTime="17.00" waitingCount="1" stopTime="0.00" timeLoss="42.87" rerouteNo="1" devices="tripinfo_h9563c2:5 routing_h9563c2:5 emissions_h9563c2:5" vType="default_016" speedFactor="0.90" vaporized="">
        <emissions CO_abs="6825.782947" CO2_abs="336928.065284" HC_abs="38.970377" PMx_abs="6.059716" NOx_abs="138.745694" fuel_abs="144.832175" electricity_abs="0"/>
    </tripinfo>
    <tripinfo id="h645c1:1" depart="57622.00" departLane="266565295#5_1" departPos="5.10" departSpeed="0.00" departDelay="0.40" arrival="57771.00" arrivalLane="-315358244_1" arrivalPos="33.95" arrivalSpeed="13.66" duration="149.00" routeLength="1910.83" waitingTime="0.00" waitingCount="0" stopTime="0.00" timeLoss="11.32" rerouteNo="1" devices="tripinfo_h645c1:1 routing_h645c1:1 emissions_h645c1:1" vType="default_016" speedFactor="1.01" vaporized="">
        <emissions CO_abs="3293.531600" CO2_abs="336089.101084" HC_abs="22.766638" PMx_abs="5.055681" NOx_abs="129.212956" fuel_abs="144.470321" electricity_abs="0"/>
    </tripinfo>
    <tripinfo id="h3326c1:2" depart="57656.00" departLane="22716069#0_1" departPos="5.10" departSpeed="0.00" departDelay="0.00" arrival="57772.00" arrivalLane="24634517#13_1" arrivalPos="111.62" arrivalSpeed="13.09" duration="116.00" routeLength="1312.81" waitingTime="0.00" waitingCount="0" stopTime="0.00" timeLoss="15.23" rerouteNo="1" devices="tripinfo_h3326c1:2 routing_h3326c1:2 emissions_h3326c1:2" vType="default_016" speedFactor="0.97" vaporized="">
        <emissions CO_abs="3987.081062" CO2_abs="303274.334135" HC_abs="25.219609" PMx_abs="4.967813" NOx_abs="120.723761" fuel_abs="130.364754" electricity_abs="0"/>
    </tripinfo>
    <tripinfo id="carIn30817:1" depart="57681.00" departLane="315358244_1" departPos="5.10" departSpeed="0.00" departDelay="0.20" arrival="57781.00" arrivalLane="447569997#1_1" arrivalPos="180.93" arrivalSpeed="7.95" duration="100.00" routeLength="718.04" waitingTime="20.00" waitingCount="2" stopTime="0.00" timeLoss="37.77" rerouteNo="1" devices="tripinfo_carIn30817:1 routing_carIn30817:1 emissions_carIn30817:1" vType="default_016" speedFactor="1.00" vaporized="">
        <emissions CO_abs="5247.061265" CO2_abs="219162.333899" HC_abs="29.021300" PMx_abs="4.069700" NOx_abs="91.268773" fuel_abs="94.209776" electricity_abs="0"/>
    </tripinfo>
    <tripinfo id="carIn80064:1" depart="57603.00" departLane="128361109#1_1" departPos="5.10" departSpeed="0.00" departDelay="0.40" arrival="57791.00" arrivalLane="-315358254#1_1" arrivalPos="137.16" arrivalSpeed="13.24" duration="188.00" routeLength="1587.97" waitingTime="58.00" waitingCount="2" stopTime="0.00" timeLoss="97.47" rerouteNo="1" devices="tripinfo_carIn80064:1 routing_carIn80064:1 emissions_carIn80064:1" vType="default_016" speedFactor="0.98" vaporized="">
        <emissions CO_abs="14999.190435" CO2_abs="598579.953235" HC_abs="82.521674" PMx_abs="12.201298" NOx_abs="252.070640" fuel_abs="257.306714" electricity_abs="0"/>
    </tripinfo>
    <tripinfo id="h330c1:1" depart="57736.00" departLane="-32978638#0_1" departPos="5.10" departSpeed="0.00" departDelay="0.20" arrival="57796.00" arrivalLane="-266565295#5_1" arrivalPos="172.76" arrivalSpeed="12.03" duration="60.00" routeLength="370.53" waitingTime="23.00" waitingCount="1" stopTime="0.00" timeLoss="30.64" rerouteNo="1" devices="tripinfo_h330c1:1 routing_h330c1:1 emissions_h330c1:1" vType="default_016" speedFactor="0.93" vaporized="">
        <emissions CO_abs="4762.615098" CO2_abs="156687.917980" HC_abs="25.360589" PMx_abs="3.102080" NOx_abs="66.427063" fuel_abs="67.354915" electricity_abs="0"/>
    </tripinfo>
    <tripinfo id="carIn107282:1" depart="57749.00" departLane="-447569998#1_1" departPos="5.10" departSpeed="0.00" departDelay="0.00" arrival="57796.00" arrivalLane="315358242#0_1" arrivalPos="165.37" arrivalSpeed="12.77" duration="47.00" routeLength="448.50" waitingTime="0.00" waitingCount="0" stopTime="0.00" timeLoss="4.97" rerouteNo="1" devices="tripinfo_carIn107282:1 routing_carIn107282:1 emissions_carIn107282:1" vType="default_016" speedFactor="0.99" vaporized="">
        <emissions CO_abs="1825.796523" CO2_abs="109287.156752" HC_abs="10.847659" PMx_abs="1.775000" NOx_abs="43.784665" fuel_abs="46.978225" electricity_abs="0"/>
    </tripinfo>
    <tripinfo id="carIn12858:1" depart="57661.00" departLane="128361109#1_1" departPos="5.10" departSpeed="0.00" departDelay="0.90" arrival="57802.00" arrivalLane="399835085#1_1" arrivalPos="212.23" arrivalSpeed="7.78" duration="141.00" routeLength="1738.12" waitingTime="0.00" waitingCount="0" stopTime="0.00" timeLoss="24.22" rerouteNo="1" devices="tripinfo_carIn12858:1 routing_carIn12858:1 emissions_carIn12858:1" vType="default_016" speedFactor="0.98" vaporized="">
        <emissions CO_abs="6803.706584" CO2_abs="446324.471321" HC_abs="41.614971" PMx_abs="8.524574" NOx_abs="184.180883" fuel_abs="191.855020" electricity_abs="0"/>
    </tripinfo>
    <tripinfo id="h16072c2:3" depart="57663.00" departLane="315358254#0_1" departPos="5.10" departSpeed="0.00" departDelay="2.50" arrival="57803.00" arrivalLane="386687235_1" arrivalPos="80.84" arrivalSpeed="14.73" duration="140.00" routeLength="1611.92" waitingTime="10.00" waitingCount="2" stopTime="0.00" timeLoss="29.73" rerouteNo="1" devices="tripinfo_h16072c2:3 routing_h16072c2:3 emissions_h16072c2:3" vType="default_016" speedFactor="1.07" vaporized="">
        <emissions CO_abs="5084.193318" CO2_abs="384753.560380" HC_abs="32.053692" PMx_abs="6.480951" NOx_abs="153.260471" fuel_abs="165.389051" electricity_abs="0"/>
    </tripinfo>
    <tripinfo id="carIn48184:1" depart="57613.00" departLane="-306240162#1_0" departPos="5.10" departSpeed="0.00" departDelay="0.70" arrival="57805.00" arrivalLane="386687235_1" arrivalPos="80.84" arrivalSpeed="14.55" duration="192.00" routeLength="2257.41" waitingTime="23.00" waitingCount="2" stopTime="0.00" timeLoss="50.99" rerouteNo="1" devices="tripinfo_carIn48184:1 routing_carIn48184:1 emissions_carIn48184:1" vType="default_016" speedFactor="1.05" vaporized="">
        <emissions CO_abs="10176.428279" CO2_abs="616140.698293" HC_abs="60.876233" PMx_abs="11.461363" NOx_abs="251.835716" fuel_abs="264.852628" electricity_abs="0"/>
    </tripinfo>
    <tripinfo id="carIn28951:1" depart="57606.00" departLane="10425609#0_1" departPos="5.10" departSpeed="0.00" departDelay="0.20" arrival="57807.00" arrivalLane="-128361102#1_1" arrivalPos="274.68" arrivalSpeed="12.89" duration="201.00" routeLength="2113.04" waitingTime="13.00" waitingCount="2" stopTime="0.00" timeLoss="41.20" rerouteNo="1" devices="tripinfo_carIn28951:1 routing_carIn28951:1 emissions_carIn28951:1" vType="default_016" speedFactor="0.97" vaporized="">
        <emissions CO_abs="6729.500401" CO2_abs="479855.400813" HC_abs="41.843322" PMx_abs="7.859193" NOx_abs="190.994756" fuel_abs="206.269824" electricity_abs="0"/>
    </tripinfo>
    <tripinfo id="carIn82220:1" depart="57619.00" departLane="-306240162#1_0" departPos="5.10" departSpeed="0.00" departDelay="3.50" arrival="57807.00" arrivalLane="386687235_1" arrivalPos="80.84" arrivalSpeed="14.70" duration="188.00" routeLength="2257.41" waitingTime="11.00" waitingCount="2" stopTime="0.00" timeLoss="49.20" rerouteNo="1" devices="tripinfo_carIn82220:1 routing_carIn82220:1 emissions_carIn82220:1" vType="default_016" speedFactor="1.07" vaporized="">
        <emissions CO_abs="7502.070976" CO2_abs="545752.787348" HC_abs="47.059573" PMx_abs="9.863899" NOx_abs="221.466674" fuel_abs="234.594991" electricity_abs="0"/>
    </tripinfo>
    <tripinfo id="h11737c1:1" depart="57665.00" departLane="272042143_1" departPos="5.10" departSpeed="0.00" departDelay="1.50" arrival="57807.00" arrivalLane="-315358254#1_1" arrivalPos="137.16" arrivalSpeed="13.51" duration="142.00" routeLength="1596.88" waitingTime="13.00" waitingCount="1" stopTime="0.00" timeLoss="30.28" rerouteNo="1" devices="tripinfo_h11737c1:1 routing_h11737c1:1 emissions_h11737c1:1" vType="default_016" speedFactor="1.04" vaporized="">
        <emissions CO_abs="5987.394441" CO2_abs="367334.664367" HC_abs="35.837107" PMx_abs="6.417973" NOx_abs="148.269942" fuel_abs="157.901998" electricity_abs="0"/>
    </tripinfo>
    <tripinfo id="carIn126288:1" depart="57674.00" departLane="272042143_1" departPos="5.10" departSpeed="0.00" departDelay="0.00" arrival="57811.00" arrivalLane="-315358254#1_1" arrivalPos="137.16" arrivalSpeed="13.90" duration="137.00" routeLength="1596.88" waitingTime="5.00" waitingCount="1" stopTime="0.00" timeLoss="21.75" rerouteNo="1" devices="tripinfo_carIn126288:1 routing_carIn126288:1 emissions_carIn126288:1" vType="default_016" speedFactor="1.01" vaporized="">
        <emissions CO_abs="4629.488251" CO2_abs="352719.089068" HC_abs="29.308076" PMx_abs="5.860198" NOx_abs="140.401829" fuel_abs="151.618875" electricity_abs="0"/>
    </tripinfo>
    <tripinfo id="carIn86816:1" depart="57617.00" departLane="128361102#0_1" departPos="5.10" departSpeed="0.00" departDelay="0.80" arrival="57815.00" arrivalLane="201956811#0_1" arrivalPos="40.40" arrivalSpeed="12.71" duration="198.00" routeLength="2067.33" waitingTime="15.00" waitingCount="3" stopTime="0.00" timeLoss="48.16" rerouteNo="1" devices="tripinfo_carIn86816:1 routing_carIn86816:1 emissions_carIn86816:1" vType="default_016" speedFactor="1.01" vaporized="">
        <emissions CO_abs="8234.227533" CO2_abs="512852.370597" HC_abs="49.527199" PMx_abs="8.973351" NOx_abs="208.040101" fuel_abs="220.453837" electricity_abs="0"/>
    </tripinfo>
    <tripinfo id="S5R_frequency1.2" depart="57624.00" departLane="315358250#0_1" departPos="12.10" departSpeed="0.00" departDelay="12.40" arrival="57816.00" arrivalLane="386687235_1" arrivalPos="80.84" arrivalSpeed="12.88" duration="192.00" routeLength="1115.62" waitingTime="68.00" waitingCount="4" stopTime="0.00" timeLoss="110.84" rerouteNo="1" devices="tripinfo_S5R_frequency1.2 routing_S5R_frequency1.2 emissions_S5R_frequency1.2" vType="bus" speedFactor="1.00" vaporized="">
        <emissions CO_abs="3544.434129" CO2_abs="1827602.084663" HC_abs="759.771562" PMx_abs="370.364831" NOx_abs="15260.582188" fuel_abs="779.308548" electricity_abs="0"/>
    </tripinfo>
    <tripinfo id="carIn50326:1" depart="57651.00" departLane="128361102#0_1" departPos="5.10" departSpeed="0.00" departDelay="0.30" arrival="57824.00" arrivalLane="18809673#0_1" arrivalPos="473.56" arrivalSpeed="12.66" duration="173.00" routeLength="1591.07" waitingTime="15.00" waitingCount="1" stopTime="0.00" timeLoss="37.58" rerouteNo="1" devices="tripinfo_carIn50326:1 routing_carIn50326:1 emissions_carIn50326:1" vType="default_016" speedFactor="0.96" vaporized="">
        <emissions CO_abs="6757.743078" CO2_abs="370775.808131" HC_abs="39.381547" PMx_abs="6.156474" NOx_abs="148.997861" fuel_abs="159.382170" electricity_abs="0"/>
    </tripinfo>
    <tripinfo id="carIn129809:1" depart="57729.00" departLane="-447569998#1_1" departPos="5.10" departSpeed="0.00" departDelay="1.00" arrival="57825.00" arrivalLane="-315358244_1" arrivalPos="33.95" arrivalSpeed="10.87" duration="96.00" routeLength="706.49" waitingTime="10.00" waitingCount="2" stopTime="0.00" timeLoss="23.81" rerouteNo="1" devices="tripinfo_carIn129809:1 routing_carIn129809:1 emissions_carIn129809:1" vType="default_015" speedFactor="0.84" vaporized="">
        <emissions CO_abs="3729.799767" CO2_abs="180769.557911" HC_abs="21.160554" PMx_abs="3.009139" NOx_abs="73.342593" fuel_abs="77.706130" electricity_abs="0"/>
    </tripinfo>
    <tripinfo id="h3864c1:3" depart="57678.00" departLane="24693977#1_1" departPos="5.10" departSpeed="0.00" departDelay="0.00" arrival="57830.00" arrivalLane="201956820_1" arrivalPos="48.33" arrivalSpeed="13.61" duration="152.00" routeLength="1574.85" waitingTime="2.00" waitingCount="1" stopTime="0.00" timeLoss="30.37" rerouteNo="1" devices="tripinfo_h3864c1:3 routing_h3864c1:3 emissions_h3864c1:3" vType="default_016" speedFactor="1.06" vaporized="">
        <emissions CO_abs="6621.293492" CO2_abs="417245.850031" HC_abs="39.939406" PMx_abs="7.492851" NOx_abs="171.319501" fuel_abs="179.356131" electricity_abs="0"/>
    </tripinfo>
    <tripinfo id="carIn12365:1" depart="57713.00" departLane="315358244_1" departPos="5.10" departSpeed="0.00" departDelay="0.50" arrival="57832.00" arrivalLane="447569997#1_1" arrivalPos="180.93" arrivalSpeed="7.58" duration="119.00" routeLength="718.04" waitingTime="37.00" waitingCount="1" stopTime="0.00" timeLoss="51.76" rerouteNo="1" devices="tripinfo_carIn12365:1 routing_carIn12365:1 emissions_carIn12365:1" vType="default_016" speedFactor="0.91" vaporized="">
        <emissions CO_abs="8512.134094" CO2_abs="269501.391375" HC_abs="45.030762" PMx_abs="5.150871" NOx_abs="113.264288" fuel_abs="115.850204" electricity_abs="0"/>
    </tripinfo>
    <tripinfo id="h5216c1:1" depart="57664.00" departLane="224892339#0_1" departPos="5.10" departSpeed="0.00" departDelay="0.00" arrival="57833.00" arrivalLane="386687235_1" arrivalPos="80.84" arrivalSpeed="14.75" duration="169.00" routeLength="1823.78" waitingTime="19.00" waitingCount="1" stopTime="0.00" timeLoss="49.22" rerouteNo="1" devices="tripinfo_h5216c1:1 routing_h5216c1:1 emissions_h5216c1:1" vType="default_016" speedFactor="1.07" vaporized="">
        <emissions CO_abs="8665.703367" CO2_abs="504397.416036" HC_abs="51.261146" PMx_abs="9.216518" NOx_abs="206.187790" fuel_abs="216.819371" electricity_abs="0"/>
    </tripinfo>
    <tripinfo id="carIn107084:1" depart="57601.00" departLane="124812856#0_1" departPos="5.10" departSpeed="0.00" departDelay="0.70" arrival="57834.00" arrivalLane="-128361102#1_1" arrivalPos="274.68" arrivalSpeed="9.95" duration="233.00" routeLength="2232.46" waitingTime="2.00" waitingCount="1" stopTime="0.00" timeLoss="24.90" rerouteNo="1" devices="tripinfo_carIn107084:1 routing_carIn107084:1 emissions_carIn107084:1" vType="default_016" speedFactor="0.78" vaporized="">
        <emissions CO_abs="6603.902363" CO2_abs="444878.100667" HC_abs="40.276029" PMx_abs="6.533129" NOx_abs="173.852980" fuel_abs="191.235834" electricity_abs="0"/>
    </tripinfo>
    <tripinfo id="h9953c2:3" depart="57682.00" departLane="-54169231#2_1" departPos="5.10" departSpeed="0.00" departDelay="0.00" arrival="57836.00" arrivalLane="386687235_1" arrivalPos="80.84" arrivalSpeed="14.20" duration="154.00" routeLength="1535.60" waitingTime="11.00" waitingCount="1" stopTime="0.00" timeLoss="33.97" rerouteNo="1" devices="tripinfo_h9953c2:3 routing_h9953c2:3 emissions_h9953c2:3" vType="default_016" speedFactor="1.05" vaporized="">
        <emissions CO_abs="6693.730189" CO2_abs="397772.374309" HC_abs="39.809147" PMx_abs="6.992518" NOx_abs="161.937321" fuel_abs="170.985923" electricity_abs="0"/>
    </tripinfo>
    <tripinfo id="randUni31145:1" depart="57815.00" departLane="10425609#0_1" departPos="5.10" departSpeed="0.00" departDelay="1.30" arrival="57843.00" arrivalLane="201956810_1" arrivalPos="71.65" arrivalSpeed="13.03" duration="28.00" routeLength="255.78" waitingTime="0.00" waitingCount="0" stopTime="0.00" timeLoss="9.11" rerouteNo="1" devices="tripinfo_randUni31145:1 routing_randUni31145:1 emissions_randUni31145:1" vType="random_016" speedFactor="1.03" vaporized="">
        <emissions CO_abs="2172.227381" CO2_abs="110880.286925" HC_abs="12.529097" PMx_abs="2.225475" NOx_abs="47.504658" fuel_abs="47.662638" electricity_abs="0"/>
    </tripinfo>
    <tripinfo id="50R_frequency3.17" depart="57674.00" departLane="-18809673#6_1" departPos="12.10" departSpeed="0.00" departDelay="0.70" arrival="57845.00" arrivalLane="201956811#0_1" arrivalPos="40.40" arrivalSpeed="12.16" duration="171.00" routeLength="1954.47" waitingTime="0.00" waitingCount="0" stopTime="0.00" timeLoss="25.95" rerouteNo="1" devices="tripinfo_50R_frequency3.17 routing_50R_frequency3.17 emissions_50R_frequency3.17" vType="bus" speedFactor="1.00" vaporized="">
        <emissions CO_abs="3263.300727" CO2_abs="2063085.446282" HC_abs="688.671511" PMx_abs="350.357045" NOx_abs="15955.963936" fuel_abs="879.891026" electricity_abs="0"/>
    </tripinfo>
    <tripinfo id="randUni2407:1" depart="57820.00" departLane="10425609#0_1" departPos="5.10" departSpeed="0.00" departDelay="0.80" arrival="57845.00" arrivalLane="201956810_1" arrivalPos="71.65" arrivalSpeed="15.07" duration="25.00" routeLength="255.78" waitingTime="0.00" waitingCount="0" stopTime="0.00" timeLoss="7.13" rerouteNo="1" devices="tripinfo_randUni2407:1 routing_randUni2407:1 emissions_randUni2407:1" vType="random_016" speedFactor="1.11" vaporized="">
        <emissions CO_abs="1733.648523" CO2_abs="104215.310948" HC_abs="10.346192" PMx_abs="1.937346" NOx_abs="43.285629" fuel_abs="44.797661" electricity_abs="0"/>
    </tripinfo>
    <tripinfo id="carIn107842:1" depart="57623.00" departLane="124812856#0_1" departPos="5.10" departSpeed="0.00" departDelay="1.90" arrival="57848.00" arrivalLane="-128361102#1_1" arrivalPos="274.68" arrivalSpeed="11.36" duration="225.00" routeLength="2232.46" waitingTime="0.00" waitingCount="0" stopTime="0.00" timeLoss="27.83" rerouteNo="1" devices="tripinfo_carIn107842:1 routing_carIn107842:1 emissions_carIn107842:1" vType="default_016" speedFactor="0.83" vaporized="">
        <emissions CO_abs="6840.355003" CO2_abs="459570.459889" HC_abs="41.773282" PMx_abs="7.165881" NOx_abs="182.047843" fuel_abs="197.550913" electricity_abs="0"/>
    </tripinfo>
    <tripinfo id="carIn77943:1" depart="57608.00" departLane="124812856#0_1" departPos="5.10" departSpeed="0.00" departDelay="2.50" arrival="57849.00" arrivalLane="-128361102#1_1" arrivalPos="274.68" arrivalSpeed="13.32" duration="241.00" routeLength="2250.49" waitingTime="31.00" waitingCount="2" stopTime="0.00" timeLoss="78.50" rerouteNo="1" devices="tripinfo_carIn77943:1 routing_carIn77943:1 emissions_carIn77943:1" vType="default_016" speedFactor="1.01" vaporized="">
        <emissions CO_abs="11978.702427" CO2_abs="612449.224437" HC_abs="68.912796" PMx_abs="11.165140" NOx_abs="252.512326" fuel_abs="263.267396" electricity_abs="0"/>
    </tripinfo>
    <tripinfo id="carIn81046:1" depart="57611.00" departLane="124812856#0_1" departPos="5.10" departSpeed="0.00" departDelay="2.50" arrival="57851.00" arrivalLane="-128361102#1_1" arrivalPos="274.68" arrivalSpeed="12.13" duration="240.00" routeLength="2250.49" waitingTime="25.00" waitingCount="2" stopTime="0.00" timeLoss="57.93" rerouteNo="1" devices="tripinfo_carIn81046:1 routing_carIn81046:1 emissions_carIn81046:1" vType="default_016" speedFactor="0.90" vaporized="">
        <emissions CO_abs="9420.621181" CO2_abs="555172.923730" HC_abs="55.835051" PMx_abs="9.318109" NOx_abs="223.539401" fuel_abs="238.646626" electricity_abs="0"/>