<?xml version="1.0" encoding="UTF-8"?>

<!-- generated on Thu Nov  4 13:53:11 2021 by Eclipse SUMO sumo Version 1.9.0
<configuration xmlns:xsi="http://www.w3.org/2001/XMLSchema-instance" xsi:noNamespaceSchemaLocation="http://sumo.dlr.de/xsd/sumoConfiguration.xsd">

    <input>
        <net-file value="/mainfs/home/bk2g18/RESCO/environments/ingolstadt21/ingolstadt21.net.xml"/>
        <route-files value="/mainfs/home/bk2g18/RESCO/environments/ingolstadt21/ingolstadt21.rou.xml"/>
    </input>

    <output>
        <tripinfo-output value="/mainfs/home/bk2g18/RESCO/logs/MPLight-tr0-ingolstadt21-21-mplight-pressure/tripinfo_73.xml"/>
        <tripinfo-output.write-unfinished value="true"/>
    </output>

    <time>
        <begin value="57600"/>
        <end value="61200"/>
    </time>

    <processing>
        <time-to-teleport value="-1"/>
    </processing>

    <report>
        <xml-validation value="never"/>
        <xml-validation.routes value="never"/>
        <no-warnings value="true"/>
        <no-step-log value="true"/>
    </report>

    <emissions>
        <device.emissions.probability value="1"/>
    </emissions>

    <traci_server>
        <remote-port value="60084"/>
    </traci_server>

    <random_number>
        <random value="true"/>
    </random_number>

</configuration>
-->

<tripinfos xmlns:xsi="http://www.w3.org/2001/XMLSchema-instance" xsi:noNamespaceSchemaLocation="http://sumo.dlr.de/xsd/tripinfo_file.xsd">
    <tripinfo id="h15454c2:3" depart="57612.00" departLane="24608844_1" departPos="5.10" departSpeed="0.00" departDelay="0.50" arrival="57649.00" arrivalLane="32978638#0_1" arrivalPos="49.29" arrivalSpeed="15.85" duration="37.00" routeLength="354.79" waitingTime="0.00" waitingCount="0" stopTime="0.00" timeLoss="7.08" rerouteNo="1" devices="tripinfo_h15454c2:3 routing_h15454c2:3 emissions_h15454c2:3" vType="default_016" speedFactor="1.15" vaporized="">
        <emissions CO_abs="2157.361679" CO2_abs="127678.853473" HC_abs="12.781480" PMx_abs="2.351877" NOx_abs="52.958798" fuel_abs="54.883672" electricity_abs="0"/>
    </tripinfo>
    <tripinfo id="carIn60260:1" depart="57606.00" departLane="315358254#0_1" departPos="5.10" departSpeed="0.00" departDelay="0.90" arrival="57680.00" arrivalLane="399835085#1_1" arrivalPos="212.23" arrivalSpeed="6.23" duration="74.00" routeLength="430.98" waitingTime="11.00" waitingCount="1" stopTime="0.00" timeLoss="21.21" rerouteNo="1" devices="tripinfo_carIn60260:1 routing_carIn60260:1 emissions_carIn60260:1" vType="default_016" speedFactor="0.88" vaporized="">
        <emissions CO_abs="3545.237886" CO2_abs="132067.045823" HC_abs="19.190734" PMx_abs="2.327234" NOx_abs="54.669259" fuel_abs="56.771205" electricity_abs="0"/>
    </tripinfo>
    <tripinfo id="carIn53971:1" depart="57640.00" departLane="272042143_1" departPos="5.10" departSpeed="0.00" departDelay="0.80" arrival="57695.00" arrivalLane="24634414#1_1" arrivalPos="162.19" arrivalSpeed="7.73" duration="55.00" routeLength="493.04" waitingTime="0.00" waitingCount="0" stopTime="0.00" timeLoss="8.82" rerouteNo="1" devices="tripinfo_carIn53971:1 routing_carIn53971:1 emissions_carIn53971:1" vType="default_016" speedFactor="0.99" vaporized="">
        <emissions CO_abs="2469.677024" CO2_abs="139285.336736" HC_abs="14.491272" PMx_abs="2.384685" NOx_abs="56.798670" fuel_abs="59.873169" electricity_abs="0"/>
    </tripinfo>
    <tripinfo id="h3568c1:3" depart="57656.00" departLane="266565295#5_1" departPos="5.10" departSpeed="0.00" departDelay="0.80" arrival="57723.00" arrivalLane="-24634415_1" arrivalPos="62.03" arrivalSpeed="16.17" duration="67.00" routeLength="807.40" waitingTime="0.00" waitingCount="0" stopTime="0.00" timeLoss="13.22" rerouteNo="1" devices="tripinfo_h3568c1:3 routing_h3568c1:3 emissions_h3568c1:3" vType="default_016" speedFactor="1.20" vaporized="">
        <emissions CO_abs="3318.470610" CO2_abs="224355.142269" HC_abs="20.374615" PMx_abs="4.220227" NOx_abs="92.639552" fuel_abs="96.440237" electricity_abs="0"/>
    </tripinfo>
    <tripinfo id="h7800c1:5" depart="57696.00" departLane="-447569998#1_1" departPos="5.10" departSpeed="0.00" departDelay="0.00" arrival="57725.00" arrivalLane="-447569998#1_2" arrivalPos="180.76" arrivalSpeed="4.28" duration="29.00" routeLength="175.66" waitingTime="0.00" waitingCount="0" stopTime="0.00" timeLoss="5.80" rerouteNo="1" devices="tripinfo_h7800c1:5 routing_h7800c1:5 emissions_h7800c1:5" vType="default_016" speedFactor="0.93" vaporized="">
        <emissions CO_abs="1290.171608" CO2_abs="48090.519550" HC_abs="6.980907" PMx_abs="0.837016" NOx_abs="19.946296" fuel_abs="20.672510" electricity_abs="0"/>
    </tripinfo>
    <tripinfo id="h7181c1:1" depart="57660.00" departLane="315358254#0_1" departPos="5.10" departSpeed="0.00" departDelay="0.10" arrival="57729.00" arrivalLane="306240162#0_0" arrivalPos="220.43" arrivalSpeed="17.89" duration="69.00" routeLength="932.35" waitingTime="9.00" waitingCount="1" stopTime="0.00" timeLoss="24.38" rerouteNo="1" devices="tripinfo_h7181c1:1 routing_h7181c1:1 emissions_h7181c1:1" vType="default_016" speedFactor="1.15" vaporized="">
        <emissions CO_abs="4964.297696" CO2_abs="289861.157339" HC_abs="29.623874" PMx_abs="6.023500" NOx_abs="121.440222" fuel_abs="124.598270" electricity_abs="0"/>
    </tripinfo>
    <tripinfo id="h3688c1:1" depart="57625.00" departLane="201201950#1_1" departPos="5.10" departSpeed="0.00" departDelay="0.00" arrival="57735.00" arrivalLane="32978638#0_1" arrivalPos="49.29" arrivalSpeed="11.48" duration="110.00" routeLength="1089.75" waitingTime="0.00" waitingCount="0" stopTime="0.00" timeLoss="14.75" rerouteNo="1" devices="tripinfo_h3688c1:1 routing_h3688c1:1 emissions_h3688c1:1" vType="default_016" speedFactor="0.84" vaporized="">
        <emissions CO_abs="3676.345993" CO2_abs="246304.376821" HC_abs="22.432279" PMx_abs="3.829431" NOx_abs="97.516521" fuel_abs="105.876399" electricity_abs="0"/>
    </tripinfo>
    <tripinfo id="carIn22761:1" depart="57616.00" departLane="-306240162#1_0" departPos="5.10" departSpeed="0.00" departDelay="2.10" arrival="57739.00" arrivalLane="399835085#1_1" arrivalPos="212.23" arrivalSpeed="7.08" duration="123.00" routeLength="1093.26" waitingTime="18.00" waitingCount="1" stopTime="0.00" timeLoss="36.38" rerouteNo="1" devices="tripinfo_carIn22761:1 routing_carIn22761:1 emissions_carIn22761:1" vType="default_016" speedFactor="0.90" vaporized="">
        <emissions CO_abs="6855.516399" CO2_abs="319868.948724" HC_abs="38.587498" PMx_abs="5.850989" NOx_abs="130.731485" fuel_abs="137.499441" electricity_abs="0"/>
    </tripinfo>
    <tripinfo id="S5R_frequency1.2" depart="57615.00" departLane="315358250#0_1" departPos="12.10" departSpeed="0.00" departDelay="3.40" arrival="57740.00" arrivalLane="386687235_1" arrivalPos="80.84" arrivalSpeed="13.35" duration="125.00" routeLength="1115.62" waitingTime="25.00" waitingCount="1" stopTime="0.00" timeLoss="43.16" rerouteNo="1" devices="tripinfo_S5R_frequency1.2 routing_S5R_frequency1.2 emissions_S5R_frequency1.2" vType="bus" speedFactor="1.00" vaporized="">
        <emissions CO_abs="2407.413971" CO2_abs="1333581.108312" HC_abs="528.757929" PMx_abs="254.813749" NOx_abs="10808.251696" fuel_abs="568.710283" electricity_abs="0"/>
    </tripinfo>
    <tripinfo id="h4538c1:1" depart="57701.00" departLane="-10427692#1_1" departPos="5.10" departSpeed="0.00" departDelay="0.00" arrival="57741.00" arrivalLane="-128361102#1_1" arrivalPos="274.68" arrivalSpeed="15.95" duration="40.00" routeLength="440.74" waitingTime="3.00" waitingCount="1" stopTime="0.00" timeLoss="13.42" rerouteNo="1" devices="tripinfo_h4538c1:1 routing_h4538c1:1 emissions_h4538c1:1" vType="default_016" speedFactor="1.20" vaporized="">
        <emissions CO_abs="1980.899807" CO2_abs="122753.689662" HC_abs="11.908404" PMx_abs="2.297411" NOx_abs="50.565501" fuel_abs="52.766486" electricity_abs="0"/>
    </tripinfo>
    <tripinfo id="h12244c1:3" depart="57612.00" departLane="315358244_1" departPos="5.10" departSpeed="0.00" departDelay="0.40" arrival="57747.00" arrivalLane="386687235_1" arrivalPos="80.84" arrivalSpeed="10.32" duration="135.00" routeLength="1186.14" waitingTime="8.00" waitingCount="1" stopTime="0.00" timeLoss="29.24" rerouteNo="1" devices="tripinfo_h12244c1:3 routing_h12244c1:3 emissions_h12244c1:3" vType="default_016" speedFactor="0.82" vaporized="">
        <emissions CO_abs="4760.042349" CO2_abs="261897.183944" HC_abs="27.685981" PMx_abs="3.995090" NOx_abs="103.221008" fuel_abs="112.579965" electricity_abs="0"/>
    </tripinfo>
    <tripinfo id="h9563c2:5" depart="57631.00" departLane="315358244_1" departPos="5.10" departSpeed="0.00" departDelay="0.70" arrival="57749.00" arrivalLane="386687235_1" arrivalPos="80.84" arrivalSpeed="13.19" duration="118.00" routeLength="1186.14" waitingTime="10.00" waitingCount="1" stopTime="0.00" timeLoss="27.75" rerouteNo="1" devices="tripinfo_h9563c2:5 routing_h9563c2:5 emissions_h9563c2:5" vType="default_016" speedFactor="0.96" vaporized="">
        <emissions CO_abs="4097.458767" CO2_abs="255983.648965" HC_abs="24.624837" PMx_abs="4.250075" NOx_abs="102.449257" fuel_abs="110.037021" electricity_abs="0"/>
    </tripinfo>
    <tripinfo id="h317c2:1" depart="57707.00" departLane="-32978638#0_1" departPos="5.10" departSpeed="0.00" departDelay="0.10" arrival="57758.00" arrivalLane="-266565295#5_1" arrivalPos="172.76" arrivalSpeed="12.11" duration="51.00" routeLength="370.53" waitingTime="11.00" waitingCount="1" stopTime="0.00" timeLoss="19.71" rerouteNo="1" devices="tripinfo_h317c2:1 routing_h317c2:1 emissions_h317c2:1" vType="default_016" speedFactor="0.89" vaporized="">
        <emissions CO_abs="2704.381826" CO2_abs="131576.732782" HC_abs="15.375509" PMx_abs="2.270905" NOx_abs="53.575252" fuel_abs="56.559861" electricity_abs="0"/>
    </tripinfo>
    <tripinfo id="carIn121703:1" depart="57647.00" departLane="386687232#0_1" departPos="5.10" departSpeed="0.00" departDelay="0.30" arrival="57759.00" arrivalLane="-315358244_1" arrivalPos="33.95" arrivalSpeed="11.15" duration="112.00" routeLength="1157.39" waitingTime="3.00" waitingCount="1" stopTime="0.00" timeLoss="16.00" rerouteNo="1" devices="tripinfo_carIn121703:1 routing_carIn121703:1 emissions_carIn121703:1" vType="default_016" speedFactor="0.88" vaporized="">
        <emissions CO_abs="2805.844628" CO2_abs="207101.729274" HC_abs="17.546267" PMx_abs="3.050410" NOx_abs="80.386769" fuel_abs="89.024817" electricity_abs="0"/>
    </tripinfo>
    <tripinfo id="carIn30817:1" depart="57681.00" departLane="315358244_1" departPos="5.10" departSpeed="0.00" departDelay="0.20" arrival="57762.00" arrivalLane="447569997#1_1" arrivalPos="180.93" arrivalSpeed="8.23" duration="81.00" routeLength="718.04" waitingTime="7.00" waitingCount="1" stopTime="0.00" timeLoss="18.35" rerouteNo="1" devices="tripinfo_carIn30817:1 routing_carIn30817:1 emissions_carIn30817:1" vType="default_016" speedFactor="0.99" vaporized="">
        <emissions CO_abs="3173.592199" CO2_abs="168323.965824" HC_abs="18.316672" PMx_abs="2.581290" NOx_abs="66.218708" fuel_abs="72.356380" electricity_abs="0"/>
    </tripinfo>
    <tripinfo id="h5979c1:5" depart="57669.00" departLane="399835085#1_1" departPos="5.10" departSpeed="0.00" departDelay="0.00" arrival="57767.00" arrivalLane="-315358254#1_1" arrivalPos="137.16" arrivalSpeed="13.80" duration="98.00" routeLength="659.33" waitingTime="16.00" waitingCount="1" stopTime="0.00" timeLoss="27.92" rerouteNo="1" devices="tripinfo_h5979c1:5 routing_h5979c1:5 emissions_h5979c1:5" vType="default_016" speedFactor="1.05" vaporized="">
        <emissions CO_abs="5203.662088" CO2_abs="209334.528620" HC_abs="28.534078" PMx_abs="3.694039" NOx_abs="86.370502" fuel_abs="89.985578" electricity_abs="0"/>
    </tripinfo>
    <tripinfo id="h330c1:1" depart="57736.00" departLane="-32978638#0_1" departPos="5.10" departSpeed="0.00" departDelay="0.20" arrival="57775.00" arrivalLane="-266565295#5_1" arrivalPos="172.76" arrivalSpeed="13.29" duration="39.00" routeLength="370.53" waitingTime="3.00" waitingCount="1" stopTime="0.00" timeLoss="11.97" rerouteNo="1" devices="tripinfo_h330c1:1 routing_h330c1:1 emissions_h330c1:1" vType="default_016" speedFactor="1.02" vaporized="">
        <emissions CO_abs="2013.391067" CO2_abs="119986.633240" HC_abs="11.992565" PMx_abs="2.198080" NOx_abs="49.555370" fuel_abs="51.577145" electricity_abs="0"/>
    </tripinfo>
    <tripinfo id="h3326c1:2" depart="57656.00" departLane="22716069#0_1" departPos="5.10" departSpeed="0.00" departDelay="0.00" arrival="57779.00" arrivalLane="24634517#13_1" arrivalPos="111.62" arrivalSpeed="11.92" duration="123.00" routeLength="1312.81" waitingTime="0.00" waitingCount="0" stopTime="0.00" timeLoss="15.99" rerouteNo="1" devices="tripinfo_h3326c1:2 routing_h3326c1:2 emissions_h3326c1:2" vType="default_016" speedFactor="0.91" vaporized="">
        <emissions CO_abs="4258.501198" CO2_abs="297459.150554" HC_abs="26.316796" PMx_abs="4.835143" NOx_abs="118.774288" fuel_abs="127.865350" electricity_abs="0"/>
    </tripinfo>
    <tripinfo id="carIn129809:1" depart="57729.00" departLane="-447569998#1_1" departPos="5.10" departSpeed="0.00" departDelay="1.00" arrival="57786.00" arrivalLane="-315358244_1" arrivalPos="33.95" arrivalSpeed="16.08" duration="57.00" routeLength="706.49" waitingTime="0.00" waitingCount="0" stopTime="0.00" timeLoss="7.41" rerouteNo="1" devices="tripinfo_carIn129809:1 routing_carIn129809:1 emissions_carIn129809:1" vType="default_015" speedFactor="1.21" vaporized="">
        <emissions CO_abs="2015.436186" CO2_abs="158706.607080" HC_abs="12.757452" PMx_abs="2.556472" NOx_abs="61.904069" fuel_abs="68.221314" electricity_abs="0"/>
    </tripinfo>
    <tripinfo id="carIn27009:1" depart="57673.00" departLane="-447569998#1_1" departPos="5.10" departSpeed="0.00" departDelay="0.50" arrival="57787.00" arrivalLane="-26677539_1" arrivalPos="152.75" arrivalSpeed="8.53" duration="114.00" routeLength="699.63" waitingTime="25.00" waitingCount="1" stopTime="0.00" timeLoss="41.31" rerouteNo="1" devices="tripinfo_carIn27009:1 routing_carIn27009:1 emissions_carIn27009:1" vType="default_015" speedFactor="1.15" vaporized="">
        <emissions CO_abs="6986.436722" CO2_abs="245313.878816" HC_abs="37.500042" PMx_abs="4.508722" NOx_abs="102.549978" fuel_abs="105.452309" electricity_abs="0"/>
    </tripinfo>
    <tripinfo id="carIn12365:1" depart="57713.00" departLane="315358244_1" departPos="5.10" departSpeed="0.00" departDelay="0.50" arrival="57787.00" arrivalLane="447569997#1_1" arrivalPos="180.93" arrivalSpeed="9.85" duration="74.00" routeLength="718.04" waitingTime="10.00" waitingCount="1" stopTime="0.00" timeLoss="22.03" rerouteNo="1" devices="tripinfo_carIn12365:1 routing_carIn12365:1 emissions_carIn12365:1" vType="default_016" speedFactor="1.18" vaporized="">
        <emissions CO_abs="3204.426267" CO2_abs="170967.897655" HC_abs="18.555468" PMx_abs="3.022226" NOx_abs="69.426209" fuel_abs="73.492317" electricity_abs="0"/>
    </tripinfo>
    <tripinfo id="carIn80064:1" depart="57603.00" departLane="128361109#1_1" departPos="5.10" departSpeed="0.00" departDelay="0.40" arrival="57788.00" arrivalLane="-315358254#1_1" arrivalPos="137.16" arrivalSpeed="11.93" duration="185.00" routeLength="1587.97" waitingTime="50.00" waitingCount="4" stopTime="0.00" timeLoss="86.47" rerouteNo="1" devices="tripinfo_carIn80064:1 routing_carIn80064:1 emissions_carIn80064:1" vType="default_016" speedFactor="0.90" vaporized="">
        <emissions CO_abs="13032.081528" CO2_abs="559704.466218" HC_abs="72.573024" PMx_abs="11.002903" NOx_abs="233.846069" fuel_abs="240.595312" electricity_abs="0"/>
    </tripinfo>
    <tripinfo id="carIn107282:1" depart="57749.00" departLane="-447569998#1_1" departPos="5.10" departSpeed="0.00" departDelay="0.00" arrival="57794.00" arrivalLane="315358242#0_1" arrivalPos="165.37" arrivalSpeed="13.95" duration="45.00" routeLength="448.50" waitingTime="0.00" waitingCount="0" stopTime="0.00" timeLoss="4.77" rerouteNo="1" devices="tripinfo_carIn107282:1 routing_carIn107282:1 emissions_carIn107282:1" vType="default_016" speedFactor="1.04" vaporized="">
        <emissions CO_abs="1661.562616" CO2_abs="107116.960584" HC_abs="10.045389" PMx_abs="1.725282" NOx_abs="42.633578" fuel_abs="46.045274" electricity_abs="0"/>
    </tripinfo>
    <tripinfo id="h3154c1:1" depart="57658.00" departLane="24634507_1" departPos="5.10" departSpeed="0.00" departDelay="0.00" arrival="57797.00" arrivalLane="-266565295#5_1" arrivalPos="172.76" arrivalSpeed="13.59" duration="139.00" routeLength="1206.22" waitingTime="29.00" waitingCount="2" stopTime="0.00" timeLoss="50.19" rerouteNo="1" devices="tripinfo_h3154c1:1 routing_h3154c1:1 emissions_h3154c1:1" vType="default_016" speedFactor="1.01" vaporized="">
        <emissions CO_abs="7706.518372" CO2_abs="346560.939123" HC_abs="43.173488" PMx_abs="6.397362" NOx_abs="143.070734" fuel_abs="148.973369" electricity_abs="0"/>
    </tripinfo>
    <tripinfo id="carIn86816:1" depart="57617.00" departLane="128361102#0_1" departPos="5.10" departSpeed="0.00" departDelay="0.80" arrival="57805.00" arrivalLane="201956811#0_1" arrivalPos="40.40" arrivalSpeed="13.32" duration="188.00" routeLength="2067.33" waitingTime="13.00" waitingCount="3" stopTime="0.00" timeLoss="43.61" rerouteNo="1" devices="tripinfo_carIn86816:1 routing_carIn86816:1 emissions_carIn86816:1" vType="default_016" speedFactor="1.04" vaporized="">
        <emissions CO_abs="7391.282412" CO2_abs="494216.343680" HC_abs="45.111528" PMx_abs="8.512592" NOx_abs="198.732811" fuel_abs="212.442791" electricity_abs="0"/>
    </tripinfo>
    <tripinfo id="carIn12858:1" depart="57661.00" departLane="128361109#1_1" departPos="5.10" departSpeed="0.00" departDelay="0.90" arrival="57806.00" arrivalLane="399835085#1_1" arrivalPos="212.23" arrivalSpeed="8.35" duration="145.00" routeLength="1738.12" waitingTime="7.00" waitingCount="2" stopTime="0.00" timeLoss="37.08" rerouteNo="1" devices="tripinfo_carIn12858:1 routing_carIn12858:1 emissions_carIn12858:1" vType="default_016" speedFactor="1.07" vaporized="">
        <emissions CO_abs="7691.466226" CO2_abs="500197.727307" HC_abs="46.988393" PMx_abs="9.720334" NOx_abs="206.377702" fuel_abs="215.012652" electricity_abs="0"/>
    </tripinfo>
    <tripinfo id="carIn107084:1" depart="57601.00" departLane="124812856#0_1" departPos="5.10" departSpeed="0.00" departDelay="0.70" arrival="57807.00" arrivalLane="-128361102#1_1" arrivalPos="274.68" arrivalSpeed="12.61" duration="206.00" routeLength="2250.49" waitingTime="12.00" waitingCount="1" stopTime="0.00" timeLoss="34.39" rerouteNo="1" devices="tripinfo_carIn107084:1 routing_carIn107084:1 emissions_carIn107084:1" vType="default_016" speedFactor="0.96" vaporized="">
        <emissions CO_abs="6488.155455" CO2_abs="476051.715434" HC_abs="40.611717" PMx_abs="7.615060" NOx_abs="187.895717" fuel_abs="204.634935" electricity_abs="0"/>
    </tripinfo>
    <tripinfo id="carIn118591:1" depart="57689.00" departLane="315358244_1" departPos="5.10" departSpeed="0.00" departDelay="0.20" arrival="57808.00" arrivalLane="386687235_1" arrivalPos="80.84" arrivalSpeed="10.86" duration="119.00" routeLength="1186.14" waitingTime="5.00" waitingCount="1" stopTime="0.00" timeLoss="20.26" rerouteNo="1" devices="tripinfo_carIn118591:1 routing_carIn118591:1 emissions_carIn118591:1" vType="default_016" speedFactor="0.87" vaporized="">
        <emissions CO_abs="3304.889075" CO2_abs="230710.783780" HC_abs="20.391930" PMx_abs="3.598001" NOx_abs="91.077899" fuel_abs="99.173236" electricity_abs="0"/>
    </tripinfo>
    <tripinfo id="carIn77943:1" depart="57608.00" departLane="124812856#0_1" departPos="5.10" departSpeed="0.00" departDelay="2.50" arrival="57809.00" arrivalLane="-128361102#1_1" arrivalPos="274.68" arrivalSpeed="14.25" duration="201.00" routeLength="2250.49" waitingTime="10.00" waitingCount="1" stopTime="0.00" timeLoss="45.64" rerouteNo="1" devices="tripinfo_carIn77943:1 routing_carIn77943:1 emissions_carIn77943:1" vType="default_016" speedFactor="1.06" vaporized="">
        <emissions CO_abs="7579.891102" CO2_abs="528666.264632" HC_abs="46.963176" PMx_abs="9.327179" NOx_abs="214.717411" fuel_abs="227.250699" electricity_abs="0"/>
    </tripinfo>
    <tripinfo id="carIn81046:1" depart="57611.00" departLane="124812856#0_1" departPos="5.10" departSpeed="0.00" departDelay="2.50" arrival="57810.00" arrivalLane="-128361102#1_1" arrivalPos="274.68" arrivalSpeed="14.17" duration="199.00" routeLength="2250.49" waitingTime="9.00" waitingCount="1" stopTime="0.00" timeLoss="43.39" rerouteNo="1" devices="tripinfo_carIn81046:1 routing_carIn81046:1 emissions_carIn81046:1" vType="default_016" speedFactor="1.05" vaporized="">
        <emissions CO_abs="7476.564586" CO2_abs="531811.592262" HC_abs="46.521316" PMx_abs="9.361991" NOx_abs="215.739833" fuel_abs="228.602647" electricity_abs="0"/>
    </tripinfo>
    <tripinfo id="h16072c2:3" depart="57663.00" departLane="315358254#0_1" departPos="5.10" departSpeed="0.00" departDelay="2.50" arrival="57813.00" arrivalLane="386687235_2" arrivalPos="80.84" arrivalSpeed="14.44" duration="150.00" routeLength="1611.92" waitingTime="7.00" waitingCount="2" stopTime="0.00" timeLoss="43.79" rerouteNo="1" devices="tripinfo_h16072c2:3 routing_h16072c2:3 emissions_h16072c2:3" vType="default_016" speedFactor="1.11" vaporized="">
        <emissions CO_abs="6148.325000" CO2_abs="396970.667691" HC_abs="37.193253" PMx_abs="7.120232" NOx_abs="161.850224" fuel_abs="170.640670" electricity_abs="0"/>
    </tripinfo>
    <tripinfo id="carIn48184:1" depart="57613.00" departLane="-306240162#1_0" departPos="5.10" departSpeed="0.00" departDelay="0.70" arrival="57814.00" arrivalLane="386687235_1" arrivalPos="80.84" arrivalSpeed="12.36" duration="201.00" routeLength="2257.41" waitingTime="18.00" waitingCount="3" stopTime="0.00" timeLoss="48.79" rerouteNo="1" devices="tripinfo_carIn48184:1 routing_carIn48184:1 emissions_carIn48184:1" vType="default_016" speedFactor="0.98" vaporized="">
        <emissions CO_abs="7804.202829" CO2_abs="523738.955061" HC_abs="47.798332" PMx_abs="9.206354" NOx_abs="210.910859" fuel_abs="225.133117" electricity_abs="0"/>
    </tripinfo>
    <tripinfo id="carIn102915:1" depart="57643.00" departLane="128361102#0_1" departPos="5.10" departSpeed="0.00" departDelay="0.40" arrival="57815.00" arrivalLane="201956811#0_1" arrivalPos="40.40" arrivalSpeed="13.15" duration="172.00" routeLength="2067.33" waitingTime="0.00" waitingCount="0" stopTime="0.00" timeLoss="22.48" rerouteNo="1" devices="tripinfo_carIn102915:1 routing_carIn102915:1 emissions_carIn102915:1" vType="default_016" speedFactor="1.01" vaporized="">
        <emissions CO_abs="5569.231054" CO2_abs="440311.181488" HC_abs="35.661882" PMx_abs="7.307503" NOx_abs="175.372400" fuel_abs="189.270797" electricity_abs="0"/>
    </tripinfo>
    <tripinfo id="carIn82220:1" depart="57619.00" departLane="-306240162#1_0" departPos="5.10" departSpeed="0.00" departDelay="3.50" arrival="57816.00" arrivalLane="386687235_1" arrivalPos="80.84" arrivalSpeed="13.48" duration="197.00" routeLength="2257.41" waitingTime="9.00" waitingCount="3" stopTime="0.00" timeLoss="46.51" rerouteNo="1" devices="tripinfo_carIn82220:1 routing_carIn82220:1 emissions_carIn82220:1" vType="default_016" speedFactor="0.99" vaporized="">
        <emissions CO_abs="7894.252252" CO2_abs="532392.566708" HC_abs="48.500119" PMx_abs="9.363610" NOx_abs="214.848868" fuel_abs="228.852870" electricity_abs="0"/>
    </tripinfo>
    <tripinfo id="randUni33724:1" depart="57646.00" departLane="128361102#0_1" departPos="5.10" departSpeed="0.00" departDelay="1.20" arrival="57817.00" arrivalLane="201956811#0_1" arrivalPos="40.40" arrivalSpeed="13.62" duration="171.00" routeLength="2067.33" waitingTime="0.00" waitingCount="0" stopTime="0.00" timeLoss="19.56" rerouteNo="1" devices="tripinfo_randUni33724:1 routing_randUni33724:1 emissions_randUni33724:1" vType="random_016" speedFactor="1.00" vaporized="">
        <emissions CO_abs="4760.275119" CO2_abs="417607.870226" HC_abs="31.308784" PMx_abs="6.402845" NOx_abs="162.317329" fuel_abs="179.512034" electricity_abs="0"/>
    </tripinfo>
    <tripinfo id="h11737c1:1" depart="57665.00" departLane="272042143_1" departPos="5.10" departSpeed="0.00" departDelay="1.50" arrival="57817.00" arrivalLane="-315358254#1_1" arrivalPos="137.16" arrivalSpeed="13.22" duration="152.00" routeLength="1596.88" waitingTime="10.00" waitingCount="2" stopTime="0.00" timeLoss="37.83" rerouteNo="1" devices="tripinfo_h11737c1:1 routing_h11737c1:1 emissions_h11737c1:1" vType="default_016" speedFactor="1.02" vaporized="">
        <emissions CO_abs="5629.140511" CO2_abs="369234.798677" HC_abs="34.273496" PMx_abs="6.363820" NOx_abs="149.087351" fuel_abs="158.718531" electricity_abs="0"/>
    </tripinfo>
    <tripinfo id="carIn126288:1" depart="57674.00" departLane="272042143_1" departPos="5.10" departSpeed="0.00" departDelay="0.00" arrival="57820.00" arrivalLane="-315358254#1_1" arrivalPos="137.16" arrivalSpeed="12.90" duration="146.00" routeLength="1596.88" waitingTime="4.00" waitingCount="1" stopTime="0.00" timeLoss="21.54" rerouteNo="1" devices="tripinfo_carIn126288:1 routing_carIn126288:1 emissions_carIn126288:1" vType="default_016" speedFactor="0.94" vaporized="">
        <emissions CO_abs="4038.853263" CO2_abs="312438.708305" HC_abs="25.645184" PMx_abs="4.847573" NOx_abs="122.528730" fuel_abs="134.304499" electricity_abs="0"/>
    </tripinfo>
    <tripinfo id="carIn81860:1" depart="57712.00" departLane="128361102#0_1" departPos="5.10" departSpeed="0.00" departDelay="0.60" arrival="57822.00" arrivalLane="-24634517#17_1" arrivalPos="6.43" arrivalSpeed="7.55" duration="110.00" routeLength="1229.64" waitingTime="0.00" waitingCount="0" stopTime="0.00" timeLoss="15.66" rerouteNo="1" devices="tripinfo_carIn81860:1 routing_carIn81860:1 emissions_carIn81860:1" vType="default_016" speedFactor="0.96" vaporized="">
        <emissions CO_abs="3387.378428" CO2_abs="249690.196491" HC_abs="21.263183" PMx_abs="4.129988" NOx_abs="99.780269" fuel_abs="107.331229" electricity_abs="0"/>
    </tripinfo>
    <tripinfo id="h2831c1:1" depart="57600.00" departLane="201089423#0_1" departPos="5.10" departSpeed="0.00" departDelay="0.00" arrival="57825.00" arrivalLane="-315358244_2" arrivalPos="33.95" arrivalSpeed="13.62" duration="225.00" routeLength="2672.18" waitingTime="9.00" waitingCount="2" stopTime="0.00" timeLoss="36.58" rerouteNo="1" devices="tripinfo_h2831c1:1 routing_h2831c1:1 emissions_h2831c1:1" vType="default_016" speedFactor="1.03" vaporized="">
        <emissions CO_abs="5860.529972" CO2_abs="528665.046159" HC_abs="38.780600" PMx_abs="8.093374" NOx_abs="204.326084" fuel_abs="227.250803" electricity_abs="0"/>
    </tripinfo>
    <tripinfo id="carIn77438:1" depart="57614.00" departLane="124812856#0_1" departPos="5.10" departSpeed="0.00" departDelay="1.10" arrival="57827.00" arrivalLane="-128361102#1_1" arrivalPos="274.68" arrivalSpeed="13.38" duration="213.00" routeLength="2250.49" waitingTime="15.00" waitingCount="2" stopTime="0.00" timeLoss="43.36" rerouteNo="1" devices="tripinfo_carIn77438:1 routing_carIn77438:1 emissions_carIn77438:1" vType="default_016" speedFactor="0.97" vaporized="">
        <emissions CO_abs="7017.920149" CO2_abs="483614.650267" HC_abs="43.232204" PMx_abs="7.992644" NOx_abs="192.746981" fuel_abs="207.885878" electricity_abs="0"/>
    </tripinfo>
    <tripinfo id="carIn50326:1" depart="57651.00" departLane="128361102#0_1" departPos="5.10" departSpeed="0.00" departDelay="0.30" arrival="57827.00" arrivalLane="18809673#0_1" arrivalPos="473.56" arrivalSpeed="11.84" duration="176.00" routeLength="1591.07" waitingTime="14.00" waitingCount="1" stopTime="0.00" timeLoss="34.25" rerouteNo="1" devices="tripinfo_carIn50326:1 routing_carIn50326:1 emissions_carIn50326:1" vType="default_016" speedFactor="0.91" vaporized="">
        <emissions CO_abs="7309.130732" CO2_abs="382926.708255" HC_abs="42.129611" PMx_abs="6.168250" NOx_abs="152.632835" fuel_abs="164.605947" electricity_abs="0"/>
    </tripinfo>
    <tripinfo id="h19804c1:3" depart="57617.00" departLane="124812856#0_1" departPos="5.10" departSpeed="0.00" departDelay="1.50" arrival="57829.00" arrivalLane="-128361102#1_1" arrivalPos="274.68" arrivalSpeed="14.86" duration="212.00" routeLength="2250.49" waitingTime="13.00" waitingCount="2" stopTime="0.00" timeLoss="58.66" rerouteNo="1" devices="tripinfo_h19804c1:3 routing_h19804c1:3 emissions_h19804c1:3" vType="default_016" speedFactor="1.08" vaporized="">
        <emissions CO_abs="8367.958730" CO2_abs="576215.132795" HC_abs="51.614666" PMx_abs="9.880959" NOx_abs="232.071307" fuel_abs="247.690434" electricity_abs="0"/>
    </tripinfo>
    <tripinfo id="h645c1:1" depart="57622.00" departLane="266565295#5_1" departPos="5.10" departSpeed="0.00" departDelay="0.40" arrival="57829.00" arrivalLane="-315358244_1" arrivalPos="33.95" arrivalSpeed="12.27" duration="207.00" routeLength="1910.83" waitingTime="33.00" waitingCount="2" stopTime="0.00" timeLoss="56.28" rerouteNo="1" devices="tripinfo_h645c1:1 routing_h645c1:1 emissions_h645c1:1" vType="default_016" speedFactor="0.92" vaporized="">
        <emissions CO_abs="8677.685608" CO2_abs="450409.755277" HC_abs="49.985324" PMx_abs="7.541695" NOx_abs="180.586926" fuel_abs="193.614113" electricity_abs="0"/>
    </tripinfo>
    <tripinfo id="carIn107842:1" depart="57623.00" departLane="124812856#0_1" departPos="5.10" departSpeed="0.00" departDelay="1.90" arrival="57830.00" arrivalLane="-128361102#1_1" arrivalPos="274.68" arrivalSpeed="14.39" duration="207.00" routeLength="2250.49" waitingTime="19.00" waitingCount="2" stopTime="0.00" timeLoss="57.75" rerouteNo="1" devices="tripinfo_carIn107842:1 routing_carIn107842:1 emissions_carIn107842:1" vType="default_016" speedFactor="1.10" vaporized="">
        <emissions CO_abs="8496.999620" CO2_abs="548993.620031" HC_abs="51.502140" PMx_abs="9.886543" NOx_abs="223.626094" fuel_abs="235.988816" electricity_abs="0"/>