<?xml version="1.0" encoding="UTF-8"?>

<!-- generated on Thu Nov  4 13:39:43 2021 by Eclipse SUMO sumo Version 1.9.0
<configuration xmlns:xsi="http://www.w3.org/2001/XMLSchema-instance" xsi:noNamespaceSchemaLocation="http://sumo.dlr.de/xsd/sumoConfiguration.xsd">

    <input>
        <net-file value="/mainfs/home/bk2g18/RESCO/environments/ingolstadt21/ingolstadt21.net.xml"/>
        <route-files value="/mainfs/home/bk2g18/RESCO/environments/ingolstadt21/ingolstadt21.rou.xml"/>
    </input>

    <output>
        <tripinfo-output value="/mainfs/home/bk2g18/RESCO/logs/MPLight-tr0-ingolstadt21-21-mplight-pressure/tripinfo_48.xml"/>
        <tripinfo-output.write-unfinished value="true"/>
    </output>

    <time>
        <begin value="57600"/>
        <end value="61200"/>
    </time>

    <processing>
        <time-to-teleport value="-1"/>
    </processing>

    <report>
        <xml-validation value="never"/>
        <xml-validation.routes value="never"/>
        <no-warnings value="true"/>
        <no-step-log value="true"/>
    </report>

    <emissions>
        <device.emissions.probability value="1"/>
    </emissions>

    <traci_server>
        <remote-port value="44392"/>
    </traci_server>

    <random_number>
        <random value="true"/>
    </random_number>

</configuration>
-->

<tripinfos xmlns:xsi="http://www.w3.org/2001/XMLSchema-instance" xsi:noNamespaceSchemaLocation="http://sumo.dlr.de/xsd/tripinfo_file.xsd">
    <tripinfo id="h15454c2:3" depart="57612.00" departLane="24608844_1" departPos="5.10" departSpeed="0.00" departDelay="0.50" arrival="57662.00" arrivalLane="32978638#0_1" arrivalPos="49.29" arrivalSpeed="10.72" duration="50.00" routeLength="354.79" waitingTime="0.00" waitingCount="0" stopTime="0.00" timeLoss="7.07" rerouteNo="1" devices="tripinfo_h15454c2:3 routing_h15454c2:3 emissions_h15454c2:3" vType="default_016" speedFactor="0.80" vaporized="">
        <emissions CO_abs="2291.457849" CO2_abs="103077.194973" HC_abs="12.811651" PMx_abs="1.734744" NOx_abs="42.130934" fuel_abs="44.309156" electricity_abs="0"/>
    </tripinfo>
    <tripinfo id="carIn60260:1" depart="57606.00" departLane="315358254#0_1" departPos="5.10" departSpeed="0.00" departDelay="0.90" arrival="57679.00" arrivalLane="399835085#1_1" arrivalPos="212.23" arrivalSpeed="6.96" duration="73.00" routeLength="430.98" waitingTime="9.00" waitingCount="1" stopTime="0.00" timeLoss="20.65" rerouteNo="1" devices="tripinfo_carIn60260:1 routing_carIn60260:1 emissions_carIn60260:1" vType="default_016" speedFactor="0.88" vaporized="">
        <emissions CO_abs="3442.747475" CO2_abs="131644.154022" HC_abs="18.709189" PMx_abs="2.284960" NOx_abs="54.346372" fuel_abs="56.589385" electricity_abs="0"/>
    </tripinfo>
    <tripinfo id="carIn53971:1" depart="57640.00" departLane="272042143_1" departPos="5.10" departSpeed="0.00" departDelay="0.80" arrival="57690.00" arrivalLane="24634414#1_1" arrivalPos="162.19" arrivalSpeed="8.04" duration="50.00" routeLength="493.04" waitingTime="0.00" waitingCount="0" stopTime="0.00" timeLoss="9.01" rerouteNo="1" devices="tripinfo_carIn53971:1 routing_carIn53971:1 emissions_carIn53971:1" vType="default_016" speedFactor="1.11" vaporized="">
        <emissions CO_abs="2488.725046" CO2_abs="149842.181018" HC_abs="14.804084" PMx_abs="2.647631" NOx_abs="61.365411" fuel_abs="64.410883" electricity_abs="0"/>
    </tripinfo>
    <tripinfo id="h7800c1:5" depart="57696.00" departLane="-447569998#1_1" departPos="5.10" departSpeed="0.00" departDelay="0.00" arrival="57718.00" arrivalLane="-447569998#1_2" arrivalPos="180.76" arrivalSpeed="8.16" duration="22.00" routeLength="175.66" waitingTime="0.00" waitingCount="0" stopTime="0.00" timeLoss="4.00" rerouteNo="1" devices="tripinfo_h7800c1:5 routing_h7800c1:5 emissions_h7800c1:5" vType="default_016" speedFactor="1.19" vaporized="">
        <emissions CO_abs="1201.825579" CO2_abs="58623.958347" HC_abs="6.828879" PMx_abs="0.990711" NOx_abs="23.968155" fuel_abs="25.200228" electricity_abs="0"/>
    </tripinfo>
    <tripinfo id="h9563c2:5" depart="57631.00" departLane="315358244_1" departPos="5.10" departSpeed="0.00" departDelay="0.70" arrival="57723.00" arrivalLane="386687235_1" arrivalPos="80.84" arrivalSpeed="14.63" duration="92.00" routeLength="1186.14" waitingTime="0.00" waitingCount="0" stopTime="0.00" timeLoss="15.26" rerouteNo="1" devices="tripinfo_h9563c2:5 routing_h9563c2:5 emissions_h9563c2:5" vType="default_016" speedFactor="1.13" vaporized="">
        <emissions CO_abs="3619.449842" CO2_abs="279220.141576" HC_abs="22.926866" PMx_abs="4.908588" NOx_abs="112.307861" fuel_abs="120.024401" electricity_abs="0"/>
    </tripinfo>
    <tripinfo id="carIn80064:1" depart="57603.00" departLane="128361109#1_1" departPos="5.10" departSpeed="0.00" departDelay="0.40" arrival="57726.00" arrivalLane="-315358254#1_1" arrivalPos="137.16" arrivalSpeed="15.25" duration="123.00" routeLength="1587.97" waitingTime="11.00" waitingCount="2" stopTime="0.00" timeLoss="41.96" rerouteNo="1" devices="tripinfo_carIn80064:1 routing_carIn80064:1 emissions_carIn80064:1" vType="default_016" speedFactor="1.11" vaporized="">
        <emissions CO_abs="7749.034053" CO2_abs="498001.673506" HC_abs="47.242095" PMx_abs="10.034559" NOx_abs="207.374464" fuel_abs="214.068236" electricity_abs="0"/>
    </tripinfo>
    <tripinfo id="h7181c1:1" depart="57660.00" departLane="315358254#0_1" departPos="5.10" departSpeed="0.00" departDelay="0.10" arrival="57730.00" arrivalLane="306240162#0_0" arrivalPos="220.43" arrivalSpeed="15.01" duration="70.00" routeLength="932.35" waitingTime="1.00" waitingCount="1" stopTime="0.00" timeLoss="16.15" rerouteNo="1" devices="tripinfo_h7181c1:1 routing_h7181c1:1 emissions_h7181c1:1" vType="default_016" speedFactor="0.97" vaporized="">
        <emissions CO_abs="4053.310184" CO2_abs="283030.942614" HC_abs="25.099130" PMx_abs="5.390173" NOx_abs="116.113621" fuel_abs="121.662241" electricity_abs="0"/>
    </tripinfo>
    <tripinfo id="h3688c1:1" depart="57625.00" departLane="201201950#1_1" departPos="5.10" departSpeed="0.00" departDelay="0.00" arrival="57735.00" arrivalLane="32978638#0_1" arrivalPos="49.29" arrivalSpeed="12.15" duration="110.00" routeLength="1089.75" waitingTime="9.00" waitingCount="1" stopTime="0.00" timeLoss="26.70" rerouteNo="1" devices="tripinfo_h3688c1:1 routing_h3688c1:1 emissions_h3688c1:1" vType="default_016" speedFactor="0.96" vaporized="">
        <emissions CO_abs="4607.608311" CO2_abs="279680.548552" HC_abs="27.525088" PMx_abs="4.805455" NOx_abs="113.149528" fuel_abs="120.223207" electricity_abs="0"/>
    </tripinfo>
    <tripinfo id="S5R_frequency1.2" depart="57634.00" departLane="315358250#0_1" departPos="12.10" departSpeed="0.00" departDelay="22.40" arrival="57741.00" arrivalLane="386687235_1" arrivalPos="80.84" arrivalSpeed="12.43" duration="107.00" routeLength="1115.62" waitingTime="4.00" waitingCount="1" stopTime="0.00" timeLoss="25.60" rerouteNo="1" devices="tripinfo_S5R_frequency1.2 routing_S5R_frequency1.2 emissions_S5R_frequency1.2" vType="bus" speedFactor="1.00" vaporized="">
        <emissions CO_abs="2275.209659" CO2_abs="1421192.300975" HC_abs="473.607103" PMx_abs="243.396701" NOx_abs="11047.169482" fuel_abs="606.114537" electricity_abs="0"/>
    </tripinfo>
    <tripinfo id="h4538c1:1" depart="57701.00" departLane="-10427692#1_1" departPos="5.10" departSpeed="0.00" departDelay="0.00" arrival="57746.00" arrivalLane="-128361102#1_1" arrivalPos="274.68" arrivalSpeed="11.62" duration="45.00" routeLength="440.74" waitingTime="0.00" waitingCount="0" stopTime="0.00" timeLoss="6.24" rerouteNo="1" devices="tripinfo_h4538c1:1 routing_h4538c1:1 emissions_h4538c1:1" vType="default_016" speedFactor="0.84" vaporized="">
        <emissions CO_abs="1684.221799" CO2_abs="108695.689668" HC_abs="10.191342" PMx_abs="1.756414" NOx_abs="43.505537" fuel_abs="46.723876" electricity_abs="0"/>
    </tripinfo>
    <tripinfo id="h317c2:1" depart="57707.00" departLane="-32978638#0_1" departPos="5.10" departSpeed="0.00" departDelay="0.10" arrival="57746.00" arrivalLane="-266565295#5_1" arrivalPos="172.76" arrivalSpeed="13.67" duration="39.00" routeLength="370.53" waitingTime="1.00" waitingCount="1" stopTime="0.00" timeLoss="10.96" rerouteNo="1" devices="tripinfo_h317c2:1 routing_h317c2:1 emissions_h317c2:1" vType="default_016" speedFactor="0.99" vaporized="">
        <emissions CO_abs="2185.673457" CO2_abs="122270.956572" HC_abs="12.835647" PMx_abs="2.256163" NOx_abs="50.701394" fuel_abs="52.559159" electricity_abs="0"/>
    </tripinfo>
    <tripinfo id="carIn22761:1" depart="57616.00" departLane="-306240162#1_0" departPos="5.10" departSpeed="0.00" departDelay="2.10" arrival="57749.00" arrivalLane="399835085#1_1" arrivalPos="212.23" arrivalSpeed="6.53" duration="133.00" routeLength="1093.26" waitingTime="23.00" waitingCount="2" stopTime="0.00" timeLoss="45.14" rerouteNo="1" devices="tripinfo_carIn22761:1 routing_carIn22761:1 emissions_carIn22761:1" vType="default_016" speedFactor="0.89" vaporized="">
        <emissions CO_abs="7075.209306" CO2_abs="318145.937546" HC_abs="39.745952" PMx_abs="6.205972" NOx_abs="133.776579" fuel_abs="136.758312" electricity_abs="0"/>
    </tripinfo>
    <tripinfo id="carIn30817:1" depart="57681.00" departLane="315358244_1" departPos="5.10" departSpeed="0.00" departDelay="0.20" arrival="57753.00" arrivalLane="447569997#1_1" arrivalPos="180.93" arrivalSpeed="7.88" duration="72.00" routeLength="718.04" waitingTime="0.00" waitingCount="0" stopTime="0.00" timeLoss="11.74" rerouteNo="1" devices="tripinfo_carIn30817:1 routing_carIn30817:1 emissions_carIn30817:1" vType="default_016" speedFactor="1.02" vaporized="">
        <emissions CO_abs="3032.989184" CO2_abs="185468.880334" HC_abs="18.153908" PMx_abs="3.211494" NOx_abs="75.424893" fuel_abs="79.725391" electricity_abs="0"/>
    </tripinfo>
    <tripinfo id="h12244c1:3" depart="57612.00" departLane="315358244_1" departPos="5.10" departSpeed="0.00" departDelay="0.40" arrival="57754.00" arrivalLane="386687235_1" arrivalPos="80.84" arrivalSpeed="11.50" duration="142.00" routeLength="1186.14" waitingTime="17.00" waitingCount="2" stopTime="0.00" timeLoss="44.11" rerouteNo="1" devices="tripinfo_h12244c1:3 routing_h12244c1:3 emissions_h12244c1:3" vType="default_016" speedFactor="0.88" vaporized="">
        <emissions CO_abs="6109.920908" CO2_abs="310480.587182" HC_abs="35.058024" PMx_abs="5.382609" NOx_abs="126.556438" fuel_abs="133.463594" electricity_abs="0"/>
    </tripinfo>
    <tripinfo id="h5979c1:5" depart="57669.00" departLane="399835085#1_1" departPos="5.10" departSpeed="0.00" departDelay="0.00" arrival="57758.00" arrivalLane="-315358254#1_1" arrivalPos="137.16" arrivalSpeed="14.21" duration="89.00" routeLength="659.33" waitingTime="8.00" waitingCount="1" stopTime="0.00" timeLoss="22.04" rerouteNo="1" devices="tripinfo_h5979c1:5 routing_h5979c1:5 emissions_h5979c1:5" vType="default_016" speedFactor="1.10" vaporized="">
        <emissions CO_abs="4072.103768" CO2_abs="185823.622354" HC_abs="22.864600" PMx_abs="3.283934" NOx_abs="76.685951" fuel_abs="79.878591" electricity_abs="0"/>
    </tripinfo>
    <tripinfo id="h3568c1:3" depart="57656.00" departLane="266565295#5_1" departPos="5.10" departSpeed="0.00" departDelay="0.80" arrival="57762.00" arrivalLane="-24634415_1" arrivalPos="62.03" arrivalSpeed="11.28" duration="106.00" routeLength="807.40" waitingTime="10.00" waitingCount="1" stopTime="0.00" timeLoss="31.33" rerouteNo="1" devices="tripinfo_h3568c1:3 routing_h3568c1:3 emissions_h3568c1:3" vType="default_016" speedFactor="0.87" vaporized="">
        <emissions CO_abs="5395.059279" CO2_abs="262111.504824" HC_abs="30.704553" PMx_abs="4.782847" NOx_abs="109.032745" fuel_abs="112.671367" electricity_abs="0"/>
    </tripinfo>
    <tripinfo id="h3326c1:2" depart="57656.00" departLane="22716069#0_1" departPos="5.10" departSpeed="0.00" departDelay="0.00" arrival="57764.00" arrivalLane="24634517#13_1" arrivalPos="111.62" arrivalSpeed="14.13" duration="108.00" routeLength="1312.81" waitingTime="0.00" waitingCount="0" stopTime="0.00" timeLoss="14.98" rerouteNo="1" devices="tripinfo_h3326c1:2 routing_h3326c1:2 emissions_h3326c1:2" vType="default_016" speedFactor="1.06" vaporized="">
        <emissions CO_abs="3964.672689" CO2_abs="306135.025439" HC_abs="25.216595" PMx_abs="5.216870" NOx_abs="122.761164" fuel_abs="131.594123" electricity_abs="0"/>
    </tripinfo>
    <tripinfo id="carIn27009:1" depart="57673.00" departLane="-447569998#1_1" departPos="5.10" departSpeed="0.00" departDelay="0.50" arrival="57767.00" arrivalLane="-26677539_1" arrivalPos="152.75" arrivalSpeed="8.09" duration="94.00" routeLength="699.63" waitingTime="0.00" waitingCount="0" stopTime="0.00" timeLoss="12.33" rerouteNo="1" devices="tripinfo_carIn27009:1 routing_carIn27009:1 emissions_carIn27009:1" vType="default_015" speedFactor="1.03" vaporized="">
        <emissions CO_abs="3748.266906" CO2_abs="181700.892628" HC_abs="21.243079" PMx_abs="2.941755" NOx_abs="73.655838" fuel_abs="78.106553" electricity_abs="0"/>
    </tripinfo>
    <tripinfo id="h330c1:1" depart="57736.00" departLane="-32978638#0_1" departPos="5.10" departSpeed="0.00" departDelay="0.20" arrival="57770.00" arrivalLane="-266565295#5_1" arrivalPos="172.76" arrivalSpeed="12.70" duration="34.00" routeLength="370.53" waitingTime="0.00" waitingCount="0" stopTime="0.00" timeLoss="5.33" rerouteNo="1" devices="tripinfo_h330c1:1 routing_h330c1:1 emissions_h330c1:1" vType="default_016" speedFactor="0.97" vaporized="">
        <emissions CO_abs="1558.083811" CO2_abs="96143.330646" HC_abs="9.363190" PMx_abs="1.757025" NOx_abs="39.774209" fuel_abs="41.327875" electricity_abs="0"/>
    </tripinfo>
    <tripinfo id="carIn121703:1" depart="57647.00" departLane="386687232#0_1" departPos="5.10" departSpeed="0.00" departDelay="0.30" arrival="57772.00" arrivalLane="-315358244_1" arrivalPos="33.95" arrivalSpeed="15.17" duration="125.00" routeLength="1157.39" waitingTime="31.00" waitingCount="2" stopTime="0.00" timeLoss="48.60" rerouteNo="1" devices="tripinfo_carIn121703:1 routing_carIn121703:1 emissions_carIn121703:1" vType="default_016" speedFactor="1.10" vaporized="">
        <emissions CO_abs="7969.830653" CO2_abs="333791.903221" HC_abs="44.027996" PMx_abs="6.284607" NOx_abs="137.698463" fuel_abs="143.484807" electricity_abs="0"/>
    </tripinfo>
    <tripinfo id="h645c1:1" depart="57622.00" departLane="266565295#5_1" departPos="5.10" departSpeed="0.00" departDelay="0.40" arrival="57773.00" arrivalLane="-315358244_1" arrivalPos="33.95" arrivalSpeed="14.01" duration="151.00" routeLength="1910.83" waitingTime="4.00" waitingCount="1" stopTime="0.00" timeLoss="21.66" rerouteNo="1" devices="tripinfo_h645c1:1 routing_h645c1:1 emissions_h645c1:1" vType="default_016" speedFactor="1.07" vaporized="">
        <emissions CO_abs="4219.291182" CO2_abs="367699.786890" HC_abs="27.820510" PMx_abs="6.052534" NOx_abs="144.866384" fuel_abs="158.058124" electricity_abs="0"/>
    </tripinfo>
    <tripinfo id="carIn77943:1" depart="57608.00" departLane="124812856#0_1" departPos="5.10" departSpeed="0.00" departDelay="2.50" arrival="57781.00" arrivalLane="-128361102#1_1" arrivalPos="274.68" arrivalSpeed="17.58" duration="173.00" routeLength="2232.46" waitingTime="10.00" waitingCount="2" stopTime="0.00" timeLoss="43.89" rerouteNo="1" devices="tripinfo_carIn77943:1 routing_carIn77943:1 emissions_carIn77943:1" vType="default_016" speedFactor="1.27" vaporized="">
        <emissions CO_abs="7590.686398" CO2_abs="570057.824252" HC_abs="47.613749" PMx_abs="10.655253" NOx_abs="232.458281" fuel_abs="245.041925" electricity_abs="0"/>
    </tripinfo>
    <tripinfo id="h3154c1:1" depart="57658.00" departLane="24634507_1" departPos="5.10" departSpeed="0.00" departDelay="0.00" arrival="57787.00" arrivalLane="-266565295#5_1" arrivalPos="172.76" arrivalSpeed="13.59" duration="129.00" routeLength="1206.22" waitingTime="20.00" waitingCount="2" stopTime="0.00" timeLoss="42.51" rerouteNo="1" devices="tripinfo_h3154c1:1 routing_h3154c1:1 emissions_h3154c1:1" vType="default_016" speedFactor="1.03" vaporized="">
        <emissions CO_abs="5943.463912" CO2_abs="335978.205985" HC_abs="34.944255" PMx_abs="6.061098" NOx_abs="137.677477" fuel_abs="144.423179" electricity_abs="0"/>
    </tripinfo>
    <tripinfo id="carIn118591:1" depart="57689.00" departLane="315358244_1" departPos="5.10" departSpeed="0.00" departDelay="0.20" arrival="57787.00" arrivalLane="386687235_1" arrivalPos="80.84" arrivalSpeed="14.79" duration="98.00" routeLength="1186.14" waitingTime="2.00" waitingCount="1" stopTime="0.00" timeLoss="16.94" rerouteNo="1" devices="tripinfo_carIn118591:1 routing_carIn118591:1 emissions_carIn118591:1" vType="default_016" speedFactor="1.07" vaporized="">
        <emissions CO_abs="3160.149813" CO2_abs="247190.646142" HC_abs="20.127851" PMx_abs="4.078690" NOx_abs="97.836017" fuel_abs="106.256708" electricity_abs="0"/>
    </tripinfo>
    <tripinfo id="carIn107084:1" depart="57601.00" departLane="124812856#0_1" departPos="5.10" departSpeed="0.00" departDelay="0.70" arrival="57790.00" arrivalLane="-128361102#1_1" arrivalPos="274.68" arrivalSpeed="13.34" duration="189.00" routeLength="2250.49" waitingTime="5.00" waitingCount="1" stopTime="0.00" timeLoss="28.36" rerouteNo="1" devices="tripinfo_carIn107084:1 routing_carIn107084:1 emissions_carIn107084:1" vType="default_016" speedFactor="1.02" vaporized="">
        <emissions CO_abs="5675.386780" CO2_abs="486094.332579" HC_abs="37.132951" PMx_abs="7.792527" NOx_abs="191.023990" fuel_abs="208.951089" electricity_abs="0"/>
    </tripinfo>
    <tripinfo id="carIn12365:1" depart="57713.00" departLane="315358244_1" departPos="5.10" departSpeed="0.00" departDelay="0.50" arrival="57794.00" arrivalLane="447569997#1_1" arrivalPos="180.93" arrivalSpeed="6.46" duration="81.00" routeLength="718.04" waitingTime="0.00" waitingCount="0" stopTime="0.00" timeLoss="8.20" rerouteNo="1" devices="tripinfo_carIn12365:1 routing_carIn12365:1 emissions_carIn12365:1" vType="default_016" speedFactor="0.85" vaporized="">
        <emissions CO_abs="2783.777170" CO2_abs="157252.756011" HC_abs="16.312622" PMx_abs="2.549462" NOx_abs="63.212875" fuel_abs="67.596854" electricity_abs="0"/>
    </tripinfo>
    <tripinfo id="carIn86816:1" depart="57617.00" departLane="128361102#0_1" departPos="5.10" departSpeed="0.00" departDelay="0.80" arrival="57805.00" arrivalLane="201956811#0_1" arrivalPos="40.40" arrivalSpeed="14.09" duration="188.00" routeLength="2067.33" waitingTime="13.00" waitingCount="1" stopTime="0.00" timeLoss="40.27" rerouteNo="1" devices="tripinfo_carIn86816:1 routing_carIn86816:1 emissions_carIn86816:1" vType="default_016" speedFactor="1.02" vaporized="">
        <emissions CO_abs="6797.661430" CO2_abs="456346.643674" HC_abs="41.575177" PMx_abs="7.644802" NOx_abs="181.996370" fuel_abs="196.164536" electricity_abs="0"/>
    </tripinfo>
    <tripinfo id="carIn107282:1" depart="57749.00" departLane="-447569998#1_1" departPos="5.10" departSpeed="0.00" departDelay="0.00" arrival="57806.00" arrivalLane="315358242#0_1" arrivalPos="165.37" arrivalSpeed="13.47" duration="57.00" routeLength="448.50" waitingTime="5.00" waitingCount="1" stopTime="0.00" timeLoss="14.23" rerouteNo="1" devices="tripinfo_carIn107282:1 routing_carIn107282:1 emissions_carIn107282:1" vType="default_016" speedFactor="0.98" vaporized="">
        <emissions CO_abs="2212.440430" CO2_abs="119465.751607" HC_abs="12.858265" PMx_abs="2.056001" NOx_abs="48.720446" fuel_abs="51.353597" electricity_abs="0"/>
    </tripinfo>
    <tripinfo id="h11737c1:1" depart="57665.00" departLane="272042143_1" departPos="5.10" departSpeed="0.00" departDelay="1.50" arrival="57813.00" arrivalLane="-315358254#1_1" arrivalPos="137.16" arrivalSpeed="13.07" duration="148.00" routeLength="1596.88" waitingTime="12.00" waitingCount="1" stopTime="0.00" timeLoss="29.80" rerouteNo="1" devices="tripinfo_h11737c1:1 routing_h11737c1:1 emissions_h11737c1:1" vType="default_016" speedFactor="0.99" vaporized="">
        <emissions CO_abs="5357.693251" CO2_abs="339790.360570" HC_abs="32.339692" PMx_abs="5.728537" NOx_abs="136.171888" fuel_abs="146.061975" electricity_abs="0"/>
    </tripinfo>
    <tripinfo id="carIn12858:1" depart="57661.00" departLane="128361109#1_1" departPos="5.10" departSpeed="0.00" departDelay="0.90" arrival="57817.00" arrivalLane="399835085#1_1" arrivalPos="212.23" arrivalSpeed="9.15" duration="156.00" routeLength="1738.12" waitingTime="23.00" waitingCount="2" stopTime="0.00" timeLoss="61.45" rerouteNo="1" devices="tripinfo_carIn12858:1 routing_carIn12858:1 emissions_carIn12858:1" vType="default_016" speedFactor="1.22" vaporized="">
        <emissions CO_abs="12374.096286" CO2_abs="640226.865556" HC_abs="71.737163" PMx_abs="13.313256" NOx_abs="269.753370" fuel_abs="275.205754" electricity_abs="0"/>
    </tripinfo>
    <tripinfo id="carIn81860:1" depart="57712.00" departLane="128361102#0_1" departPos="5.10" departSpeed="0.00" departDelay="0.60" arrival="57823.00" arrivalLane="-24634517#17_1" arrivalPos="6.43" arrivalSpeed="8.23" duration="111.00" routeLength="1229.64" waitingTime="10.00" waitingCount="1" stopTime="0.00" timeLoss="28.04" rerouteNo="1" devices="tripinfo_carIn81860:1 routing_carIn81860:1 emissions_carIn81860:1" vType="default_016" speedFactor="1.09" vaporized="">
        <emissions CO_abs="4814.503013" CO2_abs="315977.602552" HC_abs="29.290838" PMx_abs="5.565359" NOx_abs="127.754697" fuel_abs="135.825366" electricity_abs="0"/>
    </tripinfo>
    <tripinfo id="carIn48184:1" depart="57613.00" departLane="-306240162#1_0" departPos="5.10" departSpeed="0.00" departDelay="0.70" arrival="57824.00" arrivalLane="386687235_2" arrivalPos="80.84" arrivalSpeed="12.48" duration="211.00" routeLength="2257.41" waitingTime="24.00" waitingCount="2" stopTime="0.00" timeLoss="54.66" rerouteNo="1" devices="tripinfo_carIn48184:1 routing_carIn48184:1 emissions_carIn48184:1" vType="default_016" speedFactor="0.95" vaporized="">
        <emissions CO_abs="9434.370147" CO2_abs="575335.614075" HC_abs="56.481834" PMx_abs="10.010533" NOx_abs="231.517483" fuel_abs="247.313191" electricity_abs="0"/>
    </tripinfo>
    <tripinfo id="h16072c2:3" depart="57663.00" departLane="315358254#0_1" departPos="5.10" departSpeed="0.00" departDelay="2.50" arrival="57825.00" arrivalLane="386687235_1" arrivalPos="80.84" arrivalSpeed="11.11" duration="162.00" routeLength="1611.92" waitingTime="4.00" waitingCount="1" stopTime="0.00" timeLoss="20.14" rerouteNo="1" devices="tripinfo_h16072c2:3 routing_h16072c2:3 emissions_h16072c2:3" vType="default_016" speedFactor="0.83" vaporized="">
        <emissions CO_abs="4642.870176" CO2_abs="330099.643604" HC_abs="28.761728" PMx_abs="5.024545" NOx_abs="129.733558" fuel_abs="141.896581" electricity_abs="0"/>
    </tripinfo>
    <tripinfo id="carIn129809:1" depart="57729.00" departLane="-447569998#1_1" departPos="5.10" departSpeed="0.00" departDelay="1.00" arrival="57834.00" arrivalLane="-315358244_1" arrivalPos="33.95" arrivalSpeed="11.91" duration="105.00" routeLength="706.49" waitingTime="21.00" waitingCount="3" stopTime="0.00" timeLoss="40.63" rerouteNo="1" devices="tripinfo_carIn129809:1 routing_carIn129809:1 emissions_carIn129809:1" vType="default_015" speedFactor="0.94" vaporized="">
        <emissions CO_abs="6319.492067" CO2_abs="237993.222407" HC_abs="34.328586" PMx_abs="4.439482" NOx_abs="99.344393" fuel_abs="102.304969" electricity_abs="0"/>
    </tripinfo>
    <tripinfo id="h2831c1:1" depart="57600.00" departLane="201089423#0_1" departPos="5.10" departSpeed="0.00" departDelay="0.00" arrival="57836.00" arrivalLane="-315358244_1" arrivalPos="33.95" arrivalSpeed="12.84" duration="236.00" routeLength="2672.18" waitingTime="17.00" waitingCount="2" stopTime="0.00" timeLoss="44.91" rerouteNo="1" devices="tripinfo_h2831c1:1 routing_h2831c1:1 emissions_h2831c1:1" vType="default_016" speedFactor="1.02" vaporized="">
        <emissions CO_abs="7533.749463" CO2_abs="539429.030460" HC_abs="46.838157" PMx_abs="8.783994" NOx_abs="212.935438" fuel_abs="231.878231" electricity_abs="0"/>
    </tripinfo>
    <tripinfo id="carIn102915:1" depart="57643.00" departLane="128361102#0_1" departPos="5.10" departSpeed="0.00" departDelay="0.40" arrival="57836.00" arrivalLane="201956811#0_1" arrivalPos="40.40" arrivalSpeed="12.45" duration="193.00" routeLength="2067.33" waitingTime="2.00" waitingCount="1" stopTime="0.00" timeLoss="24.41" rerouteNo="1" devices="tripinfo_carIn102915:1 routing_carIn102915:1 emissions_carIn102915:1" vType="default_016" speedFactor="0.90" vaporized="">
        <emissions CO_abs="5996.163925" CO2_abs="443286.793049" HC_abs="37.617253" PMx_abs="7.088582" NOx_abs="175.944004" fuel_abs="190.550515" electricity_abs="0"/>
    </tripinfo>
    <tripinfo id="carIn126288:1" depart="57674.00" departLane="272042143_1" departPos="5.10" departSpeed="0.00" departDelay="0.00" arrival="57837.00" arrivalLane="-315358254#1_1" arrivalPos="137.16" arrivalSpeed="13.26" duration="163.00" routeLength="1596.88" waitingTime="23.00" waitingCount="2" stopTime="0.00" timeLoss="47.80" rerouteNo="1" devices="tripinfo_carIn126288:1 routing_carIn126288:1 emissions_carIn126288:1" vType="default_016" speedFactor="1.01" vaporized="">
        <emissions CO_abs="7632.648741" CO2_abs="399873.590954" HC_abs="44.126498" PMx_abs="7.087740" NOx_abs="162.510379" fuel_abs="171.889902" electricity_abs="0"/>
    </tripinfo>
    <tripinfo id="carIn12152:1" depart="57647.00" departLane="24599188#0.94_1" departPos="5.10" departSpeed="0.00" departDelay="0.50" arrival="57839.00" arrivalLane="-315358254#1_1" arrivalPos="137.16" arrivalSpeed="14.04" duration="192.00" routeLength="2034.31" waitingTime="18.00" waitingCount="2" stopTime="0.00" timeLoss="40.76" rerouteNo="1" devices="tripinfo_carIn12152:1 routing_carIn12152:1 emissions_carIn12152:1" vType="default_016" speedFactor="1.05" vaporized="">
        <emissions CO_abs="6615.676944" CO2_abs="423632.016875" HC_abs="39.856970" PMx_abs="7.024664" NOx_abs="168.471094" fuel_abs="182.102224" electricity_abs="0"/>
    </tripinfo>
    <tripinfo id="carIn50326:1" depart="57651.00" departLane="128361102#0_1" departPos="5.10" departSpeed="0.00" departDelay="0.30" arrival="57840.00" arrivalLane="18809673#0_1" arrivalPos="473.56" arrivalSpeed="13.88" duration="189.00" routeLength="1591.07" waitingTime="43.00" waitingCount="2" stopTime="0.00" timeLoss="67.61" rerouteNo="1" devices="tripinfo_carIn50326:1 routing_carIn50326:1 emissions_carIn50326:1" vType="default_016" speedFactor="1.07" vaporized="">
        <emissions CO_abs="10178.062970" CO2_abs="438462.590332" HC_abs="56.553079" PMx_abs="8.000661" NOx_abs="180.014993" fuel_abs="188.478945" electricity_abs="0"/>
    </tripinfo>
    <tripinfo id="randUni15030:1" depart="57735.00" departLane="386687232#0_1" departPos="5.10" departSpeed="0.00" departDelay="0.10" arrival="57841.00" arrivalLane="26677539_1" arrivalPos="151.98" arrivalSpeed="8.02" duration="106.00" routeLength="919.89" waitingTime="16.00" waitingCount="1" stopTime="0.00" timeLoss="31.00" rerouteNo="1" devices="tripinfo_randUni15030:1 routing_randUni15030:1 emissions_randUni15030:1" vType="random_016" speedFactor="1.12" vaporized="">
        <emissions CO_abs="5594.927091" CO2_abs="254771.407239" HC_abs="31.409644" PMx_abs="4.688912" NOx_abs="105.403858" fuel_abs="109.516467" electricity_abs="0"/>
    </tripinfo>
    <tripinfo id="carIn81046:1" depart="57610.00" departLane="124812856#0_1" departPos="5.10" departSpeed="0.00" departDelay="1.50" arrival="57842.00" arrivalLane="-128361102#1_1" arrivalPos="274.68" arrivalSpeed="11.43" duration="232.00" routeLength="2250.49" waitingTime="7.00" waitingCount="2" stopTime="0.00" timeLoss="36.39" rerouteNo="1" devices="tripinfo_carIn81046:1 routing_carIn81046:1 emissions_carIn81046:1" vType="default_016" speedFactor="0.84" vaporized="">
        <emissions CO_abs="7079.111517" CO2_abs="479030.218683" HC_abs="43.312398" PMx_abs="7.456852" NOx_abs="189.486845" fuel_abs="205.915878" electricity_abs="0"/>
    </tripinfo>
    <tripinfo id="h3864c1:3" depart="57678.00" departLane="24693977#1_1" departPos="5.10" departSpeed="0.00" departDelay="0.00" arrival="57842.00" arrivalLane="201956820_2" arrivalPos="48.33" arrivalSpeed="14.52" duration="164.00" routeLength="1574.85" waitingTime="8.00" waitingCount="1" stopTime="0.00" timeLoss="41.78" rerouteNo="1" devices="tripinfo_h3864c1:3 routing_h3864c1:3 emissions_h3864c1:3" vType="default_016" speedFactor="1.06" vaporized="">
        <emissions CO_abs="6850.908095" CO2_abs="440531.406761" HC_abs="41.534983" PMx_abs="7.714842" NOx_abs="179.445809" fuel_abs="189.365799" electricity_abs="0"/>
    </tripinfo>
    <tripinfo id="carIn28951:1" depart="57606.00" departLane="10425609#0_1" departPos="5.10" departSpeed="0.00" departDelay="0.20" arrival="57843.00" arrivalLane="-128361102#1_1" arrivalPos="274.68" arrivalSpeed="13.67" duration="237.00" routeLength="2113.04" waitingTime="30.00" waitingCount="2" stopTime="0.00" timeLoss="83.76" rerouteNo="1" devices="tripinfo_carIn28951:1 routing_carIn28951:1 emissions_carIn28951:1" vType="default_016" speedFactor="1.01" vaporized="">
        <emissions CO_abs="11486.248685" CO2_abs="583050.842862" HC_abs="65.922301" PMx_abs="10.294428" NOx_abs="238.694559" fuel_abs="250.630745" electricity_abs="0"/>
    </tripinfo>
    <tripinfo id="h20540c1:1" depart="57634.00" departLane="10425609#0_1" departPos="5.10" departSpeed="0.00" departDelay="0.50" arrival="57845.00" arrivalLane="-128361102#1_1" arrivalPos="274.68" arrivalSpeed="13.03" duration="211.00" routeLength="2113.04" waitingTime="5.00" waitingCount="2" stopTime="0.00" timeLoss="60.38" rerouteNo="1" devices="tripinfo_h20540c1:1 routing_h20540c1:1 emissions_h20540c1:1" vType="default_016" speedFactor="1.03" vaporized="">
        <emissions CO_abs="8406.659058" CO2_abs="544915.594651" HC_abs="51.069847" PMx_abs="9.541802" NOx_abs="222.705346" fuel_abs="234.236010" electricity_abs="0"/>