<?xml version="1.0" encoding="UTF-8"?>

<!-- generated on Thu Nov  4 13:30:43 2021 by Eclipse SUMO sumo Version 1.9.0
<configuration xmlns:xsi="http://www.w3.org/2001/XMLSchema-instance" xsi:noNamespaceSchemaLocation="http://sumo.dlr.de/xsd/sumoConfiguration.xsd">

    <input>
        <net-file value="/mainfs/home/bk2g18/RESCO/environments/ingolstadt21/ingolstadt21.net.xml"/>
        <route-files value="/mainfs/home/bk2g18/RESCO/environments/ingolstadt21/ingolstadt21.rou.xml"/>
    </input>

    <output>
        <tripinfo-output value="/mainfs/home/bk2g18/RESCO/logs/MPLight-tr0-ingolstadt21-21-mplight-pressure/tripinfo_32.xml"/>
        <tripinfo-output.write-unfinished value="true"/>
    </output>

    <time>
        <begin value="57600"/>
        <end value="61200"/>
    </time>

    <processing>
        <time-to-teleport value="-1"/>
    </processing>

    <report>
        <xml-validation value="never"/>
        <xml-validation.routes value="never"/>
        <no-warnings value="true"/>
        <no-step-log value="true"/>
    </report>

    <emissions>
        <device.emissions.probability value="1"/>
    </emissions>

    <traci_server>
        <remote-port value="43273"/>
    </traci_server>

    <random_number>
        <random value="true"/>
    </random_number>

</configuration>
-->

<tripinfos xmlns:xsi="http://www.w3.org/2001/XMLSchema-instance" xsi:noNamespaceSchemaLocation="http://sumo.dlr.de/xsd/tripinfo_file.xsd">
    <tripinfo id="carIn60260:1" depart="57606.00" departLane="315358254#0_1" departPos="5.10" departSpeed="0.00" departDelay="0.90" arrival="57666.00" arrivalLane="399835085#1_1" arrivalPos="212.23" arrivalSpeed="6.86" duration="60.00" routeLength="430.98" waitingTime="0.00" waitingCount="0" stopTime="0.00" timeLoss="10.82" rerouteNo="1" devices="tripinfo_carIn60260:1 routing_carIn60260:1 emissions_carIn60260:1" vType="default_016" speedFactor="0.93" vaporized="">
        <emissions CO_abs="2383.898726" CO2_abs="106385.899970" HC_abs="13.314279" PMx_abs="1.826298" NOx_abs="43.778655" fuel_abs="45.731404" electricity_abs="0"/>
    </tripinfo>
    <tripinfo id="h15454c2:3" depart="57612.00" departLane="24608844_1" departPos="5.10" departSpeed="0.00" departDelay="0.50" arrival="57678.00" arrivalLane="32978638#0_1" arrivalPos="49.29" arrivalSpeed="12.90" duration="66.00" routeLength="354.79" waitingTime="19.00" waitingCount="1" stopTime="0.00" timeLoss="30.24" rerouteNo="1" devices="tripinfo_h15454c2:3 routing_h15454c2:3 emissions_h15454c2:3" vType="default_016" speedFactor="0.97" vaporized="">
        <emissions CO_abs="4581.443456" CO2_abs="151987.191791" HC_abs="24.405193" PMx_abs="2.939247" NOx_abs="64.316221" fuel_abs="65.334268" electricity_abs="0"/>
    </tripinfo>
    <tripinfo id="carIn53971:1" depart="57640.00" departLane="272042143_1" departPos="5.10" departSpeed="0.00" departDelay="0.80" arrival="57699.00" arrivalLane="24634414#1_1" arrivalPos="162.19" arrivalSpeed="7.33" duration="59.00" routeLength="493.04" waitingTime="0.00" waitingCount="0" stopTime="0.00" timeLoss="9.18" rerouteNo="1" devices="tripinfo_carIn53971:1 routing_carIn53971:1 emissions_carIn53971:1" vType="default_016" speedFactor="0.91" vaporized="">
        <emissions CO_abs="2413.697130" CO2_abs="124924.001429" HC_abs="13.894051" PMx_abs="2.144083" NOx_abs="51.149303" fuel_abs="53.699952" electricity_abs="0"/>
    </tripinfo>
    <tripinfo id="h7800c1:5" depart="57696.00" departLane="-447569998#1_1" departPos="5.10" departSpeed="0.00" departDelay="0.00" arrival="57719.00" arrivalLane="-447569998#1_2" arrivalPos="180.76" arrivalSpeed="9.32" duration="23.00" routeLength="175.66" waitingTime="0.00" waitingCount="0" stopTime="0.00" timeLoss="3.52" rerouteNo="1" devices="tripinfo_h7800c1:5 routing_h7800c1:5 emissions_h7800c1:5" vType="default_016" speedFactor="1.14" vaporized="">
        <emissions CO_abs="1134.755970" CO2_abs="55633.607346" HC_abs="6.441684" PMx_abs="0.874061" NOx_abs="22.320141" fuel_abs="23.914884" electricity_abs="0"/>
    </tripinfo>
    <tripinfo id="h9563c2:5" depart="57631.00" departLane="315358244_1" departPos="5.10" departSpeed="0.00" departDelay="0.70" arrival="57723.00" arrivalLane="386687235_1" arrivalPos="80.84" arrivalSpeed="16.02" duration="92.00" routeLength="1186.14" waitingTime="4.00" waitingCount="1" stopTime="0.00" timeLoss="18.81" rerouteNo="1" devices="tripinfo_h9563c2:5 routing_h9563c2:5 emissions_h9563c2:5" vType="default_016" speedFactor="1.19" vaporized="">
        <emissions CO_abs="3056.996848" CO2_abs="264400.128717" HC_abs="19.850400" PMx_abs="4.361137" NOx_abs="103.401477" fuel_abs="113.654140" electricity_abs="0"/>
    </tripinfo>
    <tripinfo id="h12244c1:3" depart="57612.00" departLane="315358244_1" departPos="5.10" departSpeed="0.00" departDelay="0.40" arrival="57731.00" arrivalLane="386687235_1" arrivalPos="80.84" arrivalSpeed="14.02" duration="119.00" routeLength="1186.14" waitingTime="12.00" waitingCount="3" stopTime="0.00" timeLoss="36.05" rerouteNo="1" devices="tripinfo_h12244c1:3 routing_h12244c1:3 emissions_h12244c1:3" vType="default_016" speedFactor="1.05" vaporized="">
        <emissions CO_abs="4693.281466" CO2_abs="296045.898688" HC_abs="28.229701" PMx_abs="5.044520" NOx_abs="118.703815" fuel_abs="127.257976" electricity_abs="0"/>
    </tripinfo>
    <tripinfo id="h7181c1:1" depart="57660.00" departLane="315358254#0_1" departPos="5.10" departSpeed="0.00" departDelay="0.10" arrival="57740.00" arrivalLane="306240162#0_0" arrivalPos="220.43" arrivalSpeed="19.39" duration="80.00" routeLength="932.35" waitingTime="13.00" waitingCount="2" stopTime="0.00" timeLoss="35.33" rerouteNo="1" devices="tripinfo_h7181c1:1 routing_h7181c1:1 emissions_h7181c1:1" vType="default_016" speedFactor="1.17" vaporized="">
        <emissions CO_abs="5361.569423" CO2_abs="321405.396662" HC_abs="32.087578" PMx_abs="6.591141" NOx_abs="134.475235" fuel_abs="138.157673" electricity_abs="0"/>
    </tripinfo>
    <tripinfo id="h3568c1:3" depart="57656.00" departLane="266565295#5_1" departPos="5.10" departSpeed="0.00" departDelay="0.80" arrival="57747.00" arrivalLane="-24634415_1" arrivalPos="62.03" arrivalSpeed="13.43" duration="91.00" routeLength="807.40" waitingTime="7.00" waitingCount="1" stopTime="0.00" timeLoss="26.38" rerouteNo="1" devices="tripinfo_h3568c1:3 routing_h3568c1:3 emissions_h3568c1:3" vType="default_016" speedFactor="1.00" vaporized="">
        <emissions CO_abs="4332.298248" CO2_abs="247410.285553" HC_abs="25.533653" PMx_abs="4.484472" NOx_abs="102.080225" fuel_abs="106.351354" electricity_abs="0"/>
    </tripinfo>
    <tripinfo id="h3688c1:1" depart="57625.00" departLane="201201950#1_1" departPos="5.10" departSpeed="0.00" departDelay="0.00" arrival="57748.00" arrivalLane="32978638#0_1" arrivalPos="49.29" arrivalSpeed="10.55" duration="123.00" routeLength="1089.75" waitingTime="9.00" waitingCount="1" stopTime="0.00" timeLoss="22.56" rerouteNo="1" devices="tripinfo_h3688c1:1 routing_h3688c1:1 emissions_h3688c1:1" vType="default_016" speedFactor="0.80" vaporized="">
        <emissions CO_abs="4201.218678" CO2_abs="238699.480816" HC_abs="24.631699" PMx_abs="3.751627" NOx_abs="94.972780" fuel_abs="102.607821" electricity_abs="0"/>
    </tripinfo>
    <tripinfo id="carIn30817:1" depart="57681.00" departLane="315358244_1" departPos="5.10" departSpeed="0.00" departDelay="0.20" arrival="57748.00" arrivalLane="447569997#1_1" arrivalPos="180.93" arrivalSpeed="8.05" duration="67.00" routeLength="718.04" waitingTime="0.00" waitingCount="0" stopTime="0.00" timeLoss="8.49" rerouteNo="1" devices="tripinfo_carIn30817:1 routing_carIn30817:1 emissions_carIn30817:1" vType="default_016" speedFactor="1.06" vaporized="">
        <emissions CO_abs="2190.770623" CO2_abs="160416.344766" HC_abs="13.580222" PMx_abs="2.396404" NOx_abs="62.153162" fuel_abs="68.956601" electricity_abs="0"/>
    </tripinfo>
    <tripinfo id="S5R_frequency1.2" depart="57616.00" departLane="315358250#0_1" departPos="12.10" departSpeed="0.00" departDelay="4.40" arrival="57753.00" arrivalLane="386687235_1" arrivalPos="80.84" arrivalSpeed="13.42" duration="137.00" routeLength="1115.62" waitingTime="30.00" waitingCount="2" stopTime="0.00" timeLoss="55.11" rerouteNo="1" devices="tripinfo_S5R_frequency1.2 routing_S5R_frequency1.2 emissions_S5R_frequency1.2" vType="bus" speedFactor="1.00" vaporized="">
        <emissions CO_abs="2837.364637" CO2_abs="1589313.168072" HC_abs="611.785316" PMx_abs="300.053226" NOx_abs="12840.050418" fuel_abs="677.763667" electricity_abs="0"/>
    </tripinfo>
    <tripinfo id="h317c2:1" depart="57707.00" departLane="-32978638#0_1" departPos="5.10" departSpeed="0.00" departDelay="0.10" arrival="57758.00" arrivalLane="-266565295#5_1" arrivalPos="172.76" arrivalSpeed="11.34" duration="51.00" routeLength="370.53" waitingTime="10.00" waitingCount="1" stopTime="0.00" timeLoss="19.88" rerouteNo="1" devices="tripinfo_h317c2:1 routing_h317c2:1 emissions_h317c2:1" vType="default_016" speedFactor="0.88" vaporized="">
        <emissions CO_abs="3071.959185" CO2_abs="123909.054903" HC_abs="16.888644" PMx_abs="2.327980" NOx_abs="51.857016" fuel_abs="53.263957" electricity_abs="0"/>
    </tripinfo>
    <tripinfo id="carIn22761:1" depart="57616.00" departLane="-306240162#1_0" departPos="5.10" departSpeed="0.00" departDelay="2.10" arrival="57761.00" arrivalLane="399835085#1_1" arrivalPos="212.23" arrivalSpeed="8.27" duration="145.00" routeLength="1093.26" waitingTime="48.00" waitingCount="1" stopTime="0.00" timeLoss="71.02" rerouteNo="1" devices="tripinfo_carIn22761:1 routing_carIn22761:1 emissions_carIn22761:1" vType="default_016" speedFactor="1.06" vaporized="">
        <emissions CO_abs="12145.693766" CO2_abs="432989.084203" HC_abs="65.509775" PMx_abs="8.803471" NOx_abs="183.709822" fuel_abs="186.126491" electricity_abs="0"/>
    </tripinfo>
    <tripinfo id="h5979c1:5" depart="57669.00" departLane="399835085#1_1" departPos="5.10" departSpeed="0.00" departDelay="0.00" arrival="57761.00" arrivalLane="-315358254#1_1" arrivalPos="137.16" arrivalSpeed="13.56" duration="92.00" routeLength="659.33" waitingTime="9.00" waitingCount="1" stopTime="0.00" timeLoss="22.99" rerouteNo="1" devices="tripinfo_h5979c1:5 routing_h5979c1:5 emissions_h5979c1:5" vType="default_016" speedFactor="1.06" vaporized="">
        <emissions CO_abs="4076.289436" CO2_abs="185016.019294" HC_abs="22.849109" PMx_abs="3.194493" NOx_abs="75.906243" fuel_abs="79.531562" electricity_abs="0"/>
    </tripinfo>
    <tripinfo id="carIn121703:1" depart="57647.00" departLane="386687232#0_1" departPos="5.10" departSpeed="0.00" departDelay="0.30" arrival="57764.00" arrivalLane="-315358244_1" arrivalPos="33.95" arrivalSpeed="12.49" duration="117.00" routeLength="1157.39" waitingTime="8.00" waitingCount="1" stopTime="0.00" timeLoss="29.01" rerouteNo="1" devices="tripinfo_carIn121703:1 routing_carIn121703:1 emissions_carIn121703:1" vType="default_016" speedFactor="0.96" vaporized="">
        <emissions CO_abs="4668.390156" CO2_abs="293043.661451" HC_abs="28.092744" PMx_abs="4.884197" NOx_abs="117.390582" fuel_abs="125.967576" electricity_abs="0"/>
    </tripinfo>
    <tripinfo id="carIn27009:1" depart="57673.00" departLane="-447569998#1_1" departPos="5.10" departSpeed="0.00" departDelay="0.50" arrival="57770.00" arrivalLane="-26677539_1" arrivalPos="152.75" arrivalSpeed="8.91" duration="97.00" routeLength="699.63" waitingTime="3.00" waitingCount="1" stopTime="0.00" timeLoss="19.13" rerouteNo="1" devices="tripinfo_carIn27009:1 routing_carIn27009:1 emissions_carIn27009:1" vType="default_015" speedFactor="1.08" vaporized="">
        <emissions CO_abs="3905.742247" CO2_abs="191005.340748" HC_abs="22.185020" PMx_abs="3.140737" NOx_abs="77.694502" fuel_abs="82.106096" electricity_abs="0"/>
    </tripinfo>
    <tripinfo id="h4538c1:1" depart="57701.00" departLane="-10427692#1_1" departPos="5.10" departSpeed="0.00" departDelay="0.00" arrival="57773.00" arrivalLane="-128361102#1_1" arrivalPos="274.68" arrivalSpeed="14.68" duration="72.00" routeLength="440.74" waitingTime="33.00" waitingCount="1" stopTime="0.00" timeLoss="43.85" rerouteNo="1" devices="tripinfo_h4538c1:1 routing_h4538c1:1 emissions_h4538c1:1" vType="default_016" speedFactor="1.12" vaporized="">
        <emissions CO_abs="6658.197793" CO2_abs="194041.871102" HC_abs="34.844978" PMx_abs="4.073654" NOx_abs="83.365545" fuel_abs="83.412463" electricity_abs="0"/>
    </tripinfo>
    <tripinfo id="h3326c1:2" depart="57656.00" departLane="22716069#0_1" departPos="5.10" departSpeed="0.00" departDelay="0.00" arrival="57777.00" arrivalLane="24634517#13_1" arrivalPos="111.62" arrivalSpeed="12.80" duration="121.00" routeLength="1312.81" waitingTime="0.00" waitingCount="0" stopTime="0.00" timeLoss="16.23" rerouteNo="1" devices="tripinfo_h3326c1:2 routing_h3326c1:2 emissions_h3326c1:2" vType="default_016" speedFactor="0.93" vaporized="">
        <emissions CO_abs="4151.678722" CO2_abs="301969.843620" HC_abs="25.937729" PMx_abs="4.870096" NOx_abs="120.030534" fuel_abs="129.804253" electricity_abs="0"/>
    </tripinfo>
    <tripinfo id="carIn28951:1" depart="57606.00" departLane="10425609#0_1" departPos="5.10" departSpeed="0.00" departDelay="0.20" arrival="57785.00" arrivalLane="-128361102#1_1" arrivalPos="274.68" arrivalSpeed="13.74" duration="179.00" routeLength="2113.04" waitingTime="2.00" waitingCount="1" stopTime="0.00" timeLoss="27.85" rerouteNo="1" devices="tripinfo_carIn28951:1 routing_carIn28951:1 emissions_carIn28951:1" vType="default_016" speedFactor="1.03" vaporized="">
        <emissions CO_abs="6351.270738" CO2_abs="476775.165108" HC_abs="40.052388" PMx_abs="8.235369" NOx_abs="192.226395" fuel_abs="204.944834" electricity_abs="0"/>
    </tripinfo>
    <tripinfo id="carIn107084:1" depart="57601.00" departLane="124812856#0_1" departPos="5.10" departSpeed="0.00" departDelay="0.70" arrival="57787.00" arrivalLane="-128361102#1_1" arrivalPos="274.68" arrivalSpeed="13.77" duration="186.00" routeLength="2250.49" waitingTime="4.00" waitingCount="1" stopTime="0.00" timeLoss="27.76" rerouteNo="1" devices="tripinfo_carIn107084:1 routing_carIn107084:1 emissions_carIn107084:1" vType="default_016" speedFactor="1.03" vaporized="">
        <emissions CO_abs="5773.348061" CO2_abs="478279.468186" HC_abs="37.391305" PMx_abs="7.767776" NOx_abs="188.655619" fuel_abs="205.591814" electricity_abs="0"/>
    </tripinfo>
    <tripinfo id="h330c1:1" depart="57736.00" departLane="-32978638#0_1" departPos="5.10" departSpeed="0.00" departDelay="0.20" arrival="57788.00" arrivalLane="-266565295#5_1" arrivalPos="172.76" arrivalSpeed="10.93" duration="52.00" routeLength="370.53" waitingTime="11.00" waitingCount="1" stopTime="0.00" timeLoss="19.86" rerouteNo="1" devices="tripinfo_h330c1:1 routing_h330c1:1 emissions_h330c1:1" vType="default_016" speedFactor="0.86" vaporized="">
        <emissions CO_abs="3055.411180" CO2_abs="129019.887246" HC_abs="16.919642" PMx_abs="2.322111" NOx_abs="53.205876" fuel_abs="55.460963" electricity_abs="0"/>
    </tripinfo>
    <tripinfo id="h3154c1:1" depart="57658.00" departLane="24634507_1" departPos="5.10" departSpeed="0.00" departDelay="0.00" arrival="57795.00" arrivalLane="-266565295#5_1" arrivalPos="172.76" arrivalSpeed="15.12" duration="137.00" routeLength="1206.22" waitingTime="36.00" waitingCount="2" stopTime="0.00" timeLoss="60.63" rerouteNo="1" devices="tripinfo_h3154c1:1 routing_h3154c1:1 emissions_h3154c1:1" vType="default_016" speedFactor="1.17" vaporized="">
        <emissions CO_abs="9997.653472" CO2_abs="425227.024828" HC_abs="55.429584" PMx_abs="8.408655" NOx_abs="178.513314" fuel_abs="182.788583" electricity_abs="0"/>
    </tripinfo>
    <tripinfo id="carIn12365:1" depart="57713.00" departLane="315358244_1" departPos="5.10" departSpeed="0.00" departDelay="0.50" arrival="57799.00" arrivalLane="447569997#1_1" arrivalPos="180.93" arrivalSpeed="7.05" duration="86.00" routeLength="718.04" waitingTime="9.00" waitingCount="1" stopTime="0.00" timeLoss="20.33" rerouteNo="1" devices="tripinfo_carIn12365:1 routing_carIn12365:1 emissions_carIn12365:1" vType="default_016" speedFactor="0.94" vaporized="">
        <emissions CO_abs="3496.877391" CO2_abs="181268.175817" HC_abs="20.127698" PMx_abs="3.036026" NOx_abs="73.320258" fuel_abs="77.920267" electricity_abs="0"/>
    </tripinfo>
    <tripinfo id="h16072c2:3" depart="57663.00" departLane="315358254#0_1" departPos="5.10" departSpeed="0.00" departDelay="2.50" arrival="57803.00" arrivalLane="386687235_1" arrivalPos="80.84" arrivalSpeed="12.63" duration="140.00" routeLength="1611.92" waitingTime="0.00" waitingCount="0" stopTime="0.00" timeLoss="15.54" rerouteNo="1" devices="tripinfo_h16072c2:3 routing_h16072c2:3 emissions_h16072c2:3" vType="default_016" speedFactor="0.94" vaporized="">
        <emissions CO_abs="4038.742151" CO2_abs="320058.655554" HC_abs="25.840254" PMx_abs="5.041872" NOx_abs="125.945072" fuel_abs="137.579805" electricity_abs="0"/>
    </tripinfo>
    <tripinfo id="carIn80064:1" depart="57603.00" departLane="128361109#1_1" departPos="5.10" departSpeed="0.00" departDelay="0.40" arrival="57807.00" arrivalLane="-315358254#1_1" arrivalPos="137.16" arrivalSpeed="13.53" duration="204.00" routeLength="1587.97" waitingTime="61.00" waitingCount="4" stopTime="0.00" timeLoss="112.00" rerouteNo="1" devices="tripinfo_carIn80064:1 routing_carIn80064:1 emissions_carIn80064:1" vType="default_016" speedFactor="0.98" vaporized="">
        <emissions CO_abs="14637.797040" CO2_abs="587680.281682" HC_abs="80.637297" PMx_abs="12.048094" NOx_abs="248.968074" fuel_abs="252.621075" electricity_abs="0"/>
    </tripinfo>
    <tripinfo id="carIn77943:1" depart="57608.00" departLane="124812856#0_1" departPos="5.10" departSpeed="0.00" departDelay="2.50" arrival="57815.00" arrivalLane="-128361102#1_1" arrivalPos="274.68" arrivalSpeed="14.29" duration="207.00" routeLength="2250.49" waitingTime="15.00" waitingCount="1" stopTime="0.00" timeLoss="47.86" rerouteNo="1" devices="tripinfo_carIn77943:1 routing_carIn77943:1 emissions_carIn77943:1" vType="default_016" speedFactor="1.03" vaporized="">
        <emissions CO_abs="8104.214441" CO2_abs="535054.621956" HC_abs="49.448528" PMx_abs="9.095248" NOx_abs="214.428756" fuel_abs="229.997745" electricity_abs="0"/>
    </tripinfo>
    <tripinfo id="carIn81860:1" depart="57712.00" departLane="128361102#0_1" departPos="5.10" departSpeed="0.00" departDelay="0.60" arrival="57820.00" arrivalLane="-24634517#17_1" arrivalPos="6.43" arrivalSpeed="9.04" duration="108.00" routeLength="1229.64" waitingTime="11.00" waitingCount="1" stopTime="0.00" timeLoss="29.65" rerouteNo="1" devices="tripinfo_carIn81860:1 routing_carIn81860:1 emissions_carIn81860:1" vType="default_016" speedFactor="1.16" vaporized="">
        <emissions CO_abs="4926.428797" CO2_abs="311172.741336" HC_abs="29.613369" PMx_abs="5.618698" NOx_abs="126.317878" fuel_abs="133.759928" electricity_abs="0"/>
    </tripinfo>
    <tripinfo id="carIn50326:1" depart="57651.00" departLane="128361102#0_1" departPos="5.10" departSpeed="0.00" departDelay="0.30" arrival="57822.00" arrivalLane="18809673#0_1" arrivalPos="473.56" arrivalSpeed="11.74" duration="171.00" routeLength="1591.07" waitingTime="0.00" waitingCount="0" stopTime="0.00" timeLoss="18.68" rerouteNo="1" devices="tripinfo_carIn50326:1 routing_carIn50326:1 emissions_carIn50326:1" vType="default_016" speedFactor="0.85" vaporized="">
        <emissions CO_abs="5288.657228" CO2_abs="333350.904283" HC_abs="31.741665" PMx_abs="5.013782" NOx_abs="131.001175" fuel_abs="143.294733" electricity_abs="0"/>
    </tripinfo>
    <tripinfo id="h2831c1:1" depart="57600.00" departLane="201089423#0_1" departPos="5.10" departSpeed="0.00" departDelay="0.00" arrival="57823.00" arrivalLane="-315358244_1" arrivalPos="33.95" arrivalSpeed="14.88" duration="223.00" routeLength="2672.18" waitingTime="18.00" waitingCount="3" stopTime="0.00" timeLoss="51.17" rerouteNo="1" devices="tripinfo_h2831c1:1 routing_h2831c1:1 emissions_h2831c1:1" vType="default_016" speedFactor="1.13" vaporized="">
        <emissions CO_abs="7652.249272" CO2_abs="597418.609501" HC_abs="48.429738" PMx_abs="9.942709" NOx_abs="235.441748" fuel_abs="256.804746" electricity_abs="0"/>
    </tripinfo>
    <tripinfo id="h645c1:1" depart="57622.00" departLane="266565295#5_1" departPos="5.10" departSpeed="0.00" departDelay="0.40" arrival="57825.00" arrivalLane="-315358244_2" arrivalPos="33.95" arrivalSpeed="10.55" duration="203.00" routeLength="1910.83" waitingTime="12.00" waitingCount="1" stopTime="0.00" timeLoss="35.12" rerouteNo="1" devices="tripinfo_h645c1:1 routing_h645c1:1 emissions_h645c1:1" vType="default_016" speedFactor="0.83" vaporized="">
        <emissions CO_abs="6291.188363" CO2_abs="393823.719710" HC_abs="37.722247" PMx_abs="6.040241" NOx_abs="155.205686" fuel_abs="169.289562" electricity_abs="0"/>
    </tripinfo>
    <tripinfo id="carIn86816:1" depart="57617.00" departLane="128361102#0_1" departPos="5.10" departSpeed="0.00" departDelay="0.80" arrival="57827.00" arrivalLane="201956811#0_1" arrivalPos="40.40" arrivalSpeed="12.77" duration="210.00" routeLength="2067.33" waitingTime="19.00" waitingCount="2" stopTime="0.00" timeLoss="49.64" rerouteNo="1" devices="tripinfo_carIn86816:1 routing_carIn86816:1 emissions_carIn86816:1" vType="default_016" speedFactor="0.95" vaporized="">
        <emissions CO_abs="7908.183289" CO2_abs="480193.102439" HC_abs="47.210836" PMx_abs="8.051011" NOx_abs="192.897780" fuel_abs="206.415650" electricity_abs="0"/>
    </tripinfo>
    <tripinfo id="carIn126288:1" depart="57674.00" departLane="272042143_1" departPos="5.10" departSpeed="0.00" departDelay="0.00" arrival="57827.00" arrivalLane="-315358254#1_1" arrivalPos="137.16" arrivalSpeed="13.25" duration="153.00" routeLength="1596.88" waitingTime="17.00" waitingCount="2" stopTime="0.00" timeLoss="36.34" rerouteNo="1" devices="tripinfo_carIn126288:1 routing_carIn126288:1 emissions_carIn126288:1" vType="default_016" speedFactor="1.00" vaporized="">
        <emissions CO_abs="5245.509444" CO2_abs="358451.034418" HC_abs="32.149384" PMx_abs="5.695696" NOx_abs="140.760084" fuel_abs="154.083672" electricity_abs="0"/>
    </tripinfo>
    <tripinfo id="carIn102915:1" depart="57643.00" departLane="128361102#0_1" departPos="5.10" departSpeed="0.00" departDelay="0.40" arrival="57828.00" arrivalLane="201956811#0_1" arrivalPos="40.40" arrivalSpeed="14.47" duration="185.00" routeLength="2067.33" waitingTime="12.00" waitingCount="2" stopTime="0.00" timeLoss="46.18" rerouteNo="1" devices="tripinfo_carIn102915:1 routing_carIn102915:1 emissions_carIn102915:1" vType="default_016" speedFactor="1.09" vaporized="">
        <emissions CO_abs="7030.470833" CO2_abs="494813.355153" HC_abs="43.563752" PMx_abs="8.670300" NOx_abs="200.032882" fuel_abs="212.698876" electricity_abs="0"/>
    </tripinfo>
    <tripinfo id="h17549c1:1" depart="57680.00" departLane="-447569998#1_1" departPos="5.10" departSpeed="0.00" departDelay="0.00" arrival="57829.00" arrivalLane="-315358254#1_1" arrivalPos="137.16" arrivalSpeed="15.16" duration="149.00" routeLength="1743.98" waitingTime="4.00" waitingCount="1" stopTime="0.00" timeLoss="26.03" rerouteNo="1" devices="tripinfo_h17549c1:1 routing_h17549c1:1 emissions_h17549c1:1" vType="default_016" speedFactor="1.12" vaporized="">
        <emissions CO_abs="5381.517682" CO2_abs="411810.856740" HC_abs="33.986447" PMx_abs="6.799039" NOx_abs="163.025477" fuel_abs="177.019989" electricity_abs="0"/>
    </tripinfo>
    <tripinfo id="carIn107282:1" depart="57749.00" departLane="-447569998#1_1" departPos="5.10" departSpeed="0.00" departDelay="0.00" arrival="57829.00" arrivalLane="315358242#0_1" arrivalPos="165.37" arrivalSpeed="10.75" duration="80.00" routeLength="448.50" waitingTime="22.00" waitingCount="1" stopTime="0.00" timeLoss="30.67" rerouteNo="1" devices="tripinfo_carIn107282:1 routing_carIn107282:1 emissions_carIn107282:1" vType="default_016" speedFactor="0.85" vaporized="">
        <emissions CO_abs="5344.474525" CO2_abs="165687.754399" HC_abs="28.153572" PMx_abs="3.006974" NOx_abs="68.833025" fuel_abs="71.224289" electricity_abs="0"/>
    </tripinfo>
    <tripinfo id="randUni33724:1" depart="57646.00" departLane="128361102#0_1" departPos="5.10" departSpeed="0.00" departDelay="1.20" arrival="57830.00" arrivalLane="201956811#0_1" arrivalPos="40.40" arrivalSpeed="14.91" duration="184.00" routeLength="2067.33" waitingTime="9.00" waitingCount="2" stopTime="0.00" timeLoss="52.51" rerouteNo="1" devices="tripinfo_randUni33724:1 routing_randUni33724:1 emissions_randUni33724:1" vType="random_016" speedFactor="1.16" vaporized="">
        <emissions CO_abs="8214.066361" CO2_abs="543043.243223" HC_abs="50.125856" PMx_abs="10.127472" NOx_abs="224.096059" fuel_abs="233.430240" electricity_abs="0"/>
    </tripinfo>
    <tripinfo id="h5216c1:1" depart="57664.00" departLane="224892339#0_1" departPos="5.10" departSpeed="0.00" departDelay="0.00" arrival="57832.00" arrivalLane="386687235_1" arrivalPos="80.84" arrivalSpeed="14.62" duration="168.00" routeLength="1823.78" waitingTime="21.00" waitingCount="2" stopTime="0.00" timeLoss="53.06" rerouteNo="1" devices="tripinfo_h5216c1:1 routing_h5216c1:1 emissions_h5216c1:1" vType="default_016" speedFactor="1.12" vaporized="">
        <emissions CO_abs="9735.531112" CO2_abs="511952.269989" HC_abs="56.385277" PMx_abs="9.584230" NOx_abs="210.806402" fuel_abs="220.067348" electricity_abs="0"/>
    </tripinfo>
    <tripinfo id="50R_frequency3.17" depart="57674.00" departLane="-18809673#6_1" departPos="12.10" departSpeed="0.00" departDelay="0.70" arrival="57834.00" arrivalLane="201956811#0_1" arrivalPos="40.40" arrivalSpeed="13.57" duration="160.00" routeLength="1954.47" waitingTime="0.00" waitingCount="0" stopTime="0.00" timeLoss="15.30" rerouteNo="1" devices="tripinfo_50R_frequency3.17 routing_50R_frequency3.17 emissions_50R_frequency3.17" vType="bus" speedFactor="1.00" vaporized="">
        <emissions CO_abs="3039.762927" CO2_abs="1933181.631575" HC_abs="654.871018" PMx_abs="327.519526" NOx_abs="14903.176819" fuel_abs="824.506626" electricity_abs="0"/>
    </tripinfo>
    <tripinfo id="h11737c1:1" depart="57665.00" departLane="272042143_1" departPos="5.10" departSpeed="0.00" departDelay="1.50" arrival="57835.00" arrivalLane="-315358254#1_1" arrivalPos="137.16" arrivalSpeed="10.96" duration="170.00" routeLength="1596.88" waitingTime="3.00" waitingCount="1" stopTime="0.00" timeLoss="25.95" rerouteNo="1" devices="tripinfo_h11737c1:1 routing_h11737c1:1 emissions_h11737c1:1" vType="default_016" speedFactor="0.81" vaporized="">
        <emissions CO_abs="5301.539962" CO2_abs="339709.153066" HC_abs="31.969870" PMx_abs="5.218424" NOx_abs="134.222827" fuel_abs="146.027656" electricity_abs="0"/>
    </tripinfo>
    <tripinfo id="carIn12775:1" depart="57676.00" departLane="10425609#0_1" departPos="5.10" departSpeed="0.00" departDelay="0.60" arrival="57838.00" arrivalLane="18809673#0_1" arrivalPos="473.56" arrivalSpeed="16.91" duration="162.00" routeLength="1959.45" waitingTime="17.00" waitingCount="1" stopTime="0.00" timeLoss="44.99" rerouteNo="1" devices="tripinfo_carIn12775:1 routing_carIn12775:1 emissions_carIn12775:1" vType="default_016" speedFactor="1.24" vaporized="">
        <emissions CO_abs="7156.400037" CO2_abs="442631.468301" HC_abs="42.723508" PMx_abs="7.905451" NOx_abs="177.507303" fuel_abs="190.268858" electricity_abs="0"/>
    </tripinfo>
    <tripinfo id="randUni15030:1" depart="57735.00" departLane="386687232#0_1" departPos="5.10" departSpeed="0.00" departDelay="0.10" arrival="57842.00" arrivalLane="26677539_1" arrivalPos="151.98" arrivalSpeed="7.04" duration="107.00" routeLength="919.89" waitingTime="4.00" waitingCount="1" stopTime="0.00" timeLoss="20.09" rerouteNo="1" devices="tripinfo_randUni15030:1 routing_randUni15030:1 emissions_randUni15030:1" vType="random_016" speedFactor="0.96" vaporized="">
        <emissions CO_abs="3724.898831" CO2_abs="207161.813216" HC_abs="21.769812" PMx_abs="3.478041" NOx_abs="83.939039" fuel_abs="89.050697" electricity_abs="0"/>
    </tripinfo>
    <tripinfo id="carIn12152:1" depart="57647.00" departLane="24599188#0.94_1" departPos="5.10" departSpeed="0.00" departDelay="0.50" arrival="57848.00" arrivalLane="-315358254#1_1" arrivalPos="137.16" arrivalSpeed="12.30" duration="201.00" routeLength="2034.31" waitingTime="4.00" waitingCount="1" stopTime="0.00" timeLoss="24.29" rerouteNo="1" devices="tripinfo_carIn12152:1 routing_carIn12152:1 emissions_carIn12152:1" vType="default_016" speedFactor="0.89" vaporized="">
        <emissions CO_abs="5200.644544" CO2_abs="381122.491222" HC_abs="32.438929" PMx_abs="5.520689" NOx_abs="147.396118" fuel_abs="163.829606" electricity_abs="0"/>
    </tripinfo>
    <tripinfo id="h11868c1:5" depart="57700.00" departLane="315358254#0_1" departPos="5.10" departSpeed="0.00" departDelay="0.10" arrival="57851.00" arrivalLane="386687235_1" arrivalPos="80.84" arrivalSpeed="13.75" duration="151.00" routeLength="1611.92" waitingTime="12.00" waitingCount="1" stopTime="0.00" timeLoss="38.59" rerouteNo="1" devices="tripinfo_h11868c1:5 routing_h11868c1:5 emissions_h11868c1:5" vType="default_016" speedFactor="1.04" vaporized="">
        <emissions CO_abs="6923.820161" CO2_abs="392038.407732" HC_abs="40.637382" PMx_abs="6.856624" NOx_abs="158.720246" fuel_abs="168.521514" electricity_abs="0"/>
    </tripinfo>
    <tripinfo id="carIn100288:1" depart="57664.00" departLane="128361102#0_1" departPos="5.10" departSpeed="0.00" departDelay="0.60" arrival="57852.00" arrivalLane="201956811#0_1" arrivalPos="40.40" arrivalSpeed="14.31" duration="188.00" routeLength="2067.33" waitingTime="9.00" waitingCount="3" stopTime="0.00" timeLoss="42.03" rerouteNo="1" devices="tripinfo_carIn100288:1 routing_carIn100288:1 emissions_carIn100288:1" vType="default_016" speedFactor="1.04" vaporized="">