<?xml version="1.0" encoding="UTF-8"?>

<!-- generated on Thu Nov  4 13:42:58 2021 by Eclipse SUMO sumo Version 1.9.0
<configuration xmlns:xsi="http://www.w3.org/2001/XMLSchema-instance" xsi:noNamespaceSchemaLocation="http://sumo.dlr.de/xsd/sumoConfiguration.xsd">

    <input>
        <net-file value="/mainfs/home/bk2g18/RESCO/environments/ingolstadt21/ingolstadt21.net.xml"/>
        <route-files value="/mainfs/home/bk2g18/RESCO/environments/ingolstadt21/ingolstadt21.rou.xml"/>
    </input>

    <output>
        <tripinfo-output value="/mainfs/home/bk2g18/RESCO/logs/MPLight-tr0-ingolstadt21-21-mplight-pressure/tripinfo_54.xml"/>
        <tripinfo-output.write-unfinished value="true"/>
    </output>

    <time>
        <begin value="57600"/>
        <end value="61200"/>
    </time>

    <processing>
        <time-to-teleport value="-1"/>
    </processing>

    <report>
        <xml-validation value="never"/>
        <xml-validation.routes value="never"/>
        <no-warnings value="true"/>
        <no-step-log value="true"/>
    </report>

    <emissions>
        <device.emissions.probability value="1"/>
    </emissions>

    <traci_server>
        <remote-port value="55136"/>
    </traci_server>

    <random_number>
        <random value="true"/>
    </random_number>

</configuration>
-->

<tripinfos xmlns:xsi="http://www.w3.org/2001/XMLSchema-instance" xsi:noNamespaceSchemaLocation="http://sumo.dlr.de/xsd/tripinfo_file.xsd">
    <tripinfo id="carIn60260:1" depart="57606.00" departLane="315358254#0_1" departPos="5.10" departSpeed="0.00" departDelay="0.90" arrival="57665.00" arrivalLane="399835085#1_1" arrivalPos="212.23" arrivalSpeed="6.96" duration="59.00" routeLength="430.98" waitingTime="0.00" waitingCount="0" stopTime="0.00" timeLoss="7.92" rerouteNo="1" devices="tripinfo_carIn60260:1 routing_carIn60260:1 emissions_carIn60260:1" vType="default_016" speedFactor="0.91" vaporized="">
        <emissions CO_abs="2357.710829" CO2_abs="108211.723820" HC_abs="13.218774" PMx_abs="1.747616" NOx_abs="43.771950" fuel_abs="46.516374" electricity_abs="0"/>
    </tripinfo>
    <tripinfo id="h15454c2:3" depart="57612.00" departLane="24608844_1" departPos="5.10" departSpeed="0.00" departDelay="0.50" arrival="57667.00" arrivalLane="32978638#0_1" arrivalPos="49.29" arrivalSpeed="12.55" duration="55.00" routeLength="354.79" waitingTime="10.00" waitingCount="1" stopTime="0.00" timeLoss="18.50" rerouteNo="1" devices="tripinfo_h15454c2:3 routing_h15454c2:3 emissions_h15454c2:3" vType="default_016" speedFactor="0.93" vaporized="">
        <emissions CO_abs="2714.525113" CO2_abs="115799.775692" HC_abs="15.067599" PMx_abs="2.154852" NOx_abs="48.621724" fuel_abs="49.777943" electricity_abs="0"/>
    </tripinfo>
    <tripinfo id="carIn53971:1" depart="57640.00" departLane="272042143_1" departPos="5.10" departSpeed="0.00" departDelay="0.80" arrival="57693.00" arrivalLane="24634414#1_1" arrivalPos="162.19" arrivalSpeed="8.35" duration="53.00" routeLength="493.04" waitingTime="0.00" waitingCount="0" stopTime="0.00" timeLoss="9.50" rerouteNo="1" devices="tripinfo_carIn53971:1 routing_carIn53971:1 emissions_carIn53971:1" vType="default_016" speedFactor="1.05" vaporized="">
        <emissions CO_abs="2615.984289" CO2_abs="147963.741655" HC_abs="15.374736" PMx_abs="2.605784" NOx_abs="60.752648" fuel_abs="63.603555" electricity_abs="0"/>
    </tripinfo>
    <tripinfo id="h12244c1:3" depart="57612.00" departLane="315358244_1" departPos="5.10" departSpeed="0.00" departDelay="0.40" arrival="57717.00" arrivalLane="386687235_1" arrivalPos="80.84" arrivalSpeed="14.20" duration="105.00" routeLength="1186.14" waitingTime="4.00" waitingCount="1" stopTime="0.00" timeLoss="25.98" rerouteNo="1" devices="tripinfo_h12244c1:3 routing_h12244c1:3 emissions_h12244c1:3" vType="default_016" speedFactor="1.10" vaporized="">
        <emissions CO_abs="4375.762092" CO2_abs="284749.765265" HC_abs="26.617180" PMx_abs="5.048088" NOx_abs="115.496461" fuel_abs="122.401818" electricity_abs="0"/>
    </tripinfo>
    <tripinfo id="h7800c1:5" depart="57696.00" departLane="-447569998#1_1" departPos="5.10" departSpeed="0.00" departDelay="0.00" arrival="57723.00" arrivalLane="-447569998#1_1" arrivalPos="180.76" arrivalSpeed="6.58" duration="27.00" routeLength="175.66" waitingTime="0.00" waitingCount="0" stopTime="0.00" timeLoss="4.09" rerouteNo="1" devices="tripinfo_h7800c1:5 routing_h7800c1:5 emissions_h7800c1:5" vType="default_016" speedFactor="0.94" vaporized="">
        <emissions CO_abs="1343.277403" CO2_abs="53914.029267" HC_abs="7.345223" PMx_abs="0.860868" NOx_abs="21.837528" fuel_abs="23.175875" electricity_abs="0"/>
    </tripinfo>
    <tripinfo id="carIn80064:1" depart="57603.00" departLane="128361109#1_1" departPos="5.10" departSpeed="0.00" departDelay="0.40" arrival="57739.00" arrivalLane="-315358254#1_1" arrivalPos="137.16" arrivalSpeed="13.97" duration="136.00" routeLength="1587.97" waitingTime="20.00" waitingCount="2" stopTime="0.00" timeLoss="54.04" rerouteNo="1" devices="tripinfo_carIn80064:1 routing_carIn80064:1 emissions_carIn80064:1" vType="default_016" speedFactor="1.10" vaporized="">
        <emissions CO_abs="10061.719729" CO2_abs="539272.594674" HC_abs="58.718877" PMx_abs="10.980356" NOx_abs="225.649202" fuel_abs="231.809942" electricity_abs="0"/>
    </tripinfo>
    <tripinfo id="S5R_frequency1.2" depart="57612.00" departLane="315358250#0_1" departPos="12.10" departSpeed="0.00" departDelay="0.40" arrival="57741.00" arrivalLane="386687235_1" arrivalPos="80.84" arrivalSpeed="13.35" duration="129.00" routeLength="1115.62" waitingTime="22.00" waitingCount="3" stopTime="0.00" timeLoss="47.65" rerouteNo="1" devices="tripinfo_S5R_frequency1.2 routing_S5R_frequency1.2 emissions_S5R_frequency1.2" vType="bus" speedFactor="1.00" vaporized="">
        <emissions CO_abs="2509.319914" CO2_abs="1396939.346971" HC_abs="541.350592" PMx_abs="265.153245" NOx_abs="11312.270666" fuel_abs="595.722272" electricity_abs="0"/>
    </tripinfo>
    <tripinfo id="h7181c1:1" depart="57660.00" departLane="315358254#0_1" departPos="5.10" departSpeed="0.00" departDelay="0.10" arrival="57742.00" arrivalLane="306240162#0_0" arrivalPos="220.43" arrivalSpeed="13.90" duration="82.00" routeLength="932.35" waitingTime="6.00" waitingCount="2" stopTime="0.00" timeLoss="22.84" rerouteNo="1" devices="tripinfo_h7181c1:1 routing_h7181c1:1 emissions_h7181c1:1" vType="default_016" speedFactor="0.87" vaporized="">
        <emissions CO_abs="3870.881650" CO2_abs="253825.316928" HC_abs="23.592203" PMx_abs="4.651154" NOx_abs="103.331772" fuel_abs="109.108511" electricity_abs="0"/>
    </tripinfo>
    <tripinfo id="h3688c1:1" depart="57625.00" departLane="201201950#1_1" departPos="5.10" departSpeed="0.00" departDelay="0.00" arrival="57745.00" arrivalLane="32978638#0_1" arrivalPos="49.29" arrivalSpeed="11.48" duration="120.00" routeLength="1089.75" waitingTime="9.00" waitingCount="1" stopTime="0.00" timeLoss="24.99" rerouteNo="1" devices="tripinfo_h3688c1:1 routing_h3688c1:1 emissions_h3688c1:1" vType="default_016" speedFactor="0.84" vaporized="">
        <emissions CO_abs="4279.572780" CO2_abs="249563.724166" HC_abs="25.261714" PMx_abs="4.004203" NOx_abs="99.586063" fuel_abs="107.277749" electricity_abs="0"/>
    </tripinfo>
    <tripinfo id="h3568c1:3" depart="57656.00" departLane="266565295#5_1" departPos="5.10" departSpeed="0.00" departDelay="0.80" arrival="57748.00" arrivalLane="-24634415_1" arrivalPos="62.03" arrivalSpeed="11.18" duration="92.00" routeLength="807.40" waitingTime="0.00" waitingCount="0" stopTime="0.00" timeLoss="13.53" rerouteNo="1" devices="tripinfo_h3568c1:3 routing_h3568c1:3 emissions_h3568c1:3" vType="default_016" speedFactor="0.82" vaporized="">
        <emissions CO_abs="3799.929331" CO2_abs="210435.577213" HC_abs="22.181060" PMx_abs="3.487442" NOx_abs="85.138519" fuel_abs="90.458026" electricity_abs="0"/>
    </tripinfo>
    <tripinfo id="h4538c1:1" depart="57701.00" departLane="-10427692#1_1" departPos="5.10" departSpeed="0.00" departDelay="0.00" arrival="57748.00" arrivalLane="-128361102#1_1" arrivalPos="274.68" arrivalSpeed="12.29" duration="47.00" routeLength="440.74" waitingTime="3.00" waitingCount="1" stopTime="0.00" timeLoss="13.88" rerouteNo="1" devices="tripinfo_h4538c1:1 routing_h4538c1:1 emissions_h4538c1:1" vType="default_016" speedFactor="0.96" vaporized="">
        <emissions CO_abs="1892.036203" CO2_abs="110720.737720" HC_abs="11.209554" PMx_abs="1.937202" NOx_abs="45.155650" fuel_abs="47.594299" electricity_abs="0"/>
    </tripinfo>
    <tripinfo id="carIn22761:1" depart="57616.00" departLane="-306240162#1_0" departPos="5.10" departSpeed="0.00" departDelay="2.10" arrival="57749.00" arrivalLane="399835085#1_1" arrivalPos="212.23" arrivalSpeed="9.37" duration="133.00" routeLength="1093.26" waitingTime="33.00" waitingCount="2" stopTime="0.00" timeLoss="64.11" rerouteNo="1" devices="tripinfo_carIn22761:1 routing_carIn22761:1 emissions_carIn22761:1" vType="default_016" speedFactor="1.14" vaporized="">
        <emissions CO_abs="9932.947702" CO2_abs="419049.543927" HC_abs="55.157430" PMx_abs="8.511628" NOx_abs="177.766639" fuel_abs="180.132833" electricity_abs="0"/>
    </tripinfo>
    <tripinfo id="carIn30817:1" depart="57681.00" departLane="315358244_1" departPos="5.10" departSpeed="0.00" departDelay="0.20" arrival="57749.00" arrivalLane="447569997#1_1" arrivalPos="180.93" arrivalSpeed="7.66" duration="68.00" routeLength="718.04" waitingTime="0.00" waitingCount="0" stopTime="0.00" timeLoss="7.66" rerouteNo="1" devices="tripinfo_carIn30817:1 routing_carIn30817:1 emissions_carIn30817:1" vType="default_016" speedFactor="1.02" vaporized="">
        <emissions CO_abs="2294.493776" CO2_abs="152747.222858" HC_abs="13.983628" PMx_abs="2.514013" NOx_abs="61.105613" fuel_abs="65.659744" electricity_abs="0"/>
    </tripinfo>
    <tripinfo id="h317c2:1" depart="57707.00" departLane="-32978638#0_1" departPos="5.10" departSpeed="0.00" departDelay="0.10" arrival="57756.00" arrivalLane="-266565295#5_1" arrivalPos="172.76" arrivalSpeed="12.14" duration="49.00" routeLength="370.53" waitingTime="11.00" waitingCount="1" stopTime="0.00" timeLoss="19.38" rerouteNo="1" devices="tripinfo_h317c2:1 routing_h317c2:1 emissions_h317c2:1" vType="default_016" speedFactor="0.93" vaporized="">
        <emissions CO_abs="2576.042533" CO2_abs="122038.084452" HC_abs="14.595447" PMx_abs="2.256338" NOx_abs="50.703001" fuel_abs="52.459381" electricity_abs="0"/>
    </tripinfo>
    <tripinfo id="h5979c1:5" depart="57669.00" departLane="399835085#1_1" departPos="5.10" departSpeed="0.00" departDelay="0.00" arrival="57758.00" arrivalLane="-315358254#1_1" arrivalPos="137.16" arrivalSpeed="13.35" duration="89.00" routeLength="659.33" waitingTime="3.00" waitingCount="1" stopTime="0.00" timeLoss="16.37" rerouteNo="1" devices="tripinfo_h5979c1:5 routing_h5979c1:5 emissions_h5979c1:5" vType="default_016" speedFactor="1.01" vaporized="">
        <emissions CO_abs="3613.509913" CO2_abs="175305.342021" HC_abs="20.489142" PMx_abs="2.854919" NOx_abs="70.950633" fuel_abs="75.357335" electricity_abs="0"/>
    </tripinfo>
    <tripinfo id="carIn27009:1" depart="57673.00" departLane="-447569998#1_1" departPos="5.10" departSpeed="0.00" departDelay="0.50" arrival="57773.00" arrivalLane="-26677539_1" arrivalPos="152.75" arrivalSpeed="7.35" duration="100.00" routeLength="699.63" waitingTime="2.00" waitingCount="1" stopTime="0.00" timeLoss="17.83" rerouteNo="1" devices="tripinfo_carIn27009:1 routing_carIn27009:1 emissions_carIn27009:1" vType="default_015" speedFactor="1.02" vaporized="">
        <emissions CO_abs="4216.248534" CO2_abs="194364.687055" HC_abs="23.665499" PMx_abs="3.187255" NOx_abs="79.118534" fuel_abs="83.550362" electricity_abs="0"/>
    </tripinfo>
    <tripinfo id="h3326c1:2" depart="57656.00" departLane="22716069#0_1" departPos="5.10" departSpeed="0.00" departDelay="0.00" arrival="57775.00" arrivalLane="24634517#13_1" arrivalPos="111.62" arrivalSpeed="11.92" duration="119.00" routeLength="1312.81" waitingTime="0.00" waitingCount="0" stopTime="0.00" timeLoss="15.57" rerouteNo="1" devices="tripinfo_h3326c1:2 routing_h3326c1:2 emissions_h3326c1:2" vType="default_016" speedFactor="0.94" vaporized="">
        <emissions CO_abs="3946.290226" CO2_abs="299032.303196" HC_abs="24.934026" PMx_abs="4.788987" NOx_abs="118.551560" fuel_abs="128.541447" electricity_abs="0"/>
    </tripinfo>
    <tripinfo id="carIn86816:1" depart="57617.00" departLane="128361102#0_1" departPos="5.10" departSpeed="0.00" departDelay="0.80" arrival="57776.00" arrivalLane="201956811#0_1" arrivalPos="40.40" arrivalSpeed="15.53" duration="159.00" routeLength="2067.33" waitingTime="3.00" waitingCount="1" stopTime="0.00" timeLoss="26.65" rerouteNo="1" devices="tripinfo_carIn86816:1 routing_carIn86816:1 emissions_carIn86816:1" vType="default_016" speedFactor="1.14" vaporized="">
        <emissions CO_abs="5838.131651" CO2_abs="463966.567549" HC_abs="37.252958" PMx_abs="8.157940" NOx_abs="186.466087" fuel_abs="199.438581" electricity_abs="0"/>
    </tripinfo>
    <tripinfo id="h330c1:1" depart="57736.00" departLane="-32978638#0_1" departPos="5.10" departSpeed="0.00" departDelay="0.20" arrival="57784.00" arrivalLane="-266565295#5_1" arrivalPos="172.76" arrivalSpeed="14.48" duration="48.00" routeLength="370.53" waitingTime="11.00" waitingCount="1" stopTime="0.00" timeLoss="23.03" rerouteNo="1" devices="tripinfo_h330c1:1 routing_h330c1:1 emissions_h330c1:1" vType="default_016" speedFactor="1.11" vaporized="">
        <emissions CO_abs="3571.512176" CO2_abs="154304.401610" HC_abs="19.882806" PMx_abs="3.068122" NOx_abs="65.268567" fuel_abs="66.329361" electricity_abs="0"/>
    </tripinfo>
    <tripinfo id="carIn12365:1" depart="57713.00" departLane="315358244_1" departPos="5.10" departSpeed="0.00" departDelay="0.50" arrival="57786.00" arrivalLane="447569997#1_1" arrivalPos="180.93" arrivalSpeed="6.88" duration="73.00" routeLength="718.04" waitingTime="0.00" waitingCount="0" stopTime="0.00" timeLoss="8.61" rerouteNo="1" devices="tripinfo_carIn12365:1 routing_carIn12365:1 emissions_carIn12365:1" vType="default_016" speedFactor="0.96" vaporized="">
        <emissions CO_abs="2561.411280" CO2_abs="168232.839257" HC_abs="15.539827" PMx_abs="2.616585" NOx_abs="66.347781" fuel_abs="72.316634" electricity_abs="0"/>
    </tripinfo>
    <tripinfo id="h9563c2:5" depart="57631.00" departLane="315358244_1" departPos="5.10" departSpeed="0.00" departDelay="0.70" arrival="57787.00" arrivalLane="386687235_1" arrivalPos="80.84" arrivalSpeed="13.40" duration="156.00" routeLength="1186.14" waitingTime="52.00" waitingCount="2" stopTime="0.00" timeLoss="70.53" rerouteNo="1" devices="tripinfo_h9563c2:5 routing_h9563c2:5 emissions_h9563c2:5" vType="default_016" speedFactor="1.01" vaporized="">
        <emissions CO_abs="11337.957108" CO2_abs="393354.718141" HC_abs="60.791913" PMx_abs="7.640729" NOx_abs="164.673131" fuel_abs="169.089889" electricity_abs="0"/>
    </tripinfo>
    <tripinfo id="carIn121703:1" depart="57647.00" departLane="386687232#0_1" departPos="5.10" departSpeed="0.00" departDelay="0.30" arrival="57793.00" arrivalLane="-315358244_1" arrivalPos="33.95" arrivalSpeed="14.08" duration="146.00" routeLength="1157.39" waitingTime="50.00" waitingCount="2" stopTime="0.00" timeLoss="69.21" rerouteNo="1" devices="tripinfo_carIn121703:1 routing_carIn121703:1 emissions_carIn121703:1" vType="default_016" speedFactor="1.10" vaporized="">
        <emissions CO_abs="9957.572976" CO2_abs="367686.805051" HC_abs="53.863608" PMx_abs="7.127184" NOx_abs="153.185266" fuel_abs="158.055650" electricity_abs="0"/>
    </tripinfo>
    <tripinfo id="carIn107084:1" depart="57601.00" departLane="124812856#0_1" departPos="5.10" departSpeed="0.00" departDelay="0.70" arrival="57795.00" arrivalLane="-128361102#1_1" arrivalPos="274.68" arrivalSpeed="13.70" duration="194.00" routeLength="2250.49" waitingTime="7.00" waitingCount="2" stopTime="0.00" timeLoss="38.18" rerouteNo="1" devices="tripinfo_carIn107084:1 routing_carIn107084:1 emissions_carIn107084:1" vType="default_016" speedFactor="1.06" vaporized="">
        <emissions CO_abs="6251.672540" CO2_abs="478905.058876" HC_abs="39.592986" PMx_abs="8.092103" NOx_abs="191.228528" fuel_abs="205.860614" electricity_abs="0"/>
    </tripinfo>
    <tripinfo id="h645c1:1" depart="57622.00" departLane="266565295#5_1" departPos="5.10" departSpeed="0.00" departDelay="0.40" arrival="57796.00" arrivalLane="-315358244_1" arrivalPos="33.95" arrivalSpeed="14.04" duration="174.00" routeLength="1910.83" waitingTime="11.00" waitingCount="3" stopTime="0.00" timeLoss="36.96" rerouteNo="1" devices="tripinfo_h645c1:1 routing_h645c1:1 emissions_h645c1:1" vType="default_016" speedFactor="1.01" vaporized="">
        <emissions CO_abs="5471.540527" CO2_abs="402628.622218" HC_abs="34.304133" PMx_abs="6.658382" NOx_abs="160.085431" fuel_abs="173.073060" electricity_abs="0"/>
    </tripinfo>
    <tripinfo id="h3154c1:1" depart="57658.00" departLane="24634507_1" departPos="5.10" departSpeed="0.00" departDelay="0.00" arrival="57796.00" arrivalLane="-266565295#5_1" arrivalPos="172.76" arrivalSpeed="14.11" duration="138.00" routeLength="1206.22" waitingTime="32.00" waitingCount="2" stopTime="0.00" timeLoss="52.59" rerouteNo="1" devices="tripinfo_h3154c1:1 routing_h3154c1:1 emissions_h3154c1:1" vType="default_016" speedFactor="1.04" vaporized="">
        <emissions CO_abs="7934.162528" CO2_abs="367738.198890" HC_abs="44.734795" PMx_abs="6.837416" NOx_abs="151.780754" fuel_abs="158.076423" electricity_abs="0"/>
    </tripinfo>
    <tripinfo id="h20540c1:1" depart="57634.00" departLane="10425609#0_1" departPos="5.10" departSpeed="0.00" departDelay="0.50" arrival="57797.00" arrivalLane="-128361102#1_1" arrivalPos="274.68" arrivalSpeed="16.14" duration="163.00" routeLength="2095.01" waitingTime="2.00" waitingCount="1" stopTime="0.00" timeLoss="39.76" rerouteNo="1" devices="tripinfo_h20540c1:1 routing_h20540c1:1 emissions_h20540c1:1" vType="default_016" speedFactor="1.25" vaporized="">
        <emissions CO_abs="7296.164302" CO2_abs="555224.162359" HC_abs="46.137378" PMx_abs="9.963970" NOx_abs="224.397361" fuel_abs="238.666144" electricity_abs="0"/>
    </tripinfo>
    <tripinfo id="carIn118591:1" depart="57689.00" departLane="315358244_1" departPos="5.10" departSpeed="0.00" departDelay="0.20" arrival="57799.00" arrivalLane="386687235_1" arrivalPos="80.84" arrivalSpeed="13.04" duration="110.00" routeLength="1186.14" waitingTime="7.00" waitingCount="1" stopTime="0.00" timeLoss="22.59" rerouteNo="1" devices="tripinfo_carIn118591:1 routing_carIn118591:1 emissions_carIn118591:1" vType="default_016" speedFactor="0.99" vaporized="">
        <emissions CO_abs="3956.396878" CO2_abs="268885.047974" HC_abs="24.295771" PMx_abs="4.485295" NOx_abs="107.359892" fuel_abs="115.582521" electricity_abs="0"/>
    </tripinfo>
    <tripinfo id="carIn107282:1" depart="57749.00" departLane="-447569998#1_1" departPos="5.10" departSpeed="0.00" departDelay="0.00" arrival="57810.00" arrivalLane="315358242#0_1" arrivalPos="165.37" arrivalSpeed="11.29" duration="61.00" routeLength="448.50" waitingTime="2.00" waitingCount="1" stopTime="0.00" timeLoss="11.39" rerouteNo="1" devices="tripinfo_carIn107282:1 routing_carIn107282:1 emissions_carIn107282:1" vType="default_016" speedFactor="0.84" vaporized="">
        <emissions CO_abs="2502.126732" CO2_abs="119695.316862" HC_abs="14.149657" PMx_abs="1.954681" NOx_abs="48.398685" fuel_abs="51.452656" electricity_abs="0"/>
    </tripinfo>
    <tripinfo id="carIn129809:1" depart="57729.00" departLane="-447569998#1_1" departPos="5.10" departSpeed="0.00" departDelay="1.00" arrival="57813.00" arrivalLane="-315358244_1" arrivalPos="33.95" arrivalSpeed="12.81" duration="84.00" routeLength="706.49" waitingTime="8.00" waitingCount="1" stopTime="0.00" timeLoss="24.21" rerouteNo="1" devices="tripinfo_carIn129809:1 routing_carIn129809:1 emissions_carIn129809:1" vType="default_015" speedFactor="1.01" vaporized="">
        <emissions CO_abs="3701.313727" CO2_abs="192302.206724" HC_abs="21.325248" PMx_abs="3.360201" NOx_abs="78.567784" fuel_abs="82.663164" electricity_abs="0"/>
    </tripinfo>
    <tripinfo id="carIn77943:1" depart="57608.00" departLane="124812856#0_1" departPos="5.10" departSpeed="0.00" departDelay="2.50" arrival="57815.00" arrivalLane="-128361102#1_1" arrivalPos="274.68" arrivalSpeed="14.03" duration="207.00" routeLength="2250.49" waitingTime="13.00" waitingCount="2" stopTime="0.00" timeLoss="47.27" rerouteNo="1" devices="tripinfo_carIn77943:1 routing_carIn77943:1 emissions_carIn77943:1" vType="default_016" speedFactor="1.03" vaporized="">
        <emissions CO_abs="8328.659177" CO2_abs="540149.417541" HC_abs="50.568261" PMx_abs="9.601170" NOx_abs="219.777964" fuel_abs="232.187193" electricity_abs="0"/>
    </tripinfo>
    <tripinfo id="randUni15030:1" depart="57735.00" departLane="386687232#0_1" departPos="5.10" departSpeed="0.00" departDelay="0.10" arrival="57817.00" arrivalLane="26677539_1" arrivalPos="151.98" arrivalSpeed="9.30" duration="82.00" routeLength="919.89" waitingTime="0.00" waitingCount="0" stopTime="0.00" timeLoss="12.82" rerouteNo="1" devices="tripinfo_randUni15030:1 routing_randUni15030:1 emissions_randUni15030:1" vType="random_016" speedFactor="1.21" vaporized="">
        <emissions CO_abs="3240.169753" CO2_abs="221009.208021" HC_abs="19.788135" PMx_abs="3.832522" NOx_abs="89.123347" fuel_abs="95.002428" electricity_abs="0"/>
    </tripinfo>
    <tripinfo id="carIn81046:1" depart="57611.00" departLane="124812856#0_1" departPos="5.10" departSpeed="0.00" departDelay="2.50" arrival="57818.00" arrivalLane="-128361102#1_1" arrivalPos="274.68" arrivalSpeed="12.97" duration="207.00" routeLength="2250.49" waitingTime="10.00" waitingCount="2" stopTime="0.00" timeLoss="41.40" rerouteNo="1" devices="tripinfo_carIn81046:1 routing_carIn81046:1 emissions_carIn81046:1" vType="default_016" speedFactor="0.99" vaporized="">
        <emissions CO_abs="6855.974005" CO2_abs="506240.148961" HC_abs="43.007769" PMx_abs="8.333292" NOx_abs="201.492462" fuel_abs="217.611275" electricity_abs="0"/>
    </tripinfo>
    <tripinfo id="carIn82278:1" depart="57702.00" departLane="-306240162#1_0" departPos="5.10" departSpeed="0.00" departDelay="0.70" arrival="57819.00" arrivalLane="399835085#1_1" arrivalPos="212.23" arrivalSpeed="8.97" duration="117.00" routeLength="1093.26" waitingTime="15.00" waitingCount="3" stopTime="0.00" timeLoss="49.18" rerouteNo="1" devices="tripinfo_carIn82278:1 routing_carIn82278:1 emissions_carIn82278:1" vType="default_016" speedFactor="1.15" vaporized="">
        <emissions CO_abs="7535.909413" CO2_abs="411748.491861" HC_abs="44.175068" PMx_abs="8.264124" NOx_abs="173.193866" fuel_abs="176.992743" electricity_abs="0"/>
    </tripinfo>
    <tripinfo id="carIn77438:1" depart="57614.00" departLane="124812856#0_1" departPos="5.10" departSpeed="0.00" departDelay="1.10" arrival="57820.00" arrivalLane="-128361102#1_1" arrivalPos="274.68" arrivalSpeed="12.87" duration="206.00" routeLength="2250.49" waitingTime="6.00" waitingCount="2" stopTime="0.00" timeLoss="38.12" rerouteNo="1" devices="tripinfo_carIn77438:1 routing_carIn77438:1 emissions_carIn77438:1" vType="default_016" speedFactor="0.98" vaporized="">
        <emissions CO_abs="6900.401504" CO2_abs="514588.078618" HC_abs="43.415667" PMx_abs="8.441534" NOx_abs="204.714126" fuel_abs="221.199677" electricity_abs="0"/>
    </tripinfo>
    <tripinfo id="carIn48184:1" depart="57613.00" departLane="-306240162#1_0" departPos="5.10" departSpeed="0.00" departDelay="0.70" arrival="57823.00" arrivalLane="386687235_2" arrivalPos="80.84" arrivalSpeed="12.19" duration="210.00" routeLength="2257.41" waitingTime="7.00" waitingCount="1" stopTime="0.00" timeLoss="41.11" rerouteNo="1" devices="tripinfo_carIn48184:1 routing_carIn48184:1 emissions_carIn48184:1" vType="default_016" speedFactor="0.88" vaporized="">
        <emissions CO_abs="7535.987487" CO2_abs="525267.001022" HC_abs="46.552568" PMx_abs="8.840955" NOx_abs="210.577430" fuel_abs="225.790150" electricity_abs="0"/>
    </tripinfo>
    <tripinfo id="carIn82220:1" depart="57619.00" departLane="-306240162#1_0" departPos="5.10" departSpeed="0.00" departDelay="3.50" arrival="57823.00" arrivalLane="386687235_1" arrivalPos="80.84" arrivalSpeed="14.50" duration="204.00" routeLength="2257.41" waitingTime="8.00" waitingCount="2" stopTime="0.00" timeLoss="64.75" rerouteNo="1" devices="tripinfo_carIn82220:1 routing_carIn82220:1 emissions_carIn82220:1" vType="default_016" speedFactor="1.07" vaporized="">
        <emissions CO_abs="8885.370493" CO2_abs="602682.851116" HC_abs="54.698810" PMx_abs="10.958022" NOx_abs="246.277606" fuel_abs="259.066992" electricity_abs="0"/>
    </tripinfo>
    <tripinfo id="carIn462:1" depart="57622.00" departLane="-306240162#1_0" departPos="5.10" departSpeed="0.00" departDelay="4.80" arrival="57829.00" arrivalLane="386687235_1" arrivalPos="80.84" arrivalSpeed="10.84" duration="207.00" routeLength="2257.41" waitingTime="4.00" waitingCount="2" stopTime="0.00" timeLoss="35.29" rerouteNo="1" devices="tripinfo_carIn462:1 routing_carIn462:1 emissions_carIn462:1" vType="default_016" speedFactor="0.87" vaporized="">
        <emissions CO_abs="7095.930755" CO2_abs="512834.948820" HC_abs="44.262024" PMx_abs="8.470157" NOx_abs="204.226222" fuel_abs="220.446195" electricity_abs="0"/>
    </tripinfo>
    <tripinfo id="carIn28951:1" depart="57606.00" departLane="10425609#0_1" departPos="5.10" departSpeed="0.00" departDelay="0.20" arrival="57834.00" arrivalLane="-128361102#1_1" arrivalPos="274.68" arrivalSpeed="14.46" duration="228.00" routeLength="2113.04" waitingTime="39.00" waitingCount="3" stopTime="0.00" timeLoss="83.75" rerouteNo="1" devices="tripinfo_carIn28951:1 routing_carIn28951:1 emissions_carIn28951:1" vType="default_016" speedFactor="1.07" vaporized="">
        <emissions CO_abs="12994.272760" CO2_abs="617507.657597" HC_abs="73.650220" PMx_abs="11.525095" NOx_abs="255.611707" fuel_abs="265.442256" electricity_abs="0"/>
    </tripinfo>
    <tripinfo id="carIn102915:1" depart="57643.00" departLane="128361102#0_1" departPos="5.10" departSpeed="0.00" departDelay="0.40" arrival="57836.00" arrivalLane="201956811#0_1" arrivalPos="40.40" arrivalSpeed="12.60" duration="193.00" routeLength="2067.33" waitingTime="3.00" waitingCount="2" stopTime="0.00" timeLoss="32.64" rerouteNo="1" devices="tripinfo_carIn102915:1 routing_carIn102915:1 emissions_carIn102915:1" vType="default_016" speedFactor="0.94" vaporized="">
        <emissions CO_abs="6109.559865" CO2_abs="472383.928692" HC_abs="38.780909" PMx_abs="7.304925" NOx_abs="185.173920" fuel_abs="203.058375" electricity_abs="0"/>
    </tripinfo>
    <tripinfo id="h11737c1:1" depart="57664.00" departLane="272042143_1" departPos="5.10" departSpeed="0.00" departDelay="0.50" arrival="57836.00" arrivalLane="-315358254#1_1" arrivalPos="137.16" arrivalSpeed="14.70" duration="172.00" routeLength="1596.88" waitingTime="41.00" waitingCount="2" stopTime="0.00" timeLoss="64.21" rerouteNo="1" devices="tripinfo_h11737c1:1 routing_h11737c1:1 emissions_h11737c1:1" vType="default_016" speedFactor="1.08" vaporized="">
        <emissions CO_abs="10407.628099" CO2_abs="451256.361284" HC_abs="57.877656" PMx_abs="8.422717" NOx_abs="185.874107" fuel_abs="193.978222" electricity_abs="0"/>
    </tripinfo>
    <tripinfo id="h19804c1:3" depart="57617.00" departLane="124812856#0_1" departPos="5.10" departSpeed="0.00" departDelay="1.50" arrival="57838.00" arrivalLane="-128361102#1_1" arrivalPos="274.68" arrivalSpeed="12.89" duration="221.00" routeLength="2250.49" waitingTime="23.00" waitingCount="3" stopTime="0.00" timeLoss="55.05" rerouteNo="1" devices="tripinfo_h19804c1:3 routing_h19804c1:3 emissions_h19804c1:3" vType="default_016" speedFactor="0.99" vaporized="">
        <emissions CO_abs="8922.352868" CO2_abs="550863.531808" HC_abs="53.463872" PMx_abs="9.173163" NOx_abs="219.910446" fuel_abs="236.794082" electricity_abs="0"/>
    </tripinfo>
    <tripinfo id="randUni33724:1" depart="57646.00" departLane="128361102#0_1" departPos="5.10" departSpeed="0.00" departDelay="1.20" arrival="57838.00" arrivalLane="201956811#0_1" arrivalPos="40.40" arrivalSpeed="14.23" duration="192.00" routeLength="2067.33" waitingTime="3.00" waitingCount="2" stopTime="0.00" timeLoss="53.05" rerouteNo="1" devices="tripinfo_randUni33724:1 routing_randUni33724:1 emissions_randUni33724:1" vType="random_016" speedFactor="1.09" vaporized="">
        <emissions CO_abs="7414.759223" CO2_abs="516866.600377" HC_abs="45.912358" PMx_abs="8.984510" NOx_abs="209.483689" fuel_abs="222.178702" electricity_abs="0"/>
    </tripinfo>
    <tripinfo id="carIn126288:1" depart="57674.00" departLane="272042143_1" departPos="5.10" departSpeed="0.00" departDelay="0.00" arrival="57838.00" arrivalLane="-315358254#1_1" arrivalPos="137.16" arrivalSpeed="14.14" duration="164.00" routeLength="1596.88" waitingTime="34.00" waitingCount="1" stopTime="0.00" timeLoss="56.52" rerouteNo="1" devices="tripinfo_carIn126288:1 routing_carIn126288:1 emissions_carIn126288:1" vType="default_016" speedFactor="1.08" vaporized="">
        <emissions CO_abs="9574.733450" CO2_abs="431133.468083" HC_abs="53.692052" PMx_abs="7.958451" NOx_abs="176.802476" fuel_abs="185.328000" electricity_abs="0"/>
    </tripinfo>
    <tripinfo id="carIn46110:1" depart="57684.00" departLane="315358244_1" departPos="5.10" departSpeed="0.00" departDelay="1.20" arrival="57841.00" arrivalLane="32978638#0_1" arrivalPos="49.29" arrivalSpeed="13.11" duration="157.00" routeLength="1764.04" waitingTime="9.00" waitingCount="2" stopTime="0.00" timeLoss="30.15" rerouteNo="1" devices="tripinfo_carIn46110:1 routing_carIn46110:1 emissions_carIn46110:1" vType="default_016" speedFactor="1.02" vaporized="">